 Entering Gaussian System, Link 0=g16
 Initial command:
 /home1/apps/gaussian/16rA.03/g16/l1.exe "/tmp/Gau-234630.inp" -scrdir="/tmp/"
 Entering Link 1 = /home1/apps/gaussian/16rA.03/g16/l1.exe PID=    234631.
  
 Copyright (c) 1988,1990,1992,1993,1995,1998,2003,2009,2016,
            Gaussian, Inc.  All Rights Reserved.
  
 This is part of the Gaussian(R) 16 program.  It is based on
 the Gaussian(R) 09 system (copyright 2009, Gaussian, Inc.),
 the Gaussian(R) 03 system (copyright 2003, Gaussian, Inc.),
 the Gaussian(R) 98 system (copyright 1998, Gaussian, Inc.),
 the Gaussian(R) 94 system (copyright 1995, Gaussian, Inc.),
 the Gaussian 92(TM) system (copyright 1992, Gaussian, Inc.),
 the Gaussian 90(TM) system (copyright 1990, Gaussian, Inc.),
 the Gaussian 88(TM) system (copyright 1988, Gaussian, Inc.),
 the Gaussian 86(TM) system (copyright 1986, Carnegie Mellon
 University), and the Gaussian 82(TM) system (copyright 1983,
 Carnegie Mellon University). Gaussian is a federally registered
 trademark of Gaussian, Inc.
  
 This software contains proprietary and confidential information,
 including trade secrets, belonging to Gaussian, Inc.
  
 This software is provided under written license and may be
 used, copied, transmitted, or stored only in accord with that
 written license.
  
 The following legend is applicable only to US Government
 contracts under FAR:
  
                    RESTRICTED RIGHTS LEGEND
  
 Use, reproduction and disclosure by the US Government is
 subject to restrictions as set forth in subparagraphs (a)
 and (c) of the Commercial Computer Software - Restricted
 Rights clause in FAR 52.227-19.
  
 Gaussian, Inc.
 340 Quinnipiac St., Bldg. 40, Wallingford CT 06492
  
  
 ---------------------------------------------------------------
 Warning -- This program may not be used in any manner that
 competes with the business of Gaussian, Inc. or will provide
 assistance to any competitor of Gaussian, Inc.  The licensee
 of this program is prohibited from giving any competitor of
 Gaussian, Inc. access to this program.  By using this program,
 the user acknowledges that Gaussian, Inc. is engaged in the
 business of creating and licensing software in the field of
 computational chemistry and represents and warrants to the
 licensee that it is not a competitor of Gaussian, Inc. and that
 it will not use this program in any manner prohibited above.
 ---------------------------------------------------------------
  

 Cite this work as:
 Gaussian 16, Revision A.03,
 M. J. Frisch, G. W. Trucks, H. B. Schlegel, G. E. Scuseria, 
 M. A. Robb, J. R. Cheeseman, G. Scalmani, V. Barone, 
 G. A. Petersson, H. Nakatsuji, X. Li, M. Caricato, A. V. Marenich, 
 J. Bloino, B. G. Janesko, R. Gomperts, B. Mennucci, H. P. Hratchian, 
 J. V. Ortiz, A. F. Izmaylov, J. L. Sonnenberg, D. Williams-Young, 
 F. Ding, F. Lipparini, F. Egidi, J. Goings, B. Peng, A. Petrone, 
 T. Henderson, D. Ranasinghe, V. G. Zakrzewski, J. Gao, N. Rega, 
 G. Zheng, W. Liang, M. Hada, M. Ehara, K. Toyota, R. Fukuda, 
 J. Hasegawa, M. Ishida, T. Nakajima, Y. Honda, O. Kitao, H. Nakai, 
 T. Vreven, K. Throssell, J. A. Montgomery, Jr., J. E. Peralta, 
 F. Ogliaro, M. J. Bearpark, J. J. Heyd, E. N. Brothers, K. N. Kudin, 
 V. N. Staroverov, T. A. Keith, R. Kobayashi, J. Normand, 
 K. Raghavachari, A. P. Rendell, J. C. Burant, S. S. Iyengar, 
 J. Tomasi, M. Cossi, J. M. Millam, M. Klene, C. Adamo, R. Cammi, 
 J. W. Ochterski, R. L. Martin, K. Morokuma, O. Farkas, 
 J. B. Foresman, and D. J. Fox, Gaussian, Inc., Wallingford CT, 2016.
 
 ******************************************
 Gaussian 16:  ES64L-G16RevA.03 25-Dec-2016
                13-Feb-2018 
 ******************************************
 %mem=64GB
 %cpu=0-31
 SetSPE:  set environment variable "MP_BIND" = "yes"
 SetSPE:  set environment variable "MP_BLIST" = "0,1,2,3,4,5,6,7,8,9,10,11,12,13,14,15,16,17,18,19,20,21,22,23,24,25,26,27,28,29,30,31"
 Will use up to   32 processors via shared memory.
 %chk=ScH
 ----------------------------------------------------------------------
 #P ROCCSD(T)=(maxcyc=150, Full)/Gen 5d 7f SCF=(maxcycles=300) Integral
 (NoXCTest) MaxDisk=500GB Pop=Regular Pseudo=Read IOp(5/15=2) Guess=Rea
 d
 ----------------------------------------------------------------------
 1/38=1,172=1/1;
 2/12=2,17=6,18=5,40=1/2;
 3/5=7,8=11,11=2,16=1,17=8,25=1,30=1,47=8,116=101/1,2,3;
 4/5=1/1;
 5/5=2,7=300,15=2,38=6/2;
 8/5=-1,6=4,9=120000,10=90/1,4;
 9/5=7,6=150,14=2/13;
 6//1;
 99/5=1,9=1/99;
 Leave Link    1 at Tue Feb 13 19:28:19 2018, MaxMem=  8589934592 cpu:               6.2 elap:               0.2
 (Enter /home1/apps/gaussian/16rA.03/g16/l101.exe)
 ---
 ScH
 ---
 Symbolic Z-matrix:
 Charge =  0 Multiplicity = 1
 Sc                    0.        0.        0. 
 H                     0.        0.        1.2 
 
 ITRead=  0  0
 MicOpt= -1 -1
 NAtoms=      2 NQM=        2 NQMF=       0 NMMI=      0 NMMIF=      0
                NMic=       0 NMicF=      0.
                    Isotopes and Nuclear Properties:
 (Nuclear quadrupole moments (NQMom) in fm**2, nuclear magnetic moments (NMagM)
  in nuclear magnetons)

  Atom         1           2
 IAtWgt=          45           1
 AtmWgt=  44.9559136   1.0078250
 NucSpn=           7           1
 AtZEff=  -0.0000000  -0.0000000
 NQMom=  -22.0000000   0.0000000
 NMagM=    4.7564830   2.7928460
 AtZNuc=  21.0000000   1.0000000
 Leave Link  101 at Tue Feb 13 19:28:20 2018, MaxMem=  8589934592 cpu:               2.8 elap:               0.1
 (Enter /home1/apps/gaussian/16rA.03/g16/l202.exe)
                          Input orientation:                          
 ---------------------------------------------------------------------
 Center     Atomic      Atomic             Coordinates (Angstroms)
 Number     Number       Type             X           Y           Z
 ---------------------------------------------------------------------
      1         21           0        0.000000    0.000000    0.000000
      2          1           0        0.000000    0.000000    1.200000
 ---------------------------------------------------------------------
 Stoichiometry    HSc
 Framework group  C*V[C*(HSc)]
 Deg. of freedom     1
 Full point group                 C*V     NOp   4
 Largest Abelian subgroup         C2V     NOp   4
 Largest concise Abelian subgroup C1      NOp   1
                         Standard orientation:                         
 ---------------------------------------------------------------------
 Center     Atomic      Atomic             Coordinates (Angstroms)
 Number     Number       Type             X           Y           Z
 ---------------------------------------------------------------------
      1         21           0        0.000000    0.000000    0.054545
      2          1           0        0.000000    0.000000   -1.145455
 ---------------------------------------------------------------------
 Rotational constants (GHZ):           0.0000000         356.0394184         356.0394184
 Leave Link  202 at Tue Feb 13 19:28:20 2018, MaxMem=  8589934592 cpu:               0.6 elap:               0.0
 (Enter /home1/apps/gaussian/16rA.03/g16/l301.exe)
 General basis read from cards:  (5D, 7F)
 Centers:       1
 S 1 1.00
     Exponent=  1.1949500000D+08 Coefficients=  1.0000000000D+00
 S 1 1.00
     Exponent=  2.1499200000D+07 Coefficients=  1.0000000000D+00
 S 1 1.00
     Exponent=  4.8070300000D+06 Coefficients=  1.0000000000D+00
 S 1 1.00
     Exponent=  1.2844000000D+06 Coefficients=  1.0000000000D+00
 S 1 1.00
     Exponent=  3.9659500000D+05 Coefficients=  1.0000000000D+00
 S 1 1.00
     Exponent=  1.3757500000D+05 Coefficients=  1.0000000000D+00
 S 1 1.00
     Exponent=  5.2366800000D+04 Coefficients=  1.0000000000D+00
 S 1 1.00
     Exponent=  2.1454900000D+04 Coefficients=  1.0000000000D+00
 S 1 1.00
     Exponent=  9.3160600000D+03 Coefficients=  1.0000000000D+00
 S 1 1.00
     Exponent=  4.2354000000D+03 Coefficients=  1.0000000000D+00
 S 1 1.00
     Exponent=  1.9974400000D+03 Coefficients=  1.0000000000D+00
 S 1 1.00
     Exponent=  9.7043000000D+02 Coefficients=  1.0000000000D+00
 S 1 1.00
     Exponent=  4.8327100000D+02 Coefficients=  1.0000000000D+00
 S 1 1.00
     Exponent=  2.4580600000D+02 Coefficients=  1.0000000000D+00
 S 1 1.00
     Exponent=  1.2736000000D+02 Coefficients=  1.0000000000D+00
 S 1 1.00
     Exponent=  6.7078800000D+01 Coefficients=  1.0000000000D+00
 S 1 1.00
     Exponent=  3.5837100000D+01 Coefficients=  1.0000000000D+00
 S 1 1.00
     Exponent=  1.9371300000D+01 Coefficients=  1.0000000000D+00
 S 1 1.00
     Exponent=  1.0557100000D+01 Coefficients=  1.0000000000D+00
 S 1 1.00
     Exponent=  5.7724900000D+00 Coefficients=  1.0000000000D+00
 S 1 1.00
     Exponent=  3.1454000000D+00 Coefficients=  1.0000000000D+00
 S 1 1.00
     Exponent=  1.6924900000D+00 Coefficients=  1.0000000000D+00
 S 1 1.00
     Exponent=  8.8864900000D-01 Coefficients=  1.0000000000D+00
 S 1 1.00
     Exponent=  4.7109300000D-01 Coefficients=  1.0000000000D+00
 S 1 1.00
     Exponent=  2.4928600000D-01 Coefficients=  1.0000000000D+00
 S 1 1.00
     Exponent=  9.9988000000D-02 Coefficients=  1.0000000000D+00
 S 1 1.00
     Exponent=  4.6369000000D-02 Coefficients=  1.0000000000D+00
 S 1 1.00
     Exponent=  2.1606000000D-02 Coefficients=  1.0000000000D+00
 S 1 1.00
     Exponent=  4.3955000000D+00 Coefficients=  1.0000000000D+00
 S 1 1.00
     Exponent=  1.1564000000D+00 Coefficients=  1.0000000000D+00
 S 1 1.00
     Exponent=  1.0070000000D-02 Coefficients=  1.0000000000D+00
 P 1 1.00
     Exponent=  5.5070500000D+04 Coefficients=  1.0000000000D+00
 P 1 1.00
     Exponent=  1.3741700000D+04 Coefficients=  1.0000000000D+00
 P 1 1.00
     Exponent=  4.3654000000D+03 Coefficients=  1.0000000000D+00
 P 1 1.00
     Exponent=  1.6422600000D+03 Coefficients=  1.0000000000D+00
 P 1 1.00
     Exponent=  6.9406600000D+02 Coefficients=  1.0000000000D+00
 P 1 1.00
     Exponent=  3.1774200000D+02 Coefficients=  1.0000000000D+00
 P 1 1.00
     Exponent=  1.5389900000D+02 Coefficients=  1.0000000000D+00
 P 1 1.00
     Exponent=  7.7766500000D+01 Coefficients=  1.0000000000D+00
 P 1 1.00
     Exponent=  4.0673600000D+01 Coefficients=  1.0000000000D+00
 P 1 1.00
     Exponent=  2.1906100000D+01 Coefficients=  1.0000000000D+00
 P 1 1.00
     Exponent=  1.2079500000D+01 Coefficients=  1.0000000000D+00
 P 1 1.00
     Exponent=  6.7534900000D+00 Coefficients=  1.0000000000D+00
 P 1 1.00
     Exponent=  3.7632100000D+00 Coefficients=  1.0000000000D+00
 P 1 1.00
     Exponent=  2.0497300000D+00 Coefficients=  1.0000000000D+00
 P 1 1.00
     Exponent=  1.0864500000D+00 Coefficients=  1.0000000000D+00
 P 1 1.00
     Exponent=  5.6408700000D-01 Coefficients=  1.0000000000D+00
 P 1 1.00
     Exponent=  2.8102000000D-01 Coefficients=  1.0000000000D+00
 P 1 1.00
     Exponent=  1.2143200000D-01 Coefficients=  1.0000000000D+00
 P 1 1.00
     Exponent=  5.3345000000D-02 Coefficients=  1.0000000000D+00
 P 1 1.00
     Exponent=  2.3143000000D-02 Coefficients=  1.0000000000D+00
 P 1 1.00
     Exponent=  5.1300000000D+00 Coefficients=  1.0000000000D+00
 P 1 1.00
     Exponent=  1.2315000000D+00 Coefficients=  1.0000000000D+00
 P 1 1.00
     Exponent=  1.0040000000D-02 Coefficients=  1.0000000000D+00
 D 1 1.00
     Exponent=  2.0684900000D+02 Coefficients=  1.0000000000D+00
 D 1 1.00
     Exponent=  6.0997700000D+01 Coefficients=  1.0000000000D+00
 D 1 1.00
     Exponent=  2.3308500000D+01 Coefficients=  1.0000000000D+00
 D 1 1.00
     Exponent=  9.9288100000D+00 Coefficients=  1.0000000000D+00
 D 1 1.00
     Exponent=  4.4867000000D+00 Coefficients=  1.0000000000D+00
 D 1 1.00
     Exponent=  2.1263200000D+00 Coefficients=  1.0000000000D+00
 D 1 1.00
     Exponent=  1.0200800000D+00 Coefficients=  1.0000000000D+00
 D 1 1.00
     Exponent=  4.8537300000D-01 Coefficients=  1.0000000000D+00
 D 1 1.00
     Exponent=  2.2719800000D-01 Coefficients=  1.0000000000D+00
 D 1 1.00
     Exponent=  1.0420400000D-01 Coefficients=  1.0000000000D+00
 D 1 1.00
     Exponent=  4.6835000000D-02 Coefficients=  1.0000000000D+00
 D 1 1.00
     Exponent=  2.0259000000D-02 Coefficients=  1.0000000000D+00
 D 1 1.00
     Exponent=  2.6491000000D+00 Coefficients=  1.0000000000D+00
 D 1 1.00
     Exponent=  1.4102000000D+00 Coefficients=  1.0000000000D+00
 D 1 1.00
     Exponent=  8.7600000000D-03 Coefficients=  1.0000000000D+00
 F 1 1.00
     Exponent=  3.5989000000D+00 Coefficients=  1.0000000000D+00
 F 1 1.00
     Exponent=  1.5145000000D+00 Coefficients=  1.0000000000D+00
 F 1 1.00
     Exponent=  6.3730000000D-01 Coefficients=  1.0000000000D+00
 F 1 1.00
     Exponent=  2.6820000000D-01 Coefficients=  1.0000000000D+00
 F 1 1.00
     Exponent=  8.0900000000D-02 Coefficients=  1.0000000000D+00
 F 1 1.00
     Exponent=  2.4400000000D-02 Coefficients=  1.0000000000D+00
 G 1 1.00
     Exponent=  3.1618000000D+00 Coefficients=  1.0000000000D+00
 G 1 1.00
     Exponent=  1.3736000000D+00 Coefficients=  1.0000000000D+00
 G 1 1.00
     Exponent=  5.9680000000D-01 Coefficients=  1.0000000000D+00
 G 1 1.00
     Exponent=  1.7110000000D-01 Coefficients=  1.0000000000D+00
 G 1 1.00
     Exponent=  4.9050000000D-02 Coefficients=  1.0000000000D+00
 H 1 1.00
     Exponent=  2.9441000000D+00 Coefficients=  1.0000000000D+00
 H 1 1.00
     Exponent=  1.1635000000D+00 Coefficients=  1.0000000000D+00
 H 1 1.00
     Exponent=  3.2900000000D-01 Coefficients=  1.0000000000D+00
 H 1 1.00
     Exponent=  9.3030000000D-02 Coefficients=  1.0000000000D+00
 I 1 1.00
     Exponent=  3.1150000000D+00 Coefficients=  1.0000000000D+00
 I 1 1.00
     Exponent=  1.1682000000D+00 Coefficients=  1.0000000000D+00
 I 1 1.00
     Exponent=  4.3810000000D-01 Coefficients=  1.0000000000D+00
 ****
 Centers:       2
 S 1 1.00
     Exponent=  4.0200000000D+02 Coefficients=  1.0000000000D+00
 S 1 1.00
     Exponent=  6.0240000000D+01 Coefficients=  1.0000000000D+00
 S 1 1.00
     Exponent=  1.3730000000D+01 Coefficients=  1.0000000000D+00
 S 1 1.00
     Exponent=  3.9050000000D+00 Coefficients=  1.0000000000D+00
 S 1 1.00
     Exponent=  1.2830000000D+00 Coefficients=  1.0000000000D+00
 S 1 1.00
     Exponent=  4.6550000000D-01 Coefficients=  1.0000000000D+00
 S 1 1.00
     Exponent=  1.8110000000D-01 Coefficients=  1.0000000000D+00
 S 1 1.00
     Exponent=  7.2790000000D-02 Coefficients=  1.0000000000D+00
 S 1 1.00
     Exponent=  2.0700000000D-02 Coefficients=  1.0000000000D+00
 P 1 1.00
     Exponent=  4.5160000000D+00 Coefficients=  1.0000000000D+00
 P 1 1.00
     Exponent=  1.7120000000D+00 Coefficients=  1.0000000000D+00
 P 1 1.00
     Exponent=  6.4900000000D-01 Coefficients=  1.0000000000D+00
 P 1 1.00
     Exponent=  2.4600000000D-01 Coefficients=  1.0000000000D+00
 P 1 1.00
     Exponent=  7.4400000000D-02 Coefficients=  1.0000000000D+00
 D 1 1.00
     Exponent=  2.9500000000D+00 Coefficients=  1.0000000000D+00
 D 1 1.00
     Exponent=  1.2060000000D+00 Coefficients=  1.0000000000D+00
 D 1 1.00
     Exponent=  4.9300000000D-01 Coefficients=  1.0000000000D+00
 D 1 1.00
     Exponent=  1.5600000000D-01 Coefficients=  1.0000000000D+00
 F 1 1.00
     Exponent=  2.5060000000D+00 Coefficients=  1.0000000000D+00
 F 1 1.00
     Exponent=  8.7500000000D-01 Coefficients=  1.0000000000D+00
 F 1 1.00
     Exponent=  2.7400000000D-01 Coefficients=  1.0000000000D+00
 G 1 1.00
     Exponent=  2.3580000000D+00 Coefficients=  1.0000000000D+00
 G 1 1.00
     Exponent=  5.4300000000D-01 Coefficients=  1.0000000000D+00
 ****
 ======================================================================================================
                                       Pseudopotential Parameters
 ======================================================================================================
  Center     Atomic      Valence      Angular      Power
  Number     Number     Electrons     Momentum     of R      Exponent        Coefficient   SO-Coeffient
 ======================================================================================================
    1         21           11
                                      F and up 
                                                     2        1.0000000        0.00000000    0.00000000
                                      S - F
                                                     2       11.5000000      138.53815200    0.00000000
                                                     2        5.1840000       14.83404200    0.00000000
                                      P - F
                                                     2       10.9300000       82.45861400    0.00000000
                                                     2        4.5810000        8.56520600    0.00000000
                                      D - F
                                                     2       13.4700000      -16.12986200    0.00000000
                                                     2        4.3750000       -0.53469000    0.00000000
    2          1            1
                                      P and up 
                                                     2       21.7769666      -10.85192405    0.00000000
                                                     1       21.2435951        1.00000000    0.00000000
                                                     3       21.2435951       21.24359508    0.00000000
                                      S - P
                                                     2        1.0000000        0.00000000    0.00000000
 ======================================================================================================
 Ernie: Thresh=  0.10000D-02 Tol=  0.10000D-05 Strict=F.
 There are   248 symmetry adapted cartesian basis functions of A1  symmetry.
 There are    79 symmetry adapted cartesian basis functions of A2  symmetry.
 There are   137 symmetry adapted cartesian basis functions of B1  symmetry.
 There are   137 symmetry adapted cartesian basis functions of B2  symmetry.
 There are   169 symmetry adapted basis functions of A1  symmetry.
 There are    59 symmetry adapted basis functions of A2  symmetry.
 There are   100 symmetry adapted basis functions of B1  symmetry.
 There are   100 symmetry adapted basis functions of B2  symmetry.
   428 basis functions,   601 primitive gaussians,   601 cartesian basis functions
     6 alpha electrons        6 beta electrons
       nuclear repulsion energy         4.8507911001 Hartrees.
 IExCor=    0 DFT=F Ex=HF Corr=None ExCW=0 ScaHFX=  1.000000
 ScaDFX=  1.000000  1.000000  1.000000  1.000000 ScalE2=  1.000000  1.000000
 IRadAn=      5 IRanWt=     -1 IRanGd=            0 ICorTp=0 IEmpDi=  4
 NAtoms=    2 NActive=    2 NUniq=    2 SFac= 1.00D+00 NAtFMM=   60 NAOKFM=F Big=F
 Integral buffers will be    131072 words long.
 Raffenetti 2 integral format.
 Two-electron integral symmetry is turned on.
 Leave Link  301 at Tue Feb 13 19:28:20 2018, MaxMem=  8589934592 cpu:               8.9 elap:               0.3
 (Enter /home1/apps/gaussian/16rA.03/g16/l302.exe)
 NPDir=0 NMtPBC=     1 NCelOv=     1 NCel=       1 NClECP=     1 NCelD=      1
         NCelK=      1 NCelE2=     1 NClLst=     1 CellRange=     0.0.
 One-electron integrals computed using PRISM.
 One-electron integral symmetry used in STVInt
   4 Symmetry operations used in ECPInt.
 ECPInt:  NShTT=    6105 NPrTT=    6105 LenC2=    6028 LenP2D=    6027.
 LDataN:  DoStor=T MaxTD1=12 Len= 1566
 NBasis=   428 RedAO= T EigKep=  1.06D-06  NBF=   169    59   100   100
 NBsUse=   426 1.00D-06 EigRej=  7.05D-07 NBFU=   167    59   100   100
 Leave Link  302 at Tue Feb 13 19:28:31 2018, MaxMem=  8589934592 cpu:             361.4 elap:              11.3
 (Enter /home1/apps/gaussian/16rA.03/g16/l303.exe)
 DipDrv:  MaxL=1.
 Leave Link  303 at Tue Feb 13 19:28:32 2018, MaxMem=  8589934592 cpu:               4.6 elap:               0.2
 (Enter /home1/apps/gaussian/16rA.03/g16/l401.exe)
 Initial guess from the checkpoint file:  "ScH.chk"
 B after Tr=     0.000000    0.000000    0.000000
         Rot=    1.000000    0.000000    0.000000    0.000000 Ang=   0.00 deg.
 Guess basis will be translated and rotated to current coordinates.
 JPrj=2 DoOrth=T DoCkMO=T.
 Initial guess orbital symmetries:
       Occupied  (SG) (SG) (PI) (PI) (SG) (SG)
       Virtual   (PI) (PI) (SG) (SG) (PI) (PI) (SG) (DLTA) (DLTA)
                 (SG) (PI) (PI) (SG) (PI) (PI) (DLTA) (DLTA) (SG)
                 (SG) (PI) (PI) (DLTA) (DLTA) (PHI) (PHI) (SG)
                 (DLTA) (DLTA) (PI) (PI) (PI) (PI) (SG) (SG) (PI)
                 (PI) (DLTA) (DLTA) (SG) (PI) (PI) (SG) (PI) (PI)
                 (DLTA) (DLTA) (SG) (PHI) (PHI) (?A) (?A) (SG)
                 (PI) (PI) (DLTA) (DLTA) (PHI) (PHI) (SG) (PI)
                 (PI) (SG) (DLTA) (DLTA) (PI) (PI) (SG) (DLTA)
                 (DLTA) (PI) (PI) (PHI) (PHI) (?A) (?A) (?B) (?B)
                 (SG) (SG) (PI) (PI) (DLTA) (DLTA) (SG) (SG) (PI)
                 (PI) (PI) (PI) (DLTA) (DLTA) (PHI) (PHI) (?A)
                 (?A) (SG) (PI) (PI) (PHI) (PHI) (DLTA) (DLTA)
                 (SG) (SG) (PI) (PI) (DLTA) (DLTA) (PI) (PI) (SG)
                 (SG) (PHI) (PHI) (DLTA) (DLTA) (PI) (PI) (SG)
                 (SG) (PI) (PI) (PI) (PI) (DLTA) (DLTA) (SG) (?A)
                 (?A) (?B) (?B) (SG) (PI) (PI) (DLTA) (DLTA) (PHI)
                 (PHI) (SG) (DLTA) (DLTA) (PI) (PI) (SG) (PI) (PI)
                 (SG) (PHI) (PHI) (DLTA) (DLTA) (PHI) (PHI) (?A)
                 (?A) (PI) (PI) (DLTA) (DLTA) (SG) (SG) (PI) (PI)
                 (SG) (DLTA) (DLTA) (PI) (PI) (PI) (PI) (SG) (SG)
                 (PHI) (PHI) (DLTA) (DLTA) (SG) (PI) (PI) (SG)
                 (DLTA) (DLTA) (PI) (PI) (PI) (PI) (SG) (SG) (PHI)
                 (PHI) (DLTA) (DLTA) (DLTA) (DLTA) (PI) (PI) (PI)
                 (PI) (SG) (SG) (PI) (PI) (?A) (?A) (?B) (?B) (PHI)
                 (PHI) (SG) (DLTA) (DLTA) (?A) (?A) (PHI) (PHI)
                 (DLTA) (DLTA) (PI) (PI) (SG) (PI) (PI) (SG) (SG)
                 (DLTA) (DLTA) (PI) (PI) (SG) (PI) (PI) (SG) (SG)
                 (SG) (DLTA) (DLTA) (PI) (PI) (SG) (PI) (PI) (SG)
                 (SG) (PI) (PI) (SG) (DLTA) (DLTA) (PI) (PI) (SG)
                 (SG) (PI) (PI) (SG) (SG) (DLTA) (DLTA) (PI) (PI)
                 (SG) (SG) (PI) (PI) (SG) (SG) (PI) (PI) (SG) (DLTA)
                 (DLTA) (PI) (PI) (SG) (SG) (PI) (PI) (SG) (SG)
                 (PI) (PI) (SG) (SG) (PI) (PI) (SG) (SG) (PI) (PI)
                 (SG) (SG) (PI) (PI) (SG) (SG) (PI) (PI) (SG) (SG)
                 (SG) (SG) (SG) (SG) (DLTA) (SG) (SG) (DLTA) (SG)
                 (SG) (SG) (DLTA) (SG) (SG) (DLTA) (SG) (SG) (DLTA)
                 (?A) (SG) (SG) (SG) (DLTA) (?A) (SG) (DLTA) (SG)
                 (SG) (DLTA) (SG) (DLTA) (?A) (SG) (SG) (DLTA)
                 (?A) (?A) (SG) (DLTA) (?A) (SG) (SG) (?A) (SG)
                 (SG) (SG) (DLTA) (DLTA) (DLTA) (DLTA) (DLTA) (?A)
                 (DLTA) (?A) (DLTA) (DLTA) (DLTA) (?A) (SG) (DLTA)
                 (?A) (?A) (DLTA) (?A) (SG) (?A) (SG) (PI) (PI)
                 (PI) (PHI) (PI) (PI) (PI) (PHI) (PI) (PI) (PHI)
                 (PI) (PHI) (PI) (PI) (PHI) (?B) (PHI) (PI) (PHI)
                 (PI) (PI) (?B) (PHI) (PHI) (?B) (?B) (PI) (PI)
                 (PI) (PHI) (PI) (PI) (PI) (PHI) (PI) (PI) (PHI)
                 (PI) (PHI) (PI) (PI) (PHI) (?B) (PHI) (PI) (PHI)
                 (PI) (PI) (?B) (PHI) (PHI) (?B) (?B)
 The electronic state of the initial guess is 1-SG.
 Leave Link  401 at Tue Feb 13 19:28:33 2018, MaxMem=  8589934592 cpu:              39.0 elap:               1.4
 (Enter /home1/apps/gaussian/16rA.03/g16/l502.exe)
 Keep R1 and R2 ints in memory in symmetry-blocked form, NReq=5277864979.
 FoFCou: FMM=F IPFlag=           8 FMFlag=           0 FMFlg1=           0
         NFxFlg=           0 DoJE=F BraDBF=F KetDBF=F FulRan=T
         wScrn=  0.000000 ICntrl=       600 IOpCl=  0 I1Cent=           0 NGrid=           0
         NMat0=    1 NMatS0=  91806 NMatT0=    0 NMatD0=    1 NMtDS0=    0 NMtDT0=    0
 Petite list used in FoFCou.
 Restricted open shell SCF:
 Using DIIS extrapolation, IDIIS=  1040.
 NGot=  8589934592 LenX=  6462098699 LenY=  6461736897
 Requested convergence on RMS density matrix=1.00D-08 within 300 cycles.
 Requested convergence on MAX density matrix=1.00D-06.
 Requested convergence on             energy=1.00D-06.
 No special actions if energy rises.

 Cycle   1  Pass 1  IDiag  1:
 E= -46.6811549929213    
 DIIS: error= 5.71D-01 at cycle   1 NSaved=   1.
 NSaved= 1 IEnMin= 1 EnMin= -46.6811549929213     IErMin= 1 ErrMin= 5.71D-01
 ErrMax= 5.71D-01  0.00D+00 EMaxC= 1.00D-01 BMatC= 4.06D+01 BMatP= 4.06D+01
 IDIUse=3 WtCom= 0.00D+00 WtEn= 1.00D+00
 Coeff-Com:  0.100D+01
 Coeff-En:   0.100D+01
 Coeff:      0.100D+01
 Gap=     0.229 Goal=   None    Shift=    0.000
 GapD=    0.229 DampG=1.000 DampE=0.125 DampFc=0.1250 IDamp=-1.
 Damping current iteration by 1.25D-01
 RMSDP=1.48D-03 MaxDP=2.22D-01              OVMax= 7.83D-04

 Cycle   2  Pass 1  IDiag  1:
 E= -46.6811661650794     Delta-E=       -0.000011172158 Rises=F Damp=T
 DIIS: error= 5.00D-01 at cycle   2 NSaved=   2.
 NSaved= 2 IEnMin= 2 EnMin= -46.6811661650794     IErMin= 2 ErrMin= 5.00D-01
 ErrMax= 5.00D-01  0.00D+00 EMaxC= 1.00D-01 BMatC= 3.11D+01 BMatP= 4.06D+01
 IDIUse=3 WtCom= 0.00D+00 WtEn= 1.00D+00
 Coeff-Com: -0.700D+01 0.800D+01
 Coeff-En:   0.000D+00 0.100D+01
 Coeff:      0.000D+00 0.100D+01
 Gap=     0.229 Goal=   None    Shift=    0.000
 RMSDP=1.30D-03 MaxDP=1.95D-01 DE=-1.12D-05 OVMax= 8.60D-06

 Cycle   3  Pass 1  IDiag  1:
 E= -46.6812456647640     Delta-E=       -0.000079499685 Rises=F Damp=F
 DIIS: error= 1.16D-04 at cycle   3 NSaved=   3.
 NSaved= 3 IEnMin= 3 EnMin= -46.6812456647640     IErMin= 3 ErrMin= 1.16D-04
 ErrMax= 1.16D-04  0.00D+00 EMaxC= 1.00D-01 BMatC= 3.26D-07 BMatP= 3.11D+01
 IDIUse=3 WtCom= 9.99D-01 WtEn= 1.16D-03
 Large coefficients: NSaved=  3 BigCof=   54.08 CofMax=   10.00 Det=-1.04D-10
 Inversion failed.  Reducing to  2 matrices.
 Coeff-Com: -0.746D-06 0.100D+01
 Coeff-En:   0.000D+00 0.100D+01
 Coeff:     -0.745D-06 0.100D+01
 Gap=     0.229 Goal=   None    Shift=    0.000
 RMSDP=3.98D-05 MaxDP=3.87D-03 DE=-7.95D-05 OVMax= 6.12D-05

 Cycle   4  Pass 1  IDiag  1:
 E= -46.6812457118388     Delta-E=       -0.000000047075 Rises=F Damp=F
 DIIS: error= 2.08D-06 at cycle   4 NSaved=   3.
 NSaved= 3 IEnMin= 3 EnMin= -46.6812457118388     IErMin= 3 ErrMin= 2.08D-06
 ErrMax= 2.08D-06  0.00D+00 EMaxC= 1.00D-01 BMatC= 5.73D-10 BMatP= 3.26D-07
 IDIUse=1 WtCom= 1.00D+00 WtEn= 0.00D+00
 Coeff-Com:  0.161D-07-0.313D-01 0.103D+01
 Coeff:      0.161D-07-0.313D-01 0.103D+01
 Gap=     0.229 Goal=   None    Shift=    0.000
 RMSDP=3.34D-06 MaxDP=3.02D-04 DE=-4.71D-08 OVMax= 1.00D-05

 Cycle   5  Pass 1  IDiag  1:
 E= -46.6812457122234     Delta-E=       -0.000000000385 Rises=F Damp=F
 DIIS: error= 3.81D-07 at cycle   5 NSaved=   4.
 NSaved= 4 IEnMin= 4 EnMin= -46.6812457122234     IErMin= 4 ErrMin= 3.81D-07
 ErrMax= 3.81D-07  0.00D+00 EMaxC= 1.00D-01 BMatC= 1.03D-11 BMatP= 5.73D-10
 IDIUse=1 WtCom= 1.00D+00 WtEn= 0.00D+00
 Coeff-Com: -0.347D-10-0.131D-03-0.196D-01 0.102D+01
 Coeff:     -0.347D-10-0.131D-03-0.196D-01 0.102D+01
 Gap=     0.229 Goal=   None    Shift=    0.000
 RMSDP=3.84D-07 MaxDP=4.97D-05 DE=-3.85D-10 OVMax= 2.52D-06

 Cycle   6  Pass 1  IDiag  1:
 E= -46.6812457122436     Delta-E=       -0.000000000020 Rises=F Damp=F
 DIIS: error= 1.86D-07 at cycle   6 NSaved=   5.
 NSaved= 5 IEnMin= 5 EnMin= -46.6812457122436     IErMin= 5 ErrMin= 1.86D-07
 ErrMax= 1.86D-07  0.00D+00 EMaxC= 1.00D-01 BMatC= 1.81D-12 BMatP= 1.03D-11
 IDIUse=1 WtCom= 1.00D+00 WtEn= 0.00D+00
 Coeff-Com: -0.941D-09 0.113D-02-0.410D-01 0.127D+00 0.913D+00
 Coeff:     -0.941D-09 0.113D-02-0.410D-01 0.127D+00 0.913D+00
 Gap=     0.229 Goal=   None    Shift=    0.000
 RMSDP=7.23D-08 MaxDP=1.03D-05 DE=-2.02D-11 OVMax= 1.42D-06

 Cycle   7  Pass 1  IDiag  1:
 E= -46.6812457122481     Delta-E=       -0.000000000005 Rises=F Damp=F
 DIIS: error= 1.02D-07 at cycle   7 NSaved=   6.
 NSaved= 6 IEnMin= 6 EnMin= -46.6812457122481     IErMin= 6 ErrMin= 1.02D-07
 ErrMax= 1.02D-07  0.00D+00 EMaxC= 1.00D-01 BMatC= 3.53D-13 BMatP= 1.81D-12
 IDIUse=1 WtCom= 1.00D+00 WtEn= 0.00D+00
 Coeff-Com:  0.557D-09-0.522D-03 0.218D-01-0.203D+00-0.395D+00 0.158D+01
 Coeff:      0.557D-09-0.522D-03 0.218D-01-0.203D+00-0.395D+00 0.158D+01
 Gap=     0.229 Goal=   None    Shift=    0.000
 RMSDP=2.34D-08 MaxDP=3.40D-06 DE=-4.50D-12 OVMax= 1.54D-06

 Cycle   8  Pass 1  IDiag  1:
 E= -46.6812457122505     Delta-E=       -0.000000000002 Rises=F Damp=F
 DIIS: error= 3.28D-08 at cycle   8 NSaved=   7.
 NSaved= 7 IEnMin= 7 EnMin= -46.6812457122505     IErMin= 7 ErrMin= 3.28D-08
 ErrMax= 3.28D-08  0.00D+00 EMaxC= 1.00D-01 BMatC= 4.74D-14 BMatP= 3.53D-13
 IDIUse=1 WtCom= 1.00D+00 WtEn= 0.00D+00
 Coeff-Com:  0.252D-09 0.115D-03-0.543D-02 0.654D-01 0.146D+00-0.855D+00
 Coeff-Com:  0.165D+01
 Coeff:      0.252D-09 0.115D-03-0.543D-02 0.654D-01 0.146D+00-0.855D+00
 Coeff:      0.165D+01
 Gap=     0.229 Goal=   None    Shift=    0.000
 RMSDP=1.02D-08 MaxDP=1.50D-06 DE=-2.46D-12 OVMax= 9.55D-07

 Cycle   9  Pass 1  IDiag  1:
 E= -46.6812457122510     Delta-E=       -0.000000000000 Rises=F Damp=F
 DIIS: error= 1.17D-08 at cycle   9 NSaved=   8.
 NSaved= 8 IEnMin= 8 EnMin= -46.6812457122510     IErMin= 8 ErrMin= 1.17D-08
 ErrMax= 1.17D-08  0.00D+00 EMaxC= 1.00D-01 BMatC= 6.84D-15 BMatP= 4.74D-14
 IDIUse=1 WtCom= 1.00D+00 WtEn= 0.00D+00
 Coeff-Com: -0.992D-09 0.285D-04-0.105D-02 0.268D-02 0.416D-01 0.162D-02
 Coeff-Com: -0.458D+00 0.141D+01
 Coeff:     -0.992D-09 0.285D-04-0.105D-02 0.268D-02 0.416D-01 0.162D-02
 Coeff:     -0.458D+00 0.141D+01
 Gap=     0.229 Goal=   None    Shift=    0.000
 RMSDP=1.96D-09 MaxDP=3.28D-07 DE=-4.83D-13 OVMax= 3.61D-07

 SCF Done:  E(ROHF) =  -46.6812457123     A.U. after    9 cycles
            NFock=  9  Conv=0.20D-08     -V/T= 3.3791
 <Sx>= 0.0000 <Sy>= 0.0000 <Sz>= 0.0000 <S**2>=-0.0000 S=-0.0000
 <L.S>=  0.00000000000    
 KE= 1.962176611908D+01 PE=-1.063856963318D+02 EE= 3.523189340035D+01
 Annihilation of the first spin contaminant:
 S**2 before annihilation    -0.0000,   after    -0.0000
 Leave Link  502 at Tue Feb 13 19:30:55 2018, MaxMem=  8589934592 cpu:            4330.8 elap:             141.3
 (Enter /home1/apps/gaussian/16rA.03/g16/l801.exe)
 Windowed orbitals will be sorted by symmetry type.
 GenMOA:  NOpAll=  4 NOp2=4 NOpUse=  4 JSym2X=1
 FoFJK:  IHMeth= 1 ICntrl=       0 DoSepK=F KAlg= 0 I1Cent=           0 FoldK=F
 IRaf=         0 NMat=       1 IRICut=       1 DoRegI=T DoRafI=F ISym2E= 1 IDoP0=0 IntGTp=1.
 FoFCou: FMM=F IPFlag=           8 FMFlag=      100000 FMFlg1=           0
         NFxFlg=           0 DoJE=F BraDBF=F KetDBF=F FulRan=T
         wScrn=  0.000000 ICntrl=         0 IOpCl=  1 I1Cent=           0 NGrid=           0
         NMat0=    1 NMatS0=      1 NMatT0=    0 NMatD0=    1 NMtDS0=    0 NMtDT0=    0
 Petite list used in FoFCou.
 <Sx>= 0.0000 <Sy>= 0.0000 <Sz>= 0.0000 <S**2>=-0.0000 S=-0.0000
 Range of M.O.s used for correlation:     1   426
 NBasis=   428 NAE=     6 NBE=     6 NFC=     0 NFV=     0
 NROrb=    426 NOA=     6 NOB=     6 NVA=   420 NVB=   420

 **** Warning!!: The largest alpha MO coefficient is  0.25143992D+03


 **** Warning!!: The largest beta MO coefficient is  0.25143992D+03

 Singles contribution to E2=   -0.2656448411D-14
 Leave Link  801 at Tue Feb 13 19:31:51 2018, MaxMem=  8589934592 cpu:            1798.1 elap:              56.2
 (Enter /home1/apps/gaussian/16rA.03/g16/l804.exe)
 Open-shell transformation, MDV=  8589934592 ITran=4 ISComp=2.
 Unit  1 TFree=       5549467 TCopy=       4077858.
 Semi-Direct transformation.
 ModeAB=           2 MOrb=             6 LenV=    8584409457
 LASXX=     58543982 LTotXX=    58543982 LenRXX=    58543982
 LTotAB=    59074531 MaxLAS=   462382956 LenRXY=   462382956
 NonZer=   470787084 LenScr=   708950016 LnRSAI=           0
 LnScr1=           0 LExtra=    13078979 Total=   1242955933
 MaxDsk= 67108864000 SrtSym=           F ITran=            4
 DoSDTr:  NPSUse= 32
 JobTyp=1 Pass  1:  I=   1 to   6.
 (rs|ai) integrals will be sorted in core.
 Complete sort for first half transformation.
 First half transformation complete.
 Complete sort for second half transformation.
 Second half transformation complete.
 ModeAB=           2 MOrb=             6 LenV=    8584409457
 LASXX=     58543982 LTotXX=    58543982 LenRXX=   462382956
 LTotAB=    57368494 MaxLAS=   462382956 LenRXY=    57368494
 NonZer=   470787084 LenScr=   708950016 LnRSAI=           0
 LnScr1=           0 LExtra=   534005917 Total=   1762707383
 MaxDsk= 67108864000 SrtSym=           F ITran=            4
 DoSDTr:  NPSUse= 32
 JobTyp=2 Pass  1:  I=   1 to   6.
 (rs|ai) integrals will be sorted in core.
 Complete sort for first half transformation.
 First half transformation complete.
 Complete sort for second half transformation.
 Second half transformation complete.
 Spin components of T(2) and E(2):
     alpha-alpha T2 =       0.1266831627D-01 E2=     -0.5160070659D-01
     alpha-beta  T2 =       0.9410306812D-01 E2=     -0.3382743396D+00
     beta-beta   T2 =       0.1266831627D-01 E2=     -0.5160070659D-01
 ANorm=    0.1058035775D+01
 E2 =    -0.4414757528D+00 EUMP2 =    -0.47122721465042D+02
 (S**2,0)=  0.00000D+00           (S**2,1)=  0.00000D+00
 E(PUHF)=      -0.46681245712D+02        E(PMP2)=      -0.47122721465D+02
 Leave Link  804 at Tue Feb 13 19:58:12 2018, MaxMem=  8589934592 cpu:           50585.8 elap:            1580.9
 (Enter /home1/apps/gaussian/16rA.03/g16/l913.exe)
 CIDS:  MDV=  8589934592.
 IFCWin=0 IBDFC=1 NFBD=     0     0 NFCmp=     0     0 NFFFC=     0     0
 Using original routines for 1st iteration.
 Using DD4UQ or CC4UQ for 2nd and later iterations.
 Keep R2 and R3 ints in memory in symmetry-blocked form, NReq=5277880381.
 FoFCou: FMM=F IPFlag=           8 FMFlag=           0 FMFlg1=           0
         NFxFlg=           0 DoJE=F BraDBF=F KetDBF=F FulRan=T
         wScrn=  0.000000 ICntrl=       600 IOpCl=  0 I1Cent=           0 NGrid=           0
         NMat0=    1 NMatS0=  91806 NMatT0=    0 NMatD0=    1 NMtDS0=    0 NMtDT0=    0
 Petite list used in FoFCou.
 CIDS: In Core Option IDoMem=           1.
 CCSD(T)
 =======
 Iterations= 150 Convergence= 0.100D-06
 Produce multiple copies of IABC intergrals
 Iteration Nr.   1
 **********************
 DD1Dir will call FoFMem   1 times, MxPair=       102
 NAB=    36 NAA=    15 NBB=    15.
 DD1Dir will call FoFMem   1 times, MxPair=       102
 NAB=    36 NAA=    15 NBB=    15.
 MP4(R+Q)=  0.30027032D-01
 Maximum subspace dimension=  5
 A-vector RMS=  1.7755015D-05 Max=  5.7915392D-03 conv= 1.00D-05.
 RLE energy=       -0.4293969926
 E3=       -0.17608502D-01        EROMP3=      -0.47140329967D+02
 E4(SDQ)=   0.71604390D-03        ROMP4(SDQ)=  -0.47139613923D+02
 VARIATIONAL ENERGIES WITH THE FIRST-ORDER WAVEFUNCTION:
 DE(Corr)= -0.42905722     E(Corr)=     -47.110302934    
 NORM(A)=   0.10521112D+01
 Iteration Nr.   2
 **********************
 DD1Dir will call FoFMem   1 times, MxPair=       102
 NAB=    36 NAA=    15 NBB=    15.
 A-vector RMS=  2.0705902D-03 Max=  2.4155220D-02 conv= 1.00D-05.
 RLE energy=       -0.4351488057
 DE(Corr)= -0.44630531     E(CORR)=     -47.127551023     Delta=-1.72D-02
 NORM(A)=   0.10552591D+01
 Iteration Nr.   3
 **********************
 DD1Dir will call FoFMem   1 times, MxPair=       102
 NAB=    36 NAA=    15 NBB=    15.
 A-vector RMS=  1.4453663D-03 Max=  1.7276091D-02 conv= 1.00D-05.
 RLE energy=       -0.4457082462
 DE(Corr)= -0.44947819     E(CORR)=     -47.130723906     Delta=-3.17D-03
 NORM(A)=   0.10621755D+01
 Iteration Nr.   4
 **********************
 DD1Dir will call FoFMem   1 times, MxPair=       102
 NAB=    36 NAA=    15 NBB=    15.
 A-vector RMS=  1.0493685D-03 Max=  1.2651160D-02 conv= 1.00D-05.
 RLE energy=       -0.4564284996
 DE(Corr)= -0.45255324     E(CORR)=     -47.133798956     Delta=-3.08D-03
 NORM(A)=   0.10738862D+01
 Iteration Nr.   5
 **********************
 DD1Dir will call FoFMem   1 times, MxPair=       102
 NAB=    36 NAA=    15 NBB=    15.
 A-vector RMS=  1.5269914D-04 Max=  1.9682270D-03 conv= 1.00D-05.
 RLE energy=       -0.4596862081
 DE(Corr)= -0.45731475     E(CORR)=     -47.138560458     Delta=-4.76D-03
 NORM(A)=   0.10785954D+01
 Iteration Nr.   6
 **********************
 DD1Dir will call FoFMem   1 times, MxPair=       102
 NAB=    36 NAA=    15 NBB=    15.
 A-vector RMS=  1.2130101D-04 Max=  1.5057068D-03 conv= 1.00D-05.
 RLE energy=       -0.4579531474
 DE(Corr)= -0.45866440     E(CORR)=     -47.139910113     Delta=-1.35D-03
 NORM(A)=   0.10766678D+01
 Iteration Nr.   7
 **********************
 DD1Dir will call FoFMem   1 times, MxPair=       102
 NAB=    36 NAA=    15 NBB=    15.
 A-vector RMS=  3.0096491D-05 Max=  4.7669857D-04 conv= 1.00D-05.
 RLE energy=       -0.4579497914
 DE(Corr)= -0.45794296     E(CORR)=     -47.139188675     Delta= 7.21D-04
 NORM(A)=   0.10767975D+01
 Iteration Nr.   8
 **********************
 DD1Dir will call FoFMem   1 times, MxPair=       102
 NAB=    36 NAA=    15 NBB=    15.
 A-vector RMS=  1.5672566D-05 Max=  2.4321493D-04 conv= 1.00D-05.
 RLE energy=       -0.4579626792
 DE(Corr)= -0.45796793     E(CORR)=     -47.139213646     Delta=-2.50D-05
 NORM(A)=   0.10767874D+01
 Iteration Nr.   9
 **********************
 DD1Dir will call FoFMem   1 times, MxPair=       102
 NAB=    36 NAA=    15 NBB=    15.
 A-vector RMS=  3.8396373D-06 Max=  5.3358666D-05 conv= 1.00D-05.
 RLE energy=       -0.4579571751
 DE(Corr)= -0.45795427     E(CORR)=     -47.139199981     Delta= 1.37D-05
 NORM(A)=   0.10767747D+01
 Iteration Nr.  10
 **********************
 DD1Dir will call FoFMem   1 times, MxPair=       102
 NAB=    36 NAA=    15 NBB=    15.
 A-vector RMS=  1.2531652D-06 Max=  1.5989531D-05 conv= 1.00D-05.
 RLE energy=       -0.4579563684
 DE(Corr)= -0.45795590     E(CORR)=     -47.139201616     Delta=-1.63D-06
 NORM(A)=   0.10767741D+01
 Iteration Nr.  11
 **********************
 DD1Dir will call FoFMem   1 times, MxPair=       102
 NAB=    36 NAA=    15 NBB=    15.
 A-vector RMS=  5.4502801D-07 Max=  6.3940183D-06 conv= 1.00D-05.
 RLE energy=       -0.4579565903
 DE(Corr)= -0.45795558     E(CORR)=     -47.139201290     Delta= 3.25D-07
 NORM(A)=   0.10767793D+01
 Iteration Nr.  12
 **********************
 DD1Dir will call FoFMem   1 times, MxPair=       102
 NAB=    36 NAA=    15 NBB=    15.
 A-vector RMS=  1.9450640D-07 Max=  2.3999567D-06 conv= 1.00D-05.
 RLE energy=       -0.4579562904
 DE(Corr)= -0.45795628     E(CORR)=     -47.139201988     Delta=-6.97D-07
 NORM(A)=   0.10767802D+01
 Iteration Nr.  13
 **********************
 DD1Dir will call FoFMem   1 times, MxPair=       102
 NAB=    36 NAA=    15 NBB=    15.
 A-vector RMS=  1.2846109D-07 Max=  1.4366378D-06 conv= 1.00D-05.
 RLE energy=       -0.4579563971
 DE(Corr)= -0.45795629     E(CORR)=     -47.139202006     Delta=-1.84D-08
 NORM(A)=   0.10767811D+01
 CI/CC converged in   13 iterations to DelEn=-1.84D-08 Conv= 1.00D-07 ErrA1= 1.28D-07 Conv= 1.00D-05
 Wavefunction amplitudes converged. E(Corr)=     -47.139202006    
 Largest amplitude= 5.28D-02
 Time for triples=    61569.02 seconds.
 T4(CCSD)= -0.19476751D-01
 T5(CCSD)=  0.70459587D-03
 CCSD(T)= -0.47157974161D+02
 Discarding MO integrals.
 Leave Link  913 at Tue Feb 13 20:39:22 2018, MaxMem=  8589934592 cpu:           78668.8 elap:            2469.2
 (Enter /home1/apps/gaussian/16rA.03/g16/l601.exe)
 Copying SCF densities to generalized density rwf, IOpCl= 0 IROHF=1.

 **********************************************************************

            Population analysis using the SCF density.

 **********************************************************************

 Orbital symmetries:
       Occupied  (SG) (SG) (PI) (PI) (SG) (SG)
       Virtual   (PI) (PI) (SG) (SG) (PI) (PI) (SG) (DLTA) (DLTA)
                 (SG) (PI) (PI) (SG) (PI) (PI) (DLTA) (DLTA) (SG)
                 (SG) (PI) (PI) (DLTA) (DLTA) (PHI) (PHI) (SG)
                 (PI) (PI) (DLTA) (DLTA) (PI) (PI) (SG) (SG) (PI)
                 (PI) (SG) (DLTA) (DLTA) (PI) (PI) (DLTA) (DLTA)
                 (PHI) (PHI) (?A) (?A) (SG) (PI) (PI) (SG) (DLTA)
                 (DLTA) (PHI) (PHI) (SG) (PI) (PI) (SG) (PI) (PI)
                 (SG) (DLTA) (DLTA) (PI) (PI) (DLTA) (DLTA) (SG)
                 (PHI) (PHI) (?A) (?A) (?B) (?B) (SG) (PI) (PI)
                 (PI) (PI) (SG) (DLTA) (DLTA) (SG) (PHI) (PHI)
                 (DLTA) (DLTA) (PI) (PI) (?A) (?A) (SG) (PHI) (PHI)
                 (SG) (PI) (PI) (DLTA) (DLTA) (PI) (PI) (SG) (SG)
                 (PI) (PI) (SG) (DLTA) (DLTA) (PI) (PI) (SG) (PHI)
                 (PHI) (DLTA) (DLTA) (PI) (PI) (SG) (SG) (?A) (?A)
                 (?B) (?B) (PI) (PI) (DLTA) (DLTA) (PHI) (PHI)
                 (DLTA) (DLTA) (SG) (PI) (PI) (SG) (DLTA) (DLTA)
                 (PI) (PI) (PHI) (PHI) (SG) (SG) (PI) (PI) (PHI)
                 (PHI) (DLTA) (DLTA) (PI) (PI) (?A) (?A) (SG) (?A)
                 (?A) (?B) (?B) (SG) (SG) (DLTA) (DLTA) (PI) (PI)
                 (SG) (PHI) (PHI) (SG) (PI) (PI) (DLTA) (DLTA)
                 (?A) (?A) (SG) (PHI) (PHI) (PI) (PI) (DLTA) (DLTA)
                 (SG) (PI) (PI) (SG) (SG) (DLTA) (DLTA) (PI) (PI)
                 (PHI) (PHI) (SG) (DLTA) (DLTA) (PI) (PI) (SG)
                 (PI) (PI) (SG) (DLTA) (DLTA) (PHI) (PHI) (PI)
                 (PI) (DLTA) (DLTA) (SG) (?A) (?A) (PI) (PI) (?B)
                 (?B) (PHI) (PHI) (SG) (PI) (PI) (?A) (?A) (PHI)
                 (PHI) (SG) (DLTA) (DLTA) (DLTA) (DLTA) (SG) (PI)
                 (PI) (?B) (?B) (SG) (SG) (?A) (?A) (PHI) (PHI)
                 (SG) (PI) (PI) (DLTA) (DLTA) (PI) (PI) (SG) (DLTA)
                 (DLTA) (SG) (PI) (PI) (SG) (PI) (PI) (SG) (SG)
                 (?A) (?A) (PHI) (PHI) (DLTA) (DLTA) (PHI) (PHI)
                 (PI) (PI) (SG) (PHI) (PHI) (DLTA) (DLTA) (SG)
                 (DLTA) (DLTA) (PI) (PI) (PI) (PI) (DLTA) (DLTA)
                 (DLTA) (DLTA) (SG) (SG) (PI) (PI) (?A) (?A) (PI)
                 (PI) (SG) (PHI) (PHI) (DLTA) (DLTA) (PI) (PI)
                 (SG) (?B) (?B) (?A) (?A) (SG) (PHI) (PHI) (DLTA)
                 (DLTA) (PI) (PI) (PI) (PI) (PI) (PI) (SG) (SG)
                 (?B) (?B) (SG) (SG) (?A) (?A) (PHI) (PHI) (SG)
                 (DLTA) (DLTA) (PI) (PI) (SG) (DLTA) (DLTA) (PI)
                 (PI) (SG) (SG) (PI) (PI) (SG) (SG) (DLTA) (DLTA)
                 (PI) (PI) (SG) (SG) (PI) (PI) (SG) (SG) (PI) (PI)
                 (DLTA) (DLTA) (PI) (PI) (SG) (SG) (SG) (PI) (PI)
                 (SG) (SG) (SG) (PI) (PI) (DLTA) (DLTA) (PI) (PI)
                 (SG) (SG) (SG) (PI) (PI) (SG) (SG) (PI) (PI) (DLTA)
                 (DLTA) (PI) (PI) (SG) (SG) (SG) (SG) (PI) (PI)
                 (SG) (SG) (PI) (PI) (SG) (SG) (PI) (PI) (SG) (SG)
                 (SG) (PI) (PI) (SG) (SG) (PI) (PI) (SG) (SG) (SG)
                 (PI) (PI) (SG) (SG) (SG) (SG) (SG) (SG)
 The electronic state is 1-SG.
 Alpha  occ. eigenvalues --   -2.65461  -1.63455  -1.58845  -1.58845  -0.46841
 Alpha  occ. eigenvalues --   -0.21561
 Alpha virt. eigenvalues --    0.01333   0.01333   0.01366   0.01668   0.02608
 Alpha virt. eigenvalues --    0.02608   0.02627   0.02642   0.02642   0.04093
 Alpha virt. eigenvalues --    0.04430   0.04430   0.07043   0.07439   0.07439
 Alpha virt. eigenvalues --    0.07597   0.07597   0.07960   0.09893   0.10023
 Alpha virt. eigenvalues --    0.10023   0.10265   0.10265   0.10503   0.10503
 Alpha virt. eigenvalues --    0.12160   0.13292   0.13292   0.13406   0.13406
 Alpha virt. eigenvalues --    0.14245   0.14245   0.17074   0.18640   0.22084
 Alpha virt. eigenvalues --    0.22084   0.23989   0.24320   0.24320   0.24905
 Alpha virt. eigenvalues --    0.24905   0.25632   0.25632   0.25938   0.25938
 Alpha virt. eigenvalues --    0.26103   0.26103   0.27794   0.29894   0.29894
 Alpha virt. eigenvalues --    0.32120   0.32433   0.32433   0.35674   0.35674
 Alpha virt. eigenvalues --    0.38059   0.38304   0.38304   0.40886   0.46255
 Alpha virt. eigenvalues --    0.46255   0.51357   0.52127   0.52127   0.55159
 Alpha virt. eigenvalues --    0.55159   0.56550   0.56550   0.56989   0.57468
 Alpha virt. eigenvalues --    0.57468   0.58455   0.58455   0.58565   0.58565
 Alpha virt. eigenvalues --    0.60374   0.61815   0.61815   0.65247   0.65247
 Alpha virt. eigenvalues --    0.65621   0.69324   0.69324   0.82782   0.86922
 Alpha virt. eigenvalues --    0.86922   0.88276   0.88276   0.88775   0.88775
 Alpha virt. eigenvalues --    0.90022   0.90022   0.93910   1.01907   1.01907
 Alpha virt. eigenvalues --    1.05016   1.07911   1.07911   1.14313   1.14313
 Alpha virt. eigenvalues --    1.15410   1.15410   1.15500   1.24316   1.27519
 Alpha virt. eigenvalues --    1.27519   1.31898   1.32327   1.32327   1.40538
 Alpha virt. eigenvalues --    1.40538   1.47416   1.49637   1.49637   1.50331
 Alpha virt. eigenvalues --    1.50331   1.71524   1.71524   1.81541   1.95317
 Alpha virt. eigenvalues --    2.02273   2.02273   2.02713   2.02713   2.04000
 Alpha virt. eigenvalues --    2.04000   2.05926   2.05926   2.11230   2.11230
 Alpha virt. eigenvalues --    2.19349   2.19349   2.22301   2.26249   2.26249
 Alpha virt. eigenvalues --    2.43866   2.44074   2.44074   2.50890   2.50890
 Alpha virt. eigenvalues --    2.51956   2.51956   2.59716   2.60339   2.70350
 Alpha virt. eigenvalues --    2.70350   2.70973   2.70973   2.72043   2.72043
 Alpha virt. eigenvalues --    2.76949   2.76949   2.77580   2.77580   2.84841
 Alpha virt. eigenvalues --    2.97059   2.97059   3.00542   3.00542   3.00861
 Alpha virt. eigenvalues --    3.00861   3.13180   3.13180   3.14759   3.14759
 Alpha virt. eigenvalues --    3.19312   3.25008   3.25008   3.32480   3.37429
 Alpha virt. eigenvalues --    3.37429   3.44748   3.44748   3.63165   3.63165
 Alpha virt. eigenvalues --    3.70503   3.80551   3.80551   3.81334   3.81334
 Alpha virt. eigenvalues --    3.94985   3.94985   4.22153   4.38552   4.38552
 Alpha virt. eigenvalues --    4.42761   4.65589   4.85067   4.85067   4.87697
 Alpha virt. eigenvalues --    4.87697   4.88339   4.88339   5.17189   5.17979
 Alpha virt. eigenvalues --    5.17979   5.40723   5.40723   5.57908   5.68747
 Alpha virt. eigenvalues --    5.68747   5.77567   5.88611   5.88611   5.94584
 Alpha virt. eigenvalues --    5.94584   6.00601   6.00601   6.14212   6.14212
 Alpha virt. eigenvalues --    6.43629   6.68311   6.68311   6.68359   6.68359
 Alpha virt. eigenvalues --    6.68492   6.68492   6.91333   6.91333   6.95415
 Alpha virt. eigenvalues --    6.98273   6.98273   7.02935   7.02935   7.48022
 Alpha virt. eigenvalues --    7.48022   7.57975   7.59757   7.59757   7.97477
 Alpha virt. eigenvalues --    7.97477   8.06766   8.10738   8.10738   8.36743
 Alpha virt. eigenvalues --    8.36743   8.37206   8.37206   8.37427   8.37427
 Alpha virt. eigenvalues --    8.55825   8.55825   8.62418   8.86975   8.86975
 Alpha virt. eigenvalues --    8.91945   8.91945   9.04939   9.04939   9.14744
 Alpha virt. eigenvalues --    9.18066   9.18066   9.40255  10.00153  10.00153
 Alpha virt. eigenvalues --   10.27216  10.68420  10.68420  11.69577  12.41101
 Alpha virt. eigenvalues --   13.22095  13.22095  13.24080  13.24080  13.63716
 Alpha virt. eigenvalues --   13.63716  13.74611  13.74611  14.01102  14.01102
 Alpha virt. eigenvalues --   14.08313  14.23989  14.23989  14.25187  14.25187
 Alpha virt. eigenvalues --   14.40984  14.49359  14.49359  14.52526  14.52526
 Alpha virt. eigenvalues --   14.89849  14.89849  15.17905  15.17905  15.49809
 Alpha virt. eigenvalues --   15.49809  15.54929  15.65668  15.78488  15.78488
 Alpha virt. eigenvalues --   16.52685  16.52685  16.53915  16.53915  16.55754
 Alpha virt. eigenvalues --   16.76812  16.76812  17.32229  17.32229  17.81008
 Alpha virt. eigenvalues --   17.81008  17.82531  17.84966  17.84966  17.85295
 Alpha virt. eigenvalues --   17.85295  17.91892  18.07943  18.07943  18.85463
 Alpha virt. eigenvalues --   18.85463  18.85782  18.85782  19.07735  19.07735
 Alpha virt. eigenvalues --   19.78376  19.78376  20.80311  21.29973  22.23753
 Alpha virt. eigenvalues --   22.23753  22.24088  22.24088  22.26469  22.26469
 Alpha virt. eigenvalues --   22.37051  22.37051  22.43815  22.49215  22.49215
 Alpha virt. eigenvalues --   23.10342  23.10342  23.45580  26.06411  26.06411
 Alpha virt. eigenvalues --   26.22868  26.22868  26.53159  27.98371  32.10136
 Alpha virt. eigenvalues --   32.10136  35.91870  41.28984  45.55561  45.55561
 Alpha virt. eigenvalues --   45.69362  45.69362  45.92335  47.37608  52.30629
 Alpha virt. eigenvalues --   52.30629  67.54651  77.77863  83.78380  83.78380
 Alpha virt. eigenvalues --   92.85174  92.85174  92.96982  92.96982  93.21299
 Alpha virt. eigenvalues --  102.30986 129.98833 136.51688 136.51688 140.99313
 Alpha virt. eigenvalues --  174.43016 224.24177 230.88573 230.88573 235.35434
 Alpha virt. eigenvalues --  235.35434 235.44492 235.44492 235.62768 306.85639
 Alpha virt. eigenvalues --  400.67408 407.16730 407.16730 550.74698 746.88810
 Alpha virt. eigenvalues --  753.02736 753.02736 776.96085 776.96085 777.01860
 Alpha virt. eigenvalues --  777.01860 777.13266 818.369901016.137571466.49549
 Alpha virt. eigenvalues -- 1472.147391472.147391935.109833061.262693066.36933
 Alpha virt. eigenvalues -- 3066.369333800.763416886.324526890.845256890.84525
 Alpha virt. eigenvalues -- 7682.96064****************************************
 Alpha virt. eigenvalues -- **************************************************
 Alpha virt. eigenvalues -- **************************************************
 Alpha virt. eigenvalues -- **************************************************
     Molecular Orbital Coefficients:
                           2         3         4         5         6
                           O         O         O         O         O
     Eigenvalues --    -1.63455  -1.58845  -1.58845  -0.46841  -0.21561
   1 1   Sc 1S          0.00000   0.00000   0.00000  -0.00000  -0.00000
   2        2S          0.00000   0.00000   0.00000  -0.00000  -0.00000
   3        3S         -0.00000   0.00000   0.00000  -0.00000  -0.00000
   4        4S          0.00000   0.00000   0.00000  -0.00000  -0.00000
   5        5S         -0.00000   0.00000   0.00000  -0.00000  -0.00000
   6        6S          0.00000   0.00000   0.00000  -0.00000  -0.00000
   7        7S         -0.00000   0.00000   0.00000   0.00000   0.00000
   8        8S          0.00000   0.00000   0.00000  -0.00000  -0.00000
   9        9S         -0.00000   0.00000   0.00000   0.00000   0.00000
  10       10S          0.00000   0.00000   0.00000  -0.00001  -0.00001
  11       11S         -0.00001   0.00000   0.00000   0.00001   0.00001
  12       12S          0.00002   0.00000   0.00000  -0.00004  -0.00005
  13       13S         -0.00005   0.00000   0.00000   0.00005   0.00007
  14       14S          0.00013   0.00000   0.00000  -0.00021  -0.00031
  15       15S         -0.00027   0.00000   0.00000   0.00034   0.00052
  16       16S          0.00073   0.00000   0.00000  -0.00119  -0.00171
  17       17S         -0.00172   0.00000   0.00000   0.00294   0.00420
  18       18S          0.00395   0.00000   0.00000  -0.00690  -0.00983
  19       19S         -0.00229   0.00000   0.00000  -0.01185  -0.01389
  20       20S          0.00910   0.00000   0.00000   0.05963   0.07226
  21       21S          0.01701   0.00000   0.00000   0.01882   0.02059
  22       22S          0.00618   0.00000   0.00000  -0.01005  -0.01521
  23       23S          0.07051   0.00000   0.00000  -0.06529  -0.10395
  24       24S         -0.00052   0.00000   0.00000  -0.17361  -0.24763
  25       25S          0.02854   0.00000   0.00000  -0.01881  -0.06612
  26       26S          0.01771   0.00000   0.00000  -0.00614   0.35204
  27       27S         -0.00677   0.00000   0.00000  -0.02945   0.55468
  28       28S          0.01046   0.00000   0.00000   0.05230   0.19588
  29       29S         -0.04073   0.00000   0.00000   0.01061   0.02298
  30       30S         -0.02845   0.00000   0.00000  -0.08707  -0.10139
  31       31S          0.00020   0.00000   0.00000   0.00085   0.00168
  32       32PX         0.00000  -0.00000   0.00000   0.00000   0.00000
  33       32PY         0.00000   0.00000  -0.00000   0.00000   0.00000
  34       32PZ        -0.00000   0.00000   0.00000  -0.00000   0.00000
  35       33PX         0.00000   0.00000   0.00000   0.00000   0.00000
  36       33PY         0.00000   0.00000   0.00000   0.00000   0.00000
  37       33PZ         0.00000   0.00000   0.00000   0.00000  -0.00000
  38       34PX         0.00000  -0.00000   0.00000   0.00000   0.00000
  39       34PY         0.00000   0.00000  -0.00000   0.00000   0.00000
  40       34PZ        -0.00000   0.00000   0.00000  -0.00000   0.00000
  41       35PX         0.00000   0.00001   0.00000   0.00000   0.00000
  42       35PY         0.00000   0.00000   0.00001   0.00000   0.00000
  43       35PZ         0.00001   0.00000   0.00000   0.00000  -0.00000
  44       36PX         0.00000  -0.00000   0.00000   0.00000   0.00000
  45       36PY         0.00000   0.00000  -0.00000   0.00000   0.00000
  46       36PZ        -0.00001   0.00000   0.00000  -0.00000   0.00000
  47       37PX         0.00000   0.00008   0.00000   0.00000   0.00000
  48       37PY         0.00000   0.00000   0.00008   0.00000   0.00000
  49       37PZ         0.00010   0.00000   0.00000   0.00003  -0.00001
  50       38PX         0.00000  -0.00003   0.00000   0.00000   0.00000
  51       38PY         0.00000   0.00000  -0.00003   0.00000   0.00000
  52       38PZ        -0.00010   0.00000   0.00000  -0.00003   0.00001
  53       39PX         0.00000   0.00071   0.00000   0.00000   0.00000
  54       39PY         0.00000   0.00000   0.00071   0.00000   0.00000
  55       39PZ         0.00088   0.00000   0.00000   0.00028  -0.00006
  56       40PX         0.00000  -0.00095   0.00000   0.00000   0.00000
  57       40PY         0.00000   0.00000  -0.00095   0.00000   0.00000
  58       40PZ        -0.00147   0.00000   0.00000  -0.00048   0.00013
  59       41PX         0.00000   0.00745   0.00000   0.00000   0.00000
  60       41PY         0.00000   0.00000   0.00745   0.00000   0.00000
  61       41PZ         0.00880   0.00000   0.00000   0.00278  -0.00051
  62       42PX         0.00000  -0.00386   0.00000   0.00000   0.00000
  63       42PY         0.00000   0.00000  -0.00386   0.00000   0.00000
  64       42PZ        -0.00894   0.00000   0.00000  -0.00334   0.00106
  65       43PX         0.00000  -0.11021   0.00000   0.00000   0.00000
  66       43PY         0.00000   0.00000  -0.11021   0.00000   0.00000
  67       43PZ        -0.07615   0.00000   0.00000  -0.02079  -0.00157
  68       44PX         0.00000  -0.02872   0.00000   0.00000   0.00000
  69       44PY         0.00000   0.00000  -0.02872   0.00000   0.00000
  70       44PZ         0.02677   0.00000   0.00000   0.01182  -0.00758
  71       45PX         0.00000   0.23833   0.00000   0.00000   0.00000
  72       45PY         0.00000   0.00000   0.23833   0.00000   0.00000
  73       45PZ         0.17611   0.00000   0.00000   0.05830  -0.00089
  74       46PX         0.00000   0.42871   0.00000   0.00000   0.00000
  75       46PY         0.00000   0.00000   0.42871   0.00000   0.00000
  76       46PZ         0.21985   0.00000   0.00000   0.08413   0.00891
  77       47PX         0.00000   0.35852   0.00000   0.00000   0.00000
  78       47PY         0.00000   0.00000   0.35852   0.00000   0.00000
  79       47PZ         0.37954   0.00000   0.00000   0.13401  -0.02043
  80       48PX         0.00000   0.13584   0.00000   0.00000   0.00000
  81       48PY         0.00000   0.00000   0.13584   0.00000   0.00000
  82       48PZ         0.11453   0.00000   0.00000   0.04990  -0.00460
  83       49PX         0.00000   0.01239   0.00000   0.00000   0.00000
  84       49PY         0.00000   0.00000   0.01239   0.00000   0.00000
  85       49PZ        -0.00210   0.00000   0.00000   0.00468   0.03968
  86       50PX         0.00000   0.00049   0.00000   0.00000   0.00000
  87       50PY         0.00000   0.00000   0.00049   0.00000   0.00000
  88       50PZ         0.00142   0.00000   0.00000   0.00456   0.06016
  89       51PX         0.00000   0.00013   0.00000   0.00000   0.00000
  90       51PY         0.00000   0.00000   0.00013   0.00000   0.00000
  91       51PZ        -0.00291   0.00000   0.00000  -0.01663   0.00732
  92       52PX         0.00000   0.05310   0.00000   0.00000   0.00000
  93       52PY         0.00000   0.00000   0.05310   0.00000   0.00000
  94       52PZ        -0.01026   0.00000   0.00000  -0.00664   0.00804
  95       53PX         0.00000  -0.03422   0.00000   0.00000   0.00000
  96       53PY         0.00000   0.00000  -0.03422   0.00000   0.00000
  97       53PZ         0.17020   0.00000   0.00000   0.04238  -0.02347
  98       54PX         0.00000  -0.00001   0.00000   0.00000   0.00000
  99       54PY         0.00000   0.00000  -0.00001   0.00000   0.00000
 100       54PZ        -0.00028   0.00000   0.00000  -0.00100  -0.00078
 101       55D 0       -0.00000   0.00000   0.00000   0.00007  -0.00004
 102       55D+1        0.00000  -0.00000   0.00000   0.00000   0.00000
 103       55D-1        0.00000   0.00000  -0.00000   0.00000   0.00000
 104       55D+2        0.00000   0.00000   0.00000  -0.00000   0.00000
 105       55D-2        0.00000   0.00000   0.00000   0.00000   0.00000
 106       56D 0       -0.00000   0.00000   0.00000   0.00060  -0.00036
 107       56D+1        0.00000  -0.00002   0.00000   0.00000   0.00000
 108       56D-1        0.00000   0.00000  -0.00002   0.00000   0.00000
 109       56D+2       -0.00000   0.00000   0.00000   0.00000  -0.00000
 110       56D-2        0.00000   0.00000   0.00000   0.00000   0.00000
 111       57D 0       -0.00004   0.00000   0.00000   0.00571  -0.00343
 112       57D+1        0.00000  -0.00022   0.00000   0.00000   0.00000
 113       57D-1        0.00000   0.00000  -0.00022   0.00000   0.00000
 114       57D+2        0.00000   0.00000   0.00000  -0.00000   0.00000
 115       57D-2        0.00000   0.00000   0.00000   0.00000   0.00000
 116       58D 0       -0.00003   0.00000   0.00000   0.02427  -0.01458
 117       58D+1        0.00000  -0.00089   0.00000   0.00000   0.00000
 118       58D-1        0.00000   0.00000  -0.00089   0.00000   0.00000
 119       58D+2       -0.00000   0.00000   0.00000   0.00000  -0.00000
 120       58D-2        0.00000   0.00000   0.00000   0.00000   0.00000
 121       59D 0       -0.00026   0.00000   0.00000   0.05612  -0.03378
 122       59D+1        0.00000  -0.00221   0.00000   0.00000   0.00000
 123       59D-1        0.00000   0.00000  -0.00221   0.00000   0.00000
 124       59D+2        0.00000   0.00000   0.00000  -0.00000   0.00000
 125       59D-2        0.00000   0.00000   0.00000   0.00000   0.00000
 126       60D 0       -0.00300   0.00000   0.00000   0.09617  -0.05718
 127       60D+1        0.00000  -0.00513   0.00000   0.00000   0.00000
 128       60D-1        0.00000   0.00000  -0.00513   0.00000   0.00000
 129       60D+2        0.00000   0.00000   0.00000  -0.00000   0.00000
 130       60D-2        0.00000   0.00000   0.00000   0.00000   0.00000
 131       61D 0       -0.00129   0.00000   0.00000   0.15247  -0.09105
 132       61D+1        0.00000  -0.00725   0.00000   0.00000   0.00000
 133       61D-1        0.00000   0.00000  -0.00725   0.00000   0.00000
 134       61D+2        0.00000   0.00000   0.00000  -0.00000   0.00000
 135       61D-2        0.00000   0.00000   0.00000   0.00000   0.00000
 136       62D 0       -0.00541   0.00000   0.00000   0.17897  -0.11348
 137       62D+1        0.00000  -0.00070   0.00000   0.00000   0.00000
 138       62D-1        0.00000   0.00000  -0.00070   0.00000   0.00000
 139       62D+2       -0.00000   0.00000   0.00000   0.00000  -0.00000
 140       62D-2        0.00000   0.00000   0.00000   0.00000   0.00000
 141       63D 0        0.00567   0.00000   0.00000   0.12706  -0.10864
 142       63D+1        0.00000   0.00105   0.00000   0.00000   0.00000
 143       63D-1        0.00000   0.00000   0.00105   0.00000   0.00000
 144       63D+2        0.00000   0.00000   0.00000  -0.00000   0.00000
 145       63D-2        0.00000   0.00000   0.00000   0.00000   0.00000
 146       64D 0        0.00129   0.00000   0.00000   0.03962  -0.07528
 147       64D+1        0.00000   0.00059   0.00000   0.00000   0.00000
 148       64D-1        0.00000   0.00000   0.00059   0.00000   0.00000
 149       64D+2       -0.00000   0.00000   0.00000   0.00000  -0.00000
 150       64D-2        0.00000   0.00000   0.00000   0.00000   0.00000
 151       65D 0       -0.00038   0.00000   0.00000   0.00418  -0.02789
 152       65D+1        0.00000   0.00043   0.00000   0.00000   0.00000
 153       65D-1        0.00000   0.00000   0.00043   0.00000   0.00000
 154       65D+2        0.00000   0.00000   0.00000  -0.00000   0.00000
 155       65D-2        0.00000   0.00000   0.00000   0.00000   0.00000
 156       66D 0        0.00059   0.00000   0.00000   0.00254  -0.00098
 157       66D+1        0.00000  -0.00009   0.00000   0.00000   0.00000
 158       66D-1        0.00000   0.00000  -0.00009   0.00000   0.00000
 159       66D+2       -0.00000   0.00000   0.00000   0.00000  -0.00000
 160       66D-2        0.00000   0.00000   0.00000   0.00000   0.00000
 161       67D 0        0.00146   0.00000   0.00000   0.01076  -0.00684
 162       67D+1        0.00000  -0.00010   0.00000   0.00000   0.00000
 163       67D-1        0.00000   0.00000  -0.00010   0.00000   0.00000
 164       67D+2       -0.00000   0.00000   0.00000   0.00000  -0.00000
 165       67D-2        0.00000   0.00000   0.00000   0.00000   0.00000
 166       68D 0        0.00012   0.00000   0.00000   0.01197  -0.00677
 167       68D+1        0.00000   0.00038   0.00000   0.00000   0.00000
 168       68D-1        0.00000   0.00000   0.00038   0.00000   0.00000
 169       68D+2       -0.00000   0.00000   0.00000   0.00000  -0.00000
 170       68D-2        0.00000   0.00000   0.00000   0.00000   0.00000
 171       69D 0       -0.00001   0.00000   0.00000   0.00003   0.00000
 172       69D+1        0.00000   0.00003   0.00000   0.00000   0.00000
 173       69D-1        0.00000   0.00000   0.00003   0.00000   0.00000
 174       69D+2        0.00000   0.00000   0.00000  -0.00000   0.00000
 175       69D-2        0.00000   0.00000   0.00000   0.00000   0.00000
 176       70F 0        0.00108   0.00000   0.00000  -0.00179   0.00027
 177       70F+1        0.00000  -0.00100   0.00000   0.00000   0.00000
 178       70F-1        0.00000   0.00000  -0.00100   0.00000   0.00000
 179       70F+2        0.00000   0.00000   0.00000  -0.00000   0.00000
 180       70F-2        0.00000   0.00000   0.00000   0.00000   0.00000
 181       70F+3        0.00000  -0.00000   0.00000   0.00000   0.00000
 182       70F-3        0.00000   0.00000  -0.00000   0.00000   0.00000
 183       71F 0        0.00200   0.00000   0.00000  -0.00736   0.00127
 184       71F+1        0.00000  -0.00262   0.00000   0.00000   0.00000
 185       71F-1        0.00000   0.00000  -0.00262   0.00000   0.00000
 186       71F+2       -0.00000   0.00000   0.00000   0.00000  -0.00000
 187       71F-2        0.00000   0.00000   0.00000   0.00000   0.00000
 188       71F+3        0.00000   0.00000   0.00000   0.00000   0.00000
 189       71F-3        0.00000   0.00000   0.00000   0.00000   0.00000
 190       72F 0        0.00833   0.00000   0.00000  -0.01451   0.00109
 191       72F+1        0.00000  -0.00391   0.00000   0.00000   0.00000
 192       72F-1        0.00000   0.00000  -0.00391   0.00000   0.00000
 193       72F+2        0.00000   0.00000   0.00000  -0.00000   0.00000
 194       72F-2        0.00000   0.00000   0.00000   0.00000   0.00000
 195       72F+3        0.00000  -0.00000   0.00000   0.00000   0.00000
 196       72F-3        0.00000   0.00000   0.00000   0.00000   0.00000
 197       73F 0        0.00297   0.00000   0.00000  -0.01003  -0.00093
 198       73F+1        0.00000  -0.00222   0.00000   0.00000   0.00000
 199       73F-1        0.00000   0.00000  -0.00222   0.00000   0.00000
 200       73F+2        0.00000   0.00000   0.00000   0.00000  -0.00000
 201       73F-2        0.00000   0.00000   0.00000   0.00000   0.00000
 202       73F+3        0.00000   0.00000   0.00000   0.00000   0.00000
 203       73F-3        0.00000   0.00000   0.00000   0.00000   0.00000
 204       74F 0        0.00018   0.00000   0.00000  -0.00180  -0.00109
 205       74F+1        0.00000  -0.00049   0.00000   0.00000   0.00000
 206       74F-1        0.00000   0.00000  -0.00049   0.00000   0.00000
 207       74F+2        0.00000   0.00000   0.00000   0.00000  -0.00000
 208       74F-2        0.00000   0.00000   0.00000   0.00000   0.00000
 209       74F+3        0.00000  -0.00000   0.00000   0.00000   0.00000
 210       74F-3        0.00000   0.00000  -0.00000   0.00000   0.00000
 211       75F 0       -0.00006   0.00000   0.00000  -0.00045  -0.00045
 212       75F+1        0.00000   0.00000   0.00000   0.00000   0.00000
 213       75F-1        0.00000   0.00000   0.00000   0.00000   0.00000
 214       75F+2       -0.00000   0.00000   0.00000  -0.00000   0.00000
 215       75F-2        0.00000   0.00000   0.00000   0.00000   0.00000
 216       75F+3        0.00000   0.00000   0.00000   0.00000   0.00000
 217       75F-3        0.00000   0.00000   0.00000   0.00000   0.00000
 218       76G 0       -0.00028   0.00000   0.00000   0.00001   0.00013
 219       76G+1        0.00000  -0.00013   0.00000   0.00000   0.00000
 220       76G-1        0.00000   0.00000  -0.00013   0.00000   0.00000
 221       76G+2        0.00000   0.00000   0.00000   0.00000  -0.00000
 222       76G-2        0.00000   0.00000   0.00000   0.00000   0.00000
 223       76G+3        0.00000   0.00000   0.00000   0.00000   0.00000
 224       76G-3        0.00000   0.00000   0.00000   0.00000   0.00000
 225       76G+4        0.00000   0.00000   0.00000   0.00000  -0.00000
 226       76G-4        0.00000   0.00000   0.00000   0.00000   0.00000
 227       77G 0       -0.00116   0.00000   0.00000   0.00099   0.00028
 228       77G+1        0.00000  -0.00032   0.00000   0.00000   0.00000
 229       77G-1        0.00000   0.00000  -0.00032   0.00000   0.00000
 230       77G+2       -0.00000   0.00000   0.00000  -0.00000   0.00000
 231       77G-2        0.00000   0.00000   0.00000   0.00000   0.00000
 232       77G+3        0.00000   0.00000   0.00000   0.00000   0.00000
 233       77G-3        0.00000   0.00000   0.00000   0.00000   0.00000
 234       77G+4       -0.00000   0.00000   0.00000  -0.00000   0.00000
 235       77G-4        0.00000   0.00000   0.00000   0.00000   0.00000
 236       78G 0       -0.00167   0.00000   0.00000   0.00223   0.00001
 237       78G+1        0.00000   0.00049   0.00000   0.00000   0.00000
 238       78G-1        0.00000   0.00000   0.00049   0.00000   0.00000
 239       78G+2       -0.00000   0.00000   0.00000   0.00000   0.00000
 240       78G-2        0.00000   0.00000   0.00000   0.00000   0.00000
 241       78G+3        0.00000  -0.00000   0.00000   0.00000   0.00000
 242       78G-3        0.00000   0.00000   0.00000   0.00000   0.00000
 243       78G+4        0.00000   0.00000   0.00000   0.00000  -0.00000
 244       78G-4        0.00000   0.00000   0.00000   0.00000   0.00000
 245       79G 0       -0.00072   0.00000   0.00000   0.00046  -0.00031
 246       79G+1        0.00000   0.00003   0.00000   0.00000   0.00000
 247       79G-1        0.00000   0.00000   0.00003   0.00000   0.00000
 248       79G+2       -0.00000   0.00000   0.00000  -0.00000   0.00000
 249       79G-2        0.00000   0.00000   0.00000   0.00000   0.00000
 250       79G+3        0.00000   0.00000   0.00000   0.00000   0.00000
 251       79G-3        0.00000   0.00000   0.00000   0.00000   0.00000
 252       79G+4       -0.00000   0.00000   0.00000  -0.00000   0.00000
 253       79G-4        0.00000   0.00000   0.00000   0.00000   0.00000
 254       80G 0       -0.00002   0.00000   0.00000   0.00021   0.00014
 255       80G+1        0.00000   0.00003   0.00000   0.00000   0.00000
 256       80G-1        0.00000   0.00000   0.00003   0.00000   0.00000
 257       80G+2       -0.00000   0.00000   0.00000   0.00000   0.00000
 258       80G-2        0.00000   0.00000   0.00000   0.00000   0.00000
 259       80G+3        0.00000  -0.00000   0.00000   0.00000   0.00000
 260       80G-3        0.00000   0.00000   0.00000   0.00000   0.00000
 261       80G+4        0.00000   0.00000   0.00000   0.00000  -0.00000
 262       80G-4        0.00000   0.00000   0.00000   0.00000   0.00000
 263       81H 0       -0.00014   0.00000   0.00000  -0.00031   0.00012
 264       81H+1        0.00000  -0.00010   0.00000   0.00000   0.00000
 265       81H-1        0.00000   0.00000  -0.00010   0.00000   0.00000
 266       81H+2       -0.00000   0.00000   0.00000  -0.00000   0.00000
 267       81H-2        0.00000   0.00000   0.00000   0.00000   0.00000
 268       81H+3        0.00000  -0.00000   0.00000   0.00000   0.00000
 269       81H-3        0.00000   0.00000   0.00000   0.00000   0.00000
 270       81H+4        0.00000   0.00000   0.00000   0.00000   0.00000
 271       81H-4        0.00000   0.00000   0.00000   0.00000   0.00000
 272       81H+5        0.00000   0.00000   0.00000   0.00000   0.00000
 273       81H-5        0.00000   0.00000   0.00000   0.00000   0.00000
 274       82H 0        0.00031   0.00000   0.00000  -0.00080   0.00035
 275       82H+1        0.00000  -0.00008   0.00000   0.00000   0.00000
 276       82H-1        0.00000   0.00000  -0.00008   0.00000   0.00000
 277       82H+2        0.00000   0.00000   0.00000   0.00000  -0.00000
 278       82H-2        0.00000   0.00000   0.00000   0.00000   0.00000
 279       82H+3        0.00000   0.00000   0.00000   0.00000   0.00000
 280       82H-3        0.00000   0.00000  -0.00000   0.00000   0.00000
 281       82H+4       -0.00000   0.00000   0.00000  -0.00000  -0.00000
 282       82H-4        0.00000   0.00000   0.00000   0.00000   0.00000
 283       82H+5        0.00000   0.00000   0.00000   0.00000   0.00000
 284       82H-5        0.00000   0.00000  -0.00000   0.00000   0.00000
 285       83H 0        0.00068   0.00000   0.00000   0.00037  -0.00017
 286       83H+1        0.00000   0.00008   0.00000   0.00000   0.00000
 287       83H-1        0.00000   0.00000   0.00008   0.00000   0.00000
 288       83H+2        0.00000   0.00000   0.00000   0.00000  -0.00000
 289       83H-2        0.00000   0.00000   0.00000   0.00000   0.00000
 290       83H+3        0.00000  -0.00000   0.00000   0.00000   0.00000
 291       83H-3        0.00000   0.00000  -0.00000   0.00000   0.00000
 292       83H+4        0.00000   0.00000   0.00000   0.00000  -0.00000
 293       83H-4        0.00000   0.00000   0.00000   0.00000   0.00000
 294       83H+5        0.00000  -0.00000   0.00000   0.00000   0.00000
 295       83H-5        0.00000   0.00000   0.00000   0.00000   0.00000
 296       84H 0        0.00018   0.00000   0.00000   0.00002  -0.00019
 297       84H+1        0.00000  -0.00001   0.00000   0.00000   0.00000
 298       84H-1        0.00000   0.00000  -0.00001   0.00000   0.00000
 299       84H+2       -0.00000   0.00000   0.00000   0.00000  -0.00000
 300       84H-2        0.00000   0.00000   0.00000   0.00000   0.00000
 301       84H+3        0.00000   0.00000   0.00000   0.00000   0.00000
 302       84H-3        0.00000   0.00000  -0.00000   0.00000   0.00000
 303       84H+4       -0.00000   0.00000   0.00000  -0.00000   0.00000
 304       84H-4        0.00000   0.00000   0.00000   0.00000   0.00000
 305       84H+5        0.00000   0.00000   0.00000   0.00000   0.00000
 306       84H-5        0.00000   0.00000  -0.00000   0.00000   0.00000
 307       85I 0       -0.00003   0.00000   0.00000  -0.00007   0.00005
 308       85I+1        0.00000  -0.00000   0.00000   0.00000   0.00000
 309       85I-1        0.00000   0.00000  -0.00000   0.00000   0.00000
 310       85I+2       -0.00000   0.00000   0.00000  -0.00000   0.00000
 311       85I-2        0.00000   0.00000   0.00000   0.00000   0.00000
 312       85I+3        0.00000  -0.00000   0.00000   0.00000   0.00000
 313       85I-3        0.00000   0.00000  -0.00000   0.00000   0.00000
 314       85I+4       -0.00000   0.00000   0.00000   0.00000  -0.00000
 315       85I-4        0.00000   0.00000   0.00000   0.00000   0.00000
 316       85I+5        0.00000   0.00000   0.00000   0.00000   0.00000
 317       85I-5        0.00000   0.00000   0.00000   0.00000   0.00000
 318       85I+6        0.00000   0.00000   0.00000   0.00000   0.00000
 319       85I-6        0.00000   0.00000   0.00000   0.00000   0.00000
 320       86I 0       -0.00011   0.00000   0.00000  -0.00020   0.00011
 321       86I+1        0.00000  -0.00005   0.00000   0.00000   0.00000
 322       86I-1        0.00000   0.00000  -0.00005   0.00000   0.00000
 323       86I+2       -0.00000   0.00000   0.00000   0.00000  -0.00000
 324       86I-2        0.00000   0.00000   0.00000   0.00000   0.00000
 325       86I+3        0.00000   0.00000   0.00000   0.00000   0.00000
 326       86I-3        0.00000   0.00000  -0.00000   0.00000   0.00000
 327       86I+4        0.00000   0.00000   0.00000  -0.00000   0.00000
 328       86I-4        0.00000   0.00000   0.00000   0.00000   0.00000
 329       86I+5        0.00000  -0.00000   0.00000   0.00000   0.00000
 330       86I-5        0.00000   0.00000  -0.00000   0.00000   0.00000
 331       86I+6       -0.00000   0.00000   0.00000  -0.00000   0.00000
 332       86I-6        0.00000   0.00000   0.00000   0.00000   0.00000
 333       87I 0       -0.00015   0.00000   0.00000  -0.00029   0.00021
 334       87I+1        0.00000  -0.00001   0.00000   0.00000   0.00000
 335       87I-1        0.00000   0.00000  -0.00001   0.00000   0.00000
 336       87I+2       -0.00000   0.00000   0.00000  -0.00000   0.00000
 337       87I-2        0.00000   0.00000   0.00000   0.00000   0.00000
 338       87I+3        0.00000   0.00000   0.00000   0.00000   0.00000
 339       87I-3        0.00000   0.00000   0.00000   0.00000   0.00000
 340       87I+4       -0.00000   0.00000   0.00000  -0.00000   0.00000
 341       87I-4        0.00000   0.00000   0.00000   0.00000   0.00000
 342       87I+5        0.00000   0.00000   0.00000   0.00000   0.00000
 343       87I-5        0.00000   0.00000   0.00000   0.00000   0.00000
 344       87I+6        0.00000   0.00000   0.00000   0.00000  -0.00000
 345       87I-6        0.00000   0.00000   0.00000   0.00000   0.00000
 346 2   H  1S          0.00001   0.00000   0.00000  -0.00003   0.00000
 347        2S         -0.00018   0.00000   0.00000   0.00057  -0.00003
 348        3S         -0.00363   0.00000   0.00000   0.01154  -0.00067
 349        4S         -0.01201   0.00000   0.00000   0.04023  -0.00241
 350        5S         -0.03514   0.00000   0.00000   0.12240  -0.00811
 351        6S         -0.04513   0.00000   0.00000   0.27083  -0.00659
 352        7S         -0.04123   0.00000   0.00000   0.31564   0.00523
 353        8S          0.00125   0.00000   0.00000   0.17261   0.01468
 354        9S         -0.00882   0.00000   0.00000  -0.04177  -0.02075
 355       10PX         0.00000   0.00028   0.00000   0.00000   0.00000
 356       10PY         0.00000   0.00000   0.00028   0.00000   0.00000
 357       10PZ        -0.00136   0.00000   0.00000   0.00075  -0.00074
 358       11PX         0.00000   0.00120   0.00000   0.00000   0.00000
 359       11PY         0.00000   0.00000   0.00120   0.00000   0.00000
 360       11PZ        -0.00528   0.00000   0.00000   0.00403  -0.00261
 361       12PX         0.00000   0.00288   0.00000   0.00000   0.00000
 362       12PY         0.00000   0.00000   0.00288   0.00000   0.00000
 363       12PZ        -0.00812   0.00000   0.00000   0.02348  -0.00625
 364       13PX         0.00000   0.00083   0.00000   0.00000   0.00000
 365       13PY         0.00000   0.00000   0.00083   0.00000   0.00000
 366       13PZ        -0.00831   0.00000   0.00000   0.02166  -0.00561
 367       14PX         0.00000   0.00100   0.00000   0.00000   0.00000
 368       14PY         0.00000   0.00000   0.00100   0.00000   0.00000
 369       14PZ         0.00043   0.00000   0.00000   0.01848  -0.00002
 370       15D 0       -0.00072   0.00000   0.00000   0.00016  -0.00037
 371       15D+1        0.00000   0.00024   0.00000   0.00000   0.00000
 372       15D-1        0.00000   0.00000   0.00024   0.00000   0.00000
 373       15D+2       -0.00000   0.00000   0.00000  -0.00000   0.00000
 374       15D-2        0.00000   0.00000   0.00000   0.00000   0.00000
 375       16D 0       -0.00196   0.00000   0.00000   0.00281  -0.00122
 376       16D+1        0.00000   0.00095   0.00000   0.00000   0.00000
 377       16D-1        0.00000   0.00000   0.00095   0.00000   0.00000
 378       16D+2        0.00000   0.00000   0.00000  -0.00000   0.00000
 379       16D-2        0.00000   0.00000   0.00000   0.00000   0.00000
 380       17D 0       -0.00106   0.00000   0.00000   0.00443  -0.00210
 381       17D+1        0.00000   0.00101   0.00000   0.00000   0.00000
 382       17D-1        0.00000   0.00000   0.00101   0.00000   0.00000
 383       17D+2        0.00000   0.00000   0.00000   0.00000  -0.00000
 384       17D-2        0.00000   0.00000   0.00000   0.00000   0.00000
 385       18D 0        0.00139   0.00000   0.00000   0.00091  -0.00031
 386       18D+1        0.00000   0.00022   0.00000   0.00000   0.00000
 387       18D-1        0.00000   0.00000   0.00022   0.00000   0.00000
 388       18D+2        0.00000   0.00000   0.00000   0.00000  -0.00000
 389       18D-2        0.00000   0.00000   0.00000   0.00000   0.00000
 390       19F 0       -0.00030   0.00000   0.00000   0.00025  -0.00016
 391       19F+1        0.00000   0.00017   0.00000   0.00000   0.00000
 392       19F-1        0.00000   0.00000   0.00017   0.00000   0.00000
 393       19F+2        0.00000   0.00000   0.00000   0.00000  -0.00000
 394       19F-2        0.00000   0.00000   0.00000   0.00000   0.00000
 395       19F+3        0.00000  -0.00000   0.00000   0.00000   0.00000
 396       19F-3        0.00000   0.00000  -0.00000   0.00000   0.00000
 397       20F 0       -0.00116   0.00000   0.00000   0.00115  -0.00055
 398       20F+1        0.00000   0.00038   0.00000   0.00000   0.00000
 399       20F-1        0.00000   0.00000   0.00038   0.00000   0.00000
 400       20F+2        0.00000   0.00000   0.00000  -0.00000   0.00000
 401       20F-2        0.00000   0.00000   0.00000   0.00000   0.00000
 402       20F+3        0.00000  -0.00000   0.00000   0.00000   0.00000
 403       20F-3        0.00000   0.00000   0.00000   0.00000   0.00000
 404       21F 0        0.00021   0.00000   0.00000   0.00134  -0.00034
 405       21F+1        0.00000   0.00022   0.00000   0.00000   0.00000
 406       21F-1        0.00000   0.00000   0.00022   0.00000   0.00000
 407       21F+2        0.00000   0.00000   0.00000   0.00000  -0.00000
 408       21F-2        0.00000   0.00000   0.00000   0.00000   0.00000
 409       21F+3        0.00000  -0.00000   0.00000   0.00000   0.00000
 410       21F-3        0.00000   0.00000   0.00000   0.00000   0.00000
 411       22G 0       -0.00011   0.00000   0.00000   0.00015  -0.00006
 412       22G+1        0.00000   0.00006   0.00000   0.00000   0.00000
 413       22G-1        0.00000   0.00000   0.00006   0.00000   0.00000
 414       22G+2        0.00000   0.00000   0.00000  -0.00000   0.00000
 415       22G-2        0.00000   0.00000   0.00000   0.00000   0.00000
 416       22G+3        0.00000  -0.00000   0.00000   0.00000   0.00000
[...]
 208       74F-2       -0.00000  -0.00000  -0.00000   0.00000
 209       74F+3       -0.00000  -0.00000  -0.00000   0.00000
 210       74F-3       -0.00000  -0.00000  -0.00000   0.00000
 211       75F 0        0.00002   0.00001   0.00001   0.00000
 212       75F+1       -0.00000  -0.00000  -0.00000   0.00000
 213       75F-1       -0.00000  -0.00000  -0.00000   0.00000
 214       75F+2        0.00000   0.00000   0.00000   0.00000
 215       75F-2        0.00000   0.00000   0.00000   0.00000
 216       75F+3       -0.00000  -0.00000  -0.00000   0.00000
 217       75F-3        0.00000   0.00000   0.00000   0.00000
 218       76G 0        0.00000   0.00000   0.00000   0.00000
 219       76G+1        0.00000   0.00000   0.00000   0.00000
 220       76G-1        0.00000   0.00000   0.00000   0.00000
 221       76G+2        0.00000   0.00000   0.00000   0.00000
 222       76G-2        0.00000   0.00000   0.00000   0.00000
 223       76G+3        0.00000   0.00000   0.00000   0.00000
 224       76G-3        0.00000   0.00000   0.00000   0.00000
 225       76G+4       -0.00000  -0.00000  -0.00000   0.00000
 226       76G-4       -0.00000  -0.00000  -0.00000   0.00000
 227       77G 0        0.00011   0.00006   0.00006   0.00000
 228       77G+1        0.00000   0.00000   0.00000   0.00000
 229       77G-1        0.00000   0.00000   0.00000   0.00000
 230       77G+2        0.00000   0.00000   0.00000   0.00000
 231       77G-2        0.00000   0.00000   0.00000   0.00000
 232       77G+3        0.00000   0.00000   0.00000   0.00000
 233       77G-3        0.00000   0.00000   0.00000   0.00000
 234       77G+4        0.00000   0.00000   0.00000   0.00000
 235       77G-4        0.00000   0.00000   0.00000   0.00000
 236       78G 0        0.00055   0.00028   0.00028   0.00000
 237       78G+1       -0.00000  -0.00000  -0.00000   0.00000
 238       78G-1       -0.00000  -0.00000  -0.00000   0.00000
 239       78G+2       -0.00000  -0.00000  -0.00000   0.00000
 240       78G-2       -0.00000  -0.00000  -0.00000   0.00000
 241       78G+3       -0.00000  -0.00000  -0.00000   0.00000
 242       78G-3        0.00000   0.00000   0.00000   0.00000
 243       78G+4       -0.00000  -0.00000  -0.00000   0.00000
 244       78G-4       -0.00000  -0.00000  -0.00000   0.00000
 245       79G 0        0.00009   0.00005   0.00005   0.00000
 246       79G+1       -0.00000  -0.00000  -0.00000   0.00000
 247       79G-1       -0.00000  -0.00000  -0.00000   0.00000
 248       79G+2       -0.00000  -0.00000  -0.00000   0.00000
 249       79G-2       -0.00000  -0.00000  -0.00000   0.00000
 250       79G+3        0.00000   0.00000   0.00000   0.00000
 251       79G-3        0.00000   0.00000   0.00000   0.00000
 252       79G+4       -0.00000  -0.00000  -0.00000   0.00000
 253       79G-4       -0.00000  -0.00000  -0.00000   0.00000
 254       80G 0        0.00001   0.00000   0.00000   0.00000
 255       80G+1       -0.00000  -0.00000  -0.00000   0.00000
 256       80G-1       -0.00000  -0.00000  -0.00000   0.00000
 257       80G+2        0.00000   0.00000   0.00000   0.00000
 258       80G-2        0.00000   0.00000   0.00000   0.00000
 259       80G+3       -0.00000  -0.00000  -0.00000   0.00000
 260       80G-3        0.00000   0.00000   0.00000   0.00000
 261       80G+4        0.00000   0.00000   0.00000   0.00000
 262       80G-4        0.00000   0.00000   0.00000   0.00000
 263       81H 0        0.00000   0.00000   0.00000   0.00000
 264       81H+1       -0.00000  -0.00000  -0.00000   0.00000
 265       81H-1       -0.00000  -0.00000  -0.00000   0.00000
 266       81H+2        0.00000   0.00000   0.00000   0.00000
 267       81H-2        0.00000   0.00000   0.00000   0.00000
 268       81H+3        0.00000   0.00000   0.00000   0.00000
 269       81H-3        0.00000   0.00000   0.00000   0.00000
 270       81H+4        0.00000   0.00000   0.00000   0.00000
 271       81H-4        0.00000   0.00000   0.00000   0.00000
 272       81H+5       -0.00000  -0.00000  -0.00000   0.00000
 273       81H-5       -0.00000  -0.00000  -0.00000   0.00000
 274       82H 0        0.00007   0.00003   0.00003   0.00000
 275       82H+1       -0.00000  -0.00000  -0.00000   0.00000
 276       82H-1       -0.00000  -0.00000  -0.00000   0.00000
 277       82H+2        0.00000   0.00000   0.00000   0.00000
 278       82H-2        0.00000   0.00000   0.00000   0.00000
 279       82H+3        0.00000   0.00000   0.00000   0.00000
 280       82H-3       -0.00000  -0.00000  -0.00000   0.00000
 281       82H+4        0.00000   0.00000   0.00000   0.00000
 282       82H-4        0.00000   0.00000   0.00000   0.00000
 283       82H+5        0.00000   0.00000   0.00000   0.00000
 284       82H-5        0.00000   0.00000   0.00000   0.00000
 285       83H 0       -0.00003  -0.00001  -0.00001   0.00000
 286       83H+1        0.00000   0.00000   0.00000   0.00000
 287       83H-1        0.00000   0.00000   0.00000   0.00000
 288       83H+2        0.00000   0.00000   0.00000   0.00000
 289       83H-2        0.00000   0.00000   0.00000   0.00000
 290       83H+3        0.00000   0.00000   0.00000   0.00000
 291       83H-3       -0.00000  -0.00000  -0.00000   0.00000
 292       83H+4        0.00000   0.00000   0.00000   0.00000
 293       83H-4        0.00000   0.00000   0.00000   0.00000
 294       83H+5        0.00000   0.00000   0.00000   0.00000
 295       83H-5        0.00000   0.00000   0.00000   0.00000
 296       84H 0        0.00000   0.00000   0.00000   0.00000
 297       84H+1       -0.00000  -0.00000  -0.00000   0.00000
 298       84H-1       -0.00000  -0.00000  -0.00000   0.00000
 299       84H+2        0.00000   0.00000   0.00000   0.00000
 300       84H-2        0.00000   0.00000   0.00000   0.00000
 301       84H+3        0.00000   0.00000   0.00000   0.00000
 302       84H-3       -0.00000  -0.00000  -0.00000   0.00000
 303       84H+4        0.00000   0.00000   0.00000   0.00000
 304       84H-4        0.00000   0.00000   0.00000   0.00000
 305       84H+5        0.00000   0.00000   0.00000   0.00000
 306       84H-5       -0.00000  -0.00000  -0.00000   0.00000
 307       85I 0       -0.00000  -0.00000  -0.00000   0.00000
 308       85I+1        0.00000   0.00000   0.00000   0.00000
 309       85I-1        0.00000   0.00000   0.00000   0.00000
 310       85I+2        0.00000   0.00000   0.00000   0.00000
 311       85I-2        0.00000   0.00000   0.00000   0.00000
 312       85I+3       -0.00000  -0.00000  -0.00000   0.00000
 313       85I-3        0.00000   0.00000   0.00000   0.00000
 314       85I+4        0.00000   0.00000   0.00000   0.00000
 315       85I-4        0.00000   0.00000   0.00000   0.00000
 316       85I+5       -0.00000  -0.00000  -0.00000   0.00000
 317       85I-5       -0.00000  -0.00000  -0.00000   0.00000
 318       85I+6        0.00000   0.00000   0.00000   0.00000
 319       85I-6        0.00000   0.00000   0.00000   0.00000
 320       86I 0       -0.00001  -0.00000  -0.00000   0.00000
 321       86I+1        0.00000   0.00000   0.00000   0.00000
 322       86I-1        0.00000   0.00000   0.00000   0.00000
 323       86I+2       -0.00000  -0.00000  -0.00000   0.00000
 324       86I-2       -0.00000  -0.00000  -0.00000   0.00000
 325       86I+3       -0.00000  -0.00000  -0.00000   0.00000
 326       86I-3       -0.00000  -0.00000  -0.00000   0.00000
 327       86I+4       -0.00000  -0.00000  -0.00000   0.00000
 328       86I-4       -0.00000  -0.00000  -0.00000   0.00000
 329       86I+5        0.00000   0.00000   0.00000   0.00000
 330       86I-5        0.00000   0.00000   0.00000   0.00000
 331       86I+6       -0.00000  -0.00000  -0.00000   0.00000
 332       86I-6       -0.00000  -0.00000  -0.00000   0.00000
 333       87I 0       -0.00002  -0.00001  -0.00001   0.00000
 334       87I+1        0.00000   0.00000   0.00000   0.00000
 335       87I-1        0.00000   0.00000   0.00000   0.00000
 336       87I+2       -0.00000  -0.00000  -0.00000   0.00000
 337       87I-2       -0.00000  -0.00000  -0.00000   0.00000
 338       87I+3       -0.00000  -0.00000  -0.00000   0.00000
 339       87I-3       -0.00000  -0.00000  -0.00000   0.00000
 340       87I+4       -0.00000  -0.00000  -0.00000   0.00000
 341       87I-4       -0.00000  -0.00000  -0.00000   0.00000
 342       87I+5       -0.00000  -0.00000  -0.00000   0.00000
 343       87I-5       -0.00000  -0.00000  -0.00000   0.00000
 344       87I+6       -0.00000  -0.00000  -0.00000   0.00000
 345       87I-6       -0.00000  -0.00000  -0.00000   0.00000
 346 2   H  1S         -0.00000  -0.00000  -0.00000   0.00000
 347        2S          0.00011   0.00005   0.00005   0.00000
 348        3S          0.00566   0.00283   0.00283   0.00000
 349        4S          0.03980   0.01990   0.01990   0.00000
 350        5S          0.19042   0.09521   0.09521   0.00000
 351        6S          0.45495   0.22748   0.22748   0.00000
 352        7S          0.45489   0.22745   0.22745   0.00000
 353        8S          0.18468   0.09234   0.09234   0.00000
 354        9S         -0.05063  -0.02531  -0.02531   0.00000
 355       10PX         0.00001   0.00001   0.00001   0.00000
 356       10PY         0.00001   0.00001   0.00001   0.00000
 357       10PZ         0.00033   0.00016   0.00016   0.00000
 358       11PX         0.00015   0.00007   0.00007   0.00000
 359       11PY         0.00015   0.00007   0.00007   0.00000
 360       11PZ         0.00348   0.00174   0.00174   0.00000
 361       12PX         0.00103   0.00052   0.00052   0.00000
 362       12PY         0.00103   0.00052   0.00052   0.00000
 363       12PZ         0.00731   0.00366   0.00366   0.00000
 364       13PX         0.00049   0.00025   0.00025   0.00000
 365       13PY         0.00049   0.00025   0.00025   0.00000
 366       13PZ         0.00053   0.00026   0.00026   0.00000
 367       14PX         0.00043   0.00022   0.00022   0.00000
 368       14PY         0.00043   0.00022   0.00022   0.00000
 369       14PZ        -0.00669  -0.00334  -0.00334   0.00000
 370       15D 0        0.00018   0.00009   0.00009   0.00000
 371       15D+1        0.00002   0.00001   0.00001   0.00000
 372       15D-1        0.00002   0.00001   0.00001   0.00000
 373       15D+2        0.00000   0.00000   0.00000   0.00000
 374       15D-2        0.00000   0.00000   0.00000   0.00000
 375       16D 0        0.00138   0.00069   0.00069   0.00000
 376       16D+1        0.00029   0.00015   0.00015   0.00000
 377       16D-1        0.00029   0.00015   0.00015   0.00000
 378       16D+2       -0.00000  -0.00000  -0.00000   0.00000
 379       16D-2       -0.00000  -0.00000  -0.00000   0.00000
 380       17D 0        0.00072   0.00036   0.00036   0.00000
 381       17D+1        0.00078   0.00039   0.00039   0.00000
 382       17D-1        0.00078   0.00039   0.00039   0.00000
 383       17D+2       -0.00000  -0.00000  -0.00000   0.00000
 384       17D-2       -0.00000  -0.00000  -0.00000   0.00000
 385       18D 0        0.00034   0.00017   0.00017   0.00000
 386       18D+1        0.00017   0.00009   0.00009   0.00000
 387       18D-1        0.00017   0.00009   0.00009   0.00000
 388       18D+2       -0.00000  -0.00000  -0.00000   0.00000
 389       18D-2       -0.00000  -0.00000  -0.00000   0.00000
 390       19F 0        0.00007   0.00003   0.00003   0.00000
 391       19F+1        0.00002   0.00001   0.00001   0.00000
 392       19F-1        0.00002   0.00001   0.00001   0.00000
 393       19F+2        0.00000   0.00000   0.00000   0.00000
 394       19F-2        0.00000   0.00000   0.00000   0.00000
 395       19F+3        0.00000   0.00000   0.00000   0.00000
 396       19F-3       -0.00000  -0.00000  -0.00000   0.00000
 397       20F 0        0.00050   0.00025   0.00025   0.00000
 398       20F+1        0.00021   0.00011   0.00011   0.00000
 399       20F-1        0.00021   0.00011   0.00011   0.00000
 400       20F+2        0.00000   0.00000   0.00000   0.00000
 401       20F-2        0.00000   0.00000   0.00000   0.00000
 402       20F+3       -0.00000  -0.00000  -0.00000   0.00000
 403       20F-3        0.00000   0.00000   0.00000   0.00000
 404       21F 0        0.00012   0.00006   0.00006   0.00000
 405       21F+1        0.00021   0.00011   0.00011   0.00000
 406       21F-1        0.00021   0.00011   0.00011   0.00000
 407       21F+2        0.00000   0.00000   0.00000   0.00000
 408       21F-2        0.00000   0.00000   0.00000   0.00000
 409       21F+3       -0.00000  -0.00000  -0.00000   0.00000
 410       21F-3        0.00000   0.00000   0.00000   0.00000
 411       22G 0        0.00002   0.00001   0.00001   0.00000
 412       22G+1        0.00001   0.00000   0.00000   0.00000
 413       22G-1        0.00001   0.00000   0.00000   0.00000
 414       22G+2        0.00000   0.00000   0.00000   0.00000
 415       22G-2        0.00000   0.00000   0.00000   0.00000
 416       22G+3        0.00000   0.00000   0.00000   0.00000
 417       22G-3       -0.00000  -0.00000  -0.00000   0.00000
 418       22G+4        0.00000   0.00000   0.00000   0.00000
 419       22G-4        0.00000   0.00000   0.00000   0.00000
 420       23G 0       -0.00003  -0.00002  -0.00002   0.00000
 421       23G+1        0.00005   0.00003   0.00003   0.00000
 422       23G-1        0.00005   0.00003   0.00003   0.00000
 423       23G+2       -0.00000  -0.00000  -0.00000   0.00000
 424       23G-2       -0.00000  -0.00000  -0.00000   0.00000
 425       23G+3       -0.00000  -0.00000  -0.00000   0.00000
 426       23G-3       -0.00000  -0.00000  -0.00000   0.00000
 427       23G+4        0.00000   0.00000   0.00000   0.00000
 428       23G-4        0.00000   0.00000   0.00000   0.00000
          Condensed to atoms (all electrons):
               1          2
     1  Sc  10.699318   0.004805
     2  H    0.004805   1.291072
          Atomic-Atomic Spin Densities.
               1          2
     1  Sc   0.000000   0.000000
     2  H    0.000000   0.000000
 Mulliken charges and spin densities:
               1          2
     1  Sc   0.295877   0.000000
     2  H   -0.295877   0.000000
 Sum of Mulliken charges =  -0.00000   0.00000
 Mulliken charges and spin densities with hydrogens summed into heavy atoms:
               1          2
     1  Sc  -0.000000   0.000000
 Electronic spatial extent (au):  <R**2>=             56.3755
 Charge=             -0.0000 electrons
 Dipole moment (field-independent basis, Debye):
    X=              0.0000    Y=              0.0000    Z=              0.7462  Tot=              0.7462
 Quadrupole moment (field-independent basis, Debye-Ang):
   XX=            -23.4856   YY=            -23.4856   ZZ=            -22.3964
   XY=              0.0000   XZ=              0.0000   YZ=              0.0000
 Traceless Quadrupole moment (field-independent basis, Debye-Ang):
   XX=             -0.3631   YY=             -0.3631   ZZ=              0.7261
   XY=              0.0000   XZ=              0.0000   YZ=              0.0000
 Octapole moment (field-independent basis, Debye-Ang**2):
  XXX=              0.0000  YYY=              0.0000  ZZZ=              0.1812  XYY=              0.0000
  XXY=              0.0000  XXZ=             -1.9561  XZZ=              0.0000  YZZ=              0.0000
  YYZ=             -1.9561  XYZ=              0.0000
 Hexadecapole moment (field-independent basis, Debye-Ang**3):
 XXXX=            -83.4472 YYYY=            -83.4472 ZZZZ=            -74.7215 XXXY=              0.0000
 XXXZ=              0.0000 YYYX=              0.0000 YYYZ=              0.0000 ZZZX=              0.0000
 ZZZY=              0.0000 XXYY=            -27.8157 XXZZ=            -25.2499 YYZZ=            -25.2499
 XXYZ=              0.0000 YYXZ=              0.0000 ZZXY=              0.0000
 N-N= 4.850791100100D+00 E-N=-1.063856968819D+02  KE= 1.962176611908D+01
 Symmetry A1   KE= 1.119199595336D+01
 Symmetry A2   KE= 1.272242786805D-47
 Symmetry B1   KE= 4.214885082687D+00
 Symmetry B2   KE= 4.214885083294D+00
 Symmetry A1   SP= 0.000000000000D+00
 Symmetry A2   SP= 0.000000000000D+00
 Symmetry B1   SP= 0.000000000000D+00
 Symmetry B2   SP= 0.000000000000D+00
 Orbital energies and kinetic energies (alpha):
                                 1                 2
   2         O                -1.634552          2.004069
   3         O                -1.588447          2.107443
   4         O                -1.588447          2.107443
   5         O                -0.468409          1.704218
   6         O                -0.215605          0.585242
   7         V                 0.013331          0.049094
   8         V                 0.013331          0.049094
   9         V                 0.013664          0.075555
  10         V                 0.016678          0.039959
  11         V                 0.026079          0.027318
 Total kinetic energy from orbitals= 1.962176611908D+01
                          Isotropic Fermi Contact Couplings
        Atom                 a.u.       MegaHertz       Gauss      10(-4) cm-1
     1  Sc(45)             0.00000       0.00000       0.00000       0.00000
     2  H(1)               0.00000       0.00000       0.00000       0.00000
 --------------------------------------------------------
       Center         ----  Spin Dipole Couplings  ----
                      3XX-RR        3YY-RR        3ZZ-RR
 --------------------------------------------------------
     1   Atom        0.000000      0.000000      0.000000
     2   Atom        0.000000      0.000000      0.000000
 --------------------------------------------------------
                        XY            XZ            YZ
 --------------------------------------------------------
     1   Atom        0.000000      0.000000      0.000000
     2   Atom        0.000000      0.000000      0.000000
 --------------------------------------------------------


 ---------------------------------------------------------------------------------
              Anisotropic Spin Dipole Couplings in Principal Axis System
 ---------------------------------------------------------------------------------

       Atom             a.u.   MegaHertz   Gauss  10(-4) cm-1        Axes

              Baa     0.0000     0.000     0.000     0.000  1.0000  0.0000  0.0000
     1 Sc(45) Bbb     0.0000     0.000     0.000     0.000 -0.0000  1.0000  0.0000
              Bcc     0.0000     0.000     0.000     0.000  0.0000  0.0000  1.0000
 
              Baa     0.0000     0.000     0.000     0.000  1.0000  0.0000  0.0000
     2 H(1)   Bbb     0.0000     0.000     0.000     0.000 -0.0000  1.0000  0.0000
              Bcc     0.0000     0.000     0.000     0.000  0.0000  0.0000  1.0000
 

 ---------------------------------------------------------------------------------

 No NMR shielding tensors so no spin-rotation constants.
 Leave Link  601 at Tue Feb 13 20:39:33 2018, MaxMem=  8589934592 cpu:             307.1 elap:              10.1
 (Enter /home1/apps/gaussian/16rA.03/g16/l9999.exe)

 Test job not archived.
 1\1\GINC-C437-122\SP\ROCCSD(T)-Full\Gen\H1Sc1\AANNABE\13-Feb-2018\0\\#
 P ROCCSD(T)=(maxcyc=150, Full)/Gen 5d 7f SCF=(maxcycles=300) Integral(
 NoXCTest) MaxDisk=500GB Pop=Regular Pseudo=Read IOp(5/15=2) Guess=Read
 \\ScH\\0,1\Sc,0,0.,0.,0.\H,0,0.,0.,1.2\\Version=ES64L-G16RevA.03\State
 =1-SG\HF=-46.6812457\MP2=-47.1227215\MP3=-47.14033\PUHF=-46.6812457\PM
 P2-0=-47.1227215\MP4SDQ=-47.1396139\CCSD=-47.139202\CCSD(T)=-47.157974
 2\RMSD=1.957e-09\PG=C*V [C*(H1Sc1)]\\@


 IT IS THE BEHAVIOR AND DISTRIBUTION OF THE ELECTRONS 
 AROUND THE NUCLEUS THAT GIVES THE FUNDAMENTAL 
 CHARACTER OF AN ATOM:  IT MUST BE THE SAME FOR MOLECULES.

                               -- C. A. COULSON, 1951
 Job cpu time:       1 days 13 hours 48 minutes 39.4 seconds.
 Elapsed time:       0 days  1 hours 11 minutes 11.7 seconds.
 File lengths (MBytes):  RWF=  17035 Int=      0 D2E=      0 Chk=     23 Scr=      1
 Normal termination of Gaussian 16 at Tue Feb 13 20:39:40 2018.
