 Entering Gaussian System, Link 0=g16
 Initial command:
 /home1/apps/gaussian/16rA.03/g16/l1.exe "/tmp/Gau-119646.inp" -scrdir="/tmp/"
 Entering Link 1 = /home1/apps/gaussian/16rA.03/g16/l1.exe PID=    119647.
  
 Copyright (c) 1988,1990,1992,1993,1995,1998,2003,2009,2016,
            Gaussian, Inc.  All Rights Reserved.
  
 This is part of the Gaussian(R) 16 program.  It is based on
 the Gaussian(R) 09 system (copyright 2009, Gaussian, Inc.),
 the Gaussian(R) 03 system (copyright 2003, Gaussian, Inc.),
 the Gaussian(R) 98 system (copyright 1998, Gaussian, Inc.),
 the Gaussian(R) 94 system (copyright 1995, Gaussian, Inc.),
 the Gaussian 92(TM) system (copyright 1992, Gaussian, Inc.),
 the Gaussian 90(TM) system (copyright 1990, Gaussian, Inc.),
 the Gaussian 88(TM) system (copyright 1988, Gaussian, Inc.),
 the Gaussian 86(TM) system (copyright 1986, Carnegie Mellon
 University), and the Gaussian 82(TM) system (copyright 1983,
 Carnegie Mellon University). Gaussian is a federally registered
 trademark of Gaussian, Inc.
  
 This software contains proprietary and confidential information,
 including trade secrets, belonging to Gaussian, Inc.
  
 This software is provided under written license and may be
 used, copied, transmitted, or stored only in accord with that
 written license.
  
 The following legend is applicable only to US Government
 contracts under FAR:
  
                    RESTRICTED RIGHTS LEGEND
  
 Use, reproduction and disclosure by the US Government is
 subject to restrictions as set forth in subparagraphs (a)
 and (c) of the Commercial Computer Software - Restricted
 Rights clause in FAR 52.227-19.
  
 Gaussian, Inc.
 340 Quinnipiac St., Bldg. 40, Wallingford CT 06492
  
  
 ---------------------------------------------------------------
 Warning -- This program may not be used in any manner that
 competes with the business of Gaussian, Inc. or will provide
 assistance to any competitor of Gaussian, Inc.  The licensee
 of this program is prohibited from giving any competitor of
 Gaussian, Inc. access to this program.  By using this program,
 the user acknowledges that Gaussian, Inc. is engaged in the
 business of creating and licensing software in the field of
 computational chemistry and represents and warrants to the
 licensee that it is not a competitor of Gaussian, Inc. and that
 it will not use this program in any manner prohibited above.
 ---------------------------------------------------------------
  

 Cite this work as:
 Gaussian 16, Revision A.03,
 M. J. Frisch, G. W. Trucks, H. B. Schlegel, G. E. Scuseria, 
 M. A. Robb, J. R. Cheeseman, G. Scalmani, V. Barone, 
 G. A. Petersson, H. Nakatsuji, X. Li, M. Caricato, A. V. Marenich, 
 J. Bloino, B. G. Janesko, R. Gomperts, B. Mennucci, H. P. Hratchian, 
 J. V. Ortiz, A. F. Izmaylov, J. L. Sonnenberg, D. Williams-Young, 
 F. Ding, F. Lipparini, F. Egidi, J. Goings, B. Peng, A. Petrone, 
 T. Henderson, D. Ranasinghe, V. G. Zakrzewski, J. Gao, N. Rega, 
 G. Zheng, W. Liang, M. Hada, M. Ehara, K. Toyota, R. Fukuda, 
 J. Hasegawa, M. Ishida, T. Nakajima, Y. Honda, O. Kitao, H. Nakai, 
 T. Vreven, K. Throssell, J. A. Montgomery, Jr., J. E. Peralta, 
 F. Ogliaro, M. J. Bearpark, J. J. Heyd, E. N. Brothers, K. N. Kudin, 
 V. N. Staroverov, T. A. Keith, R. Kobayashi, J. Normand, 
 K. Raghavachari, A. P. Rendell, J. C. Burant, S. S. Iyengar, 
 J. Tomasi, M. Cossi, J. M. Millam, M. Klene, C. Adamo, R. Cammi, 
 J. W. Ochterski, R. L. Martin, K. Morokuma, O. Farkas, 
 J. B. Foresman, and D. J. Fox, Gaussian, Inc., Wallingford CT, 2016.
 
 ******************************************
 Gaussian 16:  ES64L-G16RevA.03 25-Dec-2016
                14-Mar-2018 
 ******************************************
 %MEM=80GB
 %CPU=0-15
 SetSPE:  set environment variable "MP_BIND" = "yes"
 SetSPE:  set environment variable "MP_BLIST" = "0,1,2,3,4,5,6,7,8,9,10,11,12,13,14,15"
 Will use up to   16 processors via shared memory.
 %RWF=/scratch/04843/aannabe/gaussian/
 %Int=/scratch/04843/aannabe/gaussian/
 %D2E=/scratch/04843/aannabe/gaussian/
 %NoSave
 %CHK=ScO
 ----------------------------------------------------------------------
 #P ROCCSD(T)=(maxcyc=150, Full, SaveAmplitudes, ReadAmplitudes)/Gen 5d
  7f SCF=(maxcycles=300) Integral(NoXCTest) MaxDisk=500GB Pop=Regular P
 seudo=Read Guess=Read
 ----------------------------------------------------------------------
 1/38=1,172=1/1;
 2/12=2,17=6,18=5,40=1/2;
 3/5=7,8=11,11=2,16=1,17=8,25=1,30=1,47=8,116=101/1,2,3;
 4/5=1/1;
 5/5=2,7=300,38=6/2;
 8/5=-1,6=4,9=120000,10=90,24=1/1,4;
 9/5=7,6=150,14=2,77=1/13;
 6//1;
 99/5=1,9=1/99;
 Leave Link    1 at Wed Mar 14 05:30:32 2018, MaxMem= 10737418240 cpu:               3.5 elap:               0.2
 (Enter /home1/apps/gaussian/16rA.03/g16/l101.exe)
 ---
 ScO
 ---
 Symbolic Z-matrix:
 Charge =  0 Multiplicity = 2
 Sc                    0.        0.        0. 
 O                     0.        0.        1.4 
 
 ITRead=  0  0
 MicOpt= -1 -1
 NAtoms=      2 NQM=        2 NQMF=       0 NMMI=      0 NMMIF=      0
                NMic=       0 NMicF=      0.
                    Isotopes and Nuclear Properties:
 (Nuclear quadrupole moments (NQMom) in fm**2, nuclear magnetic moments (NMagM)
  in nuclear magnetons)

  Atom         1           2
 IAtWgt=          45          16
 AtmWgt=  44.9559136  15.9949146
 NucSpn=           7           0
 AtZEff=  -0.0000000  -0.0000000
 NQMom=  -22.0000000   0.0000000
 NMagM=    4.7564830   0.0000000
 AtZNuc=  21.0000000   8.0000000
 Leave Link  101 at Wed Mar 14 05:30:32 2018, MaxMem= 10737418240 cpu:               1.5 elap:               0.1
 (Enter /home1/apps/gaussian/16rA.03/g16/l202.exe)
                          Input orientation:                          
 ---------------------------------------------------------------------
 Center     Atomic      Atomic             Coordinates (Angstroms)
 Number     Number       Type             X           Y           Z
 ---------------------------------------------------------------------
      1         21           0        0.000000    0.000000    0.000000
      2          8           0        0.000000    0.000000    1.400000
 ---------------------------------------------------------------------
 Stoichiometry    OSc(2)
 Framework group  C*V[C*(OSc)]
 Deg. of freedom     1
 Full point group                 C*V     NOp   4
 Largest Abelian subgroup         C2V     NOp   4
 Largest concise Abelian subgroup C1      NOp   1
                         Standard orientation:                         
 ---------------------------------------------------------------------
 Center     Atomic      Atomic             Coordinates (Angstroms)
 Number     Number       Type             X           Y           Z
 ---------------------------------------------------------------------
      1         21           0        0.000000    0.000000    0.386207
      2          8           0        0.000000    0.000000   -1.013793
 ---------------------------------------------------------------------
 Rotational constants (GHZ):           0.0000000          21.8560656          21.8560656
 Leave Link  202 at Wed Mar 14 05:30:32 2018, MaxMem= 10737418240 cpu:               0.4 elap:               0.1
 (Enter /home1/apps/gaussian/16rA.03/g16/l301.exe)
 General basis read from cards:  (5D, 7F)
 Centers:       1
 S 1 1.00
     Exponent=  8.4179090000D+06 Coefficients=  1.0000000000D+00
 S 1 1.00
     Exponent=  1.2603120000D+06 Coefficients=  1.0000000000D+00
 S 1 1.00
     Exponent=  2.8679840000D+05 Coefficients=  1.0000000000D+00
 S 1 1.00
     Exponent=  8.1234690000D+04 Coefficients=  1.0000000000D+00
 S 1 1.00
     Exponent=  2.6503110000D+04 Coefficients=  1.0000000000D+00
 S 1 1.00
     Exponent=  9.5687010000D+03 Coefficients=  1.0000000000D+00
 S 1 1.00
     Exponent=  3.7324970000D+03 Coefficients=  1.0000000000D+00
 S 1 1.00
     Exponent=  1.5484220000D+03 Coefficients=  1.0000000000D+00
 S 1 1.00
     Exponent=  6.7554200000D+02 Coefficients=  1.0000000000D+00
 S 1 1.00
     Exponent=  3.0725220000D+02 Coefficients=  1.0000000000D+00
 S 1 1.00
     Exponent=  1.4466720000D+02 Coefficients=  1.0000000000D+00
 S 1 1.00
     Exponent=  7.0043870000D+01 Coefficients=  1.0000000000D+00
 S 1 1.00
     Exponent=  3.4322500000D+01 Coefficients=  1.0000000000D+00
 S 1 1.00
     Exponent=  1.5612240000D+01 Coefficients=  1.0000000000D+00
 S 1 1.00
     Exponent=  7.7437220000D+00 Coefficients=  1.0000000000D+00
 S 1 1.00
     Exponent=  3.8442600000D+00 Coefficients=  1.0000000000D+00
 S 1 1.00
     Exponent=  1.7197660000D+00 Coefficients=  1.0000000000D+00
 S 1 1.00
     Exponent=  8.3252300000D-01 Coefficients=  1.0000000000D+00
 S 1 1.00
     Exponent=  3.8556400000D-01 Coefficients=  1.0000000000D+00
 S 1 1.00
     Exponent=  9.6700000000D-02 Coefficients=  1.0000000000D+00
 S 1 1.00
     Exponent=  4.7778000000D-02 Coefficients=  1.0000000000D+00
 S 1 1.00
     Exponent=  2.2363000000D-02 Coefficients=  1.0000000000D+00
 S 1 1.00
     Exponent=  3.1672000000D+00 Coefficients=  1.0000000000D+00
 S 1 1.00
     Exponent=  1.6879000000D+00 Coefficients=  1.0000000000D+00
 S 1 1.00
     Exponent=  1.0470000000D-02 Coefficients=  1.0000000000D+00
 P 1 1.00
     Exponent=  2.2640970000D+04 Coefficients=  1.0000000000D+00
 P 1 1.00
     Exponent=  5.3575450000D+03 Coefficients=  1.0000000000D+00
 P 1 1.00
     Exponent=  1.7403730000D+03 Coefficients=  1.0000000000D+00
 P 1 1.00
     Exponent=  6.6661630000D+02 Coefficients=  1.0000000000D+00
 P 1 1.00
     Exponent=  2.8363840000D+02 Coefficients=  1.0000000000D+00
 P 1 1.00
     Exponent=  1.2979760000D+02 Coefficients=  1.0000000000D+00
 P 1 1.00
     Exponent=  6.2679560000D+01 Coefficients=  1.0000000000D+00
 P 1 1.00
     Exponent=  3.1504410000D+01 Coefficients=  1.0000000000D+00
 P 1 1.00
     Exponent=  1.6235250000D+01 Coefficients=  1.0000000000D+00
 P 1 1.00
     Exponent=  8.5183240000D+00 Coefficients=  1.0000000000D+00
 P 1 1.00
     Exponent=  4.5190050000D+00 Coefficients=  1.0000000000D+00
 P 1 1.00
     Exponent=  2.3665910000D+00 Coefficients=  1.0000000000D+00
 P 1 1.00
     Exponent=  1.2152350000D+00 Coefficients=  1.0000000000D+00
 P 1 1.00
     Exponent=  6.1434800000D-01 Coefficients=  1.0000000000D+00
 P 1 1.00
     Exponent=  3.0074500000D-01 Coefficients=  1.0000000000D+00
 P 1 1.00
     Exponent=  1.2583400000D-01 Coefficients=  1.0000000000D+00
 P 1 1.00
     Exponent=  5.4719000000D-02 Coefficients=  1.0000000000D+00
 P 1 1.00
     Exponent=  2.3488000000D-02 Coefficients=  1.0000000000D+00
 P 1 1.00
     Exponent=  4.0719000000D+00 Coefficients=  1.0000000000D+00
 P 1 1.00
     Exponent=  9.9940000000D-01 Coefficients=  1.0000000000D+00
 P 1 1.00
     Exponent=  1.0080000000D-02 Coefficients=  1.0000000000D+00
 D 1 1.00
     Exponent=  1.4802800000D+02 Coefficients=  1.0000000000D+00
 D 1 1.00
     Exponent=  4.3852800000D+01 Coefficients=  1.0000000000D+00
 D 1 1.00
     Exponent=  1.6664600000D+01 Coefficients=  1.0000000000D+00
 D 1 1.00
     Exponent=  6.9789300000D+00 Coefficients=  1.0000000000D+00
 D 1 1.00
     Exponent=  3.1236900000D+00 Coefficients=  1.0000000000D+00
 D 1 1.00
     Exponent=  1.4468700000D+00 Coefficients=  1.0000000000D+00
 D 1 1.00
     Exponent=  6.6740700000D-01 Coefficients=  1.0000000000D+00
 D 1 1.00
     Exponent=  3.0163300000D-01 Coefficients=  1.0000000000D+00
 D 1 1.00
     Exponent=  1.3267400000D-01 Coefficients=  1.0000000000D+00
 D 1 1.00
     Exponent=  5.6739000000D-02 Coefficients=  1.0000000000D+00
 D 1 1.00
     Exponent=  2.3175000000D-02 Coefficients=  1.0000000000D+00
 D 1 1.00
     Exponent=  2.1282000000D+00 Coefficients=  1.0000000000D+00
 D 1 1.00
     Exponent=  9.6910000000D-01 Coefficients=  1.0000000000D+00
 D 1 1.00
     Exponent=  9.4700000000D-03 Coefficients=  1.0000000000D+00
 F 1 1.00
     Exponent=  2.7590000000D+00 Coefficients=  1.0000000000D+00
 F 1 1.00
     Exponent=  1.0490000000D+00 Coefficients=  1.0000000000D+00
 F 1 1.00
     Exponent=  3.9890000000D-01 Coefficients=  1.0000000000D+00
 F 1 1.00
     Exponent=  1.1060000000D-01 Coefficients=  1.0000000000D+00
 F 1 1.00
     Exponent=  3.0670000000D-02 Coefficients=  1.0000000000D+00
 G 1 1.00
     Exponent=  2.4852000000D+00 Coefficients=  1.0000000000D+00
 G 1 1.00
     Exponent=  9.0670000000D-01 Coefficients=  1.0000000000D+00
 G 1 1.00
     Exponent=  2.5300000000D-01 Coefficients=  1.0000000000D+00
 G 1 1.00
     Exponent=  7.0600000000D-02 Coefficients=  1.0000000000D+00
 H 1 1.00
     Exponent=  2.0405000000D+00 Coefficients=  1.0000000000D+00
 H 1 1.00
     Exponent=  4.9340000000D-01 Coefficients=  1.0000000000D+00
 H 1 1.00
     Exponent=  1.1931000000D-01 Coefficients=  1.0000000000D+00
 ****
 Centers:       2
 S 1 1.00
     Exponent=  6.1420000000D+04 Coefficients=  1.0000000000D+00
 S 1 1.00
     Exponent=  9.1990000000D+03 Coefficients=  1.0000000000D+00
 S 1 1.00
     Exponent=  2.0910000000D+03 Coefficients=  1.0000000000D+00
 S 1 1.00
     Exponent=  5.9090000000D+02 Coefficients=  1.0000000000D+00
 S 1 1.00
     Exponent=  1.9230000000D+02 Coefficients=  1.0000000000D+00
 S 1 1.00
     Exponent=  6.9320000000D+01 Coefficients=  1.0000000000D+00
 S 1 1.00
     Exponent=  2.6970000000D+01 Coefficients=  1.0000000000D+00
 S 1 1.00
     Exponent=  1.1100000000D+01 Coefficients=  1.0000000000D+00
 S 1 1.00
     Exponent=  4.6820000000D+00 Coefficients=  1.0000000000D+00
 S 1 1.00
     Exponent=  1.4280000000D+00 Coefficients=  1.0000000000D+00
 S 1 1.00
     Exponent=  5.5470000000D-01 Coefficients=  1.0000000000D+00
 S 1 1.00
     Exponent=  2.0670000000D-01 Coefficients=  1.0000000000D+00
 S 1 1.00
     Exponent=  1.2974000000D+01 Coefficients=  1.0000000000D+00
 S 1 1.00
     Exponent=  3.4900000000D+01 Coefficients=  1.0000000000D+00
 S 1 1.00
     Exponent=  9.3881000000D+01 Coefficients=  1.0000000000D+00
 S 1 1.00
     Exponent=  6.9590000000D-02 Coefficients=  1.0000000000D+00
 P 1 1.00
     Exponent=  6.3420000000D+01 Coefficients=  1.0000000000D+00
 P 1 1.00
     Exponent=  1.4660000000D+01 Coefficients=  1.0000000000D+00
 P 1 1.00
     Exponent=  4.4590000000D+00 Coefficients=  1.0000000000D+00
 P 1 1.00
     Exponent=  1.5310000000D+00 Coefficients=  1.0000000000D+00
 P 1 1.00
     Exponent=  5.3020000000D-01 Coefficients=  1.0000000000D+00
 P 1 1.00
     Exponent=  1.7500000000D-01 Coefficients=  1.0000000000D+00
 P 1 1.00
     Exponent=  1.4475000000D+01 Coefficients=  1.0000000000D+00
 P 1 1.00
     Exponent=  4.2730000000D+01 Coefficients=  1.0000000000D+00
 P 1 1.00
     Exponent=  1.2614000000D+02 Coefficients=  1.0000000000D+00
 P 1 1.00
     Exponent=  5.3480000000D-02 Coefficients=  1.0000000000D+00
 D 1 1.00
     Exponent=  3.7750000000D+00 Coefficients=  1.0000000000D+00
 D 1 1.00
     Exponent=  1.3000000000D+00 Coefficients=  1.0000000000D+00
 D 1 1.00
     Exponent=  4.4400000000D-01 Coefficients=  1.0000000000D+00
 D 1 1.00
     Exponent=  1.4927000000D+01 Coefficients=  1.0000000000D+00
 D 1 1.00
     Exponent=  5.7544000000D+01 Coefficients=  1.0000000000D+00
 D 1 1.00
     Exponent=  1.5400000000D-01 Coefficients=  1.0000000000D+00
 F 1 1.00
     Exponent=  2.6660000000D+00 Coefficients=  1.0000000000D+00
 F 1 1.00
     Exponent=  8.5900000000D-01 Coefficients=  1.0000000000D+00
 F 1 1.00
     Exponent=  2.6483000000D+01 Coefficients=  1.0000000000D+00
 F 1 1.00
     Exponent=  3.2400000000D-01 Coefficients=  1.0000000000D+00
 G 1 1.00
     Exponent=  1.8460000000D+00 Coefficients=  1.0000000000D+00
 G 1 1.00
     Exponent=  7.1400000000D-01 Coefficients=  1.0000000000D+00
 ****
 ======================================================================================================
                                       Pseudopotential Parameters
 ======================================================================================================
  Center     Atomic      Valence      Angular      Power
  Number     Number     Electrons     Momentum     of R      Exponent        Coefficient   SO-Coeffient
 ======================================================================================================
    1         21           11
                                      D and up 
                                                     1       15.8725639       11.00000000    0.00000000
                                                     3       13.9714030      174.59820238    0.00000000
                                                     2       11.8167025      -83.71806372    0.00000000
                                                     2        3.9172569        0.53764844    0.00000000
                                      S - D
                                                     2       11.5419711      153.95651661    0.00000000
                                                     2        5.0177895       14.97838045    0.00000000
                                      P - D
                                                     2       11.7066014       97.24729765    0.00000000
                                                     2        4.6090177       10.91687812    0.00000000
    2          8            6
                                      P and up 
                                                     1       12.3099700        6.00000000    0.00000000
                                                     3       14.7696200       73.85984000    0.00000000
                                                     2       13.7141900      -47.87600000    0.00000000
                                      S - P
                                                     2       13.6551200       85.86406000    0.00000000
 ======================================================================================================
 Ernie: Thresh=  0.10000D-02 Tol=  0.10000D-05 Strict=F.
 There are   213 symmetry adapted cartesian basis functions of A1  symmetry.
 There are    56 symmetry adapted cartesian basis functions of A2  symmetry.
 There are   114 symmetry adapted cartesian basis functions of B1  symmetry.
 There are   114 symmetry adapted cartesian basis functions of B2  symmetry.
 There are   157 symmetry adapted basis functions of A1  symmetry.
 There are    47 symmetry adapted basis functions of A2  symmetry.
 There are    90 symmetry adapted basis functions of B1  symmetry.
 There are    90 symmetry adapted basis functions of B2  symmetry.
   384 basis functions,   497 primitive gaussians,   497 cartesian basis functions
     9 alpha electrons        8 beta electrons
       nuclear repulsion energy        24.9469256577 Hartrees.
 IExCor=    0 DFT=F Ex=HF Corr=None ExCW=0 ScaHFX=  1.000000
 ScaDFX=  1.000000  1.000000  1.000000  1.000000 ScalE2=  1.000000  1.000000
 IRadAn=      5 IRanWt=     -1 IRanGd=            0 ICorTp=0 IEmpDi=  4
 NAtoms=    2 NActive=    2 NUniq=    2 SFac= 1.00D+00 NAtFMM=   60 NAOKFM=F Big=F
 Integral buffers will be    131072 words long.
 Raffenetti 2 integral format.
 Two-electron integral symmetry is turned on.
 Leave Link  301 at Wed Mar 14 05:30:33 2018, MaxMem= 10737418240 cpu:               4.6 elap:               0.3
 (Enter /home1/apps/gaussian/16rA.03/g16/l302.exe)
 NPDir=0 NMtPBC=     1 NCelOv=     1 NCel=       1 NClECP=     1 NCelD=      1
         NCelK=      1 NCelE2=     1 NClLst=     1 CellRange=     0.0.
 One-electron integrals computed using PRISM.
 One-electron integral symmetry used in STVInt
   4 Symmetry operations used in ECPInt.
 ECPInt:  NShTT=    6105 NPrTT=    6105 LenC2=    5654 LenP2D=    5653.
 LDataN:  DoStor=T MaxTD1=10 Len=  848
 NBasis=   384 RedAO= T EigKep=  1.18D-06  NBF=   157    47    90    90
 NBsUse=   383 1.00D-06 EigRej=  7.44D-09 NBFU=   156    47    90    90
 Leave Link  302 at Wed Mar 14 05:30:35 2018, MaxMem= 10737418240 cpu:              40.4 elap:               2.6
 (Enter /home1/apps/gaussian/16rA.03/g16/l303.exe)
 DipDrv:  MaxL=1.
 Leave Link  303 at Wed Mar 14 05:30:36 2018, MaxMem= 10737418240 cpu:               1.9 elap:               0.2
 (Enter /home1/apps/gaussian/16rA.03/g16/l401.exe)
 Initial guess from the checkpoint file:  "ScO.chk"
 B after Tr=     0.000000    0.000000    0.000000
         Rot=    1.000000    0.000000    0.000000    0.000000 Ang=   0.00 deg.
 Guess basis will be translated and rotated to current coordinates.
 JPrj=2 DoOrth=T DoCkMO=T.
 Initial guess orbital symmetries:
       Occupied  (SG) (SG) (PI) (PI) (SG) (PI) (PI) (SG) (SG)
       Virtual   (PI) (PI) (SG) (SG) (DLTA) (DLTA) (PI) (PI) (SG)
                 (PI) (PI) (SG) (DLTA) (DLTA) (SG) (PI) (PI) (SG)
                 (PI) (PI) (SG) (PHI) (PHI) (DLTA) (DLTA) (PI)
                 (PI) (SG) (DLTA) (DLTA) (SG) (PI) (PI) (PI) (PI)
                 (SG) (SG) (SG) (DLTA) (DLTA) (PI) (PI) (?A) (?A)
                 (PHI) (PHI) (DLTA) (DLTA) (PI) (PI) (SG) (SG)
                 (PI) (PI) (DLTA) (DLTA) (PHI) (PHI) (SG) (PI)
                 (PI) (SG) (PI) (PI) (DLTA) (DLTA) (SG) (SG) (DLTA)
                 (DLTA) (PI) (PI) (SG) (SG) (PI) (PI) (PI) (PI)
                 (SG) (PHI) (PHI) (DLTA) (DLTA) (?A) (?A) (PI)
                 (PI) (SG) (DLTA) (DLTA) (PHI) (PHI) (PI) (PI)
                 (SG) (PHI) (PHI) (DLTA) (DLTA) (SG) (PI) (PI)
                 (DLTA) (DLTA) (SG) (DLTA) (DLTA) (PI) (PI) (SG)
                 (PI) (PI) (SG) (PI) (PI) (SG) (SG) (PI) (PI) (SG)
                 (DLTA) (DLTA) (PI) (PI) (SG) (SG) (PHI) (PHI)
                 (DLTA) (DLTA) (PI) (PI) (PHI) (PHI) (DLTA) (DLTA)
                 (PI) (PI) (DLTA) (DLTA) (SG) (PI) (PI) (?A) (?A)
                 (PHI) (PHI) (DLTA) (DLTA) (SG) (SG) (PI) (PI)
                 (PI) (PI) (SG) (SG) (SG) (DLTA) (DLTA) (PI) (PI)
                 (PI) (PI) (SG) (SG) (SG) (PI) (PI) (SG) (SG) (DLTA)
                 (DLTA) (PI) (PI) (SG) (PI) (PI) (SG) (SG) (DLTA)
                 (DLTA) (PI) (PI) (SG) (PI) (PI) (SG) (SG) (DLTA)
                 (DLTA) (PI) (PI) (SG) (SG) (PI) (PI) (SG) (PI)
                 (PI) (SG) (SG) (SG) (PI) (PI) (SG) (SG) (DLTA)
                 (DLTA) (PI) (PI) (SG) (SG) (PI) (PI) (SG) (PI)
                 (PI) (SG) (SG) (SG) (PI) (PI) (SG) (SG) (PI) (PI)
                 (SG) (SG) (SG) (PI) (PI) (SG) (SG) (SG) (PI) (PI)
                 (SG) (SG) (SG) (SG) (PI) (PI) (SG) (SG) (SG) (SG)
                 (SG) (SG) (DLTA) (SG) (SG) (DLTA) (SG) (SG) (SG)
                 (SG) (SG) (DLTA) (DLTA) (SG) (SG) (SG) (DLTA)
                 (SG) (SG) (DLTA) (SG) (SG) (DLTA) (?A) (SG) (DLTA)
                 (?A) (DLTA) (SG) (DLTA) (SG) (SG) (DLTA) (SG)
                 (?A) (SG) (DLTA) (?A) (SG) (DLTA) (SG) (DLTA)
                 (SG) (?A) (?A) (DLTA) (DLTA) (DLTA) (DLTA) (DLTA)
                 (DLTA) (DLTA) (?A) (DLTA) (?A) (DLTA) (DLTA) (DLTA)
                 (?A) (DLTA) (?A) (DLTA) (DLTA) (?A) (?A) (PI)
                 (PI) (PI) (PI) (PI) (PI) (PHI) (PI) (PI) (PI)
                 (PI) (PHI) (PI) (PI) (PHI) (PI) (PI) (PHI) (PI)
                 (PHI) (PI) (PI) (?B) (PHI) (PHI) (PI) (PHI) (PI)
                 (?B) (PHI) (?B) (PI) (PI) (PI) (PI) (PI) (PI)
                 (PHI) (PI) (PI) (PI) (PI) (PHI) (PI) (PI) (PHI)
                 (PI) (PI) (PHI) (PI) (PHI) (PI) (PI) (?B) (PHI)
                 (PHI) (PI) (PHI) (PI) (?B) (PHI) (?B)
 The electronic state of the initial guess is 2-SG.
 Leave Link  401 at Wed Mar 14 05:30:36 2018, MaxMem= 10737418240 cpu:              12.3 elap:               0.9
 (Enter /home1/apps/gaussian/16rA.03/g16/l502.exe)
 Keep R1 and R2 ints in memory in symmetry-blocked form, NReq=3425113631.
 FoFCou: FMM=F IPFlag=           8 FMFlag=           0 FMFlg1=           0
         NFxFlg=           0 DoJE=F BraDBF=F KetDBF=F FulRan=T
         wScrn=  0.000000 ICntrl=       600 IOpCl=  0 I1Cent=           0 NGrid=           0
         NMat0=    1 NMatS0=  73920 NMatT0=    0 NMatD0=    1 NMtDS0=    0 NMtDT0=    0
 Petite list used in FoFCou.
 Restricted open shell SCF:
 Using DIIS extrapolation, IDIIS=  1040.
 NGot= 10737418240 LenX=  9351093905 LenY=  9350846399
 Requested convergence on RMS density matrix=1.00D-08 within 300 cycles.
 Requested convergence on MAX density matrix=1.00D-06.
 Requested convergence on             energy=1.00D-06.
 No special actions if energy rises.

 Cycle   1  Pass 1  IDiag  1:
 E= -61.8848843602844    
 DIIS: error= 3.94D-01 at cycle   1 NSaved=   1.
 NSaved= 1 IEnMin= 1 EnMin= -61.8848843602844     IErMin= 1 ErrMin= 3.94D-01
 ErrMax= 3.94D-01  0.00D+00 EMaxC= 1.00D-01 BMatC= 4.46D+01 BMatP= 4.46D+01
 IDIUse=3 WtCom= 0.00D+00 WtEn= 1.00D+00
 Coeff-Com:  0.100D+01
 Coeff-En:   0.100D+01
 Coeff:      0.100D+01
 Gap=     0.075 Goal=   None    Shift=    0.000
 GapD=    0.075 DampG=0.500 DampE=0.125 DampFc=0.1250 IDamp=-1.
 Damping current iteration by 1.25D-01
 RMSDP=3.44D-03 MaxDP=1.85D-01              OVMax= 4.63D-03

 Cycle   2  Pass 1  IDiag  1:
 E= -61.8850599496964     Delta-E=       -0.000175589412 Rises=F Damp=T
 DIIS: error= 3.45D-01 at cycle   2 NSaved=   2.
 NSaved= 2 IEnMin= 2 EnMin= -61.8850599496964     IErMin= 2 ErrMin= 3.45D-01
 ErrMax= 3.45D-01  0.00D+00 EMaxC= 1.00D-01 BMatC= 3.42D+01 BMatP= 4.46D+01
 IDIUse=3 WtCom= 0.00D+00 WtEn= 1.00D+00
 Coeff-Com: -0.700D+01 0.800D+01
 Coeff-En:   0.000D+00 0.100D+01
 Coeff:      0.000D+00 0.100D+01
 Gap=     0.074 Goal=   None    Shift=    0.000
 RMSDP=3.02D-03 MaxDP=1.62D-01 DE=-1.76D-04 OVMax= 1.56D-03

 Cycle   3  Pass 1  IDiag  1:
 E= -61.8863346277180     Delta-E=       -0.001274678022 Rises=F Damp=F
 DIIS: error= 1.67D-04 at cycle   3 NSaved=   3.
 NSaved= 3 IEnMin= 3 EnMin= -61.8863346277180     IErMin= 3 ErrMin= 1.67D-04
 ErrMax= 1.67D-04  0.00D+00 EMaxC= 1.00D-01 BMatC= 9.92D-06 BMatP= 3.42D+01
 IDIUse=3 WtCom= 9.98D-01 WtEn= 1.67D-03
 Coeff-Com:  0.869D+00-0.994D+00 0.112D+01
 Coeff-En:   0.000D+00 0.000D+00 0.100D+01
 Coeff:      0.868D+00-0.992D+00 0.112D+01
 Gap=     0.074 Goal=   None    Shift=    0.000
 RMSDP=1.60D-04 MaxDP=2.95D-02 DE=-1.27D-03 OVMax= 3.35D-03

 Cycle   4  Pass 1  IDiag  1:
 E= -61.8863373631579     Delta-E=       -0.000002735440 Rises=F Damp=F
 DIIS: error= 7.02D-05 at cycle   4 NSaved=   4.
 NSaved= 4 IEnMin= 4 EnMin= -61.8863373631579     IErMin= 4 ErrMin= 7.02D-05
 ErrMax= 7.02D-05  0.00D+00 EMaxC= 1.00D-01 BMatC= 6.83D-07 BMatP= 9.92D-06
 IDIUse=1 WtCom= 1.00D+00 WtEn= 0.00D+00
 Coeff-Com:  0.118D+01-0.135D+01 0.226D+00 0.943D+00
 Coeff:      0.118D+01-0.135D+01 0.226D+00 0.943D+00
 Gap=     0.074 Goal=   None    Shift=    0.000
 RMSDP=4.76D-05 MaxDP=1.22D-02 DE=-2.74D-06 OVMax= 2.04D-03

 Cycle   5  Pass 1  IDiag  1:
 E= -61.8863382836466     Delta-E=       -0.000000920489 Rises=F Damp=F
 DIIS: error= 6.15D-05 at cycle   5 NSaved=   5.
 NSaved= 5 IEnMin= 5 EnMin= -61.8863382836466     IErMin= 5 ErrMin= 6.15D-05
 ErrMax= 6.15D-05  0.00D+00 EMaxC= 1.00D-01 BMatC= 4.12D-07 BMatP= 6.83D-07
 IDIUse=1 WtCom= 1.00D+00 WtEn= 0.00D+00
 Coeff-Com:  0.105D+01-0.120D+01 0.137D+00 0.436D+00 0.577D+00
 Coeff:      0.105D+01-0.120D+01 0.137D+00 0.436D+00 0.577D+00
 Gap=     0.074 Goal=   None    Shift=    0.000
 RMSDP=7.74D-06 MaxDP=1.82D-03 DE=-9.20D-07 OVMax= 6.81D-04

 Cycle   6  Pass 1  IDiag  1:
 E= -61.8863384709739     Delta-E=       -0.000000187327 Rises=F Damp=F
 DIIS: error= 2.59D-05 at cycle   6 NSaved=   6.
 NSaved= 6 IEnMin= 6 EnMin= -61.8863384709739     IErMin= 6 ErrMin= 2.59D-05
 ErrMax= 2.59D-05  0.00D+00 EMaxC= 1.00D-01 BMatC= 8.58D-08 BMatP= 4.12D-07
 IDIUse=1 WtCom= 1.00D+00 WtEn= 0.00D+00
 Coeff-Com:  0.869D+00-0.994D+00 0.135D+00 0.355D-01 0.104D+00 0.850D+00
 Coeff:      0.869D+00-0.994D+00 0.135D+00 0.355D-01 0.104D+00 0.850D+00
 Gap=     0.074 Goal=   None    Shift=    0.000
 RMSDP=6.66D-06 MaxDP=1.59D-03 DE=-1.87D-07 OVMax= 1.67D-04

 Cycle   7  Pass 1  IDiag  1:
 E= -61.8863385368838     Delta-E=       -0.000000065910 Rises=F Damp=F
 DIIS: error= 2.21D-05 at cycle   7 NSaved=   7.
 NSaved= 7 IEnMin= 7 EnMin= -61.8863385368838     IErMin= 7 ErrMin= 2.21D-05
 ErrMax= 2.21D-05  0.00D+00 EMaxC= 1.00D-01 BMatC= 6.21D-08 BMatP= 8.58D-08
 IDIUse=1 WtCom= 1.00D+00 WtEn= 0.00D+00
 Coeff-Com:  0.680D+00-0.777D+00 0.115D+00-0.750D-01-0.794D-01-0.463D-01
 Coeff-Com:  0.118D+01
 Coeff:      0.680D+00-0.777D+00 0.115D+00-0.750D-01-0.794D-01-0.463D-01
 Coeff:      0.118D+01
 Gap=     0.074 Goal=   None    Shift=    0.000
 RMSDP=7.66D-06 MaxDP=1.48D-03 DE=-6.59D-08 OVMax= 2.59D-04

 Cycle   8  Pass 1  IDiag  1:
 E= -61.8863386308972     Delta-E=       -0.000000094013 Rises=F Damp=F
 DIIS: error= 1.70D-05 at cycle   8 NSaved=   8.
 NSaved= 8 IEnMin= 8 EnMin= -61.8863386308972     IErMin= 8 ErrMin= 1.70D-05
 ErrMax= 1.70D-05  0.00D+00 EMaxC= 1.00D-01 BMatC= 3.59D-08 BMatP= 6.21D-08
 IDIUse=1 WtCom= 1.00D+00 WtEn= 0.00D+00
 Coeff-Com:  0.517D+00-0.591D+00 0.855D-01-0.182D-01-0.137D-01-0.190D+00
 Coeff-Com:  0.152D+00 0.106D+01
 Coeff:      0.517D+00-0.591D+00 0.855D-01-0.182D-01-0.137D-01-0.190D+00
 Coeff:      0.152D+00 0.106D+01
 Gap=     0.074 Goal=   None    Shift=    0.000
 RMSDP=7.78D-06 MaxDP=1.90D-03 DE=-9.40D-08 OVMax= 1.59D-04

 Cycle   9  Pass 1  IDiag  1:
 E= -61.8863386784277     Delta-E=       -0.000000047531 Rises=F Damp=F
 DIIS: error= 1.31D-05 at cycle   9 NSaved=   9.
 NSaved= 9 IEnMin= 9 EnMin= -61.8863386784277     IErMin= 9 ErrMin= 1.31D-05
 ErrMax= 1.31D-05  0.00D+00 EMaxC= 1.00D-01 BMatC= 2.13D-08 BMatP= 3.59D-08
 IDIUse=1 WtCom= 1.00D+00 WtEn= 0.00D+00
 Coeff-Com:  0.352D+00-0.403D+00 0.564D-01 0.853D-02 0.192D-01-0.345D-01
 Coeff-Com: -0.178D+00-0.237D+00 0.142D+01
 Coeff:      0.352D+00-0.403D+00 0.564D-01 0.853D-02 0.192D-01-0.345D-01
 Coeff:     -0.178D+00-0.237D+00 0.142D+01
 Gap=     0.074 Goal=   None    Shift=    0.000
 RMSDP=6.72D-06 MaxDP=1.38D-03 DE=-4.75D-08 OVMax= 1.90D-04

 Cycle  10  Pass 1  IDiag  1:
 E= -61.8863387187623     Delta-E=       -0.000000040335 Rises=F Damp=F
 DIIS: error= 8.77D-06 at cycle  10 NSaved=  10.
 NSaved=10 IEnMin=10 EnMin= -61.8863387187623     IErMin=10 ErrMin= 8.77D-06
 ErrMax= 8.77D-06  0.00D+00 EMaxC= 1.00D-01 BMatC= 9.63D-09 BMatP= 2.13D-08
 IDIUse=1 WtCom= 1.00D+00 WtEn= 0.00D+00
 Coeff-Com:  0.257D+00-0.294D+00 0.419D-01-0.510D-02 0.117D-03 0.191D-01
 Coeff-Com:  0.935D-01-0.534D+00 0.424D+00 0.997D+00
 Coeff:      0.257D+00-0.294D+00 0.419D-01-0.510D-02 0.117D-03 0.191D-01
 Coeff:      0.935D-01-0.534D+00 0.424D+00 0.997D+00
 Gap=     0.074 Goal=   None    Shift=    0.000
 RMSDP=4.29D-06 MaxDP=9.99D-04 DE=-4.03D-08 OVMax= 1.01D-04

 Cycle  11  Pass 1  IDiag  1:
 E= -61.8863387338322     Delta-E=       -0.000000015070 Rises=F Damp=F
 DIIS: error= 6.46D-06 at cycle  11 NSaved=  11.
 NSaved=11 IEnMin=11 EnMin= -61.8863387338322     IErMin=11 ErrMin= 6.46D-06
 ErrMax= 6.46D-06  0.00D+00 EMaxC= 1.00D-01 BMatC= 5.14D-09 BMatP= 9.63D-09
 IDIUse=1 WtCom= 1.00D+00 WtEn= 0.00D+00
 Coeff-Com:  0.190D+00-0.217D+00 0.311D-01-0.581D-02-0.286D-02 0.913D-02
 Coeff-Com:  0.101D+00-0.338D+00 0.180D+00 0.267D-01 0.103D+01
 Coeff:      0.190D+00-0.217D+00 0.311D-01-0.581D-02-0.286D-02 0.913D-02
 Coeff:      0.101D+00-0.338D+00 0.180D+00 0.267D-01 0.103D+01
 Gap=     0.074 Goal=   None    Shift=    0.000
 RMSDP=2.84D-06 MaxDP=6.20D-04 DE=-1.51D-08 OVMax= 7.07D-05

 Cycle  12  Pass 1  IDiag  1:
 E= -61.8863387416229     Delta-E=       -0.000000007791 Rises=F Damp=F
 DIIS: error= 4.74D-06 at cycle  12 NSaved=  12.
 NSaved=12 IEnMin=12 EnMin= -61.8863387416229     IErMin=12 ErrMin= 4.74D-06
 ErrMax= 4.74D-06  0.00D+00 EMaxC= 1.00D-01 BMatC= 2.81D-09 BMatP= 5.14D-09
 IDIUse=1 WtCom= 1.00D+00 WtEn= 0.00D+00
 Coeff-Com:  0.870D-01-0.994D-01 0.139D-01 0.310D-02 0.546D-02-0.305D-01
 Coeff-Com: -0.741D-01 0.159D+00 0.386D+00-0.114D+01-0.596D+00 0.228D+01
 Coeff:      0.870D-01-0.994D-01 0.139D-01 0.310D-02 0.546D-02-0.305D-01
 Coeff:     -0.741D-01 0.159D+00 0.386D+00-0.114D+01-0.596D+00 0.228D+01
 Gap=     0.074 Goal=   None    Shift=    0.000
 RMSDP=4.64D-06 MaxDP=1.07D-03 DE=-7.79D-09 OVMax= 1.10D-04

 Cycle  13  Pass 1  IDiag  1:
 E= -61.8863387491318     Delta-E=       -0.000000007509 Rises=F Damp=F
 DIIS: error= 2.18D-06 at cycle  13 NSaved=  13.
 NSaved=13 IEnMin=13 EnMin= -61.8863387491318     IErMin=13 ErrMin= 2.18D-06
 ErrMax= 2.18D-06  0.00D+00 EMaxC= 1.00D-01 BMatC= 5.83D-10 BMatP= 2.81D-09
 IDIUse=1 WtCom= 1.00D+00 WtEn= 0.00D+00
 Coeff-Com:  0.785D-02-0.897D-02 0.120D-02 0.114D-02 0.171D-02-0.198D-02
 Coeff-Com: -0.213D-01 0.687D-03 0.800D-01 0.211D-01-0.760D+00 0.262D+00
 Coeff-Com:  0.142D+01
 Coeff:      0.785D-02-0.897D-02 0.120D-02 0.114D-02 0.171D-02-0.198D-02
 Coeff:     -0.213D-01 0.687D-03 0.800D-01 0.211D-01-0.760D+00 0.262D+00
 Coeff:      0.142D+01
 Gap=     0.074 Goal=   None    Shift=    0.000
 RMSDP=3.41D-06 MaxDP=7.58D-04 DE=-7.51D-09 OVMax= 8.32D-05

 Cycle  14  Pass 1  IDiag  1:
 E= -61.8863387510660     Delta-E=       -0.000000001934 Rises=F Damp=F
 DIIS: error= 1.94D-07 at cycle  14 NSaved=  14.
 NSaved=14 IEnMin=14 EnMin= -61.8863387510660     IErMin=14 ErrMin= 1.94D-07
 ErrMax= 1.94D-07  0.00D+00 EMaxC= 1.00D-01 BMatC= 4.83D-12 BMatP= 5.83D-10
 IDIUse=1 WtCom= 1.00D+00 WtEn= 0.00D+00
 Coeff-Com:  0.123D-02-0.141D-02 0.197D-03-0.182D-05 0.935D-04 0.189D-02
 Coeff-Com:  0.685D-03-0.204D-01 0.433D-02 0.123D+00-0.154D+00-0.126D+00
 Coeff-Com:  0.274D+00 0.897D+00
 Coeff:      0.123D-02-0.141D-02 0.197D-03-0.182D-05 0.935D-04 0.189D-02
 Coeff:      0.685D-03-0.204D-01 0.433D-02 0.123D+00-0.154D+00-0.126D+00
 Coeff:      0.274D+00 0.897D+00
 Gap=     0.074 Goal=   None    Shift=    0.000
 RMSDP=2.94D-07 MaxDP=6.92D-05 DE=-1.93D-09 OVMax= 7.11D-06

 Cycle  15  Pass 1  IDiag  1:
 E= -61.8863387510818     Delta-E=       -0.000000000016 Rises=F Damp=F
 DIIS: error= 3.36D-08 at cycle  15 NSaved=  15.
 NSaved=15 IEnMin=15 EnMin= -61.8863387510818     IErMin=15 ErrMin= 3.36D-08
 ErrMax= 3.36D-08  0.00D+00 EMaxC= 1.00D-01 BMatC= 1.20D-13 BMatP= 4.83D-12
 IDIUse=1 WtCom= 1.00D+00 WtEn= 0.00D+00
 Coeff-Com:  0.330D-03-0.377D-03 0.619D-04-0.137D-03-0.182D-03 0.428D-03
 Coeff-Com:  0.224D-02-0.292D-02-0.600D-02 0.137D-01 0.734D-01-0.453D-01
 Coeff-Com: -0.165D+00 0.198D+00 0.932D+00
 Coeff:      0.330D-03-0.377D-03 0.619D-04-0.137D-03-0.182D-03 0.428D-03
 Coeff:      0.224D-02-0.292D-02-0.600D-02 0.137D-01 0.734D-01-0.453D-01
 Coeff:     -0.165D+00 0.198D+00 0.932D+00
 Gap=     0.074 Goal=   None    Shift=    0.000
 RMSDP=3.88D-08 MaxDP=7.57D-06 DE=-1.58D-11 OVMax= 1.01D-06

 Cycle  16  Pass 1  IDiag  1:
 E= -61.8863387510821     Delta-E=       -0.000000000000 Rises=F Damp=F
 DIIS: error= 8.32D-09 at cycle  16 NSaved=  16.
 NSaved=16 IEnMin=16 EnMin= -61.8863387510821     IErMin=16 ErrMin= 8.32D-09
 ErrMax= 8.32D-09  0.00D+00 EMaxC= 1.00D-01 BMatC= 8.56D-15 BMatP= 1.20D-13
 IDIUse=1 WtCom= 1.00D+00 WtEn= 0.00D+00
 Large coefficients: NSaved= 16 BigCof=    0.00 CofMax=   10.00 Det=-1.06D-15
 Inversion failed.  Reducing to 15 matrices.
 Coeff-Com:  0.621D-11 0.443D-06-0.111D-05-0.164D-04-0.172D-03-0.324D-04
 Coeff-Com:  0.198D-02-0.301D-03-0.124D-01 0.159D-01 0.130D-01-0.325D-01
 Coeff-Com: -0.878D-01 0.824D-02 0.109D+01
 Coeff:      0.621D-11 0.443D-06-0.111D-05-0.164D-04-0.172D-03-0.324D-04
 Coeff:      0.198D-02-0.301D-03-0.124D-01 0.159D-01 0.130D-01-0.325D-01
 Coeff:     -0.878D-01 0.824D-02 0.109D+01
 Gap=     0.074 Goal=   None    Shift=    0.000
 RMSDP=1.46D-08 MaxDP=3.44D-06 DE=-3.13D-13 OVMax= 3.48D-07

 Cycle  17  Pass 1  IDiag  1:
 E= -61.8863387510823     Delta-E=       -0.000000000000 Rises=F Damp=F
 DIIS: error= 1.92D-10 at cycle  17 NSaved=  16.
 NSaved=16 IEnMin=16 EnMin= -61.8863387510823     IErMin=16 ErrMin= 1.92D-10
 ErrMax= 1.92D-10  0.00D+00 EMaxC= 1.00D-01 BMatC= 9.50D-18 BMatP= 8.56D-15
 IDIUse=1 WtCom= 1.00D+00 WtEn= 0.00D+00
 Large coefficients: NSaved= 16 BigCof=    0.00 CofMax=   10.00 Det=-4.57D-17
 Inversion failed.  Reducing to 15 matrices.
 Coeff-Com: -0.516D-06 0.863D-05 0.109D-04-0.221D-04-0.166D-03 0.199D-03
 Coeff-Com:  0.391D-03-0.661D-03-0.451D-02 0.258D-02 0.100D-01-0.107D-01
 Coeff-Com: -0.556D-01-0.251D-01 0.108D+01
 Coeff:     -0.516D-06 0.863D-05 0.109D-04-0.221D-04-0.166D-03 0.199D-03
 Coeff:      0.391D-03-0.661D-03-0.451D-02 0.258D-02 0.100D-01-0.107D-01
 Coeff:     -0.556D-01-0.251D-01 0.108D+01
 Gap=     0.074 Goal=   None    Shift=    0.000
 RMSDP=4.78D-10 MaxDP=1.53D-07 DE=-1.71D-13 OVMax= 1.01D-08

 SCF Done:  E(ROHF) =  -61.8863387511     A.U. after   17 cycles
            NFock= 17  Conv=0.48D-09     -V/T= 2.9378
 <Sx>= 0.0000 <Sy>= 0.0000 <Sz>= 0.5000 <S**2>= 0.7500 S= 0.5000
 <L.S>=  0.00000000000    
 KE= 3.193680654456D+01 PE=-1.854118391031D+02 EE= 6.664176814980D+01
 Annihilation of the first spin contaminant:
 S**2 before annihilation     0.7500,   after     0.7500
 Leave Link  502 at Wed Mar 14 05:32:47 2018, MaxMem= 10737418240 cpu:            1848.5 elap:             130.6
 (Enter /home1/apps/gaussian/16rA.03/g16/l801.exe)
 Windowed orbitals will be sorted by symmetry type.
 GenMOA:  NOpAll=  4 NOp2=4 NOpUse=  4 JSym2X=1
 FoFJK:  IHMeth= 1 ICntrl=       0 DoSepK=F KAlg= 0 I1Cent=           0 FoldK=F
 IRaf=         0 NMat=       1 IRICut=       1 DoRegI=T DoRafI=F ISym2E= 1 IDoP0=0 IntGTp=1.
 FoFCou: FMM=F IPFlag=           8 FMFlag=      100000 FMFlg1=           0
         NFxFlg=           0 DoJE=F BraDBF=F KetDBF=F FulRan=T
         wScrn=  0.000000 ICntrl=         0 IOpCl=  1 I1Cent=           0 NGrid=           0
         NMat0=    1 NMatS0=      1 NMatT0=    0 NMatD0=    1 NMtDS0=    0 NMtDT0=    0
 Petite list used in FoFCou.
 <Sx>= 0.0000 <Sy>= 0.0000 <Sz>= 0.5000 <S**2>= 0.7500 S= 0.5000
 Range of M.O.s used for correlation:     1   383
 NBasis=   384 NAE=     9 NBE=     8 NFC=     0 NFV=     0
 NROrb=    383 NOA=     9 NOB=     8 NVA=   374 NVB=   375

 **** Warning!!: The largest alpha MO coefficient is  0.31625883D+03


 **** Warning!!: The largest beta MO coefficient is  0.31625024D+03

 Singles contribution to E2=   -0.1409104323D-03
 Leave Link  801 at Wed Mar 14 05:33:22 2018, MaxMem= 10737418240 cpu:             560.6 elap:              35.1
 (Enter /home1/apps/gaussian/16rA.03/g16/l804.exe)
 Open-shell transformation, MDV= 10737418240 ITran=4 ISComp=2.
 Unit  1 TFree=       4459698 TCopy=       3230129.
 Semi-Direct transformation.
 ModeAB=           4 MOrb=             9 LenV=   10733046573
 LASXX=     63702177 LTotXX=    63702177 LenRXX=   128059521
 LTotAB=    64357344 MaxLAS=   423753498 LenRXY=           0
 NonZer=   191761698 LenScr=   288771072 LnRSAI=   423753498
 LnScr1=   638123008 LExtra=    17918610 Total=   1496625709
 MaxDsk= 67108864000 SrtSym=           T ITran=            4
 DoSDTr:  NPSUse= 16
 JobTyp=1 Pass  1:  I=   1 to   9.
 (rs|ai) integrals will be sorted in core.
 Complete sort for first half transformation.
 First half transformation complete.
 Complete sort for second half transformation.
 Second half transformation complete.
 ModeAB=           4 MOrb=             8 LenV=   10733046573
 LASXX=     56573606 LTotXX=    56573606 LenRXX=   111007430
 LTotAB=    54433824 MaxLAS=   376669776 LenRXY=           0
 NonZer=   167581036 LenScr=   252357632 LnRSAI=   376669776
 LnScr1=   567221248 LExtra=   145978131 Total=   1453234217
 MaxDsk= 67108864000 SrtSym=           T ITran=            4
 DoSDTr:  NPSUse= 16
 JobTyp=2 Pass  1:  I=   1 to   8.
 (rs|ai) integrals will be sorted in core.
 Complete sort for first half transformation.
 First half transformation complete.
 Complete sort for second half transformation.
 Second half transformation complete.
 Spin components of T(2) and E(2):
     alpha-alpha T2 =       0.2669398539D-01 E2=     -0.9778808272D-01
     alpha-beta  T2 =       0.1141668856D+00 E2=     -0.5164305941D+00
     beta-beta   T2 =       0.2284094267D-01 E2=     -0.8943947629D-01
 ANorm=    0.1078807894D+01
 E2 =    -0.7037990636D+00 EUMP2 =    -0.62590137814648D+02
 (S**2,0)=  0.75000D+00           (S**2,1)=  0.75000D+00
 E(PUHF)=      -0.61886338751D+02        E(PMP2)=      -0.62590137815D+02
 Recovering and transforming amplitudes from chk file.
 B after Tr=     0.000000    0.000000    0.000000
         Rot=    1.000000    0.000000    0.000000    0.000000 Ang=   0.00 deg.
 Alpha occ  Sing. vals= 9.999996D-01 9.999986D-01 9.999986D-01 9.999977D-01 9.999970D-01 9.999953D-01 9.999704D-01 9.999666D-01 9.999666D-01
 Alpha occ  NOrbO=     9 NOrbN=     9 NSVal=     9 ThrEig=  0.900000.
 TrMax= 1.000000D+00 PrMax= 1.000000D+00 Trace(Pr)= 9.000000D+00
 B after Tr=     0.000000    0.000000    0.000000
         Rot=    1.000000    0.000000    0.000000    0.000000 Ang=   0.00 deg.
 Alpha virt Sing. vals= 1.000000D+00 1.000000D+00 1.000000D+00 1.000000D+00 1.000000D+00 1.000000D+00 1.000000D+00 1.000000D+00 1.000000D+00 1.000000D+00
 Alpha virt Sing. vals= 1.000000D+00 1.000000D+00 1.000000D+00 1.000000D+00 1.000000D+00 1.000000D+00 1.000000D+00 1.000000D+00 1.000000D+00 1.000000D+00
 Alpha virt Sing. vals= 1.000000D+00 1.000000D+00 1.000000D+00 1.000000D+00 1.000000D+00 1.000000D+00 1.000000D+00 1.000000D+00 1.000000D+00 1.000000D+00
 Alpha virt Sing. vals= 1.000000D+00 1.000000D+00 1.000000D+00 1.000000D+00 1.000000D+00 1.000000D+00 9.999999D-01 9.999999D-01 9.999999D-01 9.999999D-01
 Alpha virt Sing. vals= 9.999999D-01 9.999999D-01 9.999999D-01 9.999997D-01 9.999997D-01 9.999996D-01 9.999995D-01 9.999992D-01 9.999991D-01 9.999991D-01
 Alpha virt Sing. vals= 9.999991D-01 9.999990D-01 9.999990D-01 9.999990D-01 9.999987D-01 9.999978D-01 9.999976D-01 9.999976D-01 9.999973D-01 9.999965D-01
 Alpha virt Sing. vals= 9.999965D-01 9.999950D-01 9.999950D-01 9.999950D-01 9.999938D-01 9.999927D-01 9.999925D-01 9.999925D-01 9.999920D-01 9.999920D-01
 Alpha virt Sing. vals= 9.999908D-01 9.999906D-01 9.999906D-01 9.999894D-01 9.999893D-01 9.999893D-01 9.999870D-01 9.999862D-01 9.999862D-01 9.999856D-01
 Alpha virt Sing. vals= 9.999804D-01 9.999731D-01 9.999731D-01 9.999677D-01 9.999643D-01 9.999622D-01 9.999622D-01 9.999585D-01 9.999444D-01 9.999444D-01
 Alpha virt Sing. vals= 9.999409D-01 9.999280D-01 9.999221D-01 9.998895D-01 9.998895D-01 9.998861D-01 9.998861D-01 9.998428D-01 9.998361D-01 9.998361D-01
 Alpha virt Sing. vals= 9.998218D-01 9.997942D-01 9.997942D-01 9.997919D-01 9.997919D-01 9.997869D-01 9.997527D-01 9.997407D-01 9.997407D-01 9.997407D-01
 Alpha virt Sing. vals= 9.996615D-01 9.996615D-01 9.996064D-01 9.995820D-01 9.995542D-01 9.995542D-01 9.995310D-01 9.995307D-01 9.995307D-01 9.994320D-01
 Alpha virt Sing. vals= 9.993648D-01 9.993439D-01 9.993439D-01 9.992672D-01 9.992672D-01 9.992017D-01 9.992017D-01 9.991212D-01 9.991212D-01 9.990585D-01
 Alpha virt Sing. vals= 9.990585D-01 9.988967D-01 9.988967D-01 9.988778D-01 9.988145D-01 9.987761D-01 9.987761D-01 9.987658D-01 9.987658D-01 9.984151D-01
 Alpha virt Sing. vals= 9.983762D-01 9.983762D-01 9.983658D-01 9.983287D-01 9.983287D-01 9.981637D-01 9.981637D-01 9.980799D-01 9.980799D-01 9.979371D-01
 Alpha virt Sing. vals= 9.978052D-01 9.978052D-01 9.974976D-01 9.973141D-01 9.972335D-01 9.972335D-01 9.972143D-01 9.972143D-01 9.971643D-01 9.965029D-01
 Alpha virt Sing. vals= 9.963862D-01 9.951491D-01 9.951491D-01 9.950540D-01 9.950413D-01 9.950413D-01 9.947380D-01 9.947379D-01 9.947379D-01 9.946550D-01
 Alpha virt Sing. vals= 9.946550D-01 9.944441D-01 9.944441D-01 9.944271D-01 9.934973D-01 9.934973D-01 9.926667D-01 9.926667D-01 9.922570D-01 9.922570D-01
 Alpha virt Sing. vals= 9.910250D-01 9.910250D-01 9.907191D-01 9.903428D-01 9.903428D-01 9.883818D-01 9.867835D-01 9.867835D-01 9.864745D-01 9.864745D-01
 Alpha virt Sing. vals= 9.848593D-01 9.838535D-01 9.835106D-01 9.835106D-01 9.800773D-01 9.783354D-01 9.783354D-01 9.778240D-01 9.778240D-01 9.776276D-01
 Alpha virt Sing. vals= 9.776276D-01 9.771870D-01 9.771870D-01 9.770593D-01 9.770593D-01 9.767654D-01 9.767654D-01 9.759311D-01 9.755262D-01 9.755262D-01
 Alpha virt Sing. vals= 9.657756D-01 9.617100D-01 9.609763D-01 9.609763D-01 9.600147D-01 9.600147D-01 9.430294D-01 9.385439D-01 9.385439D-01 9.381672D-01
 Alpha virt Sing. vals= 9.381672D-01 9.364990D-01 9.364990D-01 9.351008D-01 9.350964D-01 9.350964D-01 9.326176D-01 9.204949D-01 9.204949D-01 9.183018D-01
 Alpha virt Sing. vals= 9.119175D-01 9.119175D-01 9.106397D-01 9.106397D-01 9.104401D-01 9.041669D-01 9.041669D-01 9.032568D-01 9.032568D-01 8.979037D-01
 Alpha virt Sing. vals= 8.931833D-01 8.931833D-01 8.924266D-01 8.924266D-01 8.853284D-01 8.853284D-01 8.631300D-01 5.498379D-01
 Alpha virt NOrbO=   248 NOrbN=   374 NSVal=   239 ThrEig=  0.900000.
 TrMax= 9.986743D-01 PrMax= 9.995553D-01 Trace(Pr)= 2.390000D+02
 B after Tr=     0.000000    0.000000    0.000000
         Rot=    1.000000    0.000000    0.000000    0.000000 Ang=   0.00 deg.
 Beta  occ  Sing. vals= 9.999996D-01 9.999986D-01 9.999986D-01 9.999975D-01 9.999954D-01 9.999705D-01 9.999666D-01 9.999666D-01
 Beta  occ  NOrbO=     8 NOrbN=     8 NSVal=     8 ThrEig=  0.900000.
 TrMax= 1.000000D+00 PrMax= 1.000000D+00 Trace(Pr)= 8.000000D+00
 B after Tr=     0.000000    0.000000    0.000000
         Rot=    1.000000    0.000000    0.000000    0.000000 Ang=   0.00 deg.
 Beta  virt Sing. vals= 1.000000D+00 1.000000D+00 1.000000D+00 1.000000D+00 1.000000D+00 1.000000D+00 1.000000D+00 1.000000D+00 1.000000D+00 1.000000D+00
 Beta  virt Sing. vals= 1.000000D+00 1.000000D+00 1.000000D+00 1.000000D+00 1.000000D+00 1.000000D+00 1.000000D+00 1.000000D+00 1.000000D+00 1.000000D+00
 Beta  virt Sing. vals= 1.000000D+00 1.000000D+00 1.000000D+00 1.000000D+00 1.000000D+00 1.000000D+00 1.000000D+00 1.000000D+00 1.000000D+00 1.000000D+00
 Beta  virt Sing. vals= 1.000000D+00 1.000000D+00 1.000000D+00 1.000000D+00 1.000000D+00 1.000000D+00 1.000000D+00 9.999999D-01 9.999999D-01 9.999999D-01
 Beta  virt Sing. vals= 9.999999D-01 9.999999D-01 9.999999D-01 9.999999D-01 9.999997D-01 9.999997D-01 9.999996D-01 9.999995D-01 9.999992D-01 9.999991D-01
 Beta  virt Sing. vals= 9.999991D-01 9.999991D-01 9.999990D-01 9.999990D-01 9.999990D-01 9.999987D-01 9.999978D-01 9.999976D-01 9.999976D-01 9.999973D-01
 Beta  virt Sing. vals= 9.999965D-01 9.999965D-01 9.999950D-01 9.999950D-01 9.999950D-01 9.999938D-01 9.999927D-01 9.999925D-01 9.999925D-01 9.999920D-01
 Beta  virt Sing. vals= 9.999920D-01 9.999908D-01 9.999906D-01 9.999906D-01 9.999894D-01 9.999893D-01 9.999893D-01 9.999870D-01 9.999862D-01 9.999862D-01
 Beta  virt Sing. vals= 9.999856D-01 9.999804D-01 9.999731D-01 9.999731D-01 9.999677D-01 9.999643D-01 9.999622D-01 9.999622D-01 9.999585D-01 9.999444D-01
 Beta  virt Sing. vals= 9.999444D-01 9.999409D-01 9.999280D-01 9.999221D-01 9.998895D-01 9.998895D-01 9.998861D-01 9.998861D-01 9.998426D-01 9.998361D-01
 Beta  virt Sing. vals= 9.998361D-01 9.998218D-01 9.997942D-01 9.997942D-01 9.997919D-01 9.997919D-01 9.997869D-01 9.997525D-01 9.997407D-01 9.997407D-01
 Beta  virt Sing. vals= 9.997407D-01 9.996615D-01 9.996615D-01 9.996064D-01 9.995820D-01 9.995542D-01 9.995542D-01 9.995310D-01 9.995307D-01 9.995307D-01
 Beta  virt Sing. vals= 9.994320D-01 9.993648D-01 9.993439D-01 9.993439D-01 9.992672D-01 9.992672D-01 9.992017D-01 9.992017D-01 9.991212D-01 9.991212D-01
 Beta  virt Sing. vals= 9.990585D-01 9.990585D-01 9.988967D-01 9.988967D-01 9.988778D-01 9.988145D-01 9.987761D-01 9.987761D-01 9.987658D-01 9.987658D-01
 Beta  virt Sing. vals= 9.984151D-01 9.983762D-01 9.983762D-01 9.983657D-01 9.983287D-01 9.983287D-01 9.981637D-01 9.981637D-01 9.980799D-01 9.980799D-01
 Beta  virt Sing. vals= 9.979371D-01 9.978052D-01 9.978052D-01 9.974976D-01 9.973141D-01 9.972335D-01 9.972335D-01 9.972143D-01 9.972143D-01 9.971642D-01
 Beta  virt Sing. vals= 9.965029D-01 9.963862D-01 9.951491D-01 9.951491D-01 9.950540D-01 9.950413D-01 9.950413D-01 9.947380D-01 9.947379D-01 9.947379D-01
 Beta  virt Sing. vals= 9.946550D-01 9.946550D-01 9.944441D-01 9.944441D-01 9.944271D-01 9.934973D-01 9.934973D-01 9.926667D-01 9.926667D-01 9.922570D-01
 Beta  virt Sing. vals= 9.922570D-01 9.910250D-01 9.910250D-01 9.907190D-01 9.903428D-01 9.903428D-01 9.883818D-01 9.867835D-01 9.867835D-01 9.864745D-01
 Beta  virt Sing. vals= 9.864745D-01 9.848592D-01 9.838534D-01 9.835106D-01 9.835106D-01 9.800773D-01 9.783354D-01 9.783354D-01 9.778240D-01 9.778240D-01
 Beta  virt Sing. vals= 9.776276D-01 9.776276D-01 9.771870D-01 9.771870D-01 9.770593D-01 9.770593D-01 9.767654D-01 9.767654D-01 9.759311D-01 9.755262D-01
 Beta  virt Sing. vals= 9.755262D-01 9.657753D-01 9.617100D-01 9.609763D-01 9.609763D-01 9.600147D-01 9.600147D-01 9.430294D-01 9.385439D-01 9.385439D-01
 Beta  virt Sing. vals= 9.381672D-01 9.381672D-01 9.364990D-01 9.364990D-01 9.351008D-01 9.350964D-01 9.350964D-01 9.326176D-01 9.204949D-01 9.204949D-01
 Beta  virt Sing. vals= 9.183019D-01 9.119175D-01 9.119175D-01 9.106397D-01 9.106397D-01 9.104400D-01 9.041669D-01 9.041669D-01 9.032568D-01 9.032568D-01
 Beta  virt Sing. vals= 8.979037D-01 8.931833D-01 8.931833D-01 8.924266D-01 8.924266D-01 8.853284D-01 8.853284D-01 8.631300D-01 5.498379D-01
 Beta  virt NOrbO=   249 NOrbN=   375 NSVal=   240 ThrEig=  0.900000.
 TrMax= 9.995630D-01 PrMax= 9.998784D-01 Trace(Pr)= 2.400000D+02
 Leave Link  804 at Wed Mar 14 05:46:04 2018, MaxMem= 10737418240 cpu:           12164.4 elap:             761.1
 (Enter /home1/apps/gaussian/16rA.03/g16/l913.exe)
 CIDS:  MDV= 10737418240.
 IFCWin=0 IBDFC=1 NFBD=     0     0 NFCmp=     0     0 NFFFC=     0     0
 Amplitudes recovered.
 Using DD4UQ or CC4UQ for all iterations.
 Keep R2 and R3 ints in memory in symmetry-blocked form, NReq=3425131966.
 FoFCou: FMM=F IPFlag=           8 FMFlag=           0 FMFlg1=           0
         NFxFlg=           0 DoJE=F BraDBF=F KetDBF=F FulRan=T
         wScrn=  0.000000 ICntrl=       600 IOpCl=  0 I1Cent=           0 NGrid=           0
         NMat0=    1 NMatS0=  73920 NMatT0=    0 NMatD0=    1 NMtDS0=    0 NMtDT0=    0
 Petite list used in FoFCou.
 CIDS: In Core Option IDoMem=           1.
 CCSD(T)
 =======
 Iterations= 150 Convergence= 0.100D-06
 Produce multiple copies of IABC intergrals
 Iteration Nr.   1
 **********************
 DD1Dir will call FoFMem   1 times, MxPair=       208
 NAB=    72 NAA=    36 NBB=    28.
 Maximum subspace dimension=  5
 A-vector RMS=  1.2049270D-04 Max=  1.0273274D-03 conv= 1.00D-05.
 RLE energy=       -0.6941241324
 DE(Corr)= -0.69399736     E(Corr)=     -62.580336116    
 NORM(A)=   0.10845475D+01
 Iteration Nr.   2
 **********************
 DD1Dir will call FoFMem   1 times, MxPair=       208
 NAB=    72 NAA=    36 NBB=    28.
 A-vector RMS=  5.4119041D-05 Max=  4.3514659D-04 conv= 1.00D-05.
 RLE energy=       -0.6941466406
 DE(Corr)= -0.69415105     E(CORR)=     -62.580489797     Delta=-1.54D-04
 NORM(A)=   0.10847031D+01
 Iteration Nr.   3
 **********************
 DD1Dir will call FoFMem   1 times, MxPair=       208
 NAB=    72 NAA=    36 NBB=    28.
 A-vector RMS=  2.3956325D-05 Max=  2.7984592D-04 conv= 1.00D-05.
 RLE energy=       -0.6944614887
 DE(Corr)= -0.69447451     E(CORR)=     -62.580813256     Delta=-3.23D-04
 NORM(A)=   0.10848028D+01
 Iteration Nr.   4
 **********************
 DD1Dir will call FoFMem   1 times, MxPair=       208
 NAB=    72 NAA=    36 NBB=    28.
 A-vector RMS=  1.6775829D-05 Max=  1.6731892D-04 conv= 1.00D-05.
 RLE energy=       -0.6944004038
 DE(Corr)= -0.69435933     E(CORR)=     -62.580698079     Delta= 1.15D-04
 NORM(A)=   0.10848473D+01
 Iteration Nr.   5
 **********************
 DD1Dir will call FoFMem   1 times, MxPair=       208
 NAB=    72 NAA=    36 NBB=    28.
 A-vector RMS=  5.6490975D-06 Max=  1.2716446D-04 conv= 1.00D-05.
 RLE energy=       -0.6944125172
 DE(Corr)= -0.69441821     E(CORR)=     -62.580756961     Delta=-5.89D-05
 NORM(A)=   0.10848834D+01
 Iteration Nr.   6
 **********************
 DD1Dir will call FoFMem   1 times, MxPair=       208
 NAB=    72 NAA=    36 NBB=    28.
 A-vector RMS=  2.7748139D-06 Max=  5.4352437D-05 conv= 1.00D-05.
 RLE energy=       -0.6944136621
 DE(Corr)= -0.69441185     E(CORR)=     -62.580750597     Delta= 6.36D-06
 NORM(A)=   0.10849034D+01
 Iteration Nr.   7
 **********************
 DD1Dir will call FoFMem   1 times, MxPair=       208
 NAB=    72 NAA=    36 NBB=    28.
 A-vector RMS=  1.0560448D-06 Max=  2.6108736D-05 conv= 1.00D-05.
 RLE energy=       -0.6944170749
 DE(Corr)= -0.69441671     E(CORR)=     -62.580755460     Delta=-4.86D-06
 NORM(A)=   0.10849104D+01
 Iteration Nr.   8
 **********************
 DD1Dir will call FoFMem   1 times, MxPair=       208
 NAB=    72 NAA=    36 NBB=    28.
 A-vector RMS=  4.2243193D-07 Max=  1.0218287D-05 conv= 1.00D-05.
 RLE energy=       -0.6944162296
 DE(Corr)= -0.69441624     E(CORR)=     -62.580754988     Delta= 4.73D-07
 NORM(A)=   0.10849130D+01
 Iteration Nr.   9
 **********************
 DD1Dir will call FoFMem   1 times, MxPair=       208
 NAB=    72 NAA=    36 NBB=    28.
 A-vector RMS=  1.8345636D-07 Max=  3.1562521D-06 conv= 1.00D-05.
 RLE energy=       -0.6944171347
 DE(Corr)= -0.69441711     E(CORR)=     -62.580755862     Delta=-8.75D-07
 NORM(A)=   0.10849141D+01
 Iteration Nr.  10
 **********************
 DD1Dir will call FoFMem   1 times, MxPair=       208
 NAB=    72 NAA=    36 NBB=    28.
 A-vector RMS=  7.9024427D-08 Max=  1.0932761D-06 conv= 1.00D-05.
 RLE energy=       -0.6944169991
 DE(Corr)= -0.69441695     E(CORR)=     -62.580755701     Delta= 1.61D-07
 NORM(A)=   0.10849144D+01
 Iteration Nr.  11
 **********************
 DD1Dir will call FoFMem   1 times, MxPair=       208
 NAB=    72 NAA=    36 NBB=    28.
 A-vector RMS=  3.9176630D-08 Max=  5.4325865D-07 conv= 1.00D-05.
 RLE energy=       -0.6944170442
 DE(Corr)= -0.69441705     E(CORR)=     -62.580755804     Delta=-1.03D-07
 NORM(A)=   0.10849145D+01
 Iteration Nr.  12
 **********************
 DD1Dir will call FoFMem   1 times, MxPair=       208
 NAB=    72 NAA=    36 NBB=    28.
 A-vector RMS=  1.6847423D-08 Max=  2.9248540D-07 conv= 1.00D-05.
 RLE energy=       -0.6944170694
 DE(Corr)= -0.69441706     E(CORR)=     -62.580755811     Delta=-6.79D-09
 NORM(A)=   0.10849146D+01
 CI/CC converged in   12 iterations to DelEn=-6.79D-09 Conv= 1.00D-07 ErrA1= 1.68D-08 Conv= 1.00D-05
 Wavefunction amplitudes converged. E(Corr)=     -62.580755811    
 Largest amplitude= 5.74D-02
 Time for triples=    43423.03 seconds.
 T4(CCSD)= -0.37955728D-01
 T5(CCSD)=  0.35386807D-02
 CCSD(T)= -0.62615172858D+02
 Discarding MO integrals.
 Leave Link  913 at Wed Mar 14 06:41:52 2018, MaxMem= 10737418240 cpu:           53535.6 elap:            3348.6
 (Enter /home1/apps/gaussian/16rA.03/g16/l601.exe)
 Copying SCF densities to generalized density rwf, IOpCl= 0 IROHF=1.

 **********************************************************************

            Population analysis using the SCF density.

 **********************************************************************

 Orbital symmetries:
       Occupied  (SG) (SG) (PI) (PI) (SG) (PI) (PI) (SG) (SG)
       Virtual   (PI) (PI) (SG) (SG) (DLTA) (DLTA) (PI) (PI) (SG)
                 (PI) (PI) (SG) (DLTA) (DLTA) (SG) (PI) (PI) (SG)
                 (PI) (PI) (SG) (PHI) (PHI) (DLTA) (DLTA) (PI)
                 (PI) (DLTA) (DLTA) (SG) (SG) (PI) (PI) (PI) (PI)
                 (SG) (DLTA) (DLTA) (SG) (PI) (PI) (SG) (DLTA)
                 (DLTA) (PI) (PI) (?A) (?A) (PHI) (PHI) (SG) (SG)
                 (DLTA) (DLTA) (PHI) (PHI) (PI) (PI) (PI) (PI)
                 (SG) (PI) (PI) (DLTA) (DLTA) (SG) (PHI) (PHI)
                 (DLTA) (DLTA) (?B) (?B) (SG) (PI) (PI) (?A) (?A)
                 (SG) (PI) (PI) (DLTA) (DLTA) (SG) (SG) (PI) (PI)
                 (PI) (PI) (SG) (DLTA) (DLTA) (PHI) (PHI) (?A)
                 (?A) (SG) (PI) (PI) (PHI) (PHI) (DLTA) (DLTA)
                 (SG) (PI) (PI) (DLTA) (DLTA) (PI) (PI) (SG) (SG)
                 (PHI) (PHI) (DLTA) (DLTA) (PI) (PI) (SG) (DLTA)
                 (DLTA) (SG) (PI) (PI) (SG) (PI) (PI) (SG) (?A)
                 (?A) (?B) (?B) (DLTA) (DLTA) (PI) (PI) (PHI) (PHI)
                 (DLTA) (DLTA) (PI) (PI) (SG) (SG) (PI) (PI) (DLTA)
                 (DLTA) (SG) (PHI) (PHI) (?A) (?A) (PI) (PI) (PHI)
                 (PHI) (SG) (?A) (?A) (SG) (DLTA) (DLTA) (PHI)
                 (PHI) (PI) (PI) (DLTA) (DLTA) (DLTA) (DLTA) (SG)
                 (PHI) (PHI) (PI) (PI) (SG) (SG) (PI) (PI) (DLTA)
                 (DLTA) (SG) (PI) (PI) (DLTA) (DLTA) (SG) (PI)
                 (PI) (PI) (PI) (SG) (SG) (PHI) (PHI) (SG) (PI)
                 (PI) (DLTA) (DLTA) (DLTA) (DLTA) (PI) (PI) (SG)
                 (PI) (PI) (PI) (PI) (SG) (?A) (?A) (DLTA) (DLTA)
                 (PHI) (PHI) (SG) (PI) (PI) (?B) (?B) (?A) (?A)
                 (PHI) (PHI) (SG) (DLTA) (DLTA) (?A) (?A) (PHI)
                 (PHI) (SG) (DLTA) (DLTA) (PHI) (PHI) (PI) (PI)
                 (PI) (PI) (DLTA) (DLTA) (SG) (PI) (PI) (DLTA)
                 (DLTA) (SG) (SG) (PI) (PI) (SG) (SG) (DLTA) (DLTA)
                 (PI) (PI) (SG) (PI) (PI) (SG) (PI) (PI) (SG) (SG)
                 (DLTA) (DLTA) (PI) (PI) (SG) (PI) (PI) (SG) (SG)
                 (DLTA) (DLTA) (PI) (PI) (SG) (SG) (PI) (PI) (SG)
                 (DLTA) (DLTA) (PI) (PI) (SG) (SG) (PI) (PI) (SG)
                 (PHI) (PHI) (DLTA) (DLTA) (PI) (PI) (SG) (PI)
                 (PI) (SG) (SG) (SG) (PI) (PI) (SG) (DLTA) (DLTA)
                 (PI) (PI) (SG) (PI) (PI) (SG) (SG) (DLTA) (DLTA)
                 (PI) (PI) (SG) (SG) (PI) (PI) (SG) (SG) (PI) (PI)
                 (SG) (SG) (DLTA) (DLTA) (PI) (PI) (SG) (SG) (SG)
                 (PI) (PI) (SG) (PI) (PI) (SG) (SG) (SG) (PI) (PI)
                 (SG) (SG) (SG) (PI) (PI) (SG) (SG) (SG) (PI) (PI)
                 (SG) (SG) (PI) (PI) (SG) (SG) (SG) (PI) (PI) (SG)
                 (SG) (SG) (SG) (SG) (SG) (SG)
 The electronic state is 2-SG.
 Alpha  occ. eigenvalues --   -2.58888  -1.71510  -1.54863  -1.54863  -1.09372
 Alpha  occ. eigenvalues --   -0.52513  -0.52513  -0.46173  -0.21019
 Alpha virt. eigenvalues --    0.00809   0.00809   0.02023   0.02043   0.02789
 Alpha virt. eigenvalues --    0.02789   0.02942   0.02942   0.02973   0.03931
 Alpha virt. eigenvalues --    0.03931   0.06227   0.07899   0.07899   0.08896
 Alpha virt. eigenvalues --    0.09130   0.09130   0.10464   0.11331   0.11331
 Alpha virt. eigenvalues --    0.11385   0.12650   0.12650   0.13000   0.13000
 Alpha virt. eigenvalues --    0.14013   0.14013   0.15042   0.15042   0.16031
 Alpha virt. eigenvalues --    0.20801   0.23434   0.23434   0.26460   0.26460
 Alpha virt. eigenvalues --    0.27571   0.28930   0.28930   0.32271   0.33178
 Alpha virt. eigenvalues --    0.33178   0.33541   0.33724   0.33724   0.33870
 Alpha virt. eigenvalues --    0.33870   0.35928   0.35928   0.36551   0.36551
 Alpha virt. eigenvalues --    0.41242   0.44140   0.44336   0.44336   0.45056
 Alpha virt. eigenvalues --    0.45056   0.46894   0.46894   0.57402   0.57631
 Alpha virt. eigenvalues --    0.57631   0.63660   0.63660   0.64150   0.64150
 Alpha virt. eigenvalues --    0.69703   0.72787   0.72787   0.72829   0.72829
 Alpha virt. eigenvalues --    0.73072   0.73072   0.73742   0.73742   0.73776
 Alpha virt. eigenvalues --    0.73944   0.73944   0.76785   0.78624   0.78624
 Alpha virt. eigenvalues --    0.78853   0.78853   0.87540   1.04301   1.19738
 Alpha virt. eigenvalues --    1.19738   1.21889   1.21889   1.21979   1.26053
 Alpha virt. eigenvalues --    1.26053   1.27554   1.27554   1.27636   1.27636
 Alpha virt. eigenvalues --    1.37450   1.40636   1.40636   1.41064   1.41064
 Alpha virt. eigenvalues --    1.43557   1.43557   1.50919   1.50968   1.50968
 Alpha virt. eigenvalues --    1.52642   1.52642   1.60321   1.60321   1.64889
 Alpha virt. eigenvalues --    1.77883   1.78971   1.78971   1.79298   1.79298
 Alpha virt. eigenvalues --    2.10232   2.10232   2.12406   2.27953   2.27953
 Alpha virt. eigenvalues --    2.31763   2.50952   2.50952   2.57934   2.83478
 Alpha virt. eigenvalues --    2.83478   2.92203   2.92899   2.92899   2.93392
 Alpha virt. eigenvalues --    2.93392   3.02933   3.02933   3.06527   3.06527
 Alpha virt. eigenvalues --    3.08421   3.08421   3.12001   3.12001   3.16538
 Alpha virt. eigenvalues --    3.16538   3.18094   3.39148   3.50805   3.50805
 Alpha virt. eigenvalues --    3.76421   3.76421   3.84752   3.85000   3.85000
 Alpha virt. eigenvalues --    3.85339   3.85339   3.91048   3.91048   3.92412
 Alpha virt. eigenvalues --    3.92412   4.16049   4.25081   4.25081   4.26388
 Alpha virt. eigenvalues --    4.31911   4.31911   4.33242   4.33242   4.34505
 Alpha virt. eigenvalues --    4.34505   4.48047   4.48047   4.71581   4.71581
 Alpha virt. eigenvalues --    4.77996   4.79330   4.79330   4.91629   4.91629
 Alpha virt. eigenvalues --    5.15637   5.49727   5.67364   5.67364   5.78839
 Alpha virt. eigenvalues --    5.78839   5.84170   5.85949   5.85949   5.93880
 Alpha virt. eigenvalues --    5.93880   6.00239   6.04319   6.04319   6.55907
 Alpha virt. eigenvalues --    6.55907   6.88525   7.69265   9.89224   9.89224
 Alpha virt. eigenvalues --    9.91005   9.92943   9.92943  10.09897  10.09897
 Alpha virt. eigenvalues --   10.32561  10.32561  10.35888  10.35888  10.40374
 Alpha virt. eigenvalues --   10.52920  10.52920  10.65666  10.65666  10.69625
 Alpha virt. eigenvalues --   10.71646  10.71646  10.78517  10.78517  10.86181
 Alpha virt. eigenvalues --   10.86181  11.05963  11.13083  11.13083  11.48217
 Alpha virt. eigenvalues --   11.48217  11.49737  11.49737  11.55841  11.55841
 Alpha virt. eigenvalues --   11.69360  11.84330  11.84330  11.86391  11.86391
 Alpha virt. eigenvalues --   11.88646  11.88646  11.90981  12.03504  12.03504
 Alpha virt. eigenvalues --   12.08981  12.08981  12.42059  12.42059  12.68893
 Alpha virt. eigenvalues --   12.68893  12.71026  12.71026  12.74117  12.84731
 Alpha virt. eigenvalues --   12.84731  12.87798  12.87798  13.41947  14.01774
 Alpha virt. eigenvalues --   14.43998  14.43998  14.96331  16.26935  17.88745
 Alpha virt. eigenvalues --   17.88745  17.96817  17.96817  18.32607  20.06503
 Alpha virt. eigenvalues --   20.06503  20.52828  28.40817  28.40817  28.78929
 Alpha virt. eigenvalues --   29.51065  31.61978  31.61978  31.68549  31.68549
 Alpha virt. eigenvalues --   31.95959  34.86691  34.86691  34.87594  35.25150
 Alpha virt. eigenvalues --   46.81853  46.81853  47.21889  47.21889  48.28879
 Alpha virt. eigenvalues --   58.80656  59.68473  59.68473  60.00399  65.19379
 Alpha virt. eigenvalues --   65.19379  65.24730  65.24730  65.47965  68.19379
 Alpha virt. eigenvalues --   69.81794  69.81794  70.75244 102.97693 102.97693
 Alpha virt. eigenvalues --  103.00199 103.00199 103.05417 103.05417 103.08340
 Alpha virt. eigenvalues --  103.55292 103.55292 103.82302 107.62407 121.59663
 Alpha virt. eigenvalues --  154.57935 154.57935 155.34144 172.68853 172.68853
 Alpha virt. eigenvalues --  172.72841 172.72841 172.88438 184.62160 184.62160
 Alpha virt. eigenvalues --  184.86739 186.85813 206.77397 206.77397 206.98778
 Alpha virt. eigenvalues --  206.98778 207.50750 210.08549 324.79894 324.79894
 Alpha virt. eigenvalues --  325.48594 338.66530 340.83991 340.83991 341.08542
 Alpha virt. eigenvalues --  358.06438 593.66467 593.66467 593.69022 593.69022
 Alpha virt. eigenvalues --  593.79134 612.21801 641.35135 657.72263 657.72263
 Alpha virt. eigenvalues --  657.94627 691.04465 691.04465 691.682561090.11067
 Alpha virt. eigenvalues -- 1268.765781344.133381344.133381344.337052262.44410
 Alpha virt. eigenvalues -- 2629.077422955.155182955.155182955.337125717.95836
 Alpha virt. eigenvalues -- 6141.110887162.293287162.293287162.45088**********
 Alpha virt. eigenvalues -- **************************************************
 Alpha virt. eigenvalues -- **************************************************
 Alpha virt. eigenvalues -- ****************************************
     Molecular Orbital Coefficients:
                           4         5         6         7         8
                           O         O         O         O         O
     Eigenvalues --    -1.54863  -1.09372  -0.52513  -0.52513  -0.46173
   1 1   Sc 1S          0.00000   0.00000   0.00000   0.00000   0.00000
   2        2S          0.00000  -0.00000   0.00000   0.00000  -0.00000
   3        3S          0.00000   0.00000   0.00000   0.00000   0.00000
   4        4S          0.00000  -0.00000   0.00000   0.00000  -0.00000
   5        5S          0.00000   0.00000   0.00000   0.00000   0.00000
   6        6S          0.00000  -0.00000   0.00000   0.00000  -0.00000
   7        7S          0.00000   0.00000   0.00000   0.00000   0.00000
   8        8S          0.00000  -0.00001   0.00000   0.00000  -0.00001
   9        9S          0.00000   0.00003   0.00000   0.00000   0.00003
  10       10S          0.00000  -0.00009   0.00000   0.00000  -0.00009
  11       11S          0.00000   0.00026   0.00000   0.00000   0.00025
  12       12S          0.00000  -0.00072   0.00000   0.00000  -0.00070
  13       13S          0.00000   0.00242   0.00000   0.00000   0.00229
  14       14S          0.00000  -0.01281   0.00000   0.00000  -0.01199
  15       15S          0.00000   0.01840   0.00000   0.00000   0.01862
  16       16S          0.00000   0.08286   0.00000   0.00000   0.06053
  17       17S          0.00000  -0.02068   0.00000   0.00000  -0.02544
  18       18S          0.00000  -0.13911   0.00000   0.00000  -0.12034
  19       19S          0.00000  -0.07468   0.00000   0.00000  -0.10493
  20       20S          0.00000  -0.03602   0.00000   0.00000  -0.08635
  21       21S          0.00000  -0.02872   0.00000   0.00000  -0.04777
  22       22S          0.00000   0.00367   0.00000   0.00000   0.01438
  23       23S          0.00000  -0.02776   0.00000   0.00000  -0.00369
  24       24S          0.00000  -0.01253   0.00000   0.00000  -0.02339
  25       25S          0.00000  -0.00037   0.00000   0.00000  -0.00110
  26       26PX        -0.00000   0.00000   0.00000   0.00000   0.00000
  27       26PY         0.00000   0.00000   0.00000   0.00000   0.00000
  28       26PZ         0.00000  -0.00000   0.00000   0.00000  -0.00000
  29       27PX         0.00000   0.00000   0.00000  -0.00000   0.00000
  30       27PY         0.00000   0.00000  -0.00000   0.00000   0.00000
  31       27PZ         0.00000   0.00000   0.00000   0.00000   0.00000
  32       28PX        -0.00000   0.00000   0.00000   0.00000   0.00000
  33       28PY         0.00000   0.00000   0.00000   0.00000   0.00000
  34       28PZ         0.00000  -0.00000   0.00000   0.00000  -0.00000
  35       29PX         0.00001   0.00000   0.00000  -0.00000   0.00000
  36       29PY         0.00000   0.00000  -0.00000   0.00000   0.00000
  37       29PZ         0.00000   0.00000   0.00000   0.00000   0.00000
  38       30PX        -0.00003   0.00000   0.00000   0.00001   0.00000
  39       30PY         0.00000   0.00000   0.00001   0.00000   0.00000
  40       30PZ         0.00000  -0.00002   0.00000   0.00000  -0.00001
  41       31PX         0.00011   0.00000   0.00000  -0.00002   0.00000
  42       31PY         0.00000   0.00000  -0.00002   0.00000   0.00000
  43       31PZ         0.00000   0.00006   0.00000   0.00000   0.00003
  44       32PX        -0.00036   0.00000   0.00000   0.00007   0.00000
  45       32PY         0.00000   0.00000   0.00007   0.00000   0.00000
  46       32PZ         0.00000  -0.00020   0.00000   0.00000  -0.00011
  47       33PX         0.00102   0.00000   0.00000  -0.00020   0.00000
  48       33PY         0.00000   0.00000  -0.00020   0.00000   0.00000
  49       33PZ         0.00000   0.00056   0.00000   0.00000   0.00031
  50       34PX         0.00584   0.00000   0.00000  -0.00098   0.00000
  51       34PY         0.00000   0.00000  -0.00098   0.00000   0.00000
  52       34PZ         0.00000   0.00312   0.00000   0.00000   0.00144
  53       35PX        -0.06358   0.00000   0.00000   0.01148   0.00000
  54       35PY         0.00000   0.00000   0.01148   0.00000   0.00000
  55       35PZ         0.00000  -0.03474   0.00000   0.00000  -0.01730
  56       36PX         0.03165   0.00000   0.00000  -0.00356   0.00000
  57       36PY         0.00000   0.00000  -0.00356   0.00000   0.00000
  58       36PZ         0.00000   0.01906   0.00000   0.00000   0.00960
  59       37PX         0.18628   0.00000   0.00000  -0.03372   0.00000
  60       37PY         0.00000   0.00000  -0.03372   0.00000   0.00000
  61       37PZ         0.00000   0.10527   0.00000   0.00000   0.05514
  62       38PX         0.37542   0.00000   0.00000  -0.08573   0.00000
  63       38PY         0.00000   0.00000  -0.08573   0.00000   0.00000
  64       38PZ         0.00000   0.21183   0.00000   0.00000   0.13804
  65       39PX         0.39172   0.00000   0.00000  -0.08507   0.00000
  66       39PY         0.00000   0.00000  -0.08507   0.00000   0.00000
  67       39PZ         0.00000   0.22009   0.00000   0.00000   0.12828
  68       40PX         0.16344   0.00000   0.00000  -0.04559   0.00000
  69       40PY         0.00000   0.00000  -0.04559   0.00000   0.00000
  70       40PZ         0.00000   0.10349   0.00000   0.00000   0.06406
  71       41PX         0.00850   0.00000   0.00000  -0.05439   0.00000
  72       41PY         0.00000   0.00000  -0.05439   0.00000   0.00000
  73       41PZ         0.00000   0.03824   0.00000   0.00000   0.08317
  74       42PX        -0.00353   0.00000   0.00000  -0.01437   0.00000
  75       42PY         0.00000   0.00000  -0.01437   0.00000   0.00000
  76       42PZ         0.00000   0.01302   0.00000   0.00000   0.02132
  77       43PX        -0.00025   0.00000   0.00000  -0.01226   0.00000
  78       43PY         0.00000   0.00000  -0.01226   0.00000   0.00000
  79       43PZ         0.00000  -0.00178   0.00000   0.00000  -0.01177
  80       44PX        -0.07257   0.00000   0.00000   0.01001   0.00000
  81       44PY         0.00000   0.00000   0.01001   0.00000   0.00000
  82       44PZ         0.00000  -0.04119   0.00000   0.00000  -0.02082
  83       45PX         0.01489   0.00000   0.00000   0.01461   0.00000
  84       45PY         0.00000   0.00000   0.01461   0.00000   0.00000
  85       45PZ         0.00000   0.00341   0.00000   0.00000  -0.03600
  86       46PX         0.00004   0.00000   0.00000   0.00271   0.00000
  87       46PY         0.00000   0.00000   0.00271   0.00000   0.00000
  88       46PZ         0.00000   0.00013   0.00000   0.00000   0.00181
  89       47D 0        0.00000   0.00000   0.00000   0.00000   0.00001
  90       47D+1       -0.00000   0.00000   0.00000  -0.00000   0.00000
  91       47D-1        0.00000   0.00000  -0.00000   0.00000   0.00000
  92       47D+2        0.00000   0.00000   0.00000   0.00000  -0.00000
  93       47D-2        0.00000   0.00000   0.00000   0.00000   0.00000
  94       48D 0        0.00000   0.00004   0.00000   0.00000   0.00014
  95       48D+1       -0.00001   0.00000   0.00000  -0.00007   0.00000
  96       48D-1        0.00000   0.00000  -0.00007   0.00000   0.00000
  97       48D+2        0.00000  -0.00000   0.00000   0.00000   0.00000
  98       48D-2        0.00000   0.00000   0.00000   0.00000   0.00000
  99       49D 0        0.00000   0.00275   0.00000   0.00000   0.00926
 100       49D+1       -0.00042   0.00000   0.00000  -0.00448   0.00000
 101       49D-1        0.00000   0.00000  -0.00448   0.00000   0.00000
 102       49D+2        0.00000   0.00000   0.00000   0.00000  -0.00000
 103       49D-2        0.00000   0.00000   0.00000   0.00000   0.00000
 104       50D 0        0.00000   0.01174   0.00000   0.00000   0.03964
 105       50D+1       -0.00176   0.00000   0.00000  -0.01918   0.00000
 106       50D-1        0.00000   0.00000  -0.01918   0.00000   0.00000
 107       50D+2        0.00000   0.00000   0.00000   0.00000  -0.00000
 108       50D-2        0.00000   0.00000   0.00000   0.00000   0.00000
 109       51D 0        0.00000   0.02244   0.00000   0.00000   0.07554
 110       51D+1       -0.00345   0.00000   0.00000  -0.03551   0.00000
 111       51D-1        0.00000   0.00000  -0.03551   0.00000   0.00000
 112       51D+2        0.00000   0.00000   0.00000   0.00000  -0.00000
 113       51D-2        0.00000   0.00000   0.00000   0.00000   0.00000
 114       52D 0        0.00000   0.03813   0.00000   0.00000   0.12186
 115       52D+1       -0.00302   0.00000   0.00000  -0.05236   0.00000
 116       52D-1        0.00000   0.00000  -0.05236   0.00000   0.00000
 117       52D+2        0.00000   0.00000   0.00000   0.00000  -0.00000
 118       52D-2        0.00000   0.00000   0.00000   0.00000   0.00000
 119       53D 0        0.00000   0.05318   0.00000   0.00000   0.16661
 120       53D+1        0.00038   0.00000   0.00000  -0.07835   0.00000
 121       53D-1        0.00000   0.00000  -0.07835   0.00000   0.00000
 122       53D+2        0.00000   0.00000   0.00000   0.00000  -0.00000
 123       53D-2        0.00000   0.00000   0.00000   0.00000   0.00000
 124       54D 0        0.00000   0.04025   0.00000   0.00000   0.15825
 125       54D+1        0.00378   0.00000   0.00000  -0.08235   0.00000
 126       54D-1        0.00000   0.00000  -0.08235   0.00000   0.00000
 127       54D+2        0.00000  -0.00000   0.00000   0.00000   0.00000
 128       54D-2        0.00000   0.00000   0.00000   0.00000   0.00000
 129       55D 0        0.00000  -0.00271   0.00000   0.00000   0.04651
 130       55D+1        0.00474   0.00000   0.00000   0.00588   0.00000
 131       55D-1        0.00000   0.00000   0.00588   0.00000   0.00000
 132       55D+2        0.00000   0.00000   0.00000   0.00000  -0.00000
 133       55D-2        0.00000   0.00000   0.00000   0.00000   0.00000
 134       56D 0        0.00000  -0.00173   0.00000   0.00000   0.01150
 135       56D+1        0.00218   0.00000   0.00000   0.00461   0.00000
 136       56D-1        0.00000   0.00000   0.00461   0.00000   0.00000
 137       56D+2        0.00000  -0.00000   0.00000   0.00000  -0.00000
 138       56D-2        0.00000   0.00000   0.00000   0.00000   0.00000
 139       57D 0        0.00000   0.00092   0.00000   0.00000   0.00580
 140       57D+1        0.00028   0.00000   0.00000   0.00759   0.00000
 141       57D-1        0.00000   0.00000   0.00759   0.00000   0.00000
 142       57D+2        0.00000   0.00000   0.00000   0.00000  -0.00000
 143       57D-2        0.00000   0.00000   0.00000   0.00000   0.00000
 144       58D 0        0.00000   0.00200   0.00000   0.00000   0.01073
 145       58D+1       -0.00276   0.00000   0.00000  -0.00885   0.00000
 146       58D-1        0.00000   0.00000  -0.00885   0.00000   0.00000
 147       58D+2        0.00000  -0.00000   0.00000   0.00000   0.00000
 148       58D-2        0.00000   0.00000   0.00000   0.00000   0.00000
 149       59D 0        0.00000   0.00220   0.00000   0.00000   0.02242
 150       59D+1       -0.00743   0.00000   0.00000  -0.01806   0.00000
 151       59D-1        0.00000   0.00000  -0.01806   0.00000   0.00000
 152       59D+2        0.00000  -0.00000   0.00000   0.00000   0.00000
 153       59D-2        0.00000   0.00000   0.00000   0.00000   0.00000
 154       60D 0        0.00000  -0.00014   0.00000   0.00000  -0.00111
 155       60D+1       -0.00005   0.00000   0.00000  -0.00184   0.00000
 156       60D-1        0.00000   0.00000  -0.00184   0.00000   0.00000
 157       60D+2        0.00000  -0.00000   0.00000   0.00000   0.00000
 158       60D-2        0.00000   0.00000   0.00000   0.00000   0.00000
 159       61F 0        0.00000  -0.00180   0.00000   0.00000  -0.00478
 160       61F+1       -0.00081   0.00000   0.00000   0.00338   0.00000
 161       61F-1        0.00000   0.00000   0.00338   0.00000   0.00000
 162       61F+2        0.00000  -0.00000   0.00000   0.00000   0.00000
 163       61F-2        0.00000   0.00000   0.00000   0.00000   0.00000
 164       61F+3       -0.00000   0.00000   0.00000   0.00000   0.00000
 165       61F-3        0.00000   0.00000  -0.00000   0.00000   0.00000
 166       62F 0        0.00000  -0.00719   0.00000   0.00000  -0.02004
 167       62F+1       -0.00209   0.00000   0.00000   0.01372   0.00000
 168       62F-1        0.00000   0.00000   0.01372   0.00000   0.00000
 169       62F+2        0.00000  -0.00000   0.00000   0.00000   0.00000
 170       62F-2        0.00000   0.00000   0.00000   0.00000   0.00000
 171       62F+3        0.00000   0.00000   0.00000   0.00000   0.00000
 172       62F-3        0.00000   0.00000   0.00000   0.00000   0.00000
 173       63F 0        0.00000  -0.00729   0.00000   0.00000  -0.02053
 174       63F+1       -0.00470   0.00000   0.00000   0.01674   0.00000
 175       63F-1        0.00000   0.00000   0.01674   0.00000   0.00000
 176       63F+2        0.00000   0.00000   0.00000   0.00000  -0.00000
 177       63F-2        0.00000   0.00000   0.00000   0.00000   0.00000
 178       63F+3       -0.00000   0.00000   0.00000  -0.00000   0.00000
 179       63F-3        0.00000   0.00000  -0.00000   0.00000   0.00000
 180       64F 0        0.00000   0.00146   0.00000   0.00000  -0.00737
 181       64F+1       -0.00239   0.00000   0.00000  -0.00914   0.00000
 182       64F-1        0.00000   0.00000  -0.00914   0.00000   0.00000
 183       64F+2        0.00000  -0.00000   0.00000   0.00000   0.00000
 184       64F-2        0.00000   0.00000   0.00000   0.00000   0.00000
 185       64F+3       -0.00000   0.00000   0.00000  -0.00000   0.00000
 186       64F-3        0.00000   0.00000   0.00000   0.00000   0.00000
 187       65F 0        0.00000  -0.00042   0.00000   0.00000  -0.00315
 188       65F+1       -0.00033   0.00000   0.00000  -0.00308   0.00000
 189       65F-1        0.00000   0.00000  -0.00308   0.00000   0.00000
 190       65F+2        0.00000  -0.00000   0.00000   0.00000   0.00000
 191       65F-2        0.00000   0.00000   0.00000   0.00000   0.00000
 192       65F+3        0.00000   0.00000   0.00000   0.00000   0.00000
 193       65F-3        0.00000   0.00000   0.00000   0.00000   0.00000
 194       66G 0        0.00000   0.00022   0.00000   0.00000   0.00114
 195       66G+1       -0.00032   0.00000   0.00000  -0.00079   0.00000
 196       66G-1        0.00000   0.00000  -0.00079   0.00000   0.00000
 197       66G+2        0.00000   0.00000   0.00000   0.00000  -0.00000
 198       66G-2        0.00000   0.00000   0.00000   0.00000   0.00000
 199       66G+3       -0.00000   0.00000   0.00000  -0.00000   0.00000
 200       66G-3        0.00000   0.00000  -0.00000   0.00000   0.00000
 201       66G+4        0.00000  -0.00000   0.00000   0.00000   0.00000
 202       66G-4        0.00000   0.00000   0.00000   0.00000   0.00000
 203       67G 0        0.00000   0.00073   0.00000   0.00000   0.00500
 204       67G+1       -0.00073   0.00000   0.00000  -0.00397   0.00000
 205       67G-1        0.00000   0.00000  -0.00397   0.00000   0.00000
 206       67G+2        0.00000  -0.00000   0.00000   0.00000   0.00000
 207       67G-2        0.00000   0.00000   0.00000   0.00000   0.00000
 208       67G+3       -0.00000   0.00000   0.00000  -0.00000   0.00000
 209       67G-3        0.00000   0.00000   0.00000   0.00000   0.00000
 210       67G+4        0.00000   0.00000   0.00000   0.00000  -0.00000
 211       67G-4        0.00000   0.00000   0.00000   0.00000   0.00000
 212       68G 0        0.00000  -0.00004   0.00000   0.00000   0.00045
 213       68G+1        0.00067   0.00000   0.00000  -0.00092   0.00000
 214       68G-1        0.00000   0.00000  -0.00092   0.00000   0.00000
 215       68G+2        0.00000   0.00000   0.00000   0.00000  -0.00000
 216       68G-2        0.00000   0.00000   0.00000   0.00000   0.00000
 217       68G+3       -0.00000   0.00000   0.00000   0.00000   0.00000
 218       68G-3        0.00000   0.00000  -0.00000   0.00000   0.00000
 219       68G+4        0.00000  -0.00000   0.00000   0.00000   0.00000
 220       68G-4        0.00000   0.00000   0.00000   0.00000   0.00000
 221       69G 0        0.00000   0.00002   0.00000   0.00000   0.00262
 222       69G+1        0.00048   0.00000   0.00000   0.00201   0.00000
 223       69G-1        0.00000   0.00000   0.00201   0.00000   0.00000
 224       69G+2        0.00000   0.00000   0.00000   0.00000  -0.00000
 225       69G-2        0.00000   0.00000   0.00000   0.00000   0.00000
[...]
 167       62F+1        0.00386   0.00193   0.00193   0.00000
 168       62F-1        0.00386   0.00193   0.00193   0.00000
 169       62F+2        0.00000  -0.00000   0.00000  -0.00000
 170       62F-2       -0.00000  -0.00000   0.00000  -0.00000
 171       62F+3        0.00000   0.00000   0.00000  -0.00000
 172       62F-3        0.00000   0.00000   0.00000   0.00000
 173       63F 0        0.00841   0.00418   0.00423  -0.00005
 174       63F+1        0.01247   0.00624   0.00624   0.00000
 175       63F-1        0.01247   0.00624   0.00624   0.00000
 176       63F+2       -0.00000  -0.00000  -0.00000   0.00000
 177       63F-2       -0.00000  -0.00000  -0.00000  -0.00000
 178       63F+3       -0.00000  -0.00000  -0.00000   0.00000
 179       63F-3        0.00000   0.00000   0.00000  -0.00000
 180       64F 0       -0.00381  -0.00195  -0.00186  -0.00009
 181       64F+1       -0.00556  -0.00278  -0.00278   0.00000
 182       64F-1       -0.00556  -0.00278  -0.00278   0.00000
 183       64F+2       -0.00000   0.00000  -0.00000   0.00000
 184       64F-2       -0.00000  -0.00000   0.00000  -0.00000
 185       64F+3        0.00000   0.00000   0.00000   0.00000
 186       64F-3       -0.00000  -0.00000  -0.00000   0.00000
 187       65F 0       -0.00037  -0.00019  -0.00019  -0.00000
 188       65F+1       -0.00039  -0.00020  -0.00020   0.00000
 189       65F-1       -0.00039  -0.00020  -0.00020  -0.00000
 190       65F+2       -0.00000  -0.00000   0.00000  -0.00000
 191       65F-2       -0.00000  -0.00000   0.00000  -0.00000
 192       65F+3        0.00000   0.00000   0.00000  -0.00000
 193       65F-3        0.00000   0.00000   0.00000   0.00000
 194       66G 0        0.00008   0.00004   0.00004   0.00000
 195       66G+1        0.00003   0.00002   0.00002   0.00000
 196       66G-1        0.00003   0.00002   0.00002   0.00000
 197       66G+2       -0.00000  -0.00000  -0.00000   0.00000
 198       66G-2       -0.00000  -0.00000  -0.00000  -0.00000
 199       66G+3        0.00000   0.00000   0.00000  -0.00000
 200       66G-3        0.00000  -0.00000   0.00000  -0.00000
 201       66G+4       -0.00000  -0.00000  -0.00000   0.00000
 202       66G-4       -0.00000  -0.00000  -0.00000  -0.00000
 203       67G 0        0.00159   0.00079   0.00079  -0.00000
 204       67G+1        0.00118   0.00059   0.00059   0.00000
 205       67G-1        0.00118   0.00059   0.00059   0.00000
 206       67G+2       -0.00000  -0.00000  -0.00000  -0.00000
 207       67G-2       -0.00000  -0.00000  -0.00000  -0.00000
 208       67G+3       -0.00000  -0.00000  -0.00000   0.00000
 209       67G-3       -0.00000  -0.00000   0.00000  -0.00000
 210       67G+4        0.00000   0.00000   0.00000   0.00000
 211       67G-4        0.00000   0.00000   0.00000   0.00000
 212       68G 0       -0.00003  -0.00002  -0.00002  -0.00000
 213       68G+1        0.00058   0.00029   0.00029   0.00000
 214       68G-1        0.00058   0.00029   0.00029  -0.00000
 215       68G+2        0.00000   0.00000   0.00000   0.00000
 216       68G-2        0.00000   0.00000   0.00000   0.00000
 217       68G+3       -0.00000  -0.00000  -0.00000  -0.00000
 218       68G-3       -0.00000  -0.00000  -0.00000  -0.00000
 219       68G+4       -0.00000  -0.00000  -0.00000   0.00000
 220       68G-4       -0.00000  -0.00000  -0.00000   0.00000
 221       69G 0       -0.00050  -0.00024  -0.00026   0.00001
 222       69G+1       -0.00041  -0.00020  -0.00020  -0.00000
 223       69G-1       -0.00041  -0.00020  -0.00020   0.00000
 224       69G+2       -0.00000  -0.00000  -0.00000   0.00000
 225       69G-2       -0.00000  -0.00000  -0.00000  -0.00000
 226       69G+3        0.00000   0.00000   0.00000   0.00000
 227       69G-3        0.00000   0.00000   0.00000  -0.00000
 228       69G+4        0.00000   0.00000   0.00000   0.00000
 229       69G-4        0.00000   0.00000  -0.00000   0.00000
 230       70H 0        0.00009   0.00004   0.00004   0.00000
 231       70H+1        0.00005   0.00002   0.00002   0.00000
 232       70H-1        0.00005   0.00002   0.00002   0.00000
 233       70H+2       -0.00000  -0.00000  -0.00000  -0.00000
 234       70H-2       -0.00000  -0.00000  -0.00000  -0.00000
 235       70H+3       -0.00000  -0.00000  -0.00000   0.00000
 236       70H-3       -0.00000  -0.00000  -0.00000  -0.00000
 237       70H+4        0.00000   0.00000  -0.00000   0.00000
 238       70H-4        0.00000   0.00000  -0.00000   0.00000
 239       70H+5        0.00000  -0.00000   0.00000  -0.00000
 240       70H-5        0.00000   0.00000   0.00000   0.00000
 241       71H 0        0.00001   0.00001   0.00000   0.00000
 242       71H+1        0.00051   0.00026   0.00026   0.00000
 243       71H-1        0.00051   0.00026   0.00026   0.00000
 244       71H+2        0.00000   0.00000   0.00000   0.00000
 245       71H-2        0.00000   0.00000   0.00000   0.00000
 246       71H+3       -0.00000  -0.00000  -0.00000   0.00000
 247       71H-3        0.00000   0.00000  -0.00000   0.00000
 248       71H+4        0.00000   0.00000   0.00000  -0.00000
 249       71H-4        0.00000   0.00000   0.00000  -0.00000
 250       71H+5        0.00000   0.00000   0.00000   0.00000
 251       71H-5       -0.00000  -0.00000  -0.00000   0.00000
 252       72H 0       -0.00009  -0.00004  -0.00004  -0.00000
 253       72H+1        0.00025   0.00012   0.00012   0.00000
 254       72H-1        0.00025   0.00012   0.00012   0.00000
 255       72H+2       -0.00000  -0.00000  -0.00000  -0.00000
 256       72H-2       -0.00000  -0.00000  -0.00000  -0.00000
 257       72H+3       -0.00000  -0.00000  -0.00000  -0.00000
 258       72H-3       -0.00000   0.00000  -0.00000   0.00000
 259       72H+4        0.00000   0.00000   0.00000  -0.00000
 260       72H-4        0.00000  -0.00000   0.00000  -0.00000
 261       72H+5        0.00000  -0.00000   0.00000  -0.00000
 262       72H-5        0.00000   0.00000   0.00000   0.00000
 263 2   O  1S         -0.00000  -0.00000  -0.00000  -0.00000
 264        2S          0.00000   0.00000   0.00000   0.00000
 265        3S         -0.00000  -0.00000  -0.00000  -0.00000
 266        4S          0.00000   0.00000   0.00000   0.00000
 267        5S         -0.00000  -0.00000  -0.00000  -0.00000
 268        6S         -0.00006  -0.00003  -0.00003  -0.00000
 269        7S         -0.00051  -0.00025  -0.00025  -0.00000
 270        8S         -0.09274  -0.04648  -0.04627  -0.00021
 271        9S         -0.07825  -0.03921  -0.03904  -0.00017
 272       10S          0.43136   0.21610   0.21526   0.00084
 273       11S          1.06540   0.53325   0.53215   0.00110
 274       12S          0.59568   0.29592   0.29977  -0.00385
 275       13S          0.05585   0.02799   0.02786   0.00013
 276       14S          0.00031   0.00015   0.00015   0.00000
 277       15S          0.00003   0.00001   0.00001   0.00000
 278       16S          0.08232   0.04307   0.03925   0.00382
 279       17PX        -0.00017  -0.00008  -0.00008   0.00000
 280       17PY        -0.00017  -0.00008  -0.00008   0.00000
 281       17PZ        -0.00020  -0.00010  -0.00010  -0.00000
 282       18PX        -0.12127  -0.06063  -0.06063   0.00000
 283       18PY        -0.12127  -0.06063  -0.06063   0.00000
 284       18PZ        -0.13747  -0.06882  -0.06865  -0.00017
 285       19PX         0.13432   0.06716   0.06716   0.00000
 286       19PY         0.13432   0.06716   0.06716   0.00000
 287       19PZ         0.13584   0.06800   0.06784   0.00016
 288       20PX         0.46327   0.23163   0.23163   0.00000
 289       20PY         0.46327   0.23163   0.23163   0.00000
 290       20PZ         0.47556   0.23806   0.23750   0.00057
 291       21PX         0.69920   0.34960   0.34960  -0.00000
 292       21PY         0.69920   0.34960   0.34960   0.00000
 293       21PZ         0.57394   0.28740   0.28653   0.00087
 294       22PX         0.44325   0.22162   0.22162   0.00000
 295       22PY         0.44325   0.22162   0.22162   0.00000
 296       22PZ         0.17051   0.08489   0.08562  -0.00072
 297       23PX         0.13866   0.06933   0.06933   0.00000
 298       23PY         0.13866   0.06933   0.06933   0.00000
 299       23PZ         0.15551   0.07785   0.07766   0.00019
 300       24PX         0.00064   0.00032   0.00032   0.00000
 301       24PY         0.00064   0.00032   0.00032   0.00000
 302       24PZ         0.00071   0.00036   0.00035   0.00000
 303       25PX         0.00001   0.00000   0.00000  -0.00000
 304       25PY         0.00001   0.00000   0.00000   0.00000
 305       25PZ         0.00001   0.00001   0.00001   0.00000
 306       26PX         0.04071   0.02035   0.02035   0.00000
 307       26PY         0.04071   0.02035   0.02035   0.00000
 308       26PZ         0.01531   0.00494   0.01037  -0.00542
 309       27D 0        0.00032   0.00016   0.00016   0.00000
 310       27D+1        0.00012   0.00006   0.00006   0.00000
 311       27D-1        0.00012   0.00006   0.00006   0.00000
 312       27D+2       -0.00000  -0.00000  -0.00000  -0.00000
 313       27D-2       -0.00000  -0.00000  -0.00000  -0.00000
 314       28D 0        0.00624   0.00316   0.00308   0.00008
 315       28D+1        0.00292   0.00146   0.00146   0.00000
 316       28D-1        0.00292   0.00146   0.00146   0.00000
 317       28D+2       -0.00000  -0.00000  -0.00000  -0.00000
 318       28D-2       -0.00000  -0.00000   0.00000  -0.00000
 319       29D 0        0.00709   0.00386   0.00323   0.00063
 320       29D+1        0.01171   0.00586   0.00586   0.00000
 321       29D-1        0.01171   0.00586   0.00586   0.00000
 322       29D+2        0.00000   0.00000   0.00000  -0.00000
 323       29D-2        0.00000   0.00000   0.00000  -0.00000
 324       30D 0        0.00001   0.00000   0.00000   0.00000
 325       30D+1        0.00000   0.00000   0.00000   0.00000
 326       30D-1        0.00000   0.00000   0.00000   0.00000
 327       30D+2       -0.00000  -0.00000   0.00000  -0.00000
 328       30D-2       -0.00000  -0.00000   0.00000  -0.00000
 329       31D 0       -0.00000  -0.00000  -0.00000  -0.00000
 330       31D+1       -0.00000  -0.00000  -0.00000  -0.00000
 331       31D-1       -0.00000  -0.00000  -0.00000   0.00000
 332       31D+2       -0.00000  -0.00000  -0.00000   0.00000
 333       31D-2       -0.00000  -0.00000  -0.00000   0.00000
 334       32D 0       -0.00068  -0.00030  -0.00038   0.00008
 335       32D+1        0.00097   0.00048   0.00048   0.00000
 336       32D-1        0.00097   0.00048   0.00048   0.00000
 337       32D+2       -0.00000  -0.00000  -0.00000   0.00000
 338       32D-2       -0.00000  -0.00000  -0.00000   0.00000
 339       33F 0        0.00018   0.00009   0.00009   0.00000
 340       33F+1        0.00006   0.00003   0.00003   0.00000
 341       33F-1        0.00006   0.00003   0.00003   0.00000
 342       33F+2        0.00000   0.00000   0.00000   0.00000
 343       33F-2        0.00000   0.00000   0.00000   0.00000
 344       33F+3        0.00000  -0.00000   0.00000  -0.00000
 345       33F-3        0.00000   0.00000   0.00000  -0.00000
 346       34F 0        0.00220   0.00113   0.00107   0.00006
 347       34F+1        0.00161   0.00081   0.00081   0.00000
 348       34F-1        0.00161   0.00081   0.00081   0.00000
 349       34F+2       -0.00000  -0.00000  -0.00000   0.00000
 350       34F-2        0.00000   0.00000   0.00000   0.00000
 351       34F+3       -0.00000  -0.00000  -0.00000  -0.00000
 352       34F-3       -0.00000  -0.00000  -0.00000   0.00000
 353       35F 0        0.00000   0.00000   0.00000   0.00000
 354       35F+1        0.00000   0.00000   0.00000   0.00000
 355       35F-1        0.00000   0.00000   0.00000   0.00000
 356       35F+2        0.00000   0.00000   0.00000   0.00000
 357       35F-2        0.00000   0.00000   0.00000   0.00000
 358       35F+3        0.00000   0.00000   0.00000  -0.00000
 359       35F-3       -0.00000  -0.00000  -0.00000  -0.00000
 360       36F 0        0.00023   0.00022   0.00001   0.00021
 361       36F+1        0.00024   0.00012   0.00012   0.00000
 362       36F-1        0.00024   0.00012   0.00012  -0.00000
 363       36F+2        0.00000   0.00000  -0.00000   0.00000
 364       36F-2        0.00000   0.00000  -0.00000   0.00000
 365       36F+3       -0.00000  -0.00000  -0.00000  -0.00000
 366       36F-3        0.00000   0.00000  -0.00000   0.00000
 367       37G 0        0.00013   0.00006   0.00006   0.00000
 368       37G+1        0.00007   0.00004   0.00004   0.00000
 369       37G-1        0.00007   0.00004   0.00004   0.00000
 370       37G+2       -0.00000  -0.00000  -0.00000   0.00000
 371       37G-2       -0.00000  -0.00000  -0.00000  -0.00000
 372       37G+3       -0.00000  -0.00000  -0.00000  -0.00000
 373       37G-3        0.00000   0.00000   0.00000   0.00000
 374       37G+4        0.00000   0.00000   0.00000  -0.00000
 375       37G-4        0.00000   0.00000   0.00000   0.00000
 376       38G 0        0.00027   0.00014   0.00013   0.00000
 377       38G+1        0.00028   0.00014   0.00014   0.00000
 378       38G-1        0.00028   0.00014   0.00014   0.00000
 379       38G+2        0.00000   0.00000   0.00000   0.00000
 380       38G-2        0.00000   0.00000   0.00000   0.00000
 381       38G+3        0.00000   0.00000   0.00000   0.00000
 382       38G-3        0.00000   0.00000   0.00000   0.00000
 383       38G+4        0.00000   0.00000   0.00000  -0.00000
 384       38G-4        0.00000   0.00000   0.00000  -0.00000
          Condensed to atoms (all electrons):
               1          2
     1  Sc  10.251074  -0.349387
     2  O   -0.349387   7.447700
          Atomic-Atomic Spin Densities.
               1          2
     1  Sc   1.012206  -0.010412
     2  O   -0.010412   0.008619
 Mulliken charges and spin densities:
               1          2
     1  Sc   1.098313   1.001794
     2  O   -1.098313  -0.001794
 Sum of Mulliken charges =  -0.00000   1.00000
 Mulliken charges and spin densities with hydrogens summed into heavy atoms:
               1          2
     1  Sc   1.098313   1.001794
     2  O   -1.098313  -0.001794
 Electronic spatial extent (au):  <R**2>=             83.5046
 Charge=             -0.0000 electrons
 Dipole moment (field-independent basis, Debye):
    X=              0.0000    Y=              0.0000    Z=              1.5130  Tot=              1.5130
 Quadrupole moment (field-independent basis, Debye-Ang):
   XX=            -22.2776   YY=            -22.2776   ZZ=            -30.2609
   XY=              0.0000   XZ=              0.0000   YZ=              0.0000
 Traceless Quadrupole moment (field-independent basis, Debye-Ang):
   XX=              2.6611   YY=              2.6611   ZZ=             -5.3222
   XY=              0.0000   XZ=              0.0000   YZ=              0.0000
 Octapole moment (field-independent basis, Debye-Ang**2):
  XXX=              0.0000  YYY=              0.0000  ZZZ=            -18.0592  XYY=              0.0000
  XXY=              0.0000  XXZ=             -5.8376  XZZ=              0.0000  YZZ=              0.0000
  YYZ=             -5.8376  XYZ=              0.0000
 Hexadecapole moment (field-independent basis, Debye-Ang**3):
 XXXX=            -57.2144 YYYY=            -57.2144 ZZZZ=           -154.1661 XXXY=              0.0000
 XXXZ=              0.0000 YYYX=              0.0000 YYYZ=              0.0000 ZZZX=              0.0000
 ZZZY=              0.0000 XXYY=            -19.0715 XXZZ=            -34.9944 YYZZ=            -34.9944
 XXYZ=              0.0000 YYXZ=              0.0000 ZZXY=              0.0000
 N-N= 2.494692565766D+01 E-N=-1.854118391087D+02  KE= 3.193680654456D+01
 Symmetry A1   KE= 1.486995204585D+01
 Symmetry A2   KE= 1.841383397092D-49
 Symmetry B1   KE= 8.533427249928D+00
 Symmetry B2   KE= 8.533427249398D+00
 Symmetry A1   SP= 1.000000000000D+00
 Symmetry A2   SP= 7.867100011415D-50
 Symmetry B1   SP= 5.973608425378D-17
 Symmetry B2   SP=-6.103705549885D-17
 Orbital energies and kinetic energies (alpha):
                                 1                 2
   4         O                -1.548633          2.079260
   5         O                -1.093718          1.500195
   6         O                -0.525132          2.187453
   7         O                -0.525132          2.187453
   8         O                -0.461731          2.862073
   9         O                -0.210194          0.258906
  10         V                 0.008093          0.050095
  11         V                 0.008093          0.050095
  12         V                 0.020234          0.028435
  13         V                 0.020431          0.037918
  14         V                 0.027895          0.030811
 Total kinetic energy from orbitals= 3.219571299144D+01
                          Isotropic Fermi Contact Couplings
        Atom                 a.u.       MegaHertz       Gauss      10(-4) cm-1
     1  Sc(45)             0.00003       0.03037       0.01084       0.01013
     2  O(17)              0.00006      -0.03361      -0.01199      -0.01121
 --------------------------------------------------------
       Center         ----  Spin Dipole Couplings  ----
                      3XX-RR        3YY-RR        3ZZ-RR
 --------------------------------------------------------
     1   Atom       -0.026767     -0.026767      0.053534
     2   Atom       -0.006892     -0.006892      0.013784
 --------------------------------------------------------
                        XY            XZ            YZ
 --------------------------------------------------------
     1   Atom        0.000000      0.000000      0.000000
     2   Atom        0.000000      0.000000      0.000000
 --------------------------------------------------------


 ---------------------------------------------------------------------------------
              Anisotropic Spin Dipole Couplings in Principal Axis System
 ---------------------------------------------------------------------------------

       Atom             a.u.   MegaHertz   Gauss  10(-4) cm-1        Axes

              Baa    -0.0268    -3.475    -1.240    -1.159  1.0000  0.0000  0.0000
     1 Sc(45) Bbb    -0.0268    -3.475    -1.240    -1.159 -0.0000  1.0000  0.0000
              Bcc     0.0535     6.949     2.480     2.318  0.0000  0.0000  1.0000
 
              Baa    -0.0069     0.499     0.178     0.166  1.0000  0.0000  0.0000
     2 O(17)  Bbb    -0.0069     0.499     0.178     0.166 -0.0000  1.0000  0.0000
              Bcc     0.0138    -0.997    -0.356    -0.333  0.0000  0.0000  1.0000
 

 ---------------------------------------------------------------------------------

 No NMR shielding tensors so no spin-rotation constants.
 Leave Link  601 at Wed Mar 14 06:42:01 2018, MaxMem= 10737418240 cpu:             113.6 elap:               7.4
 (Enter /home1/apps/gaussian/16rA.03/g16/l9999.exe)
 1\1\GINC-C440-101\SP\ROCCSD(T)-Full\Gen\O1Sc1(2)\AANNABE\14-Mar-2018\0
 \\#P ROCCSD(T)=(maxcyc=150, Full, SaveAmplitudes, ReadAmplitudes)/Gen 
 5d 7f SCF=(maxcycles=300) Integral(NoXCTest) MaxDisk=500GB Pop=Regular
  Pseudo=Read Guess=Read\\ScO\\0,2\Sc,0,0.,0.,0.\O,0,0.,0.,1.4\\Version
 =ES64L-G16RevA.03\State=2-SG\HF=-61.8863388\MP2=-62.5901378\PUHF=-61.8
 863388\PMP2-0=-62.5901378\CCSD=-62.5807558\CCSD(T)=-62.6151729\RMSD=4.
 782e-10\PG=C*V [C*(O1Sc1)]\\@


 THE UNDERLYING PHYSICAL LAWS NECESSARY FOR THE 
 MATHEMATICAL THEORY OF A LARGE PART OF PHYSICS AND THE
 WHOLE OF CHEMISTRY ARE THUS COMPLETELY KNOWN, AND THE
 DIFFICULTY IS ONLY THAT THE EXACT APPLICATION OF THESE
 LAWS LEADS TO EQUATIONS MUCH TOO COMPLICATED 
 TO BE SOLUBLE.

                                        -- P. A. M. DIRAC, 1929
 Job cpu time:       0 days 18 hours 58 minutes 12.2 seconds.
 Elapsed time:       0 days  1 hours 11 minutes 27.5 seconds.
 File lengths (MBytes):  RWF=  11423 Int=      0 D2E=      0 Chk=     61 Scr=      1
 Normal termination of Gaussian 16 at Wed Mar 14 06:42:01 2018.
