 Entering Gaussian System, Link 0=g16
 Initial command:
 /home1/apps/gaussian/16rA.03/g16/l1.exe "/tmp/Gau-62937.inp" -scrdir="/tmp/"
 Entering Link 1 = /home1/apps/gaussian/16rA.03/g16/l1.exe PID=     62938.
  
 Copyright (c) 1988,1990,1992,1993,1995,1998,2003,2009,2016,
            Gaussian, Inc.  All Rights Reserved.
  
 This is part of the Gaussian(R) 16 program.  It is based on
 the Gaussian(R) 09 system (copyright 2009, Gaussian, Inc.),
 the Gaussian(R) 03 system (copyright 2003, Gaussian, Inc.),
 the Gaussian(R) 98 system (copyright 1998, Gaussian, Inc.),
 the Gaussian(R) 94 system (copyright 1995, Gaussian, Inc.),
 the Gaussian 92(TM) system (copyright 1992, Gaussian, Inc.),
 the Gaussian 90(TM) system (copyright 1990, Gaussian, Inc.),
 the Gaussian 88(TM) system (copyright 1988, Gaussian, Inc.),
 the Gaussian 86(TM) system (copyright 1986, Carnegie Mellon
 University), and the Gaussian 82(TM) system (copyright 1983,
 Carnegie Mellon University). Gaussian is a federally registered
 trademark of Gaussian, Inc.
  
 This software contains proprietary and confidential information,
 including trade secrets, belonging to Gaussian, Inc.
  
 This software is provided under written license and may be
 used, copied, transmitted, or stored only in accord with that
 written license.
  
 The following legend is applicable only to US Government
 contracts under FAR:
  
                    RESTRICTED RIGHTS LEGEND
  
 Use, reproduction and disclosure by the US Government is
 subject to restrictions as set forth in subparagraphs (a)
 and (c) of the Commercial Computer Software - Restricted
 Rights clause in FAR 52.227-19.
  
 Gaussian, Inc.
 340 Quinnipiac St., Bldg. 40, Wallingford CT 06492
  
  
 ---------------------------------------------------------------
 Warning -- This program may not be used in any manner that
 competes with the business of Gaussian, Inc. or will provide
 assistance to any competitor of Gaussian, Inc.  The licensee
 of this program is prohibited from giving any competitor of
 Gaussian, Inc. access to this program.  By using this program,
 the user acknowledges that Gaussian, Inc. is engaged in the
 business of creating and licensing software in the field of
 computational chemistry and represents and warrants to the
 licensee that it is not a competitor of Gaussian, Inc. and that
 it will not use this program in any manner prohibited above.
 ---------------------------------------------------------------
  

 Cite this work as:
 Gaussian 16, Revision A.03,
 M. J. Frisch, G. W. Trucks, H. B. Schlegel, G. E. Scuseria, 
 M. A. Robb, J. R. Cheeseman, G. Scalmani, V. Barone, 
 G. A. Petersson, H. Nakatsuji, X. Li, M. Caricato, A. V. Marenich, 
 J. Bloino, B. G. Janesko, R. Gomperts, B. Mennucci, H. P. Hratchian, 
 J. V. Ortiz, A. F. Izmaylov, J. L. Sonnenberg, D. Williams-Young, 
 F. Ding, F. Lipparini, F. Egidi, J. Goings, B. Peng, A. Petrone, 
 T. Henderson, D. Ranasinghe, V. G. Zakrzewski, J. Gao, N. Rega, 
 G. Zheng, W. Liang, M. Hada, M. Ehara, K. Toyota, R. Fukuda, 
 J. Hasegawa, M. Ishida, T. Nakajima, Y. Honda, O. Kitao, H. Nakai, 
 T. Vreven, K. Throssell, J. A. Montgomery, Jr., J. E. Peralta, 
 F. Ogliaro, M. J. Bearpark, J. J. Heyd, E. N. Brothers, K. N. Kudin, 
 V. N. Staroverov, T. A. Keith, R. Kobayashi, J. Normand, 
 K. Raghavachari, A. P. Rendell, J. C. Burant, S. S. Iyengar, 
 J. Tomasi, M. Cossi, J. M. Millam, M. Klene, C. Adamo, R. Cammi, 
 J. W. Ochterski, R. L. Martin, K. Morokuma, O. Farkas, 
 J. B. Foresman, and D. J. Fox, Gaussian, Inc., Wallingford CT, 2016.
 
 ******************************************
 Gaussian 16:  ES64L-G16RevA.03 25-Dec-2016
                20-Feb-2018 
 ******************************************
 %mem=80GB
 %cpu=0-31
 SetSPE:  set environment variable "MP_BIND" = "yes"
 SetSPE:  set environment variable "MP_BLIST" = "0,1,2,3,4,5,6,7,8,9,10,11,12,13,14,15,16,17,18,19,20,21,22,23,24,25,26,27,28,29,30,31"
 Will use up to   32 processors via shared memory.
 %chk=ScO
 %rwf=/scratch/04843/aannabe/gaussian/
 ----------------------------------------------------------------------
 #P ROCCSD(T)=(maxcyc=150, Full, SaveAmplitudes, ReadAmplitudes)/Gen 5d
  7f SCF=(maxcycles=300) Integral(NoXCTest) MaxDisk=500GB Pop=Regular P
 seudo=Read Guess=Read IOp(5/15=2)
 ----------------------------------------------------------------------
 1/38=1,172=1/1;
 2/12=2,17=6,18=5,40=1/2;
 3/5=7,8=11,11=2,16=1,17=8,25=1,30=1,47=8,116=101/1,2,3;
 4/5=1/1;
 5/5=2,7=300,15=2,38=6/2;
 8/5=-1,6=4,9=120000,10=90,24=1/1,4;
 9/5=7,6=150,14=2,77=1/13;
 6//1;
 99/5=1,9=1/99;
 Leave Link    1 at Tue Feb 20 22:16:31 2018, MaxMem= 10737418240 cpu:               8.4 elap:               0.3
 (Enter /home1/apps/gaussian/16rA.03/g16/l101.exe)
 ---
 ScO
 ---
 Symbolic Z-matrix:
 Charge =  0 Multiplicity = 2
 Sc                    0.        0.        0. 
 O                     0.        0.        1.3 
 
 ITRead=  0  0
 MicOpt= -1 -1
 NAtoms=      2 NQM=        2 NQMF=       0 NMMI=      0 NMMIF=      0
                NMic=       0 NMicF=      0.
                    Isotopes and Nuclear Properties:
 (Nuclear quadrupole moments (NQMom) in fm**2, nuclear magnetic moments (NMagM)
  in nuclear magnetons)

  Atom         1           2
 IAtWgt=          45          16
 AtmWgt=  44.9559136  15.9949146
 NucSpn=           7           0
 AtZEff=  -0.0000000  -0.0000000
 NQMom=  -22.0000000   0.0000000
 NMagM=    4.7564830   0.0000000
 AtZNuc=  21.0000000   8.0000000
 Leave Link  101 at Tue Feb 20 22:16:31 2018, MaxMem= 10737418240 cpu:               3.0 elap:               0.1
 (Enter /home1/apps/gaussian/16rA.03/g16/l202.exe)
                          Input orientation:                          
 ---------------------------------------------------------------------
 Center     Atomic      Atomic             Coordinates (Angstroms)
 Number     Number       Type             X           Y           Z
 ---------------------------------------------------------------------
      1         21           0        0.000000    0.000000    0.000000
      2          8           0        0.000000    0.000000    1.300000
 ---------------------------------------------------------------------
 Stoichiometry    OSc(2)
 Framework group  C*V[C*(OSc)]
 Deg. of freedom     1
 Full point group                 C*V     NOp   4
 Largest Abelian subgroup         C2V     NOp   4
 Largest concise Abelian subgroup C1      NOp   1
                         Standard orientation:                         
 ---------------------------------------------------------------------
 Center     Atomic      Atomic             Coordinates (Angstroms)
 Number     Number       Type             X           Y           Z
 ---------------------------------------------------------------------
      1         21           0        0.000000    0.000000    0.358621
      2          8           0        0.000000    0.000000   -0.941379
 ---------------------------------------------------------------------
 Rotational constants (GHZ):           0.0000000          25.3478630          25.3478630
 Leave Link  202 at Tue Feb 20 22:16:31 2018, MaxMem= 10737418240 cpu:               0.7 elap:               0.1
 (Enter /home1/apps/gaussian/16rA.03/g16/l301.exe)
 General basis read from cards:  (5D, 7F)
 Centers:       1
 S 1 1.00
     Exponent=  2.7152780000D+06 Coefficients=  1.0000000000D+00
 S 1 1.00
     Exponent=  4.0659840000D+05 Coefficients=  1.0000000000D+00
 S 1 1.00
     Exponent=  9.2530040000D+04 Coefficients=  1.0000000000D+00
 S 1 1.00
     Exponent=  2.6207920000D+04 Coefficients=  1.0000000000D+00
 S 1 1.00
     Exponent=  8.5494290000D+03 Coefficients=  1.0000000000D+00
 S 1 1.00
     Exponent=  3.0859750000D+03 Coefficients=  1.0000000000D+00
 S 1 1.00
     Exponent=  1.2031720000D+03 Coefficients=  1.0000000000D+00
 S 1 1.00
     Exponent=  4.9848690000D+02 Coefficients=  1.0000000000D+00
 S 1 1.00
     Exponent=  2.1673600000D+02 Coefficients=  1.0000000000D+00
 S 1 1.00
     Exponent=  9.7874760000D+01 Coefficients=  1.0000000000D+00
 S 1 1.00
     Exponent=  4.5204330000D+01 Coefficients=  1.0000000000D+00
 S 1 1.00
     Exponent=  2.0211870000D+01 Coefficients=  1.0000000000D+00
 S 1 1.00
     Exponent=  9.5747510000D+00 Coefficients=  1.0000000000D+00
 S 1 1.00
     Exponent=  4.5403460000D+00 Coefficients=  1.0000000000D+00
 S 1 1.00
     Exponent=  1.9956870000D+00 Coefficients=  1.0000000000D+00
 S 1 1.00
     Exponent=  9.4221500000D-01 Coefficients=  1.0000000000D+00
 S 1 1.00
     Exponent=  4.1784500000D-01 Coefficients=  1.0000000000D+00
 S 1 1.00
     Exponent=  9.5761000000D-02 Coefficients=  1.0000000000D+00
 S 1 1.00
     Exponent=  5.1351000000D-02 Coefficients=  1.0000000000D+00
 S 1 1.00
     Exponent=  2.3878000000D-02 Coefficients=  1.0000000000D+00
 S 1 1.00
     Exponent=  2.6472000000D+00 Coefficients=  1.0000000000D+00
 S 1 1.00
     Exponent=  6.2170000000D-01 Coefficients=  1.0000000000D+00
 S 1 1.00
     Exponent=  1.1100000000D-02 Coefficients=  1.0000000000D+00
 P 1 1.00
     Exponent=  1.0592190000D+04 Coefficients=  1.0000000000D+00
 P 1 1.00
     Exponent=  2.5075330000D+03 Coefficients=  1.0000000000D+00
 P 1 1.00
     Exponent=  8.1445710000D+02 Coefficients=  1.0000000000D+00
 P 1 1.00
     Exponent=  3.1151950000D+02 Coefficients=  1.0000000000D+00
 P 1 1.00
     Exponent=  1.3196170000D+02 Coefficients=  1.0000000000D+00
 P 1 1.00
     Exponent=  5.9987180000D+01 Coefficients=  1.0000000000D+00
 P 1 1.00
     Exponent=  2.8662500000D+01 Coefficients=  1.0000000000D+00
 P 1 1.00
     Exponent=  1.4108510000D+01 Coefficients=  1.0000000000D+00
 P 1 1.00
     Exponent=  7.1037060000D+00 Coefficients=  1.0000000000D+00
 P 1 1.00
     Exponent=  3.6092000000D+00 Coefficients=  1.0000000000D+00
 P 1 1.00
     Exponent=  1.7760700000D+00 Coefficients=  1.0000000000D+00
 P 1 1.00
     Exponent=  8.5476000000D-01 Coefficients=  1.0000000000D+00
 P 1 1.00
     Exponent=  4.0223900000D-01 Coefficients=  1.0000000000D+00
 P 1 1.00
     Exponent=  1.5468000000D-01 Coefficients=  1.0000000000D+00
 P 1 1.00
     Exponent=  6.4888000000D-02 Coefficients=  1.0000000000D+00
 P 1 1.00
     Exponent=  2.6301000000D-02 Coefficients=  1.0000000000D+00
 P 1 1.00
     Exponent=  3.4418000000D+00 Coefficients=  1.0000000000D+00
 P 1 1.00
     Exponent=  8.0840000000D-01 Coefficients=  1.0000000000D+00
 P 1 1.00
     Exponent=  1.0660000000D-02 Coefficients=  1.0000000000D+00
 D 1 1.00
     Exponent=  5.0654200000D+01 Coefficients=  1.0000000000D+00
 D 1 1.00
     Exponent=  1.4732500000D+01 Coefficients=  1.0000000000D+00
 D 1 1.00
     Exponent=  5.1804600000D+00 Coefficients=  1.0000000000D+00
 D 1 1.00
     Exponent=  2.0195900000D+00 Coefficients=  1.0000000000D+00
 D 1 1.00
     Exponent=  7.9921900000D-01 Coefficients=  1.0000000000D+00
 D 1 1.00
     Exponent=  3.0531600000D-01 Coefficients=  1.0000000000D+00
 D 1 1.00
     Exponent=  1.1044400000D-01 Coefficients=  1.0000000000D+00
 D 1 1.00
     Exponent=  3.7065000000D-02 Coefficients=  1.0000000000D+00
 D 1 1.00
     Exponent=  1.8520000000D+00 Coefficients=  1.0000000000D+00
 D 1 1.00
     Exponent=  7.8750000000D-01 Coefficients=  1.0000000000D+00
 D 1 1.00
     Exponent=  1.2440000000D-02 Coefficients=  1.0000000000D+00
 F 1 1.00
     Exponent=  2.1048000000D+00 Coefficients=  1.0000000000D+00
 F 1 1.00
     Exponent=  6.5870000000D-01 Coefficients=  1.0000000000D+00
 F 1 1.00
     Exponent=  1.6360000000D-01 Coefficients=  1.0000000000D+00
 F 1 1.00
     Exponent=  4.0630000000D-02 Coefficients=  1.0000000000D+00
 G 1 1.00
     Exponent=  1.7850000000D+00 Coefficients=  1.0000000000D+00
 G 1 1.00
     Exponent=  4.1120000000D-01 Coefficients=  1.0000000000D+00
 G 1 1.00
     Exponent=  9.4730000000D-02 Coefficients=  1.0000000000D+00
 ****
 Centers:       2
 S 1 1.00
     Exponent=  1.5330000000D+04 Coefficients=  1.0000000000D+00
 S 1 1.00
     Exponent=  2.2990000000D+03 Coefficients=  1.0000000000D+00
 S 1 1.00
     Exponent=  5.2240000000D+02 Coefficients=  1.0000000000D+00
 S 1 1.00
     Exponent=  1.4730000000D+02 Coefficients=  1.0000000000D+00
 S 1 1.00
     Exponent=  4.7550000000D+01 Coefficients=  1.0000000000D+00
 S 1 1.00
     Exponent=  1.6760000000D+01 Coefficients=  1.0000000000D+00
 S 1 1.00
     Exponent=  6.2070000000D+00 Coefficients=  1.0000000000D+00
 S 1 1.00
     Exponent=  6.8820000000D-01 Coefficients=  1.0000000000D+00
 S 1 1.00
     Exponent=  1.7520000000D+00 Coefficients=  1.0000000000D+00
 S 1 1.00
     Exponent=  2.3840000000D-01 Coefficients=  1.0000000000D+00
 S 1 1.00
     Exponent=  7.8450000000D+00 Coefficients=  1.0000000000D+00
 S 1 1.00
     Exponent=  2.1032000000D+01 Coefficients=  1.0000000000D+00
 S 1 1.00
     Exponent=  7.3760000000D-02 Coefficients=  1.0000000000D+00
 P 1 1.00
     Exponent=  3.4460000000D+01 Coefficients=  1.0000000000D+00
 P 1 1.00
     Exponent=  7.7490000000D+00 Coefficients=  1.0000000000D+00
 P 1 1.00
     Exponent=  2.2800000000D+00 Coefficients=  1.0000000000D+00
 P 1 1.00
     Exponent=  7.1560000000D-01 Coefficients=  1.0000000000D+00
 P 1 1.00
     Exponent=  2.1400000000D-01 Coefficients=  1.0000000000D+00
 P 1 1.00
     Exponent=  1.5159000000D+01 Coefficients=  1.0000000000D+00
 P 1 1.00
     Exponent=  5.7437000000D+01 Coefficients=  1.0000000000D+00
 P 1 1.00
     Exponent=  5.9740000000D-02 Coefficients=  1.0000000000D+00
 D 1 1.00
     Exponent=  2.3140000000D+00 Coefficients=  1.0000000000D+00
 D 1 1.00
     Exponent=  6.4500000000D-01 Coefficients=  1.0000000000D+00
 D 1 1.00
     Exponent=  1.5858000000D+01 Coefficients=  1.0000000000D+00
 D 1 1.00
     Exponent=  2.1400000000D-01 Coefficients=  1.0000000000D+00
 F 1 1.00
     Exponent=  1.4280000000D+00 Coefficients=  1.0000000000D+00
 F 1 1.00
     Exponent=  5.0000000000D-01 Coefficients=  1.0000000000D+00
 ****
 ======================================================================================================
                                       Pseudopotential Parameters
 ======================================================================================================
  Center     Atomic      Valence      Angular      Power
  Number     Number     Electrons     Momentum     of R      Exponent        Coefficient   SO-Coeffient
 ======================================================================================================
    1         21           11
                                      D and up 
                                                     1        1.6491656       11.00000000    0.00000000
                                                     3        3.0683329       18.14082106    0.00000000
                                                     2        2.4198539      -35.19310566    0.00000000
                                      S - D
                                                     2        7.6031935       97.62913482    0.00000000
                                      P - D
                                                     2        5.3112183       33.97033635    0.00000000
    2          8            6
                                      P and up 
                                                     1       12.3099700        6.00000000    0.00000000
                                                     3       14.7696200       73.85984000    0.00000000
                                                     2       13.7141900      -47.87600000    0.00000000
                                      S - P
                                                     2       13.6551200       85.86406000    0.00000000
 ======================================================================================================
 Ernie: Thresh=  0.10000D-02 Tol=  0.10000D-05 Strict=F.
 There are   144 symmetry adapted cartesian basis functions of A1  symmetry.
 There are    30 symmetry adapted cartesian basis functions of A2  symmetry.
 There are    69 symmetry adapted cartesian basis functions of B1  symmetry.
 There are    69 symmetry adapted cartesian basis functions of B2  symmetry.
 There are   114 symmetry adapted basis functions of A1  symmetry.
 There are    27 symmetry adapted basis functions of A2  symmetry.
 There are    60 symmetry adapted basis functions of B1  symmetry.
 There are    60 symmetry adapted basis functions of B2  symmetry.
   261 basis functions,   312 primitive gaussians,   312 cartesian basis functions
     9 alpha electrons        8 beta electrons
       nuclear repulsion energy        26.8659199390 Hartrees.
 IExCor=    0 DFT=F Ex=HF Corr=None ExCW=0 ScaHFX=  1.000000
 ScaDFX=  1.000000  1.000000  1.000000  1.000000 ScalE2=  1.000000  1.000000
 IRadAn=      5 IRanWt=     -1 IRanGd=            0 ICorTp=0 IEmpDi=  4
 NAtoms=    2 NActive=    2 NUniq=    2 SFac= 1.00D+00 NAtFMM=   60 NAOKFM=F Big=F
 Integral buffers will be    131072 words long.
 Raffenetti 2 integral format.
 Two-electron integral symmetry is turned on.
 Leave Link  301 at Tue Feb 20 22:16:32 2018, MaxMem= 10737418240 cpu:               7.9 elap:               0.3
 (Enter /home1/apps/gaussian/16rA.03/g16/l302.exe)
 NPDir=0 NMtPBC=     1 NCelOv=     1 NCel=       1 NClECP=     1 NCelD=      1
         NCelK=      1 NCelE2=     1 NClLst=     1 CellRange=     0.0.
 One-electron integrals computed using PRISM.
 One-electron integral symmetry used in STVInt
   4 Symmetry operations used in ECPInt.
 ECPInt:  NShTT=    3828 NPrTT=    3828 LenC2=    3615 LenP2D=    3614.
 LDataN:  DoStor=T MaxTD1= 8 Len=  415
 NBasis=   261 RedAO= T EigKep=  1.23D-06  NBF=   114    27    60    60
 NBsUse=   257 1.00D-06 EigRej=  9.21D-07 NBFU=   112    27    59    59
 Leave Link  302 at Tue Feb 20 22:16:33 2018, MaxMem= 10737418240 cpu:              30.5 elap:               1.0
 (Enter /home1/apps/gaussian/16rA.03/g16/l303.exe)
 DipDrv:  MaxL=1.
 Leave Link  303 at Tue Feb 20 22:16:33 2018, MaxMem= 10737418240 cpu:               2.3 elap:               0.1
 (Enter /home1/apps/gaussian/16rA.03/g16/l401.exe)
 Initial guess from the checkpoint file:  "ScO.chk"
 B after Tr=     0.000000    0.000000   -0.000000
         Rot=    1.000000    0.000000    0.000000    0.000000 Ang=   0.00 deg.
 Guess basis will be translated and rotated to current coordinates.
 JPrj=2 DoOrth=T DoCkMO=T.
 Initial guess orbital symmetries:
       Occupied  (SG) (SG) (PI) (PI) (SG) (SG) (PI) (PI) (SG)
       Virtual   (PI) (PI) (SG) (SG) (DLTA) (DLTA) (PI) (PI) (PI)
                 (PI) (SG) (SG) (DLTA) (DLTA) (SG) (PI) (PI) (SG)
                 (PI) (PI) (SG) (PI) (PI) (PHI) (PHI) (DLTA) (DLTA)
                 (SG) (DLTA) (DLTA) (PI) (PI) (SG) (PI) (PI) (SG)
                 (SG) (SG) (DLTA) (DLTA) (PI) (PI) (DLTA) (DLTA)
                 (?A) (?A) (PHI) (PHI) (SG) (PI) (PI) (PI) (PI)
                 (SG) (PHI) (PHI) (DLTA) (DLTA) (SG) (PI) (PI)
                 (SG) (PI) (PI) (DLTA) (DLTA) (SG) (SG) (DLTA)
                 (DLTA) (PI) (PI) (SG) (SG) (PI) (PI) (PI) (PI)
                 (SG) (DLTA) (DLTA) (PHI) (PHI) (?A) (?A) (SG)
                 (PI) (PI) (SG) (DLTA) (DLTA) (PHI) (PHI) (PI)
                 (PI) (PHI) (PHI) (DLTA) (DLTA) (SG) (PI) (PI)
                 (DLTA) (DLTA) (SG) (DLTA) (DLTA) (PI) (PI) (SG)
                 (PI) (PI) (SG) (SG) (PI) (PI) (SG) (PI) (PI) (SG)
                 (SG) (DLTA) (DLTA) (PI) (PI) (SG) (PHI) (PHI)
                 (PHI) (PHI) (DLTA) (DLTA) (DLTA) (DLTA) (PI) (PI)
                 (PI) (PI) (SG) (DLTA) (DLTA) (SG) (PI) (PI) (SG)
                 (?A) (?A) (PHI) (PHI) (DLTA) (DLTA) (PI) (PI)
                 (SG) (SG) (PI) (PI) (SG) (DLTA) (DLTA) (PI) (PI)
                 (SG) (PI) (PI) (SG) (SG) (SG) (PI) (PI) (SG) (DLTA)
                 (DLTA) (PI) (PI) (SG) (SG) (PI) (PI) (SG) (SG)
                 (DLTA) (DLTA) (PI) (PI) (SG) (PI) (PI) (SG) (DLTA)
                 (DLTA) (PI) (PI) (SG) (SG) (SG) (PI) (PI) (SG)
                 (PI) (PI) (SG) (SG) (SG) (PI) (PI) (SG) (DLTA)
                 (DLTA) (PI) (PI) (SG) (SG) (SG) (PI) (PI) (SG)
                 (PI) (PI) (SG) (SG) (SG) (PI) (PI) (SG) (SG) (PI)
                 (PI) (SG) (SG) (SG) (PI) (PI) (SG) (SG) (SG) (PI)
                 (PI) (SG) (SG) (SG) (SG) (PI) (PI) (SG) (SG) (SG)
                 (SG)
 The electronic state of the initial guess is 2-SG.
 Leave Link  401 at Tue Feb 20 22:16:33 2018, MaxMem= 10737418240 cpu:              13.6 elap:               0.5
 (Enter /home1/apps/gaussian/16rA.03/g16/l502.exe)
 Keep R1 and R2 ints in memory in symmetry-blocked form, NReq=734602573.
 FoFCou: FMM=F IPFlag=           8 FMFlag=           0 FMFlg1=           0
         NFxFlg=           0 DoJE=F BraDBF=F KetDBF=F FulRan=T
         wScrn=  0.000000 ICntrl=       600 IOpCl=  0 I1Cent=           0 NGrid=           0
         NMat0=    1 NMatS0=  34191 NMatT0=    0 NMatD0=    1 NMtDS0=    0 NMtDT0=    0
 Petite list used in FoFCou.
 Restricted open shell SCF:
 Using DIIS extrapolation, IDIIS=  1040.
 NGot= 10737418240 LenX= 10437146893 LenY= 10437049108
 Requested convergence on RMS density matrix=1.00D-08 within 300 cycles.
 Requested convergence on MAX density matrix=1.00D-06.
 Requested convergence on             energy=1.00D-06.
 No special actions if energy rises.

 Cycle   1  Pass 1  IDiag  1:
 E= -61.6050687923387    
 DIIS: error= 1.31D-01 at cycle   1 NSaved=   1.
 NSaved= 1 IEnMin= 1 EnMin= -61.6050687923387     IErMin= 1 ErrMin= 1.31D-01
 ErrMax= 1.31D-01  0.00D+00 EMaxC= 1.00D-01 BMatC= 3.18D+00 BMatP= 3.18D+00
 IDIUse=3 WtCom= 0.00D+00 WtEn= 1.00D+00
 Coeff-Com:  0.100D+01
 Coeff-En:   0.100D+01
 Coeff:      0.100D+01
 Gap=     0.103 Goal=   None    Shift=    0.000
 GapD=    0.103 DampG=1.000 DampE=0.125 DampFc=0.1250 IDamp=-1.
 Damping current iteration by 1.25D-01
 RMSDP=6.72D-03 MaxDP=2.51D-01              OVMax= 1.19D-01

 Cycle   2  Pass 1  IDiag  1:
 E= -61.6334211002795     Delta-E=       -0.028352307941 Rises=F Damp=T
 DIIS: error= 1.14D-01 at cycle   2 NSaved=   2.
 NSaved= 2 IEnMin= 2 EnMin= -61.6334211002795     IErMin= 2 ErrMin= 1.14D-01
 ErrMax= 1.14D-01  0.00D+00 EMaxC= 1.00D-01 BMatC= 2.45D+00 BMatP= 3.18D+00
 IDIUse=3 WtCom= 0.00D+00 WtEn= 1.00D+00
 Coeff-Com: -0.712D+01 0.812D+01
 Coeff-En:   0.000D+00 0.100D+01
 Coeff:      0.000D+00 0.100D+01
 Gap=     0.078 Goal=   None    Shift=    0.000
 RMSDP=5.87D-03 MaxDP=2.19D-01 DE=-2.84D-02 OVMax= 7.20D-02

 Cycle   3  Pass 1  IDiag  1:
 E= -61.8570488948016     Delta-E=       -0.223627794522 Rises=F Damp=F
 DIIS: error= 9.91D-03 at cycle   3 NSaved=   3.
 NSaved= 3 IEnMin= 3 EnMin= -61.8570488948016     IErMin= 3 ErrMin= 9.91D-03
 ErrMax= 9.91D-03  0.00D+00 EMaxC= 1.00D-01 BMatC= 9.74D-03 BMatP= 2.45D+00
 IDIUse=3 WtCom= 9.01D-01 WtEn= 9.91D-02
 Coeff-Com: -0.102D+01 0.115D+01 0.873D+00
 Coeff-En:   0.000D+00 0.000D+00 0.100D+01
 Coeff:     -0.918D+00 0.103D+01 0.885D+00
 Gap=     0.068 Goal=   None    Shift=    0.000
 RMSDP=9.92D-04 MaxDP=1.10D-01 DE=-2.24D-01 OVMax= 6.79D-02

 Cycle   4  Pass 1  IDiag  1:
 E= -61.8744399312686     Delta-E=       -0.017391036467 Rises=F Damp=F
 DIIS: error= 3.77D-03 at cycle   4 NSaved=   4.
 NSaved= 4 IEnMin= 4 EnMin= -61.8744399312686     IErMin= 4 ErrMin= 3.77D-03
 ErrMax= 3.77D-03  0.00D+00 EMaxC= 1.00D-01 BMatC= 2.04D-03 BMatP= 9.74D-03
 IDIUse=3 WtCom= 9.62D-01 WtEn= 3.77D-02
 Coeff-Com: -0.124D+01 0.142D+01-0.181D+00 0.101D+01
 Coeff-En:   0.000D+00 0.000D+00 0.000D+00 0.100D+01
 Coeff:     -0.120D+01 0.136D+01-0.175D+00 0.101D+01
 Gap=     0.070 Goal=   None    Shift=    0.000
 RMSDP=9.18D-04 MaxDP=1.12D-01 DE=-1.74D-02 OVMax= 5.00D-02

 Cycle   5  Pass 1  IDiag  1:
 E= -61.8777640122143     Delta-E=       -0.003324080946 Rises=F Damp=F
 DIIS: error= 3.55D-03 at cycle   5 NSaved=   5.
 NSaved= 5 IEnMin= 5 EnMin= -61.8777640122143     IErMin= 5 ErrMin= 3.55D-03
 ErrMax= 3.55D-03  0.00D+00 EMaxC= 1.00D-01 BMatC= 7.61D-04 BMatP= 2.04D-03
 IDIUse=3 WtCom= 9.64D-01 WtEn= 3.55D-02
 Coeff-Com: -0.109D+01 0.125D+01-0.392D+00 0.565D-01 0.118D+01
 Coeff-En:   0.000D+00 0.000D+00 0.000D+00 0.000D+00 0.100D+01
 Coeff:     -0.105D+01 0.120D+01-0.378D+00 0.545D-01 0.117D+01
 Gap=     0.069 Goal=   None    Shift=    0.000
 RMSDP=1.29D-03 MaxDP=2.49D-01 DE=-3.32D-03 OVMax= 5.32D-02

 Cycle   6  Pass 1  IDiag  1:
 E= -61.8804219574383     Delta-E=       -0.002657945224 Rises=F Damp=F
 DIIS: error= 1.62D-03 at cycle   6 NSaved=   6.
 NSaved= 6 IEnMin= 6 EnMin= -61.8804219574383     IErMin= 6 ErrMin= 1.62D-03
 ErrMax= 1.62D-03  0.00D+00 EMaxC= 1.00D-01 BMatC= 2.72D-04 BMatP= 7.61D-04
 IDIUse=3 WtCom= 9.84D-01 WtEn= 1.62D-02
 Coeff-Com: -0.959D+00 0.110D+01-0.203D+00-0.121D+00 0.269D+00 0.917D+00
 Coeff-En:   0.000D+00 0.000D+00 0.000D+00 0.000D+00 0.000D+00 0.100D+01
 Coeff:     -0.944D+00 0.108D+01-0.200D+00-0.119D+00 0.265D+00 0.918D+00
 Gap=     0.068 Goal=   None    Shift=    0.000
 RMSDP=1.07D-03 MaxDP=2.34D-01 DE=-2.66D-03 OVMax= 2.46D-02

 Cycle   7  Pass 1  IDiag  1:
 E= -61.8807775129420     Delta-E=       -0.000355555504 Rises=F Damp=F
 DIIS: error= 1.59D-03 at cycle   7 NSaved=   7.
 NSaved= 7 IEnMin= 7 EnMin= -61.8807775129420     IErMin= 7 ErrMin= 1.59D-03
 ErrMax= 1.59D-03  0.00D+00 EMaxC= 1.00D-01 BMatC= 1.56D-04 BMatP= 2.72D-04
 IDIUse=3 WtCom= 9.84D-01 WtEn= 1.59D-02
 Coeff-Com: -0.801D+00 0.914D+00-0.801D-01-0.172D-01-0.272D+00 0.178D+00
 Coeff-Com:  0.108D+01
 Coeff-En:   0.000D+00 0.000D+00 0.000D+00 0.000D+00 0.000D+00 0.000D+00
 Coeff-En:   0.100D+01
 Coeff:     -0.788D+00 0.900D+00-0.789D-01-0.169D-01-0.267D+00 0.175D+00
 Coeff:      0.108D+01
 Gap=     0.068 Goal=   None    Shift=    0.000
 RMSDP=4.88D-04 MaxDP=9.29D-02 DE=-3.56D-04 OVMax= 1.78D-02

 Cycle   8  Pass 1  IDiag  1:
 E= -61.8811908182562     Delta-E=       -0.000413305314 Rises=F Damp=F
 DIIS: error= 1.34D-03 at cycle   8 NSaved=   8.
 NSaved= 8 IEnMin= 8 EnMin= -61.8811908182562     IErMin= 8 ErrMin= 1.34D-03
 ErrMax= 1.34D-03  0.00D+00 EMaxC= 1.00D-01 BMatC= 1.01D-04 BMatP= 1.56D-04
 IDIUse=3 WtCom= 9.87D-01 WtEn= 1.34D-02
 Coeff-Com: -0.677D+00 0.774D+00-0.125D+00 0.343D-01 0.540D-01-0.920D-01
 Coeff-Com: -0.293D+00 0.132D+01
 Coeff-En:   0.000D+00 0.000D+00 0.000D+00 0.000D+00 0.000D+00 0.000D+00
 Coeff-En:   0.000D+00 0.100D+01
 Coeff:     -0.668D+00 0.763D+00-0.124D+00 0.338D-01 0.533D-01-0.908D-01
 Coeff:     -0.289D+00 0.132D+01
 Gap=     0.068 Goal=   None    Shift=    0.000
 RMSDP=2.11D-04 MaxDP=4.25D-02 DE=-4.13D-04 OVMax= 1.17D-02

 Cycle   9  Pass 1  IDiag  1:
 E= -61.8814006036007     Delta-E=       -0.000209785344 Rises=F Damp=F
 DIIS: error= 1.13D-03 at cycle   9 NSaved=   9.
 NSaved= 9 IEnMin= 9 EnMin= -61.8814006036007     IErMin= 9 ErrMin= 1.13D-03
 ErrMax= 1.13D-03  0.00D+00 EMaxC= 1.00D-01 BMatC= 7.31D-05 BMatP= 1.01D-04
 IDIUse=3 WtCom= 9.89D-01 WtEn= 1.13D-02
 Coeff-Com: -0.569D+00 0.650D+00-0.116D+00 0.249D-01 0.106D+00-0.425D-01
 Coeff-Com: -0.404D+00 0.240D+00 0.111D+01
 Coeff-En:   0.000D+00 0.000D+00 0.000D+00 0.000D+00 0.000D+00 0.000D+00
 Coeff-En:   0.000D+00 0.000D+00 0.100D+01
 Coeff:     -0.562D+00 0.643D+00-0.115D+00 0.246D-01 0.105D+00-0.420D-01
 Coeff:     -0.399D+00 0.237D+00 0.111D+01
 Gap=     0.068 Goal=   None    Shift=    0.000
 RMSDP=1.64D-04 MaxDP=2.50D-02 DE=-2.10D-04 OVMax= 1.07D-02

 Cycle  10  Pass 1  IDiag  1:
 E= -61.8815558601476     Delta-E=       -0.000155256547 Rises=F Damp=F
 DIIS: error= 9.64D-04 at cycle  10 NSaved=  10.
 NSaved=10 IEnMin=10 EnMin= -61.8815558601476     IErMin=10 ErrMin= 9.64D-04
 ErrMax= 9.64D-04  0.00D+00 EMaxC= 1.00D-01 BMatC= 5.19D-05 BMatP= 7.31D-05
 IDIUse=3 WtCom= 9.90D-01 WtEn= 9.64D-03
 Coeff-Com: -0.250D+00 0.285D+00-0.306D-01-0.216D-01-0.463D-01 0.187D+00
 Coeff-Com:  0.322D+00-0.196D+01-0.199D+00 0.271D+01
 Coeff-En:   0.000D+00 0.000D+00 0.000D+00 0.000D+00 0.000D+00 0.000D+00
 Coeff-En:   0.000D+00 0.000D+00 0.000D+00 0.100D+01
 Coeff:     -0.247D+00 0.282D+00-0.303D-01-0.214D-01-0.459D-01 0.185D+00
 Coeff:      0.319D+00-0.194D+01-0.197D+00 0.270D+01
 Gap=     0.068 Goal=   None    Shift=    0.000
 RMSDP=1.62D-04 MaxDP=1.94D-02 DE=-1.55D-04 OVMax= 2.68D-02

 Cycle  11  Pass 1  IDiag  1:
 E= -61.8818542657332     Delta-E=       -0.000298405586 Rises=F Damp=F
 DIIS: error= 4.48D-04 at cycle  11 NSaved=  11.
 NSaved=11 IEnMin=11 EnMin= -61.8818542657332     IErMin=11 ErrMin= 4.48D-04
 ErrMax= 4.48D-04  0.00D+00 EMaxC= 1.00D-01 BMatC= 1.09D-05 BMatP= 5.19D-05
 IDIUse=3 WtCom= 9.96D-01 WtEn= 4.48D-03
 Coeff-Com: -0.544D-01 0.620D-01-0.205D-03-0.638D-02-0.455D-01 0.635D-01
 Coeff-Com:  0.171D+00-0.366D+00-0.507D+00 0.259D+00 0.142D+01
 Coeff-En:   0.000D+00 0.000D+00 0.000D+00 0.000D+00 0.000D+00 0.000D+00
 Coeff-En:   0.000D+00 0.000D+00 0.000D+00 0.000D+00 0.100D+01
 Coeff:     -0.542D-01 0.618D-01-0.204D-03-0.635D-02-0.453D-01 0.632D-01
 Coeff:      0.171D+00-0.364D+00-0.504D+00 0.258D+00 0.142D+01
 Gap=     0.069 Goal=   None    Shift=    0.000
 RMSDP=1.10D-04 MaxDP=1.18D-02 DE=-2.98D-04 OVMax= 1.89D-02

 Cycle  12  Pass 1  IDiag  1:
 E= -61.8819318887525     Delta-E=       -0.000077623019 Rises=F Damp=F
 DIIS: error= 9.41D-05 at cycle  12 NSaved=  12.
 NSaved=12 IEnMin=12 EnMin= -61.8819318887525     IErMin=12 ErrMin= 9.41D-05
 ErrMax= 9.41D-05  0.00D+00 EMaxC= 1.00D-01 BMatC= 5.35D-07 BMatP= 1.09D-05
 IDIUse=1 WtCom= 1.00D+00 WtEn= 0.00D+00
 Coeff-Com:  0.256D-02-0.294D-02 0.652D-03 0.268D-02-0.366D-02-0.919D-02
 Coeff-Com: -0.222D-01 0.236D+00-0.851D-01-0.417D+00 0.311D+00 0.987D+00
 Coeff:      0.256D-02-0.294D-02 0.652D-03 0.268D-02-0.366D-02-0.919D-02
 Coeff:     -0.222D-01 0.236D+00-0.851D-01-0.417D+00 0.311D+00 0.987D+00
 Gap=     0.069 Goal=   None    Shift=    0.000
 RMSDP=4.00D-05 MaxDP=7.63D-03 DE=-7.76D-05 OVMax= 5.16D-03

 Cycle  13  Pass 1  IDiag  1:
 E= -61.8819356521941     Delta-E=       -0.000003763442 Rises=F Damp=F
 DIIS: error= 2.96D-06 at cycle  13 NSaved=  13.
 NSaved=13 IEnMin=13 EnMin= -61.8819356521941     IErMin=13 ErrMin= 2.96D-06
 ErrMax= 2.96D-06  0.00D+00 EMaxC= 1.00D-01 BMatC= 1.45D-09 BMatP= 5.35D-07
 IDIUse=1 WtCom= 1.00D+00 WtEn= 0.00D+00
 Coeff-Com:  0.699D-03-0.793D-03-0.258D-03 0.323D-03 0.186D-02-0.217D-02
 Coeff-Com: -0.769D-02 0.228D-01 0.233D-01-0.254D-01-0.591D-01 0.628D-01
 Coeff-Com:  0.984D+00
 Coeff:      0.699D-03-0.793D-03-0.258D-03 0.323D-03 0.186D-02-0.217D-02
 Coeff:     -0.769D-02 0.228D-01 0.233D-01-0.254D-01-0.591D-01 0.628D-01
 Coeff:      0.984D+00
 Gap=     0.069 Goal=   None    Shift=    0.000
 RMSDP=1.13D-05 MaxDP=2.43D-03 DE=-3.76D-06 OVMax= 1.80D-04

 Cycle  14  Pass 1  IDiag  1:
 E= -61.8819356604517     Delta-E=       -0.000000008258 Rises=F Damp=F
 DIIS: error= 2.07D-06 at cycle  14 NSaved=  14.
 NSaved=14 IEnMin=14 EnMin= -61.8819356604517     IErMin=14 ErrMin= 2.07D-06
 ErrMax= 2.07D-06  0.00D+00 EMaxC= 1.00D-01 BMatC= 3.03D-10 BMatP= 1.45D-09
 IDIUse=1 WtCom= 1.00D+00 WtEn= 0.00D+00
 Coeff-Com:  0.737D-03-0.843D-03 0.155D-03-0.771D-04-0.186D-03 0.648D-03
 Coeff-Com:  0.169D-02-0.694D-02-0.870D-03 0.116D-01 0.487D-03-0.431D-01
 Coeff-Com:  0.371D-01 0.100D+01
 Coeff:      0.737D-03-0.843D-03 0.155D-03-0.771D-04-0.186D-03 0.648D-03
 Coeff:      0.169D-02-0.694D-02-0.870D-03 0.116D-01 0.487D-03-0.431D-01
 Coeff:      0.371D-01 0.100D+01
 Gap=     0.069 Goal=   None    Shift=    0.000
 RMSDP=2.46D-06 MaxDP=5.04D-04 DE=-8.26D-09 OVMax= 5.81D-05

 Cycle  15  Pass 1  IDiag  1:
 E= -61.8819356620885     Delta-E=       -0.000000001637 Rises=F Damp=F
 DIIS: error= 1.28D-06 at cycle  15 NSaved=  15.
 NSaved=15 IEnMin=15 EnMin= -61.8819356620885     IErMin=15 ErrMin= 1.28D-06
 ErrMax= 1.28D-06  0.00D+00 EMaxC= 1.00D-01 BMatC= 1.01D-10 BMatP= 3.03D-10
 IDIUse=1 WtCom= 1.00D+00 WtEn= 0.00D+00
 Coeff-Com:  0.138D-03-0.158D-03 0.504D-04-0.915D-05-0.171D-03 0.273D-03
 Coeff-Com:  0.453D-03-0.927D-03-0.114D-02 0.976D-03 0.512D-02-0.637D-02
 Coeff-Com: -0.562D-01 0.277D-01 0.103D+01
 Coeff:      0.138D-03-0.158D-03 0.504D-04-0.915D-05-0.171D-03 0.273D-03
 Coeff:      0.453D-03-0.927D-03-0.114D-02 0.976D-03 0.512D-02-0.637D-02
 Coeff:     -0.562D-01 0.277D-01 0.103D+01
 Gap=     0.069 Goal=   None    Shift=    0.000
 RMSDP=7.36D-07 MaxDP=1.65D-04 DE=-1.64D-09 OVMax= 5.24D-05

 Cycle  16  Pass 1  IDiag  1:
 E= -61.8819356628384     Delta-E=       -0.000000000750 Rises=F Damp=F
 DIIS: error= 2.93D-07 at cycle  16 NSaved=  16.
 NSaved=16 IEnMin=16 EnMin= -61.8819356628384     IErMin=16 ErrMin= 2.93D-07
 ErrMax= 2.93D-07  0.00D+00 EMaxC= 1.00D-01 BMatC= 6.76D-12 BMatP= 1.01D-10
 IDIUse=1 WtCom= 1.00D+00 WtEn= 0.00D+00
 Coeff-Com: -0.839D-05 0.953D-05 0.516D-06 0.770D-05-0.153D-04 0.368D-05
 Coeff-Com: -0.219D-03 0.858D-03 0.265D-03-0.167D-02 0.364D-03 0.542D-02
 Coeff-Com: -0.870D-02-0.161D+00 0.169D+00 0.996D+00
 Coeff:     -0.839D-05 0.953D-05 0.516D-06 0.770D-05-0.153D-04 0.368D-05
 Coeff:     -0.219D-03 0.858D-03 0.265D-03-0.167D-02 0.364D-03 0.542D-02
 Coeff:     -0.870D-02-0.161D+00 0.169D+00 0.996D+00
 Gap=     0.069 Goal=   None    Shift=    0.000
 RMSDP=2.93D-07 MaxDP=4.50D-05 DE=-7.50D-10 OVMax= 1.58D-05

 Cycle  17  Pass 1  IDiag  1:
 E= -61.8819356628822     Delta-E=       -0.000000000044 Rises=F Damp=F
 DIIS: error= 2.66D-08 at cycle  17 NSaved=  17.
 NSaved=17 IEnMin=17 EnMin= -61.8819356628822     IErMin=17 ErrMin= 2.66D-08
 ErrMax= 2.66D-08  0.00D+00 EMaxC= 1.00D-01 BMatC= 1.26D-13 BMatP= 6.76D-12
 IDIUse=1 WtCom= 1.00D+00 WtEn= 0.00D+00
 Coeff-Com: -0.101D-04 0.115D-04-0.232D-05-0.308D-05 0.104D-04-0.371D-05
 Coeff-Com: -0.172D-04-0.581D-04 0.990D-04 0.115D-03-0.488D-03 0.157D-03
 Coeff-Com:  0.499D-02 0.236D-02-0.729D-01 0.152D-01 0.105D+01
 Coeff:     -0.101D-04 0.115D-04-0.232D-05-0.308D-05 0.104D-04-0.371D-05
 Coeff:     -0.172D-04-0.581D-04 0.990D-04 0.115D-03-0.488D-03 0.157D-03
 Coeff:      0.499D-02 0.236D-02-0.729D-01 0.152D-01 0.105D+01
 Gap=     0.069 Goal=   None    Shift=    0.000
 RMSDP=5.40D-08 MaxDP=8.84D-06 DE=-4.38D-11 OVMax= 1.38D-06

 Cycle  18  Pass 1  IDiag  1:
 E= -61.8819356628827     Delta-E=       -0.000000000000 Rises=F Damp=F
 DIIS: error= 1.45D-08 at cycle  18 NSaved=  18.
 NSaved=18 IEnMin=18 EnMin= -61.8819356628827     IErMin=18 ErrMin= 1.45D-08
 ErrMax= 1.45D-08  0.00D+00 EMaxC= 1.00D-01 BMatC= 1.95D-14 BMatP= 1.26D-13
 IDIUse=1 WtCom= 1.00D+00 WtEn= 0.00D+00
 Coeff-Com: -0.156D-05 0.178D-05-0.114D-06-0.400D-06-0.375D-06 0.454D-06
 Coeff-Com:  0.814D-05-0.181D-04-0.213D-04 0.173D-04 0.372D-04-0.136D-03
 Coeff-Com: -0.330D-05 0.489D-02-0.966D-03-0.353D-01-0.737D-01 0.111D+01
 Coeff:     -0.156D-05 0.178D-05-0.114D-06-0.400D-06-0.375D-06 0.454D-06
 Coeff:      0.814D-05-0.181D-04-0.213D-04 0.173D-04 0.372D-04-0.136D-03
 Coeff:     -0.330D-05 0.489D-02-0.966D-03-0.353D-01-0.737D-01 0.111D+01
 Gap=     0.069 Goal=   None    Shift=    0.000
 RMSDP=6.88D-09 MaxDP=1.33D-06 DE=-4.97D-13 OVMax= 7.72D-07

 Cycle  19  Pass 1  IDiag  1:
 E= -61.8819356628827     Delta-E=        0.000000000000 Rises=F Damp=F
 DIIS: error= 3.07D-09 at cycle  19 NSaved=  19.
 NSaved=19 IEnMin=18 EnMin= -61.8819356628827     IErMin=19 ErrMin= 3.07D-09
 ErrMax= 3.07D-09  0.00D+00 EMaxC= 1.00D-01 BMatC= 6.75D-16 BMatP= 1.95D-14
 IDIUse=1 WtCom= 1.00D+00 WtEn= 0.00D+00
 Large coefficients: NSaved= 19 BigCof=    0.00 CofMax=   10.00 Det=-6.46D-16
 Inversion failed.  Reducing to 18 matrices.
 Large coefficients: NSaved= 18 BigCof=    0.00 CofMax=   10.00 Det=-6.51D-16
 Inversion failed.  Reducing to 17 matrices.
 Large coefficients: NSaved= 17 BigCof=    0.00 CofMax=   10.00 Det=-6.54D-16
 Inversion failed.  Reducing to 16 matrices.
 Large coefficients: NSaved= 16 BigCof=    0.00 CofMax=   10.00 Det=-6.56D-16
 Inversion failed.  Reducing to 15 matrices.
 Coeff-Com: -0.200D-07 0.343D-06 0.661D-07-0.401D-05 0.259D-05 0.511D-05
 Coeff-Com: -0.567D-05 0.495D-05-0.112D-03-0.409D-03 0.194D-02 0.318D-02
 Coeff-Com: -0.205D-01-0.127D+00 0.114D+01
 Coeff:     -0.200D-07 0.343D-06 0.661D-07-0.401D-05 0.259D-05 0.511D-05
 Coeff:     -0.567D-05 0.495D-05-0.112D-03-0.409D-03 0.194D-02 0.318D-02
 Coeff:     -0.205D-01-0.127D+00 0.114D+01
 Gap=     0.069 Goal=   None    Shift=    0.000
 RMSDP=1.52D-09 MaxDP=1.72D-07 DE= 2.84D-14 OVMax= 1.89D-07

 SCF Done:  E(ROHF) =  -61.8819356629     A.U. after   19 cycles
            NFock= 19  Conv=0.15D-08     -V/T= 2.9000
 <Sx>= 0.0000 <Sy>= 0.0000 <Sz>= 0.5000 <S**2>= 0.7500 S= 0.5000
 <L.S>=  0.00000000000    
 KE= 3.256968110603D+01 PE=-1.896456945884D+02 EE= 6.832815788050D+01
 Annihilation of the first spin contaminant:
 S**2 before annihilation     0.7500,   after     0.7500
 Leave Link  502 at Tue Feb 20 22:16:54 2018, MaxMem= 10737418240 cpu:             548.3 elap:              21.0
 (Enter /home1/apps/gaussian/16rA.03/g16/l801.exe)
 Windowed orbitals will be sorted by symmetry type.
 GenMOA:  NOpAll=  4 NOp2=4 NOpUse=  4 JSym2X=1
 FoFJK:  IHMeth= 1 ICntrl=       0 DoSepK=F KAlg= 0 I1Cent=           0 FoldK=F
 IRaf=         0 NMat=       1 IRICut=       1 DoRegI=T DoRafI=F ISym2E= 1 IDoP0=0 IntGTp=1.
 FoFCou: FMM=F IPFlag=           8 FMFlag=      100000 FMFlg1=           0
         NFxFlg=           0 DoJE=F BraDBF=F KetDBF=F FulRan=T
         wScrn=  0.000000 ICntrl=         0 IOpCl=  1 I1Cent=           0 NGrid=           0
         NMat0=    1 NMatS0=      1 NMatT0=    0 NMatD0=    1 NMtDS0=    0 NMtDT0=    0
 Petite list used in FoFCou.
 <Sx>= 0.0000 <Sy>= 0.0000 <Sz>= 0.5000 <S**2>= 0.7500 S= 0.5000
 Range of M.O.s used for correlation:     1   257
 NBasis=   261 NAE=     9 NBE=     8 NFC=     0 NFV=     0
 NROrb=    257 NOA=     9 NOB=     8 NVA=   248 NVB=   249

 **** Warning!!: The largest alpha MO coefficient is  0.34288178D+03


 **** Warning!!: The largest beta MO coefficient is  0.34289981D+03

 Singles contribution to E2=   -0.1161256113D-03
 Leave Link  801 at Tue Feb 20 22:16:59 2018, MaxMem= 10737418240 cpu:             139.2 elap:               4.4
 (Enter /home1/apps/gaussian/16rA.03/g16/l804.exe)
 Open-shell transformation, MDV= 10737418240 ITran=4 ISComp=2.
 Unit  1 TFree=       2055221 TCopy=       1546068.
 Semi-Direct transformation.
 ModeAB=           4 MOrb=             9 LenV=   10735353791
 LASXX=     19341306 LTotXX=    19341306 LenRXX=    38995831
 LTotAB=    19654525 MaxLAS=   112693986 LenRXY=           0
 NonZer=    58337137 LenScr=    88261120 LnRSAI=   112693986
 LnScr1=   169779712 LExtra=     8071130 Total=    417801779
 MaxDsk= 67108864000 SrtSym=           T ITran=            4
 DoSDTr:  NPSUse= 32
 JobTyp=1 Pass  1:  I=   1 to   9.
 (rs|ai) integrals will be sorted in core.
 Complete sort for first half transformation.
 First half transformation complete.
 Complete sort for second half transformation.
 Second half transformation complete.
 ModeAB=           4 MOrb=             8 LenV=   10735353791
 LASXX=     17169082 LTotXX=    17169082 LenRXX=    33381970
 LTotAB=    16212888 MaxLAS=   100172432 LenRXY=           0
 NonZer=    50551052 LenScr=    76589568 LnRSAI=   100172432
 LnScr1=   151029760 LExtra=    47066961 Total=    408240691
 MaxDsk= 67108864000 SrtSym=           T ITran=            4
 DoSDTr:  NPSUse= 32
 JobTyp=2 Pass  1:  I=   1 to   8.
 (rs|ai) integrals will be sorted in core.
 Complete sort for first half transformation.
 First half transformation complete.
 Complete sort for second half transformation.
 Second half transformation complete.
 Spin components of T(2) and E(2):
     alpha-alpha T2 =       0.2460392206D-01 E2=     -0.9460109675D-01
     alpha-beta  T2 =       0.1051479419D+00 E2=     -0.4855773752D+00
     beta-beta   T2 =       0.2097059841D-01 E2=     -0.8673536879D-01
 ANorm=    0.1072766173D+01
 E2 =    -0.6670299663D+00 EUMP2 =    -0.62548965629226D+02
 (S**2,0)=  0.75000D+00           (S**2,1)=  0.75000D+00
 E(PUHF)=      -0.61881935663D+02        E(PMP2)=      -0.62548965629D+02
 Leave Link  804 at Tue Feb 20 22:18:42 2018, MaxMem= 10737418240 cpu:            3289.1 elap:             102.9
 (Enter /home1/apps/gaussian/16rA.03/g16/l913.exe)
 CIDS:  MDV= 10737418240.
 IFCWin=0 IBDFC=1 NFBD=     0     0 NFCmp=     0     0 NFFFC=     0     0
 Using original routines for 1st iteration.
 Using DD4UQ or CC4UQ for 2nd and later iterations.
 Keep R2 and R3 ints in memory in symmetry-blocked form, NReq=734615636.
 FoFCou: FMM=F IPFlag=           8 FMFlag=           0 FMFlg1=           0
         NFxFlg=           0 DoJE=F BraDBF=F KetDBF=F FulRan=T
         wScrn=  0.000000 ICntrl=       600 IOpCl=  0 I1Cent=           0 NGrid=           0
         NMat0=    1 NMatS0=  34191 NMatT0=    0 NMatD0=    1 NMtDS0=    0 NMtDT0=    0
 Petite list used in FoFCou.
 CIDS: In Core Option IDoMem=           1.
 CCSD(T)
 =======
 Iterations= 150 Convergence= 0.100D-06
 Produce multiple copies of IABC intergrals
 Iteration Nr.   1
 **********************
 DD1Dir will call FoFMem   1 times, MxPair=       208
 NAB=    72 NAA=    36 NBB=    28.
 DD1Dir will call FoFMem   1 times, MxPair=       208
 NAB=    72 NAA=    36 NBB=    28.
 MP4(R+Q)=  0.94853795D-02
 Maximum subspace dimension=  5
 A-vector RMS=  6.5534882D-05 Max=  1.6690827D-03 conv= 1.00D-05.
 RLE energy=       -0.6516532408
 E3=        0.62443392D-02        EROMP3=      -0.62542721290D+02
 E4(SDQ)=  -0.99953529D-02        ROMP4(SDQ)=  -0.62552716643D+02
 VARIATIONAL ENERGIES WITH THE FIRST-ORDER WAVEFUNCTION:
 DE(Corr)= -0.65129034     E(Corr)=     -62.533226000    
 NORM(A)=   0.10685420D+01
 Iteration Nr.   2
 **********************
 DD1Dir will call FoFMem   1 times, MxPair=       208
 NAB=    72 NAA=    36 NBB=    28.
 A-vector RMS=  2.9104529D-03 Max=  2.9539878D-02 conv= 1.00D-05.
 RLE energy=       -0.6493155039
 DE(Corr)= -0.64508880     E(CORR)=     -62.527024462     Delta= 6.20D-03
 NORM(A)=   0.10672411D+01
 Iteration Nr.   3
 **********************
 DD1Dir will call FoFMem   1 times, MxPair=       208
 NAB=    72 NAA=    36 NBB=    28.
 A-vector RMS=  1.6770044D-03 Max=  1.6945562D-02 conv= 1.00D-05.
 RLE energy=       -0.6583734842
 DE(Corr)= -0.65359204     E(CORR)=     -62.535527704     Delta=-8.50D-03
 NORM(A)=   0.10702053D+01
 Iteration Nr.   4
 **********************
 DD1Dir will call FoFMem   1 times, MxPair=       208
 NAB=    72 NAA=    36 NBB=    28.
 A-vector RMS=  1.6734238D-03 Max=  1.7115969D-02 conv= 1.00D-05.
 RLE energy=       -0.6667047691
 DE(Corr)= -0.65501115     E(CORR)=     -62.536946816     Delta=-1.42D-03
 NORM(A)=   0.10783780D+01
 Iteration Nr.   5
 **********************
 DD1Dir will call FoFMem   1 times, MxPair=       208
 NAB=    72 NAA=    36 NBB=    28.
 A-vector RMS=  3.1408396D-04 Max=  3.7947144D-03 conv= 1.00D-05.
 RLE energy=       -0.6667669442
 DE(Corr)= -0.66756361     E(CORR)=     -62.549499277     Delta=-1.26D-02
 NORM(A)=   0.10794543D+01
 Iteration Nr.   6
 **********************
 DD1Dir will call FoFMem   1 times, MxPair=       208
 NAB=    72 NAA=    36 NBB=    28.
 A-vector RMS=  1.1619411D-04 Max=  1.2695537D-03 conv= 1.00D-05.
 RLE energy=       -0.6661478741
 DE(Corr)= -0.66702330     E(CORR)=     -62.548958964     Delta= 5.40D-04
 NORM(A)=   0.10792180D+01
 Iteration Nr.   7
 **********************
 DD1Dir will call FoFMem   1 times, MxPair=       208
 NAB=    72 NAA=    36 NBB=    28.
 A-vector RMS=  3.5910155D-05 Max=  7.5409125D-04 conv= 1.00D-05.
 RLE energy=       -0.6660950981
 DE(Corr)= -0.66608320     E(CORR)=     -62.548018859     Delta= 9.40D-04
 NORM(A)=   0.10793824D+01
 Iteration Nr.   8
 **********************
 DD1Dir will call FoFMem   1 times, MxPair=       208
 NAB=    72 NAA=    36 NBB=    28.
 A-vector RMS=  1.4267849D-05 Max=  2.2602153D-04 conv= 1.00D-05.
 RLE energy=       -0.6661139474
 DE(Corr)= -0.66612195     E(CORR)=     -62.548057608     Delta=-3.87D-05
 NORM(A)=   0.10794252D+01
 Iteration Nr.   9
 **********************
 DD1Dir will call FoFMem   1 times, MxPair=       208
 NAB=    72 NAA=    36 NBB=    28.
 A-vector RMS=  5.5760327D-06 Max=  6.5239881D-05 conv= 1.00D-05.
 RLE energy=       -0.6661172626
 DE(Corr)= -0.66610677     E(CORR)=     -62.548042437     Delta= 1.52D-05
 NORM(A)=   0.10794427D+01
 Iteration Nr.  10
 **********************
 DD1Dir will call FoFMem   1 times, MxPair=       208
 NAB=    72 NAA=    36 NBB=    28.
 A-vector RMS=  2.0712202D-06 Max=  3.2237071D-05 conv= 1.00D-05.
 RLE energy=       -0.6661141896
 DE(Corr)= -0.66611382     E(CORR)=     -62.548049481     Delta=-7.04D-06
 NORM(A)=   0.10794372D+01
 Iteration Nr.  11
 **********************
 DD1Dir will call FoFMem   1 times, MxPair=       208
 NAB=    72 NAA=    36 NBB=    28.
 A-vector RMS=  1.0553204D-06 Max=  1.7068405D-05 conv= 1.00D-05.
 RLE energy=       -0.6661147667
 DE(Corr)= -0.66611375     E(CORR)=     -62.548049410     Delta= 7.01D-08
 NORM(A)=   0.10794374D+01
 Iteration Nr.  12
 **********************
 DD1Dir will call FoFMem   1 times, MxPair=       208
 NAB=    72 NAA=    36 NBB=    28.
 A-vector RMS=  4.7241355D-07 Max=  7.8544021D-06 conv= 1.00D-05.
 RLE energy=       -0.6661139713
 DE(Corr)= -0.66611398     E(CORR)=     -62.548049647     Delta=-2.37D-07
 NORM(A)=   0.10794373D+01
 Iteration Nr.  13
 **********************
 DD1Dir will call FoFMem   1 times, MxPair=       208
 NAB=    72 NAA=    36 NBB=    28.
 A-vector RMS=  2.5165907D-07 Max=  3.1140373D-06 conv= 1.00D-05.
 RLE energy=       -0.6661142321
 DE(Corr)= -0.66611415     E(CORR)=     -62.548049817     Delta=-1.70D-07
 NORM(A)=   0.10794379D+01
 Iteration Nr.  14
 **********************
 DD1Dir will call FoFMem   1 times, MxPair=       208
 NAB=    72 NAA=    36 NBB=    28.
 A-vector RMS=  1.2388975D-07 Max=  1.2235157D-06 conv= 1.00D-05.
 RLE energy=       -0.6661143083
 DE(Corr)= -0.66611427     E(CORR)=     -62.548049929     Delta=-1.12D-07
 NORM(A)=   0.10794383D+01
 Iteration Nr.  15
 **********************
 DD1Dir will call FoFMem   1 times, MxPair=       208
 NAB=    72 NAA=    36 NBB=    28.
 A-vector RMS=  5.7407352D-08 Max=  7.5726584D-07 conv= 1.00D-05.
 RLE energy=       -0.6661143377
 DE(Corr)= -0.66611432     E(CORR)=     -62.548049987     Delta=-5.75D-08
 NORM(A)=   0.10794385D+01
 CI/CC converged in   15 iterations to DelEn=-5.75D-08 Conv= 1.00D-07 ErrA1= 5.74D-08 Conv= 1.00D-05
 Wavefunction amplitudes converged. E(Corr)=     -62.548049987    
 Largest amplitude= 4.98D-02
 Time for triples=    21380.92 seconds.
 T4(CCSD)= -0.32018372D-01
 T5(CCSD)=  0.22554458D-02
 CCSD(T)= -0.62577812913D+02
 Discarding MO integrals.
 Leave Link  913 at Tue Feb 20 22:33:44 2018, MaxMem= 10737418240 cpu:           28819.7 elap:             901.6
 (Enter /home1/apps/gaussian/16rA.03/g16/l601.exe)
 Copying SCF densities to generalized density rwf, IOpCl= 0 IROHF=1.

 **********************************************************************

            Population analysis using the SCF density.

 **********************************************************************

 Orbital symmetries:
       Occupied  (SG) (SG) (PI) (PI) (SG) (PI) (PI) (SG) (SG)
       Virtual   (PI) (PI) (SG) (SG) (DLTA) (DLTA) (PI) (PI) (SG)
                 (PI) (PI) (SG) (DLTA) (DLTA) (SG) (PI) (PI) (SG)
                 (SG) (PI) (PI) (PHI) (PHI) (DLTA) (DLTA) (PI)
                 (PI) (SG) (DLTA) (DLTA) (SG) (PI) (PI) (PI) (PI)
                 (SG) (SG) (DLTA) (DLTA) (PI) (PI) (?A) (?A) (SG)
                 (PHI) (PHI) (DLTA) (DLTA) (PI) (PI) (SG) (SG)
                 (PI) (PI) (DLTA) (DLTA) (PHI) (PHI) (PI) (PI)
                 (SG) (SG) (PI) (PI) (DLTA) (DLTA) (SG) (SG) (PI)
                 (PI) (DLTA) (DLTA) (SG) (SG) (PI) (PI) (PI) (PI)
                 (SG) (PHI) (PHI) (DLTA) (DLTA) (?A) (?A) (PI)
                 (PI) (SG) (DLTA) (DLTA) (PHI) (PHI) (PI) (PI)
                 (SG) (PHI) (PHI) (DLTA) (DLTA) (SG) (PI) (PI)
                 (SG) (DLTA) (DLTA) (DLTA) (DLTA) (PI) (PI) (SG)
                 (PI) (PI) (SG) (PI) (PI) (SG) (SG) (PI) (PI) (SG)
                 (PI) (PI) (DLTA) (DLTA) (DLTA) (DLTA) (SG) (SG)
                 (PHI) (PHI) (PHI) (PHI) (PI) (PI) (DLTA) (DLTA)
                 (SG) (DLTA) (DLTA) (PI) (PI) (PI) (PI) (?A) (?A)
                 (PHI) (PHI) (DLTA) (DLTA) (SG) (SG) (PI) (PI)
                 (PI) (PI) (SG) (SG) (SG) (DLTA) (DLTA) (PI) (PI)
                 (PI) (PI) (SG) (SG) (SG) (PI) (PI) (SG) (SG) (DLTA)
                 (DLTA) (PI) (PI) (PI) (PI) (SG) (SG) (SG) (DLTA)
                 (DLTA) (PI) (PI) (SG) (PI) (PI) (SG) (SG) (DLTA)
                 (DLTA) (PI) (PI) (SG) (PI) (PI) (SG) (SG) (SG)
                 (PI) (PI) (SG) (SG) (PI) (PI) (SG) (SG) (DLTA)
                 (DLTA) (PI) (PI) (SG) (SG) (PI) (PI) (PI) (PI)
                 (SG) (SG) (SG) (SG) (PI) (PI) (SG) (SG) (PI) (PI)
                 (SG) (SG) (SG) (PI) (PI) (SG) (SG) (SG) (PI) (PI)
                 (SG) (SG) (SG) (SG) (PI) (PI) (SG) (SG) (SG) (SG)
                 (SG)
 The electronic state is 2-SG.
 Alpha  occ. eigenvalues --   -2.63586  -1.75964  -1.52094  -1.52094  -1.06669
 Alpha  occ. eigenvalues --   -0.57741  -0.57741  -0.46879  -0.19467
 Alpha virt. eigenvalues --    0.00987   0.00987   0.02039   0.02503   0.03782
 Alpha virt. eigenvalues --    0.03782   0.03798   0.03798   0.03904   0.04776
 Alpha virt. eigenvalues --    0.04776   0.07345   0.10872   0.10872   0.11027
 Alpha virt. eigenvalues --    0.12164   0.12164   0.12904   0.15820   0.15820
 Alpha virt. eigenvalues --    0.15834   0.16617   0.16617   0.17063   0.17063
 Alpha virt. eigenvalues --    0.17760   0.17760   0.20273   0.21790   0.21790
 Alpha virt. eigenvalues --    0.25780   0.30407   0.30407   0.35370   0.35370
 Alpha virt. eigenvalues --    0.38121   0.39872   0.46722   0.46722   0.47566
 Alpha virt. eigenvalues --    0.47566   0.47949   0.47949   0.48237   0.48662
 Alpha virt. eigenvalues --    0.48662   0.50764   0.50764   0.51772   0.51772
 Alpha virt. eigenvalues --    0.53077   0.58901   0.62123   0.62123   0.62931
 Alpha virt. eigenvalues --    0.62931   0.63791   0.63791   0.79760   0.79760
 Alpha virt. eigenvalues --    0.80670   0.94577   1.00666   1.00666   1.03438
 Alpha virt. eigenvalues --    1.03438   1.03681   1.31831   1.33054   1.33054
 Alpha virt. eigenvalues --    1.34744   1.34744   1.41316   1.56114   1.64285
 Alpha virt. eigenvalues --    1.64285   1.71335   1.71335   1.91588   1.92456
 Alpha virt. eigenvalues --    1.92456   1.94087   1.94087   1.99273   1.99273
 Alpha virt. eigenvalues --    2.03692   2.03692   2.04706   2.10657   2.10657
 Alpha virt. eigenvalues --    2.20672   2.20672   2.23778   2.23778   2.30571
 Alpha virt. eigenvalues --    2.42407   2.42407   2.50851   2.50851   2.69675
 Alpha virt. eigenvalues --    2.87251   2.87251   3.04317   3.08992   3.08992
 Alpha virt. eigenvalues --    3.19301   3.19301   3.30234   3.30234   3.54024
 Alpha virt. eigenvalues --    3.65188   3.65188   3.82021   4.15860   4.15860
 Alpha virt. eigenvalues --    4.49828   4.62893   4.66805   4.66805   5.14228
 Alpha virt. eigenvalues --    6.22340   6.22340   6.38380   6.38380   6.42698
 Alpha virt. eigenvalues --    6.42698   6.43862   6.50949   6.52589   6.52589
 Alpha virt. eigenvalues --    6.56714   6.56714   6.78717   6.78717   6.80968
 Alpha virt. eigenvalues --    6.80968   7.15982   7.23875   7.23875   7.28927
 Alpha virt. eigenvalues --    7.28927   7.62928   7.62928   7.77656   7.77656
 Alpha virt. eigenvalues --    7.79983   7.79983   7.98772   7.98772   8.27914
 Alpha virt. eigenvalues --    8.48226   8.83070   8.83070   8.99281   8.99281
 Alpha virt. eigenvalues --    9.57268  10.24364  10.50342  12.09718  12.09718
 Alpha virt. eigenvalues --   12.29651  12.29651  15.19671  15.19671  15.80991
 Alpha virt. eigenvalues --   16.98540  17.30520  17.47967  17.47967  18.56430
 Alpha virt. eigenvalues --   21.05848  23.03627  23.03627  23.21776  23.21776
 Alpha virt. eigenvalues --   34.77299  34.77299  34.81209  35.84989  38.60068
 Alpha virt. eigenvalues --   43.73013  43.73013  43.85211  43.85211  44.15856
 Alpha virt. eigenvalues --   45.78803  45.78803  46.96329  55.69355  57.33773
 Alpha virt. eigenvalues --   57.33773  57.47590  57.47590  67.13135  69.62149
 Alpha virt. eigenvalues --   69.62149  70.60105  74.78461 118.99258 119.13807
 Alpha virt. eigenvalues --  119.13807 120.14895 136.96068 139.87120 139.87120
 Alpha virt. eigenvalues --  140.83025 199.68525 200.74349 200.74349 200.83001
 Alpha virt. eigenvalues --  200.83001 217.63569 257.73191 285.67692 285.67692
 Alpha virt. eigenvalues --  286.40983 286.40983 286.48355 287.43145 421.20161
 Alpha virt. eigenvalues --  555.22399 604.84165 604.84165 605.67644 860.47545
 Alpha virt. eigenvalues -- 1357.532231357.532231358.285151529.743111856.19970
 Alpha virt. eigenvalues -- 3326.865843326.865843327.522204235.328085659.88484
 Alpha virt. eigenvalues -- 9382.519609382.519609383.05969********************
 Alpha virt. eigenvalues -- **************************************************
 Alpha virt. eigenvalues -- ******************************
     Molecular Orbital Coefficients:
                           4         5         6         7         8
                           O         O         O         O         O
     Eigenvalues --    -1.52094  -1.06669  -0.57741  -0.57741  -0.46879
   1 1   Sc 1S          0.00000   0.00000   0.00000   0.00000   0.00000
   2        2S          0.00000  -0.00000   0.00000   0.00000  -0.00000
   3        3S          0.00000   0.00000   0.00000   0.00000   0.00000
   4        4S          0.00000  -0.00000   0.00000   0.00000  -0.00000
   5        5S          0.00000   0.00000   0.00000   0.00000   0.00000
   6        6S          0.00000  -0.00000   0.00000   0.00000  -0.00000
   7        7S          0.00000   0.00001   0.00000   0.00000   0.00001
   8        8S          0.00000  -0.00002   0.00000   0.00000  -0.00002
   9        9S          0.00000   0.00007   0.00000   0.00000   0.00006
  10       10S          0.00000  -0.00018   0.00000   0.00000  -0.00017
  11       11S          0.00000   0.00040   0.00000   0.00000   0.00038
  12       12S          0.00000   0.00038   0.00000   0.00000   0.00021
  13       13S          0.00000  -0.02240   0.00000   0.00000  -0.01978
  14       14S          0.00000   0.10886   0.00000   0.00000   0.09737
  15       15S          0.00000   0.02700   0.00000   0.00000  -0.00199
  16       16S          0.00000  -0.14275   0.00000   0.00000  -0.13006
  17       17S          0.00000  -0.06923   0.00000   0.00000  -0.21119
  18       18S          0.00000  -0.04494   0.00000   0.00000  -0.14182
  19       19S          0.00000  -0.03990   0.00000   0.00000  -0.02311
  20       20S          0.00000   0.00696   0.00000   0.00000   0.01240
  21       21S          0.00000  -0.05918   0.00000   0.00000  -0.03591
  22       22S          0.00000  -0.01213   0.00000   0.00000   0.06628
  23       23S          0.00000  -0.00133   0.00000   0.00000  -0.00026
  24       24PX        -0.00000   0.00000   0.00000   0.00000   0.00000
  25       24PY         0.00000   0.00000   0.00000   0.00000   0.00000
  26       24PZ         0.00000  -0.00000   0.00000   0.00000  -0.00000
  27       25PX         0.00000   0.00000   0.00000  -0.00000   0.00000
  28       25PY         0.00000   0.00000  -0.00000   0.00000   0.00000
  29       25PZ         0.00000   0.00000   0.00000   0.00000   0.00000
  30       26PX        -0.00002   0.00000   0.00000   0.00001   0.00000
  31       26PY         0.00000   0.00000   0.00001   0.00000   0.00000
  32       26PZ         0.00000  -0.00001   0.00000   0.00000  -0.00000
  33       27PX         0.00009   0.00000   0.00000  -0.00002   0.00000
  34       27PY         0.00000   0.00000  -0.00002   0.00000   0.00000
  35       27PZ         0.00000   0.00006   0.00000   0.00000   0.00002
  36       28PX        -0.00035   0.00000   0.00000   0.00009   0.00000
  37       28PY         0.00000   0.00000   0.00009   0.00000   0.00000
  38       28PZ         0.00000  -0.00021   0.00000   0.00000  -0.00006
  39       29PX         0.00117   0.00000   0.00000  -0.00030   0.00000
  40       29PY         0.00000   0.00000  -0.00030   0.00000   0.00000
  41       29PZ         0.00000   0.00069   0.00000   0.00000   0.00020
  42       30PX        -0.00378   0.00000   0.00000   0.00095   0.00000
  43       30PY         0.00000   0.00000   0.00095   0.00000   0.00000
  44       30PZ         0.00000  -0.00223   0.00000   0.00000  -0.00067
  45       31PX         0.01407   0.00000   0.00000  -0.00350   0.00000
  46       31PY         0.00000   0.00000  -0.00350   0.00000   0.00000
  47       31PZ         0.00000   0.00827   0.00000   0.00000   0.00291
  48       32PX        -0.05662   0.00000   0.00000   0.01450   0.00000
  49       32PY         0.00000   0.00000   0.01450   0.00000   0.00000
  50       32PZ         0.00000  -0.03383   0.00000   0.00000  -0.01348
  51       33PX        -0.15459   0.00000   0.00000   0.00350   0.00000
  52       33PY         0.00000   0.00000   0.00350   0.00000   0.00000
  53       33PZ         0.00000  -0.06360   0.00000   0.00000  -0.15158
  54       34PX         0.36158   0.00000   0.00000  -0.08719   0.00000
  55       34PY         0.00000   0.00000  -0.08719   0.00000   0.00000
  56       34PZ         0.00000   0.20547   0.00000   0.00000   0.11650
  57       35PX        -0.03233   0.00000   0.00000  -0.04231   0.00000
  58       35PY         0.00000   0.00000  -0.04231   0.00000   0.00000
  59       35PZ         0.00000   0.03912   0.00000   0.00000  -0.17024
  60       36PX         0.26443   0.00000   0.00000  -0.09375   0.00000
  61       36PY         0.00000   0.00000  -0.09375   0.00000   0.00000
  62       36PZ         0.00000   0.16365   0.00000   0.00000   0.13020
  63       37PX         0.04851   0.00000   0.00000  -0.08622   0.00000
  64       37PY         0.00000   0.00000  -0.08622   0.00000   0.00000
  65       37PZ         0.00000   0.07290   0.00000   0.00000   0.12110
  66       38PX        -0.01923   0.00000   0.00000  -0.02457   0.00000
  67       38PY         0.00000   0.00000  -0.02457   0.00000   0.00000
  68       38PZ         0.00000   0.01993   0.00000   0.00000   0.02060
  69       39PX         0.00308   0.00000   0.00000  -0.01925   0.00000
  70       39PY         0.00000   0.00000  -0.01925   0.00000   0.00000
  71       39PZ         0.00000  -0.00119   0.00000   0.00000  -0.01811
  72       40PX         0.13290   0.00000   0.00000   0.00020   0.00000
  73       40PY         0.00000   0.00000   0.00020   0.00000   0.00000
  74       40PZ         0.00000   0.05490   0.00000   0.00000   0.15018
  75       41PX         0.47573   0.00000   0.00000  -0.05559   0.00000
  76       41PY         0.00000   0.00000  -0.05559   0.00000   0.00000
  77       41PZ         0.00000   0.21676   0.00000   0.00000   0.31504
  78       42PX        -0.00113   0.00000   0.00000   0.00437   0.00000
  79       42PY         0.00000   0.00000   0.00437   0.00000   0.00000
  80       42PZ         0.00000  -0.00010   0.00000   0.00000   0.00284
  81       43D 0        0.00000   0.00000   0.00000   0.00000   0.00010
  82       43D+1       -0.00000   0.00000   0.00000  -0.00003   0.00000
  83       43D-1        0.00000   0.00000  -0.00003   0.00000   0.00000
  84       43D+2        0.00000   0.00000   0.00000   0.00000   0.00000
  85       43D-2        0.00000   0.00000   0.00000   0.00000   0.00000
  86       44D 0        0.00000   0.00009   0.00000   0.00000  -0.00030
  87       44D+1        0.00001   0.00000   0.00000   0.00003   0.00000
  88       44D-1        0.00000   0.00000   0.00003   0.00000   0.00000
  89       44D+2        0.00000  -0.00000   0.00000   0.00000   0.00000
  90       44D-2        0.00000   0.00000   0.00000   0.00000   0.00000
  91       45D 0        0.00000   0.01168   0.00000   0.00000   0.05102
  92       45D+1       -0.00324   0.00000   0.00000  -0.02175   0.00000
  93       45D-1        0.00000   0.00000  -0.02175   0.00000   0.00000
  94       45D+2        0.00000   0.00000   0.00000   0.00000   0.00000
  95       45D-2        0.00000   0.00000   0.00000   0.00000   0.00000
  96       46D 0        0.00000   0.09497   0.00000   0.00000   0.23618
  97       46D+1       -0.02988   0.00000   0.00000  -0.13016   0.00000
  98       46D-1        0.00000   0.00000  -0.13016   0.00000   0.00000
  99       46D+2        0.00000  -0.00000   0.00000   0.00000   0.00000
 100       46D-2        0.00000   0.00000   0.00000   0.00000   0.00000
 101       47D 0        0.00000   0.02622   0.00000   0.00000   0.08941
 102       47D+1       -0.22394   0.00000   0.00000   0.12643   0.00000
 103       47D-1        0.00000   0.00000   0.12643   0.00000   0.00000
 104       47D+2        0.00000  -0.00000   0.00000   0.00000   0.00000
 105       47D-2        0.00000   0.00000   0.00000   0.00000   0.00000
 106       48D 0        0.00000   0.03920   0.00000   0.00000   0.19217
 107       48D+1       -0.00031   0.00000   0.00000  -0.06468   0.00000
 108       48D-1        0.00000   0.00000  -0.06468   0.00000   0.00000
 109       48D+2        0.00000   0.00000   0.00000   0.00000   0.00000
 110       48D-2        0.00000   0.00000   0.00000   0.00000   0.00000
 111       49D 0        0.00000  -0.01244   0.00000   0.00000   0.06025
 112       49D+1        0.00736   0.00000   0.00000   0.02130   0.00000
 113       49D-1        0.00000   0.00000   0.02130   0.00000   0.00000
 114       49D+2        0.00000   0.00000   0.00000   0.00000   0.00000
 115       49D-2        0.00000   0.00000   0.00000   0.00000   0.00000
 116       50D 0        0.00000   0.00241   0.00000   0.00000   0.01756
 117       50D+1        0.00336   0.00000   0.00000   0.01105   0.00000
 118       50D-1        0.00000   0.00000   0.01105   0.00000   0.00000
 119       50D+2        0.00000  -0.00000   0.00000   0.00000  -0.00000
 120       50D-2        0.00000   0.00000   0.00000   0.00000   0.00000
 121       51D 0        0.00000  -0.05390   0.00000   0.00000  -0.05592
 122       51D+1        0.01849   0.00000   0.00000   0.05243   0.00000
 123       51D-1        0.00000   0.00000   0.05243   0.00000   0.00000
 124       51D+2        0.00000   0.00000   0.00000   0.00000  -0.00000
 125       51D-2        0.00000   0.00000   0.00000   0.00000   0.00000
 126       52D 0        0.00000   0.04133   0.00000   0.00000   0.14359
 127       52D+1        0.20664   0.00000   0.00000  -0.24611   0.00000
 128       52D-1        0.00000   0.00000  -0.24611   0.00000   0.00000
 129       52D+2        0.00000   0.00000   0.00000   0.00000  -0.00000
 130       52D-2        0.00000   0.00000   0.00000   0.00000   0.00000
 131       53D 0        0.00000  -0.00044   0.00000   0.00000  -0.00073
 132       53D+1       -0.00042   0.00000   0.00000   0.00031   0.00000
 133       53D-1        0.00000   0.00000   0.00031   0.00000   0.00000
 134       53D+2        0.00000   0.00000   0.00000   0.00000  -0.00000
 135       53D-2        0.00000   0.00000   0.00000   0.00000   0.00000
 136       54F 0        0.00000  -0.00348   0.00000   0.00000  -0.01518
 137       54F+1       -0.00060   0.00000   0.00000   0.01048   0.00000
 138       54F-1        0.00000   0.00000   0.01048   0.00000   0.00000
 139       54F+2        0.00000   0.00000   0.00000   0.00000   0.00000
 140       54F-2        0.00000   0.00000   0.00000   0.00000   0.00000
 141       54F+3        0.00000   0.00000   0.00000  -0.00000   0.00000
 142       54F-3        0.00000   0.00000  -0.00000   0.00000   0.00000
 143       55F 0        0.00000  -0.00785   0.00000   0.00000  -0.02317
 144       55F+1       -0.00356   0.00000   0.00000   0.02343   0.00000
 145       55F-1        0.00000   0.00000   0.02343   0.00000   0.00000
 146       55F+2        0.00000  -0.00000   0.00000   0.00000  -0.00000
 147       55F-2        0.00000   0.00000   0.00000   0.00000   0.00000
 148       55F+3       -0.00000   0.00000   0.00000   0.00000   0.00000
 149       55F-3        0.00000   0.00000   0.00000   0.00000   0.00000
 150       56F 0        0.00000   0.00406   0.00000   0.00000  -0.01796
 151       56F+1       -0.00460   0.00000   0.00000  -0.01359   0.00000
 152       56F-1        0.00000   0.00000  -0.01359   0.00000   0.00000
 153       56F+2        0.00000   0.00000   0.00000   0.00000  -0.00000
 154       56F-2        0.00000   0.00000   0.00000   0.00000   0.00000
 155       56F+3       -0.00000   0.00000   0.00000   0.00000   0.00000
 156       56F-3        0.00000   0.00000   0.00000   0.00000   0.00000
 157       57F 0        0.00000   0.00011   0.00000   0.00000  -0.00768
 158       57F+1       -0.00165   0.00000   0.00000  -0.00864   0.00000
 159       57F-1        0.00000   0.00000  -0.00864   0.00000   0.00000
 160       57F+2        0.00000   0.00000   0.00000   0.00000   0.00000
 161       57F-2        0.00000   0.00000   0.00000   0.00000   0.00000
 162       57F+3        0.00000   0.00000   0.00000  -0.00000   0.00000
 163       57F-3        0.00000   0.00000  -0.00000   0.00000   0.00000
 164       58G 0        0.00000  -0.00036   0.00000   0.00000   0.00417
 165       58G+1       -0.00142   0.00000   0.00000  -0.00357   0.00000
 166       58G-1        0.00000   0.00000  -0.00357   0.00000   0.00000
 167       58G+2        0.00000   0.00000   0.00000   0.00000   0.00000
 168       58G-2        0.00000   0.00000   0.00000   0.00000   0.00000
 169       58G+3       -0.00000   0.00000   0.00000  -0.00000   0.00000
 170       58G-3        0.00000   0.00000  -0.00000   0.00000   0.00000
 171       58G+4        0.00000   0.00000   0.00000   0.00000   0.00000
 172       58G-4        0.00000   0.00000   0.00000   0.00000   0.00000
 173       59G 0        0.00000  -0.00150   0.00000   0.00000  -0.00166
 174       59G+1        0.00026   0.00000   0.00000   0.00006   0.00000
 175       59G-1        0.00000   0.00000   0.00006   0.00000   0.00000
 176       59G+2        0.00000   0.00000   0.00000   0.00000  -0.00000
 177       59G-2        0.00000   0.00000   0.00000   0.00000   0.00000
 178       59G+3       -0.00000   0.00000   0.00000  -0.00000   0.00000
 179       59G-3        0.00000   0.00000  -0.00000   0.00000   0.00000
 180       59G+4        0.00000  -0.00000   0.00000   0.00000  -0.00000
 181       59G-4        0.00000   0.00000   0.00000   0.00000   0.00000
 182       60G 0        0.00000  -0.00047   0.00000   0.00000   0.00552
 183       60G+1        0.00127   0.00000   0.00000   0.00627   0.00000
 184       60G-1        0.00000   0.00000   0.00627   0.00000   0.00000
 185       60G+2        0.00000  -0.00000   0.00000   0.00000  -0.00000
 186       60G-2        0.00000   0.00000   0.00000   0.00000   0.00000
 187       60G+3        0.00000   0.00000   0.00000   0.00000   0.00000
 188       60G-3        0.00000   0.00000   0.00000   0.00000   0.00000
 189       60G+4        0.00000   0.00000   0.00000   0.00000   0.00000
 190       60G-4        0.00000   0.00000   0.00000   0.00000   0.00000
 191 2   O  1S          0.00000  -0.00000   0.00000   0.00000  -0.00000
 192        2S          0.00000   0.00001   0.00000   0.00000   0.00000
 193        3S          0.00000  -0.00004   0.00000   0.00000  -0.00000
 194        4S          0.00000   0.00026   0.00000   0.00000   0.00002
 195        5S          0.00000  -0.00273   0.00000   0.00000  -0.00025
 196        6S          0.00000  -0.03987   0.00000   0.00000  -0.00409
 197        7S          0.00000  -0.13598   0.00000   0.00000  -0.00920
 198        8S          0.00000   0.50701   0.00000   0.00000   0.04648
 199        9S          0.00000   0.12968   0.00000   0.00000   0.00292
 200       10S          0.00000   0.43013   0.00000   0.00000  -0.05180
 201       11S          0.00000  -0.01014   0.00000   0.00000   0.00095
 202       12S          0.00000   0.03962   0.00000   0.00000   0.00357
 203       13S          0.00000   0.08770   0.00000   0.00000   0.01103
 204       14PX         0.00082   0.00000   0.00000   0.00781   0.00000
 205       14PY         0.00000   0.00000   0.00781   0.00000   0.00000
 206       14PZ         0.00000  -0.00151   0.00000   0.00000   0.00677
 207       15PX         0.00912   0.00000   0.00000   0.08106   0.00000
 208       15PY         0.00000   0.00000   0.08106   0.00000   0.00000
 209       15PZ         0.00000  -0.01750   0.00000   0.00000   0.07268
 210       16PX         0.03041   0.00000   0.00000   0.25967   0.00000
 211       16PY         0.00000   0.00000   0.25967   0.00000   0.00000
 212       16PZ         0.00000  -0.06287   0.00000   0.00000   0.23832
 213       17PX         0.04742   0.00000   0.00000   0.42552   0.00000
 214       17PY         0.00000   0.00000   0.42552   0.00000   0.00000
 215       17PZ         0.00000  -0.07502   0.00000   0.00000   0.38842
 216       18PX         0.02450   0.00000   0.00000   0.39551   0.00000
 217       18PY         0.00000   0.00000   0.39551   0.00000   0.00000
 218       18PZ         0.00000  -0.01931   0.00000   0.00000   0.27280
 219       19PX         0.00077   0.00000   0.00000   0.00456   0.00000
 220       19PY         0.00000   0.00000   0.00456   0.00000   0.00000
 221       19PZ         0.00000  -0.00173   0.00000   0.00000   0.00491
 222       20PX        -0.00021   0.00000   0.00000  -0.00206   0.00000
 223       20PY         0.00000   0.00000  -0.00206   0.00000   0.00000
 224       20PZ         0.00000   0.00037   0.00000   0.00000  -0.00175
 225       21PX         0.01056   0.00000   0.00000   0.08094   0.00000
 226       21PY         0.00000   0.00000   0.08094   0.00000   0.00000
 227       21PZ         0.00000   0.01418   0.00000   0.00000   0.08442
 228       22D 0        0.00000  -0.00542   0.00000   0.00000   0.00963
 229       22D+1        0.00501   0.00000   0.00000   0.00845   0.00000
 230       22D-1        0.00000   0.00000   0.00845   0.00000   0.00000
 231       22D+2        0.00000  -0.00000   0.00000   0.00000  -0.00000
 232       22D-2        0.00000   0.00000   0.00000   0.00000   0.00000
 233       23D 0        0.00000  -0.00828   0.00000   0.00000   0.03365
 234       23D+1        0.01194   0.00000   0.00000   0.03879   0.00000
 235       23D-1        0.00000   0.00000   0.03879   0.00000   0.00000
 236       23D+2        0.00000   0.00000   0.00000   0.00000   0.00000
 237       23D-2        0.00000   0.00000   0.00000   0.00000   0.00000
 238       24D 0        0.00000  -0.00029   0.00000   0.00000   0.00033
 239       24D+1        0.00021   0.00000   0.00000   0.00038   0.00000
 240       24D-1        0.00000   0.00000   0.00038   0.00000   0.00000
 241       24D+2        0.00000  -0.00000   0.00000   0.00000   0.00000
 242       24D-2        0.00000   0.00000   0.00000   0.00000   0.00000
 243       25D 0        0.00000  -0.00560   0.00000   0.00000   0.00927
 244       25D+1        0.00240   0.00000   0.00000   0.04919   0.00000
 245       25D-1        0.00000   0.00000   0.04919   0.00000   0.00000
 246       25D+2        0.00000  -0.00000   0.00000   0.00000   0.00000
 247       25D-2        0.00000   0.00000   0.00000   0.00000   0.00000
 248       26F 0        0.00000  -0.00208   0.00000   0.00000   0.00700
 249       26F+1        0.00341   0.00000   0.00000   0.00601   0.00000
 250       26F-1        0.00000   0.00000   0.00601   0.00000   0.00000
 251       26F+2        0.00000   0.00000   0.00000   0.00000   0.00000
 252       26F-2        0.00000   0.00000   0.00000   0.00000   0.00000
 253       26F+3        0.00000   0.00000   0.00000   0.00000   0.00000
 254       26F-3        0.00000   0.00000   0.00000   0.00000   0.00000
 255       27F 0        0.00000  -0.00253   0.00000   0.00000   0.00620
 256       27F+1        0.00154   0.00000   0.00000   0.00845   0.00000
 257       27F-1        0.00000   0.00000   0.00845   0.00000   0.00000
 258       27F+2        0.00000  -0.00000   0.00000   0.00000  -0.00000
 259       27F-2        0.00000   0.00000   0.00000   0.00000   0.00000
 260       27F+3       -0.00000   0.00000   0.00000  -0.00000   0.00000
 261       27F-3        0.00000   0.00000  -0.00000   0.00000   0.00000
                           9        10        11        12        13
                           O         V         V         V         V
     Eigenvalues --    -0.19467   0.00987   0.00987   0.02039   0.02503
   1 1   Sc 1S          0.00000   0.00000   0.00000   0.00000  -0.00000
   2        2S         -0.00000   0.00000   0.00000  -0.00000   0.00000
   3        3S          0.00000   0.00000   0.00000   0.00000  -0.00000
   4        4S         -0.00000   0.00000   0.00000  -0.00000   0.00000
   5        5S          0.00000   0.00000   0.00000   0.00000  -0.00000
   6        6S         -0.00000   0.00000   0.00000  -0.00000   0.00000
   7        7S          0.00001   0.00000   0.00000   0.00000  -0.00001
   8        8S         -0.00002   0.00000   0.00000  -0.00001   0.00003
   9        9S          0.00007   0.00000   0.00000   0.00003  -0.00010
  10       10S         -0.00019   0.00000   0.00000  -0.00007   0.00028
  11       11S          0.00040   0.00000   0.00000   0.00019  -0.00073
  12       12S          0.00088   0.00000   0.00000  -0.00068   0.00266
  13       13S         -0.03185   0.00000   0.00000   0.00392  -0.01642
  14       14S          0.15711   0.00000   0.00000  -0.01890   0.07991
  15       15S          0.07936   0.00000   0.00000  -0.05612   0.22909
  16       16S         -0.26902   0.00000   0.00000   0.08215  -0.34655
  17       17S         -0.31931   0.00000   0.00000   0.10017  -0.27487
  18       18S          0.14815   0.00000   0.00000   0.65296   0.65122
  19       19S          0.58949   0.00000   0.00000   3.93537  -1.58455
  20       20S          0.35369   0.00000   0.00000  -3.30348   2.63698
  21       21S         -0.11445   0.00000   0.00000   0.04823  -0.19512
  22       22S          0.12468   0.00000   0.00000  -0.11921   0.40568
  23       23S          0.01320   0.00000   0.00000   2.12599  -2.10107
  24       24PX         0.00000  -0.00000   0.00000   0.00000   0.00000
  25       24PY         0.00000   0.00000  -0.00000   0.00000   0.00000
  26       24PZ         0.00000   0.00000   0.00000  -0.00000   0.00000
  27       25PX         0.00000   0.00000   0.00000   0.00000   0.00000
  28       25PY         0.00000   0.00000   0.00000   0.00000   0.00000
  29       25PZ        -0.00000   0.00000   0.00000   0.00000  -0.00000
  30       26PX         0.00000  -0.00000   0.00000   0.00000   0.00000
  31       26PY         0.00000   0.00000  -0.00000   0.00000   0.00000
  32       26PZ         0.00000   0.00000   0.00000  -0.00000   0.00001
  33       27PX         0.00000   0.00001   0.00000   0.00000   0.00000
  34       27PY         0.00000   0.00000   0.00001   0.00000   0.00000
  35       27PZ        -0.00001   0.00000   0.00000   0.00001  -0.00003
  36       28PX         0.00000  -0.00003   0.00000   0.00000   0.00000
  37       28PY         0.00000   0.00000  -0.00003   0.00000   0.00000
  38       28PZ         0.00003   0.00000   0.00000  -0.00003   0.00011
  39       29PX         0.00000   0.00010   0.00000   0.00000   0.00000
  40       29PY         0.00000   0.00000   0.00010   0.00000   0.00000
  41       29PZ        -0.00011   0.00000   0.00000   0.00009  -0.00035
  42       30PX         0.00000  -0.00027   0.00000   0.00000   0.00000
  43       30PY         0.00000   0.00000  -0.00027   0.00000   0.00000
  44       30PZ         0.00036   0.00000   0.00000  -0.00028   0.00102
  45       31PX         0.00000   0.00058   0.00000   0.00000   0.00000
  46       31PY         0.00000   0.00000   0.00058   0.00000   0.00000
  47       31PZ        -0.00131   0.00000   0.00000   0.00089  -0.00296
  48       32PX         0.00000  -0.00097   0.00000   0.00000   0.00000
  49       32PY         0.00000   0.00000  -0.00097   0.00000   0.00000
  50       32PZ         0.00547   0.00000   0.00000  -0.00335   0.00960
  51       33PX         0.00000   0.09469   0.00000   0.00000   0.00000
  52       33PY         0.00000   0.00000   0.09469   0.00000   0.00000
  53       33PZ         0.00826   0.00000   0.00000   0.04058  -0.19328
  54       34PX         0.00000  -0.01881   0.00000   0.00000   0.00000
  55       34PY         0.00000   0.00000  -0.01881   0.00000   0.00000
  56       34PZ        -0.03058   0.00000   0.00000   0.01321  -0.00890
  57       35PX         0.00000   0.16895   0.00000   0.00000   0.00000
  58       35PY         0.00000   0.00000   0.16895   0.00000   0.00000
  59       35PZ        -0.03829   0.00000   0.00000   0.05187  -0.32034
  60       36PX         0.00000   0.00720   0.00000   0.00000   0.00000
  61       36PY         0.00000   0.00000   0.00720   0.00000   0.00000
  62       36PZ        -0.05911   0.00000   0.00000   0.00889  -0.11365
  63       37PX         0.00000  -0.09800   0.00000   0.00000   0.00000
  64       37PY         0.00000   0.00000  -0.09800   0.00000   0.00000
  65       37PZ         0.02499   0.00000   0.00000  -0.19143   0.07037
  66       38PX         0.00000   0.12311   0.00000   0.00000   0.00000
  67       38PY         0.00000   0.00000   0.12311   0.00000   0.00000
  68       38PZ         0.22561   0.00000   0.00000  -1.29416   0.01362
  69       39PX         0.00000  -0.29074   0.00000   0.00000   0.00000
  70       39PY         0.00000   0.00000  -0.29074   0.00000   0.00000
  71       39PZ         0.11680   0.00000   0.00000   1.04565   0.57384
  72       40PX         0.00000  -0.09511   0.00000   0.00000   0.00000
  73       40PY         0.00000   0.00000  -0.09511   0.00000   0.00000
  74       40PZ        -0.00821   0.00000   0.00000  -0.04217   0.19594
  75       41PX         0.00000  -0.21452   0.00000   0.00000   0.00000
  76       41PY         0.00000   0.00000  -0.21452   0.00000   0.00000
  77       41PZ         0.00143   0.00000   0.00000  -0.04627   0.36323
  78       42PX         0.00000   1.08158   0.00000   0.00000   0.00000
  79       42PY         0.00000   0.00000   1.08158   0.00000   0.00000
  80       42PZ         0.00130   0.00000   0.00000  -1.10164  -1.02084
  81       43D 0       -0.00001   0.00000   0.00000  -0.00000  -0.00000
  82       43D+1        0.00000   0.00000   0.00000   0.00000   0.00000
  83       43D-1        0.00000   0.00000   0.00000   0.00000   0.00000
  84       43D+2        0.00000   0.00000   0.00000   0.00000  -0.00000
  85       43D-2        0.00000   0.00000   0.00000   0.00000   0.00000
  86       44D 0        0.00002   0.00000   0.00000   0.00005   0.00001
  87       44D+1        0.00000   0.00003   0.00000   0.00000   0.00000
  88       44D-1        0.00000   0.00000   0.00003   0.00000   0.00000
  89       44D+2       -0.00000   0.00000   0.00000  -0.00000  -0.00000
  90       44D-2        0.00000   0.00000   0.00000   0.00000   0.00000
  91       45D 0       -0.00475   0.00000   0.00000   0.00205  -0.00083
  92       45D+1        0.00000   0.00341   0.00000   0.00000   0.00000
  93       45D-1        0.00000   0.00000   0.00341   0.00000   0.00000
  94       45D+2        0.00000   0.00000   0.00000   0.00000  -0.00000
  95       45D-2        0.00000   0.00000   0.00000   0.00000   0.00000
  96       46D 0       -0.02307   0.00000   0.00000   0.02910  -0.00084
  97       46D+1        0.00000   0.03604   0.00000   0.00000   0.00000
  98       46D-1        0.00000   0.00000   0.03604   0.00000   0.00000
  99       46D+2        0.00000   0.00000   0.00000  -0.00000  -0.00000
 100       46D-2        0.00000   0.00000   0.00000   0.00000   0.00000
 101       47D 0       -0.00859   0.00000   0.00000   0.00443  -0.01666
 102       47D+1        0.00000   0.27409   0.00000   0.00000   0.00000
 103       47D-1        0.00000   0.00000   0.27409   0.00000   0.00000
 104       47D+2       -0.00000   0.00000   0.00000  -0.00000  -0.00000
 105       47D-2        0.00000   0.00000   0.00000   0.00000   0.00000
 106       48D 0       -0.02959   0.00000   0.00000   0.02283   0.01152
 107       48D+1        0.00000   0.04210   0.00000   0.00000   0.00000
 108       48D-1        0.00000   0.00000   0.04210   0.00000   0.00000
 109       48D+2        0.00000   0.00000   0.00000  -0.00000  -0.00000
 110       48D-2        0.00000   0.00000   0.00000   0.00000   0.00000
 111       49D 0       -0.04787   0.00000   0.00000   0.18942  -0.06734
 112       49D+1        0.00000   0.10018   0.00000   0.00000   0.00000
[...]
  41       29PZ         0.00005   0.00003   0.00003   0.00000
  42       30PX        -0.00046  -0.00023  -0.00023   0.00000
  43       30PY        -0.00046  -0.00023  -0.00023   0.00000
  44       30PZ        -0.00044  -0.00022  -0.00022  -0.00000
  45       31PX         0.00415   0.00207   0.00207   0.00000
  46       31PY         0.00415   0.00207   0.00207   0.00000
  47       31PZ         0.00403   0.00202   0.00201   0.00002
  48       32PX        -0.03646  -0.01823  -0.01823   0.00000
  49       32PY        -0.03646  -0.01823  -0.01823   0.00000
  50       32PZ        -0.03559  -0.01786  -0.01772  -0.00014
  51       33PX        -0.17389  -0.08694  -0.08694   0.00000
  52       33PY        -0.17389  -0.08694  -0.08694   0.00000
  53       33PZ        -0.16845  -0.08440  -0.08404  -0.00036
  54       34PX         0.63426   0.31713   0.31713   0.00000
  55       34PY         0.63426   0.31713   0.31713   0.00000
  56       34PZ         0.60751   0.30460   0.30290   0.00170
  57       35PX        -0.05325  -0.02662  -0.02662   0.00000
  58       35PY        -0.05325  -0.02662  -0.02662   0.00000
  59       35PZ         0.12385   0.06255   0.06130   0.00125
  60       36PX         0.46616   0.23308   0.23308   0.00000
  61       36PY         0.46616   0.23308   0.23308  -0.00000
  62       36PZ         0.37164   0.18392   0.18772  -0.00381
  63       37PX         0.02269   0.01134   0.01134   0.00000
  64       37PY         0.02269   0.01134   0.01134   0.00000
  65       37PZ         0.05064   0.02875   0.02189   0.00686
  66       38PX        -0.01961  -0.00981  -0.00981   0.00000
  67       38PY        -0.01961  -0.00981  -0.00981   0.00000
  68       38PZ         0.07313   0.08153  -0.00840   0.08992
  69       39PX        -0.00351  -0.00176  -0.00176   0.00000
  70       39PY        -0.00351  -0.00176  -0.00176   0.00000
  71       39PZ         0.03664   0.03905  -0.00242   0.04147
  72       40PX         0.15403   0.07702   0.07702   0.00000
  73       40PY         0.15403   0.07702   0.07702   0.00000
  74       40PZ         0.15067   0.07552   0.07515   0.00037
  75       41PX         0.94829   0.47414   0.47414   0.00000
  76       41PY         0.94829   0.47414   0.47414   0.00000
  77       41PZ         0.73200   0.36598   0.36602  -0.00004
  78       42PX         0.00033   0.00016   0.00016   0.00000
  79       42PY         0.00033   0.00016   0.00016  -0.00000
  80       42PZ         0.00069   0.00049   0.00021   0.00028
  81       43D 0        0.00000   0.00000   0.00000   0.00000
  82       43D+1        0.00000   0.00000   0.00000  -0.00000
  83       43D-1        0.00000   0.00000   0.00000   0.00000
  84       43D+2        0.00000   0.00000   0.00000   0.00000
  85       43D-2       -0.00000   0.00000  -0.00000   0.00000
  86       44D 0       -0.00006  -0.00003  -0.00003  -0.00000
  87       44D+1       -0.00000  -0.00000  -0.00000   0.00000
  88       44D-1       -0.00000  -0.00000  -0.00000   0.00000
  89       44D+2        0.00000   0.00000   0.00000   0.00000
  90       44D-2       -0.00000  -0.00000  -0.00000  -0.00000
  91       45D 0        0.02995   0.01503   0.01491   0.00012
  92       45D+1        0.00551   0.00275   0.00275   0.00000
  93       45D-1        0.00551   0.00275   0.00275   0.00000
  94       45D+2       -0.00000  -0.00000   0.00000  -0.00000
  95       45D-2        0.00000   0.00000   0.00000  -0.00000
  96       46D 0        0.26474   0.13291   0.13183   0.00108
  97       46D+1        0.06659   0.03329   0.03329   0.00000
  98       46D-1        0.06659   0.03329   0.03329   0.00000
  99       46D+2       -0.00000  -0.00000   0.00000  -0.00000
 100       46D-2        0.00000   0.00000   0.00000  -0.00000
 101       47D 0        0.14921   0.07493   0.07428   0.00065
 102       47D+1       -0.08865  -0.04432  -0.04432   0.00000
 103       47D-1       -0.08865  -0.04432  -0.04432  -0.00000
 104       47D+2        0.00000  -0.00000   0.00000  -0.00000
 105       47D-2       -0.00000  -0.00000   0.00000  -0.00000
 106       48D 0        0.22973   0.11682   0.11291   0.00391
 107       48D+1        0.07919   0.03960   0.03960   0.00000
 108       48D-1        0.07919   0.03960   0.03960   0.00000
 109       48D+2       -0.00000  -0.00000  -0.00000   0.00000
 110       48D-2        0.00000   0.00000  -0.00000   0.00000
 111       49D 0        0.00203   0.00475  -0.00271   0.00746
 112       49D+1       -0.02054  -0.01027  -0.01027   0.00000
 113       49D-1       -0.02054  -0.01027  -0.01027   0.00000
 114       49D+2        0.00000   0.00000   0.00000   0.00000
 115       49D-2        0.00000   0.00000   0.00000   0.00000
 116       50D 0        0.00055   0.00084  -0.00029   0.00113
 117       50D+1       -0.00405  -0.00202  -0.00202   0.00000
 118       50D-1       -0.00405  -0.00202  -0.00202   0.00000
 119       50D+2       -0.00000  -0.00000  -0.00000  -0.00000
 120       50D-2       -0.00000  -0.00000   0.00000  -0.00000
 121       51D 0       -0.06582  -0.03307  -0.03275  -0.00031
 122       51D+1       -0.02880  -0.01440  -0.01440   0.00000
 123       51D-1       -0.02880  -0.01440  -0.01440   0.00000
 124       51D+2        0.00000   0.00000  -0.00000   0.00000
 125       51D-2        0.00000  -0.00000   0.00000  -0.00000
 126       52D 0        0.22748   0.11420   0.11328   0.00092
 127       52D+1        0.19619   0.09810   0.09810  -0.00000
 128       52D-1        0.19619   0.09810   0.09810   0.00000
 129       52D+2        0.00000   0.00000   0.00000   0.00000
 130       52D-2        0.00000   0.00000   0.00000   0.00000
 131       53D 0       -0.00002  -0.00002  -0.00000  -0.00002
 132       53D+1       -0.00002  -0.00001  -0.00001   0.00000
 133       53D-1       -0.00002  -0.00001  -0.00001   0.00000
 134       53D+2        0.00000   0.00000   0.00000   0.00000
 135       53D-2       -0.00000  -0.00000  -0.00000  -0.00000
 136       54F 0        0.00324   0.00162   0.00162   0.00000
 137       54F+1        0.00135   0.00067   0.00067   0.00000
 138       54F-1        0.00135   0.00067   0.00067   0.00000
 139       54F+2        0.00000  -0.00000   0.00000  -0.00000
 140       54F-2        0.00000  -0.00000   0.00000  -0.00000
 141       54F+3       -0.00000  -0.00000  -0.00000   0.00000
 142       54F-3       -0.00000  -0.00000  -0.00000  -0.00000
 143       55F 0        0.01204   0.00602   0.00602   0.00001
 144       55F+1        0.01377   0.00688   0.00688   0.00000
 145       55F-1        0.01377   0.00688   0.00688   0.00000
 146       55F+2       -0.00000  -0.00000   0.00000  -0.00000
 147       55F-2        0.00000  -0.00000   0.00000  -0.00000
 148       55F+3        0.00000   0.00000   0.00000   0.00000
 149       55F-3       -0.00000  -0.00000  -0.00000   0.00000
 150       56F 0       -0.00770  -0.00401  -0.00369  -0.00032
 151       56F+1       -0.01024  -0.00512  -0.00512   0.00000
 152       56F-1       -0.01024  -0.00512  -0.00512   0.00000
 153       56F+2        0.00000  -0.00000   0.00000  -0.00000
 154       56F-2        0.00000  -0.00000   0.00000  -0.00000
 155       56F+3       -0.00000   0.00000  -0.00000   0.00000
 156       56F-3        0.00000   0.00000  -0.00000   0.00000
 157       57F 0       -0.00116  -0.00062  -0.00055  -0.00007
 158       57F+1       -0.00146  -0.00073  -0.00073   0.00000
 159       57F-1       -0.00146  -0.00073  -0.00073   0.00000
 160       57F+2        0.00000   0.00000  -0.00000   0.00000
 161       57F-2        0.00000   0.00000  -0.00000   0.00000
 162       57F+3       -0.00000  -0.00000  -0.00000  -0.00000
 163       57F-3        0.00000   0.00000   0.00000  -0.00000
 164       58G 0        0.00069   0.00034   0.00034   0.00000
 165       58G+1        0.00041   0.00020   0.00020   0.00000
 166       58G-1        0.00041   0.00020   0.00020   0.00000
 167       58G+2        0.00000   0.00000  -0.00000   0.00000
 168       58G-2        0.00000   0.00000  -0.00000   0.00000
 169       58G+3       -0.00000  -0.00000  -0.00000  -0.00000
 170       58G-3        0.00000   0.00000   0.00000  -0.00000
 171       58G+4       -0.00000  -0.00000   0.00000  -0.00000
 172       58G-4       -0.00000  -0.00000  -0.00000  -0.00000
 173       59G 0       -0.00010  -0.00005  -0.00005  -0.00001
 174       59G+1       -0.00006  -0.00003  -0.00003   0.00000
 175       59G-1       -0.00006  -0.00003  -0.00003  -0.00000
 176       59G+2       -0.00000   0.00000  -0.00000   0.00000
 177       59G-2       -0.00000   0.00000  -0.00000   0.00000
 178       59G+3        0.00000   0.00000   0.00000  -0.00000
 179       59G-3        0.00000   0.00000   0.00000  -0.00000
 180       59G+4        0.00000  -0.00000   0.00000  -0.00000
 181       59G-4        0.00000  -0.00000   0.00000  -0.00000
 182       60G 0       -0.00124  -0.00062  -0.00061  -0.00001
 183       60G+1       -0.00163  -0.00081  -0.00081   0.00000
 184       60G-1       -0.00163  -0.00081  -0.00081   0.00000
 185       60G+2        0.00000   0.00000   0.00000   0.00000
 186       60G-2        0.00000   0.00000   0.00000   0.00000
 187       60G+3        0.00000   0.00000   0.00000   0.00000
 188       60G-3       -0.00000  -0.00000  -0.00000  -0.00000
 189       60G+4       -0.00000  -0.00000  -0.00000  -0.00000
 190       60G-4       -0.00000  -0.00000  -0.00000   0.00000
 191 2   O  1S         -0.00000  -0.00000  -0.00000  -0.00000
 192        2S          0.00000   0.00000   0.00000   0.00000
 193        3S         -0.00000  -0.00000  -0.00000  -0.00000
 194        4S          0.00001   0.00000   0.00000   0.00000
 195        5S         -0.00024  -0.00012  -0.00012  -0.00000
 196        6S         -0.01128  -0.00566  -0.00562  -0.00003
 197        7S         -0.10275  -0.05150  -0.05125  -0.00026
 198        8S          1.09378   0.54758   0.54620   0.00138
 199        9S          0.22458   0.11254   0.11204   0.00050
 200       10S          0.79102   0.39268   0.39834  -0.00566
 201       11S         -0.00208  -0.00102  -0.00105   0.00003
 202       12S          0.00850   0.00426   0.00424   0.00002
 203       13S          0.12008   0.05054   0.06955  -0.01901
 204       14PX         0.00184   0.00092   0.00092   0.00000
 205       14PY         0.00184   0.00092   0.00092  -0.00000
 206       14PZ         0.00165   0.00083   0.00082   0.00001
 207       15PX         0.06236   0.03118   0.03118   0.00000
 208       15PY         0.06236   0.03118   0.03118   0.00000
 209       15PZ         0.05839   0.02930   0.02909   0.00021
 210       16PX         0.37051   0.18526   0.18526   0.00000
 211       16PY         0.37051   0.18526   0.18526  -0.00000
 212       16PZ         0.35761   0.17944   0.17818   0.00126
 213       17PX         0.77611   0.38805   0.38805   0.00000
 214       17PY         0.77611   0.38805   0.38805   0.00000
 215       17PZ         0.66680   0.33469   0.33212   0.00257
 216       18PX         0.56904   0.28452   0.28452   0.00000
 217       18PY         0.56904   0.28452   0.28452   0.00000
 218       18PZ         0.22129   0.11232   0.10897   0.00335
 219       19PX         0.00219   0.00110   0.00110   0.00000
 220       19PY         0.00219   0.00110   0.00110   0.00000
 221       19PZ         0.00262   0.00131   0.00130   0.00001
 222       20PX        -0.00029  -0.00015  -0.00015   0.00000
 223       20PY        -0.00029  -0.00015  -0.00015   0.00000
 224       20PZ        -0.00026  -0.00013  -0.00013  -0.00000
 225       21PX         0.05330   0.02665   0.02665   0.00000
 226       21PY         0.05330   0.02665   0.02665   0.00000
 227       21PZ         0.03244   0.02026   0.01218   0.00808
 228       22D 0        0.00367   0.00185   0.00182   0.00003
 229       22D+1        0.00130   0.00065   0.00065   0.00000
 230       22D-1        0.00130   0.00065   0.00065   0.00000
 231       22D+2       -0.00000  -0.00000   0.00000  -0.00000
 232       22D-2       -0.00000  -0.00000   0.00000  -0.00000
 233       23D 0        0.01974   0.01012   0.00963   0.00049
 234       23D+1        0.01268   0.00634   0.00634   0.00000
 235       23D-1        0.01268   0.00634   0.00634  -0.00000
 236       23D+2       -0.00000   0.00000  -0.00000   0.00000
 237       23D-2        0.00000  -0.00000   0.00000  -0.00000
 238       24D 0        0.00001   0.00001   0.00001   0.00000
 239       24D+1        0.00000   0.00000   0.00000   0.00000
 240       24D-1        0.00000   0.00000   0.00000   0.00000
 241       24D+2       -0.00000  -0.00000  -0.00000   0.00000
 242       24D-2       -0.00000  -0.00000  -0.00000  -0.00000
 243       25D 0        0.00158   0.00097   0.00060   0.00037
 244       25D+1       -0.00109  -0.00055  -0.00055   0.00000
 245       25D-1       -0.00109  -0.00055  -0.00055   0.00000
 246       25D+2        0.00000  -0.00000   0.00000  -0.00000
 247       25D-2       -0.00000  -0.00000  -0.00000   0.00000
 248       26F 0        0.00236   0.00119   0.00117   0.00002
 249       26F+1        0.00107   0.00054   0.00054   0.00000
 250       26F-1        0.00107   0.00054   0.00054   0.00000
 251       26F+2       -0.00000  -0.00000   0.00000  -0.00000
 252       26F-2       -0.00000  -0.00000   0.00000  -0.00000
 253       26F+3        0.00000   0.00000   0.00000   0.00000
 254       26F-3       -0.00000  -0.00000  -0.00000  -0.00000
 255       27F 0        0.00229   0.00120   0.00109   0.00011
 256       27F+1        0.00063   0.00031   0.00031  -0.00000
 257       27F-1        0.00063   0.00031   0.00031  -0.00000
 258       27F+2        0.00000   0.00000   0.00000   0.00000
 259       27F-2        0.00000   0.00000   0.00000  -0.00000
 260       27F+3       -0.00000  -0.00000  -0.00000   0.00000
 261       27F-3       -0.00000  -0.00000  -0.00000   0.00000
          Condensed to atoms (all electrons):
               1          2
     1  Sc  10.556113  -0.747251
     2  O   -0.747251   7.938388
          Atomic-Atomic Spin Densities.
               1          2
     1  Sc   1.042138  -0.035616
     2  O   -0.035616   0.029094
 Mulliken charges and spin densities:
               1          2
     1  Sc   1.191138   1.006522
     2  O   -1.191138  -0.006522
 Sum of Mulliken charges =  -0.00000   1.00000
 Mulliken charges and spin densities with hydrogens summed into heavy atoms:
               1          2
     1  Sc   1.191138   1.006522
     2  O   -1.191138  -0.006522
 Electronic spatial extent (au):  <R**2>=             79.8627
 Charge=             -0.0000 electrons
 Dipole moment (field-independent basis, Debye):
    X=              0.0000    Y=              0.0000    Z=              0.1868  Tot=              0.1868
 Quadrupole moment (field-independent basis, Debye-Ang):
   XX=            -22.7351   YY=            -22.7351   ZZ=            -29.6134
   XY=              0.0000   XZ=              0.0000   YZ=              0.0000
 Traceless Quadrupole moment (field-independent basis, Debye-Ang):
   XX=              2.2928   YY=              2.2928   ZZ=             -4.5855
   XY=              0.0000   XZ=              0.0000   YZ=              0.0000
 Octapole moment (field-independent basis, Debye-Ang**2):
  XXX=              0.0000  YYY=              0.0000  ZZZ=            -21.7776  XYY=              0.0000
  XXY=              0.0000  XXZ=             -7.0513  XZZ=              0.0000  YZZ=              0.0000
  YYZ=             -7.0513  XYZ=              0.0000
 Hexadecapole moment (field-independent basis, Debye-Ang**3):
 XXXX=            -65.5630 YYYY=            -65.5630 ZZZZ=           -148.7560 XXXY=              0.0000
 XXXZ=              0.0000 YYYX=              0.0000 YYYZ=              0.0000 ZZZX=              0.0000
 ZZZY=              0.0000 XXYY=            -21.8543 XXZZ=            -35.7076 YYZZ=            -35.7076
 XXYZ=              0.0000 YYXZ=              0.0000 ZZXY=              0.0000
 N-N= 2.686591993902D+01 E-N=-1.896456944348D+02  KE= 3.256968110603D+01
 Symmetry A1   KE= 1.515734227899D+01
 Symmetry A2   KE= 4.675520955810D-49
 Symmetry B1   KE= 8.706169413273D+00
 Symmetry B2   KE= 8.706169413360D+00
 Symmetry A1   SP= 1.000000000000D+00
 Symmetry A2   SP=-1.807910961367D-50
 Symmetry B1   SP=-5.076775664773D-18
 Symmetry B2   SP=-2.665162456448D-17
 Orbital energies and kinetic energies (alpha):
                                 1                 2
   4         O                -1.520936          2.052417
   5         O                -1.066686          1.559404
   6         O                -0.577411          2.300667
   7         O                -0.577411          2.300667
   8         O                -0.468788          2.930254
   9         O                -0.194666          0.230609
  10         V                 0.009867          0.046821
  11         V                 0.009867          0.046821
  12         V                 0.020390          0.030115
  13         V                 0.025030          0.042643
  14         V                 0.037818          0.043748
 Total kinetic energy from orbitals= 3.280028988959D+01
                          Isotropic Fermi Contact Couplings
        Atom                 a.u.       MegaHertz       Gauss      10(-4) cm-1
     1  Sc(45)             0.00004       0.04263       0.01521       0.01422
     2  O(17)              0.00005      -0.03328      -0.01187      -0.01110
 --------------------------------------------------------
       Center         ----  Spin Dipole Couplings  ----
                      3XX-RR        3YY-RR        3ZZ-RR
 --------------------------------------------------------
     1   Atom       -0.014132     -0.014132      0.028264
     2   Atom       -0.012520     -0.012520      0.025039
 --------------------------------------------------------
                        XY            XZ            YZ
 --------------------------------------------------------
     1   Atom        0.000000      0.000000      0.000000
     2   Atom        0.000000      0.000000      0.000000
 --------------------------------------------------------


 ---------------------------------------------------------------------------------
              Anisotropic Spin Dipole Couplings in Principal Axis System
 ---------------------------------------------------------------------------------

       Atom             a.u.   MegaHertz   Gauss  10(-4) cm-1        Axes

              Baa    -0.0141    -1.835    -0.655    -0.612  1.0000  0.0000  0.0000
     1 Sc(45) Bbb    -0.0141    -1.835    -0.655    -0.612 -0.0000  1.0000  0.0000
              Bcc     0.0283     3.669     1.309     1.224  0.0000  0.0000  1.0000
 
              Baa    -0.0125     0.906     0.323     0.302 -0.0000  1.0000  0.0000
     2 O(17)  Bbb    -0.0125     0.906     0.323     0.302  1.0000  0.0000  0.0000
              Bcc     0.0250    -1.812    -0.647    -0.604  0.0000  0.0000  1.0000
 

 ---------------------------------------------------------------------------------

 No NMR shielding tensors so no spin-rotation constants.
 Leave Link  601 at Tue Feb 20 22:33:47 2018, MaxMem= 10737418240 cpu:             107.0 elap:               3.5
 (Enter /home1/apps/gaussian/16rA.03/g16/l9999.exe)

 Test job not archived.
 1\1\GINC-C420-102\SP\ROCCSD(T)-Full\Gen\O1Sc1(2)\AANNABE\20-Feb-2018\0
 \\#P ROCCSD(T)=(maxcyc=150, Full, SaveAmplitudes, ReadAmplitudes)/Gen 
 5d 7f SCF=(maxcycles=300) Integral(NoXCTest) MaxDisk=500GB Pop=Regular
  Pseudo=Read Guess=Read IOp(5/15=2)\\ScO\\0,2\Sc,0,0.,0.,0.\O,0,0.,0.,
 1.3\\Version=ES64L-G16RevA.03\State=2-SG\HF=-61.8819357\MP2=-62.548965
 6\MP3=-62.5427213\PUHF=-61.8819357\PMP2-0=-62.5489656\MP4SDQ=-62.55271
 66\CCSD=-62.54805\CCSD(T)=-62.5778129\RMSD=1.522e-09\PG=C*V [C*(O1Sc1)
 ]\\@


 MYSTERY IS THE WISDOM OF BLOCKHEADS... HORACE WALPOLE 
 Job cpu time:       0 days  9 hours  9 minutes 34.4 seconds.
 Elapsed time:       0 days  0 hours 17 minutes 15.9 seconds.
 File lengths (MBytes):  RWF=   3487 Int=      0 D2E=      0 Chk=     21 Scr=      1
 Normal termination of Gaussian 16 at Tue Feb 20 22:33:47 2018.
