 Entering Gaussian System, Link 0=g16
 Initial command:
 /home1/apps/gaussian/16rA.03/g16/l1.exe "/tmp/Gau-31845.inp" -scrdir="/tmp/"
 Entering Link 1 = /home1/apps/gaussian/16rA.03/g16/l1.exe PID=     31846.
  
 Copyright (c) 1988,1990,1992,1993,1995,1998,2003,2009,2016,
            Gaussian, Inc.  All Rights Reserved.
  
 This is part of the Gaussian(R) 16 program.  It is based on
 the Gaussian(R) 09 system (copyright 2009, Gaussian, Inc.),
 the Gaussian(R) 03 system (copyright 2003, Gaussian, Inc.),
 the Gaussian(R) 98 system (copyright 1998, Gaussian, Inc.),
 the Gaussian(R) 94 system (copyright 1995, Gaussian, Inc.),
 the Gaussian 92(TM) system (copyright 1992, Gaussian, Inc.),
 the Gaussian 90(TM) system (copyright 1990, Gaussian, Inc.),
 the Gaussian 88(TM) system (copyright 1988, Gaussian, Inc.),
 the Gaussian 86(TM) system (copyright 1986, Carnegie Mellon
 University), and the Gaussian 82(TM) system (copyright 1983,
 Carnegie Mellon University). Gaussian is a federally registered
 trademark of Gaussian, Inc.
  
 This software contains proprietary and confidential information,
 including trade secrets, belonging to Gaussian, Inc.
  
 This software is provided under written license and may be
 used, copied, transmitted, or stored only in accord with that
 written license.
  
 The following legend is applicable only to US Government
 contracts under FAR:
  
                    RESTRICTED RIGHTS LEGEND
  
 Use, reproduction and disclosure by the US Government is
 subject to restrictions as set forth in subparagraphs (a)
 and (c) of the Commercial Computer Software - Restricted
 Rights clause in FAR 52.227-19.
  
 Gaussian, Inc.
 340 Quinnipiac St., Bldg. 40, Wallingford CT 06492
  
  
 ---------------------------------------------------------------
 Warning -- This program may not be used in any manner that
 competes with the business of Gaussian, Inc. or will provide
 assistance to any competitor of Gaussian, Inc.  The licensee
 of this program is prohibited from giving any competitor of
 Gaussian, Inc. access to this program.  By using this program,
 the user acknowledges that Gaussian, Inc. is engaged in the
 business of creating and licensing software in the field of
 computational chemistry and represents and warrants to the
 licensee that it is not a competitor of Gaussian, Inc. and that
 it will not use this program in any manner prohibited above.
 ---------------------------------------------------------------
  

 Cite this work as:
 Gaussian 16, Revision A.03,
 M. J. Frisch, G. W. Trucks, H. B. Schlegel, G. E. Scuseria, 
 M. A. Robb, J. R. Cheeseman, G. Scalmani, V. Barone, 
 G. A. Petersson, H. Nakatsuji, X. Li, M. Caricato, A. V. Marenich, 
 J. Bloino, B. G. Janesko, R. Gomperts, B. Mennucci, H. P. Hratchian, 
 J. V. Ortiz, A. F. Izmaylov, J. L. Sonnenberg, D. Williams-Young, 
 F. Ding, F. Lipparini, F. Egidi, J. Goings, B. Peng, A. Petrone, 
 T. Henderson, D. Ranasinghe, V. G. Zakrzewski, J. Gao, N. Rega, 
 G. Zheng, W. Liang, M. Hada, M. Ehara, K. Toyota, R. Fukuda, 
 J. Hasegawa, M. Ishida, T. Nakajima, Y. Honda, O. Kitao, H. Nakai, 
 T. Vreven, K. Throssell, J. A. Montgomery, Jr., J. E. Peralta, 
 F. Ogliaro, M. J. Bearpark, J. J. Heyd, E. N. Brothers, K. N. Kudin, 
 V. N. Staroverov, T. A. Keith, R. Kobayashi, J. Normand, 
 K. Raghavachari, A. P. Rendell, J. C. Burant, S. S. Iyengar, 
 J. Tomasi, M. Cossi, J. M. Millam, M. Klene, C. Adamo, R. Cammi, 
 J. W. Ochterski, R. L. Martin, K. Morokuma, O. Farkas, 
 J. B. Foresman, and D. J. Fox, Gaussian, Inc., Wallingford CT, 2016.
 
 ******************************************
 Gaussian 16:  ES64L-G16RevA.03 25-Dec-2016
                20-Feb-2018 
 ******************************************
 %mem=160GB
 %cpu=0-31
 SetSPE:  set environment variable "MP_BIND" = "yes"
 SetSPE:  set environment variable "MP_BLIST" = "0,1,2,3,4,5,6,7,8,9,10,11,12,13,14,15,16,17,18,19,20,21,22,23,24,25,26,27,28,29,30,31"
 Will use up to   32 processors via shared memory.
 %chk=ScO
 %rwf=/scratch/04843/aannabe/gaussian/
 ----------------------------------------------------------------------
 #P ROCCSD(T)=(maxcyc=150, Window=(7,0), SaveAmplitudes, ReadAmplitudes
 )/Gen 5d 7f SCF=(maxcycles=300) Integral(NoXCTest, DKHSO) MaxDisk=500G
 B Pop=Regular Guess=Read IOp(5/15=2)
 ----------------------------------------------------------------------
 1/38=1,172=1/1;
 2/12=2,17=6,18=5,40=1/2;
 3/5=7,8=11,11=2,25=1,30=1,47=8,91=5,116=101/1,2,3;
 4/5=1/1;
 5/5=2,7=300,15=2,38=6/2;
 8/5=-1,6=4,9=120000,10=91,24=1,37=7/1,4;
 9/5=7,6=150,14=2,77=1/13;
 6//1;
 99/5=1,9=1/99;
 Leave Link    1 at Tue Feb 20 19:39:35 2018, MaxMem= 21474836480 cpu:               5.8 elap:               0.2
 (Enter /home1/apps/gaussian/16rA.03/g16/l101.exe)
 ---
 ScO
 ---
 Symbolic Z-matrix:
 Charge =  0 Multiplicity = 2
 Sc                    0.        0.        0. 
 O                     0.        0.        1.7 
 
 ITRead=  0  0
 MicOpt= -1 -1
 NAtoms=      2 NQM=        2 NQMF=       0 NMMI=      0 NMMIF=      0
                NMic=       0 NMicF=      0.
                    Isotopes and Nuclear Properties:
 (Nuclear quadrupole moments (NQMom) in fm**2, nuclear magnetic moments (NMagM)
  in nuclear magnetons)

  Atom         1           2
 IAtWgt=          45          16
 AtmWgt=  44.9559136  15.9949146
 NucSpn=           7           0
 AtZEff=  -0.0000000  -0.0000000
 NQMom=  -22.0000000   0.0000000
 NMagM=    4.7564830   0.0000000
 AtZNuc=  21.0000000   8.0000000
 Leave Link  101 at Tue Feb 20 19:39:35 2018, MaxMem= 21474836480 cpu:               2.8 elap:               0.1
 (Enter /home1/apps/gaussian/16rA.03/g16/l202.exe)
                          Input orientation:                          
 ---------------------------------------------------------------------
 Center     Atomic      Atomic             Coordinates (Angstroms)
 Number     Number       Type             X           Y           Z
 ---------------------------------------------------------------------
      1         21           0        0.000000    0.000000    0.000000
      2          8           0        0.000000    0.000000    1.700000
 ---------------------------------------------------------------------
 Stoichiometry    OSc(2)
 Framework group  C*V[C*(OSc)]
 Deg. of freedom     1
 Full point group                 C*V     NOp   4
 Largest Abelian subgroup         C2V     NOp   4
 Largest concise Abelian subgroup C1      NOp   1
                         Standard orientation:                         
 ---------------------------------------------------------------------
 Center     Atomic      Atomic             Coordinates (Angstroms)
 Number     Number       Type             X           Y           Z
 ---------------------------------------------------------------------
      1         21           0        0.000000    0.000000    0.468966
      2          8           0        0.000000    0.000000   -1.231034
 ---------------------------------------------------------------------
 Rotational constants (GHZ):           0.0000000          14.8227988          14.8227988
 Leave Link  202 at Tue Feb 20 19:39:36 2018, MaxMem= 21474836480 cpu:               0.6 elap:               0.0
 (Enter /home1/apps/gaussian/16rA.03/g16/l301.exe)
 General basis read from cards:  (5D, 7F)
 Centers:       1
 S 1 1.00
     Exponent=  2.7152780000D+06 Coefficients=  1.0000000000D+00
 S 1 1.00
     Exponent=  4.0659840000D+05 Coefficients=  1.0000000000D+00
 S 1 1.00
     Exponent=  9.2530040000D+04 Coefficients=  1.0000000000D+00
 S 1 1.00
     Exponent=  2.6207920000D+04 Coefficients=  1.0000000000D+00
 S 1 1.00
     Exponent=  8.5494290000D+03 Coefficients=  1.0000000000D+00
 S 1 1.00
     Exponent=  3.0859750000D+03 Coefficients=  1.0000000000D+00
 S 1 1.00
     Exponent=  1.2031720000D+03 Coefficients=  1.0000000000D+00
 S 1 1.00
     Exponent=  4.9848690000D+02 Coefficients=  1.0000000000D+00
 S 1 1.00
     Exponent=  2.1673600000D+02 Coefficients=  1.0000000000D+00
 S 1 1.00
     Exponent=  9.7874760000D+01 Coefficients=  1.0000000000D+00
 S 1 1.00
     Exponent=  4.5204330000D+01 Coefficients=  1.0000000000D+00
 S 1 1.00
     Exponent=  2.0211870000D+01 Coefficients=  1.0000000000D+00
 S 1 1.00
     Exponent=  9.5747510000D+00 Coefficients=  1.0000000000D+00
 S 1 1.00
     Exponent=  4.5403460000D+00 Coefficients=  1.0000000000D+00
 S 1 1.00
     Exponent=  1.9956870000D+00 Coefficients=  1.0000000000D+00
 S 1 1.00
     Exponent=  9.4221500000D-01 Coefficients=  1.0000000000D+00
 S 1 1.00
     Exponent=  4.1784500000D-01 Coefficients=  1.0000000000D+00
 S 1 1.00
     Exponent=  9.5761000000D-02 Coefficients=  1.0000000000D+00
 S 1 1.00
     Exponent=  5.1351000000D-02 Coefficients=  1.0000000000D+00
 S 1 1.00
     Exponent=  2.3878000000D-02 Coefficients=  1.0000000000D+00
 S 1 1.00
     Exponent=  2.6472000000D+00 Coefficients=  1.0000000000D+00
 S 1 1.00
     Exponent=  6.2170000000D-01 Coefficients=  1.0000000000D+00
 S 1 1.00
     Exponent=  1.1100000000D-02 Coefficients=  1.0000000000D+00
 P 1 1.00
     Exponent=  1.0592190000D+04 Coefficients=  1.0000000000D+00
 P 1 1.00
     Exponent=  2.5075330000D+03 Coefficients=  1.0000000000D+00
 P 1 1.00
     Exponent=  8.1445710000D+02 Coefficients=  1.0000000000D+00
 P 1 1.00
     Exponent=  3.1151950000D+02 Coefficients=  1.0000000000D+00
 P 1 1.00
     Exponent=  1.3196170000D+02 Coefficients=  1.0000000000D+00
 P 1 1.00
     Exponent=  5.9987180000D+01 Coefficients=  1.0000000000D+00
 P 1 1.00
     Exponent=  2.8662500000D+01 Coefficients=  1.0000000000D+00
 P 1 1.00
     Exponent=  1.4108510000D+01 Coefficients=  1.0000000000D+00
 P 1 1.00
     Exponent=  7.1037060000D+00 Coefficients=  1.0000000000D+00
 P 1 1.00
     Exponent=  3.6092000000D+00 Coefficients=  1.0000000000D+00
 P 1 1.00
     Exponent=  1.7760700000D+00 Coefficients=  1.0000000000D+00
 P 1 1.00
     Exponent=  8.5476000000D-01 Coefficients=  1.0000000000D+00
 P 1 1.00
     Exponent=  4.0223900000D-01 Coefficients=  1.0000000000D+00
 P 1 1.00
     Exponent=  1.5468000000D-01 Coefficients=  1.0000000000D+00
 P 1 1.00
     Exponent=  6.4888000000D-02 Coefficients=  1.0000000000D+00
 P 1 1.00
     Exponent=  2.6301000000D-02 Coefficients=  1.0000000000D+00
 P 1 1.00
     Exponent=  3.4418000000D+00 Coefficients=  1.0000000000D+00
 P 1 1.00
     Exponent=  8.0840000000D-01 Coefficients=  1.0000000000D+00
 P 1 1.00
     Exponent=  1.0660000000D-02 Coefficients=  1.0000000000D+00
 D 1 1.00
     Exponent=  5.0654200000D+01 Coefficients=  1.0000000000D+00
 D 1 1.00
     Exponent=  1.4732500000D+01 Coefficients=  1.0000000000D+00
 D 1 1.00
     Exponent=  5.1804600000D+00 Coefficients=  1.0000000000D+00
 D 1 1.00
     Exponent=  2.0195900000D+00 Coefficients=  1.0000000000D+00
 D 1 1.00
     Exponent=  7.9921900000D-01 Coefficients=  1.0000000000D+00
 D 1 1.00
     Exponent=  3.0531600000D-01 Coefficients=  1.0000000000D+00
 D 1 1.00
     Exponent=  1.1044400000D-01 Coefficients=  1.0000000000D+00
 D 1 1.00
     Exponent=  3.7065000000D-02 Coefficients=  1.0000000000D+00
 D 1 1.00
     Exponent=  1.8520000000D+00 Coefficients=  1.0000000000D+00
 D 1 1.00
     Exponent=  7.8750000000D-01 Coefficients=  1.0000000000D+00
 D 1 1.00
     Exponent=  1.2440000000D-02 Coefficients=  1.0000000000D+00
 F 1 1.00
     Exponent=  2.1048000000D+00 Coefficients=  1.0000000000D+00
 F 1 1.00
     Exponent=  6.5870000000D-01 Coefficients=  1.0000000000D+00
 F 1 1.00
     Exponent=  1.6360000000D-01 Coefficients=  1.0000000000D+00
 F 1 1.00
     Exponent=  4.0630000000D-02 Coefficients=  1.0000000000D+00
 G 1 1.00
     Exponent=  1.7850000000D+00 Coefficients=  1.0000000000D+00
 G 1 1.00
     Exponent=  4.1120000000D-01 Coefficients=  1.0000000000D+00
 G 1 1.00
     Exponent=  9.4730000000D-02 Coefficients=  1.0000000000D+00
 ****
 Centers:       2
 S 1 1.00
     Exponent=  1.5330000000D+04 Coefficients=  1.0000000000D+00
 S 1 1.00
     Exponent=  2.2990000000D+03 Coefficients=  1.0000000000D+00
 S 1 1.00
     Exponent=  5.2240000000D+02 Coefficients=  1.0000000000D+00
 S 1 1.00
     Exponent=  1.4730000000D+02 Coefficients=  1.0000000000D+00
 S 1 1.00
     Exponent=  4.7550000000D+01 Coefficients=  1.0000000000D+00
 S 1 1.00
     Exponent=  1.6760000000D+01 Coefficients=  1.0000000000D+00
 S 1 1.00
     Exponent=  6.2070000000D+00 Coefficients=  1.0000000000D+00
 S 1 1.00
     Exponent=  6.8820000000D-01 Coefficients=  1.0000000000D+00
 S 1 1.00
     Exponent=  1.7520000000D+00 Coefficients=  1.0000000000D+00
 S 1 1.00
     Exponent=  2.3840000000D-01 Coefficients=  1.0000000000D+00
 S 1 1.00
     Exponent=  7.8450000000D+00 Coefficients=  1.0000000000D+00
 S 1 1.00
     Exponent=  2.1032000000D+01 Coefficients=  1.0000000000D+00
 S 1 1.00
     Exponent=  7.3760000000D-02 Coefficients=  1.0000000000D+00
 P 1 1.00
     Exponent=  3.4460000000D+01 Coefficients=  1.0000000000D+00
 P 1 1.00
     Exponent=  7.7490000000D+00 Coefficients=  1.0000000000D+00
 P 1 1.00
     Exponent=  2.2800000000D+00 Coefficients=  1.0000000000D+00
 P 1 1.00
     Exponent=  7.1560000000D-01 Coefficients=  1.0000000000D+00
 P 1 1.00
     Exponent=  2.1400000000D-01 Coefficients=  1.0000000000D+00
 P 1 1.00
     Exponent=  1.5159000000D+01 Coefficients=  1.0000000000D+00
 P 1 1.00
     Exponent=  5.7437000000D+01 Coefficients=  1.0000000000D+00
 P 1 1.00
     Exponent=  5.9740000000D-02 Coefficients=  1.0000000000D+00
 D 1 1.00
     Exponent=  2.3140000000D+00 Coefficients=  1.0000000000D+00
 D 1 1.00
     Exponent=  6.4500000000D-01 Coefficients=  1.0000000000D+00
 D 1 1.00
     Exponent=  1.5858000000D+01 Coefficients=  1.0000000000D+00
 D 1 1.00
     Exponent=  2.1400000000D-01 Coefficients=  1.0000000000D+00
 F 1 1.00
     Exponent=  1.4280000000D+00 Coefficients=  1.0000000000D+00
 F 1 1.00
     Exponent=  5.0000000000D-01 Coefficients=  1.0000000000D+00
 ****
 Ernie: Thresh=  0.10000D-02 Tol=  0.10000D-05 Strict=F.
 There are   144 symmetry adapted cartesian basis functions of A1  symmetry.
 There are    30 symmetry adapted cartesian basis functions of A2  symmetry.
 There are    69 symmetry adapted cartesian basis functions of B1  symmetry.
 There are    69 symmetry adapted cartesian basis functions of B2  symmetry.
 There are   114 symmetry adapted basis functions of A1  symmetry.
 There are    27 symmetry adapted basis functions of A2  symmetry.
 There are    60 symmetry adapted basis functions of B1  symmetry.
 There are    60 symmetry adapted basis functions of B2  symmetry.
   261 basis functions,   312 primitive gaussians,   312 cartesian basis functions
    15 alpha electrons       14 beta electrons
       nuclear repulsion energy        52.2951596674 Hartrees.
 IExCor=    0 DFT=F Ex=HF Corr=None ExCW=0 ScaHFX=  1.000000
 ScaDFX=  1.000000  1.000000  1.000000  1.000000 ScalE2=  1.000000  1.000000
 IRadAn=      5 IRanWt=     -1 IRanGd=            0 ICorTp=0 IEmpDi=  4
 NAtoms=    2 NActive=    2 NUniq=    2 SFac= 1.00D+00 NAtFMM=   60 NAOKFM=F Big=F
 Integral buffers will be    131072 words long.
 Raffenetti 2 integral format.
 Two-electron integral symmetry is turned on.
 FoFCou: FMM=F IPFlag=           8 FMFlag=           0 FMFlg1=           0
         NFxFlg=           0 DoJE=F BraDBF=T KetDBF=T FulRan=T
         wScrn=  0.000000 ICntrl=       600 IOpCl=  3 I1Cent=           6 NGrid=           0
         NMat0=    1 NMatS0=      2 NMatT0=    0 NMatD0=    1 NMtDS0=    0 NMtDT0=    0
 Symmetry not used in FoFCou.
 Finite nuclear repulsion energy        52.2951596674.
 Leave Link  301 at Tue Feb 20 19:39:36 2018, MaxMem= 21474836480 cpu:               4.7 elap:               0.2
 (Enter /home1/apps/gaussian/16rA.03/g16/l302.exe)
 Using DK4 one-electron Hamiltonian with SO, DoBoet=T.
 NPDir=0 NMtPBC=     1 NCelOv=     1 NCel=       1 NClECP=     1 NCelD=      1
         NCelK=      1 NCelE2=     1 NClLst=     1 CellRange=     0.0.
 One-electron integrals computed using PRISM.
 One-electron integral symmetry used in STVInt
 FoFCou: FMM=F IPFlag=           8 FMFlag=      100000 FMFlg1=           0
         NFxFlg=           0 DoJE=T BraDBF=F KetDBF=T FulRan=T
         wScrn=  0.000000 ICntrl=       500 IOpCl=  0 I1Cent=           4 NGrid=           0
         NMat0=    1 NMatS0=      1 NMatT0=    0 NMatD0=    1 NMtDS0=    0 NMtDT0=    0
 Symmetry not used in FoFCou.
 UnConB:  Uncontracting AO basis from    261 functions to    261 functions (excluding duplicates).
 GSVD:  received Info=                   1 from GESDD.
 RelInt: Using uncontracted basis, NUnBas=   261 NBsUse=   261 0.100E-13 EigKep=  6.11D-07 EigRej= -1.00D+00
 NBasis=   261 RedAO= T EigKep=  1.08D-06  NBF=   114    27    60    60
 NBsUse=   258 1.00D-06 EigRej=  6.57D-07 NBFU=   113    27    59    59
 Leave Link  302 at Tue Feb 20 19:39:39 2018, MaxMem= 21474836480 cpu:              49.3 elap:               1.9
 (Enter /home1/apps/gaussian/16rA.03/g16/l303.exe)
 DipDrv:  MaxL=1.
 Leave Link  303 at Tue Feb 20 19:39:39 2018, MaxMem= 21474836480 cpu:               1.1 elap:               0.1
 (Enter /home1/apps/gaussian/16rA.03/g16/l401.exe)
 Initial guess from the checkpoint file:  "ScO.chk"
 B after Tr=     0.000000    0.000000    0.000000
         Rot=    1.000000    0.000000    0.000000    0.000000 Ang=   0.00 deg.
 Guess basis will be translated and rotated to current coordinates.
 JPrj=2 DoOrth=T DoCkMO=T.
 Initial guess orbital symmetries:
       Occupied  (SG) (SG) (SG) (PI) (PI) (SG) (SG) (SG) (PI) (PI)
                 (SG) (SG) (PI) (PI) (SG)
       Virtual   (PI) (PI) (SG) (SG) (DLTA) (DLTA) (PI) (PI) (PI)
                 (PI) (SG) (SG) (DLTA) (DLTA) (SG) (PI) (PI) (SG)
                 (PI) (PI) (SG) (PI) (PI) (PHI) (PHI) (DLTA) (DLTA)
                 (SG) (DLTA) (DLTA) (PI) (PI) (SG) (PI) (PI) (SG)
                 (SG) (SG) (DLTA) (DLTA) (PI) (PI) (DLTA) (DLTA)
                 (?A) (?A) (PHI) (PHI) (SG) (PI) (PI) (PI) (PI)
                 (SG) (PHI) (PHI) (DLTA) (DLTA) (SG) (PI) (PI)
                 (SG) (PI) (PI) (DLTA) (DLTA) (SG) (SG) (DLTA)
                 (DLTA) (PI) (PI) (SG) (SG) (PI) (PI) (PI) (PI)
                 (SG) (DLTA) (DLTA) (PHI) (PHI) (?A) (?A) (SG)
                 (PI) (PI) (SG) (DLTA) (DLTA) (PHI) (PHI) (PI)
                 (PI) (PHI) (PHI) (DLTA) (DLTA) (SG) (PI) (PI)
                 (DLTA) (DLTA) (SG) (DLTA) (DLTA) (PI) (PI) (SG)
                 (PI) (PI) (SG) (SG) (PI) (PI) (SG) (PI) (PI) (SG)
                 (SG) (DLTA) (DLTA) (PI) (PI) (SG) (PHI) (PHI)
                 (PHI) (PHI) (DLTA) (DLTA) (DLTA) (DLTA) (PI) (PI)
                 (PI) (PI) (SG) (DLTA) (DLTA) (SG) (PI) (PI) (SG)
                 (?A) (?A) (PHI) (PHI) (DLTA) (DLTA) (PI) (PI)
                 (SG) (SG) (PI) (PI) (SG) (DLTA) (DLTA) (PI) (PI)
                 (SG) (PI) (PI) (SG) (SG) (SG) (PI) (PI) (SG) (DLTA)
                 (DLTA) (PI) (PI) (SG) (SG) (PI) (PI) (SG) (SG)
                 (PI) (PI) (DLTA) (DLTA) (PI) (PI) (SG) (SG) (DLTA)
                 (DLTA) (PI) (PI) (SG) (SG) (PI) (PI) (SG) (SG)
                 (PI) (PI) (SG) (DLTA) (DLTA) (PI) (PI) (SG) (SG)
                 (PI) (PI) (SG) (SG) (PI) (PI) (SG) (SG) (PI) (PI)
                 (SG) (SG) (PI) (PI) (SG) (SG) (SG) (PI) (PI) (SG)
                 (SG) (SG) (PI) (PI) (SG) (SG) (SG) (SG) (PI) (PI)
                 (SG) (SG) (SG) (SG) (SG)
 The electronic state of the initial guess is 2-SG.
 Leave Link  401 at Tue Feb 20 19:39:40 2018, MaxMem= 21474836480 cpu:               5.4 elap:               0.2
 (Enter /home1/apps/gaussian/16rA.03/g16/l502.exe)
 Keep R1 and R2 ints in memory in symmetry-blocked form, NReq=734602573.
 FoFCou: FMM=F IPFlag=           8 FMFlag=           0 FMFlg1=           0
         NFxFlg=           0 DoJE=F BraDBF=F KetDBF=F FulRan=T
         wScrn=  0.000000 ICntrl=       600 IOpCl=  0 I1Cent=           0 NGrid=           0
         NMat0=    1 NMatS0=  34191 NMatT0=    0 NMatD0=    1 NMtDS0=    0 NMtDT0=    0
 Petite list used in FoFCou.
 Restricted open shell SCF:
 Using DIIS extrapolation, IDIIS=  1040.
 NGot= 21474836480 LenX= 21174565133 LenY= 21174467348
 Requested convergence on RMS density matrix=1.00D-08 within 300 cycles.
 Requested convergence on MAX density matrix=1.00D-06.
 Requested convergence on             energy=1.00D-06.
 No special actions if energy rises.

 Cycle   1  Pass 1  IDiag  1:
 E= -838.272337921160    
 DIIS: error= 5.88D-10 at cycle   1 NSaved=   1.
 NSaved= 1 IEnMin= 1 EnMin= -838.272337921160     IErMin= 1 ErrMin= 5.88D-10
 ErrMax= 5.88D-10  0.00D+00 EMaxC= 1.00D-01 BMatC= 5.31D-17 BMatP= 5.31D-17
 IDIUse=1 WtCom= 1.00D+00 WtEn= 0.00D+00
 Coeff-Com:  0.100D+01
 Coeff:      0.100D+01
 Gap=     0.090 Goal=   None    Shift=    0.000
 RMSDP=2.70D-10 MaxDP=4.52D-08              OVMax= 8.49D-09

 SCF Done:  E(ROHF) =  -838.272337921     A.U. after    1 cycles
            NFock=  1  Conv=0.27D-09     -V/T= 1.9746
 <Sx>= 0.0000 <Sy>= 0.0000 <Sz>= 0.5000 <S**2>= 0.7500 S= 0.5000
 <L.S>=  0.00000000000    
 KE= 8.601139203770D+02 PE=-2.113273270760D+03 EE= 3.625918527939D+02
 Annihilation of the first spin contaminant:
 S**2 before annihilation     0.7500,   after     0.7500
 Leave Link  502 at Tue Feb 20 19:39:43 2018, MaxMem= 21474836480 cpu:              92.9 elap:               3.1
 (Enter /home1/apps/gaussian/16rA.03/g16/l801.exe)
 Windowed orbitals will be sorted by symmetry type.
 GenMOA:  NOpAll=  4 NOp2=4 NOpUse=  4 JSym2X=1
 FoFJK:  IHMeth= 1 ICntrl=       0 DoSepK=F KAlg= 0 I1Cent=           0 FoldK=F
 IRaf=         0 NMat=       1 IRICut=       1 DoRegI=T DoRafI=F ISym2E= 1 IDoP0=0 IntGTp=1.
 FoFCou: FMM=F IPFlag=           8 FMFlag=      100000 FMFlg1=           0
         NFxFlg=           0 DoJE=F BraDBF=F KetDBF=F FulRan=T
         wScrn=  0.000000 ICntrl=         0 IOpCl=  1 I1Cent=           0 NGrid=           0
         NMat0=    1 NMatS0=      1 NMatT0=    0 NMatD0=    1 NMtDS0=    0 NMtDT0=    0
 Petite list used in FoFCou.
 <Sx>= 0.0000 <Sy>= 0.0000 <Sz>= 0.5000 <S**2>= 0.7500 S= 0.5000
 Range of M.O.s used for correlation:     7   258
 NBasis=   261 NAE=    15 NBE=    14 NFC=     6 NFV=     0
 NROrb=    252 NOA=     9 NOB=     8 NVA=   243 NVB=   244

 **** Warning!!: The largest alpha MO coefficient is  0.35302735D+03


 **** Warning!!: The largest beta MO coefficient is  0.35307087D+03

 Singles contribution to E2=   -0.1976283178D-03
 Leave Link  801 at Tue Feb 20 19:39:45 2018, MaxMem= 21474836480 cpu:              33.6 elap:               1.1
 (Enter /home1/apps/gaussian/16rA.03/g16/l804.exe)
 Open-shell transformation, MDV= 21474836480 ITran=4 ISComp=2.
 Unit  1 TFree=       2059908 TCopy=        911444.
 Semi-Direct transformation.
 ModeAB=           4 MOrb=             9 LenV=   21472831801
 LASXX=     18190935 LTotXX=    18190935 LenRXX=    36681903
 LTotAB=    18490968 MaxLAS=   109623780 LenRXY=           0
 NonZer=    54872838 LenScr=    83090432 LnRSAI=   109623780
 LnScr1=   165203968 LExtra=     7915514 Total=    402515597
 MaxDsk= 67108864000 SrtSym=           T ITran=            4
 DoSDTr:  NPSUse= 32
 JobTyp=1 Pass  1:  I=   1 to   9.
 (rs|ai) integrals will be sorted in core.
 Complete sort for first half transformation.
 First half transformation complete.
 Complete sort for second half transformation.
 Second half transformation complete.
 ModeAB=           4 MOrb=             8 LenV=   21472831801
 LASXX=     16151706 LTotXX=    16151706 LenRXX=    31386002
 LTotAB=    15234296 MaxLAS=    97443360 LenRXY=           0
 NonZer=    47537708 LenScr=    72069120 LnRSAI=    97443360
 LnScr1=   146906112 LExtra=    44597417 Total=    392402011
 MaxDsk= 67108864000 SrtSym=           T ITran=            4
 DoSDTr:  NPSUse= 32
 JobTyp=2 Pass  1:  I=   1 to   8.
 (rs|ai) integrals will be sorted in core.
 Complete sort for first half transformation.
 First half transformation complete.
 Complete sort for second half transformation.
 Second half transformation complete.
 Spin components of T(2) and E(2):
     alpha-alpha T2 =       0.3013994306D-01 E2=     -0.9530710552D-01
     alpha-beta  T2 =       0.1255928439D+00 E2=     -0.4747292116D+00
     beta-beta   T2 =       0.2597987706D-01 E2=     -0.8664986356D-01
 ANorm=    0.1087152240D+01
 E2 =    -0.6568838090D+00 EUMP2 =    -0.83892922173020D+03
 (S**2,0)=  0.75000D+00           (S**2,1)=  0.75000D+00
 E(PUHF)=      -0.83827233792D+03        E(PMP2)=      -0.83892922173D+03
 Leave Link  804 at Tue Feb 20 19:40:17 2018, MaxMem= 21474836480 cpu:            1005.0 elap:              31.5
 (Enter /home1/apps/gaussian/16rA.03/g16/l913.exe)
 CIDS:  MDV= 21474836480.
 Frozen-core window:  NFC=   6 NFV=   0.
 IFCWin=0 IBDFC=1 NFBD=     0     0 NFCmp=     0     0 NFFFC=     0     0
 Using original routines for 1st iteration.
 Using DD4UQ or CC4UQ for 2nd and later iterations.
 Keep R2 and R3 ints in memory in symmetry-blocked form, NReq=734615433.
 FoFCou: FMM=F IPFlag=           8 FMFlag=           0 FMFlg1=           0
         NFxFlg=           0 DoJE=F BraDBF=F KetDBF=F FulRan=T
         wScrn=  0.000000 ICntrl=       600 IOpCl=  0 I1Cent=           0 NGrid=           0
         NMat0=    1 NMatS0=  34191 NMatT0=    0 NMatD0=    1 NMtDS0=    0 NMtDT0=    0
 Petite list used in FoFCou.
 CIDS: In Core Option IDoMem=           1.
 CCSD(T)
 =======
 Iterations= 150 Convergence= 0.100D-06
 Produce multiple copies of IABC intergrals
 Iteration Nr.   1
 **********************
 DD1Dir will call FoFMem   1 times, MxPair=       208
 NAB=    72 NAA=    36 NBB=    28.
 DD1Dir will call FoFMem   1 times, MxPair=       208
 NAB=    72 NAA=    36 NBB=    28.
 MP4(R+Q)= -0.14015292D-01
 Maximum subspace dimension=  5
 A-vector RMS=  1.0924393D-04 Max=  3.3151955D-03 conv= 1.00D-05.
 RLE energy=       -0.6411297076
 E3=        0.30138863D-01        EROMP3=      -0.83889908287D+03
 E4(SDQ)=  -0.39842850D-01        ROMP4(SDQ)=  -0.83893892572D+03
 VARIATIONAL ENERGIES WITH THE FIRST-ORDER WAVEFUNCTION:
 DE(Corr)= -0.64074243     E(Corr)=     -838.91308035    
 NORM(A)=   0.10813882D+01
 Iteration Nr.   2
 **********************
 DD1Dir will call FoFMem   1 times, MxPair=       208
 NAB=    72 NAA=    36 NBB=    28.
 A-vector RMS=  5.9605615D-03 Max=  5.8086182D-02 conv= 1.00D-05.
 RLE energy=       -0.6202605057
 DE(Corr)= -0.60806710     E(CORR)=     -838.88040502     Delta= 3.27D-02
 NORM(A)=   0.10777637D+01
 Iteration Nr.   3
 **********************
 DD1Dir will call FoFMem   1 times, MxPair=       208
 NAB=    72 NAA=    36 NBB=    28.
 A-vector RMS=  9.9014550D-04 Max=  1.7563114D-02 conv= 1.00D-05.
 RLE energy=       -0.6418277979
 DE(Corr)= -0.64176361     E(CORR)=     -838.91410153     Delta=-3.37D-02
 NORM(A)=   0.10810102D+01
 Iteration Nr.   4
 **********************
 DD1Dir will call FoFMem   1 times, MxPair=       208
 NAB=    72 NAA=    36 NBB=    28.
 A-vector RMS=  4.3525891D-03 Max=  4.2309049D-02 conv= 1.00D-05.
 RLE energy=       -0.6438148385
 DE(Corr)= -0.61956510     E(CORR)=     -838.89190302     Delta= 2.22D-02
 NORM(A)=   0.11025730D+01
 Iteration Nr.   5
 **********************
 DD1Dir will call FoFMem   1 times, MxPair=       208
 NAB=    72 NAA=    36 NBB=    28.
 A-vector RMS=  1.4618652D-03 Max=  1.4364550D-02 conv= 1.00D-05.
 RLE energy=       -0.6455520977
 DE(Corr)= -0.65341650     E(CORR)=     -838.92575442     Delta=-3.39D-02
 NORM(A)=   0.11003598D+01
 Iteration Nr.   6
 **********************
 DD1Dir will call FoFMem   1 times, MxPair=       208
 NAB=    72 NAA=    36 NBB=    28.
 A-vector RMS=  3.0193707D-04 Max=  4.5485704D-03 conv= 1.00D-05.
 RLE energy=       -0.6453923100
 DE(Corr)= -0.64501139     E(CORR)=     -838.91734931     Delta= 8.41D-03
 NORM(A)=   0.11028712D+01
 Iteration Nr.   7
 **********************
 DD1Dir will call FoFMem   1 times, MxPair=       208
 NAB=    72 NAA=    36 NBB=    28.
 A-vector RMS=  1.2210414D-04 Max=  2.2716745D-03 conv= 1.00D-05.
 RLE energy=       -0.6452565323
 DE(Corr)= -0.64522934     E(CORR)=     -838.91756726     Delta=-2.18D-04
 NORM(A)=   0.11040509D+01
 Iteration Nr.   8
 **********************
 DD1Dir will call FoFMem   1 times, MxPair=       208
 NAB=    72 NAA=    36 NBB=    28.
 A-vector RMS=  8.2253198D-05 Max=  1.0270206D-03 conv= 1.00D-05.
 RLE energy=       -0.6453463408
 DE(Corr)= -0.64544534     E(CORR)=     -838.91778326     Delta=-2.16D-04
 NORM(A)=   0.11043890D+01
 Iteration Nr.   9
 **********************
 DD1Dir will call FoFMem   1 times, MxPair=       208
 NAB=    72 NAA=    36 NBB=    28.
 A-vector RMS=  3.4710193D-05 Max=  4.5026634D-04 conv= 1.00D-05.
 RLE energy=       -0.6454263202
 DE(Corr)= -0.64532042     E(CORR)=     -838.91765834     Delta= 1.25D-04
 NORM(A)=   0.11046970D+01
 Iteration Nr.  10
 **********************
 DD1Dir will call FoFMem   1 times, MxPair=       208
 NAB=    72 NAA=    36 NBB=    28.
 A-vector RMS=  2.1577717D-05 Max=  2.1066238D-04 conv= 1.00D-05.
 RLE energy=       -0.6453705715
 DE(Corr)= -0.64539944     E(CORR)=     -838.91773736     Delta=-7.90D-05
 NORM(A)=   0.11046204D+01
 Iteration Nr.  11
 **********************
 DD1Dir will call FoFMem   1 times, MxPair=       208
 NAB=    72 NAA=    36 NBB=    28.
 A-vector RMS=  1.0238195D-05 Max=  1.3049926D-04 conv= 1.00D-05.
 RLE energy=       -0.6454086123
 DE(Corr)= -0.64540053     E(CORR)=     -838.91773845     Delta=-1.09D-06
 NORM(A)=   0.11046187D+01
 Iteration Nr.  12
 **********************
 DD1Dir will call FoFMem   1 times, MxPair=       208
 NAB=    72 NAA=    36 NBB=    28.
 A-vector RMS=  6.8473603D-06 Max=  7.1360954D-05 conv= 1.00D-05.
 RLE energy=       -0.6453795003
 DE(Corr)= -0.64536776     E(CORR)=     -838.91770568     Delta= 3.28D-05
 NORM(A)=   0.11046329D+01
 Iteration Nr.  13
 **********************
 DD1Dir will call FoFMem   1 times, MxPair=       208
 NAB=    72 NAA=    36 NBB=    28.
 A-vector RMS=  4.7571409D-06 Max=  5.7072043D-05 conv= 1.00D-05.
 RLE energy=       -0.6453913527
 DE(Corr)= -0.64539932     E(CORR)=     -838.91773724     Delta=-3.16D-05
 NORM(A)=   0.11046340D+01
 Iteration Nr.  14
 **********************
 DD1Dir will call FoFMem   1 times, MxPair=       208
 NAB=    72 NAA=    36 NBB=    28.
 A-vector RMS=  1.8735181D-06 Max=  2.1743776D-05 conv= 1.00D-05.
 RLE energy=       -0.6453933189
 DE(Corr)= -0.64538958     E(CORR)=     -838.91772751     Delta= 9.73D-06
 NORM(A)=   0.11046425D+01
 Iteration Nr.  15
 **********************
 DD1Dir will call FoFMem   1 times, MxPair=       208
 NAB=    72 NAA=    36 NBB=    28.
 A-vector RMS=  1.2025015D-06 Max=  1.3786760D-05 conv= 1.00D-05.
 RLE energy=       -0.6453910417
 DE(Corr)= -0.64539047     E(CORR)=     -838.91772840     Delta=-8.90D-07
 NORM(A)=   0.11046470D+01
 Iteration Nr.  16
 **********************
 DD1Dir will call FoFMem   1 times, MxPair=       208
 NAB=    72 NAA=    36 NBB=    28.
 A-vector RMS=  7.5923931D-07 Max=  8.1245959D-06 conv= 1.00D-05.
 RLE energy=       -0.6453933062
 DE(Corr)= -0.64539418     E(CORR)=     -838.91773210     Delta=-3.70D-06
 NORM(A)=   0.11046486D+01
 Iteration Nr.  17
 **********************
 DD1Dir will call FoFMem   1 times, MxPair=       208
 NAB=    72 NAA=    36 NBB=    28.
 A-vector RMS=  4.5952785D-07 Max=  6.4480266D-06 conv= 1.00D-05.
 RLE energy=       -0.6453934298
 DE(Corr)= -0.64539221     E(CORR)=     -838.91773013     Delta= 1.97D-06
 NORM(A)=   0.11046506D+01
 Iteration Nr.  18
 **********************
 DD1Dir will call FoFMem   1 times, MxPair=       208
 NAB=    72 NAA=    36 NBB=    28.
 A-vector RMS=  2.6560768D-07 Max=  4.2588039D-06 conv= 1.00D-05.
 RLE energy=       -0.6453923583
 DE(Corr)= -0.64539245     E(CORR)=     -838.91773037     Delta=-2.41D-07
 NORM(A)=   0.11046513D+01
 Iteration Nr.  19
 **********************
 DD1Dir will call FoFMem   1 times, MxPair=       208
 NAB=    72 NAA=    36 NBB=    28.
 A-vector RMS=  1.8936497D-07 Max=  1.7906756D-06 conv= 1.00D-05.
 RLE energy=       -0.6453931326
 DE(Corr)= -0.64539356     E(CORR)=     -838.91773148     Delta=-1.11D-06
 NORM(A)=   0.11046514D+01
 Iteration Nr.  20
 **********************
 DD1Dir will call FoFMem   1 times, MxPair=       208
 NAB=    72 NAA=    36 NBB=    28.
 A-vector RMS=  1.1749316D-07 Max=  1.3877851D-06 conv= 1.00D-05.
 RLE energy=       -0.6453929936
 DE(Corr)= -0.64539281     E(CORR)=     -838.91773073     Delta= 7.54D-07
 NORM(A)=   0.11046515D+01
 Iteration Nr.  21
 **********************
 DD1Dir will call FoFMem   1 times, MxPair=       208
 NAB=    72 NAA=    36 NBB=    28.
 A-vector RMS=  3.8716131D-08 Max=  4.1300342D-07 conv= 1.00D-05.
 RLE energy=       -0.6453928911
 DE(Corr)= -0.64539296     E(CORR)=     -838.91773088     Delta=-1.56D-07
 NORM(A)=   0.11046515D+01
 Iteration Nr.  22
 **********************
 DD1Dir will call FoFMem   1 times, MxPair=       208
 NAB=    72 NAA=    36 NBB=    28.
 A-vector RMS=  3.9440057D-08 Max=  4.1612512D-07 conv= 1.00D-05.
 RLE energy=       -0.6453930188
 DE(Corr)= -0.64539304     E(CORR)=     -838.91773096     Delta=-7.40D-08
 NORM(A)=   0.11046514D+01
 CI/CC converged in   22 iterations to DelEn=-7.40D-08 Conv= 1.00D-07 ErrA1= 3.94D-08 Conv= 1.00D-05
 Wavefunction amplitudes converged. E(Corr)=     -838.91773096    
 Largest amplitude= 8.51D-02
 Time for triples=     5846.28 seconds.
 T4(CCSD)= -0.47738955D-01
 T5(CCSD)=  0.90730327D-02
 CCSD(T)= -0.83895639688D+03
 Discarding MO integrals.
 Leave Link  913 at Tue Feb 20 19:45:12 2018, MaxMem= 21474836480 cpu:            9414.8 elap:             295.3
 (Enter /home1/apps/gaussian/16rA.03/g16/l601.exe)
 Copying SCF densities to generalized density rwf, IOpCl= 0 IROHF=1.

 **********************************************************************

            Population analysis using the SCF density.

 **********************************************************************

 Orbital symmetries:
       Occupied  (SG) (SG) (SG) (PI) (PI) (SG) (SG) (SG) (PI) (PI)
                 (SG) (SG) (PI) (PI) (SG)
       Virtual   (PI) (PI) (SG) (SG) (DLTA) (DLTA) (PI) (PI) (PI)
                 (PI) (SG) (SG) (DLTA) (DLTA) (SG) (PI) (PI) (SG)
                 (PI) (PI) (SG) (PI) (PI) (PHI) (PHI) (DLTA) (DLTA)
                 (SG) (DLTA) (DLTA) (PI) (PI) (SG) (PI) (PI) (SG)
                 (SG) (SG) (DLTA) (DLTA) (PI) (PI) (DLTA) (DLTA)
                 (?A) (?A) (PHI) (PHI) (SG) (PI) (PI) (PI) (PI)
                 (SG) (PHI) (PHI) (DLTA) (DLTA) (SG) (PI) (PI)
                 (SG) (PI) (PI) (DLTA) (DLTA) (SG) (SG) (DLTA)
                 (DLTA) (PI) (PI) (SG) (SG) (PI) (PI) (PI) (PI)
                 (SG) (DLTA) (DLTA) (PHI) (PHI) (?A) (?A) (SG)
                 (PI) (PI) (SG) (DLTA) (DLTA) (PHI) (PHI) (PI)
                 (PI) (PHI) (PHI) (DLTA) (DLTA) (SG) (PI) (PI)
                 (DLTA) (DLTA) (SG) (DLTA) (DLTA) (PI) (PI) (SG)
                 (PI) (PI) (SG) (SG) (PI) (PI) (SG) (PI) (PI) (SG)
                 (SG) (DLTA) (DLTA) (PI) (PI) (SG) (PHI) (PHI)
                 (PHI) (PHI) (DLTA) (DLTA) (DLTA) (DLTA) (PI) (PI)
                 (PI) (PI) (SG) (DLTA) (DLTA) (SG) (PI) (PI) (SG)
                 (?A) (?A) (PHI) (PHI) (DLTA) (DLTA) (PI) (PI)
                 (SG) (SG) (PI) (PI) (SG) (DLTA) (DLTA) (PI) (PI)
                 (SG) (PI) (PI) (SG) (SG) (SG) (PI) (PI) (SG) (DLTA)
                 (DLTA) (PI) (PI) (SG) (SG) (PI) (PI) (SG) (SG)
                 (PI) (PI) (DLTA) (DLTA) (PI) (PI) (SG) (SG) (DLTA)
                 (DLTA) (PI) (PI) (SG) (SG) (PI) (PI) (SG) (SG)
                 (PI) (PI) (SG) (DLTA) (DLTA) (PI) (PI) (SG) (SG)
                 (PI) (PI) (SG) (SG) (PI) (PI) (SG) (SG) (PI) (PI)
                 (SG) (SG) (PI) (PI) (SG) (SG) (SG) (PI) (PI) (SG)
                 (SG) (SG) (PI) (PI) (SG) (SG) (SG) (SG) (PI) (PI)
                 (SG) (SG) (SG) (SG) (SG)
 The electronic state is 2-SG.
 Alpha  occ. eigenvalues -- -166.88021 -20.48276 -19.33033 -15.75269 -15.75269
 Alpha  occ. eigenvalues --  -15.75135  -2.65075  -1.66068  -1.63187  -1.63187
 Alpha  occ. eigenvalues --   -1.11295  -0.42683  -0.41014  -0.41014  -0.25287
 Alpha virt. eigenvalues --   -0.00036  -0.00036   0.01449   0.02232   0.03538
 Alpha virt. eigenvalues --    0.03538   0.03580   0.03580   0.04204   0.04204
 Alpha virt. eigenvalues --    0.04390   0.05464   0.08162   0.08162   0.10505
 Alpha virt. eigenvalues --    0.12290   0.12290   0.13157   0.15423   0.15423
 Alpha virt. eigenvalues --    0.15448   0.15748   0.15748   0.16157   0.16157
 Alpha virt. eigenvalues --    0.16208   0.16208   0.17562   0.17831   0.17831
 Alpha virt. eigenvalues --    0.22809   0.22809   0.26614   0.33854   0.33854
 Alpha virt. eigenvalues --    0.34098   0.38706   0.42856   0.45892   0.45892
 Alpha virt. eigenvalues --    0.46653   0.46653   0.46689   0.46689   0.46903
 Alpha virt. eigenvalues --    0.46903   0.48070   0.48070   0.48652   0.49198
 Alpha virt. eigenvalues --    0.49198   0.54530   0.54530   0.57482   0.61090
 Alpha virt. eigenvalues --    0.61090   0.61659   0.61659   0.66802   0.82203
 Alpha virt. eigenvalues --    0.82203   0.89054   0.97528   0.97528   1.01490
 Alpha virt. eigenvalues --    1.01490   1.02987   1.21963   1.26082   1.26082
 Alpha virt. eigenvalues --    1.30265   1.30265   1.33471   1.54053   1.56801
 Alpha virt. eigenvalues --    1.56801   1.58618   1.58618   1.74044   1.91056
 Alpha virt. eigenvalues --    1.91056   1.91120   1.91120   1.93010   1.93010
 Alpha virt. eigenvalues --    1.95909   1.96057   1.96057   2.08941   2.10739
 Alpha virt. eigenvalues --    2.10739   2.13745   2.13745   2.14397   2.14397
 Alpha virt. eigenvalues --    2.28890   2.28890   2.48206   2.48206   2.51051
 Alpha virt. eigenvalues --    2.69290   2.69290   2.77167   2.77167   2.92660
 Alpha virt. eigenvalues --    2.93062   2.93062   3.02904   3.02904   3.03315
 Alpha virt. eigenvalues --    3.41449   3.41449   3.48468   3.56634   4.03188
 Alpha virt. eigenvalues --    4.03188   4.23364   4.31251   4.31251   4.96357
 Alpha virt. eigenvalues --    5.51707   5.91514   5.91514   6.00079   6.00079
 Alpha virt. eigenvalues --    6.07980   6.63361   6.63361   6.67077   6.67077
 Alpha virt. eigenvalues --    6.68121   6.68121   6.79477   6.79477   6.88220
 Alpha virt. eigenvalues --    6.88220   6.95400   6.95400   6.96628   7.25728
 Alpha virt. eigenvalues --    7.25728   7.47542   7.61563   7.61563   7.69715
 Alpha virt. eigenvalues --    7.70856   7.70856   7.72905   7.72905   7.78166
 Alpha virt. eigenvalues --    7.78166   7.87975   7.87975   8.08015   8.55836
 Alpha virt. eigenvalues --    8.78523   8.78523   9.39083  11.09705  11.09705
 Alpha virt. eigenvalues --   11.19144  11.19144  11.40788  14.77830  14.77830
 Alpha virt. eigenvalues --   15.45129  16.39492  16.82140  17.98025  17.98025
 Alpha virt. eigenvalues --   18.47037  20.45570  20.45570  20.53501  20.53501
 Alpha virt. eigenvalues --   20.74239  35.03118  37.96925  37.96925  38.46636
 Alpha virt. eigenvalues --   40.82239  43.86922  43.86922  43.97214  43.97214
 Alpha virt. eigenvalues --   44.05793  44.05793  44.06510  44.62259  45.33770
 Alpha virt. eigenvalues --   45.33770  45.39822  45.39822  45.55905  79.65586
 Alpha virt. eigenvalues --   83.56597  83.56597  84.06254  88.37369 113.60878
 Alpha virt. eigenvalues --  113.60878 114.09694 145.36772 145.36772 145.40492
 Alpha virt. eigenvalues --  145.40492 145.49344 180.83911 188.48728 188.48728
 Alpha virt. eigenvalues --  188.93610 198.27258 261.81147 261.81147 262.24129
 Alpha virt. eigenvalues --  414.80847 434.84007 434.84007 435.24798 503.16729
 Alpha virt. eigenvalues -- 1036.145281036.145281036.497551220.338991250.69515
 Alpha virt. eigenvalues -- 2581.250362581.250362581.535733025.930884466.85241
 Alpha virt. eigenvalues -- 6812.668806812.668806812.872437086.89436**********
 Alpha virt. eigenvalues -- **************************************************
 Alpha virt. eigenvalues -- ******************************
     Molecular Orbital Coefficients:
                          10        11        12        13        14
                           O         O         O         O         O
     Eigenvalues --    -1.63187  -1.11295  -0.42683  -0.41014  -0.41014
   1 1   Sc 1S          0.00000  -0.00000  -0.00000   0.00000   0.00000
   2        2S          0.00000  -0.00000  -0.00000   0.00000   0.00000
   3        3S          0.00000  -0.00001  -0.00001   0.00000   0.00000
   4        4S          0.00000  -0.00003  -0.00003   0.00000   0.00000
   5        5S          0.00000  -0.00008  -0.00009   0.00000   0.00000
   6        6S          0.00000  -0.00023  -0.00026   0.00000   0.00000
   7        7S          0.00000  -0.00063  -0.00072   0.00000   0.00000
   8        8S          0.00000  -0.00159  -0.00181   0.00000   0.00000
   9        9S          0.00000  -0.00352  -0.00404   0.00000   0.00000
  10       10S          0.00000  -0.00645  -0.00733   0.00000   0.00000
  11       11S          0.00000  -0.00716  -0.00833   0.00000   0.00000
  12       12S          0.00000   0.00253   0.00325   0.00000   0.00000
  13       13S          0.00000   0.03012   0.03391   0.00000   0.00000
  14       14S          0.00000   0.04838   0.06251   0.00000   0.00000
  15       15S          0.00000  -0.01591   0.00684   0.00000   0.00000
  16       16S          0.00000  -0.09370  -0.14846   0.00000   0.00000
  17       17S          0.00000  -0.03323  -0.08611   0.00000   0.00000
  18       18S          0.00000  -0.01947   0.03217   0.00000   0.00000
  19       19S          0.00000  -0.01573  -0.01528   0.00000   0.00000
  20       20S          0.00000  -0.00006   0.01271   0.00000   0.00000
  21       21S          0.00000   0.00459  -0.01690   0.00000   0.00000
  22       22S          0.00000  -0.02779   0.00033   0.00000   0.00000
  23       23S          0.00000   0.00078  -0.00015   0.00000   0.00000
  24       24PX         0.00000   0.00000   0.00000  -0.00000   0.00000
  25       24PY        -0.00003   0.00000   0.00000   0.00000  -0.00000
  26       24PZ         0.00000  -0.00001  -0.00001   0.00000   0.00000
  27       25PX         0.00000   0.00000   0.00000  -0.00002   0.00000
  28       25PY        -0.00018   0.00000   0.00000   0.00000  -0.00002
  29       25PZ         0.00000  -0.00006  -0.00003   0.00000   0.00000
  30       26PX         0.00000   0.00000   0.00000  -0.00009   0.00000
  31       26PY        -0.00089   0.00000   0.00000   0.00000  -0.00009
  32       26PZ         0.00000  -0.00028  -0.00015   0.00000   0.00000
  33       27PX         0.00000   0.00000   0.00000  -0.00036   0.00000
  34       27PY        -0.00361   0.00000   0.00000   0.00000  -0.00036
  35       27PZ         0.00000  -0.00113  -0.00061   0.00000   0.00000
  36       28PX         0.00000   0.00000   0.00000  -0.00125   0.00000
  37       28PY        -0.01244   0.00000   0.00000   0.00000  -0.00125
  38       28PZ         0.00000  -0.00394  -0.00218   0.00000   0.00000
  39       29PX         0.00000   0.00000   0.00000  -0.00349   0.00000
  40       29PY        -0.03493   0.00000   0.00000   0.00000  -0.00349
  41       29PZ         0.00000  -0.01099  -0.00588   0.00000   0.00000
  42       30PX         0.00000   0.00000   0.00000  -0.00784   0.00000
  43       30PY        -0.07765   0.00000   0.00000   0.00000  -0.00784
  44       30PZ         0.00000  -0.02473  -0.01385   0.00000   0.00000
  45       31PX         0.00000   0.00000   0.00000  -0.01254   0.00000
  46       31PY        -0.12491   0.00000   0.00000   0.00000  -0.01254
  47       31PZ         0.00000  -0.03915  -0.02048   0.00000   0.00000
  48       32PX         0.00000   0.00000   0.00000  -0.01399   0.00000
  49       32PY        -0.13623   0.00000   0.00000   0.00000  -0.01399
  50       32PZ         0.00000  -0.04484  -0.02771   0.00000   0.00000
  51       33PX         0.00000   0.00000   0.00000   0.01117   0.00000
  52       33PY         0.08766   0.00000   0.00000   0.00000   0.01117
  53       33PZ         0.00000   0.06781   0.09950   0.00000   0.00000
  54       34PX         0.00000   0.00000   0.00000   0.03619   0.00000
  55       34PY         0.32543   0.00000   0.00000   0.00000   0.03619
  56       34PZ         0.00000   0.11458   0.07183   0.00000   0.00000
  57       35PX         0.00000   0.00000   0.00000   0.05693   0.00000
  58       35PY         0.41728   0.00000   0.00000   0.00000   0.05693
  59       35PZ         0.00000   0.13983   0.14376   0.00000   0.00000
  60       36PX         0.00000   0.00000   0.00000   0.03152   0.00000
  61       36PY         0.28732   0.00000   0.00000   0.00000   0.03152
  62       36PZ         0.00000   0.08794   0.05445   0.00000   0.00000
  63       37PX         0.00000   0.00000   0.00000  -0.01495   0.00000
  64       37PY         0.03767   0.00000   0.00000   0.00000  -0.01495
  65       37PZ         0.00000   0.03177   0.03053   0.00000   0.00000
  66       38PX         0.00000   0.00000   0.00000  -0.01644   0.00000
  67       38PY        -0.00691   0.00000   0.00000   0.00000  -0.01644
  68       38PZ         0.00000   0.00671  -0.00326   0.00000   0.00000
  69       39PX         0.00000   0.00000   0.00000   0.01711   0.00000
  70       39PY         0.00167   0.00000   0.00000   0.00000   0.01711
  71       39PZ         0.00000   0.00078  -0.00739   0.00000   0.00000
  72       40PX         0.00000   0.00000   0.00000  -0.00832   0.00000
  73       40PY        -0.07405   0.00000   0.00000   0.00000  -0.00832
  74       40PZ         0.00000  -0.06348  -0.09667   0.00000   0.00000
  75       41PX         0.00000   0.00000   0.00000   0.00210   0.00000
  76       41PY         0.05553   0.00000   0.00000   0.00000   0.00210
  77       41PZ         0.00000   0.01826  -0.05432   0.00000   0.00000
  78       42PX         0.00000   0.00000   0.00000  -0.00383   0.00000
  79       42PY        -0.00056   0.00000   0.00000   0.00000  -0.00383
  80       42PZ         0.00000  -0.00075  -0.00068   0.00000   0.00000
  81       43D 0        0.00000   0.00052   0.00172   0.00000   0.00000
  82       43D+1        0.00000   0.00000   0.00000   0.00110   0.00000
  83       43D-1        0.00002   0.00000   0.00000   0.00000   0.00110
  84       43D+2        0.00000   0.00000   0.00000   0.00000   0.00000
  85       43D-2        0.00000   0.00000   0.00000   0.00000   0.00000
  86       44D 0        0.00000   0.00325   0.01108   0.00000   0.00000
  87       44D+1        0.00000   0.00000   0.00000   0.00704   0.00000
  88       44D-1        0.00017   0.00000   0.00000   0.00000   0.00704
  89       44D+2        0.00000   0.00000   0.00000   0.00000   0.00000
  90       44D-2        0.00000   0.00000   0.00000   0.00000   0.00000
  91       45D 0        0.00000   0.01217   0.04016   0.00000   0.00000
  92       45D+1        0.00000   0.00000   0.00000   0.02575   0.00000
  93       45D-1        0.00061   0.00000   0.00000   0.00000   0.02575
  94       45D+2        0.00000   0.00000   0.00000   0.00000   0.00000
  95       45D-2        0.00000   0.00000   0.00000   0.00000   0.00000
  96       46D 0        0.00000   0.00928   0.07457   0.00000   0.00000
  97       46D+1        0.00000   0.00000   0.00000   0.04231   0.00000
  98       46D-1       -0.00283   0.00000   0.00000   0.00000   0.04231
  99       46D+2        0.00000   0.00000   0.00000   0.00000   0.00000
 100       46D-2        0.00000   0.00000   0.00000   0.00000   0.00000
 101       47D 0        0.00000  -0.38192  -0.41793   0.00000   0.00000
 102       47D+1        0.00000   0.00000   0.00000  -0.31191   0.00000
 103       47D-1       -0.06699   0.00000   0.00000   0.00000  -0.31191
 104       47D+2        0.00000   0.00000   0.00000   0.00000   0.00000
 105       47D-2        0.00000   0.00000   0.00000   0.00000   0.00000
 106       48D 0        0.00000   0.02824   0.12989   0.00000   0.00000
 107       48D+1        0.00000   0.00000   0.00000   0.09538   0.00000
 108       48D-1        0.00632   0.00000   0.00000   0.00000   0.09538
 109       48D+2        0.00000   0.00000   0.00000   0.00000   0.00000
 110       48D-2        0.00000   0.00000   0.00000   0.00000   0.00000
 111       49D 0        0.00000  -0.00146   0.04904   0.00000   0.00000
 112       49D+1        0.00000   0.00000   0.00000   0.03973   0.00000
 113       49D-1        0.00238   0.00000   0.00000   0.00000   0.03973
 114       49D+2        0.00000   0.00000   0.00000   0.00000   0.00000
 115       49D-2        0.00000   0.00000   0.00000   0.00000   0.00000
 116       50D 0        0.00000   0.00203   0.01369   0.00000   0.00000
 117       50D+1        0.00000   0.00000   0.00000  -0.01022   0.00000
 118       50D-1        0.00116   0.00000   0.00000   0.00000  -0.01022
 119       50D+2        0.00000  -0.00000  -0.00000   0.00000   0.00000
 120       50D-2        0.00000   0.00000   0.00000   0.00000   0.00000
 121       51D 0        0.00000   0.02154   0.02277   0.00000   0.00000
 122       51D+1        0.00000   0.00000   0.00000   0.02070   0.00000
 123       51D-1        0.00278   0.00000   0.00000   0.00000   0.02070
 124       51D+2        0.00000  -0.00000  -0.00000   0.00000   0.00000
 125       51D-2        0.00000   0.00000   0.00000   0.00000   0.00000
 126       52D 0        0.00000   0.43119   0.57068   0.00000   0.00000
 127       52D+1        0.00000   0.00000   0.00000   0.40700   0.00000
 128       52D-1        0.07134   0.00000   0.00000   0.00000   0.40700
 129       52D+2        0.00000   0.00000  -0.00000   0.00000   0.00000
 130       52D-2        0.00000   0.00000   0.00000   0.00000   0.00000
 131       53D 0        0.00000  -0.00009   0.00017   0.00000   0.00000
 132       53D+1        0.00000   0.00000   0.00000  -0.00017   0.00000
 133       53D-1       -0.00014   0.00000   0.00000   0.00000  -0.00017
 134       53D+2        0.00000  -0.00000  -0.00000   0.00000   0.00000
 135       53D-2        0.00000   0.00000   0.00000   0.00000   0.00000
 136       54F 0        0.00000  -0.00239  -0.00426   0.00000   0.00000
 137       54F+1        0.00000   0.00000   0.00000  -0.00254   0.00000
 138       54F-1       -0.00138   0.00000   0.00000   0.00000  -0.00254
 139       54F+2        0.00000  -0.00000  -0.00000   0.00000   0.00000
 140       54F-2        0.00000   0.00000   0.00000   0.00000   0.00000
 141       54F+3        0.00000   0.00000   0.00000  -0.00000   0.00000
 142       54F-3        0.00000   0.00000   0.00000   0.00000  -0.00000
 143       55F 0        0.00000  -0.01087  -0.01715   0.00000   0.00000
 144       55F+1        0.00000   0.00000   0.00000  -0.01641   0.00000
 145       55F-1       -0.00438   0.00000   0.00000   0.00000  -0.01641
 146       55F+2        0.00000  -0.00000  -0.00000   0.00000   0.00000
 147       55F-2        0.00000   0.00000   0.00000   0.00000   0.00000
 148       55F+3        0.00000   0.00000   0.00000  -0.00000   0.00000
 149       55F-3        0.00000   0.00000   0.00000   0.00000  -0.00000
 150       56F 0        0.00000  -0.00148  -0.01278   0.00000   0.00000
 151       56F+1        0.00000   0.00000   0.00000  -0.00160   0.00000
 152       56F-1       -0.00169   0.00000   0.00000   0.00000  -0.00160
 153       56F+2        0.00000  -0.00000  -0.00000   0.00000   0.00000
 154       56F-2        0.00000   0.00000   0.00000   0.00000   0.00000
 155       56F+3        0.00000   0.00000   0.00000  -0.00000   0.00000
 156       56F-3       -0.00000   0.00000   0.00000   0.00000  -0.00000
 157       57F 0        0.00000  -0.00117  -0.00717   0.00000   0.00000
 158       57F+1        0.00000   0.00000   0.00000   0.00730   0.00000
 159       57F-1       -0.00054   0.00000   0.00000   0.00000   0.00730
 160       57F+2        0.00000   0.00000   0.00000   0.00000   0.00000
 161       57F-2        0.00000   0.00000   0.00000   0.00000   0.00000
 162       57F+3        0.00000   0.00000   0.00000   0.00000   0.00000
 163       57F-3       -0.00000   0.00000   0.00000   0.00000   0.00000
 164       58G 0        0.00000   0.00076   0.00075   0.00000   0.00000
 165       58G+1        0.00000   0.00000   0.00000   0.00109   0.00000
 166       58G-1       -0.00008   0.00000   0.00000   0.00000   0.00109
 167       58G+2        0.00000   0.00000   0.00000   0.00000   0.00000
 168       58G-2        0.00000   0.00000   0.00000   0.00000   0.00000
 169       58G+3        0.00000   0.00000   0.00000   0.00000   0.00000
 170       58G-3       -0.00000   0.00000   0.00000   0.00000   0.00000
 171       58G+4        0.00000  -0.00000  -0.00000   0.00000   0.00000
 172       58G-4        0.00000   0.00000   0.00000   0.00000   0.00000
 173       59G 0        0.00000   0.00144   0.00105   0.00000   0.00000
 174       59G+1        0.00000   0.00000   0.00000   0.00258   0.00000
 175       59G-1        0.00001   0.00000   0.00000   0.00000   0.00258
 176       59G+2        0.00000   0.00000   0.00000   0.00000   0.00000
 177       59G-2        0.00000   0.00000   0.00000   0.00000   0.00000
 178       59G+3        0.00000   0.00000   0.00000   0.00000   0.00000
 179       59G-3        0.00000   0.00000   0.00000   0.00000   0.00000
 180       59G+4        0.00000   0.00000   0.00000   0.00000   0.00000
 181       59G-4        0.00000   0.00000   0.00000   0.00000   0.00000
 182       60G 0        0.00000   0.00067   0.00572   0.00000   0.00000
 183       60G+1        0.00000   0.00000   0.00000  -0.00600   0.00000
 184       60G-1        0.00048   0.00000   0.00000   0.00000  -0.00600
 185       60G+2        0.00000  -0.00000   0.00000   0.00000   0.00000
 186       60G-2        0.00000   0.00000   0.00000   0.00000   0.00000
 187       60G+3        0.00000   0.00000   0.00000   0.00000   0.00000
 188       60G-3       -0.00000   0.00000   0.00000   0.00000   0.00000
 189       60G+4        0.00000  -0.00000  -0.00000   0.00000   0.00000
 190       60G-4        0.00000   0.00000   0.00000   0.00000   0.00000
 191 2   O  1S          0.00000  -0.00016   0.00002   0.00000   0.00000
 192        2S          0.00000  -0.00090   0.00011   0.00000   0.00000
 193        3S          0.00000  -0.00446   0.00053   0.00000   0.00000
 194        4S          0.00000  -0.01756   0.00209   0.00000   0.00000
 195        5S          0.00000  -0.05560   0.00679   0.00000   0.00000
 196        6S          0.00000  -0.13962   0.01957   0.00000   0.00000
 197        7S          0.00000  -0.17497   0.02634   0.00000   0.00000
 198        8S          0.00000   0.52831  -0.07114   0.00000   0.00000
 199        9S          0.00000   0.15047  -0.02476   0.00000   0.00000
 200       10S          0.00000   0.41279  -0.09070   0.00000   0.00000
 201       11S          0.00000   0.01486  -0.00673   0.00000   0.00000
 202       12S          0.00000   0.00896  -0.00285   0.00000   0.00000
 203       13S          0.00000   0.06689  -0.02793   0.00000   0.00000
 204       14PX         0.00000   0.00000   0.00000  -0.00688   0.00000
 205       14PY         0.00019   0.00000   0.00000   0.00000  -0.00688
 206       14PZ         0.00000   0.00037   0.00720   0.00000   0.00000
 207       15PX         0.00000   0.00000   0.00000  -0.07465   0.00000
 208       15PY         0.00198   0.00000   0.00000   0.00000  -0.07465
 209       15PZ         0.00000   0.00306   0.07830   0.00000   0.00000
 210       16PX         0.00000   0.00000   0.00000  -0.24752   0.00000
 211       16PY         0.00630   0.00000   0.00000   0.00000  -0.24752
 212       16PZ         0.00000   0.00744   0.25982   0.00000   0.00000
 213       17PX         0.00000   0.00000   0.00000  -0.39147   0.00000
 214       17PY         0.01069   0.00000   0.00000   0.00000  -0.39147
 215       17PZ         0.00000   0.02152   0.41071   0.00000   0.00000
 216       18PX         0.00000   0.00000   0.00000  -0.36620   0.00000
 217       18PY         0.00707   0.00000   0.00000   0.00000  -0.36620
 218       18PZ         0.00000   0.05144   0.34146   0.00000   0.00000
 219       19PX         0.00000   0.00000   0.00000  -0.00709   0.00000
 220       19PY         0.00017   0.00000   0.00000   0.00000  -0.00709
 221       19PZ         0.00000   0.00002   0.00750   0.00000   0.00000
 222       20PX         0.00000   0.00000   0.00000  -0.00312   0.00000
 223       20PY         0.00008   0.00000   0.00000   0.00000  -0.00312
 224       20PZ         0.00000   0.00008   0.00328   0.00000   0.00000
 225       21PX         0.00000   0.00000   0.00000  -0.09303   0.00000
 226       21PY         0.00267   0.00000   0.00000   0.00000  -0.09303
 227       21PZ         0.00000   0.01500   0.07636   0.00000   0.00000
 228       22D 0        0.00000   0.00055   0.00472   0.00000   0.00000
 229       22D+1        0.00000   0.00000   0.00000  -0.00407   0.00000
 230       22D-1        0.00081   0.00000   0.00000   0.00000  -0.00407
 231       22D+2        0.00000   0.00000   0.00000   0.00000   0.00000
 232       22D-2        0.00000   0.00000   0.00000   0.00000   0.00000
 233       23D 0        0.00000   0.00728   0.02033   0.00000   0.00000
 234       23D+1        0.00000   0.00000   0.00000  -0.02318   0.00000
 235       23D-1        0.00303   0.00000   0.00000   0.00000  -0.02318
 236       23D+2        0.00000   0.00000   0.00000   0.00000   0.00000
 237       23D-2        0.00000   0.00000   0.00000   0.00000   0.00000
 238       24D 0        0.00000   0.00006   0.00020   0.00000   0.00000
 239       24D+1        0.00000   0.00000   0.00000  -0.00023   0.00000
 240       24D-1        0.00004   0.00000   0.00000   0.00000  -0.00023
 241       24D+2        0.00000   0.00000   0.00000   0.00000   0.00000
 242       24D-2        0.00000   0.00000   0.00000   0.00000   0.00000
 243       25D 0        0.00000   0.01167   0.02481   0.00000   0.00000
 244       25D+1        0.00000   0.00000   0.00000  -0.04200   0.00000
 245       25D-1        0.00127   0.00000   0.00000   0.00000  -0.04200
 246       25D+2        0.00000   0.00000   0.00000   0.00000   0.00000
 247       25D-2        0.00000   0.00000   0.00000   0.00000   0.00000
 248       26F 0        0.00000   0.00037   0.00205   0.00000   0.00000
 249       26F+1        0.00000   0.00000   0.00000  -0.00145   0.00000
 250       26F-1        0.00070   0.00000   0.00000   0.00000  -0.00145
 251       26F+2        0.00000   0.00000   0.00000   0.00000   0.00000
 252       26F-2        0.00000   0.00000   0.00000   0.00000   0.00000
 253       26F+3        0.00000   0.00000   0.00000   0.00000   0.00000
 254       26F-3       -0.00000   0.00000   0.00000   0.00000   0.00000
 255       27F 0        0.00000   0.00128   0.00489   0.00000   0.00000
 256       27F+1        0.00000   0.00000   0.00000  -0.00991   0.00000
 257       27F-1        0.00069   0.00000   0.00000   0.00000  -0.00991
 258       27F+2        0.00000   0.00000   0.00000   0.00000   0.00000
 259       27F-2        0.00000   0.00000   0.00000   0.00000   0.00000
 260       27F+3        0.00000   0.00000   0.00000   0.00000   0.00000
 261       27F-3        0.00000   0.00000   0.00000   0.00000   0.00000
                          15        16        17        18        19
                           O         V         V         V         V
     Eigenvalues --    -0.25287  -0.00036  -0.00036   0.01449   0.02232
   1 1   Sc 1S         -0.00000   0.00000   0.00000  -0.00000   0.00000
   2        2S         -0.00001   0.00000   0.00000  -0.00000   0.00000
   3        3S         -0.00002   0.00000   0.00000  -0.00001   0.00000
   4        4S         -0.00006   0.00000   0.00000  -0.00002   0.00000
   5        5S         -0.00016   0.00000   0.00000  -0.00004   0.00000
   6        6S         -0.00046   0.00000   0.00000  -0.00012   0.00001
   7        7S         -0.00124   0.00000   0.00000  -0.00034   0.00000
   8        8S         -0.00315   0.00000   0.00000  -0.00080   0.00006
   9        9S         -0.00700   0.00000   0.00000  -0.00197  -0.00002
  10       10S         -0.01279   0.00000   0.00000  -0.00310   0.00036
  11       11S         -0.01434   0.00000   0.00000  -0.00458  -0.00046
  12       12S          0.00527   0.00000   0.00000   0.00363   0.00170
  13       13S          0.06017   0.00000   0.00000   0.00885  -0.00622
  14       14S          0.10257   0.00000   0.00000   0.06124   0.02591
  15       15S         -0.01154   0.00000   0.00000   0.18362   0.15173
  16       16S         -0.23502   0.00000   0.00000  -0.31586  -0.21031
  17       17S         -0.30712   0.00000   0.00000  -0.32346  -0.21717
  18       18S          0.31134   0.00000   0.00000   0.56645   0.46034
  19       19S          0.50160   0.00000   0.00000  -0.87006  -2.12049
  20       20S          0.20035   0.00000   0.00000   1.99689   2.51125
  21       21S         -0.00864   0.00000   0.00000  -0.14986  -0.11870
  22       22S          0.04920   0.00000   0.00000   0.38851   0.32810
  23       23S         -0.00669   0.00000   0.00000  -1.79788  -1.93387
  24       24PX         0.00000   0.00000   0.00000   0.00000   0.00000
  25       24PY         0.00000   0.00000   0.00000   0.00000   0.00000
  26       24PZ         0.00000   0.00000   0.00000  -0.00000   0.00000
  27       25PX         0.00000   0.00002   0.00000   0.00000   0.00000
  28       25PY         0.00000   0.00000   0.00002   0.00000   0.00000
  29       25PZ         0.00002   0.00000   0.00000  -0.00000   0.00001
  30       26PX         0.00000   0.00007   0.00000   0.00000   0.00000
  31       26PY         0.00000   0.00000   0.00007   0.00000   0.00000
  32       26PZ         0.00011   0.00000   0.00000   0.00000   0.00004
  33       27PX         0.00000   0.00033   0.00000   0.00000   0.00000
  34       27PY         0.00000   0.00000   0.00033   0.00000   0.00000
  35       27PZ         0.00045   0.00000   0.00000  -0.00004   0.00016
  36       28PX         0.00000   0.00105   0.00000   0.00000   0.00000
  37       28PY         0.00000   0.00000   0.00105   0.00000   0.00000
  38       28PZ         0.00159   0.00000   0.00000   0.00002   0.00054
  39       29PX         0.00000   0.00319   0.00000   0.00000   0.00000
  40       29PY         0.00000   0.00000   0.00319   0.00000   0.00000
  41       29PZ         0.00440   0.00000   0.00000  -0.00046   0.00160
  42       30PX         0.00000   0.00643   0.00000   0.00000   0.00000
  43       30PY         0.00000   0.00000   0.00643   0.00000   0.00000
  44       30PZ         0.01001   0.00000   0.00000   0.00038   0.00331
  45       31PX         0.00000   0.01215   0.00000   0.00000   0.00000
  46       31PY         0.00000   0.00000   0.01215   0.00000   0.00000
  47       31PZ         0.01567   0.00000   0.00000  -0.00301   0.00598
  48       32PX         0.00000   0.00849   0.00000   0.00000   0.00000
  49       32PY         0.00000   0.00000   0.00849   0.00000   0.00000
  50       32PZ         0.01849   0.00000   0.00000   0.00669   0.00494
  51       33PX         0.00000   0.06189   0.00000   0.00000   0.00000
  52       33PY         0.00000   0.00000   0.06189   0.00000   0.00000
  53       33PZ        -0.03206   0.00000   0.00000  -0.15169   0.01153
  54       34PX         0.00000  -0.03045   0.00000   0.00000   0.00000
  55       34PY         0.00000   0.00000  -0.03045   0.00000   0.00000
  56       34PZ        -0.04739   0.00000   0.00000  -0.00494  -0.02017
  57       35PX         0.00000   0.08692   0.00000   0.00000   0.00000
  58       35PY         0.00000   0.00000   0.08692   0.00000   0.00000
  59       35PZ        -0.10703   0.00000   0.00000  -0.24571   0.12329
  60       36PX         0.00000  -0.01185   0.00000   0.00000   0.00000
  61       36PY         0.00000   0.00000  -0.01185   0.00000   0.00000
  62       36PZ        -0.07439   0.00000   0.00000  -0.06114   0.00459
  63       37PX         0.00000  -0.00220   0.00000   0.00000   0.00000
  64       37PY         0.00000   0.00000  -0.00220   0.00000   0.00000
  65       37PZ         0.11261   0.00000   0.00000   0.04746  -0.06419
  66       38PX         0.00000   0.24827   0.00000   0.00000   0.00000
  67       38PY         0.00000   0.00000   0.24827   0.00000   0.00000
  68       38PZ         0.33626   0.00000   0.00000  -0.15123   0.65839
  69       39PX         0.00000  -0.01170   0.00000   0.00000   0.00000
  70       39PY         0.00000   0.00000  -0.01170   0.00000   0.00000
  71       39PZ         0.07349   0.00000   0.00000   0.43589  -0.44362
  72       40PX         0.00000  -0.06484   0.00000   0.00000   0.00000
  73       40PY         0.00000   0.00000  -0.06484   0.00000   0.00000
  74       40PZ         0.02861   0.00000   0.00000   0.15402  -0.01172
  75       41PX         0.00000  -0.15124   0.00000   0.00000   0.00000
  76       41PY         0.00000   0.00000  -0.15124   0.00000   0.00000
  77       41PZ         0.03767   0.00000   0.00000   0.27969  -0.15941
  78       42PX         0.00000   0.79155   0.00000   0.00000   0.00000
  79       42PY         0.00000   0.00000   0.79155   0.00000   0.00000
  80       42PZ        -0.00228   0.00000   0.00000  -0.95732   0.63380
  81       43D 0       -0.00061   0.00000   0.00000  -0.00031   0.00013
  82       43D+1        0.00000   0.00047   0.00000   0.00000   0.00000
  83       43D-1        0.00000   0.00000   0.00047   0.00000   0.00000
  84       43D+2       -0.00000   0.00000   0.00000   0.00000  -0.00000
  85       43D-2        0.00000   0.00000   0.00000   0.00000   0.00000
  86       44D 0       -0.00396   0.00000   0.00000  -0.00194   0.00104
  87       44D+1        0.00000   0.00302   0.00000   0.00000   0.00000
  88       44D-1        0.00000   0.00000   0.00302   0.00000   0.00000
  89       44D+2       -0.00000   0.00000   0.00000   0.00000  -0.00000
  90       44D-2        0.00000   0.00000   0.00000   0.00000   0.00000
  91       45D 0       -0.01417   0.00000   0.00000  -0.00719   0.00240
  92       45D+1        0.00000   0.01110   0.00000   0.00000   0.00000
  93       45D-1        0.00000   0.00000   0.01110   0.00000   0.00000
  94       45D+2       -0.00000   0.00000   0.00000   0.00000  -0.00000
  95       45D-2        0.00000   0.00000   0.00000   0.00000   0.00000
  96       46D 0       -0.03718   0.00000   0.00000  -0.00966   0.05488
  97       46D+1        0.00000   0.01848   0.00000   0.00000   0.00000
  98       46D-1        0.00000   0.00000   0.01848   0.00000   0.00000
  99       46D+2       -0.00000   0.00000   0.00000   0.00000  -0.00000
 100       46D-2        0.00000   0.00000   0.00000   0.00000   0.00000
 101       47D 0       -0.08674   0.00000   0.00000   0.12458   0.88956
 102       47D+1        0.00000  -0.05963   0.00000   0.00000   0.00000
 103       47D-1        0.00000   0.00000  -0.05963   0.00000   0.00000
 104       47D+2       -0.00000   0.00000   0.00000  -0.00000   0.00000
 105       47D-2        0.00000   0.00000   0.00000   0.00000   0.00000
 106       48D 0       -0.06338   0.00000   0.00000  -0.01410   0.04753
 107       48D+1        0.00000   0.04500   0.00000   0.00000   0.00000
 108       48D-1        0.00000   0.00000   0.04500   0.00000   0.00000
 109       48D+2       -0.00000   0.00000   0.00000   0.00000  -0.00000
 110       48D-2        0.00000   0.00000   0.00000   0.00000   0.00000
 111       49D 0       -0.03595   0.00000   0.00000  -0.04460  -0.03380
 112       49D+1        0.00000   0.10395   0.00000   0.00000   0.00000
 113       49D-1        0.00000   0.00000   0.10395   0.00000   0.00000
 114       49D+2       -0.00000   0.00000   0.00000   0.00000  -0.00000
 115       49D-2        0.00000   0.00000   0.00000   0.00000   0.00000
 116       50D 0        0.00708   0.00000   0.00000  -0.04431   0.09051
 117       50D+1        0.00000   0.12677   0.00000   0.00000   0.00000
 118       50D-1        0.00000   0.00000   0.12677   0.00000   0.00000
 119       50D+2        0.00000   0.00000   0.00000   0.00000  -0.00000
 120       50D-2        0.00000   0.00000   0.00000   0.00000   0.00000
 121       51D 0        0.00503   0.00000   0.00000  -0.00835  -0.05718
 122       51D+1        0.00000   0.00867   0.00000   0.00000   0.00000
 123       51D-1        0.00000   0.00000   0.00867   0.00000   0.00000
 124       51D+2        0.00000   0.00000   0.00000   0.00000  -0.00000
 125       51D-2        0.00000   0.00000   0.00000   0.00000   0.00000
 126       52D 0        0.03609   0.00000   0.00000  -0.15049  -0.88001
 127       52D+1        0.00000   0.09740   0.00000   0.00000   0.00000
 128       52D-1        0.00000   0.00000   0.09740   0.00000   0.00000
 129       52D+2        0.00000   0.00000   0.00000   0.00000  -0.00000
 130       52D-2        0.00000   0.00000   0.00000   0.00000   0.00000
 131       53D 0        0.00119   0.00000   0.00000  -0.17272   0.50235
 132       53D+1        0.00000   0.20105   0.00000   0.00000   0.00000
 133       53D-1        0.00000   0.00000   0.20105   0.00000   0.00000
 134       53D+2        0.00000   0.00000   0.00000   0.00000  -0.00000
 135       53D-2        0.00000   0.00000   0.00000   0.00000   0.00000
 136       54F 0        0.00053   0.00000   0.00000   0.00026   0.00033
 137       54F+1        0.00000  -0.00001   0.00000   0.00000   0.00000
 138       54F-1        0.00000   0.00000  -0.00001   0.00000   0.00000
 139       54F+2       -0.00000   0.00000   0.00000  -0.00000   0.00000
 140       54F-2        0.00000   0.00000   0.00000   0.00000   0.00000
 141       54F+3        0.00000  -0.00000   0.00000   0.00000   0.00000
 142       54F-3        0.00000   0.00000  -0.00000   0.00000   0.00000
 143       55F 0        0.00069   0.00000   0.00000  -0.00228  -0.00050
 144       55F+1        0.00000  -0.00019   0.00000   0.00000   0.00000
 145       55F-1        0.00000   0.00000  -0.00019   0.00000   0.00000
 146       55F+2       -0.00000   0.00000   0.00000  -0.00000  -0.00000
 147       55F-2        0.00000   0.00000   0.00000   0.00000   0.00000
 148       55F+3        0.00000  -0.00000   0.00000   0.00000   0.00000
 149       55F-3        0.00000   0.00000  -0.00000   0.00000   0.00000
 150       56F 0       -0.01024   0.00000   0.00000  -0.00700   0.00761
 151       56F+1        0.00000  -0.01163   0.00000   0.00000   0.00000
 152       56F-1        0.00000   0.00000  -0.01163   0.00000   0.00000
 153       56F+2       -0.00000   0.00000   0.00000  -0.00000  -0.00000
 154       56F-2        0.00000   0.00000   0.00000   0.00000   0.00000
 155       56F+3        0.00000  -0.00000   0.00000   0.00000   0.00000
 156       56F-3        0.00000   0.00000  -0.00000   0.00000   0.00000
 157       57F 0       -0.00449   0.00000   0.00000   0.01262  -0.05048
 158       57F+1        0.00000  -0.02248   0.00000   0.00000   0.00000
 159       57F-1        0.00000   0.00000  -0.02248   0.00000   0.00000
 160       57F+2       -0.00000   0.00000   0.00000  -0.00000  -0.00000
 161       57F-2        0.00000   0.00000   0.00000   0.00000   0.00000
 162       57F+3        0.00000   0.00000   0.00000   0.00000   0.00000
 163       57F-3        0.00000   0.00000   0.00000   0.00000   0.00000
 164       58G 0        0.00002   0.00000   0.00000   0.00012   0.00006
 165       58G+1        0.00000  -0.00013   0.00000   0.00000   0.00000
 166       58G-1        0.00000   0.00000  -0.00013   0.00000   0.00000
 167       58G+2        0.00000   0.00000   0.00000   0.00000   0.00000
 168       58G-2        0.00000   0.00000   0.00000   0.00000   0.00000
 169       58G+3        0.00000   0.00000   0.00000   0.00000   0.00000
 170       58G-3        0.00000   0.00000   0.00000   0.00000   0.00000
 171       58G+4       -0.00000   0.00000   0.00000   0.00000  -0.00000
 172       58G-4        0.00000   0.00000   0.00000   0.00000   0.00000
 173       59G 0        0.00033   0.00000   0.00000   0.00132  -0.00214
 174       59G+1        0.00000   0.00023   0.00000   0.00000   0.00000
 175       59G-1        0.00000   0.00000   0.00023   0.00000   0.00000
 176       59G+2        0.00000   0.00000   0.00000   0.00000   0.00000
 177       59G-2        0.00000   0.00000   0.00000   0.00000   0.00000
 178       59G+3        0.00000  -0.00000   0.00000   0.00000   0.00000
 179       59G-3        0.00000   0.00000  -0.00000   0.00000   0.00000
 180       59G+4       -0.00000   0.00000   0.00000  -0.00000   0.00000
 181       59G-4        0.00000   0.00000   0.00000   0.00000   0.00000
 182       60G 0       -0.00009   0.00000   0.00000   0.00115   0.00783
 183       60G+1        0.00000  -0.00032   0.00000   0.00000   0.00000
 184       60G-1        0.00000   0.00000  -0.00032   0.00000   0.00000
 185       60G+2        0.00000   0.00000   0.00000   0.00000   0.00000
 186       60G-2        0.00000   0.00000   0.00000   0.00000   0.00000
 187       60G+3        0.00000   0.00000   0.00000   0.00000   0.00000
 188       60G-3        0.00000   0.00000   0.00000   0.00000   0.00000
 189       60G+4       -0.00000   0.00000   0.00000  -0.00000  -0.00000
 190       60G-4        0.00000   0.00000   0.00000   0.00000   0.00000
 191 2   O  1S          0.00001   0.00000   0.00000   0.00000  -0.00000
 192        2S          0.00005   0.00000   0.00000   0.00002  -0.00002
 193        3S          0.00025   0.00000   0.00000   0.00009  -0.00009
 194        4S          0.00098   0.00000   0.00000   0.00032  -0.00041
 195        5S          0.00311   0.00000   0.00000   0.00127  -0.00103
 196        6S          0.00796   0.00000   0.00000   0.00665   0.00129
 197        7S          0.01012   0.00000   0.00000   0.01026   0.00389
 198        8S         -0.03366   0.00000   0.00000  -0.00061   0.02624
 199        9S         -0.00904   0.00000   0.00000  -0.00723  -0.00118
 200       10S         -0.02882   0.00000   0.00000  -0.04662  -0.01962
 201       11S         -0.00099   0.00000   0.00000  -0.00740  -0.00789
 202       12S         -0.00058   0.00000   0.00000  -0.00277  -0.00273
 203       13S          0.05803   0.00000   0.00000  -0.05037   0.64804
 204       14PX         0.00000  -0.00019   0.00000   0.00000   0.00000
 205       14PY         0.00000   0.00000  -0.00019   0.00000   0.00000
 206       14PZ        -0.00036   0.00000   0.00000   0.00018  -0.00035
 207       15PX         0.00000  -0.00208   0.00000   0.00000   0.00000
 208       15PY         0.00000   0.00000  -0.00208   0.00000   0.00000
 209       15PZ        -0.00402   0.00000   0.00000   0.00201  -0.00411
 210       16PX         0.00000  -0.00689   0.00000   0.00000   0.00000
 211       16PY         0.00000   0.00000  -0.00689   0.00000   0.00000
 212       16PZ        -0.01364   0.00000   0.00000   0.00678  -0.01488
 213       17PX         0.00000  -0.01140   0.00000   0.00000   0.00000
 214       17PY         0.00000   0.00000  -0.01140   0.00000   0.00000
 215       17PZ        -0.02126   0.00000   0.00000   0.01122  -0.01973
 216       18PX         0.00000   0.00481   0.00000   0.00000   0.00000
 217       18PY         0.00000   0.00000   0.00481   0.00000   0.00000
 218       18PZ        -0.01723   0.00000   0.00000  -0.01895  -0.04946
 219       19PX         0.00000  -0.00019   0.00000   0.00000   0.00000
 220       19PY         0.00000   0.00000  -0.00019   0.00000   0.00000
 221       19PZ        -0.00042   0.00000   0.00000   0.00020  -0.00052
 222       20PX         0.00000  -0.00009   0.00000   0.00000   0.00000
 223       20PY         0.00000   0.00000  -0.00009   0.00000   0.00000
 224       20PZ        -0.00017   0.00000   0.00000   0.00009  -0.00019
 225       21PX         0.00000   0.05151   0.00000   0.00000   0.00000
 226       21PY         0.00000   0.00000   0.05151   0.00000   0.00000
 227       21PZ         0.01530   0.00000   0.00000  -0.04049   0.42488
 228       22D 0       -0.00090   0.00000   0.00000  -0.00035   0.00047
 229       22D+1        0.00000  -0.00042   0.00000   0.00000   0.00000
 230       22D-1        0.00000   0.00000  -0.00042   0.00000   0.00000
 231       22D+2        0.00000   0.00000   0.00000   0.00000  -0.00000
 232       22D-2        0.00000   0.00000   0.00000   0.00000   0.00000
 233       23D 0       -0.00370   0.00000   0.00000  -0.00357   0.00232
 234       23D+1        0.00000  -0.00213   0.00000   0.00000   0.00000
 235       23D-1        0.00000   0.00000  -0.00213   0.00000   0.00000
 236       23D+2        0.00000   0.00000   0.00000   0.00000  -0.00000
 237       23D-2        0.00000   0.00000   0.00000   0.00000   0.00000
 238       24D 0       -0.00004   0.00000   0.00000  -0.00003   0.00001
 239       24D+1        0.00000  -0.00002   0.00000   0.00000   0.00000
 240       24D-1        0.00000   0.00000  -0.00002   0.00000   0.00000
 241       24D+2        0.00000   0.00000   0.00000   0.00000  -0.00000
 242       24D-2        0.00000   0.00000   0.00000   0.00000   0.00000
 243       25D 0       -0.00230   0.00000   0.00000  -0.01341  -0.01554
 244       25D+1        0.00000   0.01021   0.00000   0.00000   0.00000
 245       25D-1        0.00000   0.00000   0.01021   0.00000   0.00000
 246       25D+2        0.00000   0.00000   0.00000   0.00000  -0.00000
 247       25D-2        0.00000   0.00000   0.00000   0.00000   0.00000
 248       26F 0       -0.00059   0.00000   0.00000  -0.00016   0.00067
 249       26F+1        0.00000  -0.00056   0.00000   0.00000   0.00000
 250       26F-1        0.00000   0.00000  -0.00056   0.00000   0.00000
 251       26F+2        0.00000   0.00000   0.00000   0.00000  -0.00000
 252       26F-2        0.00000   0.00000   0.00000   0.00000   0.00000
 253       26F+3        0.00000   0.00000   0.00000   0.00000   0.00000
 254       26F-3        0.00000   0.00000   0.00000   0.00000   0.00000
 255       27F 0       -0.00131   0.00000   0.00000  -0.00249  -0.00091
 256       27F+1        0.00000   0.00073   0.00000   0.00000   0.00000
 257       27F-1        0.00000   0.00000   0.00073   0.00000   0.00000
 258       27F+2        0.00000   0.00000   0.00000   0.00000  -0.00000
 259       27F-2        0.00000   0.00000   0.00000   0.00000   0.00000
 260       27F+3        0.00000  -0.00000   0.00000   0.00000   0.00000
 261       27F-3        0.00000   0.00000  -0.00000   0.00000   0.00000
                          20
                           V
     Eigenvalues --     0.03538
   1 1   Sc 1S          0.00000
   2        2S         -0.00000
   3        3S          0.00000
   4        4S         -0.00000
   5        5S          0.00000
   6        6S          0.00000
   7        7S          0.00000
   8        8S          0.00000
   9        9S          0.00000
  10       10S          0.00000
  11       11S          0.00000
  12       12S          0.00000
  13       13S         -0.00000
  14       14S         -0.00000
  15       15S          0.00000
  16       16S         -0.00000
  17       17S         -0.00000
  18       18S         -0.00000
  19       19S         -0.00000
  20       20S          0.00000
  21       21S         -0.00000
  22       22S          0.00000
  23       23S          0.00000
  24       24PX         0.00000
  25       24PY         0.00000
  26       24PZ         0.00000
  27       25PX         0.00000
  28       25PY         0.00000
  29       25PZ        -0.00000
  30       26PX         0.00000
  31       26PY         0.00000
  32       26PZ         0.00000
  33       27PX         0.00000
  34       27PY         0.00000
  35       27PZ        -0.00000
  36       28PX         0.00000
  37       28PY         0.00000
  38       28PZ         0.00000
  39       29PX         0.00000
  40       29PY         0.00000
  41       29PZ         0.00000
  42       30PX         0.00000
  43       30PY         0.00000
  44       30PZ         0.00000
  45       31PX         0.00000
  46       31PY         0.00000
  47       31PZ         0.00000
  48       32PX         0.00000
  49       32PY         0.00000
  50       32PZ         0.00000
  51       33PX         0.00000
  52       33PY         0.00000
  53       33PZ         0.00000
  54       34PX         0.00000
  55       34PY         0.00000
  56       34PZ         0.00000
  57       35PX         0.00000
  58       35PY         0.00000
  59       35PZ         0.00000
  60       36PX         0.00000
  61       36PY         0.00000
  62       36PZ         0.00000
  63       37PX         0.00000
  64       37PY         0.00000
[...]
  48       32PX         0.58654   0.29327   0.29327   0.00000
  49       32PY         0.58654   0.29327   0.29327   0.00000
  50       32PZ         0.58541   0.29260   0.29281  -0.00022
  51       33PX         0.23127   0.11563   0.11563   0.00000
  52       33PY         0.23127   0.11563   0.11563   0.00000
  53       33PZ         0.24386   0.12272   0.12114   0.00158
  54       34PX         0.51900   0.25950   0.25950   0.00000
  55       34PY         0.51900   0.25950   0.25950   0.00000
  56       34PZ         0.53563   0.26956   0.26607   0.00350
  57       35PX         0.81807   0.40904   0.40904   0.00000
  58       35PY         0.81807   0.40904   0.40904   0.00000
  59       35PZ         0.72909   0.36659   0.36251   0.00408
  60       36PX         0.49217   0.24609   0.24609   0.00000
  61       36PY         0.49217   0.24609   0.24609   0.00000
  62       36PZ         0.44865   0.22077   0.22788  -0.00711
  63       37PX         0.04701   0.02351   0.02351   0.00000
  64       37PY         0.04701   0.02351   0.02351   0.00000
  65       37PZ         0.04857   0.04295   0.00562   0.03733
  66       38PX         0.00535   0.00267   0.00267   0.00000
  67       38PY         0.00535   0.00267   0.00267   0.00000
  68       38PZ         0.13058   0.13828  -0.00770   0.14598
  69       39PX        -0.00580  -0.00290  -0.00290  -0.00000
  70       39PY        -0.00580  -0.00290  -0.00290  -0.00000
  71       39PZ         0.02362   0.02479  -0.00116   0.02595
  72       40PX         0.00954   0.00477   0.00477   0.00000
  73       40PY         0.00954   0.00477   0.00477  -0.00000
  74       40PZ        -0.00298  -0.00223  -0.00075  -0.00149
  75       41PX         0.08554   0.04277   0.04277   0.00000
  76       41PY         0.08554   0.04277   0.04277   0.00000
  77       41PZ         0.18325   0.09103   0.09222  -0.00119
  78       42PX         0.00060   0.00030   0.00030   0.00000
  79       42PY         0.00060   0.00030   0.00030   0.00000
  80       42PZ        -0.00047  -0.00046  -0.00001  -0.00045
  81       43D 0        0.00007   0.00004   0.00003   0.00000
  82       43D+1        0.00003   0.00001   0.00001   0.00000
  83       43D-1        0.00003   0.00001   0.00001   0.00000
  84       43D+2        0.00000  -0.00000   0.00000  -0.00000
  85       43D-2        0.00000   0.00000   0.00000  -0.00000
  86       44D 0        0.00176   0.00093   0.00083   0.00010
  87       44D+1        0.00062   0.00031   0.00031   0.00000
  88       44D-1        0.00062   0.00031   0.00031  -0.00000
  89       44D+2        0.00000   0.00000   0.00000   0.00000
  90       44D-2       -0.00000   0.00000  -0.00000   0.00000
  91       45D 0        0.01530   0.00806   0.00724   0.00082
  92       45D+1        0.00547   0.00273   0.00273   0.00000
  93       45D-1        0.00547   0.00273   0.00273   0.00000
  94       45D+2       -0.00000  -0.00000   0.00000  -0.00000
  95       45D-2       -0.00000  -0.00000   0.00000  -0.00000
  96       46D 0        0.04910   0.02640   0.02271   0.00369
  97       46D+1        0.01618   0.00809   0.00809   0.00000
  98       46D-1        0.01618   0.00809   0.00809   0.00000
  99       46D+2        0.00000   0.00000   0.00000  -0.00000
 100       46D-2        0.00000   0.00000  -0.00000   0.00000
 101       47D 0       -0.51265  -0.25024  -0.26241   0.01216
 102       47D+1       -0.19404  -0.09702  -0.09702  -0.00000
 103       47D-1       -0.19404  -0.09702  -0.09702  -0.00000
 104       47D+2        0.00000  -0.00000   0.00000  -0.00000
 105       47D-2        0.00000  -0.00000   0.00000  -0.00000
 106       48D 0        0.14741   0.07869   0.06872   0.00997
 107       48D+1        0.09379   0.04689   0.04689   0.00000
 108       48D-1        0.09379   0.04689   0.04689   0.00000
 109       48D+2       -0.00000   0.00000  -0.00000   0.00000
 110       48D-2       -0.00000  -0.00000  -0.00000  -0.00000
 111       49D 0        0.00261   0.00313  -0.00053   0.00366
 112       49D+1        0.04065   0.02032   0.02032   0.00000
 113       49D-1        0.04065   0.02032   0.02032   0.00000
 114       49D+2        0.00000   0.00000  -0.00000   0.00000
 115       49D-2        0.00000   0.00000  -0.00000   0.00000
 116       50D 0       -0.00284  -0.00152  -0.00132  -0.00019
 117       50D+1       -0.00512  -0.00256  -0.00256  -0.00000
 118       50D-1       -0.00512  -0.00256  -0.00256  -0.00000
 119       50D+2       -0.00000  -0.00000   0.00000  -0.00000
 120       50D-2       -0.00000  -0.00000   0.00000  -0.00000
 121       51D 0        0.01804   0.00876   0.00928  -0.00052
 122       51D+1        0.00833   0.00416   0.00416   0.00000
 123       51D-1        0.00833   0.00416   0.00416   0.00000
 124       51D+2       -0.00000  -0.00000  -0.00000  -0.00000
 125       51D-2       -0.00000  -0.00000   0.00000  -0.00000
 126       52D 0        0.68015   0.33753   0.34262  -0.00508
 127       52D+1        0.25492   0.12746   0.12746   0.00000
 128       52D-1        0.25492   0.12746   0.12746   0.00000
 129       52D+2       -0.00000  -0.00000   0.00000  -0.00000
 130       52D-2       -0.00000  -0.00000  -0.00000  -0.00000
 131       53D 0       -0.00002  -0.00001  -0.00001  -0.00000
 132       53D+1       -0.00002  -0.00001  -0.00001  -0.00000
 133       53D-1       -0.00002  -0.00001  -0.00001  -0.00000
 134       53D+2       -0.00000  -0.00000   0.00000  -0.00000
 135       53D-2        0.00000   0.00000   0.00000  -0.00000
 136       54F 0        0.00035   0.00017   0.00017   0.00000
 137       54F+1        0.00013   0.00006   0.00006   0.00000
 138       54F-1        0.00013   0.00006   0.00006   0.00000
 139       54F+2        0.00000  -0.00000   0.00000  -0.00000
 140       54F-2       -0.00000  -0.00000   0.00000  -0.00000
 141       54F+3       -0.00000  -0.00000  -0.00000  -0.00000
 142       54F-3       -0.00000  -0.00000  -0.00000  -0.00000
 143       55F 0        0.00776   0.00388   0.00388   0.00001
 144       55F+1        0.00476   0.00238   0.00238   0.00000
 145       55F-1        0.00476   0.00238   0.00238   0.00000
 146       55F+2       -0.00000  -0.00000  -0.00000  -0.00000
 147       55F-2       -0.00000  -0.00000  -0.00000  -0.00000
 148       55F+3       -0.00000  -0.00000  -0.00000  -0.00000
 149       55F-3       -0.00000  -0.00000  -0.00000  -0.00000
 150       56F 0       -0.00301  -0.00154  -0.00147  -0.00007
 151       56F+1        0.00124   0.00062   0.00062   0.00000
 152       56F-1        0.00124   0.00062   0.00062   0.00000
 153       56F+2       -0.00000   0.00000  -0.00000   0.00000
 154       56F-2        0.00000   0.00000  -0.00000   0.00000
 155       56F+3        0.00000   0.00000   0.00000   0.00000
 156       56F-3        0.00000   0.00000   0.00000   0.00000
 157       57F 0       -0.00176  -0.00086  -0.00090   0.00003
 158       57F+1       -0.00203  -0.00102  -0.00102  -0.00000
 159       57F-1       -0.00203  -0.00102  -0.00102  -0.00000
 160       57F+2        0.00000   0.00000   0.00000  -0.00000
 161       57F-2        0.00000   0.00000   0.00000   0.00000
 162       57F+3        0.00000   0.00000   0.00000   0.00000
 163       57F-3        0.00000   0.00000   0.00000   0.00000
 164       58G 0        0.00005   0.00003   0.00003  -0.00000
 165       58G+1        0.00003   0.00002   0.00002   0.00000
 166       58G-1        0.00003   0.00002   0.00002   0.00000
 167       58G+2        0.00000   0.00000   0.00000  -0.00000
 168       58G-2       -0.00000  -0.00000   0.00000  -0.00000
 169       58G+3       -0.00000  -0.00000  -0.00000  -0.00000
 170       58G-3       -0.00000  -0.00000  -0.00000  -0.00000
 171       58G+4       -0.00000  -0.00000  -0.00000  -0.00000
 172       58G-4       -0.00000  -0.00000  -0.00000   0.00000
 173       59G 0        0.00083   0.00041   0.00042  -0.00001
 174       59G+1        0.00129   0.00065   0.00065   0.00000
 175       59G-1        0.00129   0.00065   0.00065   0.00000
 176       59G+2        0.00000   0.00000  -0.00000   0.00000
 177       59G-2        0.00000   0.00000  -0.00000   0.00000
 178       59G+3       -0.00000  -0.00000  -0.00000  -0.00000
 179       59G-3        0.00000   0.00000   0.00000   0.00000
 180       59G+4       -0.00000  -0.00000  -0.00000  -0.00000
 181       59G-4       -0.00000  -0.00000  -0.00000  -0.00000
 182       60G 0       -0.00205  -0.00103  -0.00103   0.00000
 183       60G+1       -0.00260  -0.00130  -0.00130  -0.00000
 184       60G-1       -0.00260  -0.00130  -0.00130  -0.00000
 185       60G+2        0.00000   0.00000  -0.00000   0.00000
 186       60G-2        0.00000  -0.00000   0.00000  -0.00000
 187       60G+3       -0.00000  -0.00000  -0.00000  -0.00000
 188       60G-3        0.00000   0.00000   0.00000   0.00000
 189       60G+4        0.00000   0.00000   0.00000   0.00000
 190       60G-4        0.00000   0.00000   0.00000   0.00000
 191 2   O  1S          0.00005   0.00003   0.00003   0.00000
 192        2S          0.00109   0.00054   0.00054   0.00000
 193        3S          0.01318   0.00659   0.00659   0.00000
 194        4S          0.09639   0.04820   0.04819   0.00001
 195        5S          0.40513   0.20258   0.20255   0.00002
 196        6S          0.80560   0.40282   0.40279   0.00003
 197        7S          0.50395   0.25193   0.25202  -0.00009
 198        8S          0.98745   0.49423   0.49322   0.00101
 199        9S          0.25679   0.12854   0.12825   0.00028
 200       10S          0.76882   0.38374   0.38508  -0.00134
 201       11S          0.07236   0.03618   0.03618   0.00000
 202       12S          0.04225   0.02113   0.02113  -0.00000
 203       13S          0.11615   0.06682   0.04933   0.01749
 204       14PX         0.00159   0.00080   0.00080   0.00000
 205       14PY         0.00159   0.00080   0.00080   0.00000
 206       14PZ         0.00177   0.00089   0.00089   0.00000
 207       15PX         0.05386   0.02693   0.02693   0.00000
 208       15PY         0.05386   0.02693   0.02693   0.00000
 209       15PZ         0.06007   0.03007   0.03000   0.00008
 210       16PX         0.32920   0.16460   0.16460   0.00000
 211       16PY         0.32920   0.16460   0.16460   0.00000
 212       16PZ         0.36613   0.18330   0.18284   0.00046
 213       17PX         0.68375   0.34188   0.34188   0.00000
 214       17PY         0.68375   0.34188   0.34188   0.00000
 215       17PZ         0.73824   0.36943   0.36881   0.00062
 216       18PX         0.59356   0.29678   0.29678   0.00000
 217       18PY         0.59356   0.29678   0.29678   0.00000
 218       18PZ         0.44320   0.22077   0.22243  -0.00166
 219       19PX         0.00322   0.00161   0.00161   0.00000
 220       19PY         0.00322   0.00161   0.00161   0.00000
 221       19PZ         0.00361   0.00181   0.00180   0.00001
 222       20PX         0.00045   0.00023   0.00023   0.00000
 223       20PY         0.00045   0.00023   0.00023   0.00000
 224       20PZ         0.00051   0.00025   0.00025   0.00000
 225       21PX         0.08301   0.04151   0.04151   0.00000
 226       21PY         0.08301   0.04151   0.04151   0.00000
 227       21PZ         0.05202   0.02985   0.02218   0.00767
 228       22D 0        0.00047   0.00024   0.00023   0.00001
 229       22D+1        0.00027   0.00013   0.00013   0.00000
 230       22D-1        0.00027   0.00013   0.00013   0.00000
 231       22D+2        0.00000   0.00000  -0.00000   0.00000
 232       22D-2       -0.00000   0.00000  -0.00000   0.00000
 233       23D 0        0.00594   0.00301   0.00293   0.00008
 234       23D+1        0.00528   0.00264   0.00264   0.00000
 235       23D-1        0.00528   0.00264   0.00264   0.00000
 236       23D+2       -0.00000  -0.00000  -0.00000   0.00000
 237       23D-2        0.00000  -0.00000   0.00000  -0.00000
 238       24D 0        0.00000   0.00000   0.00000   0.00000
 239       24D+1        0.00000   0.00000   0.00000   0.00000
 240       24D-1        0.00000   0.00000   0.00000   0.00000
 241       24D+2        0.00000   0.00000   0.00000  -0.00000
 242       24D-2        0.00000   0.00000   0.00000   0.00000
 243       25D 0       -0.00246  -0.00124  -0.00121  -0.00003
 244       25D+1        0.01048   0.00524   0.00524   0.00000
 245       25D-1        0.01048   0.00524   0.00524   0.00000
 246       25D+2       -0.00000  -0.00000  -0.00000   0.00000
 247       25D-2       -0.00000  -0.00000  -0.00000  -0.00000
 248       26F 0        0.00028   0.00014   0.00014   0.00001
 249       26F+1        0.00010   0.00005   0.00005   0.00000
 250       26F-1        0.00010   0.00005   0.00005   0.00000
 251       26F+2        0.00000   0.00000  -0.00000   0.00000
 252       26F-2       -0.00000   0.00000  -0.00000   0.00000
 253       26F+3       -0.00000  -0.00000  -0.00000  -0.00000
 254       26F-3        0.00000   0.00000   0.00000   0.00000
 255       27F 0        0.00076   0.00041   0.00035   0.00007
 256       27F+1        0.00140   0.00070   0.00070   0.00000
 257       27F-1        0.00140   0.00070   0.00070   0.00000
 258       27F+2        0.00000  -0.00000   0.00000  -0.00000
 259       27F-2        0.00000   0.00000   0.00000   0.00000
 260       27F+3       -0.00000  -0.00000  -0.00000  -0.00000
 261       27F-3       -0.00000  -0.00000  -0.00000  -0.00000
          Condensed to atoms (all electrons):
               1          2
     1  Sc  19.636981   0.090909
     2  O    0.090909   9.181200
          Atomic-Atomic Spin Densities.
               1          2
     1  Sc   0.955194   0.020073
     2  O    0.020073   0.004661
 Mulliken charges and spin densities:
               1          2
     1  Sc   1.272109   0.975267
     2  O   -1.272109   0.024733
 Sum of Mulliken charges =  -0.00000   1.00000
 Mulliken charges and spin densities with hydrogens summed into heavy atoms:
               1          2
     1  Sc   1.272109   0.975267
     2  O   -1.272109   0.024733
 Electronic spatial extent (au):  <R**2>=            117.6238
 Charge=              0.0000 electrons
 Dipole moment (field-independent basis, Debye):
    X=              0.0000    Y=              0.0000    Z=              4.8750  Tot=              4.8750
 Quadrupole moment (field-independent basis, Debye-Ang):
   XX=            -22.3390   YY=            -22.3390   ZZ=            -33.1145
   XY=              0.0000   XZ=              0.0000   YZ=              0.0000
 Traceless Quadrupole moment (field-independent basis, Debye-Ang):
   XX=              3.5919   YY=              3.5919   ZZ=             -7.1837
   XY=              0.0000   XZ=              0.0000   YZ=              0.0000
 Octapole moment (field-independent basis, Debye-Ang**2):
  XXX=              0.0000  YYY=              0.0000  ZZZ=             -8.3323  XYY=              0.0000
  XXY=              0.0000  XXZ=             -2.7645  XZZ=              0.0000  YZZ=              0.0000
  YYZ=             -2.7645  XYZ=              0.0000
 Hexadecapole moment (field-independent basis, Debye-Ang**3):
 XXXX=            -45.3772 YYYY=            -45.3772 ZZZZ=           -183.4705 XXXY=              0.0000
 XXXZ=              0.0000 YYYX=              0.0000 YYYZ=              0.0000 ZZZX=              0.0000
 ZZZY=              0.0000 XXYY=            -15.1257 XXZZ=            -36.9160 YYZZ=            -36.9160
 XXYZ=              0.0000 YYXZ=              0.0000 ZZXY=              0.0000
 N-N= 5.229515966739D+01 E-N=-2.113273270774D+03  KE= 8.601139203770D+02
 Symmetry A1   KE= 6.857896994699D+02
 Symmetry A2   KE=-2.894891775782D-49
 Symmetry B1   KE= 8.716211045410D+01
 Symmetry B2   KE= 8.716211045361D+01
 Symmetry A1   SP= 1.000000000000D+00
 Symmetry A2   SP=-1.611583602504D-49
 Symmetry B1   SP= 8.578653449672D-16
 Symmetry B2   SP= 5.202899170489D-16
 Orbital energies and kinetic energies (alpha):
                                 1                 2
  10         O                -1.631873          5.953787
  11         O                -1.112945          3.487682
  12         O                -0.426827          2.696344
  13         O                -0.410137          2.014872
  14         O                -0.410137          2.014872
  15         O                -0.252873          0.649964
  16         V                -0.000364          0.133908
  17         V                -0.000364          0.133908
  18         V                 0.014486          0.074231
  19         V                 0.022317          0.053246
  20         V                 0.035375          0.061100
 Total kinetic energy from orbitals= 8.607638844425D+02
 FoFCou: FMM=F IPFlag=           8 FMFlag=           0 FMFlg1=           0
         NFxFlg=           0 DoJE=F BraDBF=T KetDBF=F FulRan=T
         wScrn=  0.000000 ICntrl=   2000500 IOpCl=  0 I1Cent=           5 NGrid=           0
         NMat0=    1 NMatS0=      1 NMatT0=    0 NMatD0=    1 NMtDS0=    0 NMtDT0=    0
 Symmetry not used in FoFCou.
                          Isotropic Fermi Contact Couplings
        Atom                 a.u.       MegaHertz       Gauss      10(-4) cm-1
     1  Sc(45)             2.14588    2333.68598     832.71719     778.43385
     2  O(17)              0.02115     -12.82362      -4.57579      -4.27750
 --------------------------------------------------------
       Center         ----  Spin Dipole Couplings  ----
                      3XX-RR        3YY-RR        3ZZ-RR
 --------------------------------------------------------
     1   Atom       -0.153298     -0.153298      0.306596
     2   Atom       -0.007585     -0.007585      0.015171
 --------------------------------------------------------
                        XY            XZ            YZ
 --------------------------------------------------------
     1   Atom        0.000000      0.000000      0.000000
     2   Atom        0.000000      0.000000      0.000000
 --------------------------------------------------------


 ---------------------------------------------------------------------------------
              Anisotropic Spin Dipole Couplings in Principal Axis System
 ---------------------------------------------------------------------------------

       Atom             a.u.   MegaHertz   Gauss  10(-4) cm-1        Axes

              Baa    -0.1533   -19.900    -7.101    -6.638  1.0000  0.0000  0.0000
     1 Sc(45) Bbb    -0.1533   -19.900    -7.101    -6.638 -0.0000  1.0000  0.0000
              Bcc     0.3066    39.800    14.202    13.276  0.0000  0.0000  1.0000
 
              Baa    -0.0076     0.549     0.196     0.183  1.0000  0.0000  0.0000
     2 O(17)  Bbb    -0.0076     0.549     0.196     0.183 -0.0000  1.0000  0.0000
              Bcc     0.0152    -1.098    -0.392    -0.366  0.0000  0.0000  1.0000
 

 ---------------------------------------------------------------------------------

 No NMR shielding tensors so no spin-rotation constants.
 Leave Link  601 at Tue Feb 20 19:45:13 2018, MaxMem= 21474836480 cpu:              17.8 elap:               0.6
 (Enter /home1/apps/gaussian/16rA.03/g16/l9999.exe)

 Test job not archived.
 1\1\GINC-C483-114\SP\ROCCSD(T)-RW\Gen\O1Sc1(2)\AANNABE\20-Feb-2018\0\\
 #P ROCCSD(T)=(maxcyc=150, Window=(7,0), SaveAmplitudes, ReadAmplitudes
 )/Gen 5d 7f SCF=(maxcycles=300) Integral(NoXCTest, DKHSO) MaxDisk=500G
 B Pop=Regular Guess=Read IOp(5/15=2)\\ScO\\0,2\Sc,0,0.,0.,0.\O,0,0.,0.
 ,1.7\\Version=ES64L-G16RevA.03\State=2-SG\HF=-838.2723379\MP2=-838.929
 2217\MP3=-838.8990829\PUHF=-838.2723379\PMP2-0=-838.9292217\MP4SDQ=-83
 8.9389257\CCSD=-838.917731\CCSD(T)=-838.9563969\RMSD=2.701e-10\PG=C*V 
 [C*(O1Sc1)]\\@


 THE GREAT THING ABOUT BEING IMPERFECT IS THE JOY IT BRINGS OTHERS.
   -- SIGN OUTSIDE LAKE AGASSIZ JR. HIGH SCHOOL, FARGO, N.D.
 Job cpu time:       0 days  2 hours 57 minutes 16.0 seconds.
 Elapsed time:       0 days  0 hours  5 minutes 34.4 seconds.
 File lengths (MBytes):  RWF=   3284 Int=      0 D2E=      0 Chk=     20 Scr=      1
 Normal termination of Gaussian 16 at Tue Feb 20 19:45:13 2018.
