 Entering Gaussian System, Link 0=g16
 Initial command:
 /home1/apps/gaussian/16rA.03/g16/l1.exe "/tmp/Gau-14016.inp" -scrdir="/tmp/"
 Entering Link 1 = /home1/apps/gaussian/16rA.03/g16/l1.exe PID=     14017.
  
 Copyright (c) 1988,1990,1992,1993,1995,1998,2003,2009,2016,
            Gaussian, Inc.  All Rights Reserved.
  
 This is part of the Gaussian(R) 16 program.  It is based on
 the Gaussian(R) 09 system (copyright 2009, Gaussian, Inc.),
 the Gaussian(R) 03 system (copyright 2003, Gaussian, Inc.),
 the Gaussian(R) 98 system (copyright 1998, Gaussian, Inc.),
 the Gaussian(R) 94 system (copyright 1995, Gaussian, Inc.),
 the Gaussian 92(TM) system (copyright 1992, Gaussian, Inc.),
 the Gaussian 90(TM) system (copyright 1990, Gaussian, Inc.),
 the Gaussian 88(TM) system (copyright 1988, Gaussian, Inc.),
 the Gaussian 86(TM) system (copyright 1986, Carnegie Mellon
 University), and the Gaussian 82(TM) system (copyright 1983,
 Carnegie Mellon University). Gaussian is a federally registered
 trademark of Gaussian, Inc.
  
 This software contains proprietary and confidential information,
 including trade secrets, belonging to Gaussian, Inc.
  
 This software is provided under written license and may be
 used, copied, transmitted, or stored only in accord with that
 written license.
  
 The following legend is applicable only to US Government
 contracts under FAR:
  
                    RESTRICTED RIGHTS LEGEND
  
 Use, reproduction and disclosure by the US Government is
 subject to restrictions as set forth in subparagraphs (a)
 and (c) of the Commercial Computer Software - Restricted
 Rights clause in FAR 52.227-19.
  
 Gaussian, Inc.
 340 Quinnipiac St., Bldg. 40, Wallingford CT 06492
  
  
 ---------------------------------------------------------------
 Warning -- This program may not be used in any manner that
 competes with the business of Gaussian, Inc. or will provide
 assistance to any competitor of Gaussian, Inc.  The licensee
 of this program is prohibited from giving any competitor of
 Gaussian, Inc. access to this program.  By using this program,
 the user acknowledges that Gaussian, Inc. is engaged in the
 business of creating and licensing software in the field of
 computational chemistry and represents and warrants to the
 licensee that it is not a competitor of Gaussian, Inc. and that
 it will not use this program in any manner prohibited above.
 ---------------------------------------------------------------
  

 Cite this work as:
 Gaussian 16, Revision A.03,
 M. J. Frisch, G. W. Trucks, H. B. Schlegel, G. E. Scuseria, 
 M. A. Robb, J. R. Cheeseman, G. Scalmani, V. Barone, 
 G. A. Petersson, H. Nakatsuji, X. Li, M. Caricato, A. V. Marenich, 
 J. Bloino, B. G. Janesko, R. Gomperts, B. Mennucci, H. P. Hratchian, 
 J. V. Ortiz, A. F. Izmaylov, J. L. Sonnenberg, D. Williams-Young, 
 F. Ding, F. Lipparini, F. Egidi, J. Goings, B. Peng, A. Petrone, 
 T. Henderson, D. Ranasinghe, V. G. Zakrzewski, J. Gao, N. Rega, 
 G. Zheng, W. Liang, M. Hada, M. Ehara, K. Toyota, R. Fukuda, 
 J. Hasegawa, M. Ishida, T. Nakajima, Y. Honda, O. Kitao, H. Nakai, 
 T. Vreven, K. Throssell, J. A. Montgomery, Jr., J. E. Peralta, 
 F. Ogliaro, M. J. Bearpark, J. J. Heyd, E. N. Brothers, K. N. Kudin, 
 V. N. Staroverov, T. A. Keith, R. Kobayashi, J. Normand, 
 K. Raghavachari, A. P. Rendell, J. C. Burant, S. S. Iyengar, 
 J. Tomasi, M. Cossi, J. M. Millam, M. Klene, C. Adamo, R. Cammi, 
 J. W. Ochterski, R. L. Martin, K. Morokuma, O. Farkas, 
 J. B. Foresman, and D. J. Fox, Gaussian, Inc., Wallingford CT, 2016.
 
 ******************************************
 Gaussian 16:  ES64L-G16RevA.03 25-Dec-2016
                16-Mar-2018 
 ******************************************
 %MEM=80GB
 %CPU=0-15
 SetSPE:  set environment variable "MP_BIND" = "yes"
 SetSPE:  set environment variable "MP_BLIST" = "0,1,2,3,4,5,6,7,8,9,10,11,12,13,14,15"
 Will use up to   16 processors via shared memory.
 %RWF=/scratch/04843/aannabe/gaussian/
 %Int=/scratch/04843/aannabe/gaussian/
 %D2E=/scratch/04843/aannabe/gaussian/
 %NoSave
 %CHK=Cr
 ----------------------------------------------------------------------
 #P ROCCSD(T)=(maxcyc=150, Full)/Gen 5d 7f SCF=(maxcycles=200,NoVarAcc,
  VShift=300) MaxDisk=100GB Pop=Regular Pseudo=Read Guess=Read IOp(5/15
 =2)
 ----------------------------------------------------------------------
 1/38=1,172=1/1;
 2/12=2,17=6,18=5,40=1/2;
 3/5=7,8=11,11=2,16=1,17=8,25=1,30=1,116=101/1,2,3;
 4/5=1/1;
 5/5=2,7=200,10=300,15=2,38=6/2;
 8/5=-1,6=4,9=120000,10=90/1,4;
 9/5=7,6=150,14=2/13;
 6//1;
 99/5=1,9=1/99;
 Leave Link    1 at Fri Mar 16 16:06:10 2018, MaxMem= 10737418240 cpu:               0.8 elap:               0.1
 (Enter /home1/apps/gaussian/16rA.03/g16/l101.exe)
 --
 Cr
 --
 Symbolic Z-matrix:
 Charge =  0 Multiplicity = 7
 Cr                    0.        0.        0. 
 
 ITRead=  0
 MicOpt= -1
 NAtoms=      1 NQM=        1 NQMF=       0 NMMI=      0 NMMIF=      0
                NMic=       0 NMicF=      0.
                    Isotopes and Nuclear Properties:
 (Nuclear quadrupole moments (NQMom) in fm**2, nuclear magnetic moments (NMagM)
  in nuclear magnetons)

  Atom         1
 IAtWgt=          52
 AtmWgt=  51.9405097
 NucSpn=           0
 AtZEff=  -0.0000000
 NQMom=    0.0000000
 NMagM=    0.0000000
 AtZNuc=  24.0000000
 Leave Link  101 at Fri Mar 16 16:06:10 2018, MaxMem= 10737418240 cpu:               1.3 elap:               0.1
 (Enter /home1/apps/gaussian/16rA.03/g16/l202.exe)
                          Input orientation:                          
 ---------------------------------------------------------------------
 Center     Atomic      Atomic             Coordinates (Angstroms)
 Number     Number       Type             X           Y           Z
 ---------------------------------------------------------------------
      1         24           0        0.000000    0.000000    0.000000
 ---------------------------------------------------------------------
 Stoichiometry    Cr(7)
 Framework group  OH[O(Cr)]
 Deg. of freedom     0
 Full point group                 OH      NOp  48
 Largest Abelian subgroup         D2H     NOp   8
 Largest concise Abelian subgroup C1      NOp   1
                         Standard orientation:                         
 ---------------------------------------------------------------------
 Center     Atomic      Atomic             Coordinates (Angstroms)
 Number     Number       Type             X           Y           Z
 ---------------------------------------------------------------------
      1         24           0        0.000000    0.000000    0.000000
 ---------------------------------------------------------------------
 Leave Link  202 at Fri Mar 16 16:06:10 2018, MaxMem= 10737418240 cpu:               0.5 elap:               0.1
 (Enter /home1/apps/gaussian/16rA.03/g16/l301.exe)
 General basis read from cards:  (5D, 7F)
 Centers:       1
 S 1 1.00
     Exponent=  1.1016640000D+07 Coefficients=  1.0000000000D+00
 S 1 1.00
     Exponent=  1.6494230000D+06 Coefficients=  1.0000000000D+00
 S 1 1.00
     Exponent=  3.7535890000D+05 Coefficients=  1.0000000000D+00
 S 1 1.00
     Exponent=  1.0632360000D+05 Coefficients=  1.0000000000D+00
 S 1 1.00
     Exponent=  3.4689760000D+04 Coefficients=  1.0000000000D+00
 S 1 1.00
     Exponent=  1.2524830000D+04 Coefficients=  1.0000000000D+00
 S 1 1.00
     Exponent=  4.8857520000D+03 Coefficients=  1.0000000000D+00
 S 1 1.00
     Exponent=  2.0269180000D+03 Coefficients=  1.0000000000D+00
 S 1 1.00
     Exponent=  8.8436450000D+02 Coefficients=  1.0000000000D+00
 S 1 1.00
     Exponent=  4.0231700000D+02 Coefficients=  1.0000000000D+00
 S 1 1.00
     Exponent=  1.8952710000D+02 Coefficients=  1.0000000000D+00
 S 1 1.00
     Exponent=  9.1860950000D+01 Coefficients=  1.0000000000D+00
 S 1 1.00
     Exponent=  4.5124760000D+01 Coefficients=  1.0000000000D+00
 S 1 1.00
     Exponent=  2.0625120000D+01 Coefficients=  1.0000000000D+00
 S 1 1.00
     Exponent=  1.0319730000D+01 Coefficients=  1.0000000000D+00
 S 1 1.00
     Exponent=  5.1577230000D+00 Coefficients=  1.0000000000D+00
 S 1 1.00
     Exponent=  2.3126280000D+00 Coefficients=  1.0000000000D+00
 S 1 1.00
     Exponent=  1.1030790000D+00 Coefficients=  1.0000000000D+00
 S 1 1.00
     Exponent=  4.9804200000D-01 Coefficients=  1.0000000000D+00
 S 1 1.00
     Exponent=  1.1824700000D-01 Coefficients=  1.0000000000D+00
 S 1 1.00
     Exponent=  5.7356000000D-02 Coefficients=  1.0000000000D+00
 S 1 1.00
     Exponent=  2.5760000000D-02 Coefficients=  1.0000000000D+00
 S 1 1.00
     Exponent=  4.7991000000D+00 Coefficients=  1.0000000000D+00
 S 1 1.00
     Exponent=  1.4287000000D+00 Coefficients=  1.0000000000D+00
 S 1 1.00
     Exponent=  1.1570000000D-02 Coefficients=  1.0000000000D+00
 P 1 1.00
     Exponent=  3.1539890000D+04 Coefficients=  1.0000000000D+00
 P 1 1.00
     Exponent=  7.4602340000D+03 Coefficients=  1.0000000000D+00
 P 1 1.00
     Exponent=  2.4226220000D+03 Coefficients=  1.0000000000D+00
 P 1 1.00
     Exponent=  9.2775470000D+02 Coefficients=  1.0000000000D+00
 P 1 1.00
     Exponent=  3.9480410000D+02 Coefficients=  1.0000000000D+00
 P 1 1.00
     Exponent=  1.8080270000D+02 Coefficients=  1.0000000000D+00
 P 1 1.00
     Exponent=  8.7423930000D+01 Coefficients=  1.0000000000D+00
 P 1 1.00
     Exponent=  4.4034270000D+01 Coefficients=  1.0000000000D+00
 P 1 1.00
     Exponent=  2.2777040000D+01 Coefficients=  1.0000000000D+00
 P 1 1.00
     Exponent=  1.2015470000D+01 Coefficients=  1.0000000000D+00
 P 1 1.00
     Exponent=  6.4117510000D+00 Coefficients=  1.0000000000D+00
 P 1 1.00
     Exponent=  3.3811360000D+00 Coefficients=  1.0000000000D+00
 P 1 1.00
     Exponent=  1.7470540000D+00 Coefficients=  1.0000000000D+00
 P 1 1.00
     Exponent=  8.8500400000D-01 Coefficients=  1.0000000000D+00
 P 1 1.00
     Exponent=  4.3302800000D-01 Coefficients=  1.0000000000D+00
 P 1 1.00
     Exponent=  1.7396200000D-01 Coefficients=  1.0000000000D+00
 P 1 1.00
     Exponent=  7.2823000000D-02 Coefficients=  1.0000000000D+00
 P 1 1.00
     Exponent=  2.9952000000D-02 Coefficients=  1.0000000000D+00
 P 1 1.00
     Exponent=  6.4552000000D+00 Coefficients=  1.0000000000D+00
 P 1 1.00
     Exponent=  1.6531000000D+00 Coefficients=  1.0000000000D+00
 P 1 1.00
     Exponent=  1.2320000000D-02 Coefficients=  1.0000000000D+00
 D 1 1.00
     Exponent=  2.8131200000D+02 Coefficients=  1.0000000000D+00
 D 1 1.00
     Exponent=  8.3188500000D+01 Coefficients=  1.0000000000D+00
 D 1 1.00
     Exponent=  3.1839600000D+01 Coefficients=  1.0000000000D+00
 D 1 1.00
     Exponent=  1.3602600000D+01 Coefficients=  1.0000000000D+00
 D 1 1.00
     Exponent=  6.1829800000D+00 Coefficients=  1.0000000000D+00
 D 1 1.00
     Exponent=  2.9227000000D+00 Coefficients=  1.0000000000D+00
 D 1 1.00
     Exponent=  1.3821600000D+00 Coefficients=  1.0000000000D+00
 D 1 1.00
     Exponent=  6.3946000000D-01 Coefficients=  1.0000000000D+00
 D 1 1.00
     Exponent=  2.8489800000D-01 Coefficients=  1.0000000000D+00
 D 1 1.00
     Exponent=  1.2004500000D-01 Coefficients=  1.0000000000D+00
 D 1 1.00
     Exponent=  4.6229000000D-02 Coefficients=  1.0000000000D+00
 D 1 1.00
     Exponent=  4.0848000000D+00 Coefficients=  1.0000000000D+00
 D 1 1.00
     Exponent=  2.1405000000D+00 Coefficients=  1.0000000000D+00
 D 1 1.00
     Exponent=  1.7800000000D-02 Coefficients=  1.0000000000D+00
 F 1 1.00
     Exponent=  5.6633000000D+00 Coefficients=  1.0000000000D+00
 F 1 1.00
     Exponent=  2.3365000000D+00 Coefficients=  1.0000000000D+00
 F 1 1.00
     Exponent=  9.6390000000D-01 Coefficients=  1.0000000000D+00
 F 1 1.00
     Exponent=  3.1420000000D-01 Coefficients=  1.0000000000D+00
 F 1 1.00
     Exponent=  1.0242000000D-01 Coefficients=  1.0000000000D+00
 G 1 1.00
     Exponent=  4.6690000000D+00 Coefficients=  1.0000000000D+00
 G 1 1.00
     Exponent=  1.9538000000D+00 Coefficients=  1.0000000000D+00
 G 1 1.00
     Exponent=  6.8480000000D-01 Coefficients=  1.0000000000D+00
 G 1 1.00
     Exponent=  2.4002000000D-01 Coefficients=  1.0000000000D+00
 H 1 1.00
     Exponent=  4.4133000000D+00 Coefficients=  1.0000000000D+00
 H 1 1.00
     Exponent=  1.6472000000D+00 Coefficients=  1.0000000000D+00
 H 1 1.00
     Exponent=  6.1479000000D-01 Coefficients=  1.0000000000D+00
 ****
 ======================================================================================================
                                       Pseudopotential Parameters
 ======================================================================================================
  Center     Atomic      Valence      Angular      Power
  Number     Number     Electrons     Momentum     of R      Exponent        Coefficient   SO-Coeffient
 ======================================================================================================
    1         24           14
                                      D and up 
                                                     1       19.2822088       14.00000000    0.00000000
                                                     3       19.2569493      269.95092282    0.00000000
                                                     2       18.1084962     -128.14516213    0.00000000
                                                     2        4.8696963       -0.96487603    0.00000000
                                      S - D
                                                     2       16.5097022      220.07964346    0.00000000
                                                     2        7.5352522       27.85080007    0.00000000
                                      P - D
                                                     2       16.2887936      143.86508380    0.00000000
                                                     2        7.8229543       20.54724750    0.00000000
 ======================================================================================================
 Ernie: Thresh=  0.10000D-02 Tol=  0.10000D-05 Strict=F.
 There are    91 symmetry adapted cartesian basis functions of AG  symmetry.
 There are    26 symmetry adapted cartesian basis functions of B1G symmetry.
 There are    26 symmetry adapted cartesian basis functions of B2G symmetry.
 There are    26 symmetry adapted cartesian basis functions of B3G symmetry.
 There are    14 symmetry adapted cartesian basis functions of AU  symmetry.
 There are    54 symmetry adapted cartesian basis functions of B1U symmetry.
 There are    54 symmetry adapted cartesian basis functions of B2U symmetry.
 There are    54 symmetry adapted cartesian basis functions of B3U symmetry.
 There are    65 symmetry adapted basis functions of AG  symmetry.
 There are    22 symmetry adapted basis functions of B1G symmetry.
 There are    22 symmetry adapted basis functions of B2G symmetry.
 There are    22 symmetry adapted basis functions of B3G symmetry.
 There are    11 symmetry adapted basis functions of AU  symmetry.
 There are    40 symmetry adapted basis functions of B1U symmetry.
 There are    40 symmetry adapted basis functions of B2U symmetry.
 There are    40 symmetry adapted basis functions of B3U symmetry.
   262 basis functions,   345 primitive gaussians,   345 cartesian basis functions
    10 alpha electrons        4 beta electrons
       nuclear repulsion energy         0.0000000000 Hartrees.
 IExCor=    0 DFT=F Ex=HF Corr=None ExCW=0 ScaHFX=  1.000000
 ScaDFX=  1.000000  1.000000  1.000000  1.000000 ScalE2=  1.000000  1.000000
 IRadAn=      5 IRanWt=     -1 IRanGd=            0 ICorTp=0 IEmpDi=  4
 NAtoms=    1 NActive=    1 NUniq=    1 SFac= 1.00D+00 NAtFMM=   60 NAOKFM=F Big=F
 Integral buffers will be    131072 words long.
 Raffenetti 2 integral format.
 Two-electron integral symmetry is turned on.
 Leave Link  301 at Fri Mar 16 16:06:10 2018, MaxMem= 10737418240 cpu:               1.7 elap:               0.1
 (Enter /home1/apps/gaussian/16rA.03/g16/l302.exe)
 NPDir=0 NMtPBC=     1 NCelOv=     1 NCel=       1 NClECP=     1 NCelD=      1
         NCelK=      1 NCelE2=     1 NClLst=     1 CellRange=     0.0.
 One-electron integrals computed using PRISM.
 One-electron integral symmetry used in STVInt
  48 Symmetry operations used in ECPInt.
 ECPInt:  NShTT=    2628 NPrTT=    2628 LenC2=    2629 LenP2D=    2628.
 LDataN:  DoStor=T MaxTD1=10 Len=  848
 NBasis=   262 RedAO= T EigKep=  1.67D-06  NBF=    65    22    22    22    11    40    40    40
 NBsUse=   258 1.00D-06 EigRej=  3.90D-07 NBFU=    64    22    22    22    11    39    39    39
 Leave Link  302 at Fri Mar 16 16:06:11 2018, MaxMem= 10737418240 cpu:              12.6 elap:               0.8
 (Enter /home1/apps/gaussian/16rA.03/g16/l303.exe)
 DipDrv:  MaxL=1.
 Leave Link  303 at Fri Mar 16 16:06:11 2018, MaxMem= 10737418240 cpu:               0.9 elap:               0.1
 (Enter /home1/apps/gaussian/16rA.03/g16/l401.exe)
 Initial guess from the checkpoint file:  "Cr.chk"
 B after Tr=     0.000000    0.000000    0.000000
         Rot=    1.000000    0.000000    0.000000    0.000000 Ang=   0.00 deg.
 Guess basis will be translated and rotated to current coordinates.
 JPrj=2 DoOrth=T DoCkMO=T.
 Initial guess orbital symmetries:
       Occupied  (A1G) (T1U) (T1U) (T1U) (A1G) (EG) (T2G) (T2G)
                 (T2G) (EG)
       Virtual   (T1U) (T1U) (T1U) (A1G) (T1U) (T1U) (T1U) (T2G)
                 (EG) (EG) (T2G) (T2G) (A1G) (T1U) (T1U) (T1U)
                 (EG) (EG) (T2G) (T2G) (T2G) (A2U) (?A) (?A) (?A)
                 (?A) (?A) (?A) (T1U) (T1U) (T1U) (EG) (T2G) (EG)
                 (T2G) (T2G) (A1G) (?A) (?A) (?A) (A2U) (?A) (?A)
                 (?A) (?B) (?B) (?B) (T2G) (T2G) (?B) (?B) (T2G)
                 (?B) (T1U) (T1U) (T1U) (EG) (EG) (T2G) (T2G) (T2G)
                 (?A) (?A) (?A) (?A) (?A) (?A) (A2U) (A1G) (T1U)
                 (T1U) (T1U) (?B) (T2G) (?B) (?B) (T2G) (?B) (?B)
                 (T2G) (?B) (EG) (T2G) (T2G) (T2G) (EG) (?A) (?A)
                 (?A) (A2U) (?A) (?A) (?A) (T1U) (T1U) (T1U) (A1G)
                 (T2G) (EG) (EG) (T2G) (T2G) (?B) (T2G) (?B) (?B)
                 (T2G) (?B) (T2G) (?B) (?B) (T1U) (T1U) (T1U) (T2G)
                 (EG) (T2G) (EG) (T2G) (A1G) (T1U) (T1U) (T1U)
                 (A1G) (T2G) (EG) (T2G) (T2G) (EG) (T1U) (T1U)
                 (T1U) (A1G) (T1U) (T1U) (T1U) (A1G) (T2G) (EG)
                 (EG) (T2G) (T2G) (T1U) (T1U) (T1U) (A1G) (T1U)
                 (T1U) (T1U) (A1G) (T1U) (T1U) (T1U) (A1G) (A1G)
                 (T1U) (T1U) (T1U) (A1G) (T1U) (T1U) (T1U) (A1G)
                 (T1U) (T1U) (T1U) (A1G) (A1G) (A1G) (A1G) (A1G)
                 (EG) (EG) (EG) (EG) (T2G) (T2G) (T2G) (EG) (EG)
                 (A1G) (EG) (EG) (A1G) (T2G) (T2G) (?B) (?B) (T2G)
                 (T2G) (T2G) (T2G) (?B) (?B) (T2G) (T2G) (T2G)
                 (T2G) (?B) (?B) (T2G) (T2G) (A2U) (EU) (EU) (EU)
                 (EU) (EU) (EU) (T1U) (?A) (?A) (?C) (?C) (?C)
                 (?D) (?D) (?D) (?E) (?E) (?E) (T1U) (T1U) (?A)
                 (?A) (?C) (?C) (?C) (?D) (?D) (?D) (?E) (?E) (?E)
                 (T1U) (T1U) (?A) (?A) (?C) (?C) (?C) (?D) (?D)
                 (?D) (?E) (?E) (?E) (T1U)
 The electronic state of the initial guess is 7-A1G.
 Leave Link  401 at Fri Mar 16 16:06:11 2018, MaxMem= 10737418240 cpu:               3.0 elap:               0.2
 (Enter /home1/apps/gaussian/16rA.03/g16/l502.exe)
 Keep R1 and R2 ints in memory in symmetry-blocked form, NReq=669233233.
 FoFCou: FMM=F IPFlag=           0 FMFlag=           0 FMFlg1=           0
         NFxFlg=           0 DoJE=F BraDBF=F KetDBF=F FulRan=T
         wScrn=  0.000000 ICntrl=       600 IOpCl=  0 I1Cent=           0 NGrid=           0
         NMat0=    1 NMatS0=  34453 NMatT0=    0 NMatD0=    1 NMtDS0=    0 NMtDT0=    0
 Petite list used in FoFCou.
 Restricted open shell SCF:
 Using DIIS extrapolation, IDIIS=  1040.
 NGot= 10737418240 LenX= 10585855578 LenY= 10585736112
 Requested convergence on RMS density matrix=1.00D-08 within 200 cycles.
 Requested convergence on MAX density matrix=1.00D-06.
 Requested convergence on             energy=1.00D-06.
 Virtual orbitals will be shifted by   0.300 hartree.
 No special actions if energy rises.

 Cycle   1  Pass 1  IDiag  1:
 Density matrix breaks symmetry, PCut= 1.00D-07
 Density has only Abelian symmetry.
 E= -86.1282454479509    
 DIIS: error= 1.13D+00 at cycle   1 NSaved=   1.
 NSaved= 1 IEnMin= 1 EnMin= -86.1282454479509     IErMin= 1 ErrMin= 1.13D+00
 ErrMax= 1.13D+00  0.00D+00 EMaxC= 1.00D-01 BMatC= 1.21D+02 BMatP= 1.21D+02
 IDIUse=3 WtCom= 0.00D+00 WtEn= 1.00D+00
 Coeff-Com:  0.100D+01
 Coeff-En:   0.100D+01
 Coeff:      0.100D+01
 Gap=    -0.010 Goal=   None    Shift=    0.300
 GapD=   -0.010 DampG=0.250 DampE=0.125 DampFc=0.1250 IDamp=-1.
 Damping current iteration by 1.25D-01
 RMSDP=2.38D-03 MaxDP=1.84D-01              OVMax= 3.87D-03

 Cycle   2  Pass 1  IDiag  1:
 Density matrix breaks symmetry, PCut= 1.00D-07
 Density has only Abelian symmetry.
 E= -86.1283192893173     Delta-E=       -0.000073841366 Rises=F Damp=T
 DIIS: error= 9.89D-01 at cycle   2 NSaved=   2.
 NSaved= 2 IEnMin= 2 EnMin= -86.1283192893173     IErMin= 2 ErrMin= 9.89D-01
 ErrMax= 9.89D-01  0.00D+00 EMaxC= 1.00D-01 BMatC= 9.26D+01 BMatP= 1.21D+02
 IDIUse=3 WtCom= 0.00D+00 WtEn= 1.00D+00
 Coeff-Com: -0.700D+01 0.800D+01
 Coeff-En:   0.000D+00 0.100D+01
 Coeff:      0.000D+00 0.100D+01
 Gap=    -0.011 Goal=   None    Shift=    0.300
 RMSDP=2.13D-03 MaxDP=1.64D-01 DE=-7.38D-05 OVMax= 7.03D-04

 Cycle   3  Pass 1  IDiag  1:
 Density matrix breaks symmetry, PCut= 1.00D-07
 Density has only Abelian symmetry.
 E= -86.1288285722234     Delta-E=       -0.000509282906 Rises=F Damp=F
 DIIS: error= 7.73D-04 at cycle   3 NSaved=   3.
 NSaved= 3 IEnMin= 3 EnMin= -86.1288285722234     IErMin= 3 ErrMin= 7.73D-04
 ErrMax= 7.73D-04  0.00D+00 EMaxC= 1.00D-01 BMatC= 3.26D-05 BMatP= 9.26D+01
 IDIUse=3 WtCom= 9.92D-01 WtEn= 7.73D-03
 Coeff-Com:  0.194D+00-0.221D+00 0.103D+01
 Coeff-En:   0.000D+00 0.000D+00 0.100D+01
 Coeff:      0.192D+00-0.220D+00 0.103D+01
 Gap=    -0.009 Goal=   None    Shift=    0.300
 RMSDP=8.46D-05 MaxDP=7.97D-03 DE=-5.09D-04 OVMax= 1.79D-03

 Cycle   4  Pass 1  IDiag  1:
 Density matrix breaks symmetry, PCut= 1.00D-07
 Density has only Abelian symmetry.
 E= -86.1288349158832     Delta-E=       -0.000006343660 Rises=F Damp=F
 DIIS: error= 4.66D-04 at cycle   4 NSaved=   4.
 NSaved= 4 IEnMin= 4 EnMin= -86.1288349158832     IErMin= 4 ErrMin= 4.66D-04
 ErrMax= 4.66D-04  0.00D+00 EMaxC= 1.00D-01 BMatC= 1.15D-05 BMatP= 3.26D-05
 IDIUse=3 WtCom= 9.95D-01 WtEn= 4.66D-03
 Coeff-Com: -0.151D-01 0.173D-01 0.366D+00 0.632D+00
 Coeff-En:   0.000D+00 0.000D+00 0.377D+00 0.623D+00
 Coeff:     -0.150D-01 0.172D-01 0.366D+00 0.632D+00
 Gap=    -0.010 Goal=   None    Shift=    0.300
 DSYEVD-2 returned Info=          79 IAlg= 4 N=    39 NDim=   258 NE2=    41029983 trying  DSYEV.
 RMSDP=1.00D-05 MaxDP=1.70D-03 DE=-6.34D-06 OVMax= 4.47D-04

 Cycle   5  Pass 1  IDiag  1:
 Density matrix breaks symmetry, PCut= 1.00D-07
 Density has only Abelian symmetry.
 E= -86.1288387113148     Delta-E=       -0.000003795432 Rises=F Damp=F
 DIIS: error= 8.27D-05 at cycle   5 NSaved=   5.
 NSaved= 5 IEnMin= 5 EnMin= -86.1288387113148     IErMin= 5 ErrMin= 8.27D-05
 ErrMax= 8.27D-05  0.00D+00 EMaxC= 1.00D-01 BMatC= 3.41D-07 BMatP= 1.15D-05
 IDIUse=1 WtCom= 1.00D+00 WtEn= 0.00D+00
 Coeff-Com:  0.335D-01-0.383D-01 0.329D-01-0.112D+00 0.108D+01
 Coeff:      0.335D-01-0.383D-01 0.329D-01-0.112D+00 0.108D+01
 Gap=    -0.010 Goal=   None    Shift=    0.300
 RMSDP=4.15D-06 MaxDP=8.30D-04 DE=-3.80D-06 OVMax= 2.54D-04

 Cycle   6  Pass 1  IDiag  1:
 E= -86.1288390250939     Delta-E=       -0.000000313779 Rises=F Damp=F
 DIIS: error= 1.63D-05 at cycle   6 NSaved=   6.
 NSaved= 6 IEnMin= 6 EnMin= -86.1288390250939     IErMin= 6 ErrMin= 1.63D-05
 ErrMax= 1.63D-05  0.00D+00 EMaxC= 1.00D-01 BMatC= 4.46D-08 BMatP= 3.41D-07
 IDIUse=1 WtCom= 1.00D+00 WtEn= 0.00D+00
 Coeff-Com:  0.433D-01-0.494D-01 0.117D-02 0.607D-01-0.239D+00 0.118D+01
 Coeff:      0.433D-01-0.494D-01 0.117D-02 0.607D-01-0.239D+00 0.118D+01
 Gap=    -0.010 Goal=   None    Shift=    0.300
 RMSDP=2.04D-06 MaxDP=3.44D-04 DE=-3.14D-07 OVMax= 1.05D-04

 Cycle   7  Pass 1  IDiag  1:
 E= -86.1288390465859     Delta-E=       -0.000000021492 Rises=F Damp=F
 DIIS: error= 1.51D-05 at cycle   7 NSaved=   7.
 NSaved= 7 IEnMin= 7 EnMin= -86.1288390465859     IErMin= 7 ErrMin= 1.51D-05
 ErrMax= 1.51D-05  0.00D+00 EMaxC= 1.00D-01 BMatC= 2.20D-08 BMatP= 4.46D-08
 IDIUse=1 WtCom= 1.00D+00 WtEn= 0.00D+00
 Coeff-Com:  0.387D-01-0.442D-01 0.115D-01-0.176D-01 0.357D-01-0.679D+00
 Coeff-Com:  0.166D+01
 Coeff:      0.387D-01-0.442D-01 0.115D-01-0.176D-01 0.357D-01-0.679D+00
 Coeff:      0.166D+01
 Gap=    -0.010 Goal=   None    Shift=    0.300
 RMSDP=6.40D-07 MaxDP=9.46D-05 DE=-2.15D-08 OVMax= 6.83D-05

 Cycle   8  Pass 1  IDiag  1:
 E= -86.1288390499906     Delta-E=       -0.000000003405 Rises=F Damp=F
 DIIS: error= 1.50D-05 at cycle   8 NSaved=   8.
 NSaved= 8 IEnMin= 8 EnMin= -86.1288390499906     IErMin= 8 ErrMin= 1.50D-05
 ErrMax= 1.50D-05  0.00D+00 EMaxC= 1.00D-01 BMatC= 2.03D-08 BMatP= 2.20D-08
 IDIUse=1 WtCom= 1.00D+00 WtEn= 0.00D+00
 Coeff-Com:  0.398D-01-0.455D-01 0.697D-02-0.591D-02-0.142D-01-0.113D+00
 Coeff-Com: -0.363D+00 0.150D+01
 Coeff:      0.398D-01-0.455D-01 0.697D-02-0.591D-02-0.142D-01-0.113D+00
 Coeff:     -0.363D+00 0.150D+01
 Gap=    -0.010 Goal=   None    Shift=    0.300
 RMSDP=4.54D-07 MaxDP=7.98D-05 DE=-3.40D-09 OVMax= 4.41D-05

 Cycle   9  Pass 1  IDiag  1:
 E= -86.1288390535870     Delta-E=       -0.000000003596 Rises=F Damp=F
 DIIS: error= 1.47D-05 at cycle   9 NSaved=   9.
 NSaved= 9 IEnMin= 9 EnMin= -86.1288390535870     IErMin= 9 ErrMin= 1.47D-05
 ErrMax= 1.47D-05  0.00D+00 EMaxC= 1.00D-01 BMatC= 1.95D-08 BMatP= 2.03D-08
 IDIUse=1 WtCom= 1.00D+00 WtEn= 0.00D+00
 Coeff-Com:  0.394D-01-0.450D-01 0.675D-02 0.763D-02-0.355D-01 0.224D+00
 Coeff-Com: -0.611D+00-0.612D+00 0.203D+01
 Coeff:      0.394D-01-0.450D-01 0.675D-02 0.763D-02-0.355D-01 0.224D+00
 Coeff:     -0.611D+00-0.612D+00 0.203D+01
 Gap=    -0.010 Goal=   None    Shift=    0.300
 RMSDP=2.70D-07 MaxDP=5.11D-05 DE=-3.60D-09 OVMax= 2.72D-05

 Cycle  10  Pass 1  IDiag  1:
 E= -86.1288390545408     Delta-E=       -0.000000000954 Rises=F Damp=F
 DIIS: error= 1.45D-05 at cycle  10 NSaved=  10.
 NSaved=10 IEnMin=10 EnMin= -86.1288390545408     IErMin=10 ErrMin= 1.45D-05
 ErrMax= 1.45D-05  0.00D+00 EMaxC= 1.00D-01 BMatC= 1.92D-08 BMatP= 1.95D-08
 IDIUse=1 WtCom= 1.00D+00 WtEn= 0.00D+00
 Coeff-Com:  0.385D-01-0.440D-01 0.825D-02-0.203D-02 0.210D-01-0.129D+00
 Coeff-Com:  0.509D+00-0.633D+00-0.142D+01 0.265D+01
 Coeff:      0.385D-01-0.440D-01 0.825D-02-0.203D-02 0.210D-01-0.129D+00
 Coeff:      0.509D+00-0.633D+00-0.142D+01 0.265D+01
 Gap=    -0.010 Goal=   None    Shift=    0.300
 RMSDP=1.57D-07 MaxDP=3.39D-05 DE=-9.54D-10 OVMax= 1.67D-05

 Cycle  11  Pass 1  IDiag  1:
 E= -86.1288390557661     Delta-E=       -0.000000001225 Rises=F Damp=F
 DIIS: error= 1.42D-05 at cycle  11 NSaved=  11.
 NSaved=11 IEnMin=11 EnMin= -86.1288390557661     IErMin=11 ErrMin= 1.42D-05
 ErrMax= 1.42D-05  0.00D+00 EMaxC= 1.00D-01 BMatC= 1.86D-08 BMatP= 1.92D-08
 IDIUse=1 WtCom= 1.00D+00 WtEn= 0.00D+00
 Coeff-Com:  0.367D-01-0.420D-01 0.724D-02 0.322D-02-0.161D-01 0.344D-01
 Coeff-Com: -0.898D-01-0.415D+00 0.249D+01-0.543D+01 0.442D+01
 Coeff:      0.367D-01-0.420D-01 0.724D-02 0.322D-02-0.161D-01 0.344D-01
 Coeff:     -0.898D-01-0.415D+00 0.249D+01-0.543D+01 0.442D+01
 Gap=    -0.010 Goal=   None    Shift=    0.300
 RMSDP=1.26D-07 MaxDP=2.21D-05 DE=-1.23D-09 OVMax= 9.45D-06

 Cycle  12  Pass 1  IDiag  1:
 Density matrix breaks symmetry, PCut= 1.00D-07
 Density has only Abelian symmetry.
 E= -86.1288390574132     Delta-E=       -0.000000001647 Rises=F Damp=F
 DIIS: error= 1.38D-05 at cycle  12 NSaved=  12.
 NSaved=12 IEnMin=12 EnMin= -86.1288390574132     IErMin=12 ErrMin= 1.38D-05
 ErrMax= 1.38D-05  0.00D+00 EMaxC= 1.00D-01 BMatC= 1.76D-08 BMatP= 1.86D-08
 IDIUse=1 WtCom= 1.00D+00 WtEn= 0.00D+00
 Coeff-Com:  0.365D-01-0.417D-01 0.722D-02 0.315D-02-0.160D-01 0.297D-01
 Coeff-Com: -0.634D-01-0.459D+00 0.244D+01-0.502D+01 0.371D+01 0.381D+00
 Coeff:      0.365D-01-0.417D-01 0.722D-02 0.315D-02-0.160D-01 0.297D-01
 Coeff:     -0.634D-01-0.459D+00 0.244D+01-0.502D+01 0.371D+01 0.381D+00
 Gap=    -0.010 Goal=   None    Shift=    0.300
 RMSDP=6.78D-08 MaxDP=1.52D-05 DE=-1.65D-09 OVMax= 6.40D-06

 Cycle  13  Pass 1  IDiag  1:
 Density matrix breaks symmetry, PCut= 1.00D-07
 Density has only Abelian symmetry.
 E= -86.1288390584712     Delta-E=       -0.000000001058 Rises=F Damp=F
 DIIS: error= 1.35D-05 at cycle  13 NSaved=  13.
 NSaved=13 IEnMin=13 EnMin= -86.1288390584712     IErMin=13 ErrMin= 1.35D-05
 ErrMax= 1.35D-05  0.00D+00 EMaxC= 1.00D-01 BMatC= 1.70D-08 BMatP= 1.76D-08
 IDIUse=1 WtCom= 1.00D+00 WtEn= 0.00D+00
 Coeff-Com:  0.361D-01-0.412D-01 0.737D-02 0.336D-02-0.120D-01 0.253D-01
 Coeff-Com:  0.100D-01-0.560D+00 0.185D+01-0.307D+01 0.279D+01-0.248D+01
 Coeff-Com:  0.243D+01
 Coeff:      0.361D-01-0.412D-01 0.737D-02 0.336D-02-0.120D-01 0.253D-01
 Coeff:      0.100D-01-0.560D+00 0.185D+01-0.307D+01 0.279D+01-0.248D+01
 Coeff:      0.243D+01
 Gap=    -0.010 Goal=   None    Shift=    0.300
 RMSDP=4.30D-08 MaxDP=8.36D-06 DE=-1.06D-09 OVMax= 4.20D-06

 Cycle  14  Pass 1  IDiag  1:
 Density matrix breaks symmetry, PCut= 1.00D-07
 Density has only Abelian symmetry.
 E= -86.1288390593170     Delta-E=       -0.000000000846 Rises=F Damp=F
 DIIS: error= 1.33D-05 at cycle  14 NSaved=  14.
 NSaved=14 IEnMin=14 EnMin= -86.1288390593170     IErMin=14 ErrMin= 1.33D-05
 ErrMax= 1.33D-05  0.00D+00 EMaxC= 1.00D-01 BMatC= 1.66D-08 BMatP= 1.70D-08
 IDIUse=1 WtCom= 1.00D+00 WtEn= 0.00D+00
 Coeff-Com:  0.358D-01-0.409D-01 0.729D-02 0.308D-02-0.103D-01 0.189D-01
 Coeff-Com:  0.335D-01-0.576D+00 0.170D+01-0.257D+01 0.224D+01-0.149D+01
 Coeff-Com:  0.138D+00 0.151D+01
 Coeff:      0.358D-01-0.409D-01 0.729D-02 0.308D-02-0.103D-01 0.189D-01
 Coeff:      0.335D-01-0.576D+00 0.170D+01-0.257D+01 0.224D+01-0.149D+01
 Coeff:      0.138D+00 0.151D+01
 Gap=    -0.010 Goal=   None    Shift=    0.300
 RMSDP=3.05D-08 MaxDP=3.73D-06 DE=-8.46D-10 OVMax= 2.94D-06

 Cycle  15  Pass 1  IDiag  1:
 Density matrix breaks symmetry, PCut= 1.00D-07
 Density has only Abelian symmetry.
 E= -86.1288390600228     Delta-E=       -0.000000000706 Rises=F Damp=F
 DIIS: error= 1.31D-05 at cycle  15 NSaved=  15.
 NSaved=15 IEnMin=15 EnMin= -86.1288390600228     IErMin=15 ErrMin= 1.31D-05
 ErrMax= 1.31D-05  0.00D+00 EMaxC= 1.00D-01 BMatC= 1.62D-08 BMatP= 1.66D-08
 IDIUse=1 WtCom= 1.00D+00 WtEn= 0.00D+00
 Coeff-Com:  0.354D-01-0.405D-01 0.717D-02 0.269D-02-0.803D-02 0.133D-01
 Coeff-Com:  0.469D-01-0.569D+00 0.154D+01-0.219D+01 0.185D+01-0.207D+00
 Coeff-Com: -0.123D+01-0.456D+00 0.220D+01
 Coeff:      0.354D-01-0.405D-01 0.717D-02 0.269D-02-0.803D-02 0.133D-01
 Coeff:      0.469D-01-0.569D+00 0.154D+01-0.219D+01 0.185D+01-0.207D+00
 Coeff:     -0.123D+01-0.456D+00 0.220D+01
 Gap=    -0.010 Goal=   None    Shift=    0.300
 RMSDP=2.85D-08 MaxDP=1.83D-06 DE=-7.06D-10 OVMax= 1.96D-06

 Cycle  16  Pass 1  IDiag  1:
 Density matrix breaks symmetry, PCut= 1.00D-07
 Density has only Abelian symmetry.
 E= -86.1288390606866     Delta-E=       -0.000000000664 Rises=F Damp=F
 DIIS: error= 1.30D-05 at cycle  16 NSaved=  16.
 NSaved=16 IEnMin=16 EnMin= -86.1288390606866     IErMin=16 ErrMin= 1.30D-05
 ErrMax= 1.30D-05  0.00D+00 EMaxC= 1.00D-01 BMatC= 1.59D-08 BMatP= 1.62D-08
 IDIUse=1 WtCom= 1.00D+00 WtEn= 0.00D+00
 Large coefficients: NSaved= 16 BigCof=    0.00 CofMax=   10.00 Det=-2.03D-15
 Inversion failed.  Reducing to 15 matrices.
 Large coefficients: NSaved= 15 BigCof=  157.71 CofMax=   10.00 Det=-3.21D-15
 Inversion failed.  Reducing to 14 matrices.
 Large coefficients: NSaved= 14 BigCof=  157.70 CofMax=   10.00 Det=-3.21D-15
 Inversion failed.  Reducing to 13 matrices.
 Large coefficients: NSaved= 13 BigCof=  153.35 CofMax=   10.00 Det=-3.30D-15
 Inversion failed.  Reducing to 12 matrices.
 Large coefficients: NSaved= 12 BigCof=  167.43 CofMax=   10.00 Det=-3.65D-15
 Inversion failed.  Reducing to 11 matrices.
 Large coefficients: NSaved= 11 BigCof=  173.47 CofMax=   10.00 Det=-4.07D-15
 Inversion failed.  Reducing to 10 matrices.
 Large coefficients: NSaved= 10 BigCof=  169.07 CofMax=   10.00 Det=-4.27D-15
 Inversion failed.  Reducing to  9 matrices.
 Large coefficients: NSaved=  9 BigCof=  128.08 CofMax=   10.00 Det=-4.81D-15
 Inversion failed.  Reducing to  8 matrices.
 Large coefficients: NSaved=  8 BigCof=  150.74 CofMax=   10.00 Det=-4.95D-15
 Inversion failed.  Reducing to  7 matrices.
 Large coefficients: NSaved=  7 BigCof=  150.28 CofMax=   10.00 Det=-4.96D-15
 Inversion failed.  Reducing to  6 matrices.
 Large coefficients: NSaved=  6 BigCof=  203.12 CofMax=   10.00 Det=-9.07D-15
 Inversion failed.  Reducing to  5 matrices.
 Large coefficients: NSaved=  5 BigCof=  208.52 CofMax=   10.00 Det=-1.27D-14
 Inversion failed.  Reducing to  4 matrices.
 Large coefficients: NSaved=  4 BigCof=  231.92 CofMax=   10.00 Det=-1.75D-14
 Inversion failed.  Reducing to  3 matrices.
 Large coefficients: NSaved=  3 BigCof=  285.83 CofMax=   10.00 Det=-1.96D-14
 Inversion failed.  Reducing to  2 matrices.
 Large coefficients: NSaved=  2 BigCof=   80.32 CofMax=   10.00 Det=-2.25D-12
 Coeff-Com: -0.793D+02 0.803D+02
 Coeff:     -0.793D+02 0.803D+02
 Gap=    -0.010 Goal=   None    Shift=    0.300
 RMSDP=1.79D-06 MaxDP=2.00D-04 DE=-6.64D-10 OVMax= 4.55D-05

 Cycle  17  Pass 1  IDiag  1:
 Density matrix breaks symmetry, PCut= 1.00D-07
 Density has only Abelian symmetry.
 E= -86.1288390780292     Delta-E=       -0.000000017343 Rises=F Damp=F
 DIIS: error= 7.97D-06 at cycle  17 NSaved=   3.
 NSaved= 3 IEnMin= 3 EnMin= -86.1288390780292     IErMin= 3 ErrMin= 7.97D-06
 ErrMax= 7.97D-06  0.00D+00 EMaxC= 1.00D-01 BMatC= 5.58D-09 BMatP= 1.59D-08
 IDIUse=1 WtCom= 1.00D+00 WtEn= 0.00D+00
 Large coefficients: NSaved=  3 BigCof=   60.90 CofMax=   10.00 Det=-1.20D-12
 Inversion failed.  Reducing to  2 matrices.
 Coeff-Com: -0.222D+00 0.122D+01
 Coeff:     -0.222D+00 0.122D+01
 Gap=    -0.010 Goal=   None    Shift=    0.300
 RMSDP=1.11D-06 MaxDP=8.15D-05 DE=-1.73D-08 OVMax= 6.96D-05

 Cycle  18  Pass 1  IDiag  1:
 Density matrix breaks symmetry, PCut= 1.00D-07
 Density has only Abelian symmetry.
 E= -86.1288390890765     Delta-E=       -0.000000011047 Rises=F Damp=F
 DIIS: error= 5.39D-06 at cycle  18 NSaved=   3.
 NSaved= 3 IEnMin= 3 EnMin= -86.1288390890765     IErMin= 3 ErrMin= 5.39D-06
 ErrMax= 5.39D-06  0.00D+00 EMaxC= 1.00D-01 BMatC= 1.33D-09 BMatP= 5.58D-09
 IDIUse=1 WtCom= 1.00D+00 WtEn= 0.00D+00
 Coeff-Com: -0.310D+00 0.508D+00 0.802D+00
 Coeff:     -0.310D+00 0.508D+00 0.802D+00
 Gap=    -0.010 Goal=   None    Shift=    0.300
 RMSDP=2.80D-07 MaxDP=4.46D-05 DE=-1.10D-08 OVMax= 1.17D-05

 Cycle  19  Pass 1  IDiag  1:
 Density matrix breaks symmetry, PCut= 1.00D-07
 Density has only Abelian symmetry.
 E= -86.1288390895913     Delta-E=       -0.000000000515 Rises=F Damp=F
 DIIS: error= 1.27D-06 at cycle  19 NSaved=   4.
 NSaved= 4 IEnMin= 4 EnMin= -86.1288390895913     IErMin= 4 ErrMin= 1.27D-06
 ErrMax= 1.27D-06  0.00D+00 EMaxC= 1.00D-01 BMatC= 7.86D-11 BMatP= 1.33D-09
 IDIUse=1 WtCom= 1.00D+00 WtEn= 0.00D+00
 Coeff-Com: -0.612D-01 0.118D+00-0.548D-01 0.998D+00
 Coeff:     -0.612D-01 0.118D+00-0.548D-01 0.998D+00
 Gap=    -0.010 Goal=   None    Shift=    0.300
 RMSDP=1.29D-07 MaxDP=1.93D-05 DE=-5.15D-10 OVMax= 5.01D-06

 Cycle  20  Pass 1  IDiag  1:
 Density matrix breaks symmetry, PCut= 1.00D-07
 Density has only Abelian symmetry.
 E= -86.1288390896671     Delta-E=       -0.000000000076 Rises=F Damp=F
 DIIS: error= 2.06D-07 at cycle  20 NSaved=   5.
 NSaved= 5 IEnMin= 5 EnMin= -86.1288390896671     IErMin= 5 ErrMin= 2.06D-07
 ErrMax= 2.06D-07  0.00D+00 EMaxC= 1.00D-01 BMatC= 4.50D-12 BMatP= 7.86D-11
 IDIUse=1 WtCom= 1.00D+00 WtEn= 0.00D+00
 Coeff-Com: -0.156D-03 0.228D-02 0.889D-01-0.431D+00 0.134D+01
 Coeff:     -0.156D-03 0.228D-02 0.889D-01-0.431D+00 0.134D+01
 Gap=    -0.010 Goal=   None    Shift=    0.300
 RMSDP=4.66D-08 MaxDP=6.73D-06 DE=-7.58D-11 OVMax= 2.29D-06

 Cycle  21  Pass 1  IDiag  1:
 Density matrix breaks symmetry, PCut= 1.00D-07
 Density has only Abelian symmetry.
 E= -86.1288390896754     Delta-E=       -0.000000000008 Rises=F Damp=F
 DIIS: error= 1.28D-07 at cycle  21 NSaved=   6.
 NSaved= 6 IEnMin= 6 EnMin= -86.1288390896754     IErMin= 6 ErrMin= 1.28D-07
 ErrMax= 1.28D-07  0.00D+00 EMaxC= 1.00D-01 BMatC= 1.54D-12 BMatP= 4.50D-12
 IDIUse=1 WtCom= 1.00D+00 WtEn= 0.00D+00
 Coeff-Com:  0.766D-03 0.471D-02-0.720D-02-0.678D-01-0.487D+00 0.156D+01
 Coeff:      0.766D-03 0.471D-02-0.720D-02-0.678D-01-0.487D+00 0.156D+01
 Gap=    -0.010 Goal=   None    Shift=    0.300
 RMSDP=2.82D-08 MaxDP=2.55D-06 DE=-8.28D-12 OVMax= 1.44D-06

 Cycle  22  Pass 1  IDiag  1:
 Density matrix breaks symmetry, PCut= 1.00D-07
 Density has only Abelian symmetry.
 E= -86.1288390896779     Delta-E=       -0.000000000003 Rises=F Damp=F
 DIIS: error= 8.74D-08 at cycle  22 NSaved=   7.
 NSaved= 7 IEnMin= 7 EnMin= -86.1288390896779     IErMin= 7 ErrMin= 8.74D-08
 ErrMax= 8.74D-08  0.00D+00 EMaxC= 1.00D-01 BMatC= 6.94D-13 BMatP= 1.54D-12
 IDIUse=1 WtCom= 1.00D+00 WtEn= 0.00D+00
 Coeff-Com:  0.118D-03 0.621D-02-0.255D-01 0.447D-01-0.523D+00 0.321D+00
 Coeff-Com:  0.118D+01
 Coeff:      0.118D-03 0.621D-02-0.255D-01 0.447D-01-0.523D+00 0.321D+00
 Coeff:      0.118D+01
 Gap=    -0.010 Goal=   None    Shift=    0.300
 RMSDP=1.16D-08 MaxDP=1.53D-06 DE=-2.54D-12 OVMax= 6.48D-07

 Cycle  23  Pass 1  IDiag  1:
 Density matrix breaks symmetry, PCut= 1.00D-07
 Density has only Abelian symmetry.
 E= -86.1288390896788     Delta-E=       -0.000000000001 Rises=F Damp=F
 DIIS: error= 4.73D-08 at cycle  23 NSaved=   8.
 NSaved= 8 IEnMin= 8 EnMin= -86.1288390896788     IErMin= 8 ErrMin= 4.73D-08
 ErrMax= 4.73D-08  0.00D+00 EMaxC= 1.00D-01 BMatC= 3.27D-13 BMatP= 6.94D-13
 IDIUse=1 WtCom= 1.00D+00 WtEn= 0.00D+00
 Coeff-Com:  0.256D-03 0.405D-02-0.893D-02 0.107D-01-0.228D+00 0.227D+00
 Coeff-Com: -0.486D+00 0.148D+01
 Coeff:      0.256D-03 0.405D-02-0.893D-02 0.107D-01-0.228D+00 0.227D+00
 Coeff:     -0.486D+00 0.148D+01
 Gap=    -0.010 Goal=   None    Shift=    0.300
 RMSDP=8.92D-09 MaxDP=1.37D-06 DE=-8.53D-13 OVMax= 4.23D-07

 Cycle  24  Pass 1  IDiag  1:
 Density matrix breaks symmetry, PCut= 1.00D-07
 Density has only Abelian symmetry.
 E= -86.1288390896792     Delta-E=       -0.000000000000 Rises=F Damp=F
 DIIS: error= 3.08D-08 at cycle  24 NSaved=   9.
 NSaved= 9 IEnMin= 9 EnMin= -86.1288390896792     IErMin= 9 ErrMin= 3.08D-08
 ErrMax= 3.08D-08  0.00D+00 EMaxC= 1.00D-01 BMatC= 1.67D-13 BMatP= 3.27D-13
 IDIUse=1 WtCom= 1.00D+00 WtEn= 0.00D+00
 Coeff-Com: -0.135D-03 0.238D-02-0.205D-02 0.154D-02-0.705D-01 0.217D+00
 Coeff-Com:  0.932D-01-0.213D+01 0.289D+01
 Coeff:     -0.135D-03 0.238D-02-0.205D-02 0.154D-02-0.705D-01 0.217D+00
 Coeff:      0.932D-01-0.213D+01 0.289D+01
 Gap=    -0.010 Goal=   None    Shift=    0.300
 DSYEVD-2 returned Info=          79 IAlg= 4 N=    39 NDim=   258 NE2=    41029983 trying  DSYEV.
 RMSDP=5.15D-09 MaxDP=8.44D-07 DE=-4.26D-13 OVMax= 2.29D-07

 Density matrix breaks symmetry, PCut= 1.00D-07
 Density has only Abelian symmetry.
 SCF Done:  E(ROHF) =  -86.1288390897     A.U. after   24 cycles
            NFock= 24  Conv=0.52D-08     -V/T= 2.8709
 <Sx>= 0.0000 <Sy>= 0.0000 <Sz>= 3.0000 <S**2>=12.0000 S= 3.0000
 <L.S>=  0.00000000000    
 KE= 4.603490446417D+01 PE=-1.968634731604D+02 EE= 6.469972960654D+01
 Annihilation of the first spin contaminant:
 S**2 before annihilation    12.0000,   after    12.0000
 Leave Link  502 at Fri Mar 16 16:06:31 2018, MaxMem= 10737418240 cpu:             306.8 elap:              20.2
 (Enter /home1/apps/gaussian/16rA.03/g16/l801.exe)
 Windowed orbitals will be sorted by symmetry type.
 Density matrix breaks symmetry, PCut= 1.00D-07
 Density has only Abelian symmetry.
 GenMOA:  NOpAll= 48 NOp2=8 NOpUse=  8 JSym2X=1
 FoFJK:  IHMeth= 1 ICntrl=       0 DoSepK=F KAlg= 0 I1Cent=           0 FoldK=F
 IRaf=         0 NMat=       1 IRICut=       1 DoRegI=T DoRafI=F ISym2E= 1 IDoP0=0 IntGTp=1.
 FoFCou: FMM=F IPFlag=           0 FMFlag=      100000 FMFlg1=           0
         NFxFlg=           0 DoJE=F BraDBF=F KetDBF=F FulRan=T
         wScrn=  0.000000 ICntrl=         0 IOpCl=  1 I1Cent=           0 NGrid=           0
         NMat0=    1 NMatS0=      1 NMatT0=    0 NMatD0=    1 NMtDS0=    0 NMtDT0=    0
 Petite list used in FoFCou.
 <Sx>= 0.0000 <Sy>= 0.0000 <Sz>= 3.0000 <S**2>=12.0000 S= 3.0000
 Range of M.O.s used for correlation:     1   258
 NBasis=   262 NAE=    10 NBE=     4 NFC=     0 NFV=     0
 NROrb=    258 NOA=    10 NOB=     4 NVA=   248 NVB=   254

 **** Warning!!: The largest alpha MO coefficient is  0.30504659D+03


 **** Warning!!: The largest beta MO coefficient is  0.30458142D+03

 Singles contribution to E2=   -0.2117885087D-03
 Leave Link  801 at Fri Mar 16 16:06:34 2018, MaxMem= 10737418240 cpu:              49.3 elap:               3.1
 (Enter /home1/apps/gaussian/16rA.03/g16/l804.exe)
 Open-shell transformation, MDV= 10737418240 ITran=4 ISComp=2.
 Unit  1 TFree=       2085414 TCopy=       1665808.
 Semi-Direct transformation.
 ModeAB=           2 MOrb=            10 LenV=   10735234370
 LASXX=     10681816 LTotXX=    10681816 LenRXX=    10681816
 LTotAB=    10857725 MaxLAS=   153987300 LenRXY=   153987300
 NonZer=   157981140 LenScr=   237901824 LnRSAI=           0
 LnScr1=           0 LExtra=     5764447 Total=    408335387
 MaxDsk= 13421772800 SrtSym=           F ITran=            4
 DoSDTr:  NPSUse= 16
 JobTyp=1 Pass  1:  I=   1 to  10.
 (rs|ai) integrals will be sorted in core.
 Complete sort for first half transformation.
 First half transformation complete.
 Begin second half transformation for I=  10.
 Begin second half transformation for I=  10.
 Complete sort for second half transformation.
 Second half transformation complete.
 ModeAB=           2 MOrb=             4 LenV=   10735234370
 LASXX=      4353055 LTotXX=     4353055 LenRXX=    61594920
 LTotAB=     4080786 MaxLAS=    61594920 LenRXY=     4080786
 NonZer=    63192456 LenScr=    95569920 LnRSAI=           0
 LnScr1=           0 LExtra=   170433563 Total=    331679189
 MaxDsk= 13421772800 SrtSym=           F ITran=            4
 DoSDTr:  NPSUse= 16
 JobTyp=2 Pass  1:  I=   1 to   4.
 (rs|ai) integrals will be sorted in core.
 Complete sort for first half transformation.
 First half transformation complete.
 Complete sort for second half transformation.
 Second half transformation complete.
 Spin components of T(2) and E(2):
     alpha-alpha T2 =       0.3696001438D-01 E2=     -0.1654024357D+00
     alpha-beta  T2 =       0.4013795184D-01 E2=     -0.3474219918D+00
     beta-beta   T2 =       0.5848672626D-02 E2=     -0.3668010463D-01
 ANorm=    0.1040672322D+01
 E2 =    -0.5497163206D+00 EUMP2 =    -0.86678555410299D+02
 (S**2,0)=  0.12000D+02           (S**2,1)=  0.12000D+02
 E(PUHF)=      -0.86128839090D+02        E(PMP2)=      -0.86678555410D+02
 Leave Link  804 at Fri Mar 16 16:07:47 2018, MaxMem= 10737418240 cpu:            1157.5 elap:              72.6
 (Enter /home1/apps/gaussian/16rA.03/g16/l913.exe)
 CIDS:  MDV= 10737418240.
 IFCWin=0 IBDFC=1 NFBD=     0     0 NFCmp=     0     0 NFFFC=     0     0
 Using original routines for 1st iteration.
 Using DD4UQ or CC4UQ for 2nd and later iterations.
 Keep R2 and R3 ints in memory in symmetry-blocked form, NReq=669247121.
 FoFCou: FMM=F IPFlag=           0 FMFlag=           0 FMFlg1=           0
         NFxFlg=           0 DoJE=F BraDBF=F KetDBF=F FulRan=T
         wScrn=  0.000000 ICntrl=       600 IOpCl=  0 I1Cent=           0 NGrid=           0
         NMat0=    1 NMatS0=  34453 NMatT0=    0 NMatD0=    1 NMtDS0=    0 NMtDT0=    0
 Petite list used in FoFCou.
 CIDS: In Core Option IDoMem=           1.
 CCSD(T)
 =======
 Iterations= 150 Convergence= 0.100D-06
 Produce multiple copies of IABC intergrals
 Iteration Nr.   1
 **********************
 DD1Dir will call FoFMem   1 times, MxPair=       132
 NAB=    40 NAA=    45 NBB=     6.
 DD1Dir will call FoFMem   1 times, MxPair=       132
 NAB=    40 NAA=    45 NBB=     6.
 MP4(R+Q)= -0.57092380D-03
 Maximum subspace dimension=  5
 A-vector RMS=  2.4079626D-05 Max=  9.7243760D-04 conv= 1.00D-05.
 RLE energy=       -0.5421734079
 E3=        0.82176819D-02        EROMP3=      -0.86670337728D+02
 E4(SDQ)=  -0.30600760D-02        ROMP4(SDQ)=  -0.86673397804D+02
 VARIATIONAL ENERGIES WITH THE FIRST-ORDER WAVEFUNCTION:
 DE(Corr)= -0.54206836     E(Corr)=     -86.670907455    
 NORM(A)=   0.10388767D+01
 Iteration Nr.   2
 **********************
 DD1Dir will call FoFMem   1 times, MxPair=       132
 NAB=    40 NAA=    45 NBB=     6.
 A-vector RMS=  1.4585134D-03 Max=  2.1497604D-02 conv= 1.00D-05.
 RLE energy=       -0.5398595012
 DE(Corr)= -0.53399556     E(CORR)=     -86.662834646     Delta= 8.07D-03
 NORM(A)=   0.10382964D+01
 Iteration Nr.   3
 **********************
 DD1Dir will call FoFMem   1 times, MxPair=       132
 NAB=    40 NAA=    45 NBB=     6.
 A-vector RMS=  1.0603204D-03 Max=  1.8331869D-02 conv= 1.00D-05.
 RLE energy=       -0.5424565202
 DE(Corr)= -0.53660554     E(CORR)=     -86.665444625     Delta=-2.61D-03
 NORM(A)=   0.10396061D+01
 Iteration Nr.   4
 **********************
 DD1Dir will call FoFMem   1 times, MxPair=       132
 NAB=    40 NAA=    45 NBB=     6.
 A-vector RMS=  8.2122997D-04 Max=  1.2690913D-02 conv= 1.00D-05.
 RLE energy=       -0.5439262579
 DE(Corr)= -0.53883530     E(CORR)=     -86.667674391     Delta=-2.23D-03
 NORM(A)=   0.10450558D+01
 Iteration Nr.   5
 **********************
 DD1Dir will call FoFMem   1 times, MxPair=       132
 NAB=    40 NAA=    45 NBB=     6.
 A-vector RMS=  3.4799340D-04 Max=  3.7059561D-03 conv= 1.00D-05.
 RLE energy=       -0.5436921544
 DE(Corr)= -0.54590745     E(CORR)=     -86.674746537     Delta=-7.07D-03
 NORM(A)=   0.10437089D+01
 Iteration Nr.   6
 **********************
 DD1Dir will call FoFMem   1 times, MxPair=       132
 NAB=    40 NAA=    45 NBB=     6.
 A-vector RMS=  3.8146892D-05 Max=  4.9859503D-04 conv= 1.00D-05.
 RLE energy=       -0.5436516825
 DE(Corr)= -0.54376082     E(CORR)=     -86.672599908     Delta= 2.15D-03
 NORM(A)=   0.10437430D+01
 Iteration Nr.   7
 **********************
 DD1Dir will call FoFMem   1 times, MxPair=       132
 NAB=    40 NAA=    45 NBB=     6.
 A-vector RMS=  6.1389242D-06 Max=  8.6836232D-05 conv= 1.00D-05.
 RLE energy=       -0.5436476265
 DE(Corr)= -0.54364640     E(CORR)=     -86.672485485     Delta= 1.14D-04
 NORM(A)=   0.10437649D+01
 Iteration Nr.   8
 **********************
 DD1Dir will call FoFMem   1 times, MxPair=       132
 NAB=    40 NAA=    45 NBB=     6.
 A-vector RMS=  5.3967267D-06 Max=  1.0408797D-04 conv= 1.00D-05.
 RLE energy=       -0.5436481198
 DE(Corr)= -0.54365038     E(CORR)=     -86.672489465     Delta=-3.98D-06
 NORM(A)=   0.10437688D+01
 Iteration Nr.   9
 **********************
 DD1Dir will call FoFMem   1 times, MxPair=       132
 NAB=    40 NAA=    45 NBB=     6.
 A-vector RMS=  1.8045757D-06 Max=  3.1388352D-05 conv= 1.00D-05.
 RLE energy=       -0.5436495932
 DE(Corr)= -0.54364840     E(CORR)=     -86.672487485     Delta= 1.98D-06
 NORM(A)=   0.10437723D+01
 Iteration Nr.  10
 **********************
 DD1Dir will call FoFMem   1 times, MxPair=       132
 NAB=    40 NAA=    45 NBB=     6.
 A-vector RMS=  8.6897954D-07 Max=  1.6334034D-05 conv= 1.00D-05.
 RLE energy=       -0.5436499742
 DE(Corr)= -0.54364918     E(CORR)=     -86.672488272     Delta=-7.87D-07
 NORM(A)=   0.10437708D+01
 Iteration Nr.  11
 **********************
 DD1Dir will call FoFMem   1 times, MxPair=       132
 NAB=    40 NAA=    45 NBB=     6.
 A-vector RMS=  2.7288306D-07 Max=  7.0959792D-06 conv= 1.00D-05.
 RLE energy=       -0.5436486968
 DE(Corr)= -0.54364875     E(CORR)=     -86.672487840     Delta= 4.33D-07
 NORM(A)=   0.10437693D+01
 Iteration Nr.  12
 **********************
 DD1Dir will call FoFMem   1 times, MxPair=       132
 NAB=    40 NAA=    45 NBB=     6.
 A-vector RMS=  5.4032199D-08 Max=  1.0922512D-06 conv= 1.00D-05.
 RLE energy=       -0.5436485845
 DE(Corr)= -0.54364861     E(CORR)=     -86.672487702     Delta= 1.38D-07
 NORM(A)=   0.10437690D+01
 Iteration Nr.  13
 **********************
 DD1Dir will call FoFMem   1 times, MxPair=       132
 NAB=    40 NAA=    45 NBB=     6.
 A-vector RMS=  2.1024435D-08 Max=  4.7415862D-07 conv= 1.00D-05.
 RLE energy=       -0.5436485366
 DE(Corr)= -0.54364853     E(CORR)=     -86.672487623     Delta= 7.90D-08
 NORM(A)=   0.10437689D+01
 CI/CC converged in   13 iterations to DelEn= 7.90D-08 Conv= 1.00D-07 ErrA1= 2.10D-08 Conv= 1.00D-05
 Wavefunction amplitudes converged. E(Corr)=     -86.672487623    
 Largest amplitude= 4.42D-02
 Time for triples=     2205.72 seconds.
 T4(CCSD)= -0.17492702D-01
 T5(CCSD)=  0.59584767D-03
 CCSD(T)= -0.86689384478D+02
 Discarding MO integrals.
 Leave Link  913 at Fri Mar 16 16:10:42 2018, MaxMem= 10737418240 cpu:            2776.5 elap:             175.4
 (Enter /home1/apps/gaussian/16rA.03/g16/l601.exe)
 Copying SCF densities to generalized density rwf, IOpCl= 0 IROHF=1.
 SCF density gives NOpUse=  8 NOpAll= 48.
 Marking SCF density as not fully symmetric.

 **********************************************************************

            Population analysis using the SCF density.

 **********************************************************************

 Orbital symmetries:
       Occupied  (A1G) (T1U) (T1U) (T1U) (A1G) (EG) (T2G) (T2G)
                 (EG) (T2G)
       Virtual   (T1U) (T1U) (T1U) (A1G) (EG) (T2G) (T2G) (T2G)
                 (EG) (T1U) (T1U) (T1U) (A1G) (T2G) (EG) (T2G)
                 (EG) (T2G) (T1U) (T1U) (T1U) (?A) (?A) (?A) (A2U)
                 (?A) (?A) (?A) (A1G) (T2G) (EG) (T2G) (T2G) (EG)
                 (T1U) (T1U) (T1U) (?B) (T2G) (?B) (?B) (T2G) (?B)
                 (?B) (?B) (T2G) (?A) (?A) (A2U) (?A) (?A) (?A)
                 (?A) (EG) (T2G) (T2G) (T2G) (EG) (A1G) (T1U) (T1U)
                 (T1U) (T2G) (EG) (EG) (T2G) (T2G) (?A) (?A) (?A)
                 (A2U) (?A) (?A) (?A) (?B) (T2G) (?B) (?B) (T2G)
                 (?B) (?B) (T2G) (?B) (?C) (?C) (EU) (?C) (?C)
                 (?C) (?C) (EU) (?C) (?C) (?C) (T1U) (T1U) (T1U)
                 (A1G) (T2G) (EG) (T2G) (EG) (T2G) (?A) (?A) (A2U)
                 (?A) (?A) (?A) (?A) (T1U) (T1U) (T1U) (?B) (T2G)
                 (?B) (?B) (T2G) (?B) (T2G) (?B) (?B) (?D) (?D)
                 (EU) (?D) (?D) (?D) (?D) (EU) (?D) (?D) (?D) (EG)
                 (T2G) (T2G) (EG) (T2G) (A1G) (T1U) (T1U) (T1U)
                 (?A) (?A) (A2U) (?A) (?A) (?A) (?A) (EG) (T2G)
                 (EG) (T2G) (T2G) (?B) (T2G) (?B) (?B) (T2G) (?B)
                 (T2G) (?B) (?B) (?E) (?E) (EU) (?E) (?E) (?E)
                 (EU) (?E) (?E) (?E) (?E) (A1G) (T1U) (T1U) (T1U)
                 (EG) (EG) (T2G) (T2G) (T2G) (EG) (EG) (T2G) (T2G)
                 (T2G) (A1G) (T1U) (T1U) (T1U) (T1U) (T1U) (T1U)
                 (EG) (EG) (T2G) (T2G) (T2G) (A1G) (A1G) (T1U)
                 (T1U) (T1U) (EG) (EG) (T2G) (T2G) (T2G) (A1G)
                 (T1U) (T1U) (T1U) (A1G) (T1U) (T1U) (T1U) (EG)
                 (EG) (T2G) (T2G) (T2G) (A1G) (T1U) (T1U) (T1U)
                 (A1G) (T1U) (T1U) (T1U) (A1G) (T1U) (T1U) (T1U)
                 (A1G) (T1U) (T1U) (T1U) (A1G) (T1U) (T1U) (T1U)
                 (A1G) (A1G) (A1G) (A1G) (A1G)
 The electronic state is 7-A1G.
 Alpha  occ. eigenvalues --   -3.57467  -2.32329  -2.32329  -2.32329  -0.36885
 Alpha  occ. eigenvalues --   -0.36885  -0.36885  -0.36885  -0.36885  -0.22623
 Alpha virt. eigenvalues --    0.01713   0.01713   0.01713   0.02416   0.05524
 Alpha virt. eigenvalues --    0.05524   0.05524   0.05524   0.05524   0.05928
 Alpha virt. eigenvalues --    0.05928   0.05928   0.12720   0.17961   0.17961
 Alpha virt. eigenvalues --    0.17961   0.17961   0.17961   0.19972   0.19972
 Alpha virt. eigenvalues --    0.19972   0.40734   0.40734   0.40734   0.40734
 Alpha virt. eigenvalues --    0.40734   0.40734   0.40734   0.44416   0.50024
 Alpha virt. eigenvalues --    0.50024   0.50024   0.50024   0.50024   0.60078
 Alpha virt. eigenvalues --    0.60078   0.60078   1.18672   1.18672   1.18672
 Alpha virt. eigenvalues --    1.18672   1.18672   1.18672   1.18672   1.18672
 Alpha virt. eigenvalues --    1.18672   1.27652   1.27652   1.27652   1.27652
 Alpha virt. eigenvalues --    1.27652   1.27652   1.27652   1.29564   1.29564
 Alpha virt. eigenvalues --    1.29564   1.29564   1.29564   1.67127   1.69874
 Alpha virt. eigenvalues --    1.69874   1.69874   3.05004   3.05004   3.05004
 Alpha virt. eigenvalues --    3.05004   3.05004   3.45864   3.45864   3.45864
 Alpha virt. eigenvalues --    3.45864   3.45864   3.45864   3.45864   3.54357
 Alpha virt. eigenvalues --    3.54357   3.54357   3.54357   3.54357   3.54357
 Alpha virt. eigenvalues --    3.54357   3.54357   3.54357   3.59341   3.59341
 Alpha virt. eigenvalues --    3.59341   3.59341   3.59341   3.59341   3.59341
 Alpha virt. eigenvalues --    3.59341   3.59341   3.59341   3.59341   4.24650
 Alpha virt. eigenvalues --    4.24650   4.24650   5.15775   6.44690   6.44690
 Alpha virt. eigenvalues --    6.44690   6.44690   6.44690   8.59169   8.59169
 Alpha virt. eigenvalues --    8.59169   8.59169   8.59169   8.59169   8.59169
 Alpha virt. eigenvalues --    9.18374   9.18374   9.18374   9.46785   9.46785
 Alpha virt. eigenvalues --    9.46785   9.46785   9.46785   9.46785   9.46785
 Alpha virt. eigenvalues --    9.46785   9.46785  10.11247  10.11247  10.11247
 Alpha virt. eigenvalues --   10.11247  10.11247  10.11247  10.11247  10.11247
 Alpha virt. eigenvalues --   10.11247  10.11247  10.11247  12.29969  12.29969
 Alpha virt. eigenvalues --   12.29969  12.29969  12.29969  12.51206  18.09200
 Alpha virt. eigenvalues --   18.09200  18.09200  21.15295  21.15295  21.15295
 Alpha virt. eigenvalues --   21.15295  21.15295  21.15295  21.15295  21.82761
 Alpha virt. eigenvalues --   21.82761  21.82761  21.82761  21.82761  23.26239
 Alpha virt. eigenvalues --   23.26239  23.26239  23.26239  23.26239  23.26239
 Alpha virt. eigenvalues --   23.26239  23.26239  23.26239  26.48302  26.48302
 Alpha virt. eigenvalues --   26.48302  26.48302  26.48302  26.48302  26.48302
 Alpha virt. eigenvalues --   26.48302  26.48302  26.48302  26.48302  29.05191
 Alpha virt. eigenvalues --   35.02987  35.02987  35.02987  37.19344  37.19344
 Alpha virt. eigenvalues --   37.19344  37.19344  37.19344  65.12043  65.12043
 Alpha virt. eigenvalues --   65.12043  65.12043  65.12043  68.47996  68.58732
 Alpha virt. eigenvalues --   68.58732  68.58732 130.94552 130.94552 130.94552
 Alpha virt. eigenvalues --  132.93170 132.93170 132.93170 132.93170 132.93170
 Alpha virt. eigenvalues --  136.74121 241.80711 245.19857 245.19857 245.19857
 Alpha virt. eigenvalues --  343.47366 343.47366 343.47366 343.47366 343.47366
 Alpha virt. eigenvalues --  441.38080 464.01651 464.01651 464.01651 839.04568
 Alpha virt. eigenvalues --  906.33637 906.33637 906.336371149.951481149.95148
 Alpha virt. eigenvalues -- 1149.951481149.951481149.951481661.803191862.81266
 Alpha virt. eigenvalues -- 1862.812661862.812663443.651564106.104014106.10401
 Alpha virt. eigenvalues -- 4106.104017487.847539963.582599963.582599963.58259
 Alpha virt. eigenvalues -- **************************************************
 Alpha virt. eigenvalues -- **************************************************
 Alpha virt. eigenvalues -- ******************************
     Molecular Orbital Coefficients:
                           1         2         3         4         5
                       (A1G)--O  (T1U)--O  (T1U)--O  (T1U)--O  (A1G)--O
     Eigenvalues --    -3.57467  -2.32329  -2.32329  -2.32329  -0.36885
   1 1   Cr 1S         -0.00000   0.00000   0.00000   0.00000   0.00000
   2        2S          0.00000   0.00000   0.00000   0.00000  -0.00000
   3        3S         -0.00000   0.00000   0.00000   0.00000   0.00000
   4        4S          0.00000   0.00000   0.00000   0.00000  -0.00000
   5        5S         -0.00000   0.00000   0.00000   0.00000   0.00000
   6        6S          0.00001   0.00000   0.00000   0.00000  -0.00000
   7        7S         -0.00004   0.00000   0.00000   0.00000   0.00001
   8        8S          0.00012   0.00000   0.00000   0.00000  -0.00003
   9        9S         -0.00035   0.00000   0.00000   0.00000   0.00008
  10       10S          0.00101   0.00000   0.00000   0.00000  -0.00022
  11       11S         -0.00279   0.00000   0.00000   0.00000   0.00062
  12       12S          0.00764   0.00000   0.00000   0.00000  -0.00171
  13       13S         -0.02358   0.00000   0.00000   0.00000   0.00540
  14       14S          0.11106   0.00000   0.00000   0.00000  -0.02657
  15       15S         -0.17393   0.00000   0.00000   0.00000   0.04425
  16       16S         -0.31226   0.00000   0.00000   0.00000   0.08505
  17       17S          0.40335   0.00000   0.00000   0.00000  -0.11392
  18       18S          0.80270   0.00000   0.00000   0.00000  -0.27837
  19       19S          0.28517   0.00000   0.00000   0.00000  -0.19479
  20       20S          0.01572   0.00000   0.00000   0.00000   0.30169
  21       21S         -0.00917   0.00000   0.00000   0.00000   0.59114
  22       22S          0.00417   0.00000   0.00000   0.00000   0.26019
  23       23S         -0.08445   0.00000   0.00000   0.00000   0.01319
  24       24S         -0.16307   0.00000   0.00000   0.00000   0.05995
  25       25S         -0.00112   0.00000   0.00000   0.00000  -0.00004
  26       26PX         0.00000   0.00000   0.00000   0.00000   0.00000
  27       26PY         0.00000   0.00000   0.00000   0.00000   0.00000
  28       26PZ         0.00000   0.00000   0.00000   0.00000   0.00000
  29       27PX         0.00000  -0.00000   0.00000   0.00000   0.00000
  30       27PY         0.00000   0.00000  -0.00000   0.00000   0.00000
  31       27PZ         0.00000   0.00000   0.00000  -0.00000   0.00000
  32       28PX         0.00000   0.00000   0.00000   0.00000   0.00000
  33       28PY         0.00000   0.00000   0.00000   0.00000   0.00000
  34       28PZ         0.00000   0.00000   0.00000   0.00000   0.00000
  35       29PX         0.00000  -0.00001   0.00000   0.00000   0.00000
  36       29PY         0.00000   0.00000  -0.00001   0.00000   0.00000
  37       29PZ         0.00000   0.00000   0.00000  -0.00001   0.00000
  38       30PX         0.00000   0.00002   0.00000   0.00000   0.00000
  39       30PY         0.00000   0.00000   0.00002   0.00000   0.00000
  40       30PZ         0.00000   0.00000   0.00000   0.00002   0.00000
  41       31PX         0.00000  -0.00008   0.00000   0.00000   0.00000
  42       31PY         0.00000   0.00000  -0.00008   0.00000   0.00000
  43       31PZ         0.00000   0.00000   0.00000  -0.00008   0.00000
  44       32PX         0.00000   0.00030   0.00000   0.00000   0.00000
  45       32PY         0.00000   0.00000   0.00030   0.00000   0.00000
  46       32PZ         0.00000   0.00000   0.00000   0.00030   0.00000
  47       33PX         0.00000  -0.00159   0.00000   0.00000   0.00000
  48       33PY         0.00000   0.00000  -0.00159   0.00000   0.00000
  49       33PZ         0.00000   0.00000   0.00000  -0.00159   0.00000
  50       34PX         0.00000   0.01682   0.00000   0.00000   0.00000
  51       34PY         0.00000   0.00000   0.01682   0.00000   0.00000
  52       34PZ         0.00000   0.00000   0.00000   0.01682   0.00000
  53       35PX         0.00000  -0.07779   0.00000   0.00000   0.00000
  54       35PY         0.00000   0.00000  -0.07779   0.00000   0.00000
  55       35PZ         0.00000   0.00000   0.00000  -0.07779   0.00000
  56       36PX         0.00000  -0.03637   0.00000   0.00000   0.00000
  57       36PY         0.00000   0.00000  -0.03637   0.00000   0.00000
  58       36PZ         0.00000   0.00000   0.00000  -0.03637   0.00000
  59       37PX         0.00000   0.20294   0.00000   0.00000   0.00000
  60       37PY         0.00000   0.00000   0.20294   0.00000   0.00000
  61       37PZ         0.00000   0.00000   0.00000   0.20294   0.00000
  62       38PX         0.00000   0.33945   0.00000   0.00000   0.00000
  63       38PY         0.00000   0.00000   0.33945   0.00000   0.00000
  64       38PZ         0.00000   0.00000   0.00000   0.33945   0.00000
  65       39PX         0.00000   0.37612   0.00000   0.00000   0.00000
  66       39PY         0.00000   0.00000   0.37612   0.00000   0.00000
  67       39PZ         0.00000   0.00000   0.00000   0.37612   0.00000
  68       40PX         0.00000   0.17223   0.00000   0.00000   0.00000
  69       40PY         0.00000   0.00000   0.17223   0.00000   0.00000
  70       40PZ         0.00000   0.00000   0.00000   0.17223   0.00000
  71       41PX         0.00000   0.01948   0.00000   0.00000   0.00000
  72       41PY         0.00000   0.00000   0.01948   0.00000   0.00000
  73       41PZ         0.00000   0.00000   0.00000   0.01948   0.00000
  74       42PX         0.00000  -0.00093   0.00000   0.00000   0.00000
  75       42PY         0.00000   0.00000  -0.00093   0.00000   0.00000
  76       42PZ         0.00000   0.00000   0.00000  -0.00093   0.00000
  77       43PX         0.00000   0.00069   0.00000   0.00000   0.00000
  78       43PY         0.00000   0.00000   0.00069   0.00000   0.00000
  79       43PZ         0.00000   0.00000   0.00000   0.00069   0.00000
  80       44PX         0.00000  -0.01819   0.00000   0.00000   0.00000
  81       44PY         0.00000   0.00000  -0.01819   0.00000   0.00000
  82       44PZ         0.00000   0.00000   0.00000  -0.01819   0.00000
  83       45PX         0.00000   0.06217   0.00000   0.00000   0.00000
  84       45PY         0.00000   0.00000   0.06217   0.00000   0.00000
  85       45PZ         0.00000   0.00000   0.00000   0.06217   0.00000
  86       46PX         0.00000  -0.00019   0.00000   0.00000   0.00000
  87       46PY         0.00000   0.00000  -0.00019   0.00000   0.00000
  88       46PZ         0.00000   0.00000   0.00000  -0.00019   0.00000
  89       47D 0       -0.00000   0.00000   0.00000   0.00000  -0.00000
  90       47D+1        0.00000   0.00000   0.00000   0.00000   0.00000
  91       47D-1        0.00000   0.00000   0.00000   0.00000   0.00000
  92       47D+2       -0.00000   0.00000   0.00000   0.00000   0.00000
  93       47D-2        0.00000   0.00000   0.00000   0.00000   0.00000
  94       48D 0        0.00000   0.00000   0.00000   0.00000   0.00000
  95       48D+1        0.00000   0.00000   0.00000   0.00000   0.00000
  96       48D-1        0.00000   0.00000   0.00000   0.00000   0.00000
  97       48D+2        0.00000   0.00000   0.00000   0.00000  -0.00000
  98       48D-2        0.00000   0.00000   0.00000   0.00000   0.00000
  99       49D 0       -0.00000   0.00000   0.00000   0.00000  -0.00000
 100       49D+1        0.00000   0.00000   0.00000   0.00000   0.00000
 101       49D-1        0.00000   0.00000   0.00000   0.00000   0.00000
 102       49D+2       -0.00000   0.00000   0.00000   0.00000   0.00000
 103       49D-2        0.00000   0.00000   0.00000   0.00000   0.00000
 104       50D 0       -0.00000   0.00000   0.00000   0.00000  -0.00000
 105       50D+1        0.00000   0.00000   0.00000   0.00000   0.00000
 106       50D-1        0.00000   0.00000   0.00000   0.00000   0.00000
 107       50D+2       -0.00000   0.00000   0.00000   0.00000   0.00000
 108       50D-2        0.00000   0.00000   0.00000   0.00000   0.00000
 109       51D 0       -0.00000   0.00000   0.00000   0.00000  -0.00000
 110       51D+1        0.00000   0.00000   0.00000   0.00000   0.00000
 111       51D-1        0.00000   0.00000   0.00000   0.00000   0.00000
 112       51D+2       -0.00000   0.00000   0.00000   0.00000   0.00000
 113       51D-2        0.00000   0.00000   0.00000   0.00000   0.00000
 114       52D 0       -0.00000   0.00000   0.00000   0.00000  -0.00000
 115       52D+1        0.00000   0.00000   0.00000   0.00000   0.00000
 116       52D-1        0.00000   0.00000   0.00000   0.00000   0.00000
 117       52D+2       -0.00000   0.00000   0.00000   0.00000   0.00000
 118       52D-2        0.00000   0.00000   0.00000   0.00000   0.00000
 119       53D 0       -0.00000   0.00000   0.00000   0.00000  -0.00000
 120       53D+1        0.00000   0.00000   0.00000   0.00000   0.00000
 121       53D-1        0.00000   0.00000   0.00000   0.00000   0.00000
 122       53D+2       -0.00000   0.00000   0.00000   0.00000   0.00000
 123       53D-2        0.00000   0.00000   0.00000   0.00000   0.00000
 124       54D 0        0.00000   0.00000   0.00000   0.00000  -0.00000
 125       54D+1        0.00000   0.00000   0.00000   0.00000   0.00000
 126       54D-1        0.00000   0.00000   0.00000   0.00000   0.00000
 127       54D+2        0.00000   0.00000   0.00000   0.00000   0.00000
 128       54D-2        0.00000   0.00000   0.00000   0.00000   0.00000
 129       55D 0        0.00000   0.00000   0.00000   0.00000  -0.00000
 130       55D+1        0.00000   0.00000   0.00000   0.00000   0.00000
 131       55D-1        0.00000   0.00000   0.00000   0.00000   0.00000
 132       55D+2        0.00000   0.00000   0.00000   0.00000   0.00000
 133       55D-2        0.00000   0.00000   0.00000   0.00000   0.00000
 134       56D 0        0.00000   0.00000   0.00000   0.00000  -0.00000
 135       56D+1        0.00000   0.00000   0.00000   0.00000   0.00000
 136       56D-1        0.00000   0.00000   0.00000   0.00000   0.00000
 137       56D+2        0.00000   0.00000   0.00000   0.00000   0.00000
 138       56D-2        0.00000   0.00000   0.00000   0.00000   0.00000
 139       57D 0       -0.00000   0.00000   0.00000   0.00000  -0.00000
 140       57D+1        0.00000   0.00000   0.00000   0.00000   0.00000
 141       57D-1        0.00000   0.00000   0.00000   0.00000   0.00000
 142       57D+2        0.00000   0.00000   0.00000   0.00000  -0.00000
 143       57D-2        0.00000   0.00000   0.00000   0.00000   0.00000
 144       58D 0        0.00000   0.00000   0.00000   0.00000  -0.00000
 145       58D+1        0.00000   0.00000   0.00000   0.00000   0.00000
 146       58D-1        0.00000   0.00000   0.00000   0.00000   0.00000
 147       58D+2        0.00000   0.00000   0.00000   0.00000   0.00000
 148       58D-2        0.00000   0.00000   0.00000   0.00000   0.00000
 149       59D 0        0.00000   0.00000   0.00000   0.00000   0.00000
 150       59D+1        0.00000   0.00000   0.00000   0.00000   0.00000
 151       59D-1        0.00000   0.00000   0.00000   0.00000   0.00000
 152       59D+2        0.00000   0.00000   0.00000   0.00000   0.00000
 153       59D-2        0.00000   0.00000   0.00000   0.00000   0.00000
 154       60D 0       -0.00000   0.00000   0.00000   0.00000   0.00000
 155       60D+1        0.00000   0.00000   0.00000   0.00000   0.00000
 156       60D-1        0.00000   0.00000   0.00000   0.00000   0.00000
 157       60D+2        0.00000   0.00000   0.00000   0.00000   0.00000
 158       60D-2        0.00000   0.00000   0.00000   0.00000   0.00000
 159       61F 0        0.00000   0.00000   0.00000   0.00000   0.00000
 160       61F+1        0.00000   0.00000   0.00000   0.00000   0.00000
 161       61F-1        0.00000   0.00000   0.00000   0.00000   0.00000
 162       61F+2        0.00000   0.00000   0.00000   0.00000   0.00000
 163       61F-2        0.00000   0.00000   0.00000   0.00000   0.00000
 164       61F+3        0.00000   0.00000   0.00000   0.00000   0.00000
 165       61F-3        0.00000   0.00000   0.00000   0.00000   0.00000
 166       62F 0        0.00000   0.00000   0.00000   0.00000   0.00000
 167       62F+1        0.00000   0.00000   0.00000   0.00000   0.00000
 168       62F-1        0.00000   0.00000   0.00000   0.00000   0.00000
 169       62F+2        0.00000   0.00000   0.00000   0.00000   0.00000
 170       62F-2        0.00000   0.00000   0.00000   0.00000   0.00000
 171       62F+3        0.00000   0.00000   0.00000   0.00000   0.00000
 172       62F-3        0.00000   0.00000   0.00000   0.00000   0.00000
 173       63F 0        0.00000   0.00000   0.00000  -0.00000   0.00000
 174       63F+1        0.00000  -0.00000   0.00000   0.00000   0.00000
 175       63F-1        0.00000   0.00000  -0.00000   0.00000   0.00000
 176       63F+2        0.00000   0.00000   0.00000  -0.00000   0.00000
 177       63F-2        0.00000   0.00000   0.00000   0.00000   0.00000
 178       63F+3        0.00000  -0.00000   0.00000   0.00000   0.00000
 179       63F-3        0.00000   0.00000  -0.00000   0.00000   0.00000
 180       64F 0        0.00000   0.00000   0.00000   0.00000   0.00000
 181       64F+1        0.00000   0.00000   0.00000   0.00000   0.00000
 182       64F-1        0.00000   0.00000   0.00000   0.00000   0.00000
 183       64F+2        0.00000   0.00000   0.00000   0.00000   0.00000
 184       64F-2        0.00000   0.00000   0.00000   0.00000   0.00000
 185       64F+3        0.00000   0.00000   0.00000   0.00000   0.00000
 186       64F-3        0.00000   0.00000   0.00000   0.00000   0.00000
 187       65F 0        0.00000   0.00000   0.00000   0.00000   0.00000
 188       65F+1        0.00000   0.00000   0.00000   0.00000   0.00000
 189       65F-1        0.00000   0.00000   0.00000   0.00000   0.00000
 190       65F+2        0.00000   0.00000   0.00000  -0.00000   0.00000
 191       65F-2        0.00000   0.00000   0.00000   0.00000   0.00000
 192       65F+3        0.00000  -0.00000   0.00000   0.00000   0.00000
 193       65F-3        0.00000   0.00000  -0.00000   0.00000   0.00000
 194       66G 0        0.00000   0.00000   0.00000   0.00000  -0.00000
 195       66G+1        0.00000   0.00000   0.00000   0.00000   0.00000
 196       66G-1        0.00000   0.00000   0.00000   0.00000   0.00000
 197       66G+2        0.00000   0.00000   0.00000   0.00000  -0.00000
 198       66G-2        0.00000   0.00000   0.00000   0.00000   0.00000
 199       66G+3        0.00000   0.00000   0.00000   0.00000   0.00000
 200       66G-3        0.00000   0.00000   0.00000   0.00000   0.00000
 201       66G+4        0.00000   0.00000   0.00000   0.00000   0.00000
 202       66G-4        0.00000   0.00000   0.00000   0.00000   0.00000
 203       67G 0       -0.00000   0.00000   0.00000   0.00000   0.00000
 204       67G+1        0.00000   0.00000   0.00000   0.00000   0.00000
 205       67G-1        0.00000   0.00000   0.00000   0.00000   0.00000
 206       67G+2       -0.00000   0.00000   0.00000   0.00000  -0.00000
 207       67G-2        0.00000   0.00000   0.00000   0.00000   0.00000
 208       67G+3        0.00000   0.00000   0.00000   0.00000   0.00000
 209       67G-3        0.00000   0.00000   0.00000   0.00000   0.00000
 210       67G+4        0.00000   0.00000   0.00000   0.00000  -0.00000
 211       67G-4        0.00000   0.00000   0.00000   0.00000   0.00000
 212       68G 0        0.00000   0.00000   0.00000   0.00000  -0.00000
 213       68G+1        0.00000   0.00000   0.00000   0.00000   0.00000
 214       68G-1        0.00000   0.00000   0.00000   0.00000   0.00000
 215       68G+2        0.00000   0.00000   0.00000   0.00000  -0.00000
 216       68G-2        0.00000   0.00000   0.00000   0.00000   0.00000
 217       68G+3        0.00000   0.00000   0.00000   0.00000   0.00000
 218       68G-3        0.00000   0.00000   0.00000   0.00000   0.00000
 219       68G+4       -0.00000   0.00000   0.00000   0.00000   0.00000
 220       68G-4        0.00000   0.00000   0.00000   0.00000   0.00000
 221       69G 0        0.00000   0.00000   0.00000   0.00000   0.00000
 222       69G+1        0.00000   0.00000   0.00000   0.00000   0.00000
 223       69G-1        0.00000   0.00000   0.00000   0.00000   0.00000
 224       69G+2        0.00000   0.00000   0.00000   0.00000   0.00000
 225       69G-2        0.00000   0.00000   0.00000   0.00000   0.00000
 226       69G+3        0.00000   0.00000   0.00000   0.00000   0.00000
 227       69G-3        0.00000   0.00000   0.00000   0.00000   0.00000
 228       69G+4       -0.00000   0.00000   0.00000   0.00000  -0.00000
 229       69G-4        0.00000   0.00000   0.00000   0.00000   0.00000
 230       70H 0        0.00000   0.00000   0.00000   0.00000   0.00000
 231       70H+1        0.00000   0.00000   0.00000   0.00000   0.00000
 232       70H-1        0.00000   0.00000  -0.00000   0.00000   0.00000
 233       70H+2        0.00000   0.00000   0.00000   0.00000   0.00000
 234       70H-2        0.00000   0.00000   0.00000   0.00000   0.00000
 235       70H+3        0.00000  -0.00000   0.00000   0.00000   0.00000
 236       70H-3        0.00000   0.00000  -0.00000   0.00000   0.00000
 237       70H+4        0.00000   0.00000   0.00000  -0.00000   0.00000
 238       70H-4        0.00000   0.00000   0.00000   0.00000   0.00000
 239       70H+5        0.00000   0.00000   0.00000   0.00000   0.00000
 240       70H-5        0.00000   0.00000  -0.00000   0.00000   0.00000
 241       71H 0        0.00000   0.00000   0.00000  -0.00000   0.00000
 242       71H+1        0.00000  -0.00000   0.00000   0.00000   0.00000
 243       71H-1        0.00000   0.00000   0.00000   0.00000   0.00000
 244       71H+2        0.00000   0.00000   0.00000  -0.00000   0.00000
 245       71H-2        0.00000   0.00000   0.00000   0.00000   0.00000
 246       71H+3        0.00000   0.00000   0.00000   0.00000   0.00000
 247       71H-3        0.00000   0.00000   0.00000   0.00000   0.00000
 248       71H+4        0.00000   0.00000   0.00000   0.00000   0.00000
 249       71H-4        0.00000   0.00000   0.00000   0.00000   0.00000
 250       71H+5        0.00000  -0.00000   0.00000   0.00000   0.00000
 251       71H-5        0.00000   0.00000  -0.00000   0.00000   0.00000
 252       72H 0        0.00000   0.00000   0.00000   0.00000   0.00000
 253       72H+1        0.00000   0.00000   0.00000   0.00000   0.00000
 254       72H-1        0.00000   0.00000  -0.00000   0.00000   0.00000
 255       72H+2        0.00000   0.00000   0.00000   0.00000   0.00000
 256       72H-2        0.00000   0.00000   0.00000   0.00000   0.00000
 257       72H+3        0.00000  -0.00000   0.00000   0.00000   0.00000
 258       72H-3        0.00000   0.00000  -0.00000   0.00000   0.00000
 259       72H+4        0.00000   0.00000   0.00000  -0.00000   0.00000
 260       72H-4        0.00000   0.00000   0.00000   0.00000   0.00000
 261       72H+5        0.00000   0.00000   0.00000   0.00000   0.00000
 262       72H-5        0.00000   0.00000   0.00000   0.00000   0.00000
                           6         7         8         9        10
                        (EG)--O  (T2G)--O  (T2G)--O   (EG)--O  (T2G)--O
     Eigenvalues --    -0.36885  -0.36885  -0.36885  -0.36885  -0.22623
   1 1   Cr 1S         -0.00000   0.00000   0.00000   0.00000   0.00000
   2        2S         -0.00000   0.00000   0.00000  -0.00000   0.00000
   3        3S          0.00000   0.00000   0.00000   0.00000   0.00000
   4        4S         -0.00000   0.00000   0.00000  -0.00000   0.00000
   5        5S          0.00000   0.00000   0.00000   0.00000   0.00000
   6        6S         -0.00000   0.00000   0.00000  -0.00000   0.00000
   7        7S          0.00000   0.00000   0.00000   0.00000   0.00000
   8        8S         -0.00000   0.00000   0.00000  -0.00000   0.00000
   9        9S          0.00000   0.00000   0.00000   0.00000   0.00000
  10       10S         -0.00000   0.00000   0.00000  -0.00000   0.00000
  11       11S          0.00000   0.00000   0.00000   0.00000   0.00000
  12       12S         -0.00000   0.00000   0.00000  -0.00000   0.00000
  13       13S         -0.00000   0.00000   0.00000   0.00000   0.00000
  14       14S          0.00000   0.00000   0.00000  -0.00000   0.00000
  15       15S         -0.00000   0.00000   0.00000   0.00000   0.00000
  16       16S         -0.00000   0.00000   0.00000  -0.00000   0.00000
  17       17S          0.00000   0.00000   0.00000   0.00000   0.00000
  18       18S          0.00000   0.00000   0.00000   0.00000   0.00000
  19       19S         -0.00000   0.00000   0.00000  -0.00000   0.00000
  20       20S          0.00000   0.00000   0.00000   0.00000   0.00000
  21       21S         -0.00000   0.00000   0.00000  -0.00000   0.00000
  22       22S          0.00000   0.00000   0.00000   0.00000   0.00000
  23       23S          0.00000   0.00000   0.00000   0.00000   0.00000
  24       24S         -0.00000   0.00000   0.00000  -0.00000   0.00000
  25       25S         -0.00000   0.00000   0.00000  -0.00000   0.00000
  26       26PX        -0.00000   0.00000   0.00000   0.00000   0.00000
  27       26PY        -0.00000   0.00000   0.00000   0.00000   0.00000
  28       26PZ        -0.00000   0.00000   0.00000   0.00000   0.00000
  29       27PX        -0.00000   0.00000   0.00000   0.00000   0.00000
  30       27PY        -0.00000   0.00000   0.00000   0.00000   0.00000
  31       27PZ        -0.00000   0.00000   0.00000   0.00000   0.00000
  32       28PX        -0.00000   0.00000   0.00000   0.00000   0.00000
  33       28PY        -0.00000   0.00000   0.00000   0.00000   0.00000
  34       28PZ        -0.00000   0.00000   0.00000   0.00000   0.00000
  35       29PX        -0.00000   0.00000   0.00000   0.00000   0.00000
  36       29PY        -0.00000   0.00000   0.00000   0.00000   0.00000
  37       29PZ        -0.00000   0.00000   0.00000   0.00000   0.00000
  38       30PX        -0.00000   0.00000   0.00000   0.00000   0.00000
  39       30PY        -0.00000   0.00000   0.00000   0.00000   0.00000
  40       30PZ        -0.00000   0.00000   0.00000   0.00000   0.00000
  41       31PX        -0.00000   0.00000   0.00000   0.00000   0.00000
  42       31PY        -0.00000   0.00000   0.00000   0.00000   0.00000
  43       31PZ        -0.00000   0.00000   0.00000   0.00000   0.00000
  44       32PX        -0.00000   0.00000   0.00000   0.00000   0.00000
  45       32PY        -0.00000   0.00000   0.00000   0.00000   0.00000
  46       32PZ        -0.00000   0.00000   0.00000   0.00000   0.00000
  47       33PX        -0.00000   0.00000   0.00000   0.00000   0.00000
  48       33PY        -0.00000   0.00000   0.00000   0.00000   0.00000
  49       33PZ        -0.00000   0.00000   0.00000   0.00000   0.00000
  50       34PX        -0.00000   0.00000   0.00000   0.00000   0.00000
  51       34PY        -0.00000   0.00000   0.00000   0.00000   0.00000
  52       34PZ        -0.00000   0.00000   0.00000   0.00000   0.00000
  53       35PX        -0.00000   0.00000   0.00000   0.00000   0.00000
  54       35PY        -0.00000   0.00000   0.00000   0.00000   0.00000
  55       35PZ        -0.00000   0.00000   0.00000   0.00000   0.00000
  56       36PX        -0.00000   0.00000   0.00000   0.00000   0.00000
  57       36PY        -0.00000   0.00000   0.00000   0.00000   0.00000
  58       36PZ        -0.00000   0.00000   0.00000   0.00000   0.00000
  59       37PX        -0.00000   0.00000   0.00000   0.00000   0.00000
  60       37PY        -0.00000   0.00000   0.00000   0.00000   0.00000
  61       37PZ        -0.00000   0.00000   0.00000   0.00000   0.00000
  62       38PX        -0.00000   0.00000   0.00000   0.00000   0.00000
  63       38PY        -0.00000   0.00000   0.00000   0.00000   0.00000
  64       38PZ        -0.00000   0.00000   0.00000   0.00000   0.00000
  65       39PX        -0.00000   0.00000   0.00000   0.00000   0.00000
  66       39PY        -0.00000   0.00000   0.00000   0.00000   0.00000
  67       39PZ        -0.00000   0.00000   0.00000   0.00000   0.00000
  68       40PX        -0.00000   0.00000   0.00000   0.00000   0.00000
  69       40PY        -0.00000   0.00000   0.00000   0.00000   0.00000
[...]
  40       30PZ         0.00000   0.00000   0.00000  -0.00000
  41       31PX        -0.00000  -0.00000  -0.00000  -0.00000
  42       31PY        -0.00000  -0.00000  -0.00000  -0.00000
  43       31PZ        -0.00000  -0.00000  -0.00000   0.00000
  44       32PX         0.00001   0.00000   0.00000   0.00000
  45       32PY         0.00001   0.00000   0.00000   0.00000
  46       32PZ         0.00001   0.00000   0.00000  -0.00000
  47       33PX        -0.00012  -0.00006  -0.00006  -0.00000
  48       33PY        -0.00012  -0.00006  -0.00006  -0.00000
  49       33PZ        -0.00012  -0.00006  -0.00006   0.00000
  50       34PX         0.00348   0.00174   0.00174   0.00000
  51       34PY         0.00348   0.00174   0.00174   0.00000
  52       34PZ         0.00348   0.00174   0.00174  -0.00000
  53       35PX        -0.03756  -0.01878  -0.01878   0.00000
  54       35PY        -0.03756  -0.01878  -0.01878  -0.00000
  55       35PZ        -0.03756  -0.01878  -0.01878   0.00000
  56       36PX        -0.03404  -0.01702  -0.01702  -0.00000
  57       36PY        -0.03404  -0.01702  -0.01702  -0.00000
  58       36PZ        -0.03404  -0.01702  -0.01702   0.00000
  59       37PX         0.30145   0.15073   0.15073  -0.00000
  60       37PY         0.30145   0.15073   0.15073   0.00000
  61       37PZ         0.30145   0.15073   0.15073   0.00000
  62       38PX         0.64490   0.32245   0.32245   0.00000
  63       38PY         0.64490   0.32245   0.32245   0.00000
  64       38PZ         0.64490   0.32245   0.32245  -0.00000
  65       39PX         0.73036   0.36518   0.36518   0.00000
  66       39PY         0.73036   0.36518   0.36518   0.00000
  67       39PZ         0.73036   0.36518   0.36518  -0.00000
  68       40PX         0.27180   0.13590   0.13590   0.00000
  69       40PY         0.27180   0.13590   0.13590  -0.00000
  70       40PZ         0.27180   0.13590   0.13590   0.00000
  71       41PX         0.01760   0.00880   0.00880  -0.00000
  72       41PY         0.01760   0.00880   0.00880  -0.00000
  73       41PZ         0.01760   0.00880   0.00880   0.00000
  74       42PX        -0.00039  -0.00020  -0.00020  -0.00000
  75       42PY        -0.00039  -0.00020  -0.00020  -0.00000
  76       42PZ        -0.00039  -0.00020  -0.00020   0.00000
  77       43PX         0.00011   0.00006   0.00006   0.00000
  78       43PY         0.00011   0.00006   0.00006   0.00000
  79       43PZ         0.00011   0.00006   0.00006  -0.00000
  80       44PX        -0.01692  -0.00846  -0.00846   0.00000
  81       44PY        -0.01692  -0.00846  -0.00846   0.00000
  82       44PZ        -0.01692  -0.00846  -0.00846  -0.00000
  83       45PX         0.11934   0.05967   0.05967  -0.00000
  84       45PY         0.11934   0.05967   0.05967  -0.00000
  85       45PZ         0.11934   0.05967   0.05967   0.00000
  86       46PX        -0.00001  -0.00001  -0.00001   0.00000
  87       46PY        -0.00001  -0.00001  -0.00001  -0.00000
  88       46PZ        -0.00001  -0.00001  -0.00001  -0.00000
  89       47D 0        0.00000   0.00000   0.00000   0.00000
  90       47D+1        0.00000   0.00000   0.00000   0.00000
  91       47D-1        0.00000   0.00000   0.00000   0.00000
  92       47D+2        0.00000   0.00000   0.00000   0.00000
  93       47D-2        0.00000   0.00000   0.00000   0.00000
  94       48D 0       -0.00000  -0.00000  -0.00000  -0.00000
  95       48D+1       -0.00000  -0.00000  -0.00000  -0.00000
  96       48D-1       -0.00000  -0.00000  -0.00000  -0.00000
  97       48D+2       -0.00000  -0.00000  -0.00000  -0.00000
  98       48D-2       -0.00000  -0.00000  -0.00000  -0.00000
  99       49D 0        0.00128   0.00128   0.00000   0.00128
 100       49D+1        0.00128   0.00128   0.00000   0.00128
 101       49D-1        0.00128   0.00128   0.00000   0.00128
 102       49D+2        0.00128   0.00128   0.00000   0.00128
 103       49D-2        0.00128   0.00128   0.00000   0.00128
 104       50D 0        0.01391   0.01391   0.00000   0.01391
 105       50D+1        0.01391   0.01391   0.00000   0.01391
 106       50D-1        0.01391   0.01391   0.00000   0.01391
 107       50D+2        0.01391   0.01391   0.00000   0.01391
 108       50D-2        0.01391   0.01391   0.00000   0.01391
 109       51D 0        0.06023   0.06023   0.00000   0.06023
 110       51D+1        0.06023   0.06023   0.00000   0.06023
 111       51D-1        0.06023   0.06023   0.00000   0.06023
 112       51D+2        0.06023   0.06023   0.00000   0.06023
 113       51D-2        0.06023   0.06023   0.00000   0.06023
 114       52D 0        0.14967   0.14967   0.00000   0.14967
 115       52D+1        0.14967   0.14967   0.00000   0.14967
 116       52D-1        0.14967   0.14967   0.00000   0.14967
 117       52D+2        0.14967   0.14967   0.00000   0.14967
 118       52D-2        0.14967   0.14967   0.00000   0.14967
 119       53D 0        0.25610   0.25610   0.00000   0.25610
 120       53D+1        0.25610   0.25610   0.00000   0.25610
 121       53D-1        0.25610   0.25610   0.00000   0.25610
 122       53D+2        0.25610   0.25610   0.00000   0.25610
 123       53D-2        0.25610   0.25610   0.00000   0.25610
 124       54D 0        0.26485   0.26485   0.00000   0.26485
 125       54D+1        0.26485   0.26485   0.00000   0.26485
 126       54D-1        0.26485   0.26485   0.00000   0.26485
 127       54D+2        0.26485   0.26485   0.00000   0.26485
 128       54D-2        0.26485   0.26485   0.00000   0.26485
 129       55D 0        0.17090   0.17090   0.00000   0.17090
 130       55D+1        0.17090   0.17090   0.00000   0.17090
 131       55D-1        0.17090   0.17090   0.00000   0.17090
 132       55D+2        0.17090   0.17090   0.00000   0.17090
 133       55D-2        0.17090   0.17090   0.00000   0.17090
 134       56D 0        0.05501   0.05501   0.00000   0.05501
 135       56D+1        0.05501   0.05501   0.00000   0.05501
 136       56D-1        0.05501   0.05501   0.00000   0.05501
 137       56D+2        0.05501   0.05501   0.00000   0.05501
 138       56D-2        0.05501   0.05501   0.00000   0.05501
 139       57D 0        0.00352   0.00352   0.00000   0.00352
 140       57D+1        0.00352   0.00352   0.00000   0.00352
 141       57D-1        0.00352   0.00352   0.00000   0.00352
 142       57D+2        0.00352   0.00352   0.00000   0.00352
 143       57D-2        0.00352   0.00352   0.00000   0.00352
 144       58D 0        0.01160   0.01160  -0.00000   0.01160
 145       58D+1        0.01160   0.01160  -0.00000   0.01160
 146       58D-1        0.01160   0.01160  -0.00000   0.01160
 147       58D+2        0.01160   0.01160  -0.00000   0.01160
 148       58D-2        0.01160   0.01160  -0.00000   0.01160
 149       59D 0        0.01296   0.01296  -0.00000   0.01296
 150       59D+1        0.01296   0.01296  -0.00000   0.01296
 151       59D-1        0.01296   0.01296  -0.00000   0.01296
 152       59D+2        0.01296   0.01296  -0.00000   0.01296
 153       59D-2        0.01296   0.01296  -0.00000   0.01296
 154       60D 0       -0.00004  -0.00004  -0.00000  -0.00004
 155       60D+1       -0.00004  -0.00004  -0.00000  -0.00004
 156       60D-1       -0.00004  -0.00004  -0.00000  -0.00004
 157       60D+2       -0.00004  -0.00004  -0.00000  -0.00004
 158       60D-2       -0.00004  -0.00004  -0.00000  -0.00004
 159       61F 0        0.00000  -0.00000   0.00000  -0.00000
 160       61F+1        0.00000  -0.00000   0.00000  -0.00000
 161       61F-1        0.00000   0.00000   0.00000  -0.00000
 162       61F+2        0.00000   0.00000   0.00000   0.00000
 163       61F-2        0.00000   0.00000   0.00000  -0.00000
 164       61F+3        0.00000   0.00000   0.00000   0.00000
 165       61F-3        0.00000   0.00000   0.00000   0.00000
 166       62F 0       -0.00000  -0.00000  -0.00000  -0.00000
 167       62F+1       -0.00000  -0.00000  -0.00000  -0.00000
 168       62F-1       -0.00000  -0.00000  -0.00000  -0.00000
 169       62F+2       -0.00000   0.00000  -0.00000   0.00000
 170       62F-2       -0.00000  -0.00000  -0.00000   0.00000
 171       62F+3        0.00000   0.00000  -0.00000   0.00000
 172       62F-3       -0.00000   0.00000  -0.00000   0.00000
 173       63F 0        0.00000   0.00000   0.00000   0.00000
 174       63F+1        0.00000   0.00000   0.00000   0.00000
 175       63F-1        0.00000   0.00000   0.00000   0.00000
 176       63F+2        0.00000   0.00000   0.00000  -0.00000
 177       63F-2        0.00000   0.00000   0.00000  -0.00000
 178       63F+3        0.00000   0.00000   0.00000  -0.00000
 179       63F-3        0.00000   0.00000   0.00000  -0.00000
 180       64F 0       -0.00000  -0.00000  -0.00000  -0.00000
 181       64F+1       -0.00000  -0.00000  -0.00000   0.00000
 182       64F-1       -0.00000  -0.00000  -0.00000  -0.00000
 183       64F+2       -0.00000  -0.00000  -0.00000   0.00000
 184       64F-2       -0.00000  -0.00000  -0.00000   0.00000
 185       64F+3       -0.00000  -0.00000  -0.00000   0.00000
 186       64F-3       -0.00000  -0.00000  -0.00000   0.00000
 187       65F 0       -0.00000  -0.00000  -0.00000   0.00000
 188       65F+1       -0.00000  -0.00000  -0.00000  -0.00000
 189       65F-1       -0.00000  -0.00000  -0.00000  -0.00000
 190       65F+2        0.00000   0.00000   0.00000   0.00000
 191       65F-2       -0.00000   0.00000  -0.00000   0.00000
 192       65F+3       -0.00000  -0.00000  -0.00000   0.00000
 193       65F-3       -0.00000  -0.00000  -0.00000   0.00000
 194       66G 0        0.00000   0.00000  -0.00000   0.00000
 195       66G+1       -0.00000  -0.00000  -0.00000  -0.00000
 196       66G-1       -0.00000  -0.00000  -0.00000  -0.00000
 197       66G+2        0.00000   0.00000  -0.00000   0.00000
 198       66G-2       -0.00000  -0.00000  -0.00000  -0.00000
 199       66G+3        0.00000   0.00000  -0.00000   0.00000
 200       66G-3        0.00000   0.00000  -0.00000   0.00000
 201       66G+4        0.00000   0.00000  -0.00000   0.00000
 202       66G-4        0.00000   0.00000  -0.00000   0.00000
 203       67G 0        0.00000   0.00000   0.00000   0.00000
 204       67G+1        0.00000   0.00000   0.00000   0.00000
 205       67G-1        0.00000   0.00000   0.00000   0.00000
 206       67G+2        0.00000   0.00000   0.00000   0.00000
 207       67G-2        0.00000   0.00000   0.00000   0.00000
 208       67G+3       -0.00000  -0.00000   0.00000  -0.00000
 209       67G-3       -0.00000  -0.00000   0.00000  -0.00000
 210       67G+4        0.00000   0.00000   0.00000   0.00000
 211       67G-4        0.00000   0.00000   0.00000   0.00000
 212       68G 0        0.00000   0.00000  -0.00000   0.00000
 213       68G+1        0.00000   0.00000  -0.00000   0.00000
 214       68G-1        0.00000   0.00000   0.00000   0.00000
 215       68G+2        0.00000   0.00000  -0.00000   0.00000
 216       68G-2        0.00000   0.00000  -0.00000   0.00000
 217       68G+3       -0.00000  -0.00000  -0.00000  -0.00000
 218       68G-3       -0.00000  -0.00000  -0.00000  -0.00000
 219       68G+4       -0.00000  -0.00000  -0.00000  -0.00000
 220       68G-4        0.00000   0.00000  -0.00000   0.00000
 221       69G 0        0.00000   0.00000   0.00000   0.00000
 222       69G+1        0.00000   0.00000   0.00000   0.00000
 223       69G-1        0.00000   0.00000   0.00000   0.00000
 224       69G+2        0.00000   0.00000   0.00000   0.00000
 225       69G-2        0.00000   0.00000   0.00000   0.00000
 226       69G+3        0.00000   0.00000   0.00000   0.00000
 227       69G-3        0.00000   0.00000   0.00000   0.00000
 228       69G+4        0.00000   0.00000   0.00000   0.00000
 229       69G-4        0.00000   0.00000   0.00000   0.00000
 230       70H 0        0.00000   0.00000   0.00000  -0.00000
 231       70H+1        0.00000   0.00000   0.00000  -0.00000
 232       70H-1        0.00000   0.00000   0.00000  -0.00000
 233       70H+2        0.00000   0.00000   0.00000   0.00000
 234       70H-2        0.00000   0.00000   0.00000  -0.00000
 235       70H+3        0.00000   0.00000   0.00000   0.00000
 236       70H-3        0.00000   0.00000   0.00000  -0.00000
 237       70H+4        0.00000   0.00000   0.00000   0.00000
 238       70H-4        0.00000   0.00000   0.00000  -0.00000
 239       70H+5        0.00000   0.00000   0.00000  -0.00000
 240       70H-5        0.00000   0.00000   0.00000  -0.00000
 241       71H 0        0.00000   0.00000   0.00000  -0.00000
 242       71H+1        0.00000   0.00000   0.00000  -0.00000
 243       71H-1        0.00000   0.00000   0.00000  -0.00000
 244       71H+2        0.00000   0.00000   0.00000   0.00000
 245       71H-2        0.00000   0.00000   0.00000  -0.00000
 246       71H+3        0.00000   0.00000   0.00000   0.00000
 247       71H-3        0.00000   0.00000   0.00000  -0.00000
 248       71H+4        0.00000  -0.00000   0.00000  -0.00000
 249       71H-4        0.00000   0.00000   0.00000  -0.00000
 250       71H+5        0.00000   0.00000   0.00000  -0.00000
 251       71H-5        0.00000   0.00000   0.00000  -0.00000
 252       72H 0        0.00000   0.00000   0.00000   0.00000
 253       72H+1        0.00000   0.00000   0.00000  -0.00000
 254       72H-1        0.00000  -0.00000   0.00000  -0.00000
 255       72H+2        0.00000   0.00000   0.00000   0.00000
 256       72H-2        0.00000   0.00000   0.00000  -0.00000
 257       72H+3        0.00000   0.00000   0.00000  -0.00000
 258       72H-3        0.00000  -0.00000   0.00000  -0.00000
 259       72H+4        0.00000   0.00000   0.00000   0.00000
 260       72H-4        0.00000  -0.00000   0.00000  -0.00000
 261       72H+5        0.00000   0.00000   0.00000  -0.00000
 262       72H-5        0.00000   0.00000   0.00000  -0.00000
          Condensed to atoms (all electrons):
               1
     1  Cr  14.000000
          Atomic-Atomic Spin Densities.
               1
     1  Cr   6.000000
 Mulliken charges and spin densities:
               1          2
     1  Cr  -0.000000   6.000000
 Sum of Mulliken charges =  -0.00000   6.00000
 Mulliken charges and spin densities with hydrogens summed into heavy atoms:
               1          2
     1  Cr  -0.000000   6.000000
 Electronic spatial extent (au):  <R**2>=             36.6829
 Charge=             -0.0000 electrons
 Dipole moment (field-independent basis, Debye):
    X=              0.0000    Y=              0.0000    Z=              0.0000  Tot=              0.0000
 Quadrupole moment (field-independent basis, Debye-Ang):
   XX=            -16.4466   YY=            -16.4466   ZZ=            -16.4466
   XY=              0.0000   XZ=              0.0000   YZ=             -0.0000
 Traceless Quadrupole moment (field-independent basis, Debye-Ang):
   XX=             -0.0000   YY=             -0.0000   ZZ=              0.0000
   XY=              0.0000   XZ=              0.0000   YZ=             -0.0000
 Octapole moment (field-independent basis, Debye-Ang**2):
  XXX=              0.0000  YYY=              0.0000  ZZZ=              0.0000  XYY=              0.0000
  XXY=              0.0000  XXZ=              0.0000  XZZ=              0.0000  YZZ=              0.0000
  YYZ=              0.0000  XYZ=              0.0000
 Hexadecapole moment (field-independent basis, Debye-Ang**3):
 XXXX=            -38.6520 YYYY=            -38.6520 ZZZZ=            -38.6520 XXXY=              0.0000
 XXXZ=             -0.0000 YYYX=              0.0000 YYYZ=             -0.0000 ZZZX=             -0.0000
 ZZZY=             -0.0000 XXYY=            -12.8840 XXZZ=            -12.8840 YYZZ=            -12.8840
 XXYZ=             -0.0000 YYXZ=             -0.0000 ZZXY=              0.0000
 N-N= 0.000000000000D+00 E-N=-1.968634740562D+02  KE= 4.603490446417D+01
 Symmetry AG   KE= 1.347183399725D+01
 Symmetry B1G  KE= 4.736842491745D+00
 Symmetry B2G  KE= 4.736842489422D+00
 Symmetry B3G  KE= 4.736842493833D+00
 Symmetry AU   KE= 3.679066453711D-52
 Symmetry B1U  KE= 6.117514330521D+00
 Symmetry B2U  KE= 6.117514332427D+00
 Symmetry B3U  KE= 6.117514330295D+00
 Symmetry AG   SP= 3.000000000000D+00
 Symmetry B1G  SP= 1.000000000000D+00
 Symmetry B2G  SP= 1.000000000000D+00
 Symmetry B3G  SP= 1.000000000000D+00
 Symmetry AU   SP=-5.646471751996D-53
 Symmetry B1U  SP=-1.516363316791D-15
 Symmetry B2U  SP= 2.928341946985D-15
 Symmetry B3U  SP=-1.573579595216D-16
 Orbital energies and kinetic energies (alpha):
                                 1                 2
   1         (A1G)--O         -3.574666          1.861259
   2         (T1U)--O         -2.323295          3.058757
   3         (T1U)--O         -2.323295          3.058757
   4         (T1U)--O         -2.323295          3.058757
   5         (A1G)--O         -0.368847          0.275631
   6         (EG)--O          -0.368847          4.736842
   7         (T2G)--O         -0.368847          4.736842
   8         (T2G)--O         -0.368847          4.736842
   9         (EG)--O          -0.368847          4.736842
  10         (T2G)--O         -0.226230          4.736842
  11         (T1U)--V          0.017131          0.035725
  12         (T1U)--V          0.017131          0.035725
  13         (T1U)--V          0.017131          0.035725
  14         (A1G)--V          0.024162          0.035879
  15         (EG)--V           0.055243          0.062725
 Total kinetic energy from orbitals= 6.999474768084D+01
                          Isotropic Fermi Contact Couplings
        Atom                 a.u.       MegaHertz       Gauss      10(-4) cm-1
     1  Cr(53)             0.00005      -0.00194      -0.00069      -0.00065
 --------------------------------------------------------
       Center         ----  Spin Dipole Couplings  ----
                      3XX-RR        3YY-RR        3ZZ-RR
 --------------------------------------------------------
     1   Atom       -0.000000      0.000000     -0.000000
 --------------------------------------------------------
                        XY            XZ            YZ
 --------------------------------------------------------
     1   Atom        0.000000      0.000000      0.000000
 --------------------------------------------------------


 ---------------------------------------------------------------------------------
              Anisotropic Spin Dipole Couplings in Principal Axis System
 ---------------------------------------------------------------------------------

       Atom             a.u.   MegaHertz   Gauss  10(-4) cm-1        Axes

              Baa    -0.0000     0.000     0.000     0.000  1.0000  0.0000  0.0000
     1 Cr(53) Bbb    -0.0000     0.000     0.000     0.000  0.0000  0.0000  1.0000
              Bcc     0.0000    -0.000    -0.000    -0.000 -0.0000  1.0000  0.0000
 

 ---------------------------------------------------------------------------------

 No NMR shielding tensors so no spin-rotation constants.
 Leave Link  601 at Fri Mar 16 16:10:43 2018, MaxMem= 10737418240 cpu:              16.0 elap:               1.1
 (Enter /home1/apps/gaussian/16rA.03/g16/l9999.exe)

 Test job not archived.
 1\1\GINC-C506-012\SP\ROCCSD(T)-Full\Gen\Cr1(7)\AANNABE\16-Mar-2018\0\\
 #P ROCCSD(T)=(maxcyc=150, Full)/Gen 5d 7f SCF=(maxcycles=200,NoVarAcc,
  VShift=300) MaxDisk=100GB Pop=Regular Pseudo=Read Guess=Read IOp(5/15
 =2)\\Cr\\0,7\Cr,0,0.,0.,0.\\Version=ES64L-G16RevA.03\State=7-A1G\HF=-8
 6.1288391\MP2=-86.6785554\MP3=-86.6703377\PUHF=-86.1288391\PMP2-0=-86.
 6785554\MP4SDQ=-86.6733978\CCSD=-86.6724876\CCSD(T)=-86.6893845\RMSD=5
 .151e-09\PG=OH [O(Cr1)]\\@


 MODELS ARE TO BE USED, NOT BELIEVED.

    -- PARAPHRASED BY H. THIEL IN "PRINCIPLES OF ECONOMETRICS"
 Job cpu time:       0 days  1 hours 12 minutes  8.3 seconds.
 Elapsed time:       0 days  0 hours  4 minutes 33.9 seconds.
 File lengths (MBytes):  RWF=   3120 Int=      0 D2E=      0 Chk=      8 Scr=      1
 Normal termination of Gaussian 16 at Fri Mar 16 16:10:44 2018.
