 Entering Gaussian System, Link 0=g16
 Initial command:
 /home1/apps/gaussian/16rA.03/g16/l1.exe "/tmp/Gau-47900.inp" -scrdir="/tmp/"
 Entering Link 1 = /home1/apps/gaussian/16rA.03/g16/l1.exe PID=     47901.
  
 Copyright (c) 1988,1990,1992,1993,1995,1998,2003,2009,2016,
            Gaussian, Inc.  All Rights Reserved.
  
 This is part of the Gaussian(R) 16 program.  It is based on
 the Gaussian(R) 09 system (copyright 2009, Gaussian, Inc.),
 the Gaussian(R) 03 system (copyright 2003, Gaussian, Inc.),
 the Gaussian(R) 98 system (copyright 1998, Gaussian, Inc.),
 the Gaussian(R) 94 system (copyright 1995, Gaussian, Inc.),
 the Gaussian 92(TM) system (copyright 1992, Gaussian, Inc.),
 the Gaussian 90(TM) system (copyright 1990, Gaussian, Inc.),
 the Gaussian 88(TM) system (copyright 1988, Gaussian, Inc.),
 the Gaussian 86(TM) system (copyright 1986, Carnegie Mellon
 University), and the Gaussian 82(TM) system (copyright 1983,
 Carnegie Mellon University). Gaussian is a federally registered
 trademark of Gaussian, Inc.
  
 This software contains proprietary and confidential information,
 including trade secrets, belonging to Gaussian, Inc.
  
 This software is provided under written license and may be
 used, copied, transmitted, or stored only in accord with that
 written license.
  
 The following legend is applicable only to US Government
 contracts under FAR:
  
                    RESTRICTED RIGHTS LEGEND
  
 Use, reproduction and disclosure by the US Government is
 subject to restrictions as set forth in subparagraphs (a)
 and (c) of the Commercial Computer Software - Restricted
 Rights clause in FAR 52.227-19.
  
 Gaussian, Inc.
 340 Quinnipiac St., Bldg. 40, Wallingford CT 06492
  
  
 ---------------------------------------------------------------
 Warning -- This program may not be used in any manner that
 competes with the business of Gaussian, Inc. or will provide
 assistance to any competitor of Gaussian, Inc.  The licensee
 of this program is prohibited from giving any competitor of
 Gaussian, Inc. access to this program.  By using this program,
 the user acknowledges that Gaussian, Inc. is engaged in the
 business of creating and licensing software in the field of
 computational chemistry and represents and warrants to the
 licensee that it is not a competitor of Gaussian, Inc. and that
 it will not use this program in any manner prohibited above.
 ---------------------------------------------------------------
  

 Cite this work as:
 Gaussian 16, Revision A.03,
 M. J. Frisch, G. W. Trucks, H. B. Schlegel, G. E. Scuseria, 
 M. A. Robb, J. R. Cheeseman, G. Scalmani, V. Barone, 
 G. A. Petersson, H. Nakatsuji, X. Li, M. Caricato, A. V. Marenich, 
 J. Bloino, B. G. Janesko, R. Gomperts, B. Mennucci, H. P. Hratchian, 
 J. V. Ortiz, A. F. Izmaylov, J. L. Sonnenberg, D. Williams-Young, 
 F. Ding, F. Lipparini, F. Egidi, J. Goings, B. Peng, A. Petrone, 
 T. Henderson, D. Ranasinghe, V. G. Zakrzewski, J. Gao, N. Rega, 
 G. Zheng, W. Liang, M. Hada, M. Ehara, K. Toyota, R. Fukuda, 
 J. Hasegawa, M. Ishida, T. Nakajima, Y. Honda, O. Kitao, H. Nakai, 
 T. Vreven, K. Throssell, J. A. Montgomery, Jr., J. E. Peralta, 
 F. Ogliaro, M. J. Bearpark, J. J. Heyd, E. N. Brothers, K. N. Kudin, 
 V. N. Staroverov, T. A. Keith, R. Kobayashi, J. Normand, 
 K. Raghavachari, A. P. Rendell, J. C. Burant, S. S. Iyengar, 
 J. Tomasi, M. Cossi, J. M. Millam, M. Klene, C. Adamo, R. Cammi, 
 J. W. Ochterski, R. L. Martin, K. Morokuma, O. Farkas, 
 J. B. Foresman, and D. J. Fox, Gaussian, Inc., Wallingford CT, 2016.
 
 ******************************************
 Gaussian 16:  ES64L-G16RevA.03 25-Dec-2016
                 2-Apr-2018 
 ******************************************
 %mem=80GB
 %chk=tz.chk
 %cpu=0-31
 SetSPE:  set environment variable "MP_BIND" = "yes"
 SetSPE:  set environment variable "MP_BLIST" = "0,1,2,3,4,5,6,7,8,9,10,11,12,13,14,15,16,17,18,19,20,21,22,23,24,25,26,27,28,29,30,31"
 Will use up to   32 processors via shared memory.
 ----------------------------------------------------------------------
 #P ROCCSD(T)=(MaxCyc=150, Full)/Gen SCF=(maxcycle=400) Pseudo=Read Int
 egral(NoXCTest) Pop=Regular MaxDisk=500GB Guess=Read IOp(5/15=2)
 ----------------------------------------------------------------------
 1/38=1,172=1/1;
 2/12=2,17=6,18=5,40=1/2;
 3/5=7,11=2,16=1,17=8,25=1,30=1,47=8,116=101/1,2,3;
 4/5=1/1;
 5/5=2,7=400,15=2,38=6/2;
 8/5=-1,6=4,9=120000,10=90/1,4;
 9/5=7,6=150,14=2/13;
 6//1;
 99/5=1,9=1/99;
 Leave Link    1 at Mon Apr  2 14:36:57 2018, MaxMem= 10737418240 cpu:               7.7 elap:               0.3
 (Enter /home1/apps/gaussian/16rA.03/g16/l101.exe)
 --
 Co
 --
 Symbolic Z-matrix:
 Charge =  0 Multiplicity = 4
 Co                    0.        0.        0. 
 
 ITRead=  0
 MicOpt= -1
 NAtoms=      1 NQM=        1 NQMF=       0 NMMI=      0 NMMIF=      0
                NMic=       0 NMicF=      0.
                    Isotopes and Nuclear Properties:
 (Nuclear quadrupole moments (NQMom) in fm**2, nuclear magnetic moments (NMagM)
  in nuclear magnetons)

  Atom         1
 IAtWgt=          59
 AtmWgt=  58.9331978
 NucSpn=           7
 AtZEff=  -0.0000000
 NQMom=   42.0000000
 NMagM=    4.6270000
 AtZNuc=  27.0000000
 Leave Link  101 at Mon Apr  2 14:36:57 2018, MaxMem= 10737418240 cpu:               3.2 elap:               0.1
 (Enter /home1/apps/gaussian/16rA.03/g16/l202.exe)
                          Input orientation:                          
 ---------------------------------------------------------------------
 Center     Atomic      Atomic             Coordinates (Angstroms)
 Number     Number       Type             X           Y           Z
 ---------------------------------------------------------------------
      1         27           0        0.000000    0.000000    0.000000
 ---------------------------------------------------------------------
 Stoichiometry    Co(4)
 Framework group  OH[O(Co)]
 Deg. of freedom     0
 Full point group                 OH      NOp  48
 Largest Abelian subgroup         D2H     NOp   8
 Largest concise Abelian subgroup C1      NOp   1
                         Standard orientation:                         
 ---------------------------------------------------------------------
 Center     Atomic      Atomic             Coordinates (Angstroms)
 Number     Number       Type             X           Y           Z
 ---------------------------------------------------------------------
      1         27           0        0.000000    0.000000    0.000000
 ---------------------------------------------------------------------
 Leave Link  202 at Mon Apr  2 14:36:58 2018, MaxMem= 10737418240 cpu:               1.2 elap:               0.1
 (Enter /home1/apps/gaussian/16rA.03/g16/l301.exe)
 General basis read from cards:  (5D, 7F)
 Centers:       1
 S 1 1.00
     Exponent=  4.6756750000D+06 Coefficients=  1.0000000000D+00
 S 1 1.00
     Exponent=  7.0016150000D+05 Coefficients=  1.0000000000D+00
 S 1 1.00
     Exponent=  1.5933730000D+05 Coefficients=  1.0000000000D+00
 S 1 1.00
     Exponent=  4.5130460000D+04 Coefficients=  1.0000000000D+00
 S 1 1.00
     Exponent=  1.4722380000D+04 Coefficients=  1.0000000000D+00
 S 1 1.00
     Exponent=  5.3142220000D+03 Coefficients=  1.0000000000D+00
 S 1 1.00
     Exponent=  2.0720180000D+03 Coefficients=  1.0000000000D+00
 S 1 1.00
     Exponent=  8.5861880000D+02 Coefficients=  1.0000000000D+00
 S 1 1.00
     Exponent=  3.7354970000D+02 Coefficients=  1.0000000000D+00
 S 1 1.00
     Exponent=  1.6892290000D+02 Coefficients=  1.0000000000D+00
 S 1 1.00
     Exponent=  7.8296390000D+01 Coefficients=  1.0000000000D+00
 S 1 1.00
     Exponent=  3.5521230000D+01 Coefficients=  1.0000000000D+00
 S 1 1.00
     Exponent=  1.7041440000D+01 Coefficients=  1.0000000000D+00
 S 1 1.00
     Exponent=  8.1730000000D+00 Coefficients=  1.0000000000D+00
 S 1 1.00
     Exponent=  3.6103180000D+00 Coefficients=  1.0000000000D+00
 S 1 1.00
     Exponent=  1.6970470000D+00 Coefficients=  1.0000000000D+00
 S 1 1.00
     Exponent=  7.4353200000D-01 Coefficients=  1.0000000000D+00
 S 1 1.00
     Exponent=  1.5834400000D-01 Coefficients=  1.0000000000D+00
 S 1 1.00
     Exponent=  7.5036000000D-02 Coefficients=  1.0000000000D+00
 S 1 1.00
     Exponent=  3.3091000000D-02 Coefficients=  1.0000000000D+00
 S 1 1.00
     Exponent=  5.2255000000D+00 Coefficients=  1.0000000000D+00
 S 1 1.00
     Exponent=  1.3638000000D+00 Coefficients=  1.0000000000D+00
 S 1 1.00
     Exponent=  1.4590000000D-02 Coefficients=  1.0000000000D+00
 P 1 1.00
     Exponent=  1.9267780000D+04 Coefficients=  1.0000000000D+00
 P 1 1.00
     Exponent=  4.5609860000D+03 Coefficients=  1.0000000000D+00
 P 1 1.00
     Exponent=  1.4814360000D+03 Coefficients=  1.0000000000D+00
 P 1 1.00
     Exponent=  5.6686710000D+02 Coefficients=  1.0000000000D+00
 P 1 1.00
     Exponent=  2.4049100000D+02 Coefficients=  1.0000000000D+00
 P 1 1.00
     Exponent=  1.0961050000D+02 Coefficients=  1.0000000000D+00
 P 1 1.00
     Exponent=  5.2594910000D+01 Coefficients=  1.0000000000D+00
 P 1 1.00
     Exponent=  2.6083610000D+01 Coefficients=  1.0000000000D+00
 P 1 1.00
     Exponent=  1.3261430000D+01 Coefficients=  1.0000000000D+00
 P 1 1.00
     Exponent=  6.7997780000D+00 Coefficients=  1.0000000000D+00
 P 1 1.00
     Exponent=  3.3934140000D+00 Coefficients=  1.0000000000D+00
 P 1 1.00
     Exponent=  1.6487660000D+00 Coefficients=  1.0000000000D+00
 P 1 1.00
     Exponent=  7.7628200000D-01 Coefficients=  1.0000000000D+00
 P 1 1.00
     Exponent=  2.9720900000D-01 Coefficients=  1.0000000000D+00
 P 1 1.00
     Exponent=  1.1335200000D-01 Coefficients=  1.0000000000D+00
 P 1 1.00
     Exponent=  4.1510000000D-02 Coefficients=  1.0000000000D+00
 P 1 1.00
     Exponent=  7.7411000000D+00 Coefficients=  1.0000000000D+00
 P 1 1.00
     Exponent=  1.7672000000D+00 Coefficients=  1.0000000000D+00
 P 1 1.00
     Exponent=  1.5200000000D-02 Coefficients=  1.0000000000D+00
 D 1 1.00
     Exponent=  1.2839200000D+02 Coefficients=  1.0000000000D+00
 D 1 1.00
     Exponent=  3.7893800000D+01 Coefficients=  1.0000000000D+00
 D 1 1.00
     Exponent=  1.3879800000D+01 Coefficients=  1.0000000000D+00
 D 1 1.00
     Exponent=  5.6254400000D+00 Coefficients=  1.0000000000D+00
 D 1 1.00
     Exponent=  2.3353900000D+00 Coefficients=  1.0000000000D+00
 D 1 1.00
     Exponent=  9.3519200000D-01 Coefficients=  1.0000000000D+00
 D 1 1.00
     Exponent=  3.4695300000D-01 Coefficients=  1.0000000000D+00
 D 1 1.00
     Exponent=  1.1172300000D-01 Coefficients=  1.0000000000D+00
 D 1 1.00
     Exponent=  5.1384000000D+00 Coefficients=  1.0000000000D+00
 D 1 1.00
     Exponent=  2.4056000000D+00 Coefficients=  1.0000000000D+00
 D 1 1.00
     Exponent=  3.5980000000D-02 Coefficients=  1.0000000000D+00
 F 1 1.00
     Exponent=  6.9240000000D+00 Coefficients=  1.0000000000D+00
 F 1 1.00
     Exponent=  2.6244000000D+00 Coefficients=  1.0000000000D+00
 F 1 1.00
     Exponent=  9.1700000000D-01 Coefficients=  1.0000000000D+00
 F 1 1.00
     Exponent=  3.2041000000D-01 Coefficients=  1.0000000000D+00
 G 1 1.00
     Exponent=  6.3248000000D+00 Coefficients=  1.0000000000D+00
 G 1 1.00
     Exponent=  2.4229000000D+00 Coefficients=  1.0000000000D+00
 G 1 1.00
     Exponent=  9.2816000000D-01 Coefficients=  1.0000000000D+00
 ****
 ======================================================================================================
                                       Pseudopotential Parameters
 ======================================================================================================
  Center     Atomic      Valence      Angular      Power
  Number     Number     Electrons     Momentum     of R      Exponent        Coefficient   SO-Coeffient
 ======================================================================================================
    1         27           17
                                      D and up 
                                                     1        4.1881932       17.00000000    0.00000000
                                                     3        4.4296881       71.19928469    0.00000000
                                                     2        4.3980067      -77.65278252    0.00000000
                                      S - D
                                                     2       10.8607544      113.90484511    0.00000000
                                      P - D
                                                     2        9.0520277       56.10698766    0.00000000
 ======================================================================================================
 Ernie: Thresh=  0.10000D-02 Tol=  0.10000D-05 Strict=F.
 There are    74 symmetry adapted cartesian basis functions of AG  symmetry.
 There are    20 symmetry adapted cartesian basis functions of B1G symmetry.
 There are    20 symmetry adapted cartesian basis functions of B2G symmetry.
 There are    20 symmetry adapted cartesian basis functions of B3G symmetry.
 There are     4 symmetry adapted cartesian basis functions of AU  symmetry.
 There are    31 symmetry adapted cartesian basis functions of B1U symmetry.
 There are    31 symmetry adapted cartesian basis functions of B2U symmetry.
 There are    31 symmetry adapted cartesian basis functions of B3U symmetry.
 There are    54 symmetry adapted basis functions of AG  symmetry.
 There are    17 symmetry adapted basis functions of B1G symmetry.
 There are    17 symmetry adapted basis functions of B2G symmetry.
 There are    17 symmetry adapted basis functions of B3G symmetry.
 There are     4 symmetry adapted basis functions of AU  symmetry.
 There are    27 symmetry adapted basis functions of B1U symmetry.
 There are    27 symmetry adapted basis functions of B2U symmetry.
 There are    27 symmetry adapted basis functions of B3U symmetry.
   190 basis functions,   231 primitive gaussians,   231 cartesian basis functions
    10 alpha electrons        7 beta electrons
       nuclear repulsion energy         0.0000000000 Hartrees.
 IExCor=    0 DFT=F Ex=HF Corr=None ExCW=0 ScaHFX=  1.000000
 ScaDFX=  1.000000  1.000000  1.000000  1.000000 ScalE2=  1.000000  1.000000
 IRadAn=      5 IRanWt=     -1 IRanGd=            0 ICorTp=0 IEmpDi=  4
 NAtoms=    1 NActive=    1 NUniq=    1 SFac= 1.00D+00 NAtFMM=   60 NAOKFM=F Big=F
 Integral buffers will be    131072 words long.
 Raffenetti 2 integral format.
 Two-electron integral symmetry is turned on.
 Leave Link  301 at Mon Apr  2 14:36:58 2018, MaxMem= 10737418240 cpu:               6.4 elap:               0.2
 (Enter /home1/apps/gaussian/16rA.03/g16/l302.exe)
 NPDir=0 NMtPBC=     1 NCelOv=     1 NCel=       1 NClECP=     1 NCelD=      1
         NCelK=      1 NCelE2=     1 NClLst=     1 CellRange=     0.0.
 One-electron integrals computed using PRISM.
 One-electron integral symmetry used in STVInt
  48 Symmetry operations used in ECPInt.
 ECPInt:  NShTT=    1830 NPrTT=    1830 LenC2=    1831 LenP2D=    1830.
 LDataN:  DoStor=T MaxTD1= 8 Len=  415
 NBasis=   190 RedAO= T EigKep=  2.21D-06  NBF=    54    17    17    17     4    27    27    27
 NBsUse=   190 1.00D-06 EigRej= -1.00D+00 NBFU=    54    17    17    17     4    27    27    27
 Leave Link  302 at Mon Apr  2 14:37:00 2018, MaxMem= 10737418240 cpu:              44.2 elap:               1.4
 (Enter /home1/apps/gaussian/16rA.03/g16/l303.exe)
 DipDrv:  MaxL=1.
 Leave Link  303 at Mon Apr  2 14:37:00 2018, MaxMem= 10737418240 cpu:               2.2 elap:               0.1
 (Enter /home1/apps/gaussian/16rA.03/g16/l401.exe)
 Initial guess from the checkpoint file:  "tz.chk"
 B after Tr=     0.000000    0.000000    0.000000
         Rot=    1.000000    0.000000    0.000000    0.000000 Ang=   0.00 deg.
 Guess basis will be translated and rotated to current coordinates.
 JPrj=2 DoOrth=T DoCkMO=T.
 Initial guess orbital symmetries:
       Occupied  (A1G) (?A) (?A) (?A) (?B) (?C) (A1G) (?B) (?B)
                 (?C)
       Virtual   (T1U) (T1U) (T1U) (A1G) (T1U) (T1U) (T1U) (EG)
                 (T2G) (T2G) (T2G) (EG) (A1G) (T1U) (T1U) (T1U)
                 (?C) (?B) (?B) (?C) (?B) (A1G) (T1U) (T1U) (T1U)
                 (?D) (?D) (A2U) (?D) (?D) (?D) (?D) (?B) (?C)
                 (?B) (?C) (?B) (A1G) (?A) (?A) (?A) (?A) (?A)
                 (?A) (?A) (?A) (A2U) (?A) (?E) (?F) (?E) (?F)
                 (?E) (?E) (?F) (?E) (?F) (?E) (?E) (?E) (?E) (?F)
                 (A1G) (T1U) (T1U) (T1U) (EG) (T2G) (T2G) (EG)
                 (T2G) (?D) (?D) (A2U) (?D) (?D) (?D) (?D) (?F)
                 (T2G) (?F) (T2G) (?F) (?F) (?F) (?F) (T2G) (T1U)
                 (T1U) (T1U) (A1G) (EG) (T2G) (T2G) (EG) (T2G)
                 (?D) (?D) (A2U) (?D) (?D) (?D) (?D) (T1U) (T1U)
                 (T1U) (?F) (?F) (?F) (?F) (?F) (?F) (?F) (?F)
                 (?F) (?F) (EG) (T2G) (T2G) (EG) (T2G) (T1U) (T1U)
                 (T1U) (EG) (T2G) (T2G) (EG) (T2G) (A1G) (T1U)
                 (T1U) (T1U) (A1G) (T2G) (EG) (T2G) (EG) (T2G)
                 (T1U) (T1U) (T1U) (A1G) (T1U) (T1U) (T1U) (A1G)
                 (T2G) (T2G) (EG) (EG) (T2G) (T1U) (T1U) (T1U)
                 (A1G) (T1U) (T1U) (T1U) (A1G) (T1U) (T1U) (T1U)
                 (A1G) (T1U) (T1U) (T1U) (A1G) (T1U) (T1U) (T1U)
                 (A1G) (A1G) (T1U) (T1U) (T1U) (A1G) (A1G) (A1G)
                 (A1G)
 Leave Link  401 at Mon Apr  2 14:37:01 2018, MaxMem= 10737418240 cpu:               9.1 elap:               0.3
 (Enter /home1/apps/gaussian/16rA.03/g16/l502.exe)
 Keep R1 and R2 ints in memory in symmetry-blocked form, NReq=200881053.
 FoFCou: FMM=F IPFlag=           8 FMFlag=           0 FMFlg1=           0
         NFxFlg=           0 DoJE=F BraDBF=F KetDBF=F FulRan=T
         wScrn=  0.000000 ICntrl=       600 IOpCl=  0 I1Cent=           0 NGrid=           0
         NMat0=    1 NMatS0=  18145 NMatT0=    0 NMatD0=    1 NMtDS0=    0 NMtDT0=    0
 Petite list used in FoFCou.
 Restricted open shell SCF:
 Using DIIS extrapolation, IDIIS=  1040.
 NGot= 10737418240 LenX= 10694695884 LenY= 10694642082
 Requested convergence on RMS density matrix=1.00D-08 within 400 cycles.
 Requested convergence on MAX density matrix=1.00D-06.
 Requested convergence on             energy=1.00D-06.
 No special actions if energy rises.

 Cycle   1  Pass 1  IDiag  1:
 Density matrix breaks symmetry, PCut= 1.00D-07
 Density has only Abelian symmetry.
 E= -143.816345992020    
 DIIS: error= 6.74D-01 at cycle   1 NSaved=   1.
 NSaved= 1 IEnMin= 1 EnMin= -143.816345992020     IErMin= 1 ErrMin= 6.74D-01
 ErrMax= 6.74D-01  0.00D+00 EMaxC= 1.00D-01 BMatC= 4.00D+01 BMatP= 4.00D+01
 IDIUse=3 WtCom= 0.00D+00 WtEn= 1.00D+00
 Coeff-Com:  0.100D+01
 Coeff-En:   0.100D+01
 Coeff:      0.100D+01
 Gap=     0.153 Goal=   None    Shift=    0.000
 GapD=    0.153 DampG=1.000 DampE=0.125 DampFc=0.1250 IDamp=-1.
 Damping current iteration by 1.25D-01
 RMSDP=1.42D-02 MaxDP=5.96D-01              OVMax= 5.13D-02

 Cycle   2  Pass 1  IDiag  1:
 Density matrix breaks symmetry, PCut= 1.00D-07
 Density has only Abelian symmetry.
 E= -143.954732758953     Delta-E=       -0.138386766934 Rises=F Damp=T
 DIIS: error= 5.90D-01 at cycle   2 NSaved=   2.
 NSaved= 2 IEnMin= 2 EnMin= -143.954732758953     IErMin= 2 ErrMin= 5.90D-01
 ErrMax= 5.90D-01  0.00D+00 EMaxC= 1.00D-01 BMatC= 3.06D+01 BMatP= 4.00D+01
 IDIUse=3 WtCom= 0.00D+00 WtEn= 1.00D+00
 Coeff-Com: -0.694D+01 0.794D+01
 Coeff-En:   0.000D+00 0.100D+01
 Coeff:      0.000D+00 0.100D+01
 Gap=     0.172 Goal=   None    Shift=    0.000
 RMSDP=1.20D-02 MaxDP=4.80D-01 DE=-1.38D-01 OVMax= 3.55D-02

 Cycle   3  Pass 1  IDiag  1:
 Density matrix breaks symmetry, PCut= 1.00D-07
 Density has only Abelian symmetry.
 E= -144.940424350511     Delta-E=       -0.985691591558 Rises=F Damp=F
 DIIS: error= 2.83D-02 at cycle   3 NSaved=   3.
 NSaved= 3 IEnMin= 3 EnMin= -144.940424350511     IErMin= 3 ErrMin= 2.83D-02
 ErrMax= 2.83D-02  0.00D+00 EMaxC= 1.00D-01 BMatC= 3.50D-02 BMatP= 3.06D+01
 IDIUse=3 WtCom= 7.17D-01 WtEn= 2.83D-01
 Coeff-Com:  0.775D+00-0.908D+00 0.113D+01
 Coeff-En:   0.000D+00 0.000D+00 0.100D+01
 Coeff:      0.556D+00-0.651D+00 0.110D+01
 Gap=     0.134 Goal=   None    Shift=    0.000
 RMSDP=7.21D-04 MaxDP=3.18D-02 DE=-9.86D-01 OVMax= 5.15D-02

 Cycle   4  Pass 1  IDiag  1:
 Density matrix breaks symmetry, PCut= 1.00D-07
 Density has only Abelian symmetry.
 E= -144.941898305743     Delta-E=       -0.001473955232 Rises=F Damp=F
 DIIS: error= 1.34D-02 at cycle   4 NSaved=   4.
 NSaved= 4 IEnMin= 4 EnMin= -144.941898305743     IErMin= 4 ErrMin= 1.34D-02
 ErrMax= 1.34D-02  0.00D+00 EMaxC= 1.00D-01 BMatC= 8.24D-03 BMatP= 3.50D-02
 IDIUse=3 WtCom= 8.66D-01 WtEn= 1.34D-01
 Coeff-Com:  0.130D+00-0.155D+00 0.389D+00 0.636D+00
 Coeff-En:   0.000D+00 0.000D+00 0.429D+00 0.571D+00
 Coeff:      0.112D+00-0.135D+00 0.395D+00 0.628D+00
 Gap=     0.149 Goal=   None    Shift=    0.000
 RMSDP=8.70D-04 MaxDP=4.87D-02 DE=-1.47D-03 OVMax= 6.45D-02

 Cycle   5  Pass 1  IDiag  1:
 Density matrix breaks symmetry, PCut= 1.00D-07
 Density has only Abelian symmetry.
 E= -144.943989671170     Delta-E=       -0.002091365427 Rises=F Damp=F
 DIIS: error= 5.14D-03 at cycle   5 NSaved=   5.
 NSaved= 5 IEnMin= 5 EnMin= -144.943989671170     IErMin= 5 ErrMin= 5.14D-03
 ErrMax= 5.14D-03  0.00D+00 EMaxC= 1.00D-01 BMatC= 1.25D-03 BMatP= 8.24D-03
 IDIUse=3 WtCom= 9.49D-01 WtEn= 5.14D-02
 Coeff-Com:  0.469D-02-0.823D-02 0.164D+00 0.321D+00 0.519D+00
 Coeff-En:   0.000D+00 0.000D+00 0.000D+00 0.408D+00 0.592D+00
 Coeff:      0.445D-02-0.781D-02 0.155D+00 0.325D+00 0.523D+00
 Gap=     0.149 Goal=   None    Shift=    0.000
 RMSDP=8.43D-04 MaxDP=5.41D-02 DE=-2.09D-03 OVMax= 4.00D-02

 Cycle   6  Pass 1  IDiag  1:
 Density matrix breaks symmetry, PCut= 1.00D-07
 Density has only Abelian symmetry.
 E= -144.945486318990     Delta-E=       -0.001496647820 Rises=F Damp=F
 DIIS: error= 1.83D-03 at cycle   6 NSaved=   6.
 NSaved= 6 IEnMin= 6 EnMin= -144.945486318990     IErMin= 6 ErrMin= 1.83D-03
 ErrMax= 1.83D-03  0.00D+00 EMaxC= 1.00D-01 BMatC= 2.11D-04 BMatP= 1.25D-03
 IDIUse=3 WtCom= 9.82D-01 WtEn= 1.83D-02
 EnCoef did    30 forward-backward iterations
 Coeff-Com:  0.302D-01-0.343D-01-0.971D-02 0.940D-02 0.280D+00 0.724D+00
 Coeff-En:   0.000D+00 0.000D+00 0.000D+00 0.116D+00 0.390D+00 0.494D+00
 Coeff:      0.297D-01-0.336D-01-0.953D-02 0.114D-01 0.282D+00 0.720D+00
 Gap=     0.148 Goal=   None    Shift=    0.000
 RMSDP=3.94D-04 MaxDP=2.90D-02 DE=-1.50D-03 OVMax= 1.08D-02

 Cycle   7  Pass 1  IDiag  1:
 Density matrix breaks symmetry, PCut= 1.00D-07
 Density has only Abelian symmetry.
 E= -144.945746497547     Delta-E=       -0.000260178556 Rises=F Damp=F
 DIIS: error= 3.43D-04 at cycle   7 NSaved=   7.
 NSaved= 7 IEnMin= 7 EnMin= -144.945746497547     IErMin= 7 ErrMin= 3.43D-04
 ErrMax= 3.43D-04  0.00D+00 EMaxC= 1.00D-01 BMatC= 3.30D-06 BMatP= 2.11D-04
 IDIUse=3 WtCom= 9.97D-01 WtEn= 3.43D-03
 Rare condition: small coef for last iteration: -0.444D-15
 Coeff-Com:  0.288D-01-0.329D-01 0.663D-03-0.191D-02 0.392D-01 0.115D+00
 Coeff-Com:  0.851D+00
 Coeff-En:   0.000D+00 0.000D+00 0.000D+00 0.613D-01 0.137D+00 0.755D-01
 Coeff-En:   0.726D+00
 Coeff:      0.288D-01-0.329D-01 0.663D-03-0.191D-02 0.392D-01 0.115D+00
 Coeff:      0.851D+00
 Gap=     0.148 Goal=   None    Shift=    0.000
 RMSDP=5.41D-05 MaxDP=4.23D-03 DE=-2.60D-04 OVMax= 5.22D-04

 Cycle   8  Pass 1  IDiag  1:
 Density matrix breaks symmetry, PCut= 1.00D-07
 Density has only Abelian symmetry.
 E= -144.945748269516     Delta-E=       -0.000001771970 Rises=F Damp=F
 DIIS: error= 2.48D-04 at cycle   8 NSaved=   8.
 NSaved= 8 IEnMin= 8 EnMin= -144.945748269516     IErMin= 8 ErrMin= 2.48D-04
 ErrMax= 2.48D-04  0.00D+00 EMaxC= 1.00D-01 BMatC= 1.36D-06 BMatP= 3.30D-06
 IDIUse=3 WtCom= 9.98D-01 WtEn= 2.48D-03
 EnCoef did   100 forward-backward iterations
 Rare condition: small coef for last iteration:  0.000D+00
 Coeff-Com:  0.184D-01-0.210D-01 0.490D-02-0.621D-02-0.336D-01-0.692D-01
 Coeff-Com:  0.121D+00 0.986D+00
 Coeff-En:   0.000D+00 0.000D+00 0.000D+00 0.605D-01 0.135D+00 0.753D-01
 Coeff-En:   0.000D+00 0.729D+00
 Coeff:      0.184D-01-0.210D-01 0.490D-02-0.621D-02-0.336D-01-0.692D-01
 Coeff:      0.121D+00 0.986D+00
 Gap=     0.148 Goal=   None    Shift=    0.000
 RMSDP=1.55D-05 MaxDP=1.20D-03 DE=-1.77D-06 OVMax= 4.81D-05

 Cycle   9  Pass 1  IDiag  1:
 Density matrix breaks symmetry, PCut= 1.00D-07
 Density has only Abelian symmetry.
 E= -144.945748357255     Delta-E=       -0.000000087738 Rises=F Damp=F
 DIIS: error= 1.76D-04 at cycle   9 NSaved=   9.
 NSaved= 9 IEnMin= 9 EnMin= -144.945748357255     IErMin= 9 ErrMin= 1.76D-04
 ErrMax= 1.76D-04  0.00D+00 EMaxC= 1.00D-01 BMatC= 7.10D-07 BMatP= 1.36D-06
 IDIUse=3 WtCom= 9.98D-01 WtEn= 1.76D-03
 EnCoef did   100 forward-backward iterations
 Coeff-Com:  0.155D-01-0.177D-01 0.281D-02-0.180D-02-0.344D-02-0.252D-02
 Coeff-Com:  0.605D-01 0.319D-01 0.915D+00
 Coeff-En:   0.000D+00 0.000D+00 0.000D+00 0.115D+00 0.385D+00 0.484D+00
 Coeff-En:   0.000D+00 0.000D+00 0.159D-01
 Coeff:      0.155D-01-0.177D-01 0.281D-02-0.159D-02-0.276D-02-0.166D-02
 Coeff:      0.604D-01 0.319D-01 0.913D+00
 Gap=     0.148 Goal=   None    Shift=    0.000
 RMSDP=1.78D-06 MaxDP=1.22D-04 DE=-8.77D-08 OVMax= 6.56D-05

 Cycle  10  Pass 1  IDiag  1:
 Density matrix breaks symmetry, PCut= 1.00D-07
 Density has only Abelian symmetry.
 E= -144.945748469626     Delta-E=       -0.000000112371 Rises=F Damp=F
 DIIS: error= 1.46D-04 at cycle  10 NSaved=  10.
 NSaved=10 IEnMin=10 EnMin= -144.945748469626     IErMin=10 ErrMin= 1.46D-04
 ErrMax= 1.46D-04  0.00D+00 EMaxC= 1.00D-01 BMatC= 5.22D-07 BMatP= 7.10D-07
 IDIUse=3 WtCom= 9.99D-01 WtEn= 1.46D-03
 EnCoef did   100 forward-backward iterations
 Rare condition: small coef for last iteration:  0.282D-15
 Coeff-Com:  0.115D-01-0.131D-01 0.208D-02-0.341D-03-0.341D-02-0.627D-02
 Coeff-Com:  0.418D-01 0.167D-01-0.788D+00 0.174D+01
 Coeff-En:   0.000D+00 0.000D+00 0.000D+00 0.606D-01 0.135D+00 0.782D-01
 Coeff-En:   0.000D+00 0.000D+00 0.000D+00 0.726D+00
 Coeff:      0.115D-01-0.131D-01 0.208D-02-0.341D-03-0.341D-02-0.627D-02
 Coeff:      0.418D-01 0.167D-01-0.788D+00 0.174D+01
 Gap=     0.147 Goal=   None    Shift=    0.000
 RMSDP=3.27D-06 MaxDP=2.41D-04 DE=-1.12D-07 OVMax= 9.40D-05

 Cycle  11  Pass 1  IDiag  1:
 Density matrix breaks symmetry, PCut= 1.00D-07
 Density has only Abelian symmetry.
 E= -144.945748588939     Delta-E=       -0.000000119313 Rises=F Damp=F
 DIIS: error= 1.08D-04 at cycle  11 NSaved=  11.
 NSaved=11 IEnMin=11 EnMin= -144.945748588939     IErMin=11 ErrMin= 1.08D-04
 ErrMax= 1.08D-04  0.00D+00 EMaxC= 1.00D-01 BMatC= 2.84D-07 BMatP= 5.22D-07
 IDIUse=3 WtCom= 9.99D-01 WtEn= 1.08D-03
 EnCoef did   100 forward-backward iterations
 Coeff-Com:  0.966D-02-0.110D-01 0.174D-02-0.204D-03-0.282D-02-0.519D-02
 Coeff-Com:  0.350D-01 0.130D-01-0.854D+00 0.132D+01 0.489D+00
 Coeff-En:   0.000D+00 0.000D+00 0.000D+00 0.115D+00 0.385D+00 0.484D+00
 Coeff-En:   0.000D+00 0.000D+00 0.000D+00 0.000D+00 0.159D-01
 Coeff:      0.965D-02-0.110D-01 0.173D-02-0.791D-04-0.240D-02-0.466D-02
 Coeff:      0.350D-01 0.129D-01-0.853D+00 0.132D+01 0.489D+00
 Gap=     0.147 Goal=   None    Shift=    0.000
 RMSDP=2.09D-06 MaxDP=1.23D-04 DE=-1.19D-07 OVMax= 7.74D-05

 Cycle  12  Pass 1  IDiag  1:
 Density matrix breaks symmetry, PCut= 1.00D-07
 Density has only Abelian symmetry.
 E= -144.945748630399     Delta-E=       -0.000000041460 Rises=F Damp=F
 DIIS: error= 9.14D-05 at cycle  12 NSaved=  12.
 NSaved=12 IEnMin=12 EnMin= -144.945748630399     IErMin=12 ErrMin= 9.14D-05
 ErrMax= 9.14D-05  0.00D+00 EMaxC= 1.00D-01 BMatC= 2.02D-07 BMatP= 2.84D-07
 IDIUse=1 WtCom= 1.00D+00 WtEn= 0.00D+00
 Coeff-Com:  0.125D-02-0.143D-02 0.173D-03-0.280D-03 0.116D-02 0.375D-02
 Coeff-Com:  0.443D-02-0.123D-01 0.126D+00-0.187D+01 0.976D+00 0.177D+01
 Coeff:      0.125D-02-0.143D-02 0.173D-03-0.280D-03 0.116D-02 0.375D-02
 Coeff:      0.443D-02-0.123D-01 0.126D+00-0.187D+01 0.976D+00 0.177D+01
 Gap=     0.147 Goal=   None    Shift=    0.000
 RMSDP=5.83D-06 MaxDP=4.54D-04 DE=-4.15D-08 OVMax= 1.74D-04

 Cycle  13  Pass 1  IDiag  1:
 Density matrix breaks symmetry, PCut= 1.00D-07
 Density has only Abelian symmetry.
 E= -144.945748731423     Delta-E=       -0.000000101024 Rises=F Damp=F
 DIIS: error= 1.16D-05 at cycle  13 NSaved=  13.
 NSaved=13 IEnMin=13 EnMin= -144.945748731423     IErMin=13 ErrMin= 1.16D-05
 ErrMax= 1.16D-05  0.00D+00 EMaxC= 1.00D-01 BMatC= 3.46D-09 BMatP= 2.02D-07
 IDIUse=1 WtCom= 1.00D+00 WtEn= 0.00D+00
 Coeff-Com:  0.283D-03-0.323D-03 0.527D-04 0.802D-04-0.190D-03-0.497D-03
 Coeff-Com:  0.471D-03-0.892D-03 0.234D-01 0.530D+00-0.377D+00-0.598D+00
 Coeff-Com:  0.142D+01
 Coeff:      0.283D-03-0.323D-03 0.527D-04 0.802D-04-0.190D-03-0.497D-03
 Coeff:      0.471D-03-0.892D-03 0.234D-01 0.530D+00-0.377D+00-0.598D+00
 Coeff:      0.142D+01
 Gap=     0.147 Goal=   None    Shift=    0.000
 RMSDP=6.33D-07 MaxDP=4.86D-05 DE=-1.01D-07 OVMax= 1.90D-05

 Cycle  14  Pass 1  IDiag  1:
 Density matrix breaks symmetry, PCut= 1.00D-07
 Density has only Abelian symmetry.
 E= -144.945748733019     Delta-E=       -0.000000001595 Rises=F Damp=F
 DIIS: error= 2.70D-06 at cycle  14 NSaved=  14.
 NSaved=14 IEnMin=14 EnMin= -144.945748733019     IErMin=14 ErrMin= 2.70D-06
 ErrMax= 2.70D-06  0.00D+00 EMaxC= 1.00D-01 BMatC= 1.71D-10 BMatP= 3.46D-09
 IDIUse=1 WtCom= 1.00D+00 WtEn= 0.00D+00
 Coeff-Com:  0.283D-04-0.324D-04 0.553D-05 0.711D-05-0.308D-04-0.911D-04
 Coeff-Com:  0.184D-03 0.197D-03-0.451D-02 0.634D-01-0.448D-01-0.735D-01
 Coeff-Com:  0.510D-01 0.101D+01
 Coeff:      0.283D-04-0.324D-04 0.553D-05 0.711D-05-0.308D-04-0.911D-04
 Coeff:      0.184D-03 0.197D-03-0.451D-02 0.634D-01-0.448D-01-0.735D-01
 Coeff:      0.510D-01 0.101D+01
 Gap=     0.147 Goal=   None    Shift=    0.000
 RMSDP=1.79D-07 MaxDP=1.38D-05 DE=-1.60D-09 OVMax= 5.40D-06

 Cycle  15  Pass 1  IDiag  1:
 Density matrix breaks symmetry, PCut= 1.00D-07
 Density has only Abelian symmetry.
 E= -144.945748733105     Delta-E=       -0.000000000086 Rises=F Damp=F
 DIIS: error= 2.60D-07 at cycle  15 NSaved=  15.
 NSaved=15 IEnMin=15 EnMin= -144.945748733105     IErMin=15 ErrMin= 2.60D-07
 ErrMax= 2.60D-07  0.00D+00 EMaxC= 1.00D-01 BMatC= 2.16D-12 BMatP= 1.71D-10
 IDIUse=1 WtCom= 1.00D+00 WtEn= 0.00D+00
 Coeff-Com: -0.124D-04 0.142D-04-0.221D-05-0.536D-05 0.271D-05 0.118D-05
 Coeff-Com:  0.832D-04 0.251D-03-0.600D-02-0.231D-01 0.166D-01 0.240D-01
 Coeff-Com: -0.137D+00 0.650D+00 0.475D+00
 Coeff:     -0.124D-04 0.142D-04-0.221D-05-0.536D-05 0.271D-05 0.118D-05
 Coeff:      0.832D-04 0.251D-03-0.600D-02-0.231D-01 0.166D-01 0.240D-01
 Coeff:     -0.137D+00 0.650D+00 0.475D+00
 Gap=     0.147 Goal=   None    Shift=    0.000
 RMSDP=4.63D-08 MaxDP=2.40D-06 DE=-8.63D-11 OVMax= 1.36D-06

 Cycle  16  Pass 1  IDiag  1:
 Density matrix breaks symmetry, PCut= 1.00D-07
 Density has only Abelian symmetry.
 E= -144.945748733106     Delta-E=       -0.000000000001 Rises=F Damp=F
 DIIS: error= 1.15D-07 at cycle  16 NSaved=  16.
 NSaved=16 IEnMin=16 EnMin= -144.945748733106     IErMin=16 ErrMin= 1.15D-07
 ErrMax= 1.15D-07  0.00D+00 EMaxC= 1.00D-01 BMatC= 3.35D-13 BMatP= 2.16D-12
 IDIUse=1 WtCom= 1.00D+00 WtEn= 0.00D+00
 Coeff-Com: -0.477D-05 0.545D-05-0.838D-06-0.202D-05 0.101D-05 0.158D-05
 Coeff-Com:  0.222D-04 0.984D-04-0.195D-02-0.954D-02 0.740D-02 0.109D-01
 Coeff-Com: -0.458D-01 0.168D+00 0.156D+00 0.715D+00
 Coeff:     -0.477D-05 0.545D-05-0.838D-06-0.202D-05 0.101D-05 0.158D-05
 Coeff:      0.222D-04 0.984D-04-0.195D-02-0.954D-02 0.740D-02 0.109D-01
 Coeff:     -0.458D-01 0.168D+00 0.156D+00 0.715D+00
 Gap=     0.147 Goal=   None    Shift=    0.000
 RMSDP=6.90D-09 MaxDP=4.61D-07 DE=-1.22D-12 OVMax= 2.62D-07

 Density matrix breaks symmetry, PCut= 1.00D-07
 Density has only Abelian symmetry.
 SCF Done:  E(ROHF) =  -144.945748733     A.U. after   16 cycles
            NFock= 16  Conv=0.69D-08     -V/T= 2.7115
 <Sx>= 0.0000 <Sy>= 0.0000 <Sz>= 1.5000 <S**2>= 3.7500 S= 1.5000
 <L.S>=  0.00000000000    
 KE= 8.469097504372D+01 PE=-3.423348698049D+02 EE= 1.126981460280D+02
 Annihilation of the first spin contaminant:
 S**2 before annihilation     3.7500,   after     3.7500
 Leave Link  502 at Mon Apr  2 14:37:15 2018, MaxMem= 10737418240 cpu:             411.0 elap:              13.2
 (Enter /home1/apps/gaussian/16rA.03/g16/l801.exe)
 Windowed orbitals will be sorted by symmetry type.
 Density matrix breaks symmetry, PCut= 1.00D-07
 Density has only Abelian symmetry.
 GenMOA:  NOpAll= 48 NOp2=8 NOpUse=  8 JSym2X=1
 FoFJK:  IHMeth= 1 ICntrl=       0 DoSepK=F KAlg= 0 I1Cent=           0 FoldK=F
 IRaf=         0 NMat=       1 IRICut=       1 DoRegI=T DoRafI=F ISym2E= 1 IDoP0=0 IntGTp=1.
 FoFCou: FMM=F IPFlag=           8 FMFlag=      100000 FMFlg1=           0
         NFxFlg=           0 DoJE=F BraDBF=F KetDBF=F FulRan=T
         wScrn=  0.000000 ICntrl=         0 IOpCl=  1 I1Cent=           0 NGrid=           0
         NMat0=    1 NMatS0=      1 NMatT0=    0 NMatD0=    1 NMtDS0=    0 NMtDT0=    0
 Petite list used in FoFCou.
 <Sx>= 0.0000 <Sy>= 0.0000 <Sz>= 1.5000 <S**2>= 3.7500 S= 1.5000
 Range of M.O.s used for correlation:     1   190
 NBasis=   190 NAE=    10 NBE=     7 NFC=     0 NFV=     0
 NROrb=    190 NOA=    10 NOB=     7 NVA=   180 NVB=   183

 **** Warning!!: The largest alpha MO coefficient is  0.19851023D+03


 **** Warning!!: The largest beta MO coefficient is  0.19824553D+03

 Singles contribution to E2=   -0.7957765626D-02
 Leave Link  801 at Mon Apr  2 14:37:19 2018, MaxMem= 10737418240 cpu:              94.0 elap:               3.0
 (Enter /home1/apps/gaussian/16rA.03/g16/l804.exe)
 Open-shell transformation, MDV= 10737418240 ITran=4 ISComp=2.
 Unit  1 TFree=       1087363 TCopy=        991833.
 Semi-Direct transformation.
 ModeAB=           2 MOrb=            10 LenV=   10736175667
 LASXX=      4276431 LTotXX=     4276431 LenRXX=     4276431
 LTotAB=     4380873 MaxLAS=    50912400 LenRXY=    50912400
 NonZer=    52274700 LenScr=    79171584 LnRSAI=           0
 LnScr1=           0 LExtra=     4379397 Total=    138739812
 MaxDsk= 67108864000 SrtSym=           F ITran=            4
 DoSDTr:  NPSUse= 32
 JobTyp=1 Pass  1:  I=   1 to  10.
 (rs|ai) integrals will be sorted in core.
 Complete sort for first half transformation.
 First half transformation complete.
 Begin second half transformation for I=  10.
 Begin second half transformation for I=  10.
 Complete sort for second half transformation.
 Second half transformation complete.
 ModeAB=           2 MOrb=             7 LenV=   10736175667
 LASXX=      3052523 LTotXX=     3052523 LenRXX=    35638680
 LTotAB=     2802102 MaxLAS=    35638680 LenRXY=     2802102
 NonZer=    36592290 LenScr=    55654912 LnRSAI=           0
 LnScr1=           0 LExtra=    59568228 Total=    153663922
 MaxDsk= 67108864000 SrtSym=           F ITran=            4
 DoSDTr:  NPSUse= 32
 JobTyp=2 Pass  1:  I=   1 to   7.
 (rs|ai) integrals will be sorted in core.
 Complete sort for first half transformation.
 First half transformation complete.
 Complete sort for second half transformation.
 Second half transformation complete.
 Spin components of T(2) and E(2):
     alpha-alpha T2 =       0.1919624157D-01 E2=     -0.1507708862D+00
     alpha-beta  T2 =       0.8003181022D-01 E2=     -0.5244208457D+00
     beta-beta   T2 =       0.8680367159D-02 E2=     -0.6942769041D-01
 ANorm=    0.1053556093D+01
 E2 =    -0.7525771880D+00 EUMP2 =    -0.14569832592108D+03
 (S**2,0)=  0.37500D+01           (S**2,1)=  0.37500D+01
 E(PUHF)=      -0.14494574873D+03        E(PMP2)=      -0.14569832592D+03
 Leave Link  804 at Mon Apr  2 14:38:34 2018, MaxMem= 10737418240 cpu:            2394.1 elap:              74.8
 (Enter /home1/apps/gaussian/16rA.03/g16/l913.exe)
 CIDS:  MDV= 10737418240.
 IFCWin=0 IBDFC=1 NFBD=     0     0 NFCmp=     0     0 NFFFC=     0     0
 Using original routines for 1st iteration.
 Using DD4UQ or CC4UQ for 2nd and later iterations.
 Keep R2 and R3 ints in memory in symmetry-blocked form, NReq=200893378.
 FoFCou: FMM=F IPFlag=           8 FMFlag=           0 FMFlg1=           0
         NFxFlg=           0 DoJE=F BraDBF=F KetDBF=F FulRan=T
         wScrn=  0.000000 ICntrl=       600 IOpCl=  0 I1Cent=           0 NGrid=           0
         NMat0=    1 NMatS0=  18145 NMatT0=    0 NMatD0=    1 NMtDS0=    0 NMtDT0=    0
 Petite list used in FoFCou.
 CIDS: In Core Option IDoMem=           1.
 CCSD(T)
 =======
 Iterations= 150 Convergence= 0.100D-06
 Produce multiple copies of IABC intergrals
 Iteration Nr.   1
 **********************
 DD1Dir will call FoFMem   1 times, MxPair=       206
 NAB=    70 NAA=    45 NBB=    21.
 DD1Dir will call FoFMem   1 times, MxPair=       206
 NAB=    70 NAA=    45 NBB=    21.
 MP4(R+Q)= -0.19654686D-01
 Maximum subspace dimension=  5
 A-vector RMS=  1.8240870D-04 Max=  4.8594478D-03 conv= 1.00D-05.
 RLE energy=       -0.7452441557
 E3=        0.26922197D-01        EROMP3=      -0.14567140372D+03
 E4(SDQ)=  -0.17801603D-01        ROMP4(SDQ)=  -0.14568920533D+03
 VARIATIONAL ENERGIES WITH THE FIRST-ORDER WAVEFUNCTION:
 DE(Corr)= -0.74517065     E(Corr)=     -145.69091938    
 NORM(A)=   0.10498811D+01
 Iteration Nr.   2
 **********************
 DD1Dir will call FoFMem   1 times, MxPair=       206
 NAB=    70 NAA=    45 NBB=    21.
 A-vector RMS=  3.1278067D-03 Max=  3.3892314D-02 conv= 1.00D-05.
 RLE energy=       -0.7395829691
 DE(Corr)= -0.71723785     E(CORR)=     -145.66298658     Delta= 2.79D-02
 NORM(A)=   0.10501451D+01
 Iteration Nr.   3
 **********************
 DD1Dir will call FoFMem   1 times, MxPair=       206
 NAB=    70 NAA=    45 NBB=    21.
 A-vector RMS=  2.5374968D-03 Max=  2.9311996D-02 conv= 1.00D-05.
 RLE energy=       -0.7399254774
 DE(Corr)= -0.72146467     E(CORR)=     -145.66721340     Delta=-4.23D-03
 NORM(A)=   0.10552499D+01
 Iteration Nr.   4
 **********************
 DD1Dir will call FoFMem   1 times, MxPair=       206
 NAB=    70 NAA=    45 NBB=    21.
 A-vector RMS=  1.7052213D-03 Max=  1.8352880D-02 conv= 1.00D-05.
 RLE energy=       -0.7377790319
 DE(Corr)= -0.72806278     E(CORR)=     -145.67381152     Delta=-6.60D-03
 NORM(A)=   0.10732843D+01
 Iteration Nr.   5
 **********************
 DD1Dir will call FoFMem   1 times, MxPair=       206
 NAB=    70 NAA=    45 NBB=    21.
 A-vector RMS=  5.8243435D-04 Max=  4.9949871D-03 conv= 1.00D-05.
 RLE energy=       -0.7389190196
 DE(Corr)= -0.74292893     E(CORR)=     -145.68867767     Delta=-1.49D-02
 NORM(A)=   0.10694042D+01
 Iteration Nr.   6
 **********************
 DD1Dir will call FoFMem   1 times, MxPair=       206
 NAB=    70 NAA=    45 NBB=    21.
 A-vector RMS=  6.4795647D-05 Max=  6.8222632D-04 conv= 1.00D-05.
 RLE energy=       -0.7390110834
 DE(Corr)= -0.73944018     E(CORR)=     -145.68518892     Delta= 3.49D-03
 NORM(A)=   0.10689090D+01
 Iteration Nr.   7
 **********************
 DD1Dir will call FoFMem   1 times, MxPair=       206
 NAB=    70 NAA=    45 NBB=    21.
 A-vector RMS=  1.0472826D-05 Max=  1.2157994D-04 conv= 1.00D-05.
 RLE energy=       -0.7390059049
 DE(Corr)= -0.73900146     E(CORR)=     -145.68475019     Delta= 4.39D-04
 NORM(A)=   0.10689350D+01
 Iteration Nr.   8
 **********************
 DD1Dir will call FoFMem   1 times, MxPair=       206
 NAB=    70 NAA=    45 NBB=    21.
 A-vector RMS=  1.2077535D-05 Max=  1.8112500D-04 conv= 1.00D-05.
 RLE energy=       -0.7390079328
 DE(Corr)= -0.73902059     E(CORR)=     -145.68476932     Delta=-1.91D-05
 NORM(A)=   0.10689153D+01
 Iteration Nr.   9
 **********************
 DD1Dir will call FoFMem   1 times, MxPair=       206
 NAB=    70 NAA=    45 NBB=    21.
 A-vector RMS=  4.6717027D-06 Max=  5.7155746D-05 conv= 1.00D-05.
 RLE energy=       -0.7390170247
 DE(Corr)= -0.73900983     E(CORR)=     -145.68475857     Delta= 1.08D-05
 NORM(A)=   0.10689148D+01
 Iteration Nr.  10
 **********************
 DD1Dir will call FoFMem   1 times, MxPair=       206
 NAB=    70 NAA=    45 NBB=    21.
 A-vector RMS=  2.4481749D-06 Max=  3.5693085D-05 conv= 1.00D-05.
 RLE energy=       -0.7390182249
 DE(Corr)= -0.73901466     E(CORR)=     -145.68476339     Delta=-4.83D-06
 NORM(A)=   0.10689080D+01
 Iteration Nr.  11
 **********************
 DD1Dir will call FoFMem   1 times, MxPair=       206
 NAB=    70 NAA=    45 NBB=    21.
 A-vector RMS=  8.9775801D-07 Max=  1.0661243D-05 conv= 1.00D-05.
 RLE energy=       -0.7390113672
 DE(Corr)= -0.73901190     E(CORR)=     -145.68476063     Delta= 2.76D-06
 NORM(A)=   0.10689017D+01
 Iteration Nr.  12
 **********************
 DD1Dir will call FoFMem   1 times, MxPair=       206
 NAB=    70 NAA=    45 NBB=    21.
 A-vector RMS=  2.8851587D-07 Max=  3.8235393D-06 conv= 1.00D-05.
 RLE energy=       -0.7390118272
 DE(Corr)= -0.73901201     E(CORR)=     -145.68476074     Delta=-1.13D-07
 NORM(A)=   0.10689013D+01
 Iteration Nr.  13
 **********************
 DD1Dir will call FoFMem   1 times, MxPair=       206
 NAB=    70 NAA=    45 NBB=    21.
 A-vector RMS=  1.9684199D-07 Max=  2.0777399D-06 conv= 1.00D-05.
 RLE energy=       -0.7390110167
 DE(Corr)= -0.73901121     E(CORR)=     -145.68475994     Delta= 8.02D-07
 NORM(A)=   0.10689015D+01
 Iteration Nr.  14
 **********************
 DD1Dir will call FoFMem   1 times, MxPair=       206
 NAB=    70 NAA=    45 NBB=    21.
 A-vector RMS=  1.2400324D-07 Max=  1.3145701D-06 conv= 1.00D-05.
 RLE energy=       -0.7390111497
 DE(Corr)= -0.73901133     E(CORR)=     -145.68476007     Delta=-1.25D-07
 NORM(A)=   0.10689019D+01
 Iteration Nr.  15
 **********************
 DD1Dir will call FoFMem   1 times, MxPair=       206
 NAB=    70 NAA=    45 NBB=    21.
 A-vector RMS=  4.4152842D-08 Max=  6.7860695D-07 conv= 1.00D-05.
 RLE energy=       -0.7390114300
 DE(Corr)= -0.73901140     E(CORR)=     -145.68476013     Delta=-6.74D-08
 NORM(A)=   0.10689021D+01
 CI/CC converged in   15 iterations to DelEn=-6.74D-08 Conv= 1.00D-07 ErrA1= 4.42D-08 Conv= 1.00D-05
 Wavefunction amplitudes converged. E(Corr)=     -145.68476013    
 Largest amplitude= 6.69D-02
 Time for triples=    13504.75 seconds.
 T4(CCSD)= -0.23795166D-01
 T5(CCSD)=  0.12917189D-02
 CCSD(T)= -0.14570726358D+03
 Discarding MO integrals.
 Leave Link  913 at Mon Apr  2 14:46:38 2018, MaxMem= 10737418240 cpu:           15464.5 elap:             483.5
 (Enter /home1/apps/gaussian/16rA.03/g16/l601.exe)
 Copying SCF densities to generalized density rwf, IOpCl= 0 IROHF=1.
 SCF density gives NOpUse=  8 NOpAll= 48.
 Marking SCF density as not fully symmetric.

 **********************************************************************

            Population analysis using the SCF density.

 **********************************************************************

 Orbital symmetries:
       Occupied  (A1G) (?A) (?A) (?A) (?B) (?C) (A1G) (?C) (?B)
                 (?B)
       Virtual   (T1U) (T1U) (T1U) (A1G) (T1U) (T1U) (T1U) (EG)
                 (T2G) (T2G) (T2G) (EG) (A1G) (T1U) (T1U) (T1U)
                 (?C) (?B) (?C) (?B) (?B) (A1G) (T1U) (T1U) (T1U)
                 (?D) (?D) (A2U) (?D) (?D) (?D) (?D) (?B) (?C)
                 (?B) (?C) (?B) (A1G) (?A) (?A) (?A) (?A) (?A)
                 (?A) (?A) (?A) (A2U) (?A) (?E) (?F) (?E) (?F)
                 (?F) (?F) (?E) (?F) (?E) (?F) (?F) (?F) (?F) (?E)
                 (A1G) (T1U) (T1U) (T1U) (?D) (?D) (A2U) (?D) (?D)
                 (?D) (?D) (EG) (T2G) (T2G) (EG) (T2G) (?F) (T2G)
                 (?F) (T2G) (?F) (?F) (?F) (?F) (T2G) (T1U) (T1U)
                 (T1U) (A1G) (EG) (T2G) (T2G) (EG) (T2G) (?D) (?D)
                 (A2U) (?D) (?D) (?D) (?D) (T1U) (T1U) (T1U) (?F)
                 (?F) (?F) (?F) (?F) (?F) (?F) (?F) (?F) (?F) (EG)
                 (T2G) (T2G) (EG) (T2G) (T1U) (T1U) (T1U) (A1G)
                 (T2G) (EG) (T2G) (EG) (T2G) (T1U) (T1U) (T1U)
                 (A1G) (T1U) (T1U) (T1U) (T2G) (EG) (T2G) (EG)
                 (T2G) (A1G) (T1U) (T1U) (T1U) (A1G) (T2G) (EG)
                 (T2G) (EG) (T2G) (T1U) (T1U) (T1U) (A1G) (T1U)
                 (T1U) (T1U) (A1G) (T1U) (T1U) (T1U) (A1G) (T1U)
                 (T1U) (T1U) (A1G) (T1U) (T1U) (T1U) (A1G) (A1G)
                 (T1U) (T1U) (T1U) (A1G) (A1G) (A1G) (A1G)
 Unable to determine electronic state:  an orbital has unidentified symmetry.
 Alpha  occ. eigenvalues --   -4.66972  -3.18899  -3.18899  -3.18899  -0.71869
 Alpha  occ. eigenvalues --   -0.71869  -0.71869  -0.66666  -0.66666  -0.28145
 Alpha virt. eigenvalues --    0.02215   0.02215   0.02215   0.02967   0.07627
 Alpha virt. eigenvalues --    0.07627   0.07627   0.11262   0.11262   0.11262
 Alpha virt. eigenvalues --    0.11290   0.11290   0.15724   0.27620   0.27620
 Alpha virt. eigenvalues --    0.27620   0.39453   0.39453   0.39453   0.39812
 Alpha virt. eigenvalues --    0.39812   0.55174   0.91371   0.91371   0.91371
 Alpha virt. eigenvalues --    1.13523   1.13856   1.13856   1.13856   1.14102
 Alpha virt. eigenvalues --    1.14102   1.14102   1.28473   1.28473   1.28473
 Alpha virt. eigenvalues --    1.29923   1.29923   2.08527   2.73720   2.73720
 Alpha virt. eigenvalues --    2.73720   3.33159   3.34832   3.34832   3.34832
 Alpha virt. eigenvalues --    3.36043   3.36043   3.36043   3.75910   3.75910
 Alpha virt. eigenvalues --    3.75910   3.78556   3.78556   4.14743   4.14743
 Alpha virt. eigenvalues --    4.14743   4.15787   4.15787   4.16109   4.16109
 Alpha virt. eigenvalues --    4.16109   4.16582   6.18507   6.74837   6.74837
 Alpha virt. eigenvalues --    6.74837   8.69978   8.73201   8.73201   8.73201
 Alpha virt. eigenvalues --    8.75648   8.75648   8.75648   9.01879   9.01879
 Alpha virt. eigenvalues --    9.01879   9.05271   9.05271  11.74800  11.74800
 Alpha virt. eigenvalues --   11.74800  11.77334  11.77334  11.78157  11.78157
 Alpha virt. eigenvalues --   11.78157  11.79306  14.00207  14.00207  14.00207
 Alpha virt. eigenvalues --   14.31436  18.69035  18.69035  18.69035  18.72993
 Alpha virt. eigenvalues --   18.72993  22.88407  22.91617  22.91617  22.91617
 Alpha virt. eigenvalues --   22.94160  22.94160  22.94160  26.47802  26.47802
 Alpha virt. eigenvalues --   26.47802  28.73143  29.36673  29.36673  29.36673
 Alpha virt. eigenvalues --   29.39816  29.39816  29.40858  29.40858  29.40858
 Alpha virt. eigenvalues --   29.42360  34.98587  34.98587  34.98587  35.02941
 Alpha virt. eigenvalues --   35.02941  47.43336  47.43336  47.43336  53.54461
 Alpha virt. eigenvalues --   65.84708  65.84708  65.84708  65.88492  65.88492
 Alpha virt. eigenvalues --   82.87246  82.87246  82.87246  96.71594 147.31299
 Alpha virt. eigenvalues --  147.31299 147.31299 157.76693 157.76693 157.76693
 Alpha virt. eigenvalues --  157.78501 157.78501 177.82546 273.99013 273.99013
 Alpha virt. eigenvalues --  273.99013 341.65778 523.39935 523.39935 523.39935
 Alpha virt. eigenvalues --  523.40342 523.40342 537.28174 537.28174 537.28174
 Alpha virt. eigenvalues --  685.784501115.820421115.820421115.820421437.04892
 Alpha virt. eigenvalues -- 2482.685232482.685232482.685233148.380456061.64980
 Alpha virt. eigenvalues -- 6061.649806061.649807243.40755********************
 Alpha virt. eigenvalues -- **************************************************
 Alpha virt. eigenvalues -- **************************************************
     Molecular Orbital Coefficients:
                           3         4         5         6         7
                           O         O         O         O     (A1G)--O
     Eigenvalues --    -3.18899  -3.18899  -0.71869  -0.71869  -0.71869
   1 1   Co 1S          0.00000   0.00000   0.00000  -0.00000   0.00000
   2        2S          0.00000   0.00000   0.00000   0.00000  -0.00000
   3        3S          0.00000   0.00000   0.00000  -0.00000   0.00000
   4        4S          0.00000   0.00000   0.00000   0.00000  -0.00000
   5        5S          0.00000   0.00000   0.00000  -0.00000   0.00000
   6        6S          0.00000   0.00000   0.00000   0.00000  -0.00000
   7        7S          0.00000   0.00000   0.00000  -0.00000   0.00001
   8        8S          0.00000   0.00000   0.00000   0.00000  -0.00002
   9        9S          0.00000   0.00000   0.00000  -0.00000   0.00007
  10       10S          0.00000   0.00000   0.00000   0.00000  -0.00019
  11       11S          0.00000   0.00000   0.00000  -0.00000   0.00045
  12       12S          0.00000   0.00000   0.00000   0.00000  -0.00035
  13       13S          0.00000   0.00000   0.00000  -0.00000  -0.02008
  14       14S          0.00000   0.00000   0.00000   0.00000   0.14328
  15       15S          0.00000   0.00000   0.00000   0.00000  -0.00545
  16       16S          0.00000   0.00000   0.00000  -0.00000  -0.23673
  17       17S          0.00000   0.00000   0.00000  -0.00000  -0.22984
  18       18S          0.00000   0.00000   0.00000   0.00000   0.33740
  19       19S          0.00000   0.00000   0.00000  -0.00000   0.56019
  20       20S          0.00000   0.00000   0.00000   0.00000   0.25738
  21       21S          0.00000   0.00000   0.00000  -0.00000  -0.06233
  22       22S          0.00000   0.00000   0.00000   0.00000  -0.00046
  23       23S          0.00000   0.00000   0.00000  -0.00000  -0.00041
  24       24PX        -0.00000   0.00000   0.00000   0.00000   0.00000
  25       24PY         0.00000  -0.00000   0.00000   0.00000   0.00000
  26       24PZ         0.00000   0.00000   0.00000   0.00000   0.00000
  27       25PX         0.00000   0.00000   0.00000   0.00000   0.00000
  28       25PY         0.00000   0.00000   0.00000   0.00000   0.00000
  29       25PZ         0.00000   0.00000   0.00000   0.00000   0.00000
  30       26PX        -0.00000   0.00000   0.00000   0.00000   0.00000
  31       26PY         0.00000  -0.00000   0.00000   0.00000   0.00000
  32       26PZ         0.00000   0.00000   0.00000   0.00000   0.00000
  33       27PX         0.00001   0.00000   0.00000   0.00000   0.00000
  34       27PY         0.00000   0.00001   0.00000   0.00000   0.00000
  35       27PZ         0.00000   0.00000   0.00000   0.00000   0.00000
  36       28PX        -0.00005   0.00000   0.00000   0.00000   0.00000
  37       28PY         0.00000  -0.00005   0.00000   0.00000   0.00000
  38       28PZ         0.00000   0.00000   0.00000   0.00000   0.00000
  39       29PX         0.00017   0.00000   0.00000   0.00000   0.00000
  40       29PY         0.00000   0.00017   0.00000   0.00000   0.00000
  41       29PZ         0.00000   0.00000   0.00000   0.00000   0.00000
  42       30PX        -0.00062   0.00000   0.00000   0.00000   0.00000
  43       30PY         0.00000  -0.00062   0.00000   0.00000   0.00000
  44       30PZ         0.00000   0.00000   0.00000   0.00000   0.00000
  45       31PX         0.00362   0.00000   0.00000   0.00000   0.00000
  46       31PY         0.00000   0.00362   0.00000   0.00000   0.00000
  47       31PZ         0.00000   0.00000   0.00000   0.00000   0.00000
  48       32PX        -0.02703   0.00000   0.00000   0.00000   0.00000
  49       32PY         0.00000  -0.02703   0.00000   0.00000   0.00000
  50       32PZ         0.00000   0.00000   0.00000   0.00000   0.00000
  51       33PX         0.26972   0.00000   0.00000   0.00000   0.00000
  52       33PY         0.00000   0.26972   0.00000   0.00000   0.00000
  53       33PZ         0.00000   0.00000   0.00000   0.00000   0.00000
  54       34PX         0.30273   0.00000   0.00000   0.00000   0.00000
  55       34PY         0.00000   0.30273   0.00000   0.00000   0.00000
  56       34PZ         0.00000   0.00000   0.00000   0.00000   0.00000
  57       35PX         0.30579   0.00000   0.00000   0.00000   0.00000
  58       35PY         0.00000   0.30579   0.00000   0.00000   0.00000
  59       35PZ         0.00000   0.00000   0.00000   0.00000   0.00000
  60       36PX         0.27249   0.00000   0.00000   0.00000   0.00000
  61       36PY         0.00000   0.27249   0.00000   0.00000   0.00000
  62       36PZ         0.00000   0.00000   0.00000   0.00000   0.00000
  63       37PX         0.03740   0.00000   0.00000   0.00000   0.00000
  64       37PY         0.00000   0.03740   0.00000   0.00000   0.00000
  65       37PZ         0.00000   0.00000   0.00000   0.00000   0.00000
  66       38PX        -0.00219   0.00000   0.00000   0.00000   0.00000
  67       38PY         0.00000  -0.00219   0.00000   0.00000   0.00000
  68       38PZ         0.00000   0.00000   0.00000   0.00000   0.00000
  69       39PX         0.00136   0.00000   0.00000   0.00000   0.00000
  70       39PY         0.00000   0.00136   0.00000   0.00000   0.00000
  71       39PZ         0.00000   0.00000   0.00000   0.00000   0.00000
  72       40PX        -0.21479   0.00000   0.00000   0.00000   0.00000
  73       40PY         0.00000  -0.21479   0.00000   0.00000   0.00000
  74       40PZ         0.00000   0.00000   0.00000   0.00000   0.00000
  75       41PX         0.14331   0.00000   0.00000   0.00000   0.00000
  76       41PY         0.00000   0.14331   0.00000   0.00000   0.00000
  77       41PZ         0.00000   0.00000   0.00000   0.00000   0.00000
  78       42PX        -0.00040   0.00000   0.00000   0.00000   0.00000
  79       42PY         0.00000  -0.00040   0.00000   0.00000   0.00000
  80       42PZ         0.00000   0.00000   0.00000   0.00000   0.00000
  81       43D 0        0.00000   0.00000   0.00000   0.00008  -0.00000
  82       43D+1        0.00000   0.00000   0.00017   0.00000   0.00000
  83       43D-1        0.00000   0.00000   0.00000   0.00000   0.00000
  84       43D+2        0.00000   0.00000   0.00000   0.00015   0.00000
  85       43D-2        0.00000   0.00000   0.00000   0.00000   0.00000
  86       44D 0        0.00000   0.00000   0.00000  -0.00065   0.00000
  87       44D+1        0.00000   0.00000  -0.00131   0.00000   0.00000
  88       44D-1        0.00000   0.00000   0.00000   0.00000   0.00000
  89       44D+2        0.00000   0.00000   0.00000  -0.00113  -0.00000
  90       44D-2        0.00000   0.00000   0.00000   0.00000   0.00000
  91       45D 0        0.00000   0.00000   0.00000   0.02639  -0.00000
  92       45D+1        0.00000   0.00000   0.05277   0.00000   0.00000
  93       45D-1        0.00000   0.00000   0.00000   0.00000   0.00000
  94       45D+2        0.00000   0.00000   0.00000   0.04570   0.00000
  95       45D-2        0.00000   0.00000   0.00000   0.00000   0.00000
  96       46D 0        0.00000   0.00000   0.00000   0.29478  -0.00000
  97       46D+1        0.00000   0.00000   0.58955   0.00000   0.00000
  98       46D-1        0.00000   0.00000   0.00000   0.00000   0.00000
  99       46D+2        0.00000   0.00000   0.00000   0.51057   0.00000
 100       46D-2        0.00000   0.00000   0.00000   0.00000   0.00000
 101       47D 0        0.00000   0.00000   0.00000  -0.16965   0.00000
 102       47D+1        0.00000   0.00000  -0.33929   0.00000   0.00000
 103       47D-1        0.00000   0.00000   0.00000   0.00000   0.00000
 104       47D+2        0.00000   0.00000   0.00000  -0.29384  -0.00000
 105       47D-2        0.00000   0.00000   0.00000   0.00000   0.00000
 106       48D 0        0.00000   0.00000   0.00000   0.18655  -0.00000
 107       48D+1        0.00000   0.00000   0.37310   0.00000   0.00000
 108       48D-1        0.00000   0.00000   0.00000   0.00000   0.00000
 109       48D+2        0.00000   0.00000   0.00000   0.32311   0.00000
 110       48D-2        0.00000   0.00000   0.00000   0.00000   0.00000
 111       49D 0        0.00000   0.00000   0.00000   0.10962  -0.00000
 112       49D+1        0.00000   0.00000   0.21924   0.00000   0.00000
 113       49D-1        0.00000   0.00000   0.00000   0.00000   0.00000
 114       49D+2        0.00000   0.00000   0.00000   0.18987   0.00000
 115       49D-2        0.00000   0.00000   0.00000   0.00000   0.00000
 116       50D 0        0.00000   0.00000   0.00000   0.02318  -0.00000
 117       50D+1        0.00000   0.00000   0.04637   0.00000   0.00000
 118       50D-1        0.00000   0.00000   0.00000   0.00000   0.00000
 119       50D+2        0.00000   0.00000   0.00000   0.04016   0.00000
 120       50D-2        0.00000   0.00000   0.00000   0.00000   0.00000
 121       51D 0        0.00000   0.00000   0.00000  -0.16886   0.00000
 122       51D+1        0.00000   0.00000  -0.33771   0.00000   0.00000
 123       51D-1        0.00000   0.00000   0.00000   0.00000   0.00000
 124       51D+2        0.00000   0.00000   0.00000  -0.29247  -0.00000
 125       51D-2        0.00000   0.00000   0.00000   0.00000   0.00000
 126       52D 0        0.00000   0.00000   0.00000   0.36596  -0.00000
 127       52D+1        0.00000   0.00000   0.73192   0.00000   0.00000
 128       52D-1        0.00000   0.00000   0.00000   0.00000   0.00000
 129       52D+2        0.00000   0.00000   0.00000   0.63386   0.00000
 130       52D-2        0.00000   0.00000   0.00000   0.00000   0.00000
 131       53D 0        0.00000   0.00000   0.00000  -0.00147  -0.00000
 132       53D+1        0.00000   0.00000  -0.00294   0.00000   0.00000
 133       53D-1        0.00000   0.00000   0.00000   0.00000   0.00000
 134       53D+2        0.00000   0.00000   0.00000  -0.00255  -0.00000
 135       53D-2        0.00000   0.00000   0.00000   0.00000   0.00000
 136       54F 0        0.00000   0.00000   0.00000   0.00000   0.00000
 137       54F+1        0.00154   0.00000   0.00000   0.00000   0.00000
 138       54F-1        0.00000  -0.00103   0.00000   0.00000   0.00000
 139       54F+2        0.00000   0.00000   0.00000   0.00000   0.00000
 140       54F-2        0.00000   0.00000   0.00000   0.00000   0.00000
 141       54F+3        0.00066   0.00000   0.00000   0.00000   0.00000
 142       54F-3        0.00000  -0.00132   0.00000   0.00000   0.00000
 143       55F 0        0.00000   0.00000   0.00000   0.00000   0.00000
 144       55F+1        0.00311   0.00000   0.00000   0.00000   0.00000
 145       55F-1        0.00000  -0.00207   0.00000   0.00000   0.00000
 146       55F+2        0.00000   0.00000   0.00000   0.00000   0.00000
 147       55F-2        0.00000   0.00000   0.00000   0.00000   0.00000
 148       55F+3        0.00134   0.00000   0.00000   0.00000   0.00000
 149       55F-3        0.00000  -0.00268   0.00000   0.00000   0.00000
 150       56F 0        0.00000   0.00000   0.00000   0.00000   0.00000
 151       56F+1        0.00365   0.00000   0.00000   0.00000   0.00000
 152       56F-1        0.00000  -0.00244   0.00000   0.00000   0.00000
 153       56F+2        0.00000   0.00000   0.00000   0.00000   0.00000
 154       56F-2        0.00000   0.00000   0.00000   0.00000   0.00000
 155       56F+3        0.00157   0.00000   0.00000   0.00000   0.00000
 156       56F-3        0.00000  -0.00314   0.00000   0.00000   0.00000
 157       57F 0        0.00000   0.00000   0.00000   0.00000   0.00000
 158       57F+1        0.00086   0.00000   0.00000   0.00000   0.00000
 159       57F-1        0.00000  -0.00057   0.00000   0.00000   0.00000
 160       57F+2        0.00000   0.00000   0.00000   0.00000   0.00000
 161       57F-2        0.00000   0.00000   0.00000   0.00000   0.00000
 162       57F+3        0.00037   0.00000   0.00000   0.00000   0.00000
 163       57F-3        0.00000  -0.00074   0.00000   0.00000   0.00000
 164       58G 0        0.00000   0.00000   0.00000  -0.00013  -0.00000
 165       58G+1        0.00000   0.00000   0.00006   0.00000   0.00000
 166       58G-1        0.00000   0.00000   0.00000   0.00000   0.00000
 167       58G+2        0.00000   0.00000   0.00000   0.00002   0.00002
 168       58G-2        0.00000   0.00000   0.00000   0.00000   0.00000
 169       58G+3        0.00000   0.00000   0.00015   0.00000   0.00000
 170       58G-3        0.00000   0.00000   0.00000   0.00000   0.00000
 171       58G+4        0.00000   0.00000   0.00000  -0.00009   0.00001
 172       58G-4        0.00000   0.00000   0.00000   0.00000   0.00000
 173       59G 0        0.00000   0.00000   0.00000  -0.00020  -0.00004
 174       59G+1        0.00000   0.00000   0.00009   0.00000   0.00000
 175       59G-1        0.00000   0.00000   0.00000   0.00000   0.00000
 176       59G+2        0.00000   0.00000   0.00000   0.00004   0.00019
 177       59G-2        0.00000   0.00000   0.00000   0.00000   0.00000
 178       59G+3        0.00000   0.00000   0.00023   0.00000   0.00000
 179       59G-3        0.00000   0.00000   0.00000   0.00000   0.00000
 180       59G+4        0.00000   0.00000   0.00000  -0.00014   0.00011
 181       59G-4        0.00000   0.00000   0.00000   0.00000   0.00000
 182       60G 0        0.00000   0.00000   0.00000  -0.00056   0.00004
 183       60G+1        0.00000   0.00000   0.00024   0.00000   0.00000
 184       60G-1        0.00000   0.00000   0.00000   0.00000   0.00000
 185       60G+2        0.00000   0.00000   0.00000   0.00010  -0.00018
 186       60G-2        0.00000   0.00000   0.00000   0.00000   0.00000
 187       60G+3        0.00000   0.00000   0.00064   0.00000   0.00000
 188       60G-3        0.00000   0.00000   0.00000   0.00000   0.00000
 189       60G+4        0.00000   0.00000   0.00000  -0.00039  -0.00010
 190       60G-4        0.00000   0.00000   0.00000   0.00000   0.00000
                           8         9        10        11        12
                           O         O         O     (T1U)--V  (T1U)--V
     Eigenvalues --    -0.66666  -0.66666  -0.28145   0.02215   0.02215
   1 1   Co 1S         -0.00000   0.00000   0.00000   0.00000   0.00000
   2        2S          0.00000   0.00000   0.00000   0.00000   0.00000
   3        3S         -0.00000   0.00000   0.00000   0.00000   0.00000
   4        4S          0.00000   0.00000   0.00000   0.00000   0.00000
   5        5S         -0.00000   0.00000   0.00000   0.00000   0.00000
   6        6S          0.00000   0.00000   0.00000   0.00000   0.00000
   7        7S         -0.00000   0.00000   0.00000   0.00000   0.00000
   8        8S          0.00000   0.00000   0.00000   0.00000   0.00000
   9        9S         -0.00000   0.00000   0.00000   0.00000   0.00000
  10       10S          0.00000   0.00000   0.00000   0.00000   0.00000
  11       11S         -0.00000   0.00000   0.00000   0.00000   0.00000
  12       12S          0.00000   0.00000   0.00000   0.00000   0.00000
  13       13S         -0.00000   0.00000   0.00000   0.00000   0.00000
  14       14S          0.00000   0.00000   0.00000   0.00000   0.00000
  15       15S          0.00000   0.00000   0.00000   0.00000   0.00000
  16       16S         -0.00000   0.00000   0.00000   0.00000   0.00000
  17       17S         -0.00000   0.00000   0.00000   0.00000   0.00000
  18       18S          0.00000   0.00000   0.00000   0.00000   0.00000
  19       19S         -0.00000   0.00000   0.00000   0.00000   0.00000
  20       20S          0.00000   0.00000   0.00000   0.00000   0.00000
  21       21S         -0.00000   0.00000   0.00000   0.00000   0.00000
  22       22S          0.00000   0.00000   0.00000   0.00000   0.00000
  23       23S         -0.00000   0.00000   0.00000   0.00000   0.00000
  24       24PX         0.00000   0.00000   0.00000   0.00000   0.00000
  25       24PY         0.00000   0.00000   0.00000   0.00000   0.00000
  26       24PZ         0.00000   0.00000   0.00000   0.00000   0.00000
  27       25PX         0.00000   0.00000   0.00000  -0.00000   0.00000
  28       25PY         0.00000   0.00000   0.00000   0.00000   0.00000
  29       25PZ         0.00000   0.00000   0.00000   0.00000  -0.00000
  30       26PX         0.00000   0.00000   0.00000   0.00000   0.00000
  31       26PY         0.00000   0.00000   0.00000   0.00000   0.00000
  32       26PZ         0.00000   0.00000   0.00000   0.00000   0.00000
  33       27PX         0.00000   0.00000   0.00000  -0.00001   0.00000
  34       27PY         0.00000   0.00000   0.00000   0.00000   0.00000
  35       27PZ         0.00000   0.00000   0.00000   0.00000  -0.00001
  36       28PX         0.00000   0.00000   0.00000   0.00004   0.00000
  37       28PY         0.00000   0.00000   0.00000   0.00000   0.00000
  38       28PZ         0.00000   0.00000   0.00000   0.00000   0.00004
  39       29PX         0.00000   0.00000   0.00000  -0.00013   0.00000
  40       29PY         0.00000   0.00000   0.00000   0.00000   0.00000
  41       29PZ         0.00000   0.00000   0.00000   0.00000  -0.00013
  42       30PX         0.00000   0.00000   0.00000   0.00042   0.00000
  43       30PY         0.00000   0.00000   0.00000   0.00000   0.00000
  44       30PZ         0.00000   0.00000   0.00000   0.00000   0.00042
  45       31PX         0.00000   0.00000   0.00000  -0.00156   0.00000
  46       31PY         0.00000   0.00000   0.00000   0.00000   0.00000
  47       31PZ         0.00000   0.00000   0.00000   0.00000  -0.00156
  48       32PX         0.00000   0.00000   0.00000   0.00856   0.00000
  49       32PY         0.00000   0.00000   0.00000   0.00000   0.00000
  50       32PZ         0.00000   0.00000   0.00000   0.00000   0.00856
  51       33PX         0.00000   0.00000   0.00000   0.04602   0.00000
  52       33PY         0.00000   0.00000   0.00000   0.00000   0.00000
  53       33PZ         0.00000   0.00000   0.00000   0.00000   0.04602
  54       34PX         0.00000   0.00000   0.00000  -0.05629   0.00000
  55       34PY         0.00000   0.00000   0.00000   0.00000   0.00000
  56       34PZ         0.00000   0.00000   0.00000   0.00000  -0.05629
  57       35PX         0.00000   0.00000   0.00000  -0.36213   0.00000
  58       35PY         0.00000   0.00000   0.00000   0.00000   0.00000
  59       35PZ         0.00000   0.00000   0.00000   0.00000  -0.36213
  60       36PX         0.00000   0.00000   0.00000   0.01810   0.00000
  61       36PY         0.00000   0.00000   0.00000   0.00000   0.00000
  62       36PZ         0.00000   0.00000   0.00000   0.00000   0.01810
  63       37PX         0.00000   0.00000   0.00000  -0.01136   0.00000
  64       37PY         0.00000   0.00000   0.00000   0.00000   0.00000
  65       37PZ         0.00000   0.00000   0.00000   0.00000  -0.01136
  66       38PX         0.00000   0.00000   0.00000   0.22937   0.00000
  67       38PY         0.00000   0.00000   0.00000   0.00000   0.00000
  68       38PZ         0.00000   0.00000   0.00000   0.00000   0.22937
  69       39PX         0.00000   0.00000   0.00000  -0.08048   0.00000
  70       39PY         0.00000   0.00000   0.00000   0.00000   0.00000
  71       39PZ         0.00000   0.00000   0.00000   0.00000  -0.08048
  72       40PX         0.00000   0.00000   0.00000  -0.04380   0.00000
  73       40PY         0.00000   0.00000   0.00000   0.00000   0.00000
  74       40PZ         0.00000   0.00000   0.00000   0.00000  -0.04380
  75       41PX         0.00000   0.00000   0.00000   0.32628   0.00000
  76       41PY         0.00000   0.00000   0.00000   0.00000   0.00000
  77       41PZ         0.00000   0.00000   0.00000   0.00000   0.32628
  78       42PX         0.00000   0.00000   0.00000   0.96942   0.00000
  79       42PY         0.00000   0.00000   0.00000   0.00000   0.00000
  80       42PZ         0.00000   0.00000   0.00000   0.00000   0.96942
  81       43D 0        0.00015   0.00000   0.00000   0.00000   0.00000
  82       43D+1        0.00000   0.00000   0.00000   0.00000   0.00000
  83       43D-1        0.00000   0.00017   0.00000   0.00000   0.00000
  84       43D+2       -0.00009   0.00000   0.00000   0.00000   0.00000
  85       43D-2        0.00000   0.00000   0.00017   0.00000   0.00000
  86       44D 0       -0.00116   0.00000   0.00000   0.00000   0.00000
  87       44D+1        0.00000   0.00000   0.00000   0.00000   0.00000
  88       44D-1        0.00000  -0.00134   0.00000   0.00000   0.00000
  89       44D+2        0.00067   0.00000   0.00000   0.00000   0.00000
  90       44D-2        0.00000   0.00000  -0.00134   0.00000   0.00000
  91       45D 0        0.04643   0.00000   0.00000   0.00000   0.00000
  92       45D+1        0.00000   0.00000   0.00000   0.00000   0.00000
  93       45D-1        0.00000   0.05361   0.00000   0.00000   0.00000
  94       45D+2       -0.02681   0.00000   0.00000   0.00000   0.00000
  95       45D-2        0.00000   0.00000   0.05361   0.00000   0.00000
  96       46D 0        0.51953   0.00000   0.00000   0.00000   0.00000
  97       46D+1        0.00000   0.00000   0.00000   0.00000   0.00000
  98       46D-1        0.00000   0.59990   0.00000   0.00000   0.00000
  99       46D+2       -0.29995   0.00000   0.00000   0.00000   0.00000
 100       46D-2        0.00000   0.00000   0.59990   0.00000   0.00000
 101       47D 0       -0.28784   0.00000   0.00000   0.00000   0.00000
 102       47D+1        0.00000   0.00000   0.00000   0.00000   0.00000
 103       47D-1        0.00000  -0.33237   0.00000   0.00000   0.00000
 104       47D+2        0.16618   0.00000   0.00000   0.00000   0.00000
 105       47D-2        0.00000   0.00000  -0.33237   0.00000   0.00000
 106       48D 0        0.32512   0.00000   0.00000   0.00000   0.00000
 107       48D+1        0.00000   0.00000   0.00000   0.00000   0.00000
 108       48D-1        0.00000   0.37542   0.00000   0.00000   0.00000
 109       48D+2       -0.18771   0.00000   0.00000   0.00000   0.00000
 110       48D-2        0.00000   0.00000   0.37542   0.00000   0.00000
 111       49D 0        0.17171   0.00000   0.00000   0.00000   0.00000
 112       49D+1        0.00000   0.00000   0.00000   0.00000   0.00000
 113       49D-1        0.00000   0.19828   0.00000   0.00000   0.00000
 114       49D+2       -0.09914   0.00000   0.00000   0.00000   0.00000
 115       49D-2        0.00000   0.00000   0.19828   0.00000   0.00000
 116       50D 0        0.02780   0.00000   0.00000   0.00000   0.00000
 117       50D+1        0.00000   0.00000   0.00000   0.00000   0.00000
 118       50D-1        0.00000   0.03210   0.00000   0.00000   0.00000
 119       50D+2       -0.01605   0.00000   0.00000   0.00000   0.00000
 120       50D-2        0.00000   0.00000   0.03210   0.00000   0.00000
 121       51D 0       -0.29624   0.00000   0.00000   0.00000   0.00000
 122       51D+1        0.00000   0.00000   0.00000   0.00000   0.00000
 123       51D-1        0.00000  -0.34207   0.00000   0.00000   0.00000
 124       51D+2        0.17103   0.00000   0.00000   0.00000   0.00000
 125       51D-2        0.00000   0.00000  -0.34207   0.00000   0.00000
 126       52D 0        0.63686   0.00000   0.00000   0.00000   0.00000
 127       52D+1        0.00000   0.00000   0.00000   0.00000   0.00000
 128       52D-1        0.00000   0.73538   0.00000   0.00000   0.00000
 129       52D+2       -0.36769   0.00000   0.00000   0.00000   0.00000
 130       52D-2        0.00000   0.00000   0.73538   0.00000   0.00000
 131       53D 0       -0.00189   0.00000   0.00000   0.00000   0.00000
 132       53D+1        0.00000   0.00000   0.00000   0.00000   0.00000
 133       53D-1        0.00000  -0.00218   0.00000   0.00000   0.00000
 134       53D+2        0.00109   0.00000   0.00000   0.00000   0.00000
 135       53D-2        0.00000   0.00000  -0.00218   0.00000   0.00000
 136       54F 0        0.00000   0.00000   0.00000   0.00000   0.00000
 137       54F+1        0.00000   0.00000   0.00000  -0.00000   0.00000
 138       54F-1        0.00000   0.00000   0.00000   0.00000   0.00000
 139       54F+2        0.00000   0.00000   0.00000   0.00000  -0.00000
 140       54F-2        0.00000   0.00000   0.00000   0.00000   0.00000
 141       54F+3        0.00000   0.00000   0.00000  -0.00000   0.00000
 142       54F-3        0.00000   0.00000   0.00000   0.00000   0.00000
 143       55F 0        0.00000   0.00000   0.00000   0.00000  -0.00002
 144       55F+1        0.00000   0.00000   0.00000   0.00006   0.00000
 145       55F-1        0.00000   0.00000   0.00000   0.00000   0.00000
 146       55F+2        0.00000   0.00000   0.00000   0.00000   0.00007
 147       55F-2        0.00000   0.00000   0.00000   0.00000   0.00000
 148       55F+3        0.00000   0.00000   0.00000   0.00003   0.00000
 149       55F-3        0.00000   0.00000   0.00000   0.00000   0.00000
 150       56F 0        0.00000   0.00000   0.00000   0.00000  -0.00003
 151       56F+1        0.00000   0.00000   0.00000   0.00013   0.00000
 152       56F-1        0.00000   0.00000   0.00000   0.00000   0.00000
 153       56F+2        0.00000   0.00000   0.00000   0.00000   0.00013
 154       56F-2        0.00000   0.00000   0.00000   0.00000   0.00000
 155       56F+3        0.00000   0.00000   0.00000   0.00005   0.00000
 156       56F-3        0.00000   0.00000   0.00000   0.00000   0.00000
 157       57F 0        0.00000   0.00000   0.00000   0.00000  -0.00002
 158       57F+1        0.00000   0.00000   0.00000   0.00008   0.00000
 159       57F-1        0.00000   0.00000   0.00000   0.00000   0.00000
 160       57F+2        0.00000   0.00000   0.00000   0.00000   0.00008
 161       57F-2        0.00000   0.00000   0.00000   0.00000   0.00000
 162       57F+3        0.00000   0.00000   0.00000   0.00003   0.00000
 163       57F-3        0.00000   0.00000   0.00000   0.00000   0.00000
 164       58G 0       -0.00020   0.00000   0.00000   0.00000   0.00000
 165       58G+1        0.00000   0.00000   0.00000   0.00000   0.00000
 166       58G-1        0.00000   0.00031   0.00000   0.00000   0.00000
 167       58G+2       -0.00018   0.00000   0.00000   0.00000   0.00000
 168       58G-2        0.00000   0.00000  -0.00027   0.00000   0.00000
 169       58G+3        0.00000   0.00000   0.00000   0.00000   0.00000
 170       58G-3        0.00000  -0.00017   0.00000   0.00000   0.00000
 171       58G+4        0.00023   0.00000   0.00000   0.00000   0.00000
 172       58G-4        0.00000   0.00000   0.00023   0.00000   0.00000
 173       59G 0       -0.00043   0.00000   0.00000   0.00000   0.00000
 174       59G+1        0.00000   0.00000   0.00000   0.00000   0.00000
 175       59G-1        0.00000   0.00068   0.00000   0.00000   0.00000
 176       59G+2       -0.00039   0.00000   0.00000   0.00000   0.00000
 177       59G-2        0.00000   0.00000  -0.00058   0.00000   0.00000
 178       59G+3        0.00000   0.00000   0.00000   0.00000   0.00000
 179       59G-3        0.00000  -0.00036   0.00000   0.00000   0.00000
 180       59G+4        0.00051   0.00000   0.00000   0.00000   0.00000
 181       59G-4        0.00000   0.00000   0.00051   0.00000   0.00000
 182       60G 0       -0.00037   0.00000   0.00000   0.00000   0.00000
 183       60G+1        0.00000   0.00000   0.00000   0.00000   0.00000
 184       60G-1        0.00000   0.00058   0.00000   0.00000   0.00000
 185       60G+2       -0.00033   0.00000   0.00000   0.00000   0.00000
 186       60G-2        0.00000   0.00000  -0.00050   0.00000   0.00000
 187       60G+3        0.00000   0.00000   0.00000   0.00000   0.00000
 188       60G-3        0.00000  -0.00031   0.00000   0.00000   0.00000
 189       60G+4        0.00044   0.00000   0.00000   0.00000   0.00000
 190       60G-4        0.00000   0.00000   0.00044   0.00000   0.00000
                          13        14        15
                       (T1U)--V  (A1G)--V  (T1U)--V
     Eigenvalues --     0.02215   0.02967   0.07627
   1 1   Co 1S          0.00000   0.00000   0.00000
   2        2S          0.00000  -0.00000   0.00000
   3        3S          0.00000   0.00000   0.00000
   4        4S          0.00000  -0.00000   0.00000
   5        5S          0.00000   0.00000   0.00000
   6        6S          0.00000  -0.00000   0.00000
   7        7S          0.00000   0.00001   0.00000
   8        8S          0.00000  -0.00004   0.00000
   9        9S          0.00000   0.00013   0.00000
  10       10S          0.00000  -0.00035   0.00000
  11       11S          0.00000   0.00092   0.00000
  12       12S          0.00000  -0.00295   0.00000
  13       13S          0.00000   0.01467   0.00000
  14       14S          0.00000  -0.08698   0.00000
  15       15S          0.00000  -0.20326   0.00000
  16       16S          0.00000   0.59434   0.00000
  17       17S          0.00000   0.24438   0.00000
  18       18S          0.00000  -0.42744   0.00000
  19       19S          0.00000   0.86497   0.00000
  20       20S          0.00000  -2.37250   0.00000
  21       21S          0.00000   0.17501   0.00000
  22       22S          0.00000  -0.59084   0.00000
  23       23S          0.00000   2.37597   0.00000
  24       24PX         0.00000   0.00000  -0.00000
  25       24PY         0.00000   0.00000   0.00000
  26       24PZ         0.00000   0.00000   0.00000
  27       25PX         0.00000   0.00000   0.00000
  28       25PY        -0.00000   0.00000   0.00000
  29       25PZ         0.00000   0.00000   0.00000
  30       26PX         0.00000   0.00000  -0.00001
  31       26PY         0.00000   0.00000   0.00000
  32       26PZ         0.00000   0.00000   0.00000
  33       27PX         0.00000   0.00000   0.00003
  34       27PY        -0.00001   0.00000   0.00000
  35       27PZ         0.00000   0.00000   0.00000
  36       28PX         0.00000   0.00000  -0.00011
  37       28PY         0.00004   0.00000   0.00000
  38       28PZ         0.00000   0.00000   0.00000
  39       29PX         0.00000   0.00000   0.00037
  40       29PY        -0.00013   0.00000   0.00000
  41       29PZ         0.00000   0.00000   0.00000
  42       30PX         0.00000   0.00000  -0.00120
  43       30PY         0.00042   0.00000   0.00000
  44       30PZ         0.00000   0.00000   0.00000
  45       31PX         0.00000   0.00000   0.00401
  46       31PY        -0.00156   0.00000   0.00000
  47       31PZ         0.00000   0.00000   0.00000
  48       32PX         0.00000   0.00000  -0.01843
  49       32PY         0.00856   0.00000   0.00000
  50       32PZ         0.00000   0.00000   0.00000
  51       33PX         0.00000   0.00000  -0.25180
  52       33PY         0.04602   0.00000   0.00000
  53       33PZ         0.00000   0.00000   0.00000
  54       34PX         0.00000   0.00000   0.08402
  55       34PY        -0.05629   0.00000   0.00000
  56       34PZ         0.00000   0.00000   0.00000
  57       35PX         0.00000   0.00000   1.14722
  58       35PY        -0.36213   0.00000   0.00000
  59       35PZ         0.00000   0.00000   0.00000
  60       36PX         0.00000   0.00000  -0.18065
  61       36PY         0.01810   0.00000   0.00000
  62       36PZ         0.00000   0.00000   0.00000
  63       37PX         0.00000   0.00000   0.21565
  64       37PY        -0.01136   0.00000   0.00000
  65       37PZ         0.00000   0.00000   0.00000
  66       38PX         0.00000   0.00000  -0.10501
  67       38PY         0.22937   0.00000   0.00000
  68       38PZ         0.00000   0.00000   0.00000
  69       39PX         0.00000   0.00000   1.48608
  70       39PY        -0.08048   0.00000   0.00000
  71       39PZ         0.00000   0.00000   0.00000
  72       40PX         0.00000   0.00000   0.21875
  73       40PY        -0.04380   0.00000   0.00000
  74       40PZ         0.00000   0.00000   0.00000
  75       41PX         0.00000   0.00000  -1.20200
  76       41PY         0.32628   0.00000   0.00000
  77       41PZ         0.00000   0.00000   0.00000
  78       42PX         0.00000   0.00000  -1.19923
  79       42PY         0.96942   0.00000   0.00000
  80       42PZ         0.00000   0.00000   0.00000
  81       43D 0        0.00000  -0.00000   0.00000
  82       43D+1        0.00000   0.00000   0.00000
  83       43D-1        0.00000   0.00000   0.00000
  84       43D+2        0.00000   0.00000   0.00000
  85       43D-2        0.00000   0.00000   0.00000
  86       44D 0        0.00000   0.00000   0.00000
  87       44D+1        0.00000   0.00000   0.00000
  88       44D-1        0.00000   0.00000   0.00000
  89       44D+2        0.00000  -0.00000   0.00000
  90       44D-2        0.00000   0.00000   0.00000
  91       45D 0        0.00000  -0.00000   0.00000
[...]
                         176       177       178       179       180
 176       59G+2        0.00000
 177       59G-2       -0.00000   0.00000
 178       59G+3       -0.00000  -0.00000   0.00000
 179       59G-3        0.00000  -0.00000   0.00000   0.00000
 180       59G+4        0.00000   0.00000   0.00000   0.00000   0.00000
 181       59G-4       -0.00000   0.00000  -0.00000   0.00000  -0.00000
 182       60G 0        0.00000  -0.00000  -0.00000   0.00000  -0.00000
 183       60G+1       -0.00000   0.00000   0.00000   0.00000   0.00000
 184       60G-1       -0.00000  -0.00000   0.00000   0.00000  -0.00000
 185       60G+2        0.00000  -0.00000  -0.00000   0.00000   0.00000
 186       60G-2       -0.00000   0.00000   0.00000  -0.00000  -0.00000
 187       60G+3       -0.00000   0.00000   0.00000  -0.00000   0.00000
 188       60G-3       -0.00000  -0.00000  -0.00000   0.00000  -0.00000
 189       60G+4       -0.00000   0.00000   0.00000   0.00000   0.00000
 190       60G-4        0.00000   0.00000   0.00000   0.00000  -0.00000
                         181       182       183       184       185
 181       59G-4        0.00000
 182       60G 0        0.00000   0.00000
 183       60G+1       -0.00000  -0.00000   0.00000
 184       60G-1       -0.00000  -0.00000   0.00000   0.00000
 185       60G+2       -0.00000  -0.00000  -0.00000  -0.00000   0.00000
 186       60G-2        0.00000  -0.00000  -0.00000   0.00000  -0.00000
 187       60G+3       -0.00000  -0.00000  -0.00000  -0.00000  -0.00000
 188       60G-3        0.00000  -0.00000   0.00000  -0.00000  -0.00000
 189       60G+4       -0.00000  -0.00000   0.00000  -0.00000   0.00000
 190       60G-4        0.00000   0.00000  -0.00000   0.00000   0.00000
                         186       187       188       189       190
 186       60G-2        0.00000
 187       60G+3       -0.00000   0.00000
 188       60G-3       -0.00000  -0.00000   0.00000
 189       60G+4        0.00000   0.00000   0.00000   0.00000
 190       60G-4        0.00000  -0.00000   0.00000  -0.00000   0.00000
     Gross orbital populations:
                         Total     Alpha     Beta      Spin
   1 1   Co 1S         -0.00000  -0.00000  -0.00000  -0.00000
   2        2S          0.00000   0.00000   0.00000   0.00000
   3        3S         -0.00000  -0.00000  -0.00000  -0.00000
   4        4S          0.00000   0.00000   0.00000   0.00000
   5        5S         -0.00000  -0.00000  -0.00000   0.00000
   6        6S          0.00000   0.00000   0.00000  -0.00000
   7        7S         -0.00000  -0.00000  -0.00000   0.00000
   8        8S          0.00000   0.00000   0.00000   0.00000
   9        9S         -0.00000  -0.00000  -0.00000   0.00000
  10       10S          0.00001   0.00001   0.00001   0.00000
  11       11S         -0.00005  -0.00002  -0.00002  -0.00000
  12       12S         -0.00046  -0.00023  -0.00023   0.00000
  13       13S          0.03642   0.01821   0.01821   0.00000
  14       14S         -0.45779  -0.22890  -0.22890   0.00000
  15       15S          0.13846   0.06923   0.06923   0.00000
  16       16S          1.39855   0.69927   0.69927  -0.00000
  17       17S          0.67824   0.33912   0.33912   0.00000
  18       18S          0.53525   0.26762   0.26762  -0.00000
  19       19S          1.03963   0.51981   0.51981  -0.00000
  20       20S          0.45634   0.22817   0.22817   0.00000
  21       21S          0.18935   0.09468   0.09468  -0.00000
  22       22S         -0.01315  -0.00657  -0.00657   0.00000
  23       23S         -0.00081  -0.00040  -0.00040  -0.00000
  24       24PX        -0.00000  -0.00000  -0.00000   0.00000
  25       24PY        -0.00000  -0.00000  -0.00000   0.00000
  26       24PZ        -0.00000  -0.00000  -0.00000   0.00000
  27       25PX         0.00000   0.00000   0.00000  -0.00000
  28       25PY         0.00000   0.00000   0.00000  -0.00000
  29       25PZ         0.00000   0.00000   0.00000  -0.00000
  30       26PX        -0.00000  -0.00000  -0.00000   0.00000
  31       26PY        -0.00000  -0.00000  -0.00000   0.00000
  32       26PZ        -0.00000  -0.00000  -0.00000   0.00000
  33       27PX         0.00000   0.00000   0.00000  -0.00000
  34       27PY         0.00000   0.00000   0.00000  -0.00000
  35       27PZ         0.00000   0.00000   0.00000  -0.00000
  36       28PX        -0.00000  -0.00000  -0.00000   0.00000
  37       28PY        -0.00000  -0.00000  -0.00000   0.00000
  38       28PZ        -0.00000  -0.00000  -0.00000   0.00000
  39       29PX         0.00001   0.00001   0.00001  -0.00000
  40       29PY         0.00001   0.00001   0.00001  -0.00000
  41       29PZ         0.00001   0.00001   0.00001  -0.00000
  42       30PX        -0.00010  -0.00005  -0.00005   0.00000
  43       30PY        -0.00010  -0.00005  -0.00005   0.00000
  44       30PZ        -0.00010  -0.00005  -0.00005   0.00000
  45       31PX         0.00136   0.00068   0.00068  -0.00000
  46       31PY         0.00136   0.00068   0.00068  -0.00000
  47       31PZ         0.00136   0.00068   0.00068  -0.00000
  48       32PX        -0.02023  -0.01011  -0.01011   0.00000
  49       32PY        -0.02023  -0.01011  -0.01011   0.00000
  50       32PZ        -0.02023  -0.01011  -0.01011   0.00000
  51       33PX         0.34136   0.17068   0.17068  -0.00000
  52       33PY         0.34136   0.17068   0.17068  -0.00000
  53       33PZ         0.34136   0.17068   0.17068  -0.00000
  54       34PX         0.53659   0.26829   0.26829  -0.00000
  55       34PY         0.53659   0.26829   0.26829  -0.00000
  56       34PZ         0.53659   0.26829   0.26829  -0.00000
  57       35PX         0.60348   0.30174   0.30174  -0.00000
  58       35PY         0.60348   0.30174   0.30174  -0.00000
  59       35PZ         0.60348   0.30174   0.30174  -0.00000
  60       36PX         0.46625   0.23313   0.23313  -0.00000
  61       36PY         0.46625   0.23313   0.23313  -0.00000
  62       36PZ         0.46625   0.23313   0.23313  -0.00000
  63       37PX         0.03812   0.01906   0.01906  -0.00000
  64       37PY         0.03812   0.01906   0.01906  -0.00000
  65       37PZ         0.03812   0.01906   0.01906  -0.00000
  66       38PX        -0.00099  -0.00049  -0.00049   0.00000
  67       38PY        -0.00099  -0.00049  -0.00049   0.00000
  68       38PZ        -0.00099  -0.00049  -0.00049   0.00000
  69       39PX         0.00021   0.00011   0.00011  -0.00000
  70       39PY         0.00021   0.00011   0.00011  -0.00000
  71       39PZ         0.00021   0.00011   0.00011  -0.00000
  72       40PX        -0.24908  -0.12454  -0.12454   0.00000
  73       40PY        -0.24908  -0.12454  -0.12454   0.00000
  74       40PZ        -0.24908  -0.12454  -0.12454   0.00000
  75       41PX         0.28291   0.14146   0.14146  -0.00000
  76       41PY         0.28291   0.14146   0.14146  -0.00000
  77       41PZ         0.28291   0.14146   0.14146  -0.00000
  78       42PX        -0.00002  -0.00001  -0.00001   0.00000
  79       42PY        -0.00002  -0.00001  -0.00001   0.00000
  80       42PZ        -0.00002  -0.00001  -0.00001   0.00000
  81       43D 0        0.00001   0.00000   0.00000   0.00000
  82       43D+1        0.00001   0.00000   0.00000  -0.00000
  83       43D-1        0.00000   0.00000   0.00000   0.00000
  84       43D+2        0.00001   0.00000   0.00000   0.00000
  85       43D-2        0.00000   0.00000   0.00000   0.00000
  86       44D 0       -0.00024  -0.00019  -0.00005  -0.00014
  87       44D+1       -0.00037  -0.00019  -0.00019   0.00000
  88       44D-1       -0.00019  -0.00019  -0.00000  -0.00019
  89       44D+2       -0.00033  -0.00019  -0.00014  -0.00005
  90       44D-2       -0.00019  -0.00019  -0.00000  -0.00019
  91       45D 0        0.02709   0.02179   0.00530   0.01649
  92       45D+1        0.04242   0.02121   0.02121  -0.00000
  93       45D-1        0.02198   0.02198   0.00000   0.02198
  94       45D+2        0.03731   0.02140   0.01591   0.00550
  95       45D-2        0.02198   0.02198   0.00000   0.02198
  96       46D 0        0.53225   0.42808   0.10417   0.32391
  97       46D+1        0.83334   0.41667   0.41667  -0.00000
  98       46D-1        0.43188   0.43188   0.00000   0.43188
  99       46D+2        0.73298   0.42047   0.31250   0.10797
 100       46D-2        0.43188   0.43188   0.00000   0.43188
 101       47D 0       -0.37613  -0.30050  -0.07563  -0.22487
 102       47D+1       -0.60502  -0.30251  -0.30251   0.00000
 103       47D-1       -0.29983  -0.29983  -0.00000  -0.29983
 104       47D+2       -0.52872  -0.30184  -0.22688  -0.07496
 105       47D-2       -0.29983  -0.29983  -0.00000  -0.29983
 106       48D 0        0.39895   0.31916   0.07979   0.23937
 107       48D+1        0.63833   0.31916   0.31916  -0.00000
 108       48D-1        0.31916   0.31916   0.00000   0.31916
 109       48D+2        0.55853   0.31916   0.23937   0.07979
 110       48D-2        0.31916   0.31916   0.00000   0.31916
 111       49D 0        0.15081   0.11803   0.03278   0.08525
 112       49D+1        0.26223   0.13112   0.13112  -0.00000
 113       49D-1        0.11367   0.11367   0.00000   0.11367
 114       49D+2        0.22509   0.12675   0.09834   0.02842
 115       49D-2        0.11367   0.11367   0.00000   0.11367
 116       50D 0        0.01175   0.00872   0.00303   0.00569
 117       50D+1        0.02424   0.01212   0.01212  -0.00000
 118       50D-1        0.00758   0.00758   0.00000   0.00758
 119       50D+2        0.02007   0.01099   0.00909   0.00190
 120       50D-2        0.00758   0.00758   0.00000   0.00758
 121       51D 0       -0.31557  -0.25362  -0.06195  -0.19167
 122       51D+1       -0.49558  -0.24779  -0.24779   0.00000
 123       51D-1       -0.25557  -0.25557  -0.00000  -0.25557
 124       51D+2       -0.43558  -0.24973  -0.18584  -0.06389
 125       51D-2       -0.25557  -0.25557  -0.00000  -0.25557
 126       52D 0        0.82129   0.65869   0.16260   0.49608
 127       52D+1        1.30083   0.65042   0.65042  -0.00000
 128       52D-1        0.66144   0.66144   0.00000   0.66144
 129       52D+2        1.14098   0.65317   0.48781   0.16536
 130       52D-2        0.66144   0.66144   0.00000   0.66144
 131       53D 0       -0.00021  -0.00016  -0.00005  -0.00010
 132       53D+1       -0.00043  -0.00021  -0.00021   0.00000
 133       53D-1       -0.00014  -0.00014  -0.00000  -0.00014
 134       53D+2       -0.00036  -0.00019  -0.00016  -0.00003
 135       53D-2       -0.00014  -0.00014  -0.00000  -0.00014
 136       54F 0        0.00000   0.00000   0.00000  -0.00000
 137       54F+1        0.00001   0.00001   0.00001  -0.00000
 138       54F-1        0.00001   0.00000   0.00000  -0.00000
 139       54F+2        0.00001   0.00001   0.00001  -0.00000
 140       54F-2        0.00000   0.00000   0.00000  -0.00000
 141       54F+3        0.00000   0.00000   0.00000  -0.00000
 142       54F-3        0.00001   0.00000   0.00000  -0.00000
 143       55F 0        0.00000   0.00000   0.00000  -0.00000
 144       55F+1        0.00004   0.00002   0.00002  -0.00000
 145       55F-1        0.00002   0.00001   0.00001  -0.00000
 146       55F+2        0.00004   0.00002   0.00002  -0.00000
 147       55F-2        0.00000   0.00000   0.00000  -0.00000
 148       55F+3        0.00001   0.00000   0.00000  -0.00000
 149       55F-3        0.00003   0.00001   0.00001  -0.00000
 150       56F 0        0.00000   0.00000   0.00000  -0.00000
 151       56F+1        0.00004   0.00002   0.00002  -0.00000
 152       56F-1        0.00002   0.00001   0.00001  -0.00000
 153       56F+2        0.00005   0.00002   0.00002  -0.00000
 154       56F-2        0.00000   0.00000   0.00000  -0.00000
 155       56F+3        0.00001   0.00000   0.00000  -0.00000
 156       56F-3        0.00003   0.00002   0.00002  -0.00000
 157       57F 0        0.00000   0.00000   0.00000  -0.00000
 158       57F+1        0.00001   0.00000   0.00000  -0.00000
 159       57F-1        0.00000   0.00000   0.00000  -0.00000
 160       57F+2        0.00001   0.00000   0.00000  -0.00000
 161       57F-2        0.00000   0.00000   0.00000  -0.00000
 162       57F+3        0.00000   0.00000   0.00000  -0.00000
 163       57F-3        0.00000   0.00000   0.00000  -0.00000
 164       58G 0        0.00000   0.00000   0.00000   0.00000
 165       58G+1        0.00000   0.00000   0.00000  -0.00000
 166       58G-1        0.00000   0.00000   0.00000   0.00000
 167       58G+2        0.00000   0.00000   0.00000   0.00000
 168       58G-2        0.00000   0.00000   0.00000   0.00000
 169       58G+3        0.00000   0.00000   0.00000  -0.00000
 170       58G-3        0.00000   0.00000   0.00000   0.00000
 171       58G+4        0.00000   0.00000   0.00000   0.00000
 172       58G-4        0.00000   0.00000   0.00000   0.00000
 173       59G 0        0.00000   0.00000   0.00000   0.00000
 174       59G+1        0.00000   0.00000   0.00000  -0.00000
 175       59G-1        0.00000   0.00000   0.00000   0.00000
 176       59G+2        0.00000   0.00000   0.00000   0.00000
 177       59G-2        0.00000   0.00000   0.00000   0.00000
 178       59G+3        0.00000   0.00000   0.00000  -0.00000
 179       59G-3        0.00000   0.00000   0.00000   0.00000
 180       59G+4        0.00000   0.00000   0.00000   0.00000
 181       59G-4        0.00000   0.00000   0.00000   0.00000
 182       60G 0        0.00000   0.00000   0.00000   0.00000
 183       60G+1        0.00000   0.00000   0.00000  -0.00000
 184       60G-1        0.00000   0.00000   0.00000   0.00000
 185       60G+2        0.00000   0.00000   0.00000   0.00000
 186       60G-2        0.00000   0.00000   0.00000   0.00000
 187       60G+3        0.00000   0.00000   0.00000  -0.00000
 188       60G-3        0.00000   0.00000   0.00000   0.00000
 189       60G+4        0.00000   0.00000   0.00000   0.00000
 190       60G-4        0.00000   0.00000   0.00000   0.00000
          Condensed to atoms (all electrons):
               1
     1  Co  17.000000
          Atomic-Atomic Spin Densities.
               1
     1  Co   3.000000
 Mulliken charges and spin densities:
               1          2
     1  Co   0.000000   3.000000
 Sum of Mulliken charges =   0.00000   3.00000
 Mulliken charges and spin densities with hydrogens summed into heavy atoms:
               1          2
     1  Co   0.000000   3.000000
 Electronic spatial extent (au):  <R**2>=             38.2211
 Charge=              0.0000 electrons
 Dipole moment (field-independent basis, Debye):
    X=              0.0000    Y=              0.0000    Z=              0.0000  Tot=              0.0000
 Quadrupole moment (field-independent basis, Debye-Ang):
   XX=            -17.1362   YY=            -17.1362   ZZ=            -17.1362
   XY=              0.0000   XZ=              0.0000   YZ=             -0.0000
 Traceless Quadrupole moment (field-independent basis, Debye-Ang):
   XX=             -0.0000   YY=             -0.0000   ZZ=              0.0000
   XY=              0.0000   XZ=              0.0000   YZ=             -0.0000
 Octapole moment (field-independent basis, Debye-Ang**2):
  XXX=              0.0000  YYY=              0.0000  ZZZ=              0.0000  XYY=              0.0000
  XXY=              0.0000  XXZ=              0.0000  XZZ=              0.0000  YZZ=              0.0000
  YYZ=              0.0000  XYZ=              0.0000
 Hexadecapole moment (field-independent basis, Debye-Ang**3):
 XXXX=            -37.5256 YYYY=            -37.7555 ZZZZ=            -37.5256 XXXY=             -0.0000
 XXXZ=             -0.0000 YYYX=              0.0000 YYYZ=             -0.0000 ZZZX=              0.0000
 ZZZY=              0.0000 XXYY=            -12.4319 XXZZ=            -12.6618 YYZZ=            -12.4319
 XXYZ=              0.0000 YYXZ=              0.0000 ZZXY=             -0.0000
 N-N= 0.000000000000D+00 E-N=-3.423348706394D+02  KE= 8.469097504372D+01
 Symmetry AG   KE= 2.777938495412D+01
 Symmetry B1G  KE= 7.695072358527D+00
 Symmetry B2G  KE= 1.486614032365D+01
 Symmetry B3G  KE= 7.695072375568D+00
 Symmetry AU   KE= 1.464044684893D-35
 Symmetry B1U  KE= 8.885101677075D+00
 Symmetry B2U  KE= 8.885101678353D+00
 Symmetry B3U  KE= 8.885101678141D+00
 Symmetry AG   SP= 1.000000000000D+00
 Symmetry B1G  SP= 1.000000000000D+00
 Symmetry B2G  SP=-9.183796765221D-16
 Symmetry B3G  SP= 1.000000000000D+00
 Symmetry AU   SP=-5.815926336823D-52
 Symmetry B1U  SP=-4.268435842845D-16
 Symmetry B2U  SP=-4.977312951300D-16
 Symmetry B3U  SP=-5.051035593711D-16
 Orbital energies and kinetic energies (alpha):
                                 1                 2
   3         O                -3.188985          4.442551
   4         O                -3.188985          4.442551
   5         O                -0.718692          7.433070
   6         O                -0.718692          7.433070
   7         (A1G)--O         -0.718692          0.359860
   8         O                -0.666660          7.695072
   9         O                -0.666660          7.695072
  10         O                -0.281446          7.695072
  11         (T1U)--V          0.022150          0.070303
  12         (T1U)--V          0.022150          0.070303
  13         (T1U)--V          0.022150          0.070303
  14         (A1G)--V          0.029673          0.049978
  15         (T1U)--V          0.076270          0.208107
 Total kinetic energy from orbitals= 1.077761921866D+02
                          Isotropic Fermi Contact Couplings
        Atom                 a.u.       MegaHertz       Gauss      10(-4) cm-1
     1  Co(59)             0.00000       0.00000       0.00000       0.00000
 --------------------------------------------------------
       Center         ----  Spin Dipole Couplings  ----
                      3XX-RR        3YY-RR        3ZZ-RR
 --------------------------------------------------------
     1   Atom       -0.000000     -0.000000      0.000000
 --------------------------------------------------------
                        XY            XZ            YZ
 --------------------------------------------------------
     1   Atom        0.000000      0.000000      0.000000
 --------------------------------------------------------


 ---------------------------------------------------------------------------------
              Anisotropic Spin Dipole Couplings in Principal Axis System
 ---------------------------------------------------------------------------------

       Atom             a.u.   MegaHertz   Gauss  10(-4) cm-1        Axes

              Baa    -0.0000    -0.000    -0.000    -0.000  1.0000  0.0000  0.0000
     1 Co(59) Bbb    -0.0000    -0.000    -0.000    -0.000 -0.0000  1.0000  0.0000
              Bcc     0.0000     0.000     0.000     0.000  0.0000  0.0000  1.0000
 

 ---------------------------------------------------------------------------------

 No NMR shielding tensors so no spin-rotation constants.
 Leave Link  601 at Mon Apr  2 14:46:41 2018, MaxMem= 10737418240 cpu:              85.9 elap:               2.8
 (Enter /home1/apps/gaussian/16rA.03/g16/l9999.exe)

 Test job not archived.
 1\1\GINC-C420-113\SP\ROCCSD(T)-Full\Gen\Co1(4)\GWANG18\02-Apr-2018\0\\
 #P ROCCSD(T)=(MaxCyc=150, Full)/Gen SCF=(maxcycle=400) Pseudo=Read Int
 egral(NoXCTest) Pop=Regular MaxDisk=500GB Guess=Read IOp(5/15=2)\\Co\\
 0,4\Co,0,0.,0.,0.\\Version=ES64L-G16RevA.03\HF=-144.9457487\MP2=-145.6
 983259\MP3=-145.6714037\PUHF=-144.9457487\PMP2-0=-145.6983259\MP4SDQ=-
 145.6892053\CCSD=-145.6847601\CCSD(T)=-145.7072636\RMSD=6.903e-09\PG=O
 H [O(Co1)]\\@


 HERE WE GO......
 SLIDING DOWN THE RAZOR BLADE OF LIFE......
                                 TOM LEHRER
 Job cpu time:       0 days  5 hours  8 minutes 48.9 seconds.
 Elapsed time:       0 days  0 hours  9 minutes 40.1 seconds.
 File lengths (MBytes):  RWF=   1342 Int=      0 D2E=      0 Chk=      5 Scr=      1
 Normal termination of Gaussian 16 at Mon Apr  2 14:46:42 2018.
