 Entering Gaussian System, Link 0=g16
 Initial command:
 /home1/apps/gaussian/16rA.03/g16/l1.exe "/tmp/Gau-127619.inp" -scrdir="/tmp/"
 Entering Link 1 = /home1/apps/gaussian/16rA.03/g16/l1.exe PID=    127621.
  
 Copyright (c) 1988,1990,1992,1993,1995,1998,2003,2009,2016,
            Gaussian, Inc.  All Rights Reserved.
  
 This is part of the Gaussian(R) 16 program.  It is based on
 the Gaussian(R) 09 system (copyright 2009, Gaussian, Inc.),
 the Gaussian(R) 03 system (copyright 2003, Gaussian, Inc.),
 the Gaussian(R) 98 system (copyright 1998, Gaussian, Inc.),
 the Gaussian(R) 94 system (copyright 1995, Gaussian, Inc.),
 the Gaussian 92(TM) system (copyright 1992, Gaussian, Inc.),
 the Gaussian 90(TM) system (copyright 1990, Gaussian, Inc.),
 the Gaussian 88(TM) system (copyright 1988, Gaussian, Inc.),
 the Gaussian 86(TM) system (copyright 1986, Carnegie Mellon
 University), and the Gaussian 82(TM) system (copyright 1983,
 Carnegie Mellon University). Gaussian is a federally registered
 trademark of Gaussian, Inc.
  
 This software contains proprietary and confidential information,
 including trade secrets, belonging to Gaussian, Inc.
  
 This software is provided under written license and may be
 used, copied, transmitted, or stored only in accord with that
 written license.
  
 The following legend is applicable only to US Government
 contracts under FAR:
  
                    RESTRICTED RIGHTS LEGEND
  
 Use, reproduction and disclosure by the US Government is
 subject to restrictions as set forth in subparagraphs (a)
 and (c) of the Commercial Computer Software - Restricted
 Rights clause in FAR 52.227-19.
  
 Gaussian, Inc.
 340 Quinnipiac St., Bldg. 40, Wallingford CT 06492
  
  
 ---------------------------------------------------------------
 Warning -- This program may not be used in any manner that
 competes with the business of Gaussian, Inc. or will provide
 assistance to any competitor of Gaussian, Inc.  The licensee
 of this program is prohibited from giving any competitor of
 Gaussian, Inc. access to this program.  By using this program,
 the user acknowledges that Gaussian, Inc. is engaged in the
 business of creating and licensing software in the field of
 computational chemistry and represents and warrants to the
 licensee that it is not a competitor of Gaussian, Inc. and that
 it will not use this program in any manner prohibited above.
 ---------------------------------------------------------------
  

 Cite this work as:
 Gaussian 16, Revision A.03,
 M. J. Frisch, G. W. Trucks, H. B. Schlegel, G. E. Scuseria, 
 M. A. Robb, J. R. Cheeseman, G. Scalmani, V. Barone, 
 G. A. Petersson, H. Nakatsuji, X. Li, M. Caricato, A. V. Marenich, 
 J. Bloino, B. G. Janesko, R. Gomperts, B. Mennucci, H. P. Hratchian, 
 J. V. Ortiz, A. F. Izmaylov, J. L. Sonnenberg, D. Williams-Young, 
 F. Ding, F. Lipparini, F. Egidi, J. Goings, B. Peng, A. Petrone, 
 T. Henderson, D. Ranasinghe, V. G. Zakrzewski, J. Gao, N. Rega, 
 G. Zheng, W. Liang, M. Hada, M. Ehara, K. Toyota, R. Fukuda, 
 J. Hasegawa, M. Ishida, T. Nakajima, Y. Honda, O. Kitao, H. Nakai, 
 T. Vreven, K. Throssell, J. A. Montgomery, Jr., J. E. Peralta, 
 F. Ogliaro, M. J. Bearpark, J. J. Heyd, E. N. Brothers, K. N. Kudin, 
 V. N. Staroverov, T. A. Keith, R. Kobayashi, J. Normand, 
 K. Raghavachari, A. P. Rendell, J. C. Burant, S. S. Iyengar, 
 J. Tomasi, M. Cossi, J. M. Millam, M. Klene, C. Adamo, R. Cammi, 
 J. W. Ochterski, R. L. Martin, K. Morokuma, O. Farkas, 
 J. B. Foresman, and D. J. Fox, Gaussian, Inc., Wallingford CT, 2016.
 
 ******************************************
 Gaussian 16:  ES64L-G16RevA.03 25-Dec-2016
                28-Apr-2018 
 ******************************************
 %mem=80GB
 %cpu=0-31
 SetSPE:  set environment variable "MP_BIND" = "yes"
 SetSPE:  set environment variable "MP_BLIST" = "0,1,2,3,4,5,6,7,8,9,10,11,12,13,14,15,16,17,18,19,20,21,22,23,24,25,26,27,28,29,30,31"
 Will use up to   32 processors via shared memory.
 %chk=5z.chk
 %rwf=/scratch/04843/gwang18/znh/
 ----------------------------------------------------------------------
 #P ROCCSD(T)=(MaxCyc=150, Full)/Gen SCF=(maxcycle=400, vshift=200) Pse
 udo=Read Integral(NoXCTest) Pop=Regular MaxDisk=500GB Guess=Read IOp(5
 /15=2)
 ----------------------------------------------------------------------
 1/38=1,172=1/1;
 2/12=2,17=6,18=5,40=1/2;
 3/5=7,11=2,16=1,17=8,25=1,30=1,47=8,116=101/1,2,3;
 4/5=1/1;
 5/5=2,7=400,10=200,15=2,38=6/2;
 8/5=-1,6=4,9=120000,10=90/1,4;
 9/5=7,6=150,14=2/13;
 6//1;
 99/5=1,9=1/99;
 Leave Link    1 at Sat Apr 28 21:41:08 2018, MaxMem= 10737418240 cpu:               8.3 elap:               0.3
 (Enter /home1/apps/gaussian/16rA.03/g16/l101.exe)
 ---
 ZnH
 ---
 Symbolic Z-matrix:
 Charge =  0 Multiplicity = 2
 Zn                    0.        0.        0. 
 H                     0.        0.        1.8 
 
 ITRead=  0  0
 MicOpt= -1 -1
 NAtoms=      2 NQM=        2 NQMF=       0 NMMI=      0 NMMIF=      0
                NMic=       0 NMicF=      0.
                    Isotopes and Nuclear Properties:
 (Nuclear quadrupole moments (NQMom) in fm**2, nuclear magnetic moments (NMagM)
  in nuclear magnetons)

  Atom         1           2
 IAtWgt=          64           1
 AtmWgt=  63.9291454   1.0078250
 NucSpn=           0           1
 AtZEff=  -0.0000000  -0.0000000
 NQMom=    0.0000000   0.0000000
 NMagM=    0.0000000   2.7928460
 AtZNuc=  30.0000000   1.0000000
 Leave Link  101 at Sat Apr 28 21:41:08 2018, MaxMem= 10737418240 cpu:               3.1 elap:               0.1
 (Enter /home1/apps/gaussian/16rA.03/g16/l202.exe)
                          Input orientation:                          
 ---------------------------------------------------------------------
 Center     Atomic      Atomic             Coordinates (Angstroms)
 Number     Number       Type             X           Y           Z
 ---------------------------------------------------------------------
      1         30           0        0.000000    0.000000    0.000000
      2          1           0        0.000000    0.000000    1.800000
 ---------------------------------------------------------------------
 Stoichiometry    HZn(2)
 Framework group  C*V[C*(HZn)]
 Deg. of freedom     1
 Full point group                 C*V     NOp   4
 Largest Abelian subgroup         C2V     NOp   4
 Largest concise Abelian subgroup C1      NOp   1
                         Standard orientation:                         
 ---------------------------------------------------------------------
 Center     Atomic      Atomic             Coordinates (Angstroms)
 Number     Number       Type             X           Y           Z
 ---------------------------------------------------------------------
      1         30           0        0.000000    0.000000    0.058065
      2          1           0        0.000000    0.000000   -1.741935
 ---------------------------------------------------------------------
 Rotational constants (GHZ):           0.0000000         157.2100011         157.2100011
 Leave Link  202 at Sat Apr 28 21:41:09 2018, MaxMem= 10737418240 cpu:               0.8 elap:               0.1
 (Enter /home1/apps/gaussian/16rA.03/g16/l301.exe)
 General basis read from cards:  (5D, 7F)
 Centers:       1
 S 1 1.00
     Exponent=  1.8741300000D+08 Coefficients=  1.0000000000D+00
 S 1 1.00
     Exponent=  3.3512700000D+07 Coefficients=  1.0000000000D+00
 S 1 1.00
     Exponent=  7.5047500000D+06 Coefficients=  1.0000000000D+00
 S 1 1.00
     Exponent=  2.0178700000D+06 Coefficients=  1.0000000000D+00
 S 1 1.00
     Exponent=  6.2857800000D+05 Coefficients=  1.0000000000D+00
 S 1 1.00
     Exponent=  2.2016300000D+05 Coefficients=  1.0000000000D+00
 S 1 1.00
     Exponent=  8.4595200000D+04 Coefficients=  1.0000000000D+00
 S 1 1.00
     Exponent=  3.4955500000D+04 Coefficients=  1.0000000000D+00
 S 1 1.00
     Exponent=  1.5290300000D+04 Coefficients=  1.0000000000D+00
 S 1 1.00
     Exponent=  6.9949300000D+03 Coefficients=  1.0000000000D+00
 S 1 1.00
     Exponent=  3.3165900000D+03 Coefficients=  1.0000000000D+00
 S 1 1.00
     Exponent=  1.6192400000D+03 Coefficients=  1.0000000000D+00
 S 1 1.00
     Exponent=  8.1034300000D+02 Coefficients=  1.0000000000D+00
 S 1 1.00
     Exponent=  4.1439300000D+02 Coefficients=  1.0000000000D+00
 S 1 1.00
     Exponent=  2.1605800000D+02 Coefficients=  1.0000000000D+00
 S 1 1.00
     Exponent=  1.1463500000D+02 Coefficients=  1.0000000000D+00
 S 1 1.00
     Exponent=  6.1762300000D+01 Coefficients=  1.0000000000D+00
 S 1 1.00
     Exponent=  3.3692400000D+01 Coefficients=  1.0000000000D+00
 S 1 1.00
     Exponent=  1.8531500000D+01 Coefficients=  1.0000000000D+00
 S 1 1.00
     Exponent=  1.0214400000D+01 Coefficients=  1.0000000000D+00
 S 1 1.00
     Exponent=  5.5942800000D+00 Coefficients=  1.0000000000D+00
 S 1 1.00
     Exponent=  3.0096800000D+00 Coefficients=  1.0000000000D+00
 S 1 1.00
     Exponent=  1.5668400000D+00 Coefficients=  1.0000000000D+00
 S 1 1.00
     Exponent=  7.8143700000D-01 Coefficients=  1.0000000000D+00
 S 1 1.00
     Exponent=  2.5811800000D-01 Coefficients=  1.0000000000D+00
 S 1 1.00
     Exponent=  1.3855600000D-01 Coefficients=  1.0000000000D+00
 S 1 1.00
     Exponent=  6.6171000000D-02 Coefficients=  1.0000000000D+00
 S 1 1.00
     Exponent=  3.0986000000D-02 Coefficients=  1.0000000000D+00
 S 1 1.00
     Exponent=  1.0450800000D+01 Coefficients=  1.0000000000D+00
 S 1 1.00
     Exponent=  3.9198000000D+00 Coefficients=  1.0000000000D+00
 S 1 1.00
     Exponent=  1.4510000000D-02 Coefficients=  1.0000000000D+00
 P 1 1.00
     Exponent=  1.1034900000D+05 Coefficients=  1.0000000000D+00
 P 1 1.00
     Exponent=  2.6971300000D+04 Coefficients=  1.0000000000D+00
 P 1 1.00
     Exponent=  8.5600700000D+03 Coefficients=  1.0000000000D+00
 P 1 1.00
     Exponent=  3.2488000000D+03 Coefficients=  1.0000000000D+00
 P 1 1.00
     Exponent=  1.3894100000D+03 Coefficients=  1.0000000000D+00
 P 1 1.00
     Exponent=  6.4304300000D+02 Coefficients=  1.0000000000D+00
 P 1 1.00
     Exponent=  3.1400500000D+02 Coefficients=  1.0000000000D+00
 P 1 1.00
     Exponent=  1.5948900000D+02 Coefficients=  1.0000000000D+00
 P 1 1.00
     Exponent=  8.3666200000D+01 Coefficients=  1.0000000000D+00
 P 1 1.00
     Exponent=  4.5157400000D+01 Coefficients=  1.0000000000D+00
 P 1 1.00
     Exponent=  2.4963000000D+01 Coefficients=  1.0000000000D+00
 P 1 1.00
     Exponent=  1.4004300000D+01 Coefficients=  1.0000000000D+00
 P 1 1.00
     Exponent=  7.8326700000D+00 Coefficients=  1.0000000000D+00
 P 1 1.00
     Exponent=  4.2841000000D+00 Coefficients=  1.0000000000D+00
 P 1 1.00
     Exponent=  2.2890100000D+00 Coefficients=  1.0000000000D+00
 P 1 1.00
     Exponent=  1.1943600000D+00 Coefficients=  1.0000000000D+00
 P 1 1.00
     Exponent=  5.9425800000D-01 Coefficients=  1.0000000000D+00
 P 1 1.00
     Exponent=  2.2691400000D-01 Coefficients=  1.0000000000D+00
 P 1 1.00
     Exponent=  9.0179000000D-02 Coefficients=  1.0000000000D+00
 P 1 1.00
     Exponent=  3.5718000000D-02 Coefficients=  1.0000000000D+00
 P 1 1.00
     Exponent=  1.4897100000D+01 Coefficients=  1.0000000000D+00
 P 1 1.00
     Exponent=  4.7100000000D+00 Coefficients=  1.0000000000D+00
 P 1 1.00
     Exponent=  1.4150000000D-02 Coefficients=  1.0000000000D+00
 D 1 1.00
     Exponent=  8.5412230000D+02 Coefficients=  1.0000000000D+00
 D 1 1.00
     Exponent=  2.5794960000D+02 Coefficients=  1.0000000000D+00
 D 1 1.00
     Exponent=  1.0023190000D+02 Coefficients=  1.0000000000D+00
 D 1 1.00
     Exponent=  4.4176210000D+01 Coefficients=  1.0000000000D+00
 D 1 1.00
     Exponent=  2.0784760000D+01 Coefficients=  1.0000000000D+00
 D 1 1.00
     Exponent=  1.0227560000D+01 Coefficients=  1.0000000000D+00
 D 1 1.00
     Exponent=  5.1512410000D+00 Coefficients=  1.0000000000D+00
 D 1 1.00
     Exponent=  2.5908470000D+00 Coefficients=  1.0000000000D+00
 D 1 1.00
     Exponent=  1.2858010000D+00 Coefficients=  1.0000000000D+00
 D 1 1.00
     Exponent=  6.2534400000D-01 Coefficients=  1.0000000000D+00
 D 1 1.00
     Exponent=  2.9394300000D-01 Coefficients=  1.0000000000D+00
 D 1 1.00
     Exponent=  1.2899700000D-01 Coefficients=  1.0000000000D+00
 D 1 1.00
     Exponent=  1.1593600000D+01 Coefficients=  1.0000000000D+00
 D 1 1.00
     Exponent=  7.2491000000D+00 Coefficients=  1.0000000000D+00
 D 1 1.00
     Exponent=  5.6610000000D-02 Coefficients=  1.0000000000D+00
 F 1 1.00
     Exponent=  1.7862800000D+01 Coefficients=  1.0000000000D+00
 F 1 1.00
     Exponent=  8.0392000000D+00 Coefficients=  1.0000000000D+00
 F 1 1.00
     Exponent=  3.6180000000D+00 Coefficients=  1.0000000000D+00
 F 1 1.00
     Exponent=  1.6283000000D+00 Coefficients=  1.0000000000D+00
 F 1 1.00
     Exponent=  5.7210000000D-01 Coefficients=  1.0000000000D+00
 F 1 1.00
     Exponent=  2.0101000000D-01 Coefficients=  1.0000000000D+00
 G 1 1.00
     Exponent=  1.2540600000D+01 Coefficients=  1.0000000000D+00
 G 1 1.00
     Exponent=  6.2306000000D+00 Coefficients=  1.0000000000D+00
 G 1 1.00
     Exponent=  3.0956000000D+00 Coefficients=  1.0000000000D+00
 G 1 1.00
     Exponent=  1.1951000000D+00 Coefficients=  1.0000000000D+00
 G 1 1.00
     Exponent=  4.6139000000D-01 Coefficients=  1.0000000000D+00
 H 1 1.00
     Exponent=  1.1226100000D+01 Coefficients=  1.0000000000D+00
 H 1 1.00
     Exponent=  5.5189000000D+00 Coefficients=  1.0000000000D+00
 H 1 1.00
     Exponent=  2.4250000000D+00 Coefficients=  1.0000000000D+00
 H 1 1.00
     Exponent=  1.0655400000D+00 Coefficients=  1.0000000000D+00
 I 1 1.00
     Exponent=  1.1018800000D+01 Coefficients=  1.0000000000D+00
 I 1 1.00
     Exponent=  5.5487000000D+00 Coefficients=  1.0000000000D+00
 I 1 1.00
     Exponent=  2.7941400000D+00 Coefficients=  1.0000000000D+00
 ****
 Centers:       2
 S 1 1.00
     Exponent=  4.0200000000D+02 Coefficients=  1.0000000000D+00
 S 1 1.00
     Exponent=  6.0240000000D+01 Coefficients=  1.0000000000D+00
 S 1 1.00
     Exponent=  1.3730000000D+01 Coefficients=  1.0000000000D+00
 S 1 1.00
     Exponent=  3.9050000000D+00 Coefficients=  1.0000000000D+00
 S 1 1.00
     Exponent=  1.2830000000D+00 Coefficients=  1.0000000000D+00
 S 1 1.00
     Exponent=  4.6550000000D-01 Coefficients=  1.0000000000D+00
 S 1 1.00
     Exponent=  1.8110000000D-01 Coefficients=  1.0000000000D+00
 S 1 1.00
     Exponent=  7.2790000000D-02 Coefficients=  1.0000000000D+00
 S 1 1.00
     Exponent=  2.0700000000D-02 Coefficients=  1.0000000000D+00
 P 1 1.00
     Exponent=  4.5160000000D+00 Coefficients=  1.0000000000D+00
 P 1 1.00
     Exponent=  1.7120000000D+00 Coefficients=  1.0000000000D+00
 P 1 1.00
     Exponent=  6.4900000000D-01 Coefficients=  1.0000000000D+00
 P 1 1.00
     Exponent=  2.4600000000D-01 Coefficients=  1.0000000000D+00
 P 1 1.00
     Exponent=  7.4400000000D-02 Coefficients=  1.0000000000D+00
 D 1 1.00
     Exponent=  2.9500000000D+00 Coefficients=  1.0000000000D+00
 D 1 1.00
     Exponent=  1.2060000000D+00 Coefficients=  1.0000000000D+00
 D 1 1.00
     Exponent=  4.9300000000D-01 Coefficients=  1.0000000000D+00
 D 1 1.00
     Exponent=  1.5600000000D-01 Coefficients=  1.0000000000D+00
 F 1 1.00
     Exponent=  2.5060000000D+00 Coefficients=  1.0000000000D+00
 F 1 1.00
     Exponent=  8.7500000000D-01 Coefficients=  1.0000000000D+00
 F 1 1.00
     Exponent=  2.7400000000D-01 Coefficients=  1.0000000000D+00
 G 1 1.00
     Exponent=  2.3580000000D+00 Coefficients=  1.0000000000D+00
 G 1 1.00
     Exponent=  5.4300000000D-01 Coefficients=  1.0000000000D+00
 ****
 ======================================================================================================
                                       Pseudopotential Parameters
 ======================================================================================================
  Center     Atomic      Valence      Angular      Power
  Number     Number     Electrons     Momentum     of R      Exponent        Coefficient   SO-Coeffient
 ======================================================================================================
    1         30           20
                                      D and up 
                                                     1       35.8777152       20.00000000    0.00000000
                                                     3       34.1078424      717.55430465    0.00000000
                                                     2       28.7174520     -203.49912625    0.00000000
                                                     2        8.3955088       -0.04450117    0.00000000
                                      S - D
                                                     2       14.4978289       95.23904949    0.00000000
                                                     2       35.1597610      430.48072035    0.00000000
                                      P - D
                                                     2       14.7119819       73.77695398    0.00000000
                                                     2       41.6286707      312.12270272    0.00000000
    2          1            1
                                      P and up 
                                                     2       21.7769666      -10.85192405    0.00000000
                                                     1       21.2435951        1.00000000    0.00000000
                                                     3       21.2435951       21.24359508    0.00000000
                                      S - P
                                                     2        1.0000000        0.00000000    0.00000000
 ======================================================================================================
 Ernie: Thresh=  0.10000D-02 Tol=  0.10000D-05 Strict=F.
 There are   248 symmetry adapted cartesian basis functions of A1  symmetry.
 There are    79 symmetry adapted cartesian basis functions of A2  symmetry.
 There are   137 symmetry adapted cartesian basis functions of B1  symmetry.
 There are   137 symmetry adapted cartesian basis functions of B2  symmetry.
 There are   169 symmetry adapted basis functions of A1  symmetry.
 There are    59 symmetry adapted basis functions of A2  symmetry.
 There are   100 symmetry adapted basis functions of B1  symmetry.
 There are   100 symmetry adapted basis functions of B2  symmetry.
   428 basis functions,   601 primitive gaussians,   601 cartesian basis functions
    11 alpha electrons       10 beta electrons
       nuclear repulsion energy         5.8797467880 Hartrees.
 IExCor=    0 DFT=F Ex=HF Corr=None ExCW=0 ScaHFX=  1.000000
 ScaDFX=  1.000000  1.000000  1.000000  1.000000 ScalE2=  1.000000  1.000000
 IRadAn=      5 IRanWt=     -1 IRanGd=            0 ICorTp=0 IEmpDi=  4
 NAtoms=    2 NActive=    2 NUniq=    2 SFac= 1.00D+00 NAtFMM=   60 NAOKFM=F Big=F
 Integral buffers will be    131072 words long.
 Raffenetti 2 integral format.
 Two-electron integral symmetry is turned on.
 Leave Link  301 at Sat Apr 28 21:41:09 2018, MaxMem= 10737418240 cpu:               9.4 elap:               0.4
 (Enter /home1/apps/gaussian/16rA.03/g16/l302.exe)
 NPDir=0 NMtPBC=     1 NCelOv=     1 NCel=       1 NClECP=     1 NCelD=      1
         NCelK=      1 NCelE2=     1 NClLst=     1 CellRange=     0.0.
 One-electron integrals computed using PRISM.
 One-electron integral symmetry used in STVInt
   4 Symmetry operations used in ECPInt.
 ECPInt:  NShTT=    6105 NPrTT=    6105 LenC2=    5973 LenP2D=    5972.
 LDataN:  DoStor=T MaxTD1=12 Len= 1566
 NBasis=   428 RedAO= T EigKep=  1.49D-06  NBF=   169    59   100   100
 NBsUse=   424 1.00D-06 EigRej=  1.05D-07 NBFU=   167    59    99    99
 Leave Link  302 at Sat Apr 28 21:41:18 2018, MaxMem= 10737418240 cpu:             276.4 elap:               8.7
 (Enter /home1/apps/gaussian/16rA.03/g16/l303.exe)
 DipDrv:  MaxL=1.
 Leave Link  303 at Sat Apr 28 21:41:19 2018, MaxMem= 10737418240 cpu:               4.8 elap:               0.3
 (Enter /home1/apps/gaussian/16rA.03/g16/l401.exe)
 Initial guess from the checkpoint file:  "5z.chk"
 B after Tr=     0.000000    0.000000    0.000000
         Rot=    1.000000    0.000000    0.000000    0.000000 Ang=   0.00 deg.
 Guess basis will be translated and rotated to current coordinates.
 JPrj=2 DoOrth=T DoCkMO=T.
 Initial guess orbital symmetries:
       Occupied  (SG) (PI) (PI) (SG) (DLTA) (DLTA) (PI) (PI) (SG)
                 (SG) (SG)
       Virtual   (PI) (PI) (SG) (SG) (PI) (PI) (SG) (SG) (SG) (DLTA)
                 (DLTA) (PI) (PI) (SG) (PI) (PI) (SG) (PI) (PI)
                 (SG) (SG) (PI) (PI) (DLTA) (DLTA) (SG) (DLTA)
                 (DLTA) (SG) (PI) (PI) (SG) (PI) (PI) (SG) (PI)
                 (PI) (PHI) (PHI) (DLTA) (DLTA) (SG) (PI) (PI)
                 (SG) (DLTA) (DLTA) (PI) (PI) (PHI) (PHI) (SG)
                 (DLTA) (DLTA) (SG) (SG) (PI) (PI) (DLTA) (DLTA)
                 (PI) (PI) (SG) (PI) (PI) (SG) (PI) (PI) (SG) (PHI)
                 (PHI) (DLTA) (DLTA) (SG) (PI) (PI) (DLTA) (DLTA)
                 (PI) (PI) (?A) (?A) (SG) (PHI) (PHI) (SG) (DLTA)
                 (DLTA) (PI) (PI) (SG) (SG) (PHI) (PHI) (DLTA)
                 (DLTA) (PI) (PI) (SG) (PI) (PI) (SG) (PI) (PI)
                 (SG) (PHI) (PHI) (DLTA) (DLTA) (PI) (PI) (DLTA)
                 (DLTA) (DLTA) (DLTA) (PI) (PI) (SG) (PI) (PI)
                 (SG) (SG) (SG) (?A) (?A) (PHI) (PHI) (DLTA) (DLTA)
                 (PI) (PI) (SG) (?B) (?B) (?A) (?A) (PHI) (PHI)
                 (DLTA) (DLTA) (PI) (PI) (SG) (PI) (PI) (SG) (DLTA)
                 (DLTA) (PI) (PI) (SG) (PHI) (PHI) (DLTA) (DLTA)
                 (PI) (PI) (SG) (SG) (?A) (?A) (PHI) (PHI) (DLTA)
                 (DLTA) (PI) (PI) (SG) (SG) (?B) (?B) (?A) (?A)
                 (PHI) (PHI) (DLTA) (DLTA) (PI) (PI) (SG) (DLTA)
                 (DLTA) (PI) (PI) (SG) (PI) (PI) (SG) (PHI) (PHI)
                 (DLTA) (DLTA) (PI) (PI) (SG) (SG) (?A) (?A) (PHI)
                 (PHI) (DLTA) (DLTA) (PI) (PI) (SG) (DLTA) (DLTA)
                 (PI) (PI) (SG) (?B) (?B) (?A) (?A) (PHI) (PHI)
                 (DLTA) (DLTA) (PI) (PI) (SG) (PI) (PI) (SG) (DLTA)
                 (DLTA) (PI) (PI) (SG) (SG) (PI) (PI) (SG) (SG)
                 (DLTA) (DLTA) (PI) (PI) (SG) (PI) (PI) (SG) (SG)
                 (DLTA) (DLTA) (PI) (PI) (SG) (SG) (PI) (PI) (SG)
                 (SG) (PI) (PI) (SG) (DLTA) (DLTA) (PI) (PI) (SG)
                 (SG) (PI) (PI) (SG) (DLTA) (DLTA) (PI) (PI) (SG)
                 (SG) (PI) (PI) (SG) (SG) (PI) (PI) (SG) (SG) (PI)
                 (PI) (SG) (SG) (PI) (PI) (SG) (SG) (PI) (PI) (SG)
                 (SG) (SG) (SG) (SG) (SG) (SG) (SG) (DLTA) (SG)
                 (SG) (SG) (SG) (DLTA) (SG) (DLTA) (?A) (SG) (DLTA)
                 (SG) (?A) (SG) (DLTA) (SG) (?A) (SG) (DLTA) (SG)
                 (SG) (DLTA) (SG) (DLTA) (SG) (?A) (SG) (SG) (?A)
                 (DLTA) (DLTA) (SG) (?A) (SG) (SG) (DLTA) (SG)
                 (SG) (SG) (?A) (SG) (DLTA) (DLTA) (DLTA) (?A)
                 (DLTA) (?A) (DLTA) (?A) (SG) (DLTA) (DLTA) (DLTA)
                 (?A) (?A) (DLTA) (DLTA) (?A) (SG) (DLTA) (SG)
                 (?A) (PI) (PI) (PI) (PHI) (PI) (PI) (PHI) (PI)
                 (PI) (PHI) (?B) (PI) (PI) (PHI) (?B) (PHI) (PI)
                 (PHI) (PI) (PHI) (PI) (PI) (PHI) (PI) (?B) (?B)
                 (PHI) (PI) (PI) (PI) (PHI) (PI) (PI) (PHI) (PI)
                 (PI) (PHI) (?B) (PI) (PI) (PHI) (?B) (PHI) (PI)
                 (PHI) (PI) (PHI) (PI) (PI) (PHI) (PI) (?B) (?B)
                 (PHI)
 The electronic state of the initial guess is 2-SG.
 Leave Link  401 at Sat Apr 28 21:41:21 2018, MaxMem= 10737418240 cpu:              40.5 elap:               1.5
 (Enter /home1/apps/gaussian/16rA.03/g16/l502.exe)
 Keep R1 and R2 ints in memory in symmetry-blocked form, NReq=5277864979.
 FoFCou: FMM=F IPFlag=           8 FMFlag=           0 FMFlg1=           0
         NFxFlg=           0 DoJE=F BraDBF=F KetDBF=F FulRan=T
         wScrn=  0.000000 ICntrl=       600 IOpCl=  0 I1Cent=           0 NGrid=           0
         NMat0=    1 NMatS0=  91806 NMatT0=    0 NMatD0=    1 NMtDS0=    0 NMtDT0=    0
 Petite list used in FoFCou.
 Restricted open shell SCF:
 Using DIIS extrapolation, IDIIS=  1040.
 NGot= 10737418240 LenX=  8609582347 LenY=  8609220545
 Requested convergence on RMS density matrix=1.00D-08 within 400 cycles.
 Requested convergence on MAX density matrix=1.00D-06.
 Requested convergence on             energy=1.00D-06.
 Virtual orbitals will be shifted by   0.200 hartree.
 No special actions if energy rises.

 Cycle   1  Pass 1  IDiag  1:
 E= -226.146101486741    
 DIIS: error= 1.67D+00 at cycle   1 NSaved=   1.
 NSaved= 1 IEnMin= 1 EnMin= -226.146101486741     IErMin= 1 ErrMin= 1.67D+00
 ErrMax= 1.67D+00  0.00D+00 EMaxC= 1.00D-01 BMatC= 3.90D+02 BMatP= 3.90D+02
 IDIUse=3 WtCom= 0.00D+00 WtEn= 1.00D+00
 Coeff-Com:  0.100D+01
 Coeff-En:   0.100D+01
 Coeff:      0.100D+01
 Gap=     0.106 Goal=   None    Shift=    0.200
 GapD=    0.106 DampG=1.000 DampE=0.125 DampFc=0.1250 IDamp=-1.
 Damping current iteration by 1.25D-01
 RMSDP=1.09D-03 MaxDP=1.05D-01              OVMax= 8.34D-04

 Cycle   2  Pass 1  IDiag  1:
 E= -226.146122697601     Delta-E=       -0.000021210860 Rises=F Damp=T
 DIIS: error= 1.46D+00 at cycle   2 NSaved=   2.
 NSaved= 2 IEnMin= 2 EnMin= -226.146122697601     IErMin= 2 ErrMin= 1.46D+00
 ErrMax= 1.46D+00  0.00D+00 EMaxC= 1.00D-01 BMatC= 2.99D+02 BMatP= 3.90D+02
 IDIUse=3 WtCom= 0.00D+00 WtEn= 1.00D+00
 Coeff-Com: -0.700D+01 0.800D+01
 Coeff-En:   0.000D+00 0.100D+01
 Coeff:      0.000D+00 0.100D+01
 Gap=     0.105 Goal=   None    Shift=    0.200
 RMSDP=9.61D-04 MaxDP=9.22D-02 DE=-2.12D-05 OVMax= 1.09D-04

 Cycle   3  Pass 1  IDiag  1:
 E= -226.146273338615     Delta-E=       -0.000150641014 Rises=F Damp=F
 DIIS: error= 8.77D-05 at cycle   3 NSaved=   3.
 NSaved= 3 IEnMin= 3 EnMin= -226.146273338615     IErMin= 3 ErrMin= 8.77D-05
 ErrMax= 8.77D-05  0.00D+00 EMaxC= 1.00D-01 BMatC= 4.49D-07 BMatP= 2.99D+02
 IDIUse=1 WtCom= 1.00D+00 WtEn= 0.00D+00
 Coeff-Com:  0.263D+00-0.301D+00 0.104D+01
 Coeff:      0.263D+00-0.301D+00 0.104D+01
 Gap=     0.105 Goal=   None    Shift=    0.200
 RMSDP=1.80D-05 MaxDP=2.60D-03 DE=-1.51D-04 OVMax= 1.58D-04

 Cycle   4  Pass 1  IDiag  1:
 E= -226.146273470684     Delta-E=       -0.000000132070 Rises=F Damp=F
 DIIS: error= 6.40D-06 at cycle   4 NSaved=   4.
 NSaved= 4 IEnMin= 4 EnMin= -226.146273470684     IErMin= 4 ErrMin= 6.40D-06
 ErrMax= 6.40D-06  0.00D+00 EMaxC= 1.00D-01 BMatC= 4.85D-09 BMatP= 4.49D-07
 IDIUse=1 WtCom= 1.00D+00 WtEn= 0.00D+00
 Coeff-Com:  0.213D+00-0.243D+00-0.153D-01 0.105D+01
 Coeff:      0.213D+00-0.243D+00-0.153D-01 0.105D+01
 Gap=     0.105 Goal=   None    Shift=    0.200
 RMSDP=1.65D-06 MaxDP=2.87D-04 DE=-1.32D-07 OVMax= 2.95D-05

 Cycle   5  Pass 1  IDiag  1:
 E= -226.146273474851     Delta-E=       -0.000000004166 Rises=F Damp=F
 DIIS: error= 8.44D-06 at cycle   5 NSaved=   5.
 NSaved= 5 IEnMin= 5 EnMin= -226.146273474851     IErMin= 4 ErrMin= 6.40D-06
 ErrMax= 8.44D-06  0.00D+00 EMaxC= 1.00D-01 BMatC= 1.37D-09 BMatP= 4.85D-09
 IDIUse=1 WtCom= 1.00D+00 WtEn= 0.00D+00
 Coeff-Com:  0.189D+00-0.217D+00 0.462D-01-0.186D+00 0.117D+01
 Coeff:      0.189D+00-0.217D+00 0.462D-01-0.186D+00 0.117D+01
 Gap=     0.105 Goal=   None    Shift=    0.200
 RMSDP=4.20D-07 MaxDP=4.75D-05 DE=-4.17D-09 OVMax= 1.02D-05

 Cycle   6  Pass 1  IDiag  1:
 E= -226.146273475265     Delta-E=       -0.000000000414 Rises=F Damp=F
 DIIS: error= 7.86D-06 at cycle   6 NSaved=   6.
 NSaved= 6 IEnMin= 6 EnMin= -226.146273475265     IErMin= 4 ErrMin= 6.40D-06
 ErrMax= 7.86D-06  0.00D+00 EMaxC= 1.00D-01 BMatC= 1.10D-09 BMatP= 1.37D-09
 IDIUse=1 WtCom= 1.00D+00 WtEn= 0.00D+00
 Coeff-Com:  0.180D+00-0.206D+00 0.435D-01-0.110D+00 0.430D+00 0.663D+00
 Coeff:      0.180D+00-0.206D+00 0.435D-01-0.110D+00 0.430D+00 0.663D+00
 Gap=     0.105 Goal=   None    Shift=    0.200
 RMSDP=1.56D-07 MaxDP=2.32D-05 DE=-4.14D-10 OVMax= 5.24D-06

 Cycle   7  Pass 1  IDiag  1:
 E= -226.146273475413     Delta-E=       -0.000000000148 Rises=F Damp=F
 DIIS: error= 7.46D-06 at cycle   7 NSaved=   7.
 NSaved= 7 IEnMin= 7 EnMin= -226.146273475413     IErMin= 4 ErrMin= 6.40D-06
 ErrMax= 7.46D-06  0.00D+00 EMaxC= 1.00D-01 BMatC= 9.43D-10 BMatP= 1.10D-09
 IDIUse=1 WtCom= 1.00D+00 WtEn= 0.00D+00
 Coeff-Com:  0.162D+00-0.185D+00 0.320D-01 0.975D-01-0.409D+00-0.121D+00
 Coeff-Com:  0.142D+01
 Coeff:      0.162D+00-0.185D+00 0.320D-01 0.975D-01-0.409D+00-0.121D+00
 Coeff:      0.142D+01
 Gap=     0.105 Goal=   None    Shift=    0.200
 RMSDP=2.12D-07 MaxDP=5.28D-05 DE=-1.48D-10 OVMax= 5.31D-06

 Cycle   8  Pass 1  IDiag  1:
 E= -226.146273475599     Delta-E=       -0.000000000186 Rises=F Damp=F
 DIIS: error= 6.76D-06 at cycle   8 NSaved=   8.
 NSaved= 8 IEnMin= 8 EnMin= -226.146273475599     IErMin= 4 ErrMin= 6.40D-06
 ErrMax= 6.76D-06  0.00D+00 EMaxC= 1.00D-01 BMatC= 7.77D-10 BMatP= 9.43D-10
 IDIUse=1 WtCom= 1.00D+00 WtEn= 0.00D+00
 Coeff-Com:  0.143D+00-0.163D+00 0.295D-01 0.373D-01-0.543D-01-0.984D-01
 Coeff-Com: -0.554D+00 0.166D+01
 Coeff:      0.143D+00-0.163D+00 0.295D-01 0.373D-01-0.543D-01-0.984D-01
 Coeff:     -0.554D+00 0.166D+01
 Gap=     0.105 Goal=   None    Shift=    0.200
 RMSDP=2.38D-07 MaxDP=6.46D-05 DE=-1.86D-10 OVMax= 5.53D-06

 Cycle   9  Pass 1  IDiag  1:
 E= -226.146273475792     Delta-E=       -0.000000000193 Rises=F Damp=F
 DIIS: error= 6.00D-06 at cycle   9 NSaved=   9.
 NSaved= 9 IEnMin= 9 EnMin= -226.146273475792     IErMin= 9 ErrMin= 6.00D-06
 ErrMax= 6.00D-06  0.00D+00 EMaxC= 1.00D-01 BMatC= 6.16D-10 BMatP= 7.77D-10
 IDIUse=1 WtCom= 1.00D+00 WtEn= 0.00D+00
 Coeff-Com:  0.111D+00-0.126D+00 0.237D-01-0.717D-03 0.121D+00-0.518D-01
 Coeff-Com: -0.514D+00-0.872D+00 0.231D+01
 Coeff:      0.111D+00-0.126D+00 0.237D-01-0.717D-03 0.121D+00-0.518D-01
 Coeff:     -0.514D+00-0.872D+00 0.231D+01
 Gap=     0.105 Goal=   None    Shift=    0.200
 RMSDP=3.75D-07 MaxDP=1.00D-04 DE=-1.93D-10 OVMax= 7.46D-06

 Cycle  10  Pass 1  IDiag  1:
 E= -226.146273476042     Delta-E=       -0.000000000250 Rises=F Damp=F
 DIIS: error= 4.77D-06 at cycle  10 NSaved=  10.
 NSaved=10 IEnMin=10 EnMin= -226.146273476042     IErMin=10 ErrMin= 4.77D-06
 ErrMax= 4.77D-06  0.00D+00 EMaxC= 1.00D-01 BMatC= 3.95D-10 BMatP= 6.16D-10
 IDIUse=1 WtCom= 1.00D+00 WtEn= 0.00D+00
 Coeff-Com:  0.796D-01-0.909D-01 0.161D-01 0.286D-01-0.822D-01-0.348D-02
 Coeff-Com:  0.718D+00-0.162D+01 0.104D+00 0.185D+01
 Coeff:      0.796D-01-0.909D-01 0.161D-01 0.286D-01-0.822D-01-0.348D-02
 Coeff:      0.718D+00-0.162D+01 0.104D+00 0.185D+01
 Gap=     0.105 Goal=   None    Shift=    0.200
 RMSDP=4.02D-07 MaxDP=1.09D-04 DE=-2.50D-10 OVMax= 8.31D-06

 Cycle  11  Pass 1  IDiag  1:
 E= -226.146273476264     Delta-E=       -0.000000000223 Rises=F Damp=F
 DIIS: error= 3.51D-06 at cycle  11 NSaved=  11.
 NSaved=11 IEnMin=11 EnMin= -226.146273476264     IErMin=11 ErrMin= 3.51D-06
 ErrMax= 3.51D-06  0.00D+00 EMaxC= 1.00D-01 BMatC= 2.18D-10 BMatP= 3.95D-10
 IDIUse=1 WtCom= 1.00D+00 WtEn= 0.00D+00
 Coeff-Com:  0.276D-01-0.316D-01 0.574D-02-0.253D-02 0.555D-01 0.312D-01
 Coeff-Com: -0.641D+00 0.847D+00 0.966D+00-0.428D+01 0.403D+01
 Coeff:      0.276D-01-0.316D-01 0.574D-02-0.253D-02 0.555D-01 0.312D-01
 Coeff:     -0.641D+00 0.847D+00 0.966D+00-0.428D+01 0.403D+01
 Gap=     0.105 Goal=   None    Shift=    0.200
 RMSDP=6.02D-07 MaxDP=1.61D-04 DE=-2.23D-10 OVMax= 1.16D-05

 Cycle  12  Pass 1  IDiag  1:
 E= -226.146273476478     Delta-E=       -0.000000000213 Rises=F Damp=F
 DIIS: error= 1.53D-06 at cycle  12 NSaved=  12.
 NSaved=12 IEnMin=12 EnMin= -226.146273476478     IErMin=12 ErrMin= 1.53D-06
 ErrMax= 1.53D-06  0.00D+00 EMaxC= 1.00D-01 BMatC= 4.90D-11 BMatP= 2.18D-10
 IDIUse=1 WtCom= 1.00D+00 WtEn= 0.00D+00
 Coeff-Com:  0.314D-01-0.358D-01 0.644D-02 0.469D-02 0.281D-02 0.786D-01
 Coeff-Com: -0.380D+00 0.567D+00 0.477D+00-0.438D+01 0.534D+01-0.715D+00
 Coeff:      0.314D-01-0.358D-01 0.644D-02 0.469D-02 0.281D-02 0.786D-01
 Coeff:     -0.380D+00 0.567D+00 0.477D+00-0.438D+01 0.534D+01-0.715D+00
 Gap=     0.105 Goal=   None    Shift=    0.200
 RMSDP=1.28D-07 MaxDP=4.03D-05 DE=-2.13D-10 OVMax= 4.40D-06

 Cycle  13  Pass 1  IDiag  1:
 E= -226.146273476517     Delta-E=       -0.000000000040 Rises=F Damp=F
 DIIS: error= 1.36D-06 at cycle  13 NSaved=  13.
 NSaved=13 IEnMin=13 EnMin= -226.146273476517     IErMin=13 ErrMin= 1.36D-06
 ErrMax= 1.36D-06  0.00D+00 EMaxC= 1.00D-01 BMatC= 3.45D-11 BMatP= 4.90D-11
 IDIUse=1 WtCom= 1.00D+00 WtEn= 0.00D+00
 Coeff-Com:  0.393D-02-0.449D-02 0.933D-03-0.525D-03 0.105D-02-0.252D-01
 Coeff-Com:  0.898D-01-0.273D+00 0.216D+00-0.290D+00-0.263D-01-0.514D+00
 Coeff-Com:  0.182D+01
 Coeff:      0.393D-02-0.449D-02 0.933D-03-0.525D-03 0.105D-02-0.252D-01
 Coeff:      0.898D-01-0.273D+00 0.216D+00-0.290D+00-0.263D-01-0.514D+00
 Coeff:      0.182D+01
 Gap=     0.105 Goal=   None    Shift=    0.200
 RMSDP=2.96D-07 MaxDP=7.79D-05 DE=-3.96D-11 OVMax= 5.90D-06

 Cycle  14  Pass 1  IDiag  1:
 E= -226.146273476559     Delta-E=       -0.000000000042 Rises=F Damp=F
 DIIS: error= 3.73D-07 at cycle  14 NSaved=  14.
 NSaved=14 IEnMin=14 EnMin= -226.146273476559     IErMin=14 ErrMin= 3.73D-07
 ErrMax= 3.73D-07  0.00D+00 EMaxC= 1.00D-01 BMatC= 4.54D-12 BMatP= 3.45D-11
 IDIUse=1 WtCom= 1.00D+00 WtEn= 0.00D+00
 Coeff-Com:  0.986D-03-0.113D-02 0.259D-03-0.103D-02 0.577D-02 0.423D-02
 Coeff-Com: -0.516D-01 0.976D-02 0.232D+00-0.183D+00 0.227D-01-0.102D+01
 Coeff-Com:  0.495D+00 0.148D+01
 Coeff:      0.986D-03-0.113D-02 0.259D-03-0.103D-02 0.577D-02 0.423D-02
 Coeff:     -0.516D-01 0.976D-02 0.232D+00-0.183D+00 0.227D-01-0.102D+01
 Coeff:      0.495D+00 0.148D+01
 Gap=     0.105 Goal=   None    Shift=    0.200
 RMSDP=1.08D-07 MaxDP=3.20D-05 DE=-4.16D-11 OVMax= 3.05D-06

 Cycle  15  Pass 1  IDiag  1:
 E= -226.146273476567     Delta-E=       -0.000000000008 Rises=F Damp=F
 DIIS: error= 1.24D-07 at cycle  15 NSaved=  15.
 NSaved=15 IEnMin=15 EnMin= -226.146273476567     IErMin=15 ErrMin= 1.24D-07
 ErrMax= 1.24D-07  0.00D+00 EMaxC= 1.00D-01 BMatC= 1.00D-12 BMatP= 4.54D-12
 IDIUse=1 WtCom= 1.00D+00 WtEn= 0.00D+00
 Coeff-Com:  0.658D-03-0.752D-03 0.218D-03-0.207D-02 0.117D-01 0.148D-02
 Coeff-Com: -0.849D-01 0.524D-01 0.269D+00-0.271D+00 0.377D-01-0.851D+00
 Coeff-Com:  0.442D+00 0.109D+01 0.300D+00
 Coeff:      0.658D-03-0.752D-03 0.218D-03-0.207D-02 0.117D-01 0.148D-02
 Coeff:     -0.849D-01 0.524D-01 0.269D+00-0.271D+00 0.377D-01-0.851D+00
 Coeff:      0.442D+00 0.109D+01 0.300D+00
 Gap=     0.105 Goal=   None    Shift=    0.200
 RMSDP=3.96D-08 MaxDP=1.20D-05 DE=-8.21D-12 OVMax= 1.57D-06

 Cycle  16  Pass 1  IDiag  1:
 E= -226.146273476570     Delta-E=       -0.000000000002 Rises=F Damp=F
 DIIS: error= 5.69D-08 at cycle  16 NSaved=  16.
 NSaved=16 IEnMin=16 EnMin= -226.146273476570     IErMin=16 ErrMin= 5.69D-08
 ErrMax= 5.69D-08  0.00D+00 EMaxC= 1.00D-01 BMatC= 2.83D-13 BMatP= 1.00D-12
 IDIUse=1 WtCom= 1.00D+00 WtEn= 0.00D+00
 Coeff-Com:  0.507D-04-0.579D-04 0.347D-04-0.478D-03 0.167D-02 0.777D-02
 Coeff-Com: -0.433D-01 0.861D-01 0.312D-01-0.177D-01 0.168D-01-0.661D+00
 Coeff-Com:  0.107D+00 0.939D+00-0.192D+00 0.725D+00
 Coeff:      0.507D-04-0.579D-04 0.347D-04-0.478D-03 0.167D-02 0.777D-02
 Coeff:     -0.433D-01 0.861D-01 0.312D-01-0.177D-01 0.168D-01-0.661D+00
 Coeff:      0.107D+00 0.939D+00-0.192D+00 0.725D+00
 Gap=     0.105 Goal=   None    Shift=    0.200
 RMSDP=2.10D-08 MaxDP=6.02D-06 DE=-2.33D-12 OVMax= 8.44D-07

 Cycle  17  Pass 1  IDiag  1:
 E= -226.146273476570     Delta-E=       -0.000000000001 Rises=F Damp=F
 DIIS: error= 3.86D-08 at cycle  17 NSaved=  17.
 NSaved=17 IEnMin=17 EnMin= -226.146273476570     IErMin=17 ErrMin= 3.86D-08
 ErrMax= 3.86D-08  0.00D+00 EMaxC= 1.00D-01 BMatC= 1.16D-13 BMatP= 2.83D-13
 IDIUse=1 WtCom= 1.00D+00 WtEn= 0.00D+00
 Coeff-Com: -0.490D-04 0.560D-04 0.215D-04-0.116D-02 0.655D-02-0.276D-03
 Coeff-Com: -0.591D-01 0.145D+00-0.472D-01-0.579D-01 0.223D-01 0.150D+00
 Coeff-Com: -0.170D+00-0.430D+00 0.463D-02 0.699D+00 0.739D+00
 Coeff:     -0.490D-04 0.560D-04 0.215D-04-0.116D-02 0.655D-02-0.276D-03
 Coeff:     -0.591D-01 0.145D+00-0.472D-01-0.579D-01 0.223D-01 0.150D+00
 Coeff:     -0.170D+00-0.430D+00 0.463D-02 0.699D+00 0.739D+00
 Gap=     0.105 Goal=   None    Shift=    0.200
 RMSDP=8.59D-09 MaxDP=2.36D-06 DE=-5.68D-13 OVMax= 3.81D-07

 Cycle  18  Pass 1  IDiag  1:
 E= -226.146273476571     Delta-E=       -0.000000000000 Rises=F Damp=F
 DIIS: error= 1.26D-08 at cycle  18 NSaved=  18.
 NSaved=18 IEnMin=18 EnMin= -226.146273476571     IErMin=18 ErrMin= 1.26D-08
 ErrMax= 1.26D-08  0.00D+00 EMaxC= 1.00D-01 BMatC= 2.11D-14 BMatP= 1.16D-13
 IDIUse=1 WtCom= 1.00D+00 WtEn= 0.00D+00
 Coeff-Com: -0.104D-03 0.119D-03 0.404D-05-0.931D-03 0.518D-02-0.307D-03
 Coeff-Com: -0.445D-01 0.109D+00-0.393D-01-0.376D-01 0.126D-01 0.124D+00
 Coeff-Com: -0.128D+00-0.344D+00-0.844D-03 0.475D+00 0.507D+00 0.363D+00
 Coeff:     -0.104D-03 0.119D-03 0.404D-05-0.931D-03 0.518D-02-0.307D-03
 Coeff:     -0.445D-01 0.109D+00-0.393D-01-0.376D-01 0.126D-01 0.124D+00
 Coeff:     -0.128D+00-0.344D+00-0.844D-03 0.475D+00 0.507D+00 0.363D+00
 Gap=     0.105 Goal=   None    Shift=    0.200
 RMSDP=4.05D-09 MaxDP=1.09D-06 DE=-4.55D-13 OVMax= 2.02D-07

 Cycle  19  Pass 1  IDiag  1:
 E= -226.146273476571     Delta-E=        0.000000000000 Rises=F Damp=F
 DIIS: error= 7.87D-09 at cycle  19 NSaved=  19.
 NSaved=19 IEnMin=18 EnMin= -226.146273476571     IErMin=19 ErrMin= 7.87D-09
 ErrMax= 7.87D-09  0.00D+00 EMaxC= 1.00D-01 BMatC= 6.43D-15 BMatP= 2.11D-14
 IDIUse=1 WtCom= 1.00D+00 WtEn= 0.00D+00
 Large coefficients: NSaved= 19 BigCof=    0.00 CofMax=   10.00 Det=-6.56D-15
 Inversion failed.  Reducing to 18 matrices.
 Large coefficients: NSaved= 18 BigCof=    0.00 CofMax=   10.00 Det=-6.57D-15
 Inversion failed.  Reducing to 17 matrices.
 Coeff-Com:  0.129D-04-0.452D-03 0.258D-02-0.731D-03-0.171D-01 0.310D-01
 Coeff-Com: -0.105D-02-0.254D-01 0.610D-02 0.644D-01-0.288D-01-0.134D+00
 Coeff-Com: -0.560D-01 0.870D-01 0.231D+00 0.209D-01 0.820D+00
 Coeff:      0.129D-04-0.452D-03 0.258D-02-0.731D-03-0.171D-01 0.310D-01
 Coeff:     -0.105D-02-0.254D-01 0.610D-02 0.644D-01-0.288D-01-0.134D+00
 Coeff:     -0.560D-01 0.870D-01 0.231D+00 0.209D-01 0.820D+00
 Gap=     0.105 Goal=   None    Shift=    0.200
 RMSDP=1.75D-09 MaxDP=1.86D-07 DE= 2.84D-14 OVMax= 8.96D-08

 SCF Done:  E(ROHF) =  -226.146273477     A.U. after   19 cycles
            NFock= 19  Conv=0.18D-08     -V/T= 2.5048
 <Sx>= 0.0000 <Sy>= 0.0000 <Sz>= 0.5000 <S**2>= 0.7500 S= 0.5000
 <L.S>=  0.00000000000    
 KE= 1.502805460186D+02 PE=-5.694592460660D+02 EE= 1.871526797828D+02
 Annihilation of the first spin contaminant:
 S**2 before annihilation     0.7500,   after     0.7500
 Leave Link  502 at Sat Apr 28 21:44:40 2018, MaxMem= 10737418240 cpu:            5516.3 elap:             198.7
 (Enter /home1/apps/gaussian/16rA.03/g16/l801.exe)
 Windowed orbitals will be sorted by symmetry type.
 GenMOA:  NOpAll=  4 NOp2=4 NOpUse=  4 JSym2X=1
 FoFJK:  IHMeth= 1 ICntrl=       0 DoSepK=F KAlg= 0 I1Cent=           0 FoldK=F
 IRaf=         0 NMat=       1 IRICut=       1 DoRegI=T DoRafI=F ISym2E= 1 IDoP0=0 IntGTp=1.
 FoFCou: FMM=F IPFlag=           8 FMFlag=      100000 FMFlg1=           0
         NFxFlg=           0 DoJE=F BraDBF=F KetDBF=F FulRan=T
         wScrn=  0.000000 ICntrl=         0 IOpCl=  1 I1Cent=           0 NGrid=           0
         NMat0=    1 NMatS0=      1 NMatT0=    0 NMatD0=    1 NMtDS0=    0 NMtDT0=    0
 Petite list used in FoFCou.
 <Sx>= 0.0000 <Sy>= 0.0000 <Sz>= 0.5000 <S**2>= 0.7500 S= 0.5000
 Range of M.O.s used for correlation:     1   424
 NBasis=   428 NAE=    11 NBE=    10 NFC=     0 NFV=     0
 NROrb=    424 NOA=    11 NOB=    10 NVA=   413 NVB=   414

 **** Warning!!: The largest alpha MO coefficient is  0.31106678D+03


 **** Warning!!: The largest beta MO coefficient is  0.31106649D+03

 Singles contribution to E2=   -0.1382485084D-02
 Leave Link  801 at Sat Apr 28 21:45:38 2018, MaxMem= 10737418240 cpu:            1827.7 elap:              57.2
 (Enter /home1/apps/gaussian/16rA.03/g16/l804.exe)
 Open-shell transformation, MDV= 10737418240 ITran=4 ISComp=2.
 Unit  1 TFree=       5552142 TCopy=       2552274.
 Semi-Direct transformation.
 ModeAB=           2 MOrb=            11 LenV=   10731957589
 LASXX=    104488099 LTotXX=   104488099 LenRXX=   104488099
 LTotAB=   105441286 MaxLAS=   843722264 LenRXY=   843722264
 NonZer=   856310400 LenScr=  1289503744 LnRSAI=           0
 LnScr1=           0 LExtra=    31418709 Total=   2269132816
 MaxDsk= 67108864000 SrtSym=           F ITran=            4
 DoSDTr:  NPSUse= 32
 JobTyp=1 Pass  1:  I=   1 to  11.
 (rs|ai) integrals will be sorted in core.
 Complete sort for first half transformation.
 First half transformation complete.
 Begin second half transformation for I=  10.
 Begin second half transformation for I=  10.
 Complete sort for second half transformation.
 Second half transformation complete.
 ModeAB=           2 MOrb=            10 LenV=   10731957589
 LASXX=     94955716 LTotXX=    94955716 LenRXX=   767020240
 LTotAB=    90848451 MaxLAS=   767020240 LenRXY=    90848451
 NonZer=   778464000 LenScr=  1172276224 LnRSAI=           0
 LnScr1=           0 LExtra=   979629072 Total=   3009773987
 MaxDsk= 67108864000 SrtSym=           F ITran=            4
 DoSDTr:  NPSUse= 32
 JobTyp=2 Pass  1:  I=   1 to  10.
 (rs|ai) integrals will be sorted in core.
 Complete sort for first half transformation.
 First half transformation complete.
 Begin second half transformation for I=  10.
 Begin second half transformation for I=  10.
 Complete sort for second half transformation.
 Second half transformation complete.
 Spin components of T(2) and E(2):
     alpha-alpha T2 =       0.1812931640D-01 E2=     -0.1671217645D+00
     alpha-beta  T2 =       0.8106680438D-01 E2=     -0.7783694326D+00
     beta-beta   T2 =       0.1534752355D-01 E2=     -0.1577428059D+00
 ANorm=    0.1056514042D+01
 E2 =    -0.1104616488D+01 EUMP2 =    -0.22725088996462D+03
 (S**2,0)=  0.75000D+00           (S**2,1)=  0.75000D+00
 E(PUHF)=      -0.22614627348D+03        E(PMP2)=      -0.22725088996D+03
 Leave Link  804 at Sat Apr 28 22:22:31 2018, MaxMem= 10737418240 cpu:           70783.0 elap:            2212.8
 (Enter /home1/apps/gaussian/16rA.03/g16/l913.exe)
 CIDS:  MDV= 10737418240.
 IFCWin=0 IBDFC=1 NFBD=     0     0 NFCmp=     0     0 NFFFC=     0     0
 Using original routines for 1st iteration.
 Using DD4UQ or CC4UQ for 2nd and later iterations.
 Keep R2 and R3 ints in memory in symmetry-blocked form, NReq=5277888631.
 FoFCou: FMM=F IPFlag=           8 FMFlag=           0 FMFlg1=           0
         NFxFlg=           0 DoJE=F BraDBF=F KetDBF=F FulRan=T
         wScrn=  0.000000 ICntrl=       600 IOpCl=  0 I1Cent=           0 NGrid=           0
         NMat0=    1 NMatS0=  91806 NMatT0=    0 NMatD0=    1 NMtDS0=    0 NMtDT0=    0
 Petite list used in FoFCou.
 CIDS: In Core Option IDoMem=           1.
 CCSD(T)
 =======
 Iterations= 150 Convergence= 0.100D-06
 Produce multiple copies of IABC intergrals
 Iteration Nr.   1
 **********************
 DD1Dir will call FoFMem   1 times, MxPair=       320
 NAB=   110 NAA=    55 NBB=    45.
 DD1Dir will call FoFMem   1 times, MxPair=       320
 NAB=   110 NAA=    55 NBB=    45.
 MP4(R+Q)= -0.12569535D+00
 Maximum subspace dimension=  5
 A-vector RMS=  9.1600199D-05 Max=  1.4835425D-03 conv= 1.00D-05.
 RLE energy=       -1.1081686477
 E3=        0.12211242D+00        EROMP3=      -0.22712877755D+03
 E4(SDQ)=  -0.73453437D-01        ROMP4(SDQ)=  -0.22720223098D+03
 VARIATIONAL ENERGIES WITH THE FIRST-ORDER WAVEFUNCTION:
 DE(Corr)=  -1.1081576     E(Corr)=     -227.25443110    
 NORM(A)=   0.10560782D+01
 Iteration Nr.   2
 **********************
 DD1Dir will call FoFMem   1 times, MxPair=       320
 NAB=   110 NAA=    55 NBB=    45.
 A-vector RMS=  2.3327711D-03 Max=  3.1616762D-02 conv= 1.00D-05.
 RLE energy=       -1.0895285411
 DE(Corr)= -0.98122998     E(CORR)=     -227.12750346     Delta= 1.27D-01
 NORM(A)=   0.10541119D+01
 Iteration Nr.   3
 **********************
 DD1Dir will call FoFMem   1 times, MxPair=       320
 NAB=   110 NAA=    55 NBB=    45.
 A-vector RMS=  1.9422595D-03 Max=  2.9357717D-02 conv= 1.00D-05.
 RLE energy=       -1.0516524128
 DE(Corr)= -0.98942729     E(CORR)=     -227.13570077     Delta=-8.20D-03
 NORM(A)=   0.10555259D+01
 Iteration Nr.   4
 **********************
 DD1Dir will call FoFMem   1 times, MxPair=       320
 NAB=   110 NAA=    55 NBB=    45.
 A-vector RMS=  1.1715630D-03 Max=  2.1319827D-02 conv= 1.00D-05.
 RLE energy=       -0.9370546973
 DE(Corr)=  -1.0107348     E(CORR)=     -227.15700827     Delta=-2.13D-02
 NORM(A)=   0.11147794D+01
 Iteration Nr.   5
 **********************
 DD1Dir will call FoFMem   1 times, MxPair=       320
 NAB=   110 NAA=    55 NBB=    45.
 A-vector RMS=  2.7244919D-03 Max=  2.4543890D-02 conv= 1.00D-05.
 RLE energy=       -1.0312473022
 DE(Corr)=  -1.0932530     E(CORR)=     -227.23952648     Delta=-8.25D-02
 NORM(A)=   0.10739236D+01
 Iteration Nr.   6
 **********************
 DD1Dir will call FoFMem   1 times, MxPair=       320
 NAB=   110 NAA=    55 NBB=    45.
 A-vector RMS=  1.8565184D-04 Max=  4.8766255D-03 conv= 1.00D-05.
 RLE energy=       -1.0310155149
 DE(Corr)=  -1.0309198     E(CORR)=     -227.17719324     Delta= 6.23D-02
 NORM(A)=   0.10745583D+01
 Iteration Nr.   7
 **********************
 DD1Dir will call FoFMem   1 times, MxPair=       320
 NAB=   110 NAA=    55 NBB=    45.
 A-vector RMS=  9.8848240D-05 Max=  2.8756129D-03 conv= 1.00D-05.
 RLE energy=       -1.0306044803
 DE(Corr)=  -1.0306524     E(CORR)=     -227.17692590     Delta= 2.67D-04
 NORM(A)=   0.10768060D+01
 Iteration Nr.   8
 **********************
 DD1Dir will call FoFMem   1 times, MxPair=       320
 NAB=   110 NAA=    55 NBB=    45.
 A-vector RMS=  4.7420356D-05 Max=  8.3941068D-04 conv= 1.00D-05.
 RLE energy=       -1.0309140739
 DE(Corr)=  -1.0311451     E(CORR)=     -227.17741855     Delta=-4.93D-04
 NORM(A)=   0.10771091D+01
 Iteration Nr.   9
 **********************
 DD1Dir will call FoFMem   1 times, MxPair=       320
 NAB=   110 NAA=    55 NBB=    45.
 A-vector RMS=  2.0508444D-05 Max=  2.7839545D-04 conv= 1.00D-05.
 RLE energy=       -1.0309845767
 DE(Corr)=  -1.0309455     E(CORR)=     -227.17721899     Delta= 2.00D-04
 NORM(A)=   0.10773829D+01
 Iteration Nr.  10
 **********************
 DD1Dir will call FoFMem   1 times, MxPair=       320
 NAB=   110 NAA=    55 NBB=    45.
 A-vector RMS=  7.8685349D-06 Max=  1.1932383D-04 conv= 1.00D-05.
 RLE energy=       -1.0309750780
 DE(Corr)=  -1.0309990     E(CORR)=     -227.17727245     Delta=-5.35D-05
 NORM(A)=   0.10773206D+01
 Iteration Nr.  11
 **********************
 DD1Dir will call FoFMem   1 times, MxPair=       320
 NAB=   110 NAA=    55 NBB=    45.
 A-vector RMS=  2.9975513D-06 Max=  3.7078153D-05 conv= 1.00D-05.
 RLE energy=       -1.0309692461
 DE(Corr)=  -1.0309795     E(CORR)=     -227.17725293     Delta= 1.95D-05
 NORM(A)=   0.10772780D+01
 Iteration Nr.  12
 **********************
 DD1Dir will call FoFMem   1 times, MxPair=       320
 NAB=   110 NAA=    55 NBB=    45.
 A-vector RMS=  1.1234024D-06 Max=  3.4185454D-05 conv= 1.00D-05.
 RLE energy=       -1.0309688322
 DE(Corr)=  -1.0309699     E(CORR)=     -227.17724335     Delta= 9.58D-06
 NORM(A)=   0.10772717D+01
 Iteration Nr.  13
 **********************
 DD1Dir will call FoFMem   1 times, MxPair=       320
 NAB=   110 NAA=    55 NBB=    45.
 A-vector RMS=  5.5522981D-07 Max=  9.1079632D-06 conv= 1.00D-05.
 RLE energy=       -1.0309685008
 DE(Corr)=  -1.0309692     E(CORR)=     -227.17724267     Delta= 6.78D-07
 NORM(A)=   0.10772704D+01
 Iteration Nr.  14
 **********************
 DD1Dir will call FoFMem   1 times, MxPair=       320
 NAB=   110 NAA=    55 NBB=    45.
 A-vector RMS=  3.6688640D-07 Max=  1.0631808D-05 conv= 1.00D-05.
 RLE energy=       -1.0309678276
 DE(Corr)=  -1.0309679     E(CORR)=     -227.17724134     Delta= 1.33D-06
 NORM(A)=   0.10772709D+01
 Iteration Nr.  15
 **********************
 DD1Dir will call FoFMem   1 times, MxPair=       320
 NAB=   110 NAA=    55 NBB=    45.
 A-vector RMS=  1.2014243D-07 Max=  2.7107153D-06 conv= 1.00D-05.
 RLE energy=       -1.0309685720
 DE(Corr)=  -1.0309686     E(CORR)=     -227.17724204     Delta=-6.98D-07
 NORM(A)=   0.10772724D+01
 Iteration Nr.  16
 **********************
 DD1Dir will call FoFMem   1 times, MxPair=       320
 NAB=   110 NAA=    55 NBB=    45.
 A-vector RMS=  8.1379173D-08 Max=  1.9546117D-06 conv= 1.00D-05.
 RLE energy=       -1.0309687774
 DE(Corr)=  -1.0309687     E(CORR)=     -227.17724218     Delta=-1.45D-07
 NORM(A)=   0.10772732D+01
 Iteration Nr.  17
 **********************
 DD1Dir will call FoFMem   1 times, MxPair=       320
 NAB=   110 NAA=    55 NBB=    45.
 A-vector RMS=  4.9745083D-08 Max=  1.1307752D-06 conv= 1.00D-05.
 RLE energy=       -1.0309688259
 DE(Corr)=  -1.0309687     E(CORR)=     -227.17724221     Delta=-2.30D-08
 NORM(A)=   0.10772740D+01
 CI/CC converged in   17 iterations to DelEn=-2.30D-08 Conv= 1.00D-07 ErrA1= 4.97D-08 Conv= 1.00D-05
 Wavefunction amplitudes converged. E(Corr)=     -227.17724221    
 Dominant configurations:
 ***********************
 Spin Case        I    J    A    B          Value
    BB           10        11            0.113346D+00
 Largest amplitude= 1.13D-01
 Time for triples=   216418.41 seconds.
 T4(CCSD)= -0.31862046D-01
 T5(CCSD)=  0.27895872D-02
 CCSD(T)= -0.22720631467D+03
 Discarding MO integrals.
 Leave Link  913 at Sun Apr 29 00:38:09 2018, MaxMem= 10737418240 cpu:          258826.2 elap:            8138.1
 (Enter /home1/apps/gaussian/16rA.03/g16/l601.exe)
 Copying SCF densities to generalized density rwf, IOpCl= 0 IROHF=1.

 **********************************************************************

            Population analysis using the SCF density.

 **********************************************************************

 Orbital symmetries:
       Occupied  (SG) (PI) (PI) (SG) (DLTA) (DLTA) (PI) (PI) (SG)
                 (SG) (SG)
       Virtual   (PI) (PI) (SG) (SG) (PI) (PI) (SG) (SG) (SG) (DLTA)
                 (DLTA) (PI) (PI) (SG) (PI) (PI) (SG) (PI) (PI)
                 (SG) (SG) (SG) (PI) (PI) (DLTA) (DLTA) (DLTA)
                 (DLTA) (SG) (SG) (PI) (PI) (PI) (PI) (PHI) (PHI)
                 (SG) (PI) (PI) (DLTA) (DLTA) (SG) (PI) (PI) (SG)
                 (SG) (DLTA) (DLTA) (PHI) (PHI) (PI) (PI) (SG)
                 (SG) (DLTA) (DLTA) (PI) (PI) (SG) (DLTA) (DLTA)
                 (PI) (PI) (PI) (PI) (SG) (?A) (?A) (PHI) (PHI)
                 (PHI) (PHI) (DLTA) (DLTA) (SG) (PI) (PI) (PI)
                 (PI) (SG) (DLTA) (DLTA) (PI) (PI) (SG) (DLTA)
                 (DLTA) (SG) (?A) (?A) (SG) (PHI) (PHI) (PI) (PI)
                 (SG) (DLTA) (DLTA) (SG) (PI) (PI) (SG) (PHI) (PHI)
                 (DLTA) (DLTA) (PI) (PI) (SG) (DLTA) (DLTA) (PI)
                 (PI) (PI) (PI) (SG) (PHI) (PHI) (DLTA) (DLTA)
                 (?B) (?B) (?A) (?A) (PI) (PI) (PHI) (PHI) (SG)
                 (?A) (?A) (SG) (PHI) (PHI) (DLTA) (DLTA) (SG)
                 (PI) (PI) (PI) (PI) (DLTA) (DLTA) (SG) (DLTA)
                 (DLTA) (PI) (PI) (SG) (PI) (PI) (SG) (SG) (SG)
                 (PI) (PI) (PHI) (PHI) (DLTA) (DLTA) (SG) (?A)
                 (?A) (PI) (PI) (PHI) (PHI) (SG) (DLTA) (DLTA)
                 (PI) (PI) (DLTA) (DLTA) (PI) (PI) (PHI) (PHI)
                 (DLTA) (DLTA) (SG) (SG) (PI) (PI) (DLTA) (DLTA)
                 (SG) (PI) (PI) (SG) (?A) (?A) (PHI) (PHI) (DLTA)
                 (DLTA) (?B) (?B) (?A) (?A) (PHI) (PHI) (PI) (PI)
                 (DLTA) (DLTA) (SG) (PI) (PI) (SG) (PI) (PI) (SG)
                 (SG) (SG) (?B) (?B) (?A) (?A) (PHI) (PHI) (DLTA)
                 (DLTA) (PI) (PI) (SG) (SG) (DLTA) (DLTA) (PI)
                 (PI) (SG) (PI) (PI) (SG) (PHI) (PHI) (DLTA) (DLTA)
                 (PI) (PI) (SG) (?A) (?A) (PHI) (PHI) (DLTA) (DLTA)
                 (PI) (PI) (SG) (SG) (?B) (?B) (?A) (?A) (PHI)
                 (PHI) (DLTA) (DLTA) (PI) (PI) (SG) (SG) (SG) (SG)
                 (?B) (?B) (?A) (?A) (PHI) (PHI) (DLTA) (DLTA)
                 (PI) (PI) (SG) (DLTA) (DLTA) (PI) (PI) (SG) (PI)
                 (PI) (SG) (?A) (?A) (PHI) (PHI) (DLTA) (DLTA)
                 (PI) (PI) (SG) (SG) (PHI) (PHI) (DLTA) (DLTA)
                 (PI) (PI) (SG) (?B) (?B) (?A) (?A) (PHI) (PHI)
                 (DLTA) (DLTA) (PI) (PI) (SG) (DLTA) (DLTA) (PI)
                 (PI) (SG) (SG) (SG) (?B) (?B) (?A) (?A) (PHI)
                 (PHI) (DLTA) (DLTA) (PI) (PI) (SG) (PI) (PI) (SG)
                 (DLTA) (DLTA) (PI) (PI) (SG) (SG) (SG) (PI) (PI)
                 (SG) (DLTA) (DLTA) (PI) (PI) (SG) (SG) (PI) (PI)
                 (SG) (SG) (DLTA) (DLTA) (PI) (PI) (SG) (PI) (PI)
                 (SG) (SG) (SG) (PI) (PI) (SG) (DLTA) (DLTA) (PI)
                 (PI) (SG) (SG) (PI) (PI) (SG) (SG) (PI) (PI) (SG)
                 (DLTA) (DLTA) (PI) (PI) (SG) (SG) (PI) (PI) (SG)
                 (SG) (SG) (PI) (PI) (SG) (SG) (PI) (PI) (SG) (SG)
                 (PI) (PI) (SG) (SG) (SG) (PI) (PI) (SG) (SG) (SG)
                 (SG) (SG) (SG) (SG)
 The electronic state is 2-SG.
 Alpha  occ. eigenvalues --   -5.88815  -4.00546  -4.00546  -4.00260  -0.80436
 Alpha  occ. eigenvalues --   -0.80436  -0.80051  -0.79925  -0.79925  -0.43693
 Alpha  occ. eigenvalues --   -0.28481
 Alpha virt. eigenvalues --    0.01784   0.01784   0.02374   0.03220   0.06113
 Alpha virt. eigenvalues --    0.06113   0.06749   0.12154   0.12783   0.15341
 Alpha virt. eigenvalues --    0.15341   0.15358   0.15358   0.17813   0.20905
 Alpha virt. eigenvalues --    0.20905   0.23430   0.25779   0.25779   0.33919
 Alpha virt. eigenvalues --    0.38752   0.42114   0.44582   0.44582   0.46580
 Alpha virt. eigenvalues --    0.46580   0.55495   0.55495   0.57534   0.60371
 Alpha virt. eigenvalues --    0.62784   0.62784   0.67620   0.67620   0.74852
 Alpha virt. eigenvalues --    0.74852   0.75988   0.77381   0.77381   0.86289
 Alpha virt. eigenvalues --    0.86289   0.99106   1.08607   1.08607   1.11471
 Alpha virt. eigenvalues --    1.12119   1.19844   1.19844   1.23008   1.23008
 Alpha virt. eigenvalues --    1.24201   1.24201   1.26993   1.40296   1.45220
 Alpha virt. eigenvalues --    1.45220   1.51381   1.51381   1.55935   1.84656
 Alpha virt. eigenvalues --    1.84656   1.92998   1.92998   2.02314   2.02314
 Alpha virt. eigenvalues --    2.10799   2.16333   2.16333   2.21638   2.21638
 Alpha virt. eigenvalues --    2.27793   2.27793   2.30183   2.30183   2.39160
 Alpha virt. eigenvalues --    2.42840   2.42840   2.45356   2.45356   2.46826
 Alpha virt. eigenvalues --    2.55652   2.55652   2.79962   2.79962   2.86509
 Alpha virt. eigenvalues --    2.87204   2.87204   2.94388   2.97659   2.97659
 Alpha virt. eigenvalues --    3.05131   3.16002   3.16002   3.16785   3.16785
 Alpha virt. eigenvalues --    3.24882   3.63656   3.63656   3.67467   3.71948
 Alpha virt. eigenvalues --    3.71948   4.11009   4.21964   4.21964   4.28160
 Alpha virt. eigenvalues --    4.28160   4.49423   4.49423   4.76594   5.25863
 Alpha virt. eigenvalues --    5.25863   5.47773   5.47773   5.64075   5.64075
 Alpha virt. eigenvalues --    5.77358   5.83843   5.83843   5.89062   5.89062
 Alpha virt. eigenvalues --    5.94449   5.94449   5.95963   5.95963   5.99242
 Alpha virt. eigenvalues --    5.99242   6.04000   6.04000   6.06394   6.11652
 Alpha virt. eigenvalues --    6.11652   6.19794   6.20453   6.20453   6.21592
 Alpha virt. eigenvalues --    6.21592   6.26144   6.27243   6.27243   6.37255
 Alpha virt. eigenvalues --    6.37255   6.37895   6.37895   6.54203   6.60723
 Alpha virt. eigenvalues --    6.60723   6.65329   6.65329   7.15789   7.35399
 Alpha virt. eigenvalues --    7.35399   8.29035   8.43770  10.44108  12.74121
 Alpha virt. eigenvalues --   12.74121  12.95606  12.95606  13.02510  13.02510
 Alpha virt. eigenvalues --   13.09572  13.21704  13.21704  13.21855  13.21855
 Alpha virt. eigenvalues --   13.24641  13.24641  13.25296  13.31797  13.31797
 Alpha virt. eigenvalues --   13.32874  13.32874  13.35743  13.35743  13.49611
 Alpha virt. eigenvalues --   13.49611  13.51831  13.51831  13.60486  13.60486
 Alpha virt. eigenvalues --   13.67061  13.83695  13.86706  13.86706  14.00930
 Alpha virt. eigenvalues --   14.00930  14.30217  14.54087  14.54087  14.72531
 Alpha virt. eigenvalues --   14.97538  14.97538  15.00472  15.00472  15.06736
 Alpha virt. eigenvalues --   15.06736  15.11299  15.11299  15.12065  15.12065
 Alpha virt. eigenvalues --   15.17693  15.17693  15.22445  15.22445  15.38433
 Alpha virt. eigenvalues --   15.38433  15.52153  15.69454  15.69454  16.18736
 Alpha virt. eigenvalues --   17.05622  17.05622  17.68858  17.77865  17.77865
 Alpha virt. eigenvalues --   17.78269  17.78269  17.78621  17.78621  17.79116
 Alpha virt. eigenvalues --   17.79116  17.80464  17.80464  17.85551  17.85551
 Alpha virt. eigenvalues --   18.40077  18.73453  26.03663  26.03663  26.11061
 Alpha virt. eigenvalues --   26.11061  26.18093  26.37919  26.37919  27.21578
 Alpha virt. eigenvalues --   31.02909  31.02909  31.08675  31.08675  31.32121
 Alpha virt. eigenvalues --   31.32121  31.60099  32.85555  32.85555  32.88064
 Alpha virt. eigenvalues --   32.88064  32.94411  32.94411  33.01185  33.01185
 Alpha virt. eigenvalues --   33.11891  34.02136  34.28506  34.28506  34.29006
 Alpha virt. eigenvalues --   34.29006  34.31665  34.31665  34.41001  34.41001
 Alpha virt. eigenvalues --   34.54179  34.54179  34.71978  37.35881  40.87304
 Alpha virt. eigenvalues --   40.87304  40.87611  40.87611  40.87860  40.87860
 Alpha virt. eigenvalues --   40.88156  40.88156  40.88781  40.88781  40.90215
 Alpha virt. eigenvalues --   40.90215  40.92592  47.18068  47.18068  47.26101
 Alpha virt. eigenvalues --   47.26101  47.45025  49.89520  49.89520  50.66585
 Alpha virt. eigenvalues --   69.50941  69.50941  69.52889  69.52889  69.57742
 Alpha virt. eigenvalues --   69.57742  69.62339  69.62339  69.72313  72.60581
 Alpha virt. eigenvalues --   72.72372  72.72372  72.76661  72.76661  72.93280
 Alpha virt. eigenvalues --   72.93280  73.19531  74.05838  74.05838  74.06322
 Alpha virt. eigenvalues --   74.06322  74.08049  74.08049  74.13824  74.13824
 Alpha virt. eigenvalues --   74.22693  74.22693  74.30431  80.70896  80.70896
 Alpha virt. eigenvalues --   80.78547  80.78547  80.99638  86.35033  86.35033
 Alpha virt. eigenvalues --   86.35397  86.35397  86.35682  86.35682  86.35952
 Alpha virt. eigenvalues --   86.35952  86.36364  86.36364  86.37151  86.37151
 Alpha virt. eigenvalues --   86.38200  91.00936  91.00936  91.80451 134.01636
 Alpha virt. eigenvalues --  134.01636 134.08837 134.08837 134.28725 139.49264
 Alpha virt. eigenvalues --  141.83059 165.53805 165.53805 166.33413 234.07317
 Alpha virt. eigenvalues --  234.07317 234.13804 234.13804 234.32321 262.00133
 Alpha virt. eigenvalues --  298.57945 298.57945 299.33115 434.27208 477.95485
 Alpha virt. eigenvalues --  477.95485 478.00804 478.00804 478.16252 530.07077
 Alpha virt. eigenvalues --  530.07077 530.79105 706.49824 817.13301 945.76996
 Alpha virt. eigenvalues --  945.76996 946.476201181.184301181.184301181.22444
 Alpha virt. eigenvalues -- 1181.224441181.345581191.111701731.919901731.91990
 Alpha virt. eigenvalues -- 1732.607502079.152663307.318933307.318933307.97209
 Alpha virt. eigenvalues -- 3676.976103676.976103677.002553677.002553677.08361
 Alpha virt. eigenvalues -- 3764.518776686.761556686.761556687.366527080.28865
 Alpha virt. eigenvalues -- **************************************************
 Alpha virt. eigenvalues -- **************************************************
 Alpha virt. eigenvalues -- **************************************************
 Alpha virt. eigenvalues -- **************************************************
 Alpha virt. eigenvalues -- ******************************
     Molecular Orbital Coefficients:
                           6         7         8         9        10
                           O         O         O         O         O
     Eigenvalues --    -0.80436  -0.80051  -0.79925  -0.79925  -0.43693
   1 1   Zn 1S          0.00000   0.00000   0.00000   0.00000  -0.00000
   2        2S          0.00000   0.00000   0.00000  -0.00000   0.00000
   3        3S         -0.00000   0.00000   0.00000   0.00000  -0.00000
   4        4S          0.00000   0.00000   0.00000  -0.00000   0.00000
   5        5S         -0.00000   0.00000   0.00000   0.00000  -0.00000
   6        6S          0.00000   0.00000   0.00000  -0.00000   0.00000
   7        7S         -0.00000   0.00000   0.00000   0.00000  -0.00000
   8        8S          0.00000   0.00000   0.00000  -0.00000   0.00000
   9        9S         -0.00000   0.00000   0.00000   0.00000  -0.00000
  10       10S          0.00000   0.00000   0.00000  -0.00000   0.00000
  11       11S         -0.00000   0.00000   0.00000   0.00000  -0.00001
  12       12S          0.00000   0.00000   0.00000  -0.00000   0.00002
  13       13S         -0.00000   0.00000   0.00000   0.00000  -0.00005
  14       14S          0.00000   0.00000   0.00000  -0.00000   0.00013
  15       15S         -0.00000   0.00000   0.00000   0.00001  -0.00032
  16       16S          0.00000   0.00000   0.00000  -0.00002   0.00084
  17       17S         -0.00000   0.00000   0.00000  -0.00002  -0.00066
  18       18S         -0.00000   0.00000   0.00000   0.00072  -0.01149
  19       19S          0.00000   0.00000   0.00000  -0.00130   0.01891
  20       20S          0.00000   0.00000   0.00000  -0.00156   0.02601
  21       21S         -0.00000   0.00000   0.00000  -0.00309   0.00339
  22       22S         -0.00000   0.00000   0.00000  -0.00284  -0.07081
  23       23S         -0.00000   0.00000   0.00000   0.01202  -0.13307
  24       24S         -0.00000   0.00000   0.00000  -0.00073  -0.09534
  25       25S          0.00000   0.00000   0.00000  -0.01808   0.10349
  26       26S         -0.00000   0.00000   0.00000  -0.00658   0.24428
  27       27S          0.00000   0.00000   0.00000  -0.00525   0.17723
  28       28S         -0.00000   0.00000   0.00000  -0.00142   0.01325
  29       29S          0.00000   0.00000   0.00000  -0.00052   0.02764
  30       30S          0.00000   0.00000   0.00000   0.00844  -0.01720
  31       31S          0.00000   0.00000   0.00000  -0.00056  -0.00327
  32       32PX         0.00000  -0.00000   0.00000   0.00000   0.00000
  33       32PY         0.00000   0.00000  -0.00000   0.00000   0.00000
  34       32PZ        -0.00000   0.00000   0.00000  -0.00000   0.00000
  35       33PX         0.00000   0.00000   0.00000   0.00000   0.00000
  36       33PY         0.00000   0.00000   0.00000   0.00000   0.00000
  37       33PZ         0.00000   0.00000   0.00000   0.00000  -0.00000
  38       34PX         0.00000  -0.00000   0.00000   0.00000   0.00000
  39       34PY         0.00000   0.00000  -0.00000   0.00000   0.00000
  40       34PZ        -0.00000   0.00000   0.00000  -0.00000   0.00000
  41       35PX         0.00000   0.00000   0.00000   0.00000   0.00000
  42       35PY         0.00000   0.00000   0.00000   0.00000   0.00000
  43       35PZ         0.00000   0.00000   0.00000   0.00000  -0.00000
  44       36PX         0.00000  -0.00000   0.00000   0.00000   0.00000
  45       36PY         0.00000   0.00000  -0.00000   0.00000   0.00000
  46       36PZ        -0.00000   0.00000   0.00000  -0.00000   0.00000
  47       37PX         0.00000   0.00000   0.00000   0.00000   0.00000
  48       37PY         0.00000   0.00000   0.00000   0.00000   0.00000
  49       37PZ         0.00000   0.00000   0.00000   0.00000  -0.00001
  50       38PX         0.00000  -0.00000   0.00000   0.00000   0.00000
  51       38PY         0.00000   0.00000  -0.00000   0.00000   0.00000
  52       38PZ        -0.00000   0.00000   0.00000  -0.00000   0.00003
  53       39PX         0.00000   0.00000   0.00000   0.00000   0.00000
  54       39PY         0.00000   0.00000   0.00000   0.00000   0.00000
  55       39PZ         0.00000   0.00000   0.00000  -0.00000  -0.00011
  56       40PX         0.00000  -0.00002   0.00000   0.00000   0.00000
  57       40PY         0.00000   0.00000  -0.00002   0.00000   0.00000
  58       40PZ        -0.00000   0.00000   0.00000   0.00000   0.00038
  59       41PX         0.00000   0.00002   0.00000   0.00000   0.00000
  60       41PY         0.00000   0.00000   0.00002   0.00000   0.00000
  61       41PZ         0.00000   0.00000   0.00000   0.00001  -0.00046
  62       42PX         0.00000   0.00004   0.00000   0.00000   0.00000
  63       42PY         0.00000   0.00000   0.00004   0.00000   0.00000
  64       42PZ        -0.00000   0.00000   0.00000  -0.00011  -0.00218
  65       43PX         0.00000  -0.00040   0.00000   0.00000   0.00000
  66       43PY         0.00000   0.00000  -0.00040   0.00000   0.00000
  67       43PZ        -0.00000   0.00000   0.00000  -0.00074   0.00389
  68       44PX         0.00000  -0.00012   0.00000   0.00000   0.00000
  69       44PY         0.00000   0.00000  -0.00012   0.00000   0.00000
  70       44PZ        -0.00000   0.00000   0.00000   0.00020   0.00463
  71       45PX         0.00000  -0.00126   0.00000   0.00000   0.00000
  72       45PY         0.00000   0.00000  -0.00126   0.00000   0.00000
  73       45PZ        -0.00000   0.00000   0.00000   0.00053   0.02629
  74       46PX         0.00000  -0.00082   0.00000   0.00000   0.00000
  75       46PY         0.00000   0.00000  -0.00082   0.00000   0.00000
  76       46PZ         0.00000   0.00000   0.00000   0.00044   0.02785
  77       47PX         0.00000  -0.00119   0.00000   0.00000   0.00000
  78       47PY         0.00000   0.00000  -0.00119   0.00000   0.00000
  79       47PZ        -0.00000   0.00000   0.00000   0.00067   0.02885
  80       48PX         0.00000   0.00093   0.00000   0.00000   0.00000
  81       48PY         0.00000   0.00000   0.00093   0.00000   0.00000
  82       48PZ         0.00000   0.00000   0.00000   0.00182  -0.00922
  83       49PX         0.00000   0.00258   0.00000   0.00000   0.00000
  84       49PY         0.00000   0.00000   0.00258   0.00000   0.00000
  85       49PZ         0.00000   0.00000   0.00000   0.00009  -0.08258
  86       50PX         0.00000   0.00091   0.00000   0.00000   0.00000
  87       50PY         0.00000   0.00000   0.00091   0.00000   0.00000
  88       50PZ        -0.00000   0.00000   0.00000  -0.00424  -0.07706
  89       51PX         0.00000   0.00019   0.00000   0.00000   0.00000
  90       51PY         0.00000   0.00000   0.00019   0.00000   0.00000
  91       51PZ        -0.00000   0.00000   0.00000  -0.00084  -0.01312
  92       52PX         0.00000   0.00054   0.00000   0.00000   0.00000
  93       52PY         0.00000   0.00000   0.00054   0.00000   0.00000
  94       52PZ         0.00000   0.00000   0.00000   0.00064  -0.00797
  95       53PX         0.00000   0.00042   0.00000   0.00000   0.00000
  96       53PY         0.00000   0.00000   0.00042   0.00000   0.00000
  97       53PZ         0.00000   0.00000   0.00000  -0.00009  -0.00070
  98       54PX         0.00000  -0.00002   0.00000   0.00000   0.00000
  99       54PY         0.00000   0.00000  -0.00002   0.00000   0.00000
 100       54PZ        -0.00000   0.00000   0.00000   0.00018   0.00129
 101       55D 0       -0.00000   0.00000   0.00000   0.00000  -0.00000
 102       55D+1        0.00000   0.00000   0.00000   0.00000   0.00000
 103       55D-1        0.00000   0.00000   0.00000   0.00000   0.00000
 104       55D+2        0.00000   0.00000   0.00000   0.00000  -0.00000
 105       55D-2        0.00000   0.00000   0.00000   0.00000   0.00000
 106       56D 0        0.00000   0.00000   0.00000  -0.00001   0.00000
 107       56D+1        0.00000  -0.00001   0.00000   0.00000   0.00000
 108       56D-1        0.00000   0.00000  -0.00001   0.00000   0.00000
 109       56D+2       -0.00001   0.00000   0.00000  -0.00000   0.00000
 110       56D-2        0.00000   0.00000   0.00000   0.00000   0.00000
 111       57D 0       -0.00000   0.00000   0.00000   0.00058  -0.00006
 112       57D+1        0.00000   0.00059   0.00000   0.00000   0.00000
 113       57D-1        0.00000   0.00000   0.00059   0.00000   0.00000
 114       57D+2        0.00059   0.00000   0.00000   0.00000  -0.00000
 115       57D-2        0.00000   0.00000   0.00000   0.00000   0.00000
 116       58D 0       -0.00000   0.00000   0.00000   0.01335  -0.00131
 117       58D+1        0.00000   0.01345   0.00000   0.00000   0.00000
 118       58D-1        0.00000   0.00000   0.01345   0.00000   0.00000
 119       58D+2        0.01344   0.00000   0.00000   0.00000  -0.00000
 120       58D-2        0.00000   0.00000   0.00000   0.00000   0.00000
 121       59D 0       -0.00000   0.00000   0.00000   0.07131  -0.00710
 122       59D+1        0.00000   0.07189   0.00000   0.00000   0.00000
 123       59D-1        0.00000   0.00000   0.07189   0.00000   0.00000
 124       59D+2        0.07182   0.00000   0.00000   0.00000  -0.00000
 125       59D-2        0.00000   0.00000   0.00000   0.00000   0.00000
 126       60D 0       -0.00000   0.00000   0.00000   0.16733  -0.01848
 127       60D+1        0.00000   0.16907   0.00000   0.00000   0.00000
 128       60D-1        0.00000   0.00000   0.16907   0.00000   0.00000
 129       60D+2        0.16885   0.00000   0.00000   0.00000  -0.00000
 130       60D-2        0.00000   0.00000   0.00000   0.00000   0.00000
 131       61D 0       -0.00000   0.00000   0.00000   0.24652  -0.02508
 132       61D+1        0.00000   0.24866   0.00000   0.00000   0.00000
 133       61D-1        0.00000   0.00000   0.24866   0.00000   0.00000
 134       61D+2        0.24846   0.00000   0.00000   0.00000  -0.00000
 135       61D-2        0.00000   0.00000   0.00000   0.00000   0.00000
 136       62D 0       -0.00000   0.00000   0.00000   0.28858  -0.02780
 137       62D+1        0.00000   0.29071   0.00000   0.00000   0.00000
 138       62D-1        0.00000   0.00000   0.29071   0.00000   0.00000
 139       62D+2        0.29048   0.00000   0.00000   0.00000  -0.00000
 140       62D-2        0.00000   0.00000   0.00000   0.00000   0.00000
 141       63D 0       -0.00000   0.00000   0.00000   0.26882  -0.02681
 142       63D+1        0.00000   0.27109   0.00000   0.00000   0.00000
 143       63D-1        0.00000   0.00000   0.27109   0.00000   0.00000
 144       63D+2        0.27106   0.00000   0.00000   0.00000  -0.00000
 145       63D-2        0.00000   0.00000   0.00000   0.00000   0.00000
 146       64D 0       -0.00000   0.00000   0.00000   0.19314  -0.01486
 147       64D+1        0.00000   0.19422   0.00000   0.00000   0.00000
 148       64D-1        0.00000   0.00000   0.19422   0.00000   0.00000
 149       64D+2        0.19547   0.00000   0.00000   0.00000  -0.00000
 150       64D-2        0.00000   0.00000   0.00000   0.00000   0.00000
 151       65D 0       -0.00000   0.00000   0.00000   0.09360   0.00267
 152       65D+1        0.00000   0.09313   0.00000   0.00000   0.00000
 153       65D-1        0.00000   0.00000   0.09313   0.00000   0.00000
 154       65D+2        0.09392   0.00000   0.00000   0.00000  -0.00000
 155       65D-2        0.00000   0.00000   0.00000   0.00000   0.00000
 156       66D 0       -0.00000   0.00000   0.00000   0.02067   0.01150
 157       66D+1        0.00000   0.01925   0.00000   0.00000   0.00000
 158       66D-1        0.00000   0.00000   0.01925   0.00000   0.00000
 159       66D+2        0.01812   0.00000   0.00000   0.00000   0.00000
 160       66D-2        0.00000   0.00000   0.00000   0.00000   0.00000
 161       67D 0        0.00000   0.00000   0.00000  -0.00995   0.00227
 162       67D+1        0.00000  -0.01029   0.00000   0.00000   0.00000
 163       67D-1        0.00000   0.00000  -0.01029   0.00000   0.00000
 164       67D+2       -0.01023   0.00000   0.00000  -0.00000   0.00000
 165       67D-2        0.00000   0.00000   0.00000   0.00000   0.00000
 166       68D 0        0.00000   0.00000   0.00000  -0.00577   0.00187
 167       68D+1        0.00000  -0.00609   0.00000   0.00000   0.00000
 168       68D-1        0.00000   0.00000  -0.00609   0.00000   0.00000
 169       68D+2       -0.00604   0.00000   0.00000  -0.00000   0.00000
 170       68D-2        0.00000   0.00000   0.00000   0.00000   0.00000
 171       69D 0        0.00000   0.00000   0.00000   0.00027   0.00598
 172       69D+1        0.00000   0.00014   0.00000   0.00000   0.00000
 173       69D-1        0.00000   0.00000   0.00014   0.00000   0.00000
 174       69D+2        0.00002   0.00000   0.00000   0.00000  -0.00000
 175       69D-2        0.00000   0.00000   0.00000   0.00000   0.00000
 176       70F 0        0.00000   0.00000   0.00000   0.00002  -0.00002
 177       70F+1        0.00000   0.00002   0.00000   0.00000   0.00000
 178       70F-1        0.00000   0.00000   0.00002   0.00000   0.00000
 179       70F+2        0.00002   0.00000   0.00000   0.00000  -0.00000
 180       70F-2        0.00000   0.00000   0.00000   0.00000   0.00000
 181       70F+3        0.00000   0.00000   0.00000   0.00000   0.00000
 182       70F-3        0.00000   0.00000   0.00000   0.00000   0.00000
 183       71F 0       -0.00000   0.00000   0.00000   0.00011  -0.00006
 184       71F+1        0.00000   0.00011   0.00000   0.00000   0.00000
 185       71F-1        0.00000   0.00000   0.00011   0.00000   0.00000
 186       71F+2        0.00008   0.00000   0.00000   0.00000   0.00000
 187       71F-2        0.00000   0.00000   0.00000   0.00000   0.00000
 188       71F+3        0.00000   0.00000   0.00000   0.00000   0.00000
 189       71F-3        0.00000   0.00000   0.00000   0.00000   0.00000
 190       72F 0        0.00000   0.00000   0.00000   0.00018  -0.00024
 191       72F+1        0.00000   0.00019   0.00000   0.00000   0.00000
 192       72F-1        0.00000   0.00000   0.00019   0.00000   0.00000
 193       72F+2        0.00016   0.00000   0.00000   0.00000  -0.00000
 194       72F-2        0.00000   0.00000   0.00000   0.00000   0.00000
 195       72F+3        0.00000  -0.00000   0.00000   0.00000   0.00000
 196       72F-3        0.00000   0.00000  -0.00000   0.00000   0.00000
 197       73F 0       -0.00000   0.00000   0.00000   0.00052  -0.00051
 198       73F+1        0.00000   0.00052   0.00000   0.00000   0.00000
 199       73F-1        0.00000   0.00000   0.00052   0.00000   0.00000
 200       73F+2        0.00033   0.00000   0.00000   0.00000   0.00000
 201       73F-2        0.00000   0.00000   0.00000   0.00000   0.00000
 202       73F+3        0.00000  -0.00000   0.00000   0.00000   0.00000
 203       73F-3        0.00000   0.00000  -0.00000   0.00000   0.00000
 204       74F 0        0.00000   0.00000   0.00000   0.00095  -0.00384
 205       74F+1        0.00000   0.00127   0.00000   0.00000   0.00000
 206       74F-1        0.00000   0.00000   0.00127   0.00000   0.00000
 207       74F+2        0.00088   0.00000   0.00000   0.00000  -0.00000
 208       74F-2        0.00000   0.00000   0.00000   0.00000   0.00000
 209       74F+3        0.00000  -0.00000   0.00000   0.00000   0.00000
 210       74F-3        0.00000   0.00000  -0.00000   0.00000   0.00000
 211       75F 0       -0.00000   0.00000   0.00000   0.00014  -0.00356
 212       75F+1        0.00000   0.00048   0.00000   0.00000   0.00000
 213       75F-1        0.00000   0.00000   0.00048   0.00000   0.00000
 214       75F+2        0.00054   0.00000   0.00000  -0.00000   0.00000
 215       75F-2        0.00000   0.00000   0.00000   0.00000   0.00000
 216       75F+3        0.00000   0.00000   0.00000   0.00000   0.00000
 217       75F-3        0.00000   0.00000   0.00000   0.00000   0.00000
 218       76G 0        0.00000   0.00000   0.00000  -0.00003  -0.00000
 219       76G+1        0.00000  -0.00003   0.00000   0.00000   0.00000
 220       76G-1        0.00000   0.00000  -0.00003   0.00000   0.00000
 221       76G+2       -0.00002   0.00000   0.00000  -0.00000   0.00000
 222       76G-2        0.00000   0.00000   0.00000   0.00000   0.00000
 223       76G+3        0.00000  -0.00000   0.00000   0.00000   0.00000
 224       76G-3        0.00000   0.00000  -0.00000   0.00000   0.00000
 225       76G+4       -0.00000   0.00000   0.00000   0.00000  -0.00000
 226       76G-4        0.00000   0.00000   0.00000   0.00000   0.00000
 227       77G 0       -0.00000   0.00000   0.00000  -0.00006   0.00003
 228       77G+1        0.00000  -0.00006   0.00000   0.00000   0.00000
 229       77G-1        0.00000   0.00000  -0.00006   0.00000   0.00000
 230       77G+2       -0.00004   0.00000   0.00000  -0.00000   0.00000
 231       77G-2        0.00000   0.00000   0.00000   0.00000   0.00000
 232       77G+3        0.00000  -0.00000   0.00000   0.00000   0.00000
 233       77G-3        0.00000   0.00000  -0.00000   0.00000   0.00000
 234       77G+4       -0.00000   0.00000   0.00000  -0.00000   0.00000
 235       77G-4        0.00000   0.00000   0.00000   0.00000   0.00000
 236       78G 0        0.00000   0.00000   0.00000  -0.00013  -0.00001
 237       78G+1        0.00000  -0.00011   0.00000   0.00000   0.00000
 238       78G-1        0.00000   0.00000  -0.00011   0.00000   0.00000
 239       78G+2       -0.00007   0.00000   0.00000  -0.00000  -0.00000
 240       78G-2        0.00000   0.00000   0.00000   0.00000   0.00000
 241       78G+3        0.00000   0.00000   0.00000   0.00000   0.00000
 242       78G-3        0.00000   0.00000   0.00000   0.00000   0.00000
 243       78G+4        0.00000   0.00000   0.00000   0.00000  -0.00000
 244       78G-4        0.00000   0.00000   0.00000   0.00000   0.00000
 245       79G 0        0.00000   0.00000   0.00000  -0.00060   0.00036
 246       79G+1        0.00000  -0.00060   0.00000   0.00000   0.00000
 247       79G-1        0.00000   0.00000  -0.00060   0.00000   0.00000
 248       79G+2       -0.00043   0.00000   0.00000  -0.00000   0.00000
 249       79G-2        0.00000   0.00000   0.00000   0.00000   0.00000
 250       79G+3        0.00000   0.00000   0.00000   0.00000   0.00000
 251       79G-3        0.00000   0.00000   0.00000   0.00000   0.00000
 252       79G+4        0.00000   0.00000   0.00000  -0.00000   0.00000
 253       79G-4        0.00000   0.00000   0.00000   0.00000   0.00000
 254       80G 0        0.00000   0.00000   0.00000  -0.00108   0.00096
 255       80G+1        0.00000  -0.00107   0.00000   0.00000   0.00000
 256       80G-1        0.00000   0.00000  -0.00107   0.00000   0.00000
 257       80G+2       -0.00084   0.00000   0.00000  -0.00000  -0.00000
 258       80G-2        0.00000   0.00000   0.00000   0.00000   0.00000
 259       80G+3        0.00000   0.00000   0.00000   0.00000   0.00000
 260       80G-3        0.00000   0.00000   0.00000   0.00000   0.00000
 261       80G+4        0.00000   0.00000   0.00000   0.00000  -0.00000
 262       80G-4        0.00000   0.00000   0.00000   0.00000   0.00000
 263       81H 0        0.00000   0.00000   0.00000   0.00001   0.00000
 264       81H+1        0.00000   0.00000   0.00000   0.00000   0.00000
 265       81H-1        0.00000   0.00000   0.00000   0.00000   0.00000
 266       81H+2        0.00000   0.00000   0.00000   0.00000  -0.00000
 267       81H-2        0.00000   0.00000   0.00000   0.00000   0.00000
 268       81H+3        0.00000  -0.00000   0.00000   0.00000   0.00000
 269       81H-3        0.00000   0.00000  -0.00000   0.00000   0.00000
 270       81H+4       -0.00000   0.00000   0.00000   0.00000  -0.00000
 271       81H-4        0.00000   0.00000   0.00000   0.00000   0.00000
 272       81H+5        0.00000  -0.00000   0.00000   0.00000   0.00000
 273       81H-5        0.00000   0.00000   0.00000   0.00000   0.00000
 274       82H 0       -0.00000   0.00000   0.00000   0.00000  -0.00001
 275       82H+1        0.00000   0.00000   0.00000   0.00000   0.00000
[...]
 209       74F+3       -0.00000  -0.00000  -0.00000   0.00000
 210       74F-3       -0.00000  -0.00000  -0.00000   0.00000
 211       75F 0        0.00157   0.00085   0.00072   0.00013
 212       75F+1       -0.00000  -0.00000  -0.00000   0.00000
 213       75F-1       -0.00000  -0.00000  -0.00000   0.00000
 214       75F+2        0.00000   0.00000   0.00000   0.00000
 215       75F-2        0.00000   0.00000   0.00000   0.00000
 216       75F+3        0.00000   0.00000   0.00000   0.00000
 217       75F-3        0.00000   0.00000   0.00000   0.00000
 218       76G 0        0.00000   0.00000   0.00000  -0.00000
 219       76G+1        0.00000   0.00000   0.00000   0.00000
 220       76G-1        0.00000   0.00000   0.00000   0.00000
 221       76G+2        0.00000   0.00000   0.00000  -0.00000
 222       76G-2        0.00000   0.00000   0.00000   0.00000
 223       76G+3       -0.00000  -0.00000  -0.00000   0.00000
 224       76G-3       -0.00000  -0.00000  -0.00000   0.00000
 225       76G+4       -0.00000  -0.00000  -0.00000  -0.00000
 226       76G-4       -0.00000  -0.00000  -0.00000   0.00000
 227       77G 0        0.00000   0.00000   0.00000   0.00000
 228       77G+1        0.00000   0.00000   0.00000   0.00000
 229       77G-1        0.00000   0.00000   0.00000   0.00000
 230       77G+2        0.00000   0.00000   0.00000   0.00000
 231       77G-2        0.00000   0.00000   0.00000   0.00000
 232       77G+3       -0.00000  -0.00000  -0.00000   0.00000
 233       77G-3       -0.00000  -0.00000  -0.00000   0.00000
 234       77G+4        0.00000   0.00000   0.00000   0.00000
 235       77G-4       -0.00000  -0.00000  -0.00000   0.00000
 236       78G 0        0.00000   0.00000   0.00000  -0.00000
 237       78G+1        0.00000   0.00000   0.00000   0.00000
 238       78G-1        0.00000   0.00000   0.00000   0.00000
 239       78G+2        0.00000   0.00000   0.00000  -0.00000
 240       78G-2        0.00000   0.00000   0.00000   0.00000
 241       78G+3        0.00000   0.00000   0.00000   0.00000
 242       78G-3        0.00000   0.00000   0.00000   0.00000
 243       78G+4       -0.00000  -0.00000  -0.00000  -0.00000
 244       78G-4        0.00000   0.00000   0.00000   0.00000
 245       79G 0        0.00001   0.00001   0.00000   0.00000
 246       79G+1        0.00000   0.00000   0.00000   0.00000
 247       79G-1        0.00000   0.00000   0.00000   0.00000
 248       79G+2        0.00000   0.00000   0.00000   0.00000
 249       79G-2        0.00000   0.00000   0.00000   0.00000
 250       79G+3        0.00000   0.00000   0.00000   0.00000
 251       79G-3        0.00000   0.00000   0.00000   0.00000
 252       79G+4        0.00000   0.00000   0.00000   0.00000
 253       79G-4        0.00000   0.00000   0.00000   0.00000
 254       80G 0        0.00014   0.00007   0.00007   0.00000
 255       80G+1        0.00000   0.00000   0.00000   0.00000
 256       80G-1        0.00000   0.00000   0.00000   0.00000
 257       80G+2        0.00000   0.00000   0.00000  -0.00000
 258       80G-2        0.00000   0.00000   0.00000   0.00000
 259       80G+3        0.00000   0.00000   0.00000   0.00000
 260       80G-3        0.00000   0.00000   0.00000   0.00000
 261       80G+4       -0.00000  -0.00000  -0.00000  -0.00000
 262       80G-4        0.00000   0.00000   0.00000   0.00000
 263       81H 0        0.00000   0.00000   0.00000  -0.00000
 264       81H+1        0.00000   0.00000   0.00000   0.00000
 265       81H-1        0.00000   0.00000   0.00000   0.00000
 266       81H+2        0.00000   0.00000   0.00000  -0.00000
 267       81H-2        0.00000   0.00000   0.00000   0.00000
 268       81H+3        0.00000   0.00000   0.00000   0.00000
 269       81H-3        0.00000   0.00000   0.00000   0.00000
 270       81H+4        0.00000   0.00000   0.00000   0.00000
 271       81H-4        0.00000   0.00000   0.00000   0.00000
 272       81H+5        0.00000   0.00000   0.00000   0.00000
 273       81H-5       -0.00000  -0.00000  -0.00000   0.00000
 274       82H 0        0.00000   0.00000   0.00000   0.00000
 275       82H+1        0.00000   0.00000   0.00000   0.00000
 276       82H-1        0.00000   0.00000   0.00000   0.00000
 277       82H+2        0.00000   0.00000   0.00000  -0.00000
 278       82H-2        0.00000   0.00000   0.00000   0.00000
 279       82H+3        0.00000   0.00000   0.00000   0.00000
 280       82H-3        0.00000   0.00000   0.00000   0.00000
 281       82H+4       -0.00000  -0.00000  -0.00000   0.00000
 282       82H-4       -0.00000  -0.00000  -0.00000   0.00000
 283       82H+5       -0.00000  -0.00000  -0.00000   0.00000
 284       82H-5        0.00000   0.00000   0.00000   0.00000
 285       83H 0       -0.00000  -0.00000  -0.00000  -0.00000
 286       83H+1        0.00000   0.00000   0.00000   0.00000
 287       83H-1        0.00000   0.00000   0.00000   0.00000
 288       83H+2        0.00000   0.00000   0.00000   0.00000
 289       83H-2        0.00000   0.00000   0.00000   0.00000
 290       83H+3        0.00000   0.00000   0.00000   0.00000
 291       83H-3        0.00000   0.00000   0.00000   0.00000
 292       83H+4       -0.00000  -0.00000  -0.00000   0.00000
 293       83H-4        0.00000   0.00000   0.00000   0.00000
 294       83H+5        0.00000   0.00000   0.00000   0.00000
 295       83H-5        0.00000   0.00000   0.00000   0.00000
 296       84H 0        0.00000   0.00000   0.00000   0.00000
 297       84H+1       -0.00000  -0.00000  -0.00000   0.00000
 298       84H-1       -0.00000  -0.00000  -0.00000   0.00000
 299       84H+2        0.00000   0.00000   0.00000  -0.00000
 300       84H-2        0.00000   0.00000   0.00000   0.00000
 301       84H+3        0.00000   0.00000   0.00000   0.00000
 302       84H-3        0.00000   0.00000   0.00000   0.00000
 303       84H+4       -0.00000  -0.00000  -0.00000   0.00000
 304       84H-4        0.00000   0.00000   0.00000   0.00000
 305       84H+5        0.00000   0.00000   0.00000   0.00000
 306       84H-5       -0.00000  -0.00000  -0.00000   0.00000
 307       85I 0        0.00000   0.00000   0.00000   0.00000
 308       85I+1        0.00000   0.00000   0.00000   0.00000
 309       85I-1        0.00000   0.00000   0.00000   0.00000
 310       85I+2        0.00000   0.00000   0.00000   0.00000
 311       85I-2        0.00000   0.00000   0.00000   0.00000
 312       85I+3        0.00000   0.00000   0.00000   0.00000
 313       85I-3        0.00000   0.00000   0.00000   0.00000
 314       85I+4        0.00000   0.00000   0.00000   0.00000
 315       85I-4        0.00000   0.00000   0.00000   0.00000
 316       85I+5       -0.00000  -0.00000  -0.00000   0.00000
 317       85I-5        0.00000   0.00000   0.00000   0.00000
 318       85I+6        0.00000   0.00000   0.00000   0.00000
 319       85I-6        0.00000   0.00000   0.00000   0.00000
 320       86I 0       -0.00000  -0.00000  -0.00000  -0.00000
 321       86I+1       -0.00000  -0.00000  -0.00000   0.00000
 322       86I-1       -0.00000  -0.00000  -0.00000   0.00000
 323       86I+2        0.00000   0.00000   0.00000  -0.00000
 324       86I-2        0.00000   0.00000   0.00000   0.00000
 325       86I+3        0.00000   0.00000   0.00000   0.00000
 326       86I-3        0.00000   0.00000   0.00000   0.00000
 327       86I+4       -0.00000  -0.00000  -0.00000  -0.00000
 328       86I-4        0.00000   0.00000   0.00000   0.00000
 329       86I+5       -0.00000  -0.00000  -0.00000   0.00000
 330       86I-5       -0.00000  -0.00000  -0.00000   0.00000
 331       86I+6        0.00000   0.00000   0.00000  -0.00000
 332       86I-6       -0.00000  -0.00000  -0.00000   0.00000
 333       87I 0        0.00000   0.00000   0.00000   0.00000
 334       87I+1        0.00000   0.00000   0.00000   0.00000
 335       87I-1        0.00000   0.00000   0.00000   0.00000
 336       87I+2       -0.00000  -0.00000  -0.00000   0.00000
 337       87I-2       -0.00000  -0.00000  -0.00000   0.00000
 338       87I+3        0.00000   0.00000   0.00000   0.00000
 339       87I-3        0.00000   0.00000   0.00000   0.00000
 340       87I+4        0.00000   0.00000   0.00000   0.00000
 341       87I-4        0.00000   0.00000   0.00000   0.00000
 342       87I+5        0.00000   0.00000   0.00000   0.00000
 343       87I-5        0.00000   0.00000   0.00000   0.00000
 344       87I+6        0.00000   0.00000   0.00000   0.00000
 345       87I-6        0.00000   0.00000   0.00000   0.00000
 346 2   H  1S         -0.00000  -0.00000  -0.00000  -0.00000
 347        2S          0.00006   0.00003   0.00003   0.00001
 348        3S          0.00315   0.00175   0.00140   0.00035
 349        4S          0.02290   0.01270   0.01020   0.00251
 350        5S          0.11306   0.06261   0.05045   0.01215
 351        6S          0.33617   0.18482   0.15135   0.03347
 352        7S          0.53567   0.29093   0.24474   0.04619
 353        8S          0.24788   0.12936   0.11852   0.01084
 354        9S          0.00776   0.00230   0.00546  -0.00315
 355       10PX         0.00000   0.00000   0.00000   0.00000
 356       10PY         0.00000   0.00000   0.00000   0.00000
 357       10PZ         0.00003   0.00001   0.00001   0.00000
 358       11PX         0.00001   0.00000   0.00000   0.00000
 359       11PY         0.00001   0.00000   0.00000   0.00000
 360       11PZ         0.00017   0.00008   0.00008   0.00000
 361       12PX         0.00014   0.00007   0.00007   0.00000
 362       12PY         0.00014   0.00007   0.00007   0.00000
 363       12PZ         0.00333   0.00166   0.00167  -0.00001
 364       13PX         0.00037   0.00018   0.00018   0.00000
 365       13PY         0.00037   0.00018   0.00018   0.00000
 366       13PZ         0.00857   0.00372   0.00485  -0.00112
 367       14PX         0.00008   0.00004   0.00004   0.00000
 368       14PY         0.00008   0.00004   0.00004   0.00000
 369       14PZ        -0.00004  -0.00054   0.00050  -0.00103
 370       15D 0        0.00000   0.00000   0.00000   0.00000
 371       15D+1        0.00000   0.00000   0.00000   0.00000
 372       15D-1        0.00000   0.00000   0.00000   0.00000
 373       15D+2        0.00000   0.00000   0.00000   0.00000
 374       15D-2        0.00000   0.00000   0.00000   0.00000
 375       16D 0        0.00009   0.00004   0.00005  -0.00000
 376       16D+1        0.00002   0.00001   0.00001   0.00000
 377       16D-1        0.00002   0.00001   0.00001   0.00000
 378       16D+2        0.00000   0.00000   0.00000   0.00000
 379       16D-2        0.00000   0.00000   0.00000   0.00000
 380       17D 0        0.00045   0.00021   0.00024  -0.00003
 381       17D+1        0.00017   0.00009   0.00009   0.00000
 382       17D-1        0.00017   0.00009   0.00009   0.00000
 383       17D+2        0.00001   0.00000   0.00000  -0.00000
 384       17D-2        0.00001   0.00000   0.00000   0.00000
 385       18D 0       -0.00028  -0.00010  -0.00018   0.00008
 386       18D+1        0.00012   0.00006   0.00006   0.00000
 387       18D-1        0.00012   0.00006   0.00006   0.00000
 388       18D+2       -0.00001  -0.00001  -0.00001   0.00000
 389       18D-2       -0.00001  -0.00001  -0.00001   0.00000
 390       19F 0        0.00000   0.00000   0.00000   0.00000
 391       19F+1        0.00000   0.00000   0.00000   0.00000
 392       19F-1        0.00000   0.00000   0.00000   0.00000
 393       19F+2       -0.00000  -0.00000  -0.00000   0.00000
 394       19F-2       -0.00000  -0.00000  -0.00000   0.00000
 395       19F+3        0.00000   0.00000   0.00000   0.00000
 396       19F-3        0.00000   0.00000   0.00000   0.00000
 397       20F 0        0.00005   0.00002   0.00003  -0.00000
 398       20F+1        0.00004   0.00002   0.00002   0.00000
 399       20F-1        0.00004   0.00002   0.00002   0.00000
 400       20F+2        0.00000   0.00000   0.00000  -0.00000
 401       20F-2        0.00000   0.00000   0.00000   0.00000
 402       20F+3        0.00000   0.00000   0.00000   0.00000
 403       20F-3        0.00000   0.00000   0.00000   0.00000
 404       21F 0        0.00003   0.00003  -0.00000   0.00003
 405       21F+1        0.00008   0.00004   0.00004   0.00000
 406       21F-1        0.00008   0.00004   0.00004   0.00000
 407       21F+2       -0.00001  -0.00000  -0.00000   0.00000
 408       21F-2       -0.00001  -0.00000  -0.00000   0.00000
 409       21F+3       -0.00000  -0.00000  -0.00000   0.00000
 410       21F-3       -0.00000  -0.00000  -0.00000   0.00000
 411       22G 0        0.00000   0.00000   0.00000  -0.00000
 412       22G+1        0.00000   0.00000   0.00000   0.00000
 413       22G-1        0.00000   0.00000   0.00000   0.00000
 414       22G+2        0.00000   0.00000   0.00000   0.00000
 415       22G-2        0.00000   0.00000   0.00000   0.00000
 416       22G+3        0.00000   0.00000   0.00000   0.00000
 417       22G-3        0.00000   0.00000   0.00000   0.00000
 418       22G+4        0.00000   0.00000   0.00000   0.00000
 419       22G-4       -0.00000  -0.00000  -0.00000   0.00000
 420       23G 0       -0.00001  -0.00000  -0.00000  -0.00000
 421       23G+1        0.00004   0.00002   0.00002   0.00000
 422       23G-1        0.00004   0.00002   0.00002   0.00000
 423       23G+2        0.00000   0.00000   0.00000  -0.00000
 424       23G-2        0.00000   0.00000   0.00000   0.00000
 425       23G+3       -0.00000  -0.00000  -0.00000   0.00000
 426       23G-3       -0.00000  -0.00000  -0.00000   0.00000
 427       23G+4        0.00000   0.00000   0.00000   0.00000
 428       23G-4        0.00000   0.00000   0.00000   0.00000
          Condensed to atoms (all electrons):
               1          2
     1  Zn  19.420987   0.297870
     2  H    0.297870   0.983272
          Atomic-Atomic Spin Densities.
               1          2
     1  Zn   0.970229  -0.070487
     2  H   -0.070487   0.170744
 Mulliken charges and spin densities:
               1          2
     1  Zn   0.281142   0.899742
     2  H   -0.281142   0.100258
 Sum of Mulliken charges =  -0.00000   1.00000
 Mulliken charges and spin densities with hydrogens summed into heavy atoms:
               1          2
     1  Zn  -0.000000   1.000000
 Electronic spatial extent (au):  <R**2>=             49.3569
 Charge=             -0.0000 electrons
 Dipole moment (field-independent basis, Debye):
    X=              0.0000    Y=              0.0000    Z=              1.4009  Tot=              1.4009
 Quadrupole moment (field-independent basis, Debye-Ang):
   XX=            -14.8051   YY=            -14.8051   ZZ=            -21.8780
   XY=              0.0000   XZ=              0.0000   YZ=              0.0000
 Traceless Quadrupole moment (field-independent basis, Debye-Ang):
   XX=              2.3576   YY=              2.3576   ZZ=             -4.7152
   XY=              0.0000   XZ=              0.0000   YZ=              0.0000
 Octapole moment (field-independent basis, Debye-Ang**2):
  XXX=              0.0000  YYY=              0.0000  ZZZ=              8.9387  XYY=              0.0000
  XXY=              0.0000  XXZ=              1.4963  XZZ=              0.0000  YZZ=              0.0000
  YYZ=              1.4963  XYZ=              0.0000
 Hexadecapole moment (field-independent basis, Debye-Ang**3):
 XXXX=            -20.6695 YYYY=            -20.6695 ZZZZ=            -80.6002 XXXY=              0.0000
 XXXZ=              0.0000 YYYX=              0.0000 YYYZ=              0.0000 ZZZX=              0.0000
 ZZZY=              0.0000 XXYY=             -6.8898 XXZZ=            -16.0877 YYZZ=            -16.0877
 XXYZ=              0.0000 YYXZ=              0.0000 ZZXY=              0.0000
 N-N= 5.879746788000D+00 E-N=-5.694592460038D+02  KE= 1.502805460186D+02
 Symmetry A1   KE= 6.256649025510D+01
 Symmetry A2   KE= 2.159369292484D+01
 Symmetry B1   KE= 3.306018142004D+01
 Symmetry B2   KE= 3.306018141900D+01
 Symmetry A1   SP= 1.000000000000D+00
 Symmetry A2   SP= 0.000000000000D+00
 Symmetry B1   SP= 0.000000000000D+00
 Symmetry B2   SP= 0.000000000000D+00
 Orbital energies and kinetic energies (alpha):
                                 1                 2
   6         O                -0.804363         10.796846
   7         O                -0.800511         10.806733
   8         O                -0.799254         10.806733
   9         O                -0.799254         10.647597
  10         O                -0.436931          0.545037
  11         O                -0.284813          0.516387
  12         V                 0.017841          0.062470
  13         V                 0.017841          0.062470
  14         V                 0.023736          0.039095
  15         V                 0.032200          0.042725
  16         V                 0.061134          0.188187
 Total kinetic energy from orbitals= 1.507969329215D+02
                          Isotropic Fermi Contact Couplings
        Atom                 a.u.       MegaHertz       Gauss      10(-4) cm-1
     1  Zn(67)             0.00002       0.00500       0.00178       0.00167
     2  H(1)               0.03240     144.82946      51.67875      48.30991
 --------------------------------------------------------
       Center         ----  Spin Dipole Couplings  ----
                      3XX-RR        3YY-RR        3ZZ-RR
 --------------------------------------------------------
     1   Atom        0.002439      0.002439     -0.004879
     2   Atom       -0.003623     -0.003623      0.007247
 --------------------------------------------------------
                        XY            XZ            YZ
 --------------------------------------------------------
     1   Atom        0.000000      0.000000      0.000000
     2   Atom        0.000000      0.000000      0.000000
 --------------------------------------------------------


 ---------------------------------------------------------------------------------
              Anisotropic Spin Dipole Couplings in Principal Axis System
 ---------------------------------------------------------------------------------

       Atom             a.u.   MegaHertz   Gauss  10(-4) cm-1        Axes

              Baa    -0.0049    -0.163    -0.058    -0.054  0.0000  0.0000  1.0000
     1 Zn(67) Bbb     0.0024     0.082     0.029     0.027 -0.0000  1.0000  0.0000
              Bcc     0.0024     0.082     0.029     0.027  1.0000  0.0000  0.0000
 
              Baa    -0.0036    -1.933    -0.690    -0.645  1.0000  0.0000  0.0000
     2 H(1)   Bbb    -0.0036    -1.933    -0.690    -0.645 -0.0000  1.0000  0.0000
              Bcc     0.0072     3.866     1.380     1.290  0.0000  0.0000  1.0000
 

 ---------------------------------------------------------------------------------

 No NMR shielding tensors so no spin-rotation constants.
 Leave Link  601 at Sun Apr 29 00:38:24 2018, MaxMem= 10737418240 cpu:             419.0 elap:              13.6
 (Enter /home1/apps/gaussian/16rA.03/g16/l9999.exe)

 Test job not archived.
 1\1\GINC-C470-022\SP\ROCCSD(T)-Full\Gen\H1Zn1(2)\GWANG18\29-Apr-2018\0
 \\#P ROCCSD(T)=(MaxCyc=150, Full)/Gen SCF=(maxcycle=400, vshift=200) P
 seudo=Read Integral(NoXCTest) Pop=Regular MaxDisk=500GB Guess=Read IOp
 (5/15=2)\\ZnH\\0,2\Zn,0,0.,0.,0.\H,0,0.,0.,1.8\\Version=ES64L-G16RevA.
 03\State=2-SG\HF=-226.1462735\MP2=-227.25089\MP3=-227.1287775\PUHF=-22
 6.1462735\PMP2-0=-227.25089\MP4SDQ=-227.202231\CCSD=-227.1772422\CCSD(
 T)=-227.2063147\RMSD=1.753e-09\PG=C*V [C*(H1Zn1)]\\@


 WHAT, THEN, IS TIME?  IF NO ONE ASKS ME, I KNOW WHAT IT IS.
 IF I WISH TO EXPLAIN WHAT IT IS TO HIM WHO ASKS ME, I DO NOT KNOW.
                                   -- ST. AUGUSTINE (FIFTH CENTURY)
 Job cpu time:       3 days 21 hours 48 minutes 44.5 seconds.
 Elapsed time:       0 days  2 hours 57 minutes 11.9 seconds.
 File lengths (MBytes):  RWF=  29390 Int=      0 D2E=      0 Chk=     22 Scr=      1
 Normal termination of Gaussian 16 at Sun Apr 29 00:38:25 2018.
