 Entering Gaussian System, Link 0=g16
 Initial command:
 /home1/apps/gaussian/16rA.03/g16/l1.exe "/tmp/Gau-198983.inp" -scrdir="/tmp/"
 Entering Link 1 = /home1/apps/gaussian/16rA.03/g16/l1.exe PID=    198984.
  
 Copyright (c) 1988,1990,1992,1993,1995,1998,2003,2009,2016,
            Gaussian, Inc.  All Rights Reserved.
  
 This is part of the Gaussian(R) 16 program.  It is based on
 the Gaussian(R) 09 system (copyright 2009, Gaussian, Inc.),
 the Gaussian(R) 03 system (copyright 2003, Gaussian, Inc.),
 the Gaussian(R) 98 system (copyright 1998, Gaussian, Inc.),
 the Gaussian(R) 94 system (copyright 1995, Gaussian, Inc.),
 the Gaussian 92(TM) system (copyright 1992, Gaussian, Inc.),
 the Gaussian 90(TM) system (copyright 1990, Gaussian, Inc.),
 the Gaussian 88(TM) system (copyright 1988, Gaussian, Inc.),
 the Gaussian 86(TM) system (copyright 1986, Carnegie Mellon
 University), and the Gaussian 82(TM) system (copyright 1983,
 Carnegie Mellon University). Gaussian is a federally registered
 trademark of Gaussian, Inc.
  
 This software contains proprietary and confidential information,
 including trade secrets, belonging to Gaussian, Inc.
  
 This software is provided under written license and may be
 used, copied, transmitted, or stored only in accord with that
 written license.
  
 The following legend is applicable only to US Government
 contracts under FAR:
  
                    RESTRICTED RIGHTS LEGEND
  
 Use, reproduction and disclosure by the US Government is
 subject to restrictions as set forth in subparagraphs (a)
 and (c) of the Commercial Computer Software - Restricted
 Rights clause in FAR 52.227-19.
  
 Gaussian, Inc.
 340 Quinnipiac St., Bldg. 40, Wallingford CT 06492
  
  
 ---------------------------------------------------------------
 Warning -- This program may not be used in any manner that
 competes with the business of Gaussian, Inc. or will provide
 assistance to any competitor of Gaussian, Inc.  The licensee
 of this program is prohibited from giving any competitor of
 Gaussian, Inc. access to this program.  By using this program,
 the user acknowledges that Gaussian, Inc. is engaged in the
 business of creating and licensing software in the field of
 computational chemistry and represents and warrants to the
 licensee that it is not a competitor of Gaussian, Inc. and that
 it will not use this program in any manner prohibited above.
 ---------------------------------------------------------------
  

 Cite this work as:
 Gaussian 16, Revision A.03,
 M. J. Frisch, G. W. Trucks, H. B. Schlegel, G. E. Scuseria, 
 M. A. Robb, J. R. Cheeseman, G. Scalmani, V. Barone, 
 G. A. Petersson, H. Nakatsuji, X. Li, M. Caricato, A. V. Marenich, 
 J. Bloino, B. G. Janesko, R. Gomperts, B. Mennucci, H. P. Hratchian, 
 J. V. Ortiz, A. F. Izmaylov, J. L. Sonnenberg, D. Williams-Young, 
 F. Ding, F. Lipparini, F. Egidi, J. Goings, B. Peng, A. Petrone, 
 T. Henderson, D. Ranasinghe, V. G. Zakrzewski, J. Gao, N. Rega, 
 G. Zheng, W. Liang, M. Hada, M. Ehara, K. Toyota, R. Fukuda, 
 J. Hasegawa, M. Ishida, T. Nakajima, Y. Honda, O. Kitao, H. Nakai, 
 T. Vreven, K. Throssell, J. A. Montgomery, Jr., J. E. Peralta, 
 F. Ogliaro, M. J. Bearpark, J. J. Heyd, E. N. Brothers, K. N. Kudin, 
 V. N. Staroverov, T. A. Keith, R. Kobayashi, J. Normand, 
 K. Raghavachari, A. P. Rendell, J. C. Burant, S. S. Iyengar, 
 J. Tomasi, M. Cossi, J. M. Millam, M. Klene, C. Adamo, R. Cammi, 
 J. W. Ochterski, R. L. Martin, K. Morokuma, O. Farkas, 
 J. B. Foresman, and D. J. Fox, Gaussian, Inc., Wallingford CT, 2016.
 
 ******************************************
 Gaussian 16:  ES64L-G16RevA.03 25-Dec-2016
                12-Feb-2018 
 ******************************************
 %mem=64GB
 %cpu=0-31
 SetSPE:  set environment variable "MP_BIND" = "yes"
 SetSPE:  set environment variable "MP_BLIST" = "0,1,2,3,4,5,6,7,8,9,10,11,12,13,14,15,16,17,18,19,20,21,22,23,24,25,26,27,28,29,30,31"
 Will use up to   32 processors via shared memory.
 %chk=CrH
 ----------------------------------------------------------------------
 #P ROCCSD(T)=(maxcyc=150, Full)/Gen 5d 7f SCF=(maxcycles=300) Integral
 (NoXCTest) MaxDisk=500GB Pop=Regular Pseudo=Read
 ----------------------------------------------------------------------
 1/38=1,172=1/1;
 2/12=2,17=6,18=5,40=1/2;
 3/5=7,8=11,11=2,16=1,17=8,25=1,30=1,47=8,116=101/1,2,3;
 4//1;
 5/5=2,7=300,38=5/2;
 8/5=-1,6=4,9=120000,10=90/1,4;
 9/5=7,6=150,14=2/13;
 6//1;
 99/5=1,9=1/99;
 Leave Link    1 at Mon Feb 12 15:30:39 2018, MaxMem=  8589934592 cpu:               7.7 elap:               0.3
 (Enter /home1/apps/gaussian/16rA.03/g16/l101.exe)
 ---
 CrH
 ---
 Symbolic Z-matrix:
 Charge =  0 Multiplicity = 6
 Cr                    0.        0.        0. 
 H                     0.        0.        1. 
 
 ITRead=  0  0
 MicOpt= -1 -1
 NAtoms=      2 NQM=        2 NQMF=       0 NMMI=      0 NMMIF=      0
                NMic=       0 NMicF=      0.
                    Isotopes and Nuclear Properties:
 (Nuclear quadrupole moments (NQMom) in fm**2, nuclear magnetic moments (NMagM)
  in nuclear magnetons)

  Atom         1           2
 IAtWgt=          52           1
 AtmWgt=  51.9405097   1.0078250
 NucSpn=           0           1
 AtZEff=  -0.0000000  -0.0000000
 NQMom=    0.0000000   0.0000000
 NMagM=    0.0000000   2.7928460
 AtZNuc=  24.0000000   1.0000000
 Leave Link  101 at Mon Feb 12 15:30:39 2018, MaxMem=  8589934592 cpu:               2.9 elap:               0.1
 (Enter /home1/apps/gaussian/16rA.03/g16/l202.exe)
                          Input orientation:                          
 ---------------------------------------------------------------------
 Center     Atomic      Atomic             Coordinates (Angstroms)
 Number     Number       Type             X           Y           Z
 ---------------------------------------------------------------------
      1         24           0        0.000000    0.000000    0.000000
      2          1           0        0.000000    0.000000    1.000000
 ---------------------------------------------------------------------
 Stoichiometry    CrH(6)
 Framework group  C*V[C*(HCr)]
 Deg. of freedom     1
 Full point group                 C*V     NOp   4
 Largest Abelian subgroup         C2V     NOp   4
 Largest concise Abelian subgroup C1      NOp   1
                         Standard orientation:                         
 ---------------------------------------------------------------------
 Center     Atomic      Atomic             Coordinates (Angstroms)
 Number     Number       Type             X           Y           Z
 ---------------------------------------------------------------------
      1         24           0        0.000000    0.000000    0.040000
      2          1           0        0.000000    0.000000   -0.960000
 ---------------------------------------------------------------------
 Rotational constants (GHZ):           0.0000000         511.1850631         511.1850631
 Leave Link  202 at Mon Feb 12 15:30:39 2018, MaxMem=  8589934592 cpu:               0.7 elap:               0.1
 (Enter /home1/apps/gaussian/16rA.03/g16/l301.exe)
 General basis read from cards:  (5D, 7F)
 Centers:       1
 S 1 1.00
     Exponent=  6.1771940000D+06 Coefficients=  1.0000000000D+00
 S 1 1.00
     Exponent=  9.2492950000D+05 Coefficients=  1.0000000000D+00
 S 1 1.00
     Exponent=  2.1048650000D+05 Coefficients=  1.0000000000D+00
 S 1 1.00
     Exponent=  5.9620050000D+04 Coefficients=  1.0000000000D+00
 S 1 1.00
     Exponent=  1.9450760000D+04 Coefficients=  1.0000000000D+00
 S 1 1.00
     Exponent=  7.0220560000D+03 Coefficients=  1.0000000000D+00
 S 1 1.00
     Exponent=  2.7387630000D+03 Coefficients=  1.0000000000D+00
 S 1 1.00
     Exponent=  1.1358140000D+03 Coefficients=  1.0000000000D+00
 S 1 1.00
     Exponent=  4.9509230000D+02 Coefficients=  1.0000000000D+00
 S 1 1.00
     Exponent=  2.2474870000D+02 Coefficients=  1.0000000000D+00
 S 1 1.00
     Exponent=  1.0538360000D+02 Coefficients=  1.0000000000D+00
 S 1 1.00
     Exponent=  5.0193590000D+01 Coefficients=  1.0000000000D+00
 S 1 1.00
     Exponent=  2.2249570000D+01 Coefficients=  1.0000000000D+00
 S 1 1.00
     Exponent=  1.0982650000D+01 Coefficients=  1.0000000000D+00
 S 1 1.00
     Exponent=  5.3836650000D+00 Coefficients=  1.0000000000D+00
 S 1 1.00
     Exponent=  2.3436850000D+00 Coefficients=  1.0000000000D+00
 S 1 1.00
     Exponent=  1.1052020000D+00 Coefficients=  1.0000000000D+00
 S 1 1.00
     Exponent=  4.8784800000D-01 Coefficients=  1.0000000000D+00
 S 1 1.00
     Exponent=  8.9599000000D-02 Coefficients=  1.0000000000D+00
 S 1 1.00
     Exponent=  3.3423000000D-02 Coefficients=  1.0000000000D+00
 S 1 1.00
     Exponent=  4.8281000000D+00 Coefficients=  1.0000000000D+00
 S 1 1.00
     Exponent=  1.1499000000D+00 Coefficients=  1.0000000000D+00
 S 1 1.00
     Exponent=  1.2470000000D-02 Coefficients=  1.0000000000D+00
 P 1 1.00
     Exponent=  1.4454200000D+04 Coefficients=  1.0000000000D+00
 P 1 1.00
     Exponent=  3.4216760000D+03 Coefficients=  1.0000000000D+00
 P 1 1.00
     Exponent=  1.1113870000D+03 Coefficients=  1.0000000000D+00
 P 1 1.00
     Exponent=  4.2519180000D+02 Coefficients=  1.0000000000D+00
 P 1 1.00
     Exponent=  1.8026230000D+02 Coefficients=  1.0000000000D+00
 P 1 1.00
     Exponent=  8.2061170000D+01 Coefficients=  1.0000000000D+00
 P 1 1.00
     Exponent=  3.9297260000D+01 Coefficients=  1.0000000000D+00
 P 1 1.00
     Exponent=  1.9419590000D+01 Coefficients=  1.0000000000D+00
 P 1 1.00
     Exponent=  9.8288990000D+00 Coefficients=  1.0000000000D+00
 P 1 1.00
     Exponent=  5.0168100000D+00 Coefficients=  1.0000000000D+00
 P 1 1.00
     Exponent=  2.4870910000D+00 Coefficients=  1.0000000000D+00
 P 1 1.00
     Exponent=  1.1987800000D+00 Coefficients=  1.0000000000D+00
 P 1 1.00
     Exponent=  5.5869500000D-01 Coefficients=  1.0000000000D+00
 P 1 1.00
     Exponent=  2.0936600000D-01 Coefficients=  1.0000000000D+00
 P 1 1.00
     Exponent=  8.4722000000D-02 Coefficients=  1.0000000000D+00
 P 1 1.00
     Exponent=  3.3278000000D-02 Coefficients=  1.0000000000D+00
 P 1 1.00
     Exponent=  5.2718000000D+00 Coefficients=  1.0000000000D+00
 P 1 1.00
     Exponent=  1.2083000000D+00 Coefficients=  1.0000000000D+00
 P 1 1.00
     Exponent=  1.3070000000D-02 Coefficients=  1.0000000000D+00
 D 1 1.00
     Exponent=  8.9474500000D+01 Coefficients=  1.0000000000D+00
 D 1 1.00
     Exponent=  2.6336800000D+01 Coefficients=  1.0000000000D+00
 D 1 1.00
     Exponent=  9.5342900000D+00 Coefficients=  1.0000000000D+00
 D 1 1.00
     Exponent=  3.8211800000D+00 Coefficients=  1.0000000000D+00
 D 1 1.00
     Exponent=  1.5716900000D+00 Coefficients=  1.0000000000D+00
 D 1 1.00
     Exponent=  6.2642200000D-01 Coefficients=  1.0000000000D+00
 D 1 1.00
     Exponent=  2.3305500000D-01 Coefficients=  1.0000000000D+00
 D 1 1.00
     Exponent=  7.6303000000D-02 Coefficients=  1.0000000000D+00
 D 1 1.00
     Exponent=  3.4093000000D+00 Coefficients=  1.0000000000D+00
 D 1 1.00
     Exponent=  1.5874000000D+00 Coefficients=  1.0000000000D+00
 D 1 1.00
     Exponent=  2.4980000000D-02 Coefficients=  1.0000000000D+00
 F 1 1.00
     Exponent=  4.3629000000D+00 Coefficients=  1.0000000000D+00
 F 1 1.00
     Exponent=  1.5864000000D+00 Coefficients=  1.0000000000D+00
 F 1 1.00
     Exponent=  5.2310000000D-01 Coefficients=  1.0000000000D+00
 F 1 1.00
     Exponent=  1.7249000000D-01 Coefficients=  1.0000000000D+00
 G 1 1.00
     Exponent=  4.0406000000D+00 Coefficients=  1.0000000000D+00
 G 1 1.00
     Exponent=  1.4199000000D+00 Coefficients=  1.0000000000D+00
 G 1 1.00
     Exponent=  4.9896000000D-01 Coefficients=  1.0000000000D+00
 ****
 Centers:       2
 S 1 1.00
     Exponent=  3.3870000000D+01 Coefficients=  1.0000000000D+00
 S 1 1.00
     Exponent=  5.0950000000D+00 Coefficients=  1.0000000000D+00
 S 1 1.00
     Exponent=  1.1590000000D+00 Coefficients=  1.0000000000D+00
 S 1 1.00
     Exponent=  3.2580000000D-01 Coefficients=  1.0000000000D+00
 S 1 1.00
     Exponent=  1.0270000000D-01 Coefficients=  1.0000000000D+00
 S 1 1.00
     Exponent=  2.5260000000D-02 Coefficients=  1.0000000000D+00
 P 1 1.00
     Exponent=  1.4070000000D+00 Coefficients=  1.0000000000D+00
 P 1 1.00
     Exponent=  3.8800000000D-01 Coefficients=  1.0000000000D+00
 P 1 1.00
     Exponent=  1.0200000000D-01 Coefficients=  1.0000000000D+00
 D 1 1.00
     Exponent=  1.0570000000D+00 Coefficients=  1.0000000000D+00
 D 1 1.00
     Exponent=  2.4700000000D-01 Coefficients=  1.0000000000D+00
 ****
 ======================================================================================================
                                       Pseudopotential Parameters
 ======================================================================================================
  Center     Atomic      Valence      Angular      Power
  Number     Number     Electrons     Momentum     of R      Exponent        Coefficient   SO-Coeffient
 ======================================================================================================
    1         24           14
                                      D and up 
                                                     1       18.9608692       14.00000000    0.00000000
                                                     3       19.2685642      265.45216919    0.00000000
                                                     2       18.0153842     -128.16784351    0.00000000
                                                     2        4.5700133       -0.77003812    0.00000000
                                      S - D
                                                     2       16.4903486      219.81621107    0.00000000
                                                     2        7.5667485       28.10747145    0.00000000
                                      P - D
                                                     2       16.3628681      143.81708416    0.00000000
                                                     2        7.8017945       20.57648136    0.00000000
    2          1            1
                                      P and up 
                                                     2       21.7769666      -10.85192405    0.00000000
                                                     1       21.2435951        1.00000000    0.00000000
                                                     3       21.2435951       21.24359508    0.00000000
                                      S - P
                                                     2        1.0000000        0.00000000    0.00000000
 ======================================================================================================
 Ernie: Thresh=  0.10000D-02 Tol=  0.10000D-05 Strict=F.
 There are   120 symmetry adapted cartesian basis functions of A1  symmetry.
 There are    26 symmetry adapted cartesian basis functions of A2  symmetry.
 There are    56 symmetry adapted cartesian basis functions of B1  symmetry.
 There are    56 symmetry adapted cartesian basis functions of B2  symmetry.
 There are    94 symmetry adapted basis functions of A1  symmetry.
 There are    23 symmetry adapted basis functions of A2  symmetry.
 There are    49 symmetry adapted basis functions of B1  symmetry.
 There are    49 symmetry adapted basis functions of B2  symmetry.
   215 basis functions,   258 primitive gaussians,   258 cartesian basis functions
    10 alpha electrons        5 beta electrons
       nuclear repulsion energy         7.4084809529 Hartrees.
 IExCor=    0 DFT=F Ex=HF Corr=None ExCW=0 ScaHFX=  1.000000
 ScaDFX=  1.000000  1.000000  1.000000  1.000000 ScalE2=  1.000000  1.000000
 IRadAn=      5 IRanWt=     -1 IRanGd=            0 ICorTp=0 IEmpDi=  4
 NAtoms=    2 NActive=    2 NUniq=    2 SFac= 1.00D+00 NAtFMM=   60 NAOKFM=F Big=F
 Integral buffers will be    131072 words long.
 Raffenetti 2 integral format.
 Two-electron integral symmetry is turned on.
 Leave Link  301 at Mon Feb 12 15:30:40 2018, MaxMem=  8589934592 cpu:               6.8 elap:               0.2
 (Enter /home1/apps/gaussian/16rA.03/g16/l302.exe)
 NPDir=0 NMtPBC=     1 NCelOv=     1 NCel=       1 NClECP=     1 NCelD=      1
         NCelK=      1 NCelE2=     1 NClLst=     1 CellRange=     0.0.
 One-electron integrals computed using PRISM.
 One-electron integral symmetry used in STVInt
   4 Symmetry operations used in ECPInt.
 ECPInt:  NShTT=    2556 NPrTT=    2556 LenC2=    2539 LenP2D=    2538.
 LDataN:  DoStor=T MaxTD1= 8 Len=  415
 NBasis=   215 RedAO= T EigKep=  1.71D-06  NBF=    94    23    49    49
 NBsUse=   206 1.00D-06 EigRej=  4.92D-07 NBFU=    90    22    47    47
 Leave Link  302 at Mon Feb 12 15:30:41 2018, MaxMem=  8589934592 cpu:              28.3 elap:               1.0
 (Enter /home1/apps/gaussian/16rA.03/g16/l303.exe)
 DipDrv:  MaxL=1.
 Leave Link  303 at Mon Feb 12 15:30:42 2018, MaxMem=  8589934592 cpu:               1.8 elap:               0.2
 (Enter /home1/apps/gaussian/16rA.03/g16/l401.exe)
 ExpMin= 1.25D-02 ExpMax= 6.18D+06 ExpMxC= 6.18D+06 IAcc=4 IRadAn=    199590 AccDes= 0.00D+00
 Harris functional with IExCor=  205 and IRadAn=  199590 diagonalized for initial guess.
 HarFok:  IExCor=  205 AccDes= 0.00D+00 IRadAn=    199590 IDoV= 1 UseB2=F ITyADJ=14
 ICtDFT=  3500011 ScaDFX=  1.000000  1.000000  1.000000  1.000000
 Spurious integrated density or basis function:
 NE=   15 NElCor=    0 El error=6.05D-09 rel=2.42D-10 Tolerance=1.00D-03
 Shell     1     absolute error=4.30D-02              Tolerance=1.20D-02
 Shell     1       signed error=4.30D-02              Tolerance=1.00D-01
 FoFCou: FMM=F IPFlag=           8 FMFlag=      100000 FMFlg1=           0
         NFxFlg=           0 DoJE=T BraDBF=F KetDBF=T FulRan=T
         wScrn=  0.000000 ICntrl=       500 IOpCl=  0 I1Cent=   200000004 NGrid=           0
         NMat0=    1 NMatS0=      1 NMatT0=    0 NMatD0=    1 NMtDS0=    0 NMtDT0=    0
 Petite list used in FoFCou.
 Harris En= -87.1208484543109    
 JPrj=0 DoOrth=F DoCkMO=F.
 Initial guess orbital symmetries:
       Occupied  (SG) (SG) (PI) (PI) (SG) (SG) (PI) (PI) (DLTA)
                 (DLTA)
       Virtual   (SG) (PI) (PI) (SG) (SG) (PI) (PI) (SG) (PI) (PI)
                 (DLTA) (DLTA) (SG) (SG) (PI) (PI) (SG) (SG) (PI)
                 (PI) (DLTA) (DLTA) (SG) (PI) (PI) (SG) (DLTA)
                 (DLTA) (PHI) (PHI) (PI) (PI) (SG) (SG) (PI) (PI)
                 (SG) (PI) (PI) (DLTA) (DLTA) (SG) (DLTA) (DLTA)
                 (SG) (PI) (PI) (PI) (PI) (SG) (DLTA) (DLTA) (PHI)
                 (PHI) (SG) (PI) (PI) (PHI) (PHI) (?A) (?A) (SG)
                 (PI) (PI) (SG) (DLTA) (DLTA) (SG) (PI) (PI) (DLTA)
                 (DLTA) (PI) (PI) (SG) (SG) (DLTA) (DLTA) (PI)
                 (PI) (SG) (PI) (PI) (DLTA) (DLTA) (PHI) (PHI)
                 (SG) (PI) (PI) (SG) (PI) (PI) (SG) (PHI) (PHI)
                 (?A) (?A) (DLTA) (DLTA) (SG) (DLTA) (DLTA) (PI)
                 (PI) (PI) (PI) (SG) (SG) (SG) (DLTA) (DLTA) (PHI)
                 (PHI) (PI) (PI) (SG) (PI) (PI) (SG) (DLTA) (DLTA)
                 (PI) (PI) (SG) (SG) (PHI) (PHI) (?A) (?A) (DLTA)
                 (DLTA) (PI) (PI) (SG) (PI) (PI) (SG) (DLTA) (DLTA)
                 (PI) (PI) (SG) (SG) (PI) (PI) (SG) (SG) (SG) (DLTA)
                 (DLTA) (PI) (PI) (SG) (PI) (PI) (SG) (SG) (PI)
                 (PI) (SG) (SG) (DLTA) (DLTA) (PI) (PI) (SG) (PI)
                 (PI) (SG) (SG) (PI) (PI) (SG) (SG) (PI) (PI) (SG)
                 (SG) (SG) (PI) (PI) (SG) (SG) (PI) (PI) (SG) (SG)
                 (PI) (PI) (SG) (SG) (SG) (SG) (SG) (SG)
 The electronic state of the initial guess is 6-SG.
 Leave Link  401 at Mon Feb 12 15:30:44 2018, MaxMem=  8589934592 cpu:              38.9 elap:               1.3
 (Enter /home1/apps/gaussian/16rA.03/g16/l502.exe)
 Keep R1 and R2 ints in memory in symmetry-blocked form, NReq=338797193.
 FoFCou: FMM=F IPFlag=           8 FMFlag=           0 FMFlg1=           0
         NFxFlg=           0 DoJE=F BraDBF=F KetDBF=F FulRan=T
         wScrn=  0.000000 ICntrl=       600 IOpCl=  0 I1Cent=           0 NGrid=           0
         NMat0=    1 NMatS0=  23220 NMatT0=    0 NMatD0=    1 NMtDS0=    0 NMtDT0=    0
 Petite list used in FoFCou.
 Restricted open shell SCF:
 Using DIIS extrapolation, IDIIS=  1040.
 NGot=  8589934592 LenX=  8451446295 LenY=  8451379290
 Requested convergence on RMS density matrix=1.00D-08 within 300 cycles.
 Requested convergence on MAX density matrix=1.00D-06.
 Requested convergence on             energy=1.00D-06.
 No special actions if energy rises.

 Cycle   1  Pass 1  IDiag  1:
 E= -86.2030800229627    
 DIIS: error= 9.61D-02 at cycle   1 NSaved=   1.
 NSaved= 1 IEnMin= 1 EnMin= -86.2030800229627     IErMin= 1 ErrMin= 9.61D-02
 ErrMax= 9.61D-02  0.00D+00 EMaxC= 1.00D-01 BMatC= 4.90D-01 BMatP= 4.90D-01
 IDIUse=3 WtCom= 3.92D-02 WtEn= 9.61D-01
 Coeff-Com:  0.100D+01
 Coeff-En:   0.100D+01
 Coeff:      0.100D+01
 Gap=     0.163 Goal=   None    Shift=    0.000
 GapD=    0.163 DampG=1.000 DampE=0.250 DampFc=0.2500 IDamp=-1.
 Damping current iteration by 2.50D-01
 RMSDP=3.23D-03 MaxDP=1.53D-01              OVMax= 3.87D-01

 Cycle   2  Pass 1  IDiag  1:
 E= -86.2533016931185     Delta-E=       -0.050221670156 Rises=F Damp=T
 DIIS: error= 1.90D-02 at cycle   2 NSaved=   2.
 NSaved= 2 IEnMin= 2 EnMin= -86.2533016931185     IErMin= 2 ErrMin= 1.90D-02
 ErrMax= 1.90D-02  0.00D+00 EMaxC= 1.00D-01 BMatC= 6.17D-02 BMatP= 4.90D-01
 IDIUse=3 WtCom= 8.10D-01 WtEn= 1.90D-01
 Coeff-Com: -0.148D+00 0.115D+01
 Coeff-En:   0.345D+00 0.655D+00
 Coeff:     -0.542D-01 0.105D+01
 Gap=     0.040 Goal=   None    Shift=    0.000
 RMSDP=1.85D-03 MaxDP=9.03D-02 DE=-5.02D-02 OVMax= 4.61D-01

 Cycle   3  Pass 1  IDiag  1:
 E= -86.2488512541709     Delta-E=        0.004450438948 Rises=F Damp=F
 DIIS: error= 4.82D-02 at cycle   3 NSaved=   3.
 NSaved= 3 IEnMin= 2 EnMin= -86.2533016931185     IErMin= 2 ErrMin= 1.90D-02
 ErrMax= 4.82D-02  0.00D+00 EMaxC= 1.00D-01 BMatC= 1.48D-01 BMatP= 6.17D-02
 IDIUse=2 WtCom= 0.00D+00 WtEn= 1.00D+00
 Coeff-En:   0.000D+00 0.508D+00 0.492D+00
 Coeff:      0.000D+00 0.508D+00 0.492D+00
 Gap=     0.106 Goal=   None    Shift=    0.000
 RMSDP=2.15D-03 MaxDP=1.10D-01 DE= 4.45D-03 OVMax= 3.32D-01

 Cycle   4  Pass 1  IDiag  1:
 E= -86.3844115342849     Delta-E=       -0.135560280114 Rises=F Damp=F
 DIIS: error= 3.52D-02 at cycle   4 NSaved=   4.
 NSaved= 4 IEnMin= 4 EnMin= -86.3844115342849     IErMin= 2 ErrMin= 1.90D-02
 ErrMax= 3.52D-02  0.00D+00 EMaxC= 1.00D-01 BMatC= 1.21D-01 BMatP= 6.17D-02
 IDIUse=2 WtCom= 0.00D+00 WtEn= 1.00D+00
 Coeff-En:   0.000D+00 0.000D+00 0.353D+00 0.647D+00
 Coeff:      0.000D+00 0.000D+00 0.353D+00 0.647D+00
 Gap=     0.030 Goal=   None    Shift=    0.000
 RMSDP=1.61D-03 MaxDP=1.52D-01 DE=-1.36D-01 OVMax= 1.48D-01

 Cycle   5  Pass 1  IDiag  1:
 E= -86.4116443081925     Delta-E=       -0.027232773908 Rises=F Damp=F
 DIIS: error= 2.00D-02 at cycle   5 NSaved=   5.
 NSaved= 5 IEnMin= 5 EnMin= -86.4116443081925     IErMin= 2 ErrMin= 1.90D-02
 ErrMax= 2.00D-02  0.00D+00 EMaxC= 1.00D-01 BMatC= 1.73D-02 BMatP= 6.17D-02
 IDIUse=3 WtCom= 8.00D-01 WtEn= 2.00D-01
 EnCoef did     4 forward-backward iterations
 Coeff-Com: -0.193D+00 0.317D+00 0.308D+00 0.570D-01 0.511D+00
 Coeff-En:   0.000D+00 0.000D+00 0.294D+00 0.278D+00 0.428D+00
 Coeff:     -0.154D+00 0.254D+00 0.305D+00 0.101D+00 0.495D+00
 Gap=     0.057 Goal=   None    Shift=    0.000
 RMSDP=1.39D-03 MaxDP=8.91D-02 DE=-2.72D-02 OVMax= 2.86D-01

 Cycle   6  Pass 1  IDiag  1:
 E= -86.4163664094481     Delta-E=       -0.004722101256 Rises=F Damp=F
 DIIS: error= 1.01D-02 at cycle   6 NSaved=   6.
 NSaved= 6 IEnMin= 6 EnMin= -86.4163664094481     IErMin= 6 ErrMin= 1.01D-02
 ErrMax= 1.01D-02  0.00D+00 EMaxC= 1.00D-01 BMatC= 7.73D-03 BMatP= 1.73D-02
 IDIUse=3 WtCom= 8.99D-01 WtEn= 1.01D-01
 Rare condition: small coef for last iteration:  0.222D-15
 Coeff-Com: -0.162D+00 0.244D+00 0.165D+00-0.243D-01 0.398D+00 0.379D+00
 Coeff-En:   0.000D+00 0.000D+00 0.102D+00 0.000D+00 0.432D+00 0.465D+00
 Coeff:     -0.162D+00 0.244D+00 0.165D+00-0.243D-01 0.398D+00 0.379D+00
 Gap=     0.048 Goal=   None    Shift=    0.000
 RMSDP=6.57D-04 MaxDP=5.12D-02 DE=-4.72D-03 OVMax= 1.29D-01

 Cycle   7  Pass 1  IDiag  1:
 E= -86.4276718108640     Delta-E=       -0.011305401416 Rises=F Damp=F
 DIIS: error= 7.51D-03 at cycle   7 NSaved=   7.
 NSaved= 7 IEnMin= 7 EnMin= -86.4276718108640     IErMin= 7 ErrMin= 7.51D-03
 ErrMax= 7.51D-03  0.00D+00 EMaxC= 1.00D-01 BMatC= 4.65D-03 BMatP= 7.73D-03
 IDIUse=3 WtCom= 9.25D-01 WtEn= 7.51D-02
 EnCoef did   100 forward-backward iterations
 Rare condition: small coef for last iteration:  0.000D+00
 Coeff-Com: -0.157D+00 0.232D+00 0.101D+00-0.689D-01 0.286D+00 0.270D+00
 Coeff-Com:  0.337D+00
 Coeff-En:   0.000D+00 0.000D+00 0.111D+00 0.000D+00 0.356D+00 0.115D+00
 Coeff-En:   0.417D+00
 Coeff:     -0.157D+00 0.232D+00 0.101D+00-0.689D-01 0.286D+00 0.270D+00
 Coeff:      0.337D+00
 Gap=     0.039 Goal=   None    Shift=    0.000
 RMSDP=6.29D-04 MaxDP=3.69D-02 DE=-1.13D-02 OVMax= 6.97D-02

 Cycle   8  Pass 1  IDiag  1:
 E= -86.4324130242132     Delta-E=       -0.004741213349 Rises=F Damp=F
 DIIS: error= 7.32D-03 at cycle   8 NSaved=   8.
 NSaved= 8 IEnMin= 8 EnMin= -86.4324130242132     IErMin= 8 ErrMin= 7.32D-03
 ErrMax= 7.32D-03  0.00D+00 EMaxC= 1.00D-01 BMatC= 2.99D-03 BMatP= 4.65D-03
 IDIUse=3 WtCom= 9.27D-01 WtEn= 7.32D-02
 EnCoef did   100 forward-backward iterations
 Rare condition: small coef for last iteration:  0.654D-17
 Coeff-Com: -0.148D+00 0.213D+00-0.693D-02-0.150D+00-0.137D-01-0.198D+00
 Coeff-Com:  0.317D+00 0.987D+00
 Coeff-En:   0.000D+00 0.000D+00 0.123D+00 0.000D+00 0.308D+00 0.000D+00
 Coeff-En:   0.924D-01 0.477D+00
 Coeff:     -0.148D+00 0.213D+00-0.693D-02-0.150D+00-0.137D-01-0.198D+00
 Coeff:      0.317D+00 0.987D+00
 Gap=     0.021 Goal=   None    Shift=    0.000
 RMSDP=7.45D-04 MaxDP=5.74D-02 DE=-4.74D-03 OVMax= 8.95D-02

 Cycle   9  Pass 1  IDiag  1:
 E= -86.4363166067146     Delta-E=       -0.003903582501 Rises=F Damp=F
 DIIS: error= 6.71D-03 at cycle   9 NSaved=   9.
 NSaved= 9 IEnMin= 9 EnMin= -86.4363166067146     IErMin= 9 ErrMin= 6.71D-03
 ErrMax= 6.71D-03  0.00D+00 EMaxC= 1.00D-01 BMatC= 2.35D-03 BMatP= 2.99D-03
 IDIUse=3 WtCom= 9.33D-01 WtEn= 6.71D-02
 EnCoef did   100 forward-backward iterations
 Rare condition: small coef for last iteration:  0.000D+00
 Coeff-Com: -0.140D+00 0.198D+00-0.197D-01-0.157D+00-0.106D+00-0.629D-01
 Coeff-Com:  0.328D-01 0.740D+00 0.516D+00
 Coeff-En:   0.000D+00 0.000D+00 0.126D+00 0.000D+00 0.223D+00 0.674D-01
 Coeff-En:   0.000D+00 0.155D+00 0.429D+00
 Coeff:     -0.140D+00 0.198D+00-0.197D-01-0.157D+00-0.106D+00-0.629D-01
 Coeff:      0.328D-01 0.740D+00 0.516D+00
 Gap=     0.019 Goal=   None    Shift=    0.000
 RMSDP=7.93D-04 MaxDP=7.03D-02 DE=-3.90D-03 OVMax= 2.98D-02

 Cycle  10  Pass 1  IDiag  1:
 E= -86.4377442795649     Delta-E=       -0.001427672850 Rises=F Damp=F
 DIIS: error= 5.34D-03 at cycle  10 NSaved=  10.
 NSaved=10 IEnMin=10 EnMin= -86.4377442795649     IErMin=10 ErrMin= 5.34D-03
 ErrMax= 5.34D-03  0.00D+00 EMaxC= 1.00D-01 BMatC= 1.72D-03 BMatP= 2.35D-03
 IDIUse=3 WtCom= 9.47D-01 WtEn= 5.34D-02
 EnCoef did   100 forward-backward iterations
 Coeff-Com: -0.124D+00 0.171D+00-0.111D-01-0.138D+00-0.117D+00 0.208D+00
 Coeff-Com: -0.172D+00 0.135D+00 0.476D+00 0.572D+00
 Coeff-En:   0.000D+00 0.000D+00 0.287D+00 0.264D+00 0.420D+00 0.487D-03
 Coeff-En:   0.000D+00 0.228D-02 0.296D-02 0.228D-01
 Coeff:     -0.118D+00 0.162D+00 0.484D-02-0.116D+00-0.886D-01 0.197D+00
 Coeff:     -0.162D+00 0.128D+00 0.451D+00 0.542D+00
 Gap=     0.022 Goal=   None    Shift=    0.000
 RMSDP=3.05D-04 MaxDP=2.39D-02 DE=-1.43D-03 OVMax= 2.49D-02

 Cycle  11  Pass 1  IDiag  1:
 E= -86.4394315893523     Delta-E=       -0.001687309787 Rises=F Damp=F
 DIIS: error= 3.29D-03 at cycle  11 NSaved=  11.
 NSaved=11 IEnMin=11 EnMin= -86.4394315893523     IErMin=11 ErrMin= 3.29D-03
 ErrMax= 3.29D-03  0.00D+00 EMaxC= 1.00D-01 BMatC= 7.34D-04 BMatP= 1.72D-03
 IDIUse=3 WtCom= 9.67D-01 WtEn= 3.29D-02
 EnCoef did   100 forward-backward iterations
 Rare condition: small coef for last iteration: -0.690D-15
 Coeff-Com: -0.906D-01 0.127D+00 0.295D-02-0.115D+00-0.693D-01 0.116D+00
 Coeff-Com: -0.427D-01-0.102D+00-0.401D-02 0.234D+00 0.944D+00
 Coeff-En:   0.000D+00 0.000D+00 0.136D+00 0.000D+00 0.160D+00 0.312D-01
 Coeff-En:   0.000D+00 0.000D+00 0.000D+00 0.000D+00 0.673D+00
 Coeff:     -0.906D-01 0.127D+00 0.295D-02-0.115D+00-0.693D-01 0.116D+00
 Coeff:     -0.427D-01-0.102D+00-0.401D-02 0.234D+00 0.944D+00
 Gap=     0.018 Goal=   None    Shift=    0.000
 RMSDP=1.04D-03 MaxDP=1.03D-01 DE=-1.69D-03 OVMax= 1.95D-02

 Cycle  12  Pass 1  IDiag  1:
 E= -86.4399822688885     Delta-E=       -0.000550679536 Rises=F Damp=F
 DIIS: error= 3.26D-03 at cycle  12 NSaved=  12.
 NSaved=12 IEnMin=12 EnMin= -86.4399822688885     IErMin=12 ErrMin= 3.26D-03
 ErrMax= 3.26D-03  0.00D+00 EMaxC= 1.00D-01 BMatC= 5.79D-04 BMatP= 7.34D-04
 IDIUse=3 WtCom= 9.67D-01 WtEn= 3.26D-02
 EnCoef did   100 forward-backward iterations
 Rare condition: small coef for last iteration:  0.000D+00
 Coeff-Com: -0.640D-01 0.935D-01 0.329D-02-0.771D-01-0.162D-01-0.121D-01
 Coeff-Com:  0.494D-01 0.850D-02-0.236D+00-0.109D+00 0.596D+00 0.763D+00
 Coeff-En:   0.000D+00 0.000D+00 0.133D+00 0.000D+00 0.139D+00 0.505D-02
 Coeff-En:   0.000D+00 0.000D+00 0.000D+00 0.000D+00 0.000D+00 0.722D+00
 Coeff:     -0.640D-01 0.935D-01 0.329D-02-0.771D-01-0.162D-01-0.121D-01
 Coeff:      0.494D-01 0.850D-02-0.236D+00-0.109D+00 0.596D+00 0.763D+00
 Gap=     0.015 Goal=   None    Shift=    0.000
 RMSDP=8.09D-04 MaxDP=7.12D-02 DE=-5.51D-04 OVMax= 1.34D-02

 Cycle  13  Pass 1  IDiag  1:
 E= -86.4406062046888     Delta-E=       -0.000623935800 Rises=F Damp=F
 DIIS: error= 2.45D-03 at cycle  13 NSaved=  13.
 NSaved=13 IEnMin=13 EnMin= -86.4406062046888     IErMin=13 ErrMin= 2.45D-03
 ErrMax= 2.45D-03  0.00D+00 EMaxC= 1.00D-01 BMatC= 3.19D-04 BMatP= 5.79D-04
 IDIUse=3 WtCom= 9.75D-01 WtEn= 2.45D-02
 EnCoef did   100 forward-backward iterations
 Coeff-Com: -0.511D-01 0.751D-01 0.486D-02-0.523D-01 0.708D-02-0.270D-01
 Coeff-Com:  0.510D-01 0.573D-01-0.218D+00-0.159D+00 0.192D+00 0.613D+00
 Coeff-Com:  0.507D+00
 Coeff-En:   0.000D+00 0.000D+00 0.286D+00 0.257D+00 0.420D+00 0.923D-03
 Coeff-En:   0.000D+00 0.000D+00 0.000D+00 0.000D+00 0.000D+00 0.000D+00
 Coeff-En:   0.359D-01
 Coeff:     -0.498D-01 0.733D-01 0.118D-01-0.447D-01 0.172D-01-0.263D-01
 Coeff:      0.498D-01 0.558D-01-0.213D+00-0.155D+00 0.187D+00 0.598D+00
 Coeff:      0.496D+00
 Gap=     0.015 Goal=   None    Shift=    0.000
 RMSDP=1.41D-03 MaxDP=1.09D-01 DE=-6.24D-04 OVMax= 6.02D-02

 Cycle  14  Pass 1  IDiag  1:
 E= -86.4400269926820     Delta-E=        0.000579212007 Rises=F Damp=F
 DIIS: error= 3.16D-03 at cycle  14 NSaved=  14.
 NSaved=14 IEnMin=13 EnMin= -86.4406062046888     IErMin=13 ErrMin= 2.45D-03
 ErrMax= 3.16D-03  0.00D+00 EMaxC= 1.00D-01 BMatC= 4.56D-04 BMatP= 3.19D-04
 IDIUse=3 WtCom= 9.75D-01 WtEn= 2.45D-02
 EnCoef did   100 forward-backward iterations
 Rare condition: small coef for last iteration: -0.115D-15
 Coeff-Com: -0.422D-01 0.624D-01 0.507D-02-0.367D-01 0.182D-01-0.352D-01
 Coeff-Com:  0.479D-01 0.885D-01-0.186D+00-0.173D+00-0.778D-01 0.464D+00
 Coeff-Com:  0.770D+00 0.955D-01
 Coeff-En:   0.000D+00 0.000D+00 0.137D+00 0.000D+00 0.113D+00 0.285D-02
 Coeff-En:   0.000D+00 0.000D+00 0.000D+00 0.000D+00 0.000D+00 0.000D+00
 Coeff-En:   0.472D+00 0.275D+00
 Coeff:     -0.422D-01 0.624D-01 0.507D-02-0.367D-01 0.182D-01-0.352D-01
 Coeff:      0.479D-01 0.885D-01-0.186D+00-0.173D+00-0.778D-01 0.464D+00
 Coeff:      0.770D+00 0.955D-01
 Gap=     0.013 Goal=   None    Shift=    0.000
 RMSDP=1.44D-03 MaxDP=1.11D-01 DE= 5.79D-04 OVMax= 6.39D-02

 Cycle  15  Pass 1  IDiag  1:
 E= -86.4409526724460     Delta-E=       -0.000925679764 Rises=F Damp=F
 DIIS: error= 1.74D-03 at cycle  15 NSaved=  15.
 NSaved=15 IEnMin=15 EnMin= -86.4409526724460     IErMin=15 ErrMin= 1.74D-03
 ErrMax= 1.74D-03  0.00D+00 EMaxC= 1.00D-01 BMatC= 1.66D-04 BMatP= 3.19D-04
 IDIUse=3 WtCom= 9.83D-01 WtEn= 1.74D-02
 EnCoef did   100 forward-backward iterations
 Coeff-Com: -0.233D-01 0.336D-01-0.558D-02-0.135D-01 0.374D-02-0.251D-01
 Coeff-Com: -0.776D-02 0.166D+00 0.195D-01-0.635D-01-0.552D+00-0.130D+00
 Coeff-Com:  0.747D+00 0.209D+00 0.643D+00
 Coeff-En:   0.000D+00 0.000D+00 0.284D+00 0.253D+00 0.420D+00 0.215D-02
 Coeff-En:   0.000D+00 0.000D+00 0.000D+00 0.000D+00 0.000D+00 0.000D+00
 Coeff-En:   0.000D+00 0.393D-01 0.182D-02
 Coeff:     -0.229D-01 0.330D-01-0.537D-03-0.884D-02 0.110D-01-0.246D-01
 Coeff:     -0.763D-02 0.163D+00 0.192D-01-0.624D-01-0.543D+00-0.128D+00
 Coeff:      0.734D+00 0.206D+00 0.632D+00
 Gap=     0.011 Goal=   None    Shift=    0.000
 RMSDP=4.14D-04 MaxDP=3.41D-02 DE=-9.26D-04 OVMax= 3.01D-02

 Cycle  16  Pass 1  IDiag  1:
 E= -86.4411142698499     Delta-E=       -0.000161597404 Rises=F Damp=F
 DIIS: error= 1.23D-03 at cycle  16 NSaved=  16.
 NSaved=16 IEnMin=16 EnMin= -86.4411142698499     IErMin=16 ErrMin= 1.23D-03
 ErrMax= 1.23D-03  0.00D+00 EMaxC= 1.00D-01 BMatC= 8.64D-05 BMatP= 1.66D-04
 IDIUse=3 WtCom= 9.88D-01 WtEn= 1.23D-02
 EnCoef did   100 forward-backward iterations
 Rare condition: small coef for last iteration: -0.233D-15
 Coeff-Com: -0.204D-01 0.292D-01-0.568D-02-0.111D-01 0.176D-02-0.227D-01
 Coeff-Com: -0.107D-01 0.163D+00 0.414D-01-0.506D-01-0.567D+00-0.190D+00
 Coeff-Com:  0.673D+00 0.207D+00 0.678D+00 0.842D-01
 Coeff-En:   0.000D+00 0.000D+00 0.141D+00 0.000D+00 0.101D+00 0.177D-01
 Coeff-En:   0.000D+00 0.000D+00 0.000D+00 0.000D+00 0.000D+00 0.000D+00
 Coeff-En:   0.000D+00 0.163D+00 0.222D+00 0.355D+00
 Coeff:     -0.204D-01 0.292D-01-0.568D-02-0.111D-01 0.176D-02-0.227D-01
 Coeff:     -0.107D-01 0.163D+00 0.414D-01-0.506D-01-0.567D+00-0.190D+00
 Coeff:      0.673D+00 0.207D+00 0.678D+00 0.842D-01
 Gap=     0.010 Goal=   None    Shift=    0.000
 RMSDP=7.69D-04 MaxDP=7.67D-02 DE=-1.62D-04 OVMax= 3.83D-02

 Cycle  17  Pass 1  IDiag  1:
 E= -86.4412222024789     Delta-E=       -0.000107932629 Rises=F Damp=F
 DIIS: error= 8.10D-04 at cycle  17 NSaved=  17.
 NSaved=17 IEnMin=17 EnMin= -86.4412222024789     IErMin=17 ErrMin= 8.10D-04
 ErrMax= 8.10D-04  0.00D+00 EMaxC= 1.00D-01 BMatC= 5.50D-05 BMatP= 8.64D-05
 IDIUse=3 WtCom= 9.92D-01 WtEn= 8.10D-03
 EnCoef did   100 forward-backward iterations
 Coeff-Com: -0.785D-02 0.105D-01 0.243D-02-0.578D-02-0.164D-02 0.250D-02
 Coeff-Com:  0.458D-02 0.685D-01 0.641D-01-0.243D-01-0.273D+00-0.252D+00
 Coeff-Com: -0.505D-01 0.857D-01 0.446D+00 0.390D+00 0.540D+00
 Coeff-En:   0.000D+00 0.000D+00 0.284D+00 0.250D+00 0.418D+00 0.170D-02
 Coeff-En:   0.000D+00 0.000D+00 0.000D+00 0.000D+00 0.000D+00 0.000D+00
 Coeff-En:   0.000D+00 0.172D-02 0.000D+00 0.831D-02 0.366D-01
 Coeff:     -0.778D-02 0.104D-01 0.471D-02-0.371D-02 0.176D-02 0.250D-02
 Coeff:      0.455D-02 0.679D-01 0.636D-01-0.241D-01-0.271D+00-0.250D+00
 Coeff:     -0.501D-01 0.851D-01 0.442D+00 0.387D+00 0.536D+00
 Gap=     0.009 Goal=   None    Shift=    0.000
 RMSDP=3.35D-04 MaxDP=2.70D-02 DE=-1.08D-04 OVMax= 1.59D-02

 Cycle  18  Pass 1  IDiag  1:
 E= -86.4413413239334     Delta-E=       -0.000119121455 Rises=F Damp=F
 DIIS: error= 3.61D-04 at cycle  18 NSaved=  18.
 NSaved=18 IEnMin=18 EnMin= -86.4413413239334     IErMin=18 ErrMin= 3.61D-04
 ErrMax= 3.61D-04  0.00D+00 EMaxC= 1.00D-01 BMatC= 1.08D-05 BMatP= 5.50D-05
 IDIUse=3 WtCom= 9.96D-01 WtEn= 3.61D-03
 EnCoef did   100 forward-backward iterations
 Rare condition: small coef for last iteration:  0.000D+00
 Coeff-Com: -0.949D-03 0.135D-02 0.325D-02-0.197D-02-0.592D-03-0.171D-01
 Coeff-Com:  0.120D-01-0.131D-01 0.479D-01 0.140D-01-0.123D-01-0.858D-01
 Coeff-Com: -0.191D+00-0.185D-01 0.248D-01 0.135D+00 0.189D+00 0.914D+00
 Coeff-En:   0.000D+00 0.000D+00 0.145D+00 0.000D+00 0.952D-01 0.160D-01
 Coeff-En:   0.000D+00 0.000D+00 0.000D+00 0.000D+00 0.000D+00 0.000D+00
 Coeff-En:   0.000D+00 0.951D-01 0.000D+00 0.157D+00 0.125D+00 0.367D+00
 Coeff:     -0.949D-03 0.135D-02 0.325D-02-0.197D-02-0.592D-03-0.171D-01
 Coeff:      0.120D-01-0.131D-01 0.479D-01 0.140D-01-0.123D-01-0.858D-01
 Coeff:     -0.191D+00-0.185D-01 0.248D-01 0.135D+00 0.189D+00 0.914D+00
 Gap=     0.007 Goal=   None    Shift=    0.000
 RMSDP=1.45D-04 MaxDP=1.47D-02 DE=-1.19D-04 OVMax= 5.82D-03

 Cycle  19  Pass 1  IDiag  1:
 E= -86.4413741882650     Delta-E=       -0.000032864332 Rises=F Damp=F
 DIIS: error= 2.06D-04 at cycle  19 NSaved=  19.
 NSaved=19 IEnMin=19 EnMin= -86.4413741882650     IErMin=19 ErrMin= 2.06D-04
 ErrMax= 2.06D-04  0.00D+00 EMaxC= 1.00D-01 BMatC= 2.78D-06 BMatP= 1.08D-05
 IDIUse=3 WtCom= 9.98D-01 WtEn= 2.06D-03
 EnCoef did   100 forward-backward iterations
 Rare condition: small coef for last iteration:  0.155D-16
 Coeff-Com:  0.155D-02-0.163D-02 0.128D-02 0.146D-02 0.176D-02-0.189D-01
 Coeff-Com:  0.270D-02-0.206D-01 0.978D-03 0.138D-01 0.984D-01 0.436D-01
 Coeff-Com: -0.116D+00-0.509D-01-0.180D+00-0.308D-01-0.396D-01 0.672D+00
 Coeff-Com:  0.621D+00
 Coeff-En:   0.000D+00 0.000D+00 0.145D+00 0.000D+00 0.952D-01 0.209D-01
 Coeff-En:   0.000D+00 0.000D+00 0.000D+00 0.000D+00 0.000D+00 0.000D+00
 Coeff-En:   0.000D+00 0.885D-01 0.000D+00 0.620D-01 0.402D-02 0.000D+00
 Coeff-En:   0.584D+00
 Coeff:      0.155D-02-0.163D-02 0.128D-02 0.146D-02 0.176D-02-0.189D-01
 Coeff:      0.270D-02-0.206D-01 0.978D-03 0.138D-01 0.984D-01 0.436D-01
 Coeff:     -0.116D+00-0.509D-01-0.180D+00-0.308D-01-0.396D-01 0.672D+00
 Coeff:      0.621D+00
 Gap=     0.006 Goal=   None    Shift=    0.000
 RMSDP=8.42D-05 MaxDP=6.42D-03 DE=-3.29D-05 OVMax= 3.56D-03

 Cycle  20  Pass 1  IDiag  1:
 E= -86.4413771713690     Delta-E=       -0.000002983104 Rises=F Damp=F
 DIIS: error= 1.70D-04 at cycle  20 NSaved=  20.
 NSaved=20 IEnMin=20 EnMin= -86.4413771713690     IErMin=20 ErrMin= 1.70D-04
 ErrMax= 1.70D-04  0.00D+00 EMaxC= 1.00D-01 BMatC= 2.28D-06 BMatP= 2.78D-06
 IDIUse=3 WtCom= 9.98D-01 WtEn= 1.70D-03
 EnCoef did   100 forward-backward iterations
 Coeff-Com:  0.169D-02-0.180D-02 0.893D-03 0.187D-02 0.198D-02-0.163D-01
 Coeff-Com:  0.132D-02-0.156D-01-0.983D-02 0.804D-02 0.106D+00 0.611D-01
 Coeff-Com: -0.954D-01-0.470D-01-0.190D+00-0.476D-01-0.554D-01 0.524D+00
 Coeff-Com:  0.595D+00 0.177D+00
 Coeff-En:   0.000D+00 0.000D+00 0.286D+00 0.256D+00 0.421D+00 0.290D-02
 Coeff-En:   0.000D+00 0.000D+00 0.000D+00 0.000D+00 0.000D+00 0.000D+00
 Coeff-En:   0.000D+00 0.672D-02 0.000D+00 0.431D-02 0.000D+00 0.706D-02
 Coeff-En:   0.109D-02 0.151D-01
 Coeff:      0.168D-02-0.179D-02 0.138D-02 0.230D-02 0.270D-02-0.163D-01
 Coeff:      0.131D-02-0.156D-01-0.981D-02 0.803D-02 0.106D+00 0.610D-01
 Coeff:     -0.952D-01-0.469D-01-0.189D+00-0.475D-01-0.553D-01 0.523D+00
 Coeff:      0.594D+00 0.177D+00
 Gap=     0.006 Goal=   None    Shift=    0.000
 RMSDP=3.33D-05 MaxDP=2.07D-03 DE=-2.98D-06 OVMax= 4.59D-03

 Cycle  21  Pass 1  IDiag  1:
 E= -86.4413789395679     Delta-E=       -0.000001768199 Rises=F Damp=F
 DIIS: error= 1.41D-04 at cycle  21 NSaved=  20.
 NSaved=20 IEnMin=20 EnMin= -86.4413789395679     IErMin=20 ErrMin= 1.41D-04
 ErrMax= 1.41D-04  0.00D+00 EMaxC= 1.00D-01 BMatC= 1.42D-06 BMatP= 2.28D-06
 IDIUse=3 WtCom= 9.99D-01 WtEn= 1.41D-03
 EnCoef did   100 forward-backward iterations
 Rare condition: small coef for last iteration: -0.912D-15
 Coeff-Com:  0.485D-03 0.394D-03 0.529D-03 0.128D-02-0.918D-02 0.523D-03
 Coeff-Com:  0.250D-03-0.240D-01-0.501D-02 0.936D-01 0.764D-01-0.456D-01
 Coeff-Com: -0.263D-01-0.154D+00-0.505D-01-0.474D-01 0.189D+00 0.377D+00
 Coeff-Com:  0.335D+00 0.287D+00
 Coeff-En:   0.000D+00 0.146D+00 0.000D+00 0.948D-01 0.279D-01 0.000D+00
 Coeff-En:   0.000D+00 0.000D+00 0.000D+00 0.000D+00 0.000D+00 0.000D+00
 Coeff-En:   0.983D-01 0.000D+00 0.140D-01 0.000D+00 0.000D+00 0.287D-01
 Coeff-En:   0.269D+00 0.322D+00
 Coeff:      0.485D-03 0.394D-03 0.529D-03 0.128D-02-0.918D-02 0.523D-03
 Coeff:      0.250D-03-0.240D-01-0.501D-02 0.936D-01 0.764D-01-0.456D-01
 Coeff:     -0.263D-01-0.154D+00-0.505D-01-0.474D-01 0.189D+00 0.377D+00
 Coeff:      0.335D+00 0.287D+00
 Gap=     0.007 Goal=   None    Shift=    0.000
 RMSDP=4.20D-05 MaxDP=2.88D-03 DE=-1.77D-06 OVMax= 3.38D-03

 Cycle  22  Pass 1  IDiag  1:
 E= -86.4413816217908     Delta-E=       -0.000002682223 Rises=F Damp=F
 DIIS: error= 7.26D-05 at cycle  22 NSaved=  20.
 NSaved=20 IEnMin=20 EnMin= -86.4413816217908     IErMin=20 ErrMin= 7.26D-05
 ErrMax= 7.26D-05  0.00D+00 EMaxC= 1.00D-01 BMatC= 5.82D-07 BMatP= 1.42D-06
 IDIUse=1 WtCom= 1.00D+00 WtEn= 0.00D+00
 Coeff-Com:  0.285D-03 0.873D-03 0.111D-02-0.291D-02 0.271D-02 0.980D-02
 Coeff-Com: -0.292D-01-0.172D-01 0.611D-01 0.648D-01-0.107D-01-0.823D-02
 Coeff-Com: -0.896D-01-0.344D-01-0.280D-01-0.109D+00 0.744D-01 0.323D+00
 Coeff-Com:  0.401D+00 0.391D+00
 Coeff:      0.285D-03 0.873D-03 0.111D-02-0.291D-02 0.271D-02 0.980D-02
 Coeff:     -0.292D-01-0.172D-01 0.611D-01 0.648D-01-0.107D-01-0.823D-02
 Coeff:     -0.896D-01-0.344D-01-0.280D-01-0.109D+00 0.744D-01 0.323D+00
 Coeff:      0.401D+00 0.391D+00
 Gap=     0.007 Goal=   None    Shift=    0.000
 RMSDP=5.32D-05 MaxDP=3.62D-03 DE=-2.68D-06 OVMax= 1.78D-03

 Cycle  23  Pass 1  IDiag  1:
 E= -86.4413824804520     Delta-E=       -0.000000858661 Rises=F Damp=F
 DIIS: error= 5.18D-05 at cycle  23 NSaved=  20.
 NSaved=20 IEnMin=20 EnMin= -86.4413824804520     IErMin=20 ErrMin= 5.18D-05
 ErrMax= 5.18D-05  0.00D+00 EMaxC= 1.00D-01 BMatC= 2.50D-07 BMatP= 5.82D-07
 IDIUse=1 WtCom= 1.00D+00 WtEn= 0.00D+00
 Coeff-Com:  0.845D-03 0.863D-03-0.233D-02 0.707D-02-0.252D-03-0.472D-02
 Coeff-Com: -0.799D-02 0.220D-02 0.815D-02 0.730D-02-0.775D-02 0.704D-02
 Coeff-Com: -0.739D-02-0.404D-02-0.799D-01-0.858D-01 0.195D-01 0.842D-01
 Coeff-Com:  0.226D+00 0.837D+00
 Coeff:      0.845D-03 0.863D-03-0.233D-02 0.707D-02-0.252D-03-0.472D-02
 Coeff:     -0.799D-02 0.220D-02 0.815D-02 0.730D-02-0.775D-02 0.704D-02
 Coeff:     -0.739D-02-0.404D-02-0.799D-01-0.858D-01 0.195D-01 0.842D-01
 Coeff:      0.226D+00 0.837D+00
 Gap=     0.007 Goal=   None    Shift=    0.000
 RMSDP=1.63D-05 MaxDP=1.12D-03 DE=-8.59D-07 OVMax= 2.03D-03

 Cycle  24  Pass 1  IDiag  1:
 E= -86.4413829593646     Delta-E=       -0.000000478913 Rises=F Damp=F
 DIIS: error= 4.83D-05 at cycle  24 NSaved=  20.
 NSaved=20 IEnMin=20 EnMin= -86.4413829593646     IErMin=20 ErrMin= 4.83D-05
 ErrMax= 4.83D-05  0.00D+00 EMaxC= 1.00D-01 BMatC= 1.57D-07 BMatP= 2.50D-07
 IDIUse=1 WtCom= 1.00D+00 WtEn= 0.00D+00
 Coeff-Com: -0.392D-03-0.256D-02 0.610D-02-0.505D-02 0.188D-02-0.100D-02
 Coeff-Com:  0.458D-02-0.402D-02-0.127D-01-0.427D-02 0.897D-02 0.423D-02
 Coeff-Com:  0.606D-02-0.375D-02-0.792D-01-0.778D-01-0.497D-01 0.744D-01
 Coeff-Com:  0.731D+00 0.403D+00
 Coeff:     -0.392D-03-0.256D-02 0.610D-02-0.505D-02 0.188D-02-0.100D-02
 Coeff:      0.458D-02-0.402D-02-0.127D-01-0.427D-02 0.897D-02 0.423D-02
 Coeff:      0.606D-02-0.375D-02-0.792D-01-0.778D-01-0.497D-01 0.744D-01
 Coeff:      0.731D+00 0.403D+00
 Gap=     0.007 Goal=   None    Shift=    0.000
 RMSDP=1.27D-05 MaxDP=1.17D-03 DE=-4.79D-07 OVMax= 1.38D-03

 Cycle  25  Pass 1  IDiag  1:
 E= -86.4413832188351     Delta-E=       -0.000000259470 Rises=F Damp=F
 DIIS: error= 3.08D-05 at cycle  25 NSaved=  20.
 NSaved=20 IEnMin=20 EnMin= -86.4413832188351     IErMin=20 ErrMin= 3.08D-05
 ErrMax= 3.08D-05  0.00D+00 EMaxC= 1.00D-01 BMatC= 1.11D-07 BMatP= 1.57D-07
 IDIUse=1 WtCom= 1.00D+00 WtEn= 0.00D+00
 Coeff-Com: -0.434D-03 0.633D-03 0.198D-02-0.117D-02-0.839D-03-0.725D-02
 Coeff-Com: -0.566D-02 0.159D-02 0.182D-02 0.871D-02 0.868D-02 0.954D-02
 Coeff-Com:  0.363D-02-0.496D-01-0.817D-01-0.859D-01-0.469D-01 0.220D+00
 Coeff-Com:  0.359D+00 0.664D+00
 Coeff:     -0.434D-03 0.633D-03 0.198D-02-0.117D-02-0.839D-03-0.725D-02
 Coeff:     -0.566D-02 0.159D-02 0.182D-02 0.871D-02 0.868D-02 0.954D-02
 Coeff:      0.363D-02-0.496D-01-0.817D-01-0.859D-01-0.469D-01 0.220D+00
 Coeff:      0.359D+00 0.664D+00
 Gap=     0.007 Goal=   None    Shift=    0.000
 RMSDP=9.24D-06 MaxDP=1.19D-03 DE=-2.59D-07 OVMax= 6.53D-04

 Cycle  26  Pass 1  IDiag  1:
 E= -86.4413834813704     Delta-E=       -0.000000262535 Rises=F Damp=F
 DIIS: error= 1.40D-05 at cycle  26 NSaved=  20.
 NSaved=20 IEnMin=20 EnMin= -86.4413834813704     IErMin=20 ErrMin= 1.40D-05
 ErrMax= 1.40D-05  0.00D+00 EMaxC= 1.00D-01 BMatC= 1.44D-08 BMatP= 1.11D-07
 IDIUse=1 WtCom= 1.00D+00 WtEn= 0.00D+00
 Coeff-Com: -0.325D-03 0.233D-02-0.123D-02-0.524D-03-0.661D-02-0.411D-02
 Coeff-Com:  0.295D-02 0.823D-03 0.704D-02 0.693D-02 0.759D-02 0.373D-02
 Coeff-Com: -0.322D-01-0.600D-01-0.699D-01-0.572D-01 0.577D-01 0.232D+00
 Coeff-Com:  0.566D+00 0.346D+00
 Coeff:     -0.325D-03 0.233D-02-0.123D-02-0.524D-03-0.661D-02-0.411D-02
 Coeff:      0.295D-02 0.823D-03 0.704D-02 0.693D-02 0.759D-02 0.373D-02
 Coeff:     -0.322D-01-0.600D-01-0.699D-01-0.572D-01 0.577D-01 0.232D+00
 Coeff:      0.566D+00 0.346D+00
 Gap=     0.007 Goal=   None    Shift=    0.000
 RMSDP=5.16D-06 MaxDP=4.06D-04 DE=-2.63D-07 OVMax= 3.65D-04

 Cycle  27  Pass 1  IDiag  1:
 E= -86.4413835122111     Delta-E=       -0.000000030841 Rises=F Damp=F
 DIIS: error= 8.35D-06 at cycle  27 NSaved=  20.
 NSaved=20 IEnMin=20 EnMin= -86.4413835122111     IErMin=20 ErrMin= 8.35D-06
 ErrMax= 8.35D-06  0.00D+00 EMaxC= 1.00D-01 BMatC= 5.18D-09 BMatP= 1.44D-08
 IDIUse=1 WtCom= 1.00D+00 WtEn= 0.00D+00
 Coeff-Com: -0.418D-03-0.274D-03 0.148D-03-0.282D-03 0.720D-03 0.696D-03
 Coeff-Com: -0.598D-03 0.728D-03-0.264D-03-0.255D-03 0.320D-02-0.562D-04
 Coeff-Com: -0.108D-01-0.213D-01-0.328D-01-0.860D-01-0.771D-02 0.109D+00
 Coeff-Com:  0.359D+00 0.688D+00
 Coeff:     -0.418D-03-0.274D-03 0.148D-03-0.282D-03 0.720D-03 0.696D-03
 Coeff:     -0.598D-03 0.728D-03-0.264D-03-0.255D-03 0.320D-02-0.562D-04
 Coeff:     -0.108D-01-0.213D-01-0.328D-01-0.860D-01-0.771D-02 0.109D+00
 Coeff:      0.359D+00 0.688D+00
 Gap=     0.007 Goal=   None    Shift=    0.000
 RMSDP=3.99D-06 MaxDP=2.89D-04 DE=-3.08D-08 OVMax= 1.56D-04

 Cycle  28  Pass 1  IDiag  1:
 E= -86.4413835286187     Delta-E=       -0.000000016408 Rises=F Damp=F
 DIIS: error= 1.97D-06 at cycle  28 NSaved=  20.
 NSaved=20 IEnMin=20 EnMin= -86.4413835286187     IErMin=20 ErrMin= 1.97D-06
 ErrMax= 1.97D-06  0.00D+00 EMaxC= 1.00D-01 BMatC= 3.21D-10 BMatP= 5.18D-09
 IDIUse=1 WtCom= 1.00D+00 WtEn= 0.00D+00
 Coeff-Com: -0.121D-03-0.110D-04 0.463D-03 0.658D-03-0.306D-04 0.456D-04
 Coeff-Com: -0.170D-02-0.638D-03-0.364D-03 0.129D-02 0.392D-02 0.242D-02
 Coeff-Com:  0.325D-03-0.183D-02-0.184D-01-0.196D-01-0.161D-01 0.465D-01
 Coeff-Com:  0.130D+00 0.873D+00
 Coeff:     -0.121D-03-0.110D-04 0.463D-03 0.658D-03-0.306D-04 0.456D-04
 Coeff:     -0.170D-02-0.638D-03-0.364D-03 0.129D-02 0.392D-02 0.242D-02
 Coeff:      0.325D-03-0.183D-02-0.184D-01-0.196D-01-0.161D-01 0.465D-01
 Coeff:      0.130D+00 0.873D+00
 Gap=     0.007 Goal=   None    Shift=    0.000
 RMSDP=1.40D-06 MaxDP=1.09D-04 DE=-1.64D-08 OVMax= 6.18D-05

 Cycle  29  Pass 1  IDiag  1:
 E= -86.4413835293767     Delta-E=       -0.000000000758 Rises=F Damp=F
 DIIS: error= 1.22D-06 at cycle  29 NSaved=  20.
 NSaved=20 IEnMin=20 EnMin= -86.4413835293767     IErMin=20 ErrMin= 1.22D-06
 ErrMax= 1.22D-06  0.00D+00 EMaxC= 1.00D-01 BMatC= 7.75D-11 BMatP= 3.21D-10
 IDIUse=1 WtCom= 1.00D+00 WtEn= 0.00D+00
 Coeff-Com: -0.264D-05 0.264D-03 0.195D-03-0.110D-03-0.232D-03-0.597D-03
 Coeff-Com: -0.312D-03-0.353D-04 0.659D-03 0.144D-02 0.115D-02 0.433D-03
 Coeff-Com:  0.102D-02 0.320D-03-0.396D-02-0.867D-02 0.594D-02 0.304D-01
 Coeff-Com:  0.368D+00 0.604D+00
 Coeff:     -0.264D-05 0.264D-03 0.195D-03-0.110D-03-0.232D-03-0.597D-03
 Coeff:     -0.312D-03-0.353D-04 0.659D-03 0.144D-02 0.115D-02 0.433D-03
 Coeff:      0.102D-02 0.320D-03-0.396D-02-0.867D-02 0.594D-02 0.304D-01
 Coeff:      0.368D+00 0.604D+00
 Gap=     0.007 Goal=   None    Shift=    0.000
 RMSDP=6.63D-07 MaxDP=5.47D-05 DE=-7.58D-10 OVMax= 3.72D-05

 Cycle  30  Pass 1  IDiag  1:
 E= -86.4413835295899     Delta-E=       -0.000000000213 Rises=F Damp=F
 DIIS: error= 3.73D-07 at cycle  30 NSaved=  20.
 NSaved=20 IEnMin=20 EnMin= -86.4413835295899     IErMin=20 ErrMin= 3.73D-07
 ErrMax= 3.73D-07  0.00D+00 EMaxC= 1.00D-01 BMatC= 1.30D-11 BMatP= 7.75D-11
 IDIUse=1 WtCom= 1.00D+00 WtEn= 0.00D+00
 Coeff-Com:  0.179D-03 0.793D-04-0.102D-03-0.156D-03-0.297D-03-0.148D-03
 Coeff-Com:  0.251D-05 0.312D-03 0.701D-03 0.679D-03 0.585D-03 0.111D-02
 Coeff-Com:  0.248D-02-0.427D-03-0.384D-02-0.141D-02 0.649D-02 0.155D+00
 Coeff-Com:  0.485D+00 0.354D+00
 Coeff:      0.179D-03 0.793D-04-0.102D-03-0.156D-03-0.297D-03-0.148D-03
 Coeff:      0.251D-05 0.312D-03 0.701D-03 0.679D-03 0.585D-03 0.111D-02
 Coeff:      0.248D-02-0.427D-03-0.384D-02-0.141D-02 0.649D-02 0.155D+00
 Coeff:      0.485D+00 0.354D+00
 Gap=     0.007 Goal=   None    Shift=    0.000
 RMSDP=1.33D-07 MaxDP=1.01D-05 DE=-2.13D-10 OVMax= 8.57D-06

 Cycle  31  Pass 1  IDiag  1:
 E= -86.4413835296246     Delta-E=       -0.000000000035 Rises=F Damp=F
 DIIS: error= 2.65D-07 at cycle  31 NSaved=  20.
 NSaved=20 IEnMin=20 EnMin= -86.4413835296246     IErMin=20 ErrMin= 2.65D-07
 ErrMax= 2.65D-07  0.00D+00 EMaxC= 1.00D-01 BMatC= 2.55D-12 BMatP= 1.30D-11
 IDIUse=1 WtCom= 1.00D+00 WtEn= 0.00D+00
 Coeff-Com: -0.237D-04-0.160D-04 0.169D-04-0.731D-05 0.161D-04 0.762D-04
 Coeff-Com:  0.954D-04 0.228D-03 0.292D-03 0.348D-03 0.301D-03-0.929D-04
 Coeff-Com: -0.555D-03-0.105D-02-0.225D-02-0.280D-02-0.508D-02 0.146D+00
 Coeff-Com:  0.251D+00 0.614D+00
 Coeff:     -0.237D-04-0.160D-04 0.169D-04-0.731D-05 0.161D-04 0.762D-04
 Coeff:      0.954D-04 0.228D-03 0.292D-03 0.348D-03 0.301D-03-0.929D-04
 Coeff:     -0.555D-03-0.105D-02-0.225D-02-0.280D-02-0.508D-02 0.146D+00
 Coeff:      0.251D+00 0.614D+00
 Gap=     0.007 Goal=   None    Shift=    0.000
 RMSDP=1.76D-07 MaxDP=1.15D-05 DE=-3.47D-11 OVMax= 6.07D-06

 Cycle  32  Pass 1  IDiag  1:
 E= -86.4413835296297     Delta-E=       -0.000000000005 Rises=F Damp=F
 DIIS: error= 1.25D-07 at cycle  32 NSaved=  20.
 NSaved=20 IEnMin=20 EnMin= -86.4413835296297     IErMin=20 ErrMin= 1.25D-07
 ErrMax= 1.25D-07  0.00D+00 EMaxC= 1.00D-01 BMatC= 6.99D-13 BMatP= 2.55D-12
 IDIUse=1 WtCom= 1.00D+00 WtEn= 0.00D+00
 Coeff-Com: -0.101D-04 0.262D-04-0.253D-04 0.121D-04 0.219D-04 0.455D-04
 Coeff-Com:  0.187D-03 0.309D-03 0.317D-03 0.121D-03-0.102D-02-0.939D-03
 Coeff-Com: -0.112D-02-0.139D-02-0.219D-02-0.214D-01 0.113D-01 0.124D+00
 Coeff-Com:  0.467D+00 0.425D+00
 Coeff:     -0.101D-04 0.262D-04-0.253D-04 0.121D-04 0.219D-04 0.455D-04
 Coeff:      0.187D-03 0.309D-03 0.317D-03 0.121D-03-0.102D-02-0.939D-03
 Coeff:     -0.112D-02-0.139D-02-0.219D-02-0.214D-01 0.113D-01 0.124D+00
 Coeff:      0.467D+00 0.425D+00
 Gap=     0.007 Goal=   None    Shift=    0.000
 RMSDP=3.18D-08 MaxDP=2.53D-06 DE=-5.10D-12 OVMax= 2.36D-06

 Cycle  33  Pass 1  IDiag  1:
 E= -86.4413835296287     Delta-E=        0.000000000001 Rises=F Damp=F
 DIIS: error= 1.41D-07 at cycle  33 NSaved=  20.
 NSaved=20 IEnMin=19 EnMin= -86.4413835296297     IErMin=19 ErrMin= 1.25D-07
 ErrMax= 1.41D-07  0.00D+00 EMaxC= 1.00D-01 BMatC= 9.91D-13 BMatP= 6.99D-13
 IDIUse=1 WtCom= 1.00D+00 WtEn= 0.00D+00
 Coeff-Com:  0.141D-06 0.501D-05 0.426D-05 0.306D-05 0.496D-05 0.474D-04
 Coeff-Com:  0.128D-03 0.158D-03 0.565D-05-0.631D-03-0.273D-03-0.383D-03
 Coeff-Com: -0.684D-03-0.157D-02-0.229D-01-0.388D-01 0.375D-01 0.216D+00
 Coeff-Com:  0.351D+00 0.460D+00
 Coeff:      0.141D-06 0.501D-05 0.426D-05 0.306D-05 0.496D-05 0.474D-04
 Coeff:      0.128D-03 0.158D-03 0.565D-05-0.631D-03-0.273D-03-0.383D-03
 Coeff:     -0.684D-03-0.157D-02-0.229D-01-0.388D-01 0.375D-01 0.216D+00
 Coeff:      0.351D+00 0.460D+00
 Gap=     0.007 Goal=   None    Shift=    0.000
 RMSDP=6.81D-08 MaxDP=5.14D-06 DE= 9.66D-13 OVMax= 3.13D-06

 Cycle  34  Pass 1  IDiag  1:
 E= -86.4413835296317     Delta-E=       -0.000000000003 Rises=F Damp=F
 DIIS: error= 1.33D-08 at cycle  34 NSaved=  20.
 NSaved=20 IEnMin=20 EnMin= -86.4413835296317     IErMin=20 ErrMin= 1.33D-08
 ErrMax= 1.33D-08  0.00D+00 EMaxC= 1.00D-01 BMatC= 1.37D-14 BMatP= 6.99D-13
 IDIUse=1 WtCom= 1.00D+00 WtEn= 0.00D+00
 Coeff-Com:  0.104D-04-0.110D-05-0.128D-05-0.229D-04-0.102D-05 0.583D-04
 Coeff-Com:  0.786D-04 0.263D-04-0.226D-03-0.755D-04-0.403D-03-0.527D-03
 Coeff-Com: -0.696D-03-0.878D-02-0.268D-01 0.106D-02 0.423D-01 0.139D+00
 Coeff-Com:  0.241D+00 0.614D+00
 Coeff:      0.104D-04-0.110D-05-0.128D-05-0.229D-04-0.102D-05 0.583D-04
 Coeff:      0.786D-04 0.263D-04-0.226D-03-0.755D-04-0.403D-03-0.527D-03
 Coeff:     -0.696D-03-0.878D-02-0.268D-01 0.106D-02 0.423D-01 0.139D+00
 Coeff:      0.241D+00 0.614D+00
 Gap=     0.007 Goal=   None    Shift=    0.000
 RMSDP=8.26D-09 MaxDP=5.43D-07 DE=-3.00D-12 OVMax= 3.11D-07

 SCF Done:  E(ROHF) =  -86.4413835296     A.U. after   34 cycles
            NFock= 34  Conv=0.83D-08     -V/T= 2.8428
 <Sx>= 0.0000 <Sy>= 0.0000 <Sz>= 2.5000 <S**2>= 8.7500 S= 2.5000
 <L.S>=  0.00000000000    
 KE= 4.690868977165D+01 PE=-2.119802042360D+02 EE= 7.122164998188D+01
 Annihilation of the first spin contaminant:
 S**2 before annihilation     8.7500,   after     8.7500
 Leave Link  502 at Mon Feb 12 15:31:01 2018, MaxMem=  8589934592 cpu:             437.1 elap:              16.7
 (Enter /home1/apps/gaussian/16rA.03/g16/l801.exe)
 Windowed orbitals will be sorted by symmetry type.
 GenMOA:  NOpAll=  4 NOp2=4 NOpUse=  4 JSym2X=1
 FoFJK:  IHMeth= 1 ICntrl=       0 DoSepK=F KAlg= 0 I1Cent=           0 FoldK=F
 IRaf=         0 NMat=       1 IRICut=       1 DoRegI=T DoRafI=F ISym2E= 1 IDoP0=0 IntGTp=1.
 FoFCou: FMM=F IPFlag=           8 FMFlag=      100000 FMFlg1=           0
         NFxFlg=           0 DoJE=F BraDBF=F KetDBF=F FulRan=T
         wScrn=  0.000000 ICntrl=         0 IOpCl=  1 I1Cent=           0 NGrid=           0
         NMat0=    1 NMatS0=      1 NMatT0=    0 NMatD0=    1 NMtDS0=    0 NMtDT0=    0
 Petite list used in FoFCou.
 <Sx>= 0.0000 <Sy>= 0.0000 <Sz>= 2.5000 <S**2>= 8.7500 S= 2.5000
 Range of M.O.s used for correlation:     1   206
 NBasis=   215 NAE=    10 NBE=     5 NFC=     0 NFV=     0
 NROrb=    206 NOA=    10 NOB=     5 NVA=   196 NVB=   201

 **** Warning!!: The largest alpha MO coefficient is  0.28731939D+03


 **** Warning!!: The largest beta MO coefficient is  0.28710707D+03

 Singles contribution to E2=   -0.4792319964D-02
 Leave Link  801 at Mon Feb 12 15:31:04 2018, MaxMem=  8589934592 cpu:              95.5 elap:               3.0
 (Enter /home1/apps/gaussian/16rA.03/g16/l804.exe)
 Open-shell transformation, MDV=  8589934592 ITran=4 ISComp=2.
 Unit  1 TFree=       1400948 TCopy=       1069682.
 Semi-Direct transformation.
 ModeAB=           2 MOrb=            10 LenV=    8588503167
 LASXX=     10847743 LTotXX=    10847743 LenRXX=    10847743
 LTotAB=    11067855 MaxLAS=    68826660 LenRXY=    68826660
 NonZer=    70289260 LenScr=   106198016 LnRSAI=           0
 LnScr1=           0 LExtra=     4209697 Total=    190082116
 MaxDsk= 67108864000 SrtSym=           F ITran=            4
 DoSDTr:  NPSUse= 32
 JobTyp=1 Pass  1:  I=   1 to  10.
 (rs|ai) integrals will be sorted in core.
 Complete sort for first half transformation.
 First half transformation complete.
 Begin second half transformation for I=  10.
 Begin second half transformation for I=  10.
 Complete sort for second half transformation.
 Second half transformation complete.
 ModeAB=           2 MOrb=             5 LenV=    8588503167
 LASXX=      5573031 LTotXX=     5573031 LenRXX=    34413330
 LTotAB=     5140906 MaxLAS=    34413330 LenRXY=     5140906
 NonZer=    35144630 LenScr=    53486592 LnRSAI=           0
 LnScr1=           0 LExtra=    83884100 Total=    176924928
 MaxDsk= 67108864000 SrtSym=           F ITran=            4
 DoSDTr:  NPSUse= 32
 JobTyp=2 Pass  1:  I=   1 to   5.
 (rs|ai) integrals will be sorted in core.
 Complete sort for first half transformation.
 First half transformation complete.
 Complete sort for second half transformation.
 Second half transformation complete.
 Spin components of T(2) and E(2):
     alpha-alpha T2 =       0.3622952580D-01 E2=     -0.1593047268D+00
     alpha-beta  T2 =       0.6545968795D-01 E2=     -0.3952780765D+00
     beta-beta   T2 =       0.7402462414D-02 E2=     -0.4486433336D-01
 ANorm=    0.1055222553D+01
 E2 =    -0.6042394566D+00 EUMP2 =    -0.87045622986233D+02
 (S**2,0)=  0.87500D+01           (S**2,1)=  0.87500D+01
 E(PUHF)=      -0.86441383530D+02        E(PMP2)=      -0.87045622986D+02
 Leave Link  804 at Mon Feb 12 15:32:28 2018, MaxMem=  8589934592 cpu:            2670.2 elap:              83.5
 (Enter /home1/apps/gaussian/16rA.03/g16/l913.exe)
 CIDS:  MDV=  8589934592.
 IFCWin=0 IBDFC=1 NFBD=     0     0 NFCmp=     0     0 NFFFC=     0     0
 Using original routines for 1st iteration.
 Using DD4UQ or CC4UQ for 2nd and later iterations.
 Keep R2 and R3 ints in memory in symmetry-blocked form, NReq=338807128.
 FoFCou: FMM=F IPFlag=           8 FMFlag=           0 FMFlg1=           0
         NFxFlg=           0 DoJE=F BraDBF=F KetDBF=F FulRan=T
         wScrn=  0.000000 ICntrl=       600 IOpCl=  0 I1Cent=           0 NGrid=           0
         NMat0=    1 NMatS0=  23220 NMatT0=    0 NMatD0=    1 NMtDS0=    0 NMtDT0=    0
 Petite list used in FoFCou.
 CIDS: In Core Option IDoMem=           1.
 CCSD(T)
 =======
 Iterations= 150 Convergence= 0.100D-06
 Produce multiple copies of IABC intergrals
 Iteration Nr.   1
 **********************
 DD1Dir will call FoFMem   1 times, MxPair=       156
 NAB=    50 NAA=    45 NBB=    10.
 DD1Dir will call FoFMem   1 times, MxPair=       156
 NAB=    50 NAA=    45 NBB=    10.
 MP4(R+Q)= -0.84928200D-02
 Maximum subspace dimension=  5
 A-vector RMS=  4.4564879D-04 Max=  4.1414648D-03 conv= 1.00D-05.
 RLE energy=       -0.5947213620
 E3=        0.17815183D-01        EROMP3=      -0.87027807803D+02
 E4(SDQ)=  -0.95838934D-02        ROMP4(SDQ)=  -0.87037391697D+02
 VARIATIONAL ENERGIES WITH THE FIRST-ORDER WAVEFUNCTION:
 DE(Corr)= -0.59456504     E(Corr)=     -87.035948569    
 NORM(A)=   0.10517585D+01
 Iteration Nr.   2
 **********************
 DD1Dir will call FoFMem   1 times, MxPair=       156
 NAB=    50 NAA=    45 NBB=    10.
 A-vector RMS=  2.5067748D-03 Max=  2.1070092D-02 conv= 1.00D-05.
 RLE energy=       -0.5897872448
 DE(Corr)= -0.57681038     E(CORR)=     -87.018193906     Delta= 1.78D-02
 NORM(A)=   0.10506897D+01
 Iteration Nr.   3
 **********************
 DD1Dir will call FoFMem   1 times, MxPair=       156
 NAB=    50 NAA=    45 NBB=    10.
 A-vector RMS=  1.8673977D-03 Max=  1.5072784D-02 conv= 1.00D-05.
 RLE energy=       -0.5928369122
 DE(Corr)= -0.58130293     E(CORR)=     -87.022686457     Delta=-4.49D-03
 NORM(A)=   0.10534994D+01
 Iteration Nr.   4
 **********************
 DD1Dir will call FoFMem   1 times, MxPair=       156
 NAB=    50 NAA=    45 NBB=    10.
 A-vector RMS=  1.2996120D-03 Max=  1.1528725D-02 conv= 1.00D-05.
 RLE energy=       -0.5938623613
 DE(Corr)= -0.58616576     E(CORR)=     -87.027549292     Delta=-4.86D-03
 NORM(A)=   0.10659144D+01
 Iteration Nr.   5
 **********************
 DD1Dir will call FoFMem   1 times, MxPair=       156
 NAB=    50 NAA=    45 NBB=    10.
 A-vector RMS=  6.6874053D-04 Max=  6.3252301D-03 conv= 1.00D-05.
 RLE energy=       -0.5943841931
 DE(Corr)= -0.59907319     E(CORR)=     -87.040456721     Delta=-1.29D-02
 NORM(A)=   0.10636533D+01
 Iteration Nr.   6
 **********************
 DD1Dir will call FoFMem   1 times, MxPair=       156
 NAB=    50 NAA=    45 NBB=    10.
 A-vector RMS=  1.6312327D-04 Max=  1.2851176D-03 conv= 1.00D-05.
 RLE energy=       -0.5943118534
 DE(Corr)= -0.59530496     E(CORR)=     -87.036688493     Delta= 3.77D-03
 NORM(A)=   0.10628558D+01
 Iteration Nr.   7
 **********************
 DD1Dir will call FoFMem   1 times, MxPair=       156
 NAB=    50 NAA=    45 NBB=    10.
 A-vector RMS=  8.4035768D-05 Max=  8.9710896D-04 conv= 1.00D-05.
 RLE energy=       -0.5942831172
 DE(Corr)= -0.59428869     E(CORR)=     -87.035672223     Delta= 1.02D-03
 NORM(A)=   0.10630170D+01
 Iteration Nr.   8
 **********************
 DD1Dir will call FoFMem   1 times, MxPair=       156
 NAB=    50 NAA=    45 NBB=    10.
 A-vector RMS=  4.4322638D-05 Max=  5.5032397D-04 conv= 1.00D-05.
 RLE energy=       -0.5943213118
 DE(Corr)= -0.59434042     E(CORR)=     -87.035723950     Delta=-5.17D-05
 NORM(A)=   0.10630714D+01
 Iteration Nr.   9
 **********************
 DD1Dir will call FoFMem   1 times, MxPair=       156
 NAB=    50 NAA=    45 NBB=    10.
 A-vector RMS=  2.0766875D-05 Max=  2.0152970D-04 conv= 1.00D-05.
 RLE energy=       -0.5943383259
 DE(Corr)= -0.59431247     E(CORR)=     -87.035696003     Delta= 2.79D-05
 NORM(A)=   0.10631206D+01
 Iteration Nr.  10
 **********************
 DD1Dir will call FoFMem   1 times, MxPair=       156
 NAB=    50 NAA=    45 NBB=    10.
 A-vector RMS=  7.5327804D-06 Max=  7.4296580D-05 conv= 1.00D-05.
 RLE energy=       -0.5943369966
 DE(Corr)= -0.59432936     E(CORR)=     -87.035712892     Delta=-1.69D-05
 NORM(A)=   0.10631195D+01
 Iteration Nr.  11
 **********************
 DD1Dir will call FoFMem   1 times, MxPair=       156
 NAB=    50 NAA=    45 NBB=    10.
 A-vector RMS=  4.6192175D-06 Max=  4.9191353D-05 conv= 1.00D-05.
 RLE energy=       -0.5943304403
 DE(Corr)= -0.59432943     E(CORR)=     -87.035712964     Delta=-7.23D-08
 NORM(A)=   0.10631033D+01
 Iteration Nr.  12
 **********************
 DD1Dir will call FoFMem   1 times, MxPair=       156
 NAB=    50 NAA=    45 NBB=    10.
 A-vector RMS=  1.6920687D-06 Max=  2.5388065D-05 conv= 1.00D-05.
 RLE energy=       -0.5943277741
 DE(Corr)= -0.59432836     E(CORR)=     -87.035711894     Delta= 1.07D-06
 NORM(A)=   0.10630977D+01
 Iteration Nr.  13
 **********************
 DD1Dir will call FoFMem   1 times, MxPair=       156
 NAB=    50 NAA=    45 NBB=    10.
 A-vector RMS=  1.1116422D-06 Max=  1.7086739D-05 conv= 1.00D-05.
 RLE energy=       -0.5943255510
 DE(Corr)= -0.59432667     E(CORR)=     -87.035710197     Delta= 1.70D-06
 NORM(A)=   0.10630940D+01
 Iteration Nr.  14
 **********************
 DD1Dir will call FoFMem   1 times, MxPair=       156
 NAB=    50 NAA=    45 NBB=    10.
 A-vector RMS=  5.7296472D-07 Max=  7.7436814D-06 conv= 1.00D-05.
 RLE energy=       -0.5943255064
 DE(Corr)= -0.59432597     E(CORR)=     -87.035709503     Delta= 6.94D-07
 NORM(A)=   0.10630944D+01
 Iteration Nr.  15
 **********************
 DD1Dir will call FoFMem   1 times, MxPair=       156
 NAB=    50 NAA=    45 NBB=    10.
 A-vector RMS=  3.6115354D-07 Max=  4.3966391D-06 conv= 1.00D-05.
 RLE energy=       -0.5943259743
 DE(Corr)= -0.59432595     E(CORR)=     -87.035709481     Delta= 2.19D-08
 NORM(A)=   0.10630954D+01
 CI/CC converged in   15 iterations to DelEn= 2.19D-08 Conv= 1.00D-07 ErrA1= 3.61D-07 Conv= 1.00D-05
 Wavefunction amplitudes converged. E(Corr)=     -87.035709481    
 Largest amplitude= 4.80D-02
 Time for triples=     7429.25 seconds.
 T4(CCSD)= -0.22164874D-01
 T5(CCSD)=  0.94991667D-03
 CCSD(T)= -0.87056924439D+02
 Discarding MO integrals.
 Leave Link  913 at Mon Feb 12 15:38:04 2018, MaxMem=  8589934592 cpu:           10735.8 elap:             335.9
 (Enter /home1/apps/gaussian/16rA.03/g16/l601.exe)
 Copying SCF densities to generalized density rwf, IOpCl= 0 IROHF=1.

 **********************************************************************

            Population analysis using the SCF density.

 **********************************************************************

 Orbital symmetries:
       Occupied  (SG) (SG) (PI) (PI) (SG) (SG) (PI) (PI) (DLTA)
                 (DLTA)
       Virtual   (SG) (PI) (PI) (SG) (SG) (PI) (PI) (DLTA) (DLTA)
                 (SG) (PI) (PI) (SG) (SG) (PI) (PI) (SG) (SG) (PI)
                 (PI) (DLTA) (DLTA) (PI) (PI) (SG) (SG) (DLTA)
                 (DLTA) (PHI) (PHI) (PI) (PI) (SG) (PI) (PI) (SG)
                 (SG) (PI) (PI) (DLTA) (DLTA) (SG) (DLTA) (DLTA)
                 (PI) (PI) (SG) (SG) (PI) (PI) (PHI) (PHI) (DLTA)
                 (DLTA) (SG) (PI) (PI) (PHI) (PHI) (?A) (?A) (SG)
                 (PI) (PI) (SG) (DLTA) (DLTA) (PI) (PI) (SG) (DLTA)
                 (DLTA) (PI) (PI) (SG) (SG) (DLTA) (DLTA) (PI)
                 (PI) (SG) (PI) (PI) (DLTA) (DLTA) (PHI) (PHI)
                 (SG) (PI) (PI) (SG) (PI) (PI) (SG) (PHI) (PHI)
                 (?A) (?A) (DLTA) (DLTA) (SG) (DLTA) (DLTA) (PI)
                 (PI) (PI) (PI) (SG) (SG) (SG) (DLTA) (DLTA) (PHI)
                 (PHI) (PI) (PI) (SG) (PI) (PI) (SG) (DLTA) (DLTA)
                 (PI) (PI) (SG) (SG) (PHI) (PHI) (?A) (?A) (DLTA)
                 (DLTA) (PI) (PI) (SG) (PI) (PI) (SG) (DLTA) (DLTA)
                 (PI) (PI) (SG) (SG) (PI) (PI) (SG) (SG) (SG) (DLTA)
                 (DLTA) (PI) (PI) (SG) (PI) (PI) (SG) (SG) (PI)
                 (PI) (SG) (SG) (DLTA) (DLTA) (PI) (PI) (SG) (PI)
                 (PI) (SG) (SG) (PI) (PI) (SG) (SG) (PI) (PI) (SG)
                 (SG) (SG) (PI) (PI) (SG) (SG) (PI) (PI) (SG) (SG)
                 (PI) (PI) (SG) (SG) (SG) (SG) (SG) (SG)
 The electronic state is 6-SG.
 Alpha  occ. eigenvalues --   -3.60696  -2.37736  -2.35163  -2.35163  -0.50109
 Alpha  occ. eigenvalues --   -0.42440  -0.42440  -0.39205  -0.39205  -0.24650
 Alpha virt. eigenvalues --    0.01683   0.01895   0.01895   0.02420   0.06400
 Alpha virt. eigenvalues --    0.06541   0.06541   0.07911   0.07949   0.07949
 Alpha virt. eigenvalues --    0.08070   0.08070   0.09784   0.20622   0.22722
 Alpha virt. eigenvalues --    0.22722   0.25774   0.26107   0.27318   0.27318
 Alpha virt. eigenvalues --    0.28807   0.28807   0.37009   0.37009   0.37099
 Alpha virt. eigenvalues --    0.50777   0.64290   0.64290   0.65121   0.65121
 Alpha virt. eigenvalues --    0.72165   0.72165   0.73594   0.78550   0.78550
 Alpha virt. eigenvalues --    0.78669   0.87432   0.89322   0.89322   0.94636
 Alpha virt. eigenvalues --    0.94636   1.01255   1.15441   1.15441   1.16910
 Alpha virt. eigenvalues --    1.16910   1.17948   1.63950   1.66327   1.66327
 Alpha virt. eigenvalues --    1.98994   1.98994   1.99442   1.99442   2.10513
 Alpha virt. eigenvalues --    2.26279   2.26279   2.34823   2.34823   2.34847
 Alpha virt. eigenvalues --    2.34847   2.36246   2.42860   2.42860   2.47287
 Alpha virt. eigenvalues --    2.63082   2.63082   2.74595   2.74595   2.80785
 Alpha virt. eigenvalues --    2.88765   2.88765   3.18840   3.18840   3.22438
 Alpha virt. eigenvalues --    3.83689   4.46797   4.46797   4.62246   4.62246
 Alpha virt. eigenvalues --    4.77266   5.37147   5.37147   5.43515   5.43515
 Alpha virt. eigenvalues --    5.43904   5.43904   5.53957   6.10633   6.10633
 Alpha virt. eigenvalues --    6.55722   6.66449   6.66449   6.78949   6.93955
 Alpha virt. eigenvalues --    6.93955   6.95031   6.95031   7.11073   7.11073
 Alpha virt. eigenvalues --    7.29170   7.56245   7.56245   7.67563   7.67563
 Alpha virt. eigenvalues --    7.83779   7.83779   8.00659   9.30107  12.06881
 Alpha virt. eigenvalues --   14.74752  14.74752  14.75728  14.75728  15.03048
 Alpha virt. eigenvalues --   15.03048  15.93971  15.98479  15.98479  16.16767
 Alpha virt. eigenvalues --   16.93940  16.93940  17.03854  17.03854  17.58235
 Alpha virt. eigenvalues --   18.80086  18.91334  18.91334  18.92914  18.92914
 Alpha virt. eigenvalues --   18.99825  18.99825  19.22050  19.22050  19.37186
 Alpha virt. eigenvalues --   33.20837  33.20837  33.39120  35.22998  35.22998
 Alpha virt. eigenvalues --   35.31187  35.31187  36.10670  39.94331  63.73497
 Alpha virt. eigenvalues --   63.73497  63.99282  65.21943  83.81846  87.13300
 Alpha virt. eigenvalues --   87.13300  87.19937  87.19937  87.80770 119.27420
 Alpha virt. eigenvalues --  119.27420 119.51912 154.64170 223.19538 223.19538
 Alpha virt. eigenvalues --  223.39699 270.27663 316.30516 316.30516 316.35065
 Alpha virt. eigenvalues --  316.35065 316.71009 429.76586 429.76586 429.96661
 Alpha virt. eigenvalues --  497.27555 871.10922 871.10922 871.29878 963.29325
 Alpha virt. eigenvalues -- 1901.288061901.288061901.461591965.715454234.63961
 Alpha virt. eigenvalues -- 4589.146714589.146714589.302279651.25803**********
 Alpha virt. eigenvalues -- **************************************************
 Alpha virt. eigenvalues -- **************************************************
 Alpha virt. eigenvalues -- **********
     Molecular Orbital Coefficients:
                           1         2         3         4         5
                           O         O         O         O         O
     Eigenvalues --    -3.60696  -2.37736  -2.35163  -2.35163  -0.50109
   1 1   Cr 1S         -0.00000   0.00000   0.00000   0.00000  -0.00000
   2        2S          0.00000  -0.00000   0.00000   0.00000   0.00000
   3        3S         -0.00000   0.00000   0.00000   0.00000  -0.00000
   4        4S          0.00000  -0.00000   0.00000   0.00000   0.00000
   5        5S         -0.00000   0.00000   0.00000   0.00000  -0.00000
   6        6S          0.00002  -0.00000   0.00000   0.00000   0.00000
   7        7S         -0.00007   0.00000   0.00000   0.00000  -0.00002
   8        8S          0.00023  -0.00002   0.00000   0.00000   0.00005
   9        9S         -0.00069   0.00005   0.00000   0.00000  -0.00015
  10       10S          0.00198  -0.00014   0.00000   0.00000   0.00044
  11       11S         -0.00568   0.00038   0.00000   0.00000  -0.00127
  12       12S          0.01785  -0.00113   0.00000   0.00000   0.00400
  13       13S         -0.08088   0.00480   0.00000   0.00000  -0.01858
  14       14S          0.07349  -0.00667   0.00000   0.00000   0.02019
  15       15S          0.89385  -0.00689   0.00000   0.00000   0.18632
  16       16S         -0.22110   0.02347   0.00000   0.00000  -0.06486
  17       17S         -0.60209   0.00429   0.00000   0.00000  -0.16002
  18       18S         -0.27284   0.04562   0.00000   0.00000  -0.19028
  19       19S         -0.00706  -0.05490   0.00000   0.00000  -0.00533
  20       20S          0.00145  -0.00413   0.00000   0.00000   0.13511
  21       21S         -0.50481  -0.01638   0.00000   0.00000  -0.09627
  22       22S         -0.14241   0.01549   0.00000   0.00000  -0.04789
  23       23S          0.00005  -0.00131   0.00000   0.00000   0.00523
  24       24PX         0.00000   0.00000   0.00000   0.00000   0.00000
  25       24PY         0.00000   0.00000   0.00000   0.00000   0.00000
  26       24PZ         0.00000   0.00000   0.00000   0.00000   0.00000
  27       25PX         0.00000   0.00000  -0.00000   0.00000   0.00000
  28       25PY         0.00000   0.00000   0.00000  -0.00000   0.00000
  29       25PZ        -0.00000  -0.00000   0.00000   0.00000  -0.00000
  30       26PX         0.00000   0.00000   0.00001   0.00000   0.00000
  31       26PY         0.00000   0.00000   0.00000   0.00001   0.00000
  32       26PZ         0.00000   0.00001   0.00000   0.00000   0.00000
  33       27PX         0.00000   0.00000  -0.00006   0.00000   0.00000
  34       27PY         0.00000   0.00000   0.00000  -0.00006   0.00000
  35       27PZ        -0.00000  -0.00006   0.00000   0.00000  -0.00002
  36       28PX         0.00000   0.00000   0.00024   0.00000   0.00000
  37       28PY         0.00000   0.00000   0.00000   0.00024   0.00000
  38       28PZ         0.00001   0.00024   0.00000   0.00000   0.00006
  39       29PX         0.00000   0.00000  -0.00086   0.00000   0.00000
  40       29PY         0.00000   0.00000   0.00000  -0.00086   0.00000
  41       29PZ        -0.00004  -0.00085   0.00000   0.00000  -0.00021
  42       30PX         0.00000   0.00000   0.00291   0.00000   0.00000
  43       30PY         0.00000   0.00000   0.00000   0.00291   0.00000
  44       30PZ         0.00014   0.00286   0.00000   0.00000   0.00072
  45       31PX         0.00000   0.00000   0.00564   0.00000   0.00000
  46       31PY         0.00000   0.00000   0.00000   0.00564   0.00000
  47       31PZ         0.00006   0.00540   0.00000   0.00000   0.00121
  48       32PX         0.00000   0.00000  -0.11332   0.00000   0.00000
  49       32PY         0.00000   0.00000   0.00000  -0.11332   0.00000
  50       32PZ        -0.00308  -0.10953   0.00000   0.00000  -0.02753
  51       33PX         0.00000   0.00000  -0.02460   0.00000   0.00000
  52       33PY         0.00000   0.00000   0.00000  -0.02460   0.00000
  53       33PZ         0.01857  -0.00357   0.00000   0.00000  -0.01870
  54       34PX         0.00000   0.00000   0.34271   0.00000   0.00000
  55       34PY         0.00000   0.00000   0.00000   0.34271   0.00000
  56       34PZ         0.00894   0.32936   0.00000   0.00000   0.09028
  57       35PX         0.00000   0.00000   0.21931   0.00000   0.00000
  58       35PY         0.00000   0.00000   0.00000   0.21931   0.00000
  59       35PZ         0.00290   0.21968   0.00000   0.00000   0.05064
  60       36PX         0.00000   0.00000   0.27758   0.00000   0.00000
  61       36PY         0.00000   0.00000   0.00000   0.27758   0.00000
  62       36PZ        -0.00268   0.25682   0.00000   0.00000   0.09900
  63       37PX         0.00000   0.00000   0.03805   0.00000   0.00000
  64       37PY         0.00000   0.00000   0.00000   0.03805   0.00000
  65       37PZ        -0.00425   0.04152   0.00000   0.00000   0.02881
  66       38PX         0.00000   0.00000  -0.00510   0.00000   0.00000
  67       38PY         0.00000   0.00000   0.00000  -0.00510   0.00000
  68       38PZ         0.00253   0.01954   0.00000   0.00000   0.04455
  69       39PX         0.00000   0.00000   0.00200   0.00000   0.00000
  70       39PY         0.00000   0.00000   0.00000   0.00200   0.00000
  71       39PZ        -0.00050   0.00058   0.00000   0.00000  -0.01785
  72       40PX         0.00000   0.00000   0.06284   0.00000   0.00000
  73       40PY         0.00000   0.00000   0.00000   0.06284   0.00000
  74       40PZ        -0.01667   0.04133   0.00000   0.00000   0.02863
  75       41PX         0.00000   0.00000   0.24163   0.00000   0.00000
  76       41PY         0.00000   0.00000   0.00000   0.24163   0.00000
  77       41PZ         0.01680   0.23321   0.00000   0.00000   0.06499
  78       42PX         0.00000   0.00000  -0.00059   0.00000   0.00000
  79       42PY         0.00000   0.00000   0.00000  -0.00059   0.00000
  80       42PZ         0.00004   0.00062   0.00000   0.00000  -0.00217
  81       43D 0        0.00000   0.00000   0.00000   0.00000   0.00002
  82       43D+1        0.00000   0.00000   0.00000   0.00000   0.00000
  83       43D-1        0.00000   0.00000   0.00000   0.00000   0.00000
  84       43D+2       -0.00000  -0.00000   0.00000   0.00000  -0.00000
  85       43D-2        0.00000   0.00000   0.00000   0.00000   0.00000
  86       44D 0       -0.00010  -0.00025   0.00000   0.00000   0.00903
  87       44D+1        0.00000   0.00000  -0.00033   0.00000   0.00000
  88       44D-1        0.00000   0.00000   0.00000  -0.00033   0.00000
  89       44D+2       -0.00000  -0.00000   0.00000   0.00000  -0.00000
  90       44D-2        0.00000   0.00000   0.00000   0.00000   0.00000
  91       45D 0       -0.00007  -0.00078   0.00000   0.00000   0.04436
  92       45D+1        0.00000   0.00000  -0.00136   0.00000   0.00000
  93       45D-1        0.00000   0.00000   0.00000  -0.00136   0.00000
  94       45D+2       -0.00000  -0.00000   0.00000   0.00000  -0.00000
  95       45D-2        0.00000   0.00000   0.00000   0.00000   0.00000
  96       46D 0       -0.00592  -0.00682   0.00000   0.00000   0.10658
  97       46D+1        0.00000   0.00000  -0.00691   0.00000   0.00000
  98       46D-1        0.00000   0.00000   0.00000  -0.00691   0.00000
  99       46D+2       -0.00000  -0.00000   0.00000   0.00000  -0.00000
 100       46D-2        0.00000   0.00000   0.00000   0.00000   0.00000
 101       47D 0        0.02954  -0.00686   0.00000   0.00000   0.09558
 102       47D+1        0.00000   0.00000  -0.00523   0.00000   0.00000
 103       47D-1        0.00000   0.00000   0.00000  -0.00523   0.00000
 104       47D+2       -0.00000  -0.00000   0.00000   0.00000  -0.00000
 105       47D-2        0.00000   0.00000   0.00000   0.00000   0.00000
 106       48D 0        0.00153   0.00104   0.00000   0.00000   0.18306
 107       48D+1        0.00000   0.00000  -0.00028   0.00000   0.00000
 108       48D-1        0.00000   0.00000   0.00000  -0.00028   0.00000
 109       48D+2       -0.00000   0.00000   0.00000   0.00000  -0.00000
 110       48D-2        0.00000   0.00000   0.00000   0.00000   0.00000
 111       49D 0        0.00180  -0.00370   0.00000   0.00000   0.10515
 112       49D+1        0.00000   0.00000   0.00292   0.00000   0.00000
 113       49D-1        0.00000   0.00000   0.00000   0.00292   0.00000
 114       49D+2       -0.00000   0.00000   0.00000   0.00000  -0.00000
 115       49D-2        0.00000   0.00000   0.00000   0.00000   0.00000
 116       50D 0       -0.00036  -0.00407   0.00000   0.00000   0.00626
 117       50D+1        0.00000   0.00000   0.00045   0.00000   0.00000
 118       50D-1        0.00000   0.00000   0.00000   0.00045   0.00000
 119       50D+2       -0.00000   0.00000   0.00000   0.00000  -0.00000
 120       50D-2        0.00000   0.00000   0.00000   0.00000   0.00000
 121       51D 0        0.00594   0.00480   0.00000   0.00000   0.00269
 122       51D+1        0.00000   0.00000   0.00330   0.00000   0.00000
 123       51D-1        0.00000   0.00000   0.00000   0.00330   0.00000
 124       51D+2       -0.00000   0.00000   0.00000   0.00000   0.00000
 125       51D-2        0.00000   0.00000   0.00000   0.00000   0.00000
 126       52D 0       -0.03410  -0.00132   0.00000   0.00000   0.07435
 127       52D+1        0.00000   0.00000  -0.00282   0.00000   0.00000
 128       52D-1        0.00000   0.00000   0.00000  -0.00282   0.00000
 129       52D+2       -0.00000  -0.00000   0.00000   0.00000  -0.00000
 130       52D-2        0.00000   0.00000   0.00000   0.00000   0.00000
 131       53D 0        0.00009   0.00026   0.00000   0.00000   0.00246
 132       53D+1        0.00000   0.00000   0.00006   0.00000   0.00000
 133       53D-1        0.00000   0.00000   0.00000   0.00006   0.00000
 134       53D+2        0.00000  -0.00000   0.00000   0.00000   0.00000
 135       53D-2        0.00000   0.00000   0.00000   0.00000   0.00000
 136       54F 0       -0.00016   0.00054   0.00000   0.00000  -0.00226
 137       54F+1        0.00000   0.00000   0.00053   0.00000   0.00000
 138       54F-1        0.00000   0.00000   0.00000   0.00053   0.00000
 139       54F+2        0.00000   0.00000   0.00000   0.00000   0.00000
 140       54F-2        0.00000   0.00000   0.00000   0.00000   0.00000
 141       54F+3        0.00000   0.00000  -0.00000   0.00000   0.00000
 142       54F-3        0.00000   0.00000   0.00000   0.00000   0.00000
 143       55F 0        0.00061   0.00267   0.00000   0.00000  -0.00890
 144       55F+1        0.00000   0.00000   0.00206   0.00000   0.00000
 145       55F-1        0.00000   0.00000   0.00000   0.00206   0.00000
 146       55F+2        0.00000   0.00000   0.00000   0.00000   0.00000
 147       55F-2        0.00000   0.00000   0.00000   0.00000   0.00000
 148       55F+3        0.00000   0.00000  -0.00000   0.00000   0.00000
 149       55F-3        0.00000   0.00000   0.00000   0.00000   0.00000
 150       56F 0       -0.00108   0.00074   0.00000   0.00000  -0.01429
 151       56F+1        0.00000   0.00000  -0.00090   0.00000   0.00000
 152       56F-1        0.00000   0.00000   0.00000  -0.00090   0.00000
 153       56F+2       -0.00000   0.00000   0.00000   0.00000   0.00000
 154       56F-2        0.00000   0.00000   0.00000   0.00000   0.00000
 155       56F+3        0.00000   0.00000   0.00000   0.00000   0.00000
 156       56F-3        0.00000   0.00000   0.00000  -0.00000   0.00000
 157       57F 0       -0.00019   0.00060   0.00000   0.00000  -0.00125
 158       57F+1        0.00000   0.00000  -0.00083   0.00000   0.00000
 159       57F-1        0.00000   0.00000   0.00000  -0.00083   0.00000
[...]
 214       11D+2       -0.00000   0.00000   0.00000   0.00000
 215       11D-2        0.00000   0.00000   0.00000   0.00000   0.00000
     Gross orbital populations:
                         Total     Alpha     Beta      Spin
   1 1   Cr 1S          0.00000   0.00000   0.00000   0.00000
   2        2S         -0.00000  -0.00000  -0.00000  -0.00000
   3        3S          0.00000   0.00000   0.00000   0.00000
   4        4S         -0.00000  -0.00000  -0.00000  -0.00000
   5        5S          0.00000   0.00000   0.00000   0.00000
   6        6S         -0.00000  -0.00000  -0.00000  -0.00000
   7        7S          0.00000   0.00000   0.00000   0.00000
   8        8S         -0.00000  -0.00000  -0.00000  -0.00000
   9        9S          0.00000   0.00000   0.00000   0.00000
  10       10S         -0.00001  -0.00001  -0.00001  -0.00000
  11       11S          0.00007   0.00004   0.00004   0.00000
  12       12S         -0.00063  -0.00032  -0.00031  -0.00001
  13       13S          0.01023   0.00518   0.00504   0.00014
  14       14S         -0.02661  -0.01346  -0.01315  -0.00031
  15       15S         -0.73959  -0.37654  -0.36306  -0.01348
  16       16S          0.34294   0.17271   0.17023   0.00247
  17       17S          1.17161   0.58976   0.58186   0.00790
  18       18S          0.45477   0.21885   0.23592  -0.01707
  19       19S          0.35417   0.35381   0.00036   0.35345
  20       20S          0.43613   0.37284   0.06330   0.30954
  21       21S          0.46297   0.23669   0.22629   0.01040
  22       22S          0.27859   0.14038   0.13821   0.00216
  23       23S          0.01054   0.00888   0.00166   0.00723
  24       24PX         0.00000   0.00000   0.00000  -0.00000
  25       24PY         0.00000   0.00000   0.00000  -0.00000
  26       24PZ         0.00000   0.00000   0.00000   0.00000
  27       25PX        -0.00000  -0.00000  -0.00000   0.00000
  28       25PY        -0.00000  -0.00000  -0.00000   0.00000
  29       25PZ        -0.00000  -0.00000  -0.00000  -0.00000
  30       26PX         0.00000   0.00000   0.00000  -0.00000
  31       26PY         0.00000   0.00000   0.00000  -0.00000
  32       26PZ         0.00000   0.00000   0.00000   0.00000
  33       27PX        -0.00000  -0.00000  -0.00000   0.00000
  34       27PY        -0.00000  -0.00000  -0.00000   0.00000
  35       27PZ        -0.00000  -0.00000  -0.00000  -0.00000
  36       28PX         0.00000   0.00000   0.00000  -0.00000
  37       28PY         0.00000   0.00000   0.00000  -0.00000
  38       28PZ         0.00000   0.00000   0.00000   0.00000
  39       29PX        -0.00003  -0.00001  -0.00001   0.00000
  40       29PY        -0.00003  -0.00001  -0.00001   0.00000
  41       29PZ        -0.00003  -0.00001  -0.00001  -0.00000
  42       30PX         0.00027   0.00014   0.00014  -0.00000
  43       30PY         0.00027   0.00014   0.00014  -0.00000
  44       30PZ         0.00028   0.00014   0.00014   0.00000
  45       31PX         0.00148   0.00074   0.00074   0.00000
  46       31PY         0.00148   0.00074   0.00074   0.00000
  47       31PZ         0.00145   0.00073   0.00072   0.00000
  48       32PX        -0.06950  -0.03475  -0.03475  -0.00001
  49       32PY        -0.06950  -0.03475  -0.03475  -0.00001
  50       32PZ        -0.06952  -0.03484  -0.03468  -0.00015
  51       33PX        -0.02846  -0.01429  -0.01417  -0.00013
  52       33PY        -0.02846  -0.01429  -0.01417  -0.00013
  53       33PZ        -0.00762  -0.00371  -0.00391   0.00020
  54       34PX         0.58869   0.29437   0.29432   0.00005
  55       34PY         0.58869   0.29437   0.29432   0.00005
  56       34PZ         0.58512   0.29314   0.29198   0.00116
  57       35PX         0.43366   0.21680   0.21685  -0.00005
  58       35PY         0.43366   0.21680   0.21685  -0.00005
  59       35PZ         0.44217   0.22137   0.22080   0.00057
  60       36PX         0.48276   0.24144   0.24132   0.00012
  61       36PY         0.48276   0.24144   0.24132   0.00012
  62       36PZ         0.43651   0.21806   0.21845  -0.00040
  63       37PX         0.03949   0.01991   0.01958   0.00033
  64       37PY         0.03949   0.01991   0.01958   0.00033
  65       37PZ         0.03108   0.01716   0.01392   0.00324
  66       38PX        -0.00218  -0.00096  -0.00122   0.00026
  67       38PY        -0.00218  -0.00096  -0.00122   0.00026
  68       38PZ        -0.01110  -0.00287  -0.00823   0.00535
  69       39PX         0.00038   0.00020   0.00018   0.00002
  70       39PY         0.00038   0.00020   0.00018   0.00002
  71       39PZ         0.00657   0.00319   0.00338  -0.00019
  72       40PX         0.06977   0.03494   0.03483   0.00012
  73       40PY         0.06977   0.03494   0.03483   0.00012
  74       40PZ         0.05079   0.02535   0.02543  -0.00008
  75       41PX         0.47785   0.23895   0.23890   0.00005
  76       41PY         0.47785   0.23895   0.23890   0.00005
  77       41PZ         0.47239   0.23641   0.23598   0.00044
  78       42PX        -0.00004  -0.00002  -0.00002  -0.00000
  79       42PY        -0.00004  -0.00002  -0.00002  -0.00000
  80       42PZ         0.00022   0.00001   0.00020  -0.00019
  81       43D 0        0.00000   0.00000   0.00000   0.00000
  82       43D+1        0.00000   0.00000  -0.00000   0.00000
  83       43D-1        0.00000   0.00000  -0.00000   0.00000
  84       43D+2        0.00000   0.00000   0.00000   0.00000
  85       43D-2        0.00000   0.00000   0.00000   0.00000
  86       44D 0        0.00229   0.00157   0.00072   0.00085
  87       44D+1        0.00308   0.00308   0.00000   0.00308
  88       44D-1        0.00308   0.00308   0.00000   0.00308
  89       44D+2        0.00304   0.00304   0.00000   0.00304
  90       44D-2        0.00304   0.00304   0.00000   0.00304
  91       45D 0        0.02764   0.01894   0.00870   0.01023
  92       45D+1        0.03671   0.03670   0.00001   0.03669
  93       45D-1        0.03671   0.03670   0.00001   0.03669
  94       45D+2        0.03634   0.03634   0.00000   0.03634
  95       45D-2        0.03634   0.03634   0.00000   0.03634
  96       46D 0        0.11750   0.08039   0.03711   0.04328
  97       46D+1        0.15445   0.15438   0.00008   0.15430
  98       46D-1        0.15445   0.15438   0.00008   0.15430
  99       46D+2        0.14949   0.14949   0.00000   0.14949
 100       46D-2        0.14949   0.14949   0.00000   0.14949
 101       47D 0        0.14115   0.09311   0.04803   0.04508
 102       47D+1        0.16141   0.16134   0.00007   0.16128
 103       47D-1        0.16141   0.16134   0.00007   0.16128
 104       47D+2        0.15817   0.15817   0.00000   0.15817
 105       47D-2        0.15817   0.15817   0.00000   0.15817
 106       48D 0        0.33364   0.22006   0.11357   0.10649
 107       48D+1        0.31649   0.31648   0.00000   0.31648
 108       48D-1        0.31649   0.31648   0.00000   0.31648
 109       48D+2        0.32019   0.32019   0.00000   0.32019
 110       48D-2        0.32019   0.32019   0.00000   0.32019
 111       49D 0        0.18849   0.13077   0.05772   0.07305
 112       49D+1        0.14956   0.14957  -0.00001   0.14958
 113       49D-1        0.14956   0.14957  -0.00001   0.14958
 114       49D+2        0.16628   0.16628   0.00000   0.16628
 115       49D-2        0.16628   0.16628   0.00000   0.16628
 116       50D 0        0.01794   0.01616   0.00179   0.01437
 117       50D+1        0.01559   0.01559  -0.00000   0.01559
 118       50D-1        0.01559   0.01559  -0.00000   0.01559
 119       50D+2        0.02162   0.02162   0.00000   0.02162
 120       50D-2        0.02162   0.02162   0.00000   0.02162
 121       51D 0        0.00220   0.00132   0.00088   0.00045
 122       51D+1       -0.00089  -0.00085  -0.00004  -0.00082
 123       51D-1       -0.00089  -0.00085  -0.00004  -0.00082
 124       51D+2        0.00281   0.00281  -0.00000   0.00281
 125       51D-2        0.00281   0.00281  -0.00000   0.00281
 126       52D 0        0.12181   0.08408   0.03773   0.04635
 127       52D+1        0.14524   0.14521   0.00004   0.14517
 128       52D-1        0.14524   0.14521   0.00004   0.14517
 129       52D+2        0.14233   0.14233   0.00000   0.14233
 130       52D-2        0.14233   0.14233   0.00000   0.14233
 131       53D 0        0.00010  -0.00010   0.00020  -0.00030
 132       53D+1       -0.00027  -0.00027  -0.00000  -0.00027
 133       53D-1       -0.00027  -0.00027  -0.00000  -0.00027
 134       53D+2       -0.00033  -0.00033  -0.00000  -0.00033
 135       53D-2       -0.00033  -0.00033  -0.00000  -0.00033
 136       54F 0        0.00009   0.00005   0.00004   0.00001
 137       54F+1        0.00001   0.00000   0.00000   0.00000
 138       54F-1        0.00001   0.00000   0.00000   0.00000
 139       54F+2        0.00000   0.00000   0.00000   0.00000
 140       54F-2        0.00000   0.00000   0.00000   0.00000
 141       54F+3        0.00000   0.00000   0.00000  -0.00000
 142       54F-3        0.00000   0.00000   0.00000   0.00000
 143       55F 0        0.00149   0.00078   0.00071   0.00007
 144       55F+1        0.00006   0.00006   0.00001   0.00005
 145       55F-1        0.00006   0.00006   0.00001   0.00005
 146       55F+2        0.00000   0.00000   0.00000   0.00000
 147       55F-2        0.00000   0.00000   0.00000   0.00000
 148       55F+3        0.00000  -0.00000   0.00000  -0.00000
 149       55F-3        0.00000   0.00000   0.00000  -0.00000
 150       56F 0        0.00481   0.00247   0.00234   0.00014
 151       56F+1       -0.00001  -0.00001  -0.00000  -0.00001
 152       56F-1       -0.00001  -0.00001  -0.00000  -0.00001
 153       56F+2        0.00000   0.00000   0.00000   0.00000
 154       56F-2        0.00000   0.00000   0.00000   0.00000
 155       56F+3        0.00000   0.00000   0.00000   0.00000
 156       56F-3        0.00000   0.00000  -0.00000   0.00000
 157       57F 0        0.00032   0.00017   0.00016   0.00001
 158       57F+1       -0.00004  -0.00004  -0.00000  -0.00004
 159       57F-1       -0.00004  -0.00004  -0.00000  -0.00004
 160       57F+2        0.00003   0.00003   0.00000   0.00003
 161       57F-2        0.00003   0.00003   0.00000   0.00003
 162       57F+3        0.00000   0.00000   0.00000   0.00000
 163       57F-3        0.00000   0.00000   0.00000   0.00000
 164       58G 0        0.00001   0.00000   0.00000  -0.00000
 165       58G+1        0.00000   0.00000   0.00000   0.00000
 166       58G-1        0.00000   0.00000   0.00000   0.00000
 167       58G+2        0.00000   0.00000   0.00000   0.00000
 168       58G-2        0.00000   0.00000   0.00000   0.00000
 169       58G+3        0.00000   0.00000   0.00000   0.00000
 170       58G-3        0.00000   0.00000   0.00000   0.00000
 171       58G+4        0.00000   0.00000   0.00000   0.00000
 172       58G-4        0.00000   0.00000   0.00000   0.00000
 173       59G 0        0.00024   0.00013   0.00012   0.00001
 174       59G+1        0.00001   0.00001   0.00000   0.00001
 175       59G-1        0.00001   0.00001   0.00000   0.00001
 176       59G+2        0.00000   0.00000   0.00000   0.00000
 177       59G-2        0.00000   0.00000   0.00000   0.00000
 178       59G+3        0.00000   0.00000   0.00000   0.00000
 179       59G-3        0.00000   0.00000   0.00000   0.00000
 180       59G+4        0.00000   0.00000   0.00000   0.00000
 181       59G-4        0.00000   0.00000   0.00000   0.00000
 182       60G 0        0.00039   0.00020   0.00019   0.00001
 183       60G+1       -0.00003  -0.00002  -0.00000  -0.00002
 184       60G-1       -0.00003  -0.00002  -0.00000  -0.00002
 185       60G+2        0.00000   0.00000   0.00000   0.00000
 186       60G-2        0.00000   0.00000   0.00000   0.00000
 187       60G+3        0.00000   0.00000   0.00000   0.00000
 188       60G-3        0.00000   0.00000   0.00000   0.00000
 189       60G+4        0.00000   0.00000   0.00000   0.00000
 190       60G-4        0.00000   0.00000   0.00000   0.00000
 191 2   H  1S          0.00124   0.00064   0.00060   0.00004
 192        2S          0.04207   0.02175   0.02032   0.00143
 193        3S          0.29712   0.15250   0.14462   0.00787
 194        4S          0.57732   0.28842   0.28889  -0.00047
 195        5S          0.50199   0.26232   0.23966   0.02266
 196        6S         -0.07343  -0.05795  -0.01547  -0.04248
 197        7PX         0.00570   0.00525   0.00045   0.00479
 198        7PY         0.00570   0.00525   0.00045   0.00479
 199        7PZ         0.01334   0.00747   0.00588   0.00159
 200        8PX         0.01206   0.01069   0.00137   0.00933
 201        8PY         0.01206   0.01069   0.00137   0.00933
 202        8PZ        -0.00772  -0.00393  -0.00379  -0.00014
 203        9PX         0.00296   0.00253   0.00044   0.00209
 204        9PY         0.00296   0.00253   0.00044   0.00209
 205        9PZ        -0.00802  -0.00584  -0.00218  -0.00367
 206       10D 0        0.00288   0.00166   0.00121   0.00045
 207       10D+1        0.00308   0.00250   0.00058   0.00192
 208       10D-1        0.00308   0.00250   0.00058   0.00192
 209       10D+2        0.00035   0.00035  -0.00000   0.00035
 210       10D-2        0.00035   0.00035  -0.00000   0.00035
 211       11D 0       -0.00039  -0.00008  -0.00032   0.00024
 212       11D+1        0.00070   0.00037   0.00033   0.00003
 213       11D-1        0.00070   0.00037   0.00033   0.00003
 214       11D+2       -0.00033  -0.00033   0.00000  -0.00033
 215       11D-2       -0.00033  -0.00033   0.00000  -0.00033
          Condensed to atoms (all electrons):
               1          2
     1  Cr  13.693080  -0.088521
     2  H   -0.088521   1.483962
          Atomic-Atomic Spin Densities.
               1          2
     1  Cr   4.961737   0.014372
     2  H    0.014372   0.009519
 Mulliken charges and spin densities:
               1          2
     1  Cr   0.395441   4.976109
     2  H   -0.395441   0.023891
 Sum of Mulliken charges =  -0.00000   5.00000
 Mulliken charges and spin densities with hydrogens summed into heavy atoms:
               1          2
     1  Cr  -0.000000   5.000000
 Electronic spatial extent (au):  <R**2>=             40.8386
 Charge=              0.0000 electrons
 Dipole moment (field-independent basis, Debye):
    X=              0.0000    Y=              0.0000    Z=              1.9503  Tot=              1.9503
 Quadrupole moment (field-independent basis, Debye-Ang):
   XX=            -16.4586   YY=            -16.4586   ZZ=            -17.4780
   XY=              0.0000   XZ=              0.0000   YZ=              0.0000
 Traceless Quadrupole moment (field-independent basis, Debye-Ang):
   XX=              0.3398   YY=              0.3398   ZZ=             -0.6796
   XY=              0.0000   XZ=              0.0000   YZ=              0.0000
 Octapole moment (field-independent basis, Debye-Ang**2):
  XXX=              0.0000  YYY=              0.0000  ZZZ=              5.8362  XYY=              0.0000
  XXY=              0.0000  XXZ=              0.8105  XZZ=              0.0000  YZZ=              0.0000
  YYZ=              0.8105  XYZ=              0.0000
 Hexadecapole moment (field-independent basis, Debye-Ang**3):
 XXXX=            -32.5514 YYYY=            -32.5514 ZZZZ=            -39.0798 XXXY=              0.0000
 XXXZ=              0.0000 YYYX=              0.0000 YYYZ=              0.0000 ZZZX=              0.0000
 ZZZY=              0.0000 XXYY=            -10.8505 XXZZ=            -11.6418 YYZZ=            -11.6418
 XXYZ=              0.0000 YYXZ=              0.0000 ZZXY=              0.0000
 N-N= 7.408480952880D+00 E-N=-2.119802040871D+02  KE= 4.690868977165D+01
 Symmetry A1   KE= 2.002234402409D+01
 Symmetry A2   KE= 4.822330725694D+00
 Symmetry B1   KE= 1.103200750510D+01
 Symmetry B2   KE= 1.103200751636D+01
 Symmetry A1   SP= 2.000000000000D+00
 Symmetry A2   SP= 1.000000000000D+00
 Symmetry B1   SP= 1.000000000000D+00
 Symmetry B2   SP= 1.000000000000D+00
 Orbital energies and kinetic energies (alpha):
                                 1                 2
   1         O                -3.606956          1.853317
   2         O                -2.377357          2.956115
   3         O                -2.351627          3.075948
   4         O                -2.351627          3.075948
   5         O                -0.501092          1.968590
   6         O                -0.424404          1.643969
   7         O                -0.424404          4.880111
   8         O                -0.392054          4.880111
   9         O                -0.392054          4.822331
  10         O                -0.246504          4.822331
  11         V                 0.016827          0.084631
  12         V                 0.018951          0.040905
  13         V                 0.018951          0.040905
  14         V                 0.024198          0.032214
  15         V                 0.063998          0.209987
 Total kinetic energy from orbitals= 6.795754215682D+01
                          Isotropic Fermi Contact Couplings
        Atom                 a.u.       MegaHertz       Gauss      10(-4) cm-1
     1  Cr(53)             0.00003      -0.00130      -0.00046      -0.00043
     2  H(1)               0.02069      18.50035       6.60139       6.17105
 --------------------------------------------------------
       Center         ----  Spin Dipole Couplings  ----
                      3XX-RR        3YY-RR        3ZZ-RR
 --------------------------------------------------------
     1   Atom        0.367103      0.367103     -0.734207
     2   Atom       -0.349259     -0.349259      0.698519
 --------------------------------------------------------
                        XY            XZ            YZ
 --------------------------------------------------------
     1   Atom        0.000000      0.000000      0.000000
     2   Atom        0.000000      0.000000      0.000000
 --------------------------------------------------------


 ---------------------------------------------------------------------------------
              Anisotropic Spin Dipole Couplings in Principal Axis System
 ---------------------------------------------------------------------------------

       Atom             a.u.   MegaHertz   Gauss  10(-4) cm-1        Axes

              Baa    -0.7342    22.187     7.917     7.401  0.0000  0.0000  1.0000
     1 Cr(53) Bbb     0.3671   -11.094    -3.958    -3.700  1.0000  0.0000  0.0000
              Bcc     0.3671   -11.094    -3.958    -3.700 -0.0000  1.0000  0.0000
 
              Baa    -0.3493  -186.348   -66.494   -62.159  1.0000  0.0000  0.0000
     2 H(1)   Bbb    -0.3493  -186.348   -66.494   -62.159 -0.0000  1.0000  0.0000
              Bcc     0.6985   372.697   132.987   124.318  0.0000  0.0000  1.0000
 

 ---------------------------------------------------------------------------------

 No NMR shielding tensors so no spin-rotation constants.
 Leave Link  601 at Mon Feb 12 15:38:08 2018, MaxMem=  8589934592 cpu:              85.7 elap:               2.8
 (Enter /home1/apps/gaussian/16rA.03/g16/l9999.exe)
 1\1\GINC-C426-002\SP\ROCCSD(T)-Full\Gen\Cr1H1(6)\AANNABE\12-Feb-2018\0
 \\#P ROCCSD(T)=(maxcyc=150, Full)/Gen 5d 7f SCF=(maxcycles=300) Integr
 al(NoXCTest) MaxDisk=500GB Pop=Regular Pseudo=Read\\CrH\\0,6\Cr,0,0.,0
 .,0.\H,0,0.,0.,1.\\Version=ES64L-G16RevA.03\State=6-SG\HF=-86.4413835\
 MP2=-87.045623\MP3=-87.0278078\PUHF=-86.4413835\PMP2-0=-87.045623\MP4S
 DQ=-87.0373917\CCSD=-87.0357095\CCSD(T)=-87.0569244\RMSD=8.262e-09\PG=
 C*V [C*(H1Cr1)]\\@


 GETTING A SIMPLE ANSWER FROM A PROFESSOR IS LIKE
 GETTING A THIMBLE OF WATER FROM A FIRE HYDRANT.
     -- PROF. LEN SHAPIRO, NDSU
 Job cpu time:       0 days  3 hours 55 minutes 17.3 seconds.
 Elapsed time:       0 days  0 hours  7 minutes 25.2 seconds.
 File lengths (MBytes):  RWF=   2209 Int=      0 D2E=      0 Chk=      6 Scr=      1
 Normal termination of Gaussian 16 at Mon Feb 12 15:38:09 2018.
