 Entering Gaussian System, Link 0=g16
 Initial command:
 /home1/apps/gaussian/16rA.03/g16/l1.exe "/tmp/Gau-269574.inp" -scrdir="/tmp/"
 Entering Link 1 = /home1/apps/gaussian/16rA.03/g16/l1.exe PID=    269575.
  
 Copyright (c) 1988,1990,1992,1993,1995,1998,2003,2009,2016,
            Gaussian, Inc.  All Rights Reserved.
  
 This is part of the Gaussian(R) 16 program.  It is based on
 the Gaussian(R) 09 system (copyright 2009, Gaussian, Inc.),
 the Gaussian(R) 03 system (copyright 2003, Gaussian, Inc.),
 the Gaussian(R) 98 system (copyright 1998, Gaussian, Inc.),
 the Gaussian(R) 94 system (copyright 1995, Gaussian, Inc.),
 the Gaussian 92(TM) system (copyright 1992, Gaussian, Inc.),
 the Gaussian 90(TM) system (copyright 1990, Gaussian, Inc.),
 the Gaussian 88(TM) system (copyright 1988, Gaussian, Inc.),
 the Gaussian 86(TM) system (copyright 1986, Carnegie Mellon
 University), and the Gaussian 82(TM) system (copyright 1983,
 Carnegie Mellon University). Gaussian is a federally registered
 trademark of Gaussian, Inc.
  
 This software contains proprietary and confidential information,
 including trade secrets, belonging to Gaussian, Inc.
  
 This software is provided under written license and may be
 used, copied, transmitted, or stored only in accord with that
 written license.
  
 The following legend is applicable only to US Government
 contracts under FAR:
  
                    RESTRICTED RIGHTS LEGEND
  
 Use, reproduction and disclosure by the US Government is
 subject to restrictions as set forth in subparagraphs (a)
 and (c) of the Commercial Computer Software - Restricted
 Rights clause in FAR 52.227-19.
  
 Gaussian, Inc.
 340 Quinnipiac St., Bldg. 40, Wallingford CT 06492
  
  
 ---------------------------------------------------------------
 Warning -- This program may not be used in any manner that
 competes with the business of Gaussian, Inc. or will provide
 assistance to any competitor of Gaussian, Inc.  The licensee
 of this program is prohibited from giving any competitor of
 Gaussian, Inc. access to this program.  By using this program,
 the user acknowledges that Gaussian, Inc. is engaged in the
 business of creating and licensing software in the field of
 computational chemistry and represents and warrants to the
 licensee that it is not a competitor of Gaussian, Inc. and that
 it will not use this program in any manner prohibited above.
 ---------------------------------------------------------------
  

 Cite this work as:
 Gaussian 16, Revision A.03,
 M. J. Frisch, G. W. Trucks, H. B. Schlegel, G. E. Scuseria, 
 M. A. Robb, J. R. Cheeseman, G. Scalmani, V. Barone, 
 G. A. Petersson, H. Nakatsuji, X. Li, M. Caricato, A. V. Marenich, 
 J. Bloino, B. G. Janesko, R. Gomperts, B. Mennucci, H. P. Hratchian, 
 J. V. Ortiz, A. F. Izmaylov, J. L. Sonnenberg, D. Williams-Young, 
 F. Ding, F. Lipparini, F. Egidi, J. Goings, B. Peng, A. Petrone, 
 T. Henderson, D. Ranasinghe, V. G. Zakrzewski, J. Gao, N. Rega, 
 G. Zheng, W. Liang, M. Hada, M. Ehara, K. Toyota, R. Fukuda, 
 J. Hasegawa, M. Ishida, T. Nakajima, Y. Honda, O. Kitao, H. Nakai, 
 T. Vreven, K. Throssell, J. A. Montgomery, Jr., J. E. Peralta, 
 F. Ogliaro, M. J. Bearpark, J. J. Heyd, E. N. Brothers, K. N. Kudin, 
 V. N. Staroverov, T. A. Keith, R. Kobayashi, J. Normand, 
 K. Raghavachari, A. P. Rendell, J. C. Burant, S. S. Iyengar, 
 J. Tomasi, M. Cossi, J. M. Millam, M. Klene, C. Adamo, R. Cammi, 
 J. W. Ochterski, R. L. Martin, K. Morokuma, O. Farkas, 
 J. B. Foresman, and D. J. Fox, Gaussian, Inc., Wallingford CT, 2016.
 
 ******************************************
 Gaussian 16:  ES64L-G16RevA.03 25-Dec-2016
                 5-May-2018 
 ******************************************
 %mem=80GB
 %cpu=0-31
 SetSPE:  set environment variable "MP_BIND" = "yes"
 SetSPE:  set environment variable "MP_BLIST" = "0,1,2,3,4,5,6,7,8,9,10,11,12,13,14,15,16,17,18,19,20,21,22,23,24,25,26,27,28,29,30,31"
 Will use up to   32 processors via shared memory.
 %chk=5z.chk
 %rwf=/scratch/04843/gwang18/cuh/
 ----------------------------------------------------------------------
 #P ROCCSD(T)=(MaxCyc=150, Full)/Gen SCF=(maxcycle=400, vshift=200) Pse
 udo=Read Integral(NoXCTest) Pop=Regular MaxDisk=500GB Guess=Read IOp(5
 /15=2)
 ----------------------------------------------------------------------
 1/38=1,172=1/1;
 2/12=2,17=6,18=5,40=1/2;
 3/5=7,11=2,16=1,17=8,25=1,30=1,47=8,116=101/1,2,3;
 4/5=1/1;
 5/5=2,7=400,10=200,15=2,38=6/2;
 8/5=-1,6=4,9=120000,10=90/1,4;
 9/5=7,6=150,14=2/13;
 6//1;
 99/5=1,9=1/99;
 Leave Link    1 at Sat May  5 21:57:40 2018, MaxMem= 10737418240 cpu:               6.9 elap:               0.2
 (Enter /home1/apps/gaussian/16rA.03/g16/l101.exe)
 ---
 CuH
 ---
 Symbolic Z-matrix:
 Charge =  0 Multiplicity = 1
 Cu                    0.        0.        0. 
 H                     0.        0.        1.4 
 
 ITRead=  0  0
 MicOpt= -1 -1
 NAtoms=      2 NQM=        2 NQMF=       0 NMMI=      0 NMMIF=      0
                NMic=       0 NMicF=      0.
                    Isotopes and Nuclear Properties:
 (Nuclear quadrupole moments (NQMom) in fm**2, nuclear magnetic moments (NMagM)
  in nuclear magnetons)

  Atom         1           2
 IAtWgt=          63           1
 AtmWgt=  62.9295992   1.0078250
 NucSpn=           3           1
 AtZEff=  -0.0000000  -0.0000000
 NQMom=  -22.0000000   0.0000000
 NMagM=    2.2233000   2.7928460
 AtZNuc=  29.0000000   1.0000000
 Leave Link  101 at Sat May  5 21:57:40 2018, MaxMem= 10737418240 cpu:               3.1 elap:               0.1
 (Enter /home1/apps/gaussian/16rA.03/g16/l202.exe)
                          Input orientation:                          
 ---------------------------------------------------------------------
 Center     Atomic      Atomic             Coordinates (Angstroms)
 Number     Number       Type             X           Y           Z
 ---------------------------------------------------------------------
      1         29           0        0.000000    0.000000    0.000000
      2          1           0        0.000000    0.000000    1.400000
 ---------------------------------------------------------------------
 Stoichiometry    CuH
 Framework group  C*V[C*(HCu)]
 Deg. of freedom     1
 Full point group                 C*V     NOp   4
 Largest Abelian subgroup         C2V     NOp   4
 Largest concise Abelian subgroup C1      NOp   1
                         Standard orientation:                         
 ---------------------------------------------------------------------
 Center     Atomic      Atomic             Coordinates (Angstroms)
 Number     Number       Type             X           Y           Z
 ---------------------------------------------------------------------
      1         29           0        0.000000    0.000000    0.046667
      2          1           0        0.000000    0.000000   -1.353333
 ---------------------------------------------------------------------
 Rotational constants (GHZ):           0.0000000         259.9418203         259.9418203
 Leave Link  202 at Sat May  5 21:57:40 2018, MaxMem= 10737418240 cpu:               0.7 elap:               0.1
 (Enter /home1/apps/gaussian/16rA.03/g16/l301.exe)
 General basis read from cards:  (5D, 7F)
 Centers:       1
 S 1 1.00
     Exponent=  1.9318800000D+08 Coefficients=  1.0000000000D+00
 S 1 1.00
     Exponent=  3.3945200000D+07 Coefficients=  1.0000000000D+00
 S 1 1.00
     Exponent=  7.5104600000D+06 Coefficients=  1.0000000000D+00
 S 1 1.00
     Exponent=  2.0019900000D+06 Coefficients=  1.0000000000D+00
 S 1 1.00
     Exponent=  6.1937800000D+05 Coefficients=  1.0000000000D+00
 S 1 1.00
     Exponent=  2.1560600000D+05 Coefficients=  1.0000000000D+00
 S 1 1.00
     Exponent=  8.2327100000D+04 Coefficients=  1.0000000000D+00
 S 1 1.00
     Exponent=  3.3788400000D+04 Coefficients=  1.0000000000D+00
 S 1 1.00
     Exponent=  1.4670000000D+04 Coefficients=  1.0000000000D+00
 S 1 1.00
     Exponent=  6.6574400000D+03 Coefficients=  1.0000000000D+00
 S 1 1.00
     Exponent=  3.1302600000D+03 Coefficients=  1.0000000000D+00
 S 1 1.00
     Exponent=  1.5156100000D+03 Coefficients=  1.0000000000D+00
 S 1 1.00
     Exponent=  7.5258800000D+02 Coefficients=  1.0000000000D+00
 S 1 1.00
     Exponent=  3.8224900000D+02 Coefficients=  1.0000000000D+00
 S 1 1.00
     Exponent=  1.9823700000D+02 Coefficients=  1.0000000000D+00
 S 1 1.00
     Exponent=  1.0481000000D+02 Coefficients=  1.0000000000D+00
 S 1 1.00
     Exponent=  5.6388500000D+01 Coefficients=  1.0000000000D+00
 S 1 1.00
     Exponent=  3.0783000000D+01 Coefficients=  1.0000000000D+00
 S 1 1.00
     Exponent=  1.6977000000D+01 Coefficients=  1.0000000000D+00
 S 1 1.00
     Exponent=  9.3972500000D+00 Coefficients=  1.0000000000D+00
 S 1 1.00
     Exponent=  5.1723800000D+00 Coefficients=  1.0000000000D+00
 S 1 1.00
     Exponent=  2.7953500000D+00 Coefficients=  1.0000000000D+00
 S 1 1.00
     Exponent=  1.4589000000D+00 Coefficients=  1.0000000000D+00
 S 1 1.00
     Exponent=  7.2871100000D-01 Coefficients=  1.0000000000D+00
 S 1 1.00
     Exponent=  2.3764200000D-01 Coefficients=  1.0000000000D+00
 S 1 1.00
     Exponent=  1.2782100000D-01 Coefficients=  1.0000000000D+00
 S 1 1.00
     Exponent=  6.1815000000D-02 Coefficients=  1.0000000000D+00
 S 1 1.00
     Exponent=  2.9303000000D-02 Coefficients=  1.0000000000D+00
 S 1 1.00
     Exponent=  9.3455000000D+00 Coefficients=  1.0000000000D+00
 S 1 1.00
     Exponent=  3.3051000000D+00 Coefficients=  1.0000000000D+00
 S 1 1.00
     Exponent=  1.3890000000D-02 Coefficients=  1.0000000000D+00
 P 1 1.00
     Exponent=  1.1029400000D+05 Coefficients=  1.0000000000D+00
 P 1 1.00
     Exponent=  2.6939100000D+04 Coefficients=  1.0000000000D+00
 P 1 1.00
     Exponent=  8.5507100000D+03 Coefficients=  1.0000000000D+00
 P 1 1.00
     Exponent=  3.2461900000D+03 Coefficients=  1.0000000000D+00
 P 1 1.00
     Exponent=  1.3884600000D+03 Coefficients=  1.0000000000D+00
 P 1 1.00
     Exponent=  6.4247400000D+02 Coefficients=  1.0000000000D+00
 P 1 1.00
     Exponent=  3.1357000000D+02 Coefficients=  1.0000000000D+00
 P 1 1.00
     Exponent=  1.5916100000D+02 Coefficients=  1.0000000000D+00
 P 1 1.00
     Exponent=  8.3441400000D+01 Coefficients=  1.0000000000D+00
 P 1 1.00
     Exponent=  4.5019600000D+01 Coefficients=  1.0000000000D+00
 P 1 1.00
     Exponent=  2.4889400000D+01 Coefficients=  1.0000000000D+00
 P 1 1.00
     Exponent=  1.3973100000D+01 Coefficients=  1.0000000000D+00
 P 1 1.00
     Exponent=  7.8257100000D+00 Coefficients=  1.0000000000D+00
 P 1 1.00
     Exponent=  4.2863200000D+00 Coefficients=  1.0000000000D+00
 P 1 1.00
     Exponent=  2.2903400000D+00 Coefficients=  1.0000000000D+00
 P 1 1.00
     Exponent=  1.1934200000D+00 Coefficients=  1.0000000000D+00
 P 1 1.00
     Exponent=  5.9376500000D-01 Coefficients=  1.0000000000D+00
 P 1 1.00
     Exponent=  2.2398700000D-01 Coefficients=  1.0000000000D+00
 P 1 1.00
     Exponent=  8.9026000000D-02 Coefficients=  1.0000000000D+00
 P 1 1.00
     Exponent=  3.5213000000D-02 Coefficients=  1.0000000000D+00
 P 1 1.00
     Exponent=  1.4003500000D+01 Coefficients=  1.0000000000D+00
 P 1 1.00
     Exponent=  4.5398000000D+00 Coefficients=  1.0000000000D+00
 P 1 1.00
     Exponent=  1.3930000000D-02 Coefficients=  1.0000000000D+00
 D 1 1.00
     Exponent=  7.3289300000D+02 Coefficients=  1.0000000000D+00
 D 1 1.00
     Exponent=  2.2075300000D+02 Coefficients=  1.0000000000D+00
 D 1 1.00
     Exponent=  8.5626800000D+01 Coefficients=  1.0000000000D+00
 D 1 1.00
     Exponent=  3.7717800000D+01 Coefficients=  1.0000000000D+00
 D 1 1.00
     Exponent=  1.7764700000D+01 Coefficients=  1.0000000000D+00
 D 1 1.00
     Exponent=  8.7641500000D+00 Coefficients=  1.0000000000D+00
 D 1 1.00
     Exponent=  4.4178660000D+00 Coefficients=  1.0000000000D+00
 D 1 1.00
     Exponent=  2.2180390000D+00 Coefficients=  1.0000000000D+00
 D 1 1.00
     Exponent=  1.0935310000D+00 Coefficients=  1.0000000000D+00
 D 1 1.00
     Exponent=  5.2309100000D-01 Coefficients=  1.0000000000D+00
 D 1 1.00
     Exponent=  2.3847500000D-01 Coefficients=  1.0000000000D+00
 D 1 1.00
     Exponent=  1.0002600000D-01 Coefficients=  1.0000000000D+00
 D 1 1.00
     Exponent=  1.0853400000D+01 Coefficients=  1.0000000000D+00
 D 1 1.00
     Exponent=  6.4396000000D+00 Coefficients=  1.0000000000D+00
 D 1 1.00
     Exponent=  4.1950000000D-02 Coefficients=  1.0000000000D+00
 F 1 1.00
     Exponent=  1.6409600000D+01 Coefficients=  1.0000000000D+00
 F 1 1.00
     Exponent=  7.3000000000D+00 Coefficients=  1.0000000000D+00
 F 1 1.00
     Exponent=  3.2475000000D+00 Coefficients=  1.0000000000D+00
 F 1 1.00
     Exponent=  1.4447000000D+00 Coefficients=  1.0000000000D+00
 F 1 1.00
     Exponent=  5.0050000000D-01 Coefficients=  1.0000000000D+00
 F 1 1.00
     Exponent=  1.7339000000D-01 Coefficients=  1.0000000000D+00
 G 1 1.00
     Exponent=  1.1598400000D+01 Coefficients=  1.0000000000D+00
 G 1 1.00
     Exponent=  5.7591000000D+00 Coefficients=  1.0000000000D+00
 G 1 1.00
     Exponent=  2.8596000000D+00 Coefficients=  1.0000000000D+00
 G 1 1.00
     Exponent=  1.1042000000D+00 Coefficients=  1.0000000000D+00
 G 1 1.00
     Exponent=  4.2637000000D-01 Coefficients=  1.0000000000D+00
 H 1 1.00
     Exponent=  1.0031900000D+01 Coefficients=  1.0000000000D+00
 H 1 1.00
     Exponent=  4.8836000000D+00 Coefficients=  1.0000000000D+00
 H 1 1.00
     Exponent=  2.1024000000D+00 Coefficients=  1.0000000000D+00
 H 1 1.00
     Exponent=  9.0509000000D-01 Coefficients=  1.0000000000D+00
 I 1 1.00
     Exponent=  9.9825000000D+00 Coefficients=  1.0000000000D+00
 I 1 1.00
     Exponent=  4.9428000000D+00 Coefficients=  1.0000000000D+00
 I 1 1.00
     Exponent=  2.4474100000D+00 Coefficients=  1.0000000000D+00
 ****
 Centers:       2
 S 1 1.00
     Exponent=  4.0200000000D+02 Coefficients=  1.0000000000D+00
 S 1 1.00
     Exponent=  6.0240000000D+01 Coefficients=  1.0000000000D+00
 S 1 1.00
     Exponent=  1.3730000000D+01 Coefficients=  1.0000000000D+00
 S 1 1.00
     Exponent=  3.9050000000D+00 Coefficients=  1.0000000000D+00
 S 1 1.00
     Exponent=  1.2830000000D+00 Coefficients=  1.0000000000D+00
 S 1 1.00
     Exponent=  4.6550000000D-01 Coefficients=  1.0000000000D+00
 S 1 1.00
     Exponent=  1.8110000000D-01 Coefficients=  1.0000000000D+00
 S 1 1.00
     Exponent=  7.2790000000D-02 Coefficients=  1.0000000000D+00
 S 1 1.00
     Exponent=  2.0700000000D-02 Coefficients=  1.0000000000D+00
 P 1 1.00
     Exponent=  4.5160000000D+00 Coefficients=  1.0000000000D+00
 P 1 1.00
     Exponent=  1.7120000000D+00 Coefficients=  1.0000000000D+00
 P 1 1.00
     Exponent=  6.4900000000D-01 Coefficients=  1.0000000000D+00
 P 1 1.00
     Exponent=  2.4600000000D-01 Coefficients=  1.0000000000D+00
 P 1 1.00
     Exponent=  7.4400000000D-02 Coefficients=  1.0000000000D+00
 D 1 1.00
     Exponent=  2.9500000000D+00 Coefficients=  1.0000000000D+00
 D 1 1.00
     Exponent=  1.2060000000D+00 Coefficients=  1.0000000000D+00
 D 1 1.00
     Exponent=  4.9300000000D-01 Coefficients=  1.0000000000D+00
 D 1 1.00
     Exponent=  1.5600000000D-01 Coefficients=  1.0000000000D+00
 F 1 1.00
     Exponent=  2.5060000000D+00 Coefficients=  1.0000000000D+00
 F 1 1.00
     Exponent=  8.7500000000D-01 Coefficients=  1.0000000000D+00
 F 1 1.00
     Exponent=  2.7400000000D-01 Coefficients=  1.0000000000D+00
 G 1 1.00
     Exponent=  2.3580000000D+00 Coefficients=  1.0000000000D+00
 G 1 1.00
     Exponent=  5.4300000000D-01 Coefficients=  1.0000000000D+00
 ****
 ======================================================================================================
                                       Pseudopotential Parameters
 ======================================================================================================
  Center     Atomic      Valence      Angular      Power
  Number     Number     Electrons     Momentum     of R      Exponent        Coefficient   SO-Coeffient
 ======================================================================================================
    1         29           19
                                      D and up 
                                                     1       31.5381126       19.00000000    0.00000000
                                                     3       31.0692553      599.22413998    0.00000000
                                                     2       30.5903587     -244.68915484    0.00000000
                                                     2       14.0514106       -1.29349526    0.00000000
                                      S - D
                                                     2       12.7723592       66.27560813    0.00000000
                                                     2       29.3556224      370.71371825    0.00000000
                                      P - D
                                                     2       12.5247148       49.76265057    0.00000000
                                                     2       33.5169454      271.66281028    0.00000000
    2          1            1
                                      P and up 
                                                     2       21.7769666      -10.85192405    0.00000000
                                                     1       21.2435951        1.00000000    0.00000000
                                                     3       21.2435951       21.24359508    0.00000000
                                      S - P
                                                     2        1.0000000        0.00000000    0.00000000
 ======================================================================================================
 Ernie: Thresh=  0.10000D-02 Tol=  0.10000D-05 Strict=F.
 There are   248 symmetry adapted cartesian basis functions of A1  symmetry.
 There are    79 symmetry adapted cartesian basis functions of A2  symmetry.
 There are   137 symmetry adapted cartesian basis functions of B1  symmetry.
 There are   137 symmetry adapted cartesian basis functions of B2  symmetry.
 There are   169 symmetry adapted basis functions of A1  symmetry.
 There are    59 symmetry adapted basis functions of A2  symmetry.
 There are   100 symmetry adapted basis functions of B1  symmetry.
 There are   100 symmetry adapted basis functions of B2  symmetry.
   428 basis functions,   601 primitive gaussians,   601 cartesian basis functions
    10 alpha electrons       10 beta electrons
       nuclear repulsion energy         7.1816907196 Hartrees.
 IExCor=    0 DFT=F Ex=HF Corr=None ExCW=0 ScaHFX=  1.000000
 ScaDFX=  1.000000  1.000000  1.000000  1.000000 ScalE2=  1.000000  1.000000
 IRadAn=      5 IRanWt=     -1 IRanGd=            0 ICorTp=0 IEmpDi=  4
 NAtoms=    2 NActive=    2 NUniq=    2 SFac= 1.00D+00 NAtFMM=   60 NAOKFM=F Big=F
 Integral buffers will be    131072 words long.
 Raffenetti 2 integral format.
 Two-electron integral symmetry is turned on.
 Leave Link  301 at Sat May  5 21:57:40 2018, MaxMem= 10737418240 cpu:               9.5 elap:               0.3
 (Enter /home1/apps/gaussian/16rA.03/g16/l302.exe)
 NPDir=0 NMtPBC=     1 NCelOv=     1 NCel=       1 NClECP=     1 NCelD=      1
         NCelK=      1 NCelE2=     1 NClLst=     1 CellRange=     0.0.
 One-electron integrals computed using PRISM.
 One-electron integral symmetry used in STVInt
   4 Symmetry operations used in ECPInt.
 ECPInt:  NShTT=    6105 NPrTT=    6105 LenC2=    6001 LenP2D=    6000.
 LDataN:  DoStor=T MaxTD1=12 Len= 1566
 NBasis=   428 RedAO= T EigKep=  4.99D-06  NBF=   169    59   100   100
 NBsUse=   420 1.00D-06 EigRej=  8.25D-07 NBFU=   165    59    98    98
 Leave Link  302 at Sat May  5 21:57:50 2018, MaxMem= 10737418240 cpu:             294.3 elap:               9.2
 (Enter /home1/apps/gaussian/16rA.03/g16/l303.exe)
 DipDrv:  MaxL=1.
 Leave Link  303 at Sat May  5 21:57:50 2018, MaxMem= 10737418240 cpu:               4.9 elap:               0.3
 (Enter /home1/apps/gaussian/16rA.03/g16/l401.exe)
 Initial guess from the checkpoint file:  "5z.chk"
 B after Tr=     0.000000    0.000000    0.000000
         Rot=    1.000000    0.000000    0.000000    0.000000 Ang=   0.00 deg.
 Guess basis will be translated and rotated to current coordinates.
 JPrj=2 DoOrth=T DoCkMO=T.
 Initial guess orbital symmetries:
       Occupied  (SG) (SG) (PI) (PI) (SG) (PI) (PI) (DLTA) (DLTA)
                 (SG)
       Virtual   (SG) (PI) (PI) (SG) (SG) (SG) (PI) (PI) (SG) (PI)
                 (PI) (DLTA) (DLTA) (SG) (SG) (PI) (PI) (SG) (PI)
                 (PI) (SG) (PI) (PI) (DLTA) (DLTA) (SG) (SG) (SG)
                 (DLTA) (DLTA) (SG) (PI) (PI) (PI) (PI) (SG) (PHI)
                 (PHI) (PI) (PI) (DLTA) (DLTA) (PI) (PI) (DLTA)
                 (DLTA) (SG) (SG) (PI) (PI) (PHI) (PHI) (SG) (SG)
                 (DLTA) (DLTA) (PI) (PI) (SG) (PI) (PI) (SG) (DLTA)
                 (DLTA) (PI) (PI) (SG) (SG) (PHI) (PHI) (DLTA)
                 (DLTA) (PI) (PI) (DLTA) (DLTA) (PI) (PI) (?A)
                 (?A) (SG) (PHI) (PHI) (SG) (PI) (PI) (DLTA) (DLTA)
                 (SG) (PI) (PI) (SG) (SG) (PI) (PI) (SG) (PHI)
                 (PHI) (DLTA) (DLTA) (DLTA) (DLTA) (PI) (PI) (SG)
                 (PI) (PI) (PHI) (PHI) (SG) (DLTA) (DLTA) (PI)
                 (PI) (SG) (PI) (PI) (DLTA) (DLTA) (SG) (PI) (PI)
                 (?A) (?A) (PHI) (PHI) (SG) (?A) (?A) (?B) (?B)
                 (DLTA) (DLTA) (PHI) (PHI) (PI) (PI) (SG) (DLTA)
                 (DLTA) (SG) (PI) (PI) (SG) (DLTA) (DLTA) (PI)
                 (PI) (SG) (PI) (PI) (SG) (PHI) (PHI) (DLTA) (DLTA)
                 (PI) (PI) (SG) (?A) (?A) (PHI) (PHI) (DLTA) (DLTA)
                 (PI) (PI) (SG) (?A) (?A) (?B) (?B) (PHI) (PHI)
                 (DLTA) (DLTA) (SG) (PI) (PI) (SG) (DLTA) (DLTA)
                 (PI) (PI) (SG) (PI) (PI) (SG) (SG) (PHI) (PHI)
                 (DLTA) (DLTA) (PI) (PI) (DLTA) (DLTA) (SG) (PI)
                 (PI) (SG) (SG) (PI) (PI) (?A) (?A) (PHI) (PHI)
                 (DLTA) (DLTA) (PI) (PI) (SG) (SG) (?B) (?B) (?A)
                 (?A) (PHI) (PHI) (DLTA) (DLTA) (PI) (PI) (SG)
                 (DLTA) (DLTA) (PI) (PI) (SG) (PI) (PI) (SG) (SG)
                 (DLTA) (DLTA) (PI) (PI) (SG) (PI) (PI) (SG) (SG)
                 (SG) (PI) (PI) (SG) (DLTA) (DLTA) (PI) (PI) (SG)
                 (SG) (PI) (PI) (SG) (DLTA) (DLTA) (PI) (PI) (SG)
                 (SG) (PI) (PI) (SG) (SG) (PI) (PI) (SG) (DLTA)
                 (DLTA) (PI) (PI) (SG) (SG) (PI) (PI) (SG) (SG)
                 (PI) (PI) (SG) (SG) (PI) (PI) (SG) (SG) (PI) (PI)
                 (SG) (SG) (PI) (PI) (SG) (SG) (SG) (SG) (SG) (SG)
                 (DLTA) (DLTA) (SG) (SG) (SG) (SG) (SG) (DLTA)
                 (SG) (SG) (DLTA) (SG) (DLTA) (?A) (SG) (DLTA)
                 (DLTA) (SG) (?A) (SG) (DLTA) (?A) (SG) (DLTA)
                 (SG) (SG) (SG) (SG) (?A) (DLTA) (SG) (?A) (SG)
                 (DLTA) (SG) (?A) (SG) (SG) (?A) (SG) (DLTA) (DLTA)
                 (DLTA) (DLTA) (DLTA) (?A) (DLTA) (DLTA) (?A) (DLTA)
                 (?A) (SG) (DLTA) (?A) (DLTA) (?A) (DLTA) (?A)
                 (SG) (SG) (?A) (PI) (PI) (PI) (PHI) (PI) (PI)
                 (PHI) (PI) (PI) (PHI) (PI) (?B) (PI) (PHI) (PI)
                 (?B) (PHI) (PI) (PHI) (PI) (PHI) (PHI) (?B) (PHI)
                 (?B) (PI) (PI) (PI) (PHI) (PI) (PI) (PHI) (PI)
                 (PI) (PHI) (PI) (?B) (PI) (PHI) (PI) (?B) (PHI)
                 (PI) (PHI) (PI) (PHI) (PHI) (?B) (PHI) (?B)
 The electronic state of the initial guess is 1-SG.
 Leave Link  401 at Sat May  5 21:57:52 2018, MaxMem= 10737418240 cpu:              40.1 elap:               1.5
 (Enter /home1/apps/gaussian/16rA.03/g16/l502.exe)
 Keep R1 and R2 ints in memory in symmetry-blocked form, NReq=5277864979.
 FoFCou: FMM=F IPFlag=           8 FMFlag=           0 FMFlg1=           0
         NFxFlg=           0 DoJE=F BraDBF=F KetDBF=F FulRan=T
         wScrn=  0.000000 ICntrl=       600 IOpCl=  0 I1Cent=           0 NGrid=           0
         NMat0=    1 NMatS0=  91806 NMatT0=    0 NMatD0=    1 NMtDS0=    0 NMtDT0=    0
 Petite list used in FoFCou.
 Restricted open shell SCF:
 Using DIIS extrapolation, IDIIS=  1040.
 NGot= 10737418240 LenX=  8609582347 LenY=  8609220545
 Requested convergence on RMS density matrix=1.00D-08 within 400 cycles.
 Requested convergence on MAX density matrix=1.00D-06.
 Requested convergence on             energy=1.00D-06.
 Virtual orbitals will be shifted by   0.200 hartree.
 No special actions if energy rises.

 Cycle   1  Pass 1  IDiag  1:
 E= -195.887038146627    
 DIIS: error= 4.13D-01 at cycle   1 NSaved=   1.
 NSaved= 1 IEnMin= 1 EnMin= -195.887038146627     IErMin= 1 ErrMin= 4.13D-01
 ErrMax= 4.13D-01  0.00D+00 EMaxC= 1.00D-01 BMatC= 1.58D+01 BMatP= 1.58D+01
 IDIUse=3 WtCom= 0.00D+00 WtEn= 1.00D+00
 Coeff-Com:  0.100D+01
 Coeff-En:   0.100D+01
 Coeff:      0.100D+01
 Gap=     0.345 Goal=   None    Shift=    0.200
 GapD=    0.345 DampG=1.000 DampE=0.125 DampFc=0.1250 IDamp=-1.
 Damping current iteration by 1.25D-01
 RMSDP=4.64D-04 MaxDP=2.71D-02              OVMax= 5.50D-04

 Cycle   2  Pass 1  IDiag  1:
 E= -195.887063554371     Delta-E=       -0.000025407744 Rises=F Damp=T
 DIIS: error= 3.61D-01 at cycle   2 NSaved=   2.
 NSaved= 2 IEnMin= 2 EnMin= -195.887063554371     IErMin= 2 ErrMin= 3.61D-01
 ErrMax= 3.61D-01  0.00D+00 EMaxC= 1.00D-01 BMatC= 1.21D+01 BMatP= 1.58D+01
 IDIUse=3 WtCom= 0.00D+00 WtEn= 1.00D+00
 Coeff-Com: -0.700D+01 0.800D+01
 Coeff-En:   0.000D+00 0.100D+01
 Coeff:      0.000D+00 0.100D+01
 Gap=     0.343 Goal=   None    Shift=    0.200
 RMSDP=4.09D-04 MaxDP=2.38D-02 DE=-2.54D-05 OVMax= 9.34D-05

 Cycle   3  Pass 1  IDiag  1:
 E= -195.887242800584     Delta-E=       -0.000179246213 Rises=F Damp=F
 DIIS: error= 8.63D-05 at cycle   3 NSaved=   3.
 NSaved= 3 IEnMin= 3 EnMin= -195.887242800584     IErMin= 3 ErrMin= 8.63D-05
 ErrMax= 8.63D-05  0.00D+00 EMaxC= 1.00D-01 BMatC= 4.08D-07 BMatP= 1.21D+01
 IDIUse=1 WtCom= 1.00D+00 WtEn= 0.00D+00
 Large coefficients: NSaved=  3 BigCof=   15.78 CofMax=   10.00 Det=-1.39D-09
 Inversion failed.  Reducing to  2 matrices.
 Coeff-Com: -0.710D-05 0.100D+01
 Coeff:     -0.710D-05 0.100D+01
 Gap=     0.343 Goal=   None    Shift=    0.200
 RMSDP=7.28D-06 MaxDP=5.77D-04 DE=-1.79D-04 OVMax= 7.84D-05

 Cycle   4  Pass 1  IDiag  1:
 E= -195.887242886194     Delta-E=       -0.000000085610 Rises=F Damp=F
 DIIS: error= 6.36D-06 at cycle   4 NSaved=   3.
 NSaved= 3 IEnMin= 3 EnMin= -195.887242886194     IErMin= 3 ErrMin= 6.36D-06
 ErrMax= 6.36D-06  0.00D+00 EMaxC= 1.00D-01 BMatC= 5.31D-09 BMatP= 4.08D-07
 IDIUse=1 WtCom= 1.00D+00 WtEn= 0.00D+00
 Coeff-Com:  0.178D-06-0.301D-01 0.103D+01
 Coeff:      0.178D-06-0.301D-01 0.103D+01
 Gap=     0.343 Goal=   None    Shift=    0.200
 RMSDP=2.01D-06 MaxDP=2.27D-04 DE=-8.56D-08 OVMax= 2.79D-05

 Cycle   5  Pass 1  IDiag  1:
 E= -195.887242891834     Delta-E=       -0.000000005640 Rises=F Damp=F
 DIIS: error= 6.05D-06 at cycle   5 NSaved=   4.
 NSaved= 4 IEnMin= 4 EnMin= -195.887242891834     IErMin= 4 ErrMin= 6.05D-06
 ErrMax= 6.05D-06  0.00D+00 EMaxC= 1.00D-01 BMatC= 3.22D-09 BMatP= 5.31D-09
 IDIUse=1 WtCom= 1.00D+00 WtEn= 0.00D+00
 Coeff-Com:  0.144D-06-0.224D-01 0.441D+00 0.582D+00
 Coeff:      0.144D-06-0.224D-01 0.441D+00 0.582D+00
 Gap=     0.343 Goal=   None    Shift=    0.200
 RMSDP=6.58D-07 MaxDP=7.95D-05 DE=-5.64D-09 OVMax= 9.41D-06

 Cycle   6  Pass 1  IDiag  1:
 E= -195.887242893072     Delta-E=       -0.000000001237 Rises=F Damp=F
 DIIS: error= 1.59D-06 at cycle   6 NSaved=   5.
 NSaved= 5 IEnMin= 5 EnMin= -195.887242893072     IErMin= 5 ErrMin= 1.59D-06
 ErrMax= 1.59D-06  0.00D+00 EMaxC= 1.00D-01 BMatC= 1.95D-10 BMatP= 3.22D-09
 IDIUse=1 WtCom= 1.00D+00 WtEn= 0.00D+00
 Coeff-Com: -0.181D-07 0.333D-02-0.162D+00 0.906D-01 0.107D+01
 Coeff:     -0.181D-07 0.333D-02-0.162D+00 0.906D-01 0.107D+01
 Gap=     0.343 Goal=   None    Shift=    0.200
 RMSDP=3.86D-07 MaxDP=4.66D-05 DE=-1.24D-09 OVMax= 5.73D-06

 Cycle   7  Pass 1  IDiag  1:
 E= -195.887242893263     Delta-E=       -0.000000000192 Rises=F Damp=F
 DIIS: error= 2.99D-07 at cycle   7 NSaved=   6.
 NSaved= 6 IEnMin= 6 EnMin= -195.887242893263     IErMin= 6 ErrMin= 2.99D-07
 ErrMax= 2.99D-07  0.00D+00 EMaxC= 1.00D-01 BMatC= 8.82D-12 BMatP= 1.95D-10
 IDIUse=1 WtCom= 1.00D+00 WtEn= 0.00D+00
 Coeff-Com:  0.118D-08-0.273D-03 0.229D-01-0.199D-01-0.403D+00 0.140D+01
 Coeff:      0.118D-08-0.273D-03 0.229D-01-0.199D-01-0.403D+00 0.140D+01
 Gap=     0.343 Goal=   None    Shift=    0.200
 RMSDP=1.30D-07 MaxDP=1.62D-05 DE=-1.92D-10 OVMax= 2.07D-06

 Cycle   8  Pass 1  IDiag  1:
 E= -195.887242893283     Delta-E=       -0.000000000020 Rises=F Damp=F
 DIIS: error= 1.72D-07 at cycle   8 NSaved=   7.
 NSaved= 7 IEnMin= 7 EnMin= -195.887242893283     IErMin= 7 ErrMin= 1.72D-07
 ErrMax= 1.72D-07  0.00D+00 EMaxC= 1.00D-01 BMatC= 9.94D-13 BMatP= 8.82D-12
 IDIUse=1 WtCom= 1.00D+00 WtEn= 0.00D+00
 Coeff-Com:  0.778D-09-0.163D-03 0.706D-02-0.175D-01 0.131D-01-0.427D+00
 Coeff-Com:  0.143D+01
 Coeff:      0.778D-09-0.163D-03 0.706D-02-0.175D-01 0.131D-01-0.427D+00
 Coeff:      0.143D+01
 Gap=     0.343 Goal=   None    Shift=    0.200
 RMSDP=4.70D-08 MaxDP=5.89D-06 DE=-1.96D-11 OVMax= 9.95D-07

 Cycle   9  Pass 1  IDiag  1:
 E= -195.887242893286     Delta-E=       -0.000000000003 Rises=F Damp=F
 DIIS: error= 8.81D-08 at cycle   9 NSaved=   8.
 NSaved= 8 IEnMin= 8 EnMin= -195.887242893286     IErMin= 8 ErrMin= 8.81D-08
 ErrMax= 8.81D-08  0.00D+00 EMaxC= 1.00D-01 BMatC= 2.23D-13 BMatP= 9.94D-13
 IDIUse=1 WtCom= 1.00D+00 WtEn= 0.00D+00
 Coeff-Com: -0.595D-10 0.353D-04-0.297D-02 0.733D-02 0.350D-01-0.141D+00
 Coeff-Com: -0.355D+00 0.146D+01
 Coeff:     -0.595D-10 0.353D-04-0.297D-02 0.733D-02 0.350D-01-0.141D+00
 Coeff:     -0.355D+00 0.146D+01
 Gap=     0.343 Goal=   None    Shift=    0.200
 RMSDP=1.67D-08 MaxDP=2.09D-06 DE=-3.24D-12 OVMax= 6.26D-07

 Cycle  10  Pass 1  IDiag  1:
 E= -195.887242893287     Delta-E=       -0.000000000001 Rises=F Damp=F
 DIIS: error= 5.68D-08 at cycle  10 NSaved=   9.
 NSaved= 9 IEnMin= 9 EnMin= -195.887242893287     IErMin= 9 ErrMin= 5.68D-08
 ErrMax= 5.68D-08  0.00D+00 EMaxC= 1.00D-01 BMatC= 1.44D-13 BMatP= 2.23D-13
 IDIUse=1 WtCom= 1.00D+00 WtEn= 0.00D+00
 Coeff-Com: -0.137D-09 0.397D-04-0.289D-02 0.648D-02 0.289D-01-0.940D-01
 Coeff-Com: -0.307D+00 0.858D+00 0.511D+00
 Coeff:     -0.137D-09 0.397D-04-0.289D-02 0.648D-02 0.289D-01-0.940D-01
 Coeff:     -0.307D+00 0.858D+00 0.511D+00
 Gap=     0.343 Goal=   None    Shift=    0.200
 RMSDP=5.37D-09 MaxDP=6.80D-07 DE=-8.81D-13 OVMax= 2.47D-07

 SCF Done:  E(ROHF) =  -195.887242893     A.U. after   10 cycles
            NFock= 10  Conv=0.54D-08     -V/T= 2.5044
 <Sx>= 0.0000 <Sy>= 0.0000 <Sz>= 0.0000 <S**2>=-0.0000 S=-0.0000
 <L.S>=  0.00000000000    
 KE= 1.302097812935D+02 PE=-4.997517582367D+02 EE= 1.664730433303D+02
 Annihilation of the first spin contaminant:
 S**2 before annihilation    -0.0000,   after     0.0000
 Leave Link  502 at Sat May  5 22:00:21 2018, MaxMem= 10737418240 cpu:            4552.8 elap:             149.1
 (Enter /home1/apps/gaussian/16rA.03/g16/l801.exe)
 Windowed orbitals will be sorted by symmetry type.
 GenMOA:  NOpAll=  4 NOp2=4 NOpUse=  4 JSym2X=1
 FoFJK:  IHMeth= 1 ICntrl=       0 DoSepK=F KAlg= 0 I1Cent=           0 FoldK=F
 IRaf=         0 NMat=       1 IRICut=       1 DoRegI=T DoRafI=F ISym2E= 1 IDoP0=0 IntGTp=1.
 FoFCou: FMM=F IPFlag=           8 FMFlag=      100000 FMFlg1=           0
         NFxFlg=           0 DoJE=F BraDBF=F KetDBF=F FulRan=T
         wScrn=  0.000000 ICntrl=         0 IOpCl=  1 I1Cent=           0 NGrid=           0
         NMat0=    1 NMatS0=      1 NMatT0=    0 NMatD0=    1 NMtDS0=    0 NMtDT0=    0
 Petite list used in FoFCou.
 <Sx>= 0.0000 <Sy>= 0.0000 <Sz>= 0.0000 <S**2>= 0.0000 S= 0.0000
 Range of M.O.s used for correlation:     1   420
 NBasis=   428 NAE=    10 NBE=    10 NFC=     0 NFV=     0
 NROrb=    420 NOA=    10 NOB=    10 NVA=   410 NVB=   410

 **** Warning!!: The largest alpha MO coefficient is  0.17911030D+03


 **** Warning!!: The largest beta MO coefficient is  0.17911030D+03

 Singles contribution to E2=   -0.1001431354D-12
 Leave Link  801 at Sat May  5 22:01:20 2018, MaxMem= 10737418240 cpu:            1876.1 elap:              58.7
 (Enter /home1/apps/gaussian/16rA.03/g16/l804.exe)
 Open-shell transformation, MDV= 10737418240 ITran=4 ISComp=2.
 Unit  1 TFree=       5559581 TCopy=       3937808.
 Semi-Direct transformation.
 ModeAB=           2 MOrb=            10 LenV=   10732031150
 LASXX=     92246279 LTotXX=    92246279 LenRXX=    92246279
 LTotAB=    93071561 MaxLAS=   759784200 LenRXY=   759784200
 NonZer=   772577400 LenScr=  1163411456 LnRSAI=           0
 LnScr1=           0 LExtra=    28413601 Total=   2043855536
 MaxDsk= 67108864000 SrtSym=           F ITran=            4
 DoSDTr:  NPSUse= 32
 JobTyp=1 Pass  1:  I=   1 to  10.
 (rs|ai) integrals will be sorted in core.
 Complete sort for first half transformation.
 First half transformation complete.
 Begin second half transformation for I=  10.
 Begin second half transformation for I=  10.
 Complete sort for second half transformation.
 Second half transformation complete.
 ModeAB=           2 MOrb=            10 LenV=   10732031150
 LASXX=     92246279 LTotXX=    92246279 LenRXX=   759784200
 LTotAB=    88666064 MaxLAS=   759784200 LenRXY=    88666064
 NonZer=   772577400 LenScr=  1163411456 LnRSAI=           0
 LnScr1=           0 LExtra=   880444080 Total=   2892305800
 MaxDsk= 67108864000 SrtSym=           F ITran=            4
 DoSDTr:  NPSUse= 32
 JobTyp=2 Pass  1:  I=   1 to  10.
 (rs|ai) integrals will be sorted in core.
 Complete sort for first half transformation.
 First half transformation complete.
 Begin second half transformation for I=  10.
 Begin second half transformation for I=  10.
 Complete sort for second half transformation.
 Second half transformation complete.
 Spin components of T(2) and E(2):
     alpha-alpha T2 =       0.2469010371D-01 E2=     -0.1769089087D+00
     alpha-beta  T2 =       0.1066241774D+00 E2=     -0.8149236575D+00
     beta-beta   T2 =       0.2469010371D-01 E2=     -0.1769089087D+00
 ANorm=    0.1075176444D+01
 E2 =    -0.1168741475D+01 EUMP2 =    -0.19705598436812D+03
 (S**2,0)=  0.00000D+00           (S**2,1)=  0.00000D+00
 E(PUHF)=      -0.19588724289D+03        E(PMP2)=      -0.19705598437D+03
 Leave Link  804 at Sat May  5 22:36:47 2018, MaxMem= 10737418240 cpu:           68019.9 elap:            2126.4
 (Enter /home1/apps/gaussian/16rA.03/g16/l913.exe)
 CIDS:  MDV= 10737418240.
 IFCWin=0 IBDFC=1 NFBD=     0     0 NFCmp=     0     0 NFFFC=     0     0
 Using original routines for 1st iteration.
 Using DD4UQ or CC4UQ for 2nd and later iterations.
 Keep R2 and R3 ints in memory in symmetry-blocked form, NReq=5277887473.
 FoFCou: FMM=F IPFlag=           8 FMFlag=           0 FMFlg1=           0
         NFxFlg=           0 DoJE=F BraDBF=F KetDBF=F FulRan=T
         wScrn=  0.000000 ICntrl=       600 IOpCl=  0 I1Cent=           0 NGrid=           0
         NMat0=    1 NMatS0=  91806 NMatT0=    0 NMatD0=    1 NMtDS0=    0 NMtDT0=    0
 Petite list used in FoFCou.
 CIDS: In Core Option IDoMem=           1.
 CCSD(T)
 =======
 Iterations= 150 Convergence= 0.100D-06
 Produce multiple copies of IABC intergrals
 Iteration Nr.   1
 **********************
 DD1Dir will call FoFMem   1 times, MxPair=       290
 NAB=   100 NAA=    45 NBB=    45.
 DD1Dir will call FoFMem   1 times, MxPair=       290
 NAB=   100 NAA=    45 NBB=    45.
 MP4(R+Q)= -0.22477594D+00
 Maximum subspace dimension=  5
 A-vector RMS=  1.7564041D-05 Max=  2.0046658D-03 conv= 1.00D-05.
 RLE energy=       -1.1828235857
 E3=        0.21086149D+00        EROMP3=      -0.19684512288D+03
 E4(SDQ)=  -0.16047660D+00        ROMP4(SDQ)=  -0.19700559948D+03
 VARIATIONAL ENERGIES WITH THE FIRST-ORDER WAVEFUNCTION:
 DE(Corr)=  -1.1826559     E(Corr)=     -197.06989882    
 NORM(A)=   0.10773502D+01
 Iteration Nr.   2
 **********************
 DD1Dir will call FoFMem   1 times, MxPair=       290
 NAB=   100 NAA=    45 NBB=    45.
 A-vector RMS=  4.0705744D-03 Max=  3.5683794D-02 conv= 1.00D-05.
 RLE energy=       -1.1457388140
 DE(Corr)= -0.95760400     E(CORR)=     -196.84484689     Delta= 2.25D-01
 NORM(A)=   0.10704063D+01
 Iteration Nr.   3
 **********************
 DD1Dir will call FoFMem   1 times, MxPair=       290
 NAB=   100 NAA=    45 NBB=    45.
 A-vector RMS=  2.9417632D-03 Max=  2.4972013D-02 conv= 1.00D-05.
 RLE energy=       -1.0971552039
 DE(Corr)= -0.97648208     E(CORR)=     -196.86372498     Delta=-1.89D-02
 NORM(A)=   0.10653983D+01
 Iteration Nr.   4
 **********************
 DD1Dir will call FoFMem   1 times, MxPair=       290
 NAB=   100 NAA=    45 NBB=    45.
 A-vector RMS=  2.1826200D-03 Max=  1.9261625D-02 conv= 1.00D-05.
 RLE energy=       -0.9754195584
 DE(Corr)=  -1.0024991     E(CORR)=     -196.88974200     Delta=-2.60D-02
 NORM(A)=   0.10741210D+01
 Iteration Nr.   5
 **********************
 DD1Dir will call FoFMem   1 times, MxPair=       290
 NAB=   100 NAA=    45 NBB=    45.
 A-vector RMS=  1.9115368D-03 Max=  1.7265503D-02 conv= 1.00D-05.
 RLE energy=       -1.0191497413
 DE(Corr)=  -1.0844499     E(CORR)=     -196.97169275     Delta=-8.20D-02
 NORM(A)=   0.10806494D+01
 Iteration Nr.   6
 **********************
 DD1Dir will call FoFMem   1 times, MxPair=       290
 NAB=   100 NAA=    45 NBB=    45.
 A-vector RMS=  6.3594368D-04 Max=  5.7425397D-03 conv= 1.00D-05.
 RLE energy=       -1.0457026767
 DE(Corr)=  -1.0582091     E(CORR)=     -196.94545202     Delta= 2.62D-02
 NORM(A)=   0.10770608D+01
 Iteration Nr.   7
 **********************
 DD1Dir will call FoFMem   1 times, MxPair=       290
 NAB=   100 NAA=    45 NBB=    45.
 A-vector RMS=  1.9775177D-04 Max=  2.7611163D-03 conv= 1.00D-05.
 RLE energy=       -1.0421143381
 DE(Corr)=  -1.0406051     E(CORR)=     -196.92784801     Delta= 1.76D-02
 NORM(A)=   0.10781915D+01
 Iteration Nr.   8
 **********************
 DD1Dir will call FoFMem   1 times, MxPair=       290
 NAB=   100 NAA=    45 NBB=    45.
 A-vector RMS=  1.8020404D-04 Max=  3.2311739D-03 conv= 1.00D-05.
 RLE energy=       -1.0421274162
 DE(Corr)=  -1.0426873     E(CORR)=     -196.92993020     Delta=-2.08D-03
 NORM(A)=   0.10797796D+01
 Iteration Nr.   9
 **********************
 DD1Dir will call FoFMem   1 times, MxPair=       290
 NAB=   100 NAA=    45 NBB=    45.
 A-vector RMS=  9.1835511D-05 Max=  1.6442425D-03 conv= 1.00D-05.
 RLE energy=       -1.0424405762
 DE(Corr)=  -1.0424029     E(CORR)=     -196.92964575     Delta= 2.84D-04
 NORM(A)=   0.10814496D+01
 Iteration Nr.  10
 **********************
 DD1Dir will call FoFMem   1 times, MxPair=       290
 NAB=   100 NAA=    45 NBB=    45.
 A-vector RMS=  5.1754099D-05 Max=  9.5457895D-04 conv= 1.00D-05.
 RLE energy=       -1.0425157820
 DE(Corr)=  -1.0424642     E(CORR)=     -196.92970713     Delta=-6.14D-05
 NORM(A)=   0.10818088D+01
 Iteration Nr.  11
 **********************
 DD1Dir will call FoFMem   1 times, MxPair=       290
 NAB=   100 NAA=    45 NBB=    45.
 A-vector RMS=  3.8419682D-05 Max=  8.2977488D-04 conv= 1.00D-05.
 RLE energy=       -1.0423330460
 DE(Corr)=  -1.0424032     E(CORR)=     -196.92964608     Delta= 6.11D-05
 NORM(A)=   0.10819528D+01
 Iteration Nr.  12
 **********************
 DD1Dir will call FoFMem   1 times, MxPair=       290
 NAB=   100 NAA=    45 NBB=    45.
 A-vector RMS=  2.1694167D-05 Max=  3.0223387D-04 conv= 1.00D-05.
 RLE energy=       -1.0425453526
 DE(Corr)=  -1.0425372     E(CORR)=     -196.92978014     Delta=-1.34D-04
 NORM(A)=   0.10818817D+01
 Iteration Nr.  13
 **********************
 DD1Dir will call FoFMem   1 times, MxPair=       290
 NAB=   100 NAA=    45 NBB=    45.
 A-vector RMS=  1.1369743D-05 Max=  1.3471497D-04 conv= 1.00D-05.
 RLE energy=       -1.0424140849
 DE(Corr)=  -1.0423662     E(CORR)=     -196.92960906     Delta= 1.71D-04
 NORM(A)=   0.10818709D+01
 Iteration Nr.  14
 **********************
 DD1Dir will call FoFMem   1 times, MxPair=       290
 NAB=   100 NAA=    45 NBB=    45.
 A-vector RMS=  6.0448871D-06 Max=  7.0345960D-05 conv= 1.00D-05.
 RLE energy=       -1.0424398374
 DE(Corr)=  -1.0424624     E(CORR)=     -196.92970534     Delta=-9.63D-05
 NORM(A)=   0.10818546D+01
 Iteration Nr.  15
 **********************
 DD1Dir will call FoFMem   1 times, MxPair=       290
 NAB=   100 NAA=    45 NBB=    45.
 A-vector RMS=  3.7132903D-06 Max=  6.3732963D-05 conv= 1.00D-05.
 RLE energy=       -1.0424308397
 DE(Corr)=  -1.0424282     E(CORR)=     -196.92967108     Delta= 3.43D-05
 NORM(A)=   0.10818375D+01
 Iteration Nr.  16
 **********************
 DD1Dir will call FoFMem   1 times, MxPair=       290
 NAB=   100 NAA=    45 NBB=    45.
 A-vector RMS=  1.9929292D-06 Max=  3.4617166D-05 conv= 1.00D-05.
 RLE energy=       -1.0424305682
 DE(Corr)=  -1.0424322     E(CORR)=     -196.92967509     Delta=-4.01D-06
 NORM(A)=   0.10818249D+01
 Iteration Nr.  17
 **********************
 DD1Dir will call FoFMem   1 times, MxPair=       290
 NAB=   100 NAA=    45 NBB=    45.
 A-vector RMS=  1.4928380D-06 Max=  2.7182154D-05 conv= 1.00D-05.
 RLE energy=       -1.0424273801
 DE(Corr)=  -1.0424297     E(CORR)=     -196.92967258     Delta= 2.51D-06
 NORM(A)=   0.10818114D+01
 Iteration Nr.  18
 **********************
 DD1Dir will call FoFMem   1 times, MxPair=       290
 NAB=   100 NAA=    45 NBB=    45.
 A-vector RMS=  1.2379174D-06 Max=  2.3349214D-05 conv= 1.00D-05.
 RLE energy=       -1.0424305618
 DE(Corr)=  -1.0424300     E(CORR)=     -196.92967291     Delta=-3.33D-07
 NORM(A)=   0.10817944D+01
 Iteration Nr.  19
 **********************
 DD1Dir will call FoFMem   1 times, MxPair=       290
 NAB=   100 NAA=    45 NBB=    45.
 A-vector RMS=  7.9737251D-07 Max=  1.0590862D-05 conv= 1.00D-05.
 RLE energy=       -1.0424243716
 DE(Corr)=  -1.0424247     E(CORR)=     -196.92966757     Delta= 5.34D-06
 NORM(A)=   0.10817884D+01
 Iteration Nr.  20
 **********************
 DD1Dir will call FoFMem   1 times, MxPair=       290
 NAB=   100 NAA=    45 NBB=    45.
 A-vector RMS=  6.3440171D-07 Max=  9.7567240D-06 conv= 1.00D-05.
 RLE energy=       -1.0424286251
 DE(Corr)=  -1.0424301     E(CORR)=     -196.92967300     Delta=-5.43D-06
 NORM(A)=   0.10817828D+01
 Iteration Nr.  21
 **********************
 DD1Dir will call FoFMem   1 times, MxPair=       290
 NAB=   100 NAA=    45 NBB=    45.
 A-vector RMS=  4.0410897D-07 Max=  5.6523934D-06 conv= 1.00D-05.
 RLE energy=       -1.0424268771
 DE(Corr)=  -1.0424259     E(CORR)=     -196.92966878     Delta= 4.22D-06
 NORM(A)=   0.10817797D+01
 Iteration Nr.  22
 **********************
 DD1Dir will call FoFMem   1 times, MxPair=       290
 NAB=   100 NAA=    45 NBB=    45.
 A-vector RMS=  3.1846565D-07 Max=  4.4866758D-06 conv= 1.00D-05.
 RLE energy=       -1.0424270363
 DE(Corr)=  -1.0424274     E(CORR)=     -196.92967025     Delta=-1.47D-06
 NORM(A)=   0.10817780D+01
 Iteration Nr.  23
 **********************
 DD1Dir will call FoFMem   1 times, MxPair=       290
 NAB=   100 NAA=    45 NBB=    45.
 A-vector RMS=  2.3045522D-07 Max=  3.8784496D-06 conv= 1.00D-05.
 RLE energy=       -1.0424270717
 DE(Corr)=  -1.0424272     E(CORR)=     -196.92967014     Delta= 1.09D-07
 NORM(A)=   0.10817772D+01
 Iteration Nr.  24
 **********************
 DD1Dir will call FoFMem   1 times, MxPair=       290
 NAB=   100 NAA=    45 NBB=    45.
 A-vector RMS=  1.2196570D-07 Max=  1.5502193D-06 conv= 1.00D-05.
 RLE energy=       -1.0424273215
 DE(Corr)=  -1.0424272     E(CORR)=     -196.92967010     Delta= 3.41D-08
 NORM(A)=   0.10817768D+01
 CI/CC converged in   24 iterations to DelEn= 3.41D-08 Conv= 1.00D-07 ErrA1= 1.22D-07 Conv= 1.00D-05
 Wavefunction amplitudes converged. E(Corr)=     -196.92967010    
 Largest amplitude= 7.09D-02
 Time for triples=   192428.13 seconds.
 T4(CCSD)= -0.48628391D-01
 T5(CCSD)=  0.84025063D-02
 CCSD(T)= -0.19696989599D+03
 Discarding MO integrals.
 Leave Link  913 at Sun May  6 00:45:07 2018, MaxMem= 10737418240 cpu:          245184.6 elap:            7699.2
 (Enter /home1/apps/gaussian/16rA.03/g16/l601.exe)
 Copying SCF densities to generalized density rwf, IOpCl= 0 IROHF=1.

 **********************************************************************

            Population analysis using the SCF density.

 **********************************************************************

 Orbital symmetries:
       Occupied  (SG) (SG) (PI) (PI) (SG) (PI) (PI) (DLTA) (DLTA)
                 (SG)
       Virtual   (SG) (PI) (PI) (SG) (SG) (SG) (PI) (PI) (PI) (PI)
                 (SG) (DLTA) (DLTA) (SG) (SG) (PI) (PI) (SG) (PI)
                 (PI) (SG) (PI) (PI) (SG) (DLTA) (DLTA) (SG) (SG)
                 (DLTA) (DLTA) (SG) (PI) (PI) (PHI) (PHI) (PI)
                 (PI) (DLTA) (DLTA) (PI) (PI) (SG) (SG) (PI) (PI)
                 (DLTA) (DLTA) (SG) (SG) (SG) (PI) (PI) (PHI) (PHI)
                 (SG) (PI) (PI) (DLTA) (DLTA) (SG) (DLTA) (DLTA)
                 (PI) (PI) (?A) (?A) (PHI) (PHI) (SG) (DLTA) (DLTA)
                 (PI) (PI) (PHI) (PHI) (PI) (PI) (SG) (DLTA) (DLTA)
                 (SG) (PI) (PI) (SG) (PI) (PI) (DLTA) (DLTA) (SG)
                 (?A) (?A) (PI) (PI) (SG) (PHI) (PHI) (DLTA) (DLTA)
                 (SG) (PI) (PI) (SG) (PHI) (PHI) (SG) (DLTA) (DLTA)
                 (SG) (PI) (PI) (?B) (?B) (?A) (?A) (DLTA) (DLTA)
                 (PHI) (PHI) (PI) (PI) (SG) (DLTA) (DLTA) (PI)
                 (PI) (DLTA) (DLTA) (PHI) (PHI) (?A) (?A) (SG)
                 (PHI) (PHI) (PI) (PI) (SG) (DLTA) (DLTA) (PI)
                 (PI) (SG) (PI) (PI) (PI) (PI) (DLTA) (DLTA) (SG)
                 (SG) (PI) (PI) (SG) (SG) (SG) (DLTA) (DLTA) (PI)
                 (PI) (SG) (PHI) (PHI) (DLTA) (DLTA) (SG) (PI)
                 (PI) (PI) (PI) (PHI) (PHI) (DLTA) (DLTA) (?A)
                 (?A) (SG) (PHI) (PHI) (?B) (?B) (?A) (?A) (DLTA)
                 (DLTA) (PHI) (PHI) (DLTA) (DLTA) (PI) (PI) (?A)
                 (?A) (PHI) (PHI) (SG) (DLTA) (DLTA) (SG) (PI)
                 (PI) (DLTA) (DLTA) (PI) (PI) (SG) (PI) (PI) (PI)
                 (PI) (?B) (?B) (?A) (?A) (SG) (SG) (PHI) (PHI)
                 (SG) (DLTA) (DLTA) (SG) (PI) (PI) (PI) (PI) (SG)
                 (SG) (DLTA) (DLTA) (PI) (PI) (SG) (SG) (PHI) (PHI)
                 (DLTA) (DLTA) (PI) (PI) (SG) (?B) (?B) (?A) (?A)
                 (PHI) (PHI) (DLTA) (DLTA) (?A) (?A) (PHI) (PHI)
                 (PI) (PI) (DLTA) (DLTA) (SG) (PI) (PI) (SG) (PI)
                 (PI) (SG) (SG) (?B) (?B) (?A) (?A) (SG) (SG) (PHI)
                 (PHI) (DLTA) (DLTA) (PI) (PI) (SG) (DLTA) (DLTA)
                 (PI) (PI) (SG) (SG) (?A) (?A) (PHI) (PHI) (DLTA)
                 (DLTA) (PI) (PI) (SG) (?B) (?B) (PHI) (PHI) (?A)
                 (?A) (DLTA) (DLTA) (PHI) (PHI) (PI) (PI) (SG)
                 (DLTA) (DLTA) (PI) (PI) (SG) (DLTA) (DLTA) (PI)
                 (PI) (SG) (PI) (PI) (SG) (SG) (SG) (?B) (?B) (?A)
                 (?A) (PHI) (PHI) (DLTA) (DLTA) (PI) (PI) (SG)
                 (SG) (DLTA) (DLTA) (PI) (PI) (SG) (PI) (PI) (SG)
                 (SG) (DLTA) (DLTA) (PI) (PI) (SG) (SG) (PI) (PI)
                 (SG) (SG) (DLTA) (DLTA) (PI) (PI) (SG) (PI) (PI)
                 (SG) (SG) (SG) (PI) (PI) (SG) (DLTA) (DLTA) (PI)
                 (PI) (SG) (SG) (PI) (PI) (SG) (SG) (DLTA) (DLTA)
                 (PI) (PI) (SG) (PI) (PI) (SG) (SG) (SG) (PI) (PI)
                 (SG) (SG) (PI) (PI) (SG) (SG) (PI) (PI) (SG) (SG)
                 (PI) (PI) (SG) (SG) (SG) (PI) (PI) (SG) (SG) (SG)
                 (SG) (SG) (SG) (SG)
 The electronic state is 1-SG.
 Alpha  occ. eigenvalues --   -5.23225  -3.40341  -3.39754  -3.39754  -0.51742
 Alpha  occ. eigenvalues --   -0.50443  -0.50443  -0.50014  -0.50014  -0.34065
 Alpha virt. eigenvalues --    0.00227   0.02578   0.02578   0.02899   0.04454
 Alpha virt. eigenvalues --    0.07770   0.08651   0.08651   0.12077   0.12077
 Alpha virt. eigenvalues --    0.12094   0.12528   0.12528   0.15303   0.18665
 Alpha virt. eigenvalues --    0.23938   0.23938   0.24707   0.27648   0.27648
 Alpha virt. eigenvalues --    0.36026   0.38845   0.38845   0.39228   0.39235
 Alpha virt. eigenvalues --    0.39235   0.44965   0.55500   0.59418   0.59418
 Alpha virt. eigenvalues --    0.61947   0.63367   0.63367   0.69063   0.69063
 Alpha virt. eigenvalues --    0.72504   0.72504   0.78806   0.78806   0.79934
 Alpha virt. eigenvalues --    0.79934   0.86716   0.90093   0.95909   0.95909
 Alpha virt. eigenvalues --    1.02871   1.02871   1.05483   1.13615   1.28640
 Alpha virt. eigenvalues --    1.28908   1.28908   1.29055   1.29055   1.45297
 Alpha virt. eigenvalues --    1.46815   1.46815   1.51597   1.51597   1.73104
 Alpha virt. eigenvalues --    1.83551   1.83551   1.92529   1.92529   2.07846
 Alpha virt. eigenvalues --    2.07846   2.09137   2.09137   2.12782   2.16476
 Alpha virt. eigenvalues --    2.16476   2.19524   2.19524   2.24833   2.24833
 Alpha virt. eigenvalues --    2.27406   2.27406   2.35816   2.45173   2.45173
 Alpha virt. eigenvalues --    2.46540   2.59350   2.59350   2.62395   2.74321
 Alpha virt. eigenvalues --    2.74321   2.77498   2.77498   2.89217   3.03613
 Alpha virt. eigenvalues --    3.03613   3.23727   3.23727   3.38236   3.41861
 Alpha virt. eigenvalues --    3.41861   3.61521   3.61521   3.61631   3.65275
 Alpha virt. eigenvalues --    3.65275   3.70809   4.21676   4.21676   4.54957
 Alpha virt. eigenvalues --    4.55752   4.55752   4.81929   4.91174   4.91174
 Alpha virt. eigenvalues --    5.21422   5.21422   5.29542   5.29542   5.31923
 Alpha virt. eigenvalues --    5.31923   5.36051   5.36051   5.43956   5.43956
 Alpha virt. eigenvalues --    5.45449   5.45935   5.45935   5.60411   5.60411
 Alpha virt. eigenvalues --    5.61167   5.61167   5.78000   5.78000   5.81515
 Alpha virt. eigenvalues --    5.81515   5.83247   5.90199   5.90199   5.92204
 Alpha virt. eigenvalues --    5.92204   6.04151   6.07102   6.07102   6.12723
 Alpha virt. eigenvalues --    6.12723   6.24235   6.31890   6.31890   6.84454
 Alpha virt. eigenvalues --    6.84454   6.84597   6.84597   7.03195   8.06725
 Alpha virt. eigenvalues --    8.10712   8.10712   8.53000   9.86805  10.87988
 Alpha virt. eigenvalues --   11.38478  11.38478  11.44297  11.44297  11.64602
 Alpha virt. eigenvalues --   12.35542  12.35542  12.43490  12.43490  12.53277
 Alpha virt. eigenvalues --   12.63961  12.63961  12.86913  12.86913  12.99139
 Alpha virt. eigenvalues --   12.99139  13.15305  13.15305  13.22662  13.22662
 Alpha virt. eigenvalues --   13.23761  13.26600  13.26600  13.29829  13.29829
 Alpha virt. eigenvalues --   13.33811  13.33811  13.43679  13.43679  13.53665
 Alpha virt. eigenvalues --   13.53665  13.75229  13.75229  13.81351  13.81351
 Alpha virt. eigenvalues --   14.06309  14.06309  14.12688  14.12688  14.13128
 Alpha virt. eigenvalues --   14.20429  14.20429  14.38966  14.40576  14.40576
 Alpha virt. eigenvalues --   14.44354  14.44354  14.51220  14.51220  14.73934
 Alpha virt. eigenvalues --   14.99280  14.99280  15.19472  15.19472  15.86389
 Alpha virt. eigenvalues --   15.86389  15.86469  15.86469  15.86680  15.86680
 Alpha virt. eigenvalues --   15.91846  15.91846  15.97251  16.44389  16.44389
 Alpha virt. eigenvalues --   16.92560  17.38960  17.38960  18.02922  18.02922
 Alpha virt. eigenvalues --   18.71142  19.22263  22.11766  22.11766  22.25749
 Alpha virt. eigenvalues --   22.25749  22.41483  23.28133  28.48924  28.48924
 Alpha virt. eigenvalues --   28.60070  28.60070  28.92437  28.92437  29.89575
 Alpha virt. eigenvalues --   30.39150  30.39150  30.40902  30.40902  30.51445
 Alpha virt. eigenvalues --   30.51445  30.64154  30.64154  30.66658  30.66658
 Alpha virt. eigenvalues --   30.70314  30.70314  30.73699  30.73699  30.85250
 Alpha virt. eigenvalues --   30.85250  31.05867  31.29756  31.29756  31.58532
 Alpha virt. eigenvalues --   33.13111  33.13111  34.34193  34.46467  36.57721
 Alpha virt. eigenvalues --   36.57721  36.57761  36.57761  36.57764  36.57764
 Alpha virt. eigenvalues --   36.59497  36.59497  36.71944  36.71944  37.06455
 Alpha virt. eigenvalues --   37.06455  37.24588  39.97212  39.97212  40.09273
 Alpha virt. eigenvalues --   40.09273  40.44854  52.22870  65.10364  65.10364
 Alpha virt. eigenvalues --   65.13005  65.13005  65.22527  65.22527  65.53936
 Alpha virt. eigenvalues --   65.53936  65.73770  66.27739  66.27739  66.28532
 Alpha virt. eigenvalues --   66.28532  66.29112  66.29112  66.31425  66.31425
 Alpha virt. eigenvalues --   66.36750  66.36750  66.39599  66.39599  66.43804
 Alpha virt. eigenvalues --   66.51434  66.51434  66.71568  66.71568  67.31517
 Alpha virt. eigenvalues --   68.30716  68.30716  68.42591  68.42591  68.82108
 Alpha virt. eigenvalues --   69.76935  69.76935  70.89124  78.01168  78.01168
 Alpha virt. eigenvalues --   78.01449  78.01449  78.01615  78.01615  78.02571
 Alpha virt. eigenvalues --   78.02571  78.08806  78.08806  78.25978  78.25978
 Alpha virt. eigenvalues --   78.30723 111.01291 113.57783 113.57783 113.68420
 Alpha virt. eigenvalues --  113.68420 114.00623 138.61692 138.61692 139.47725
 Alpha virt. eigenvalues --  139.96431 195.49310 195.49310 195.59169 195.59169
 Alpha virt. eigenvalues --  195.80326 206.94534 260.36812 260.36812 261.15479
 Alpha virt. eigenvalues --  346.95844 390.18108 390.18108 390.26442 390.26442
 Alpha virt. eigenvalues --  390.46531 476.52865 476.52865 477.27515 586.76314
 Alpha virt. eigenvalues --  817.52371 875.15174 875.15174 875.86726 970.40436
 Alpha virt. eigenvalues --  970.40436 970.46779 970.46779 970.622221020.73674
 Alpha virt. eigenvalues -- 1643.042501643.042501643.722461827.012793093.76520
 Alpha virt. eigenvalues -- 3093.765203093.807013093.807013093.911263201.65121
 Alpha virt. eigenvalues -- 3201.651213202.285443378.888956467.904776567.64471
 Alpha virt. eigenvalues -- 6567.644716568.22465******************************
 Alpha virt. eigenvalues -- **************************************************
 Alpha virt. eigenvalues -- **************************************************
 Alpha virt. eigenvalues -- **************************************************
 Alpha virt. eigenvalues -- **************************************************
     Molecular Orbital Coefficients:
                           6         7         8         9        10
                           O         O         O         O         O
     Eigenvalues --    -0.50443  -0.50443  -0.50014  -0.50014  -0.34065
   1 1   Cu 1S          0.00000   0.00000   0.00000   0.00000   0.00000
   2        2S          0.00000   0.00000  -0.00000   0.00000  -0.00000
   3        3S          0.00000   0.00000   0.00000   0.00000   0.00000
   4        4S          0.00000   0.00000  -0.00000   0.00000  -0.00000
   5        5S          0.00000   0.00000   0.00000   0.00000   0.00000
   6        6S          0.00000   0.00000  -0.00000   0.00000  -0.00000
   7        7S          0.00000   0.00000   0.00000   0.00000   0.00000
   8        8S          0.00000   0.00000  -0.00000   0.00000  -0.00000
   9        9S          0.00000   0.00000   0.00000   0.00000   0.00000
  10       10S          0.00000   0.00000  -0.00000   0.00000  -0.00000
  11       11S          0.00000   0.00000   0.00000   0.00000   0.00000
  12       12S          0.00000   0.00000  -0.00000   0.00000  -0.00001
  13       13S          0.00000   0.00000   0.00000   0.00000   0.00001
  14       14S          0.00000   0.00000  -0.00000   0.00000  -0.00004
  15       15S          0.00000   0.00000   0.00000   0.00000   0.00010
  16       16S          0.00000   0.00000  -0.00000   0.00000  -0.00037
  17       17S          0.00000   0.00000   0.00000   0.00000   0.00280
  18       18S          0.00000   0.00000  -0.00000   0.00000  -0.01834
  19       19S          0.00000   0.00000   0.00000   0.00000   0.02509
  20       20S          0.00000   0.00000   0.00000   0.00000   0.02925
  21       21S          0.00000   0.00000   0.00000   0.00000   0.00422
  22       22S          0.00000   0.00000  -0.00000   0.00000  -0.05857
  23       23S          0.00000   0.00000  -0.00000   0.00000  -0.14646
  24       24S          0.00000   0.00000  -0.00000   0.00000  -0.09901
  25       25S          0.00000   0.00000  -0.00000   0.00000   0.06597
  26       26S          0.00000   0.00000   0.00000   0.00000   0.21545
  27       27S          0.00000   0.00000   0.00000   0.00000   0.20206
  28       28S          0.00000   0.00000   0.00000   0.00000   0.03806
  29       29S          0.00000   0.00000   0.00000   0.00000   0.02907
  30       30S          0.00000   0.00000  -0.00000   0.00000  -0.03600
  31       31S          0.00000   0.00000   0.00000   0.00000  -0.00424
  32       32PX         0.00000   0.00000   0.00000   0.00000   0.00000
  33       32PY         0.00000   0.00000   0.00000   0.00000   0.00000
  34       32PZ         0.00000   0.00000   0.00000   0.00000  -0.00000
  35       33PX         0.00000  -0.00000   0.00000   0.00000   0.00000
  36       33PY        -0.00000   0.00000   0.00000   0.00000   0.00000
  37       33PZ         0.00000   0.00000  -0.00000   0.00000   0.00000
  38       34PX         0.00000   0.00000   0.00000   0.00000   0.00000
  39       34PY         0.00000   0.00000   0.00000   0.00000   0.00000
  40       34PZ         0.00000   0.00000   0.00000   0.00000  -0.00000
  41       35PX         0.00000  -0.00000   0.00000   0.00000   0.00000
  42       35PY        -0.00000   0.00000   0.00000   0.00000   0.00000
  43       35PZ         0.00000   0.00000  -0.00000   0.00000   0.00000
  44       36PX         0.00000   0.00000   0.00000   0.00000   0.00000
  45       36PY         0.00000   0.00000   0.00000   0.00000   0.00000
  46       36PZ         0.00000   0.00000   0.00000   0.00000  -0.00000
  47       37PX         0.00000  -0.00000   0.00000   0.00000   0.00000
  48       37PY        -0.00000   0.00000   0.00000   0.00000   0.00000
  49       37PZ         0.00000   0.00000  -0.00000   0.00000   0.00000
  50       38PX         0.00000   0.00000   0.00000   0.00000   0.00000
  51       38PY         0.00000   0.00000   0.00000   0.00000   0.00000
  52       38PZ         0.00000   0.00000   0.00000   0.00000  -0.00000
  53       39PX         0.00000  -0.00001   0.00000   0.00000   0.00000
  54       39PY        -0.00001   0.00000   0.00000   0.00000   0.00000
  55       39PZ         0.00000   0.00000  -0.00000   0.00000   0.00001
  56       40PX         0.00000   0.00002   0.00000   0.00000   0.00000
  57       40PY         0.00002   0.00000   0.00000   0.00000   0.00000
  58       40PZ         0.00000   0.00000   0.00000   0.00000  -0.00005
  59       41PX         0.00000  -0.00012   0.00000   0.00000   0.00000
  60       41PY        -0.00012   0.00000   0.00000   0.00000   0.00000
  61       41PZ         0.00000   0.00000   0.00000   0.00000   0.00067
  62       42PX         0.00000   0.00041   0.00000   0.00000   0.00000
  63       42PY         0.00041   0.00000   0.00000   0.00000   0.00000
  64       42PZ         0.00000   0.00000  -0.00000   0.00000  -0.00279
  65       43PX         0.00000   0.00031   0.00000   0.00000   0.00000
  66       43PY         0.00031   0.00000   0.00000   0.00000   0.00000
  67       43PZ         0.00000   0.00000  -0.00000   0.00000  -0.00295
  68       44PX         0.00000  -0.00006   0.00000   0.00000   0.00000
  69       44PY        -0.00006   0.00000   0.00000   0.00000   0.00000
  70       44PZ         0.00000   0.00000   0.00000   0.00000   0.00280
  71       45PX         0.00000  -0.00179   0.00000   0.00000   0.00000
  72       45PY        -0.00179   0.00000   0.00000   0.00000   0.00000
  73       45PZ         0.00000   0.00000   0.00000   0.00000   0.01488
  74       46PX         0.00000  -0.00455   0.00000   0.00000   0.00000
  75       46PY        -0.00455   0.00000   0.00000   0.00000   0.00000
  76       46PZ         0.00000   0.00000   0.00000   0.00000   0.03921
  77       47PX         0.00000  -0.00499   0.00000   0.00000   0.00000
  78       47PY        -0.00499   0.00000   0.00000   0.00000   0.00000
  79       47PZ         0.00000   0.00000   0.00000   0.00000   0.03531
  80       48PX         0.00000   0.00409   0.00000   0.00000   0.00000
  81       48PY         0.00409   0.00000   0.00000   0.00000   0.00000
  82       48PZ         0.00000   0.00000   0.00000   0.00000  -0.00106
  83       49PX         0.00000   0.01238   0.00000   0.00000   0.00000
  84       49PY         0.01238   0.00000   0.00000   0.00000   0.00000
  85       49PZ         0.00000   0.00000  -0.00000   0.00000  -0.05003
  86       50PX         0.00000   0.00336   0.00000   0.00000   0.00000
  87       50PY         0.00336   0.00000   0.00000   0.00000   0.00000
  88       50PZ         0.00000   0.00000  -0.00000   0.00000  -0.05665
  89       51PX         0.00000  -0.00050   0.00000   0.00000   0.00000
  90       51PY        -0.00050   0.00000   0.00000   0.00000   0.00000
  91       51PZ         0.00000   0.00000  -0.00000   0.00000  -0.01200
  92       52PX         0.00000   0.00030   0.00000   0.00000   0.00000
  93       52PY         0.00030   0.00000   0.00000   0.00000   0.00000
  94       52PZ         0.00000   0.00000  -0.00000   0.00000  -0.00297
  95       53PX         0.00000  -0.00208   0.00000   0.00000   0.00000
  96       53PY        -0.00208   0.00000   0.00000   0.00000   0.00000
  97       53PZ         0.00000   0.00000   0.00000   0.00000   0.01302
  98       54PX         0.00000   0.00011   0.00000   0.00000   0.00000
  99       54PY         0.00011   0.00000   0.00000   0.00000   0.00000
 100       54PZ         0.00000   0.00000  -0.00000   0.00000   0.00129
 101       55D 0        0.00000   0.00000   0.00000   0.00000  -0.00001
 102       55D+1        0.00000   0.00002   0.00000   0.00000   0.00000
 103       55D-1        0.00002   0.00000   0.00000   0.00000   0.00000
 104       55D+2        0.00000   0.00000   0.00002   0.00000   0.00000
 105       55D-2        0.00000   0.00000   0.00000   0.00002   0.00000
 106       56D 0        0.00000   0.00000  -0.00000   0.00000   0.00005
 107       56D+1        0.00000  -0.00013   0.00000   0.00000   0.00000
 108       56D-1       -0.00013   0.00000   0.00000   0.00000   0.00000
 109       56D+2        0.00000   0.00000  -0.00013   0.00000  -0.00000
 110       56D-2        0.00000   0.00000   0.00000  -0.00013   0.00000
 111       57D 0        0.00000   0.00000   0.00000   0.00000  -0.00129
 112       57D+1        0.00000   0.00311   0.00000   0.00000   0.00000
 113       57D-1        0.00311   0.00000   0.00000   0.00000   0.00000
 114       57D+2        0.00000   0.00000   0.00312   0.00000   0.00000
 115       57D-2        0.00000   0.00000   0.00000   0.00312   0.00000
 116       58D 0        0.00000   0.00000   0.00000   0.00000  -0.01308
 117       58D+1        0.00000   0.03154   0.00000   0.00000   0.00000
 118       58D-1        0.03154   0.00000   0.00000   0.00000   0.00000
 119       58D+2        0.00000   0.00000   0.03168   0.00000   0.00000
 120       58D-2        0.00000   0.00000   0.00000   0.03168   0.00000
 121       59D 0        0.00000   0.00000   0.00000   0.00000  -0.02820
 122       59D+1        0.00000   0.06801   0.00000   0.00000   0.00000
 123       59D-1        0.06801   0.00000   0.00000   0.00000   0.00000
 124       59D+2        0.00000   0.00000   0.06829   0.00000   0.00000
 125       59D-2        0.00000   0.00000   0.00000   0.06829   0.00000
 126       60D 0        0.00000   0.00000   0.00000   0.00000  -0.05273
 127       60D+1        0.00000   0.12735   0.00000   0.00000   0.00000
 128       60D-1        0.12735   0.00000   0.00000   0.00000   0.00000
 129       60D+2        0.00000   0.00000   0.12739   0.00000   0.00000
 130       60D-2        0.00000   0.00000   0.00000   0.12739   0.00000
 131       61D 0        0.00000   0.00000   0.00000   0.00000  -0.09691
 132       61D+1        0.00000   0.23401   0.00000   0.00000   0.00000
 133       61D-1        0.23401   0.00000   0.00000   0.00000   0.00000
 134       61D+2        0.00000   0.00000   0.23473   0.00000   0.00000
 135       61D-2        0.00000   0.00000   0.00000   0.23473   0.00000
 136       62D 0        0.00000   0.00000   0.00000   0.00000  -0.11684
 137       62D+1        0.00000   0.28147   0.00000   0.00000   0.00000
 138       62D-1        0.28147   0.00000   0.00000   0.00000   0.00000
 139       62D+2        0.00000   0.00000   0.28270   0.00000   0.00000
 140       62D-2        0.00000   0.00000   0.00000   0.28270   0.00000
 141       63D 0        0.00000   0.00000   0.00000   0.00000  -0.10873
 142       63D+1        0.00000   0.26349   0.00000   0.00000   0.00000
 143       63D-1        0.26349   0.00000   0.00000   0.00000   0.00000
 144       63D+2        0.00000   0.00000   0.26401   0.00000   0.00000
 145       63D-2        0.00000   0.00000   0.00000   0.26401   0.00000
 146       64D 0        0.00000   0.00000   0.00000   0.00000  -0.08308
 147       64D+1        0.00000   0.20332   0.00000   0.00000   0.00000
 148       64D-1        0.20332   0.00000   0.00000   0.00000   0.00000
 149       64D+2        0.00000   0.00000   0.20362   0.00000   0.00000
 150       64D-2        0.00000   0.00000   0.00000   0.20362   0.00000
 151       65D 0        0.00000   0.00000   0.00000   0.00000  -0.05099
 152       65D+1        0.00000   0.11701   0.00000   0.00000   0.00000
 153       65D-1        0.11701   0.00000   0.00000   0.00000   0.00000
 154       65D+2        0.00000   0.00000   0.11644   0.00000   0.00000
 155       65D-2        0.00000   0.00000   0.00000   0.11644   0.00000
 156       66D 0        0.00000   0.00000   0.00000   0.00000  -0.01711
 157       66D+1        0.00000   0.03233   0.00000   0.00000   0.00000
 158       66D-1        0.03233   0.00000   0.00000   0.00000   0.00000
 159       66D+2        0.00000   0.00000   0.03142   0.00000   0.00000
 160       66D-2        0.00000   0.00000   0.00000   0.03142   0.00000
 161       67D 0        0.00000   0.00000   0.00000   0.00000  -0.00759
 162       67D+1        0.00000   0.01817   0.00000   0.00000   0.00000
 163       67D-1        0.01817   0.00000   0.00000   0.00000   0.00000
 164       67D+2        0.00000   0.00000   0.01854   0.00000   0.00000
 165       67D-2        0.00000   0.00000   0.00000   0.01854   0.00000
 166       68D 0        0.00000   0.00000   0.00000   0.00000  -0.00644
 167       68D+1        0.00000   0.01531   0.00000   0.00000   0.00000
 168       68D-1        0.01531   0.00000   0.00000   0.00000   0.00000
 169       68D+2        0.00000   0.00000   0.01588   0.00000   0.00000
 170       68D-2        0.00000   0.00000   0.00000   0.01588   0.00000
 171       69D 0        0.00000   0.00000   0.00000   0.00000  -0.00110
 172       69D+1        0.00000   0.00071   0.00000   0.00000   0.00000
 173       69D-1        0.00071   0.00000   0.00000   0.00000   0.00000
 174       69D+2        0.00000   0.00000   0.00034   0.00000  -0.00000
 175       69D-2        0.00000   0.00000   0.00000   0.00034   0.00000
 176       70F 0        0.00000   0.00000   0.00000   0.00000  -0.00006
 177       70F+1        0.00000   0.00007   0.00000   0.00000   0.00000
 178       70F-1        0.00007   0.00000   0.00000   0.00000   0.00000
 179       70F+2        0.00000   0.00000   0.00006   0.00000   0.00000
 180       70F-2        0.00000   0.00000   0.00000   0.00006   0.00000
 181       70F+3        0.00000  -0.00000   0.00000   0.00000   0.00000
 182       70F-3        0.00000   0.00000   0.00000   0.00000   0.00000
 183       71F 0        0.00000   0.00000   0.00000   0.00000  -0.00033
 184       71F+1        0.00000   0.00030   0.00000   0.00000   0.00000
 185       71F-1        0.00030   0.00000   0.00000   0.00000   0.00000
 186       71F+2        0.00000   0.00000   0.00027   0.00000  -0.00000
 187       71F-2        0.00000   0.00000   0.00000   0.00027   0.00000
 188       71F+3        0.00000  -0.00000   0.00000   0.00000   0.00000
 189       71F-3        0.00000   0.00000   0.00000   0.00000   0.00000
 190       72F 0        0.00000   0.00000   0.00000   0.00000  -0.00063
 191       72F+1        0.00000   0.00066   0.00000   0.00000   0.00000
 192       72F-1        0.00066   0.00000   0.00000   0.00000   0.00000
 193       72F+2        0.00000   0.00000   0.00052   0.00000   0.00000
 194       72F-2        0.00000   0.00000   0.00000   0.00052   0.00000
 195       72F+3        0.00000  -0.00000   0.00000   0.00000   0.00000
 196       72F-3        0.00000   0.00000   0.00000   0.00000   0.00000
 197       73F 0        0.00000   0.00000   0.00000   0.00000  -0.00281
 198       73F+1        0.00000   0.00208   0.00000   0.00000   0.00000
 199       73F-1        0.00208   0.00000   0.00000   0.00000   0.00000
 200       73F+2        0.00000   0.00000   0.00188   0.00000  -0.00000
 201       73F-2        0.00000   0.00000   0.00000   0.00188   0.00000
 202       73F+3        0.00000  -0.00000   0.00000   0.00000   0.00000
 203       73F-3        0.00000   0.00000   0.00000   0.00000   0.00000
 204       74F 0        0.00000   0.00000   0.00000   0.00000  -0.00635
 205       74F+1        0.00000   0.00573   0.00000   0.00000   0.00000
 206       74F-1        0.00573   0.00000   0.00000   0.00000   0.00000
 207       74F+2        0.00000   0.00000   0.00530   0.00000   0.00000
 208       74F-2        0.00000   0.00000   0.00000   0.00530   0.00000
 209       74F+3        0.00000  -0.00000   0.00000   0.00000   0.00000
 210       74F-3        0.00000   0.00000   0.00000   0.00000   0.00000
 211       75F 0        0.00000   0.00000   0.00000   0.00000  -0.00508
 212       75F+1        0.00000   0.00423   0.00000   0.00000   0.00000
 213       75F-1        0.00423   0.00000   0.00000   0.00000   0.00000
 214       75F+2        0.00000   0.00000   0.00406   0.00000  -0.00000
 215       75F-2        0.00000   0.00000   0.00000   0.00406   0.00000
 216       75F+3        0.00000  -0.00000   0.00000   0.00000   0.00000
 217       75F-3       -0.00000   0.00000   0.00000   0.00000   0.00000
 218       76G 0        0.00000   0.00000  -0.00000   0.00000   0.00001
 219       76G+1        0.00000  -0.00001   0.00000   0.00000   0.00000
 220       76G-1       -0.00001   0.00000   0.00000   0.00000   0.00000
 221       76G+2        0.00000   0.00000   0.00000   0.00000   0.00000
 222       76G-2        0.00000   0.00000   0.00000   0.00000   0.00000
 223       76G+3        0.00000   0.00000   0.00000   0.00000   0.00000
 224       76G-3       -0.00000   0.00000   0.00000   0.00000   0.00000
 225       76G+4        0.00000   0.00000   0.00000   0.00000  -0.00000
 226       76G-4        0.00000   0.00000   0.00000  -0.00000   0.00000
 227       77G 0        0.00000   0.00000  -0.00000   0.00000  -0.00001
 228       77G+1        0.00000  -0.00001   0.00000   0.00000   0.00000
 229       77G-1       -0.00001   0.00000   0.00000   0.00000   0.00000
 230       77G+2        0.00000   0.00000  -0.00000   0.00000  -0.00000
 231       77G-2        0.00000   0.00000   0.00000  -0.00000   0.00000
 232       77G+3        0.00000   0.00000   0.00000   0.00000   0.00000
 233       77G-3       -0.00000   0.00000   0.00000   0.00000   0.00000
 234       77G+4        0.00000   0.00000  -0.00000   0.00000   0.00000
 235       77G-4        0.00000   0.00000   0.00000   0.00000   0.00000
 236       78G 0        0.00000   0.00000   0.00000   0.00000   0.00007
 237       78G+1        0.00000   0.00013   0.00000   0.00000   0.00000
 238       78G-1        0.00013   0.00000   0.00000   0.00000   0.00000
 239       78G+2        0.00000   0.00000   0.00012   0.00000   0.00000
 240       78G-2        0.00000   0.00000   0.00000   0.00012   0.00000
 241       78G+3        0.00000  -0.00000   0.00000   0.00000   0.00000
 242       78G-3        0.00000   0.00000   0.00000   0.00000   0.00000
 243       78G+4        0.00000   0.00000   0.00000   0.00000  -0.00000
 244       78G-4        0.00000   0.00000   0.00000  -0.00000   0.00000
 245       79G 0        0.00000   0.00000   0.00000   0.00000   0.00014
 246       79G+1        0.00000   0.00071   0.00000   0.00000   0.00000
 247       79G-1        0.00071   0.00000   0.00000   0.00000   0.00000
 248       79G+2        0.00000   0.00000   0.00037   0.00000  -0.00000
 249       79G-2        0.00000   0.00000   0.00000   0.00037   0.00000
 250       79G+3        0.00000  -0.00000   0.00000   0.00000   0.00000
 251       79G-3        0.00000   0.00000   0.00000   0.00000   0.00000
 252       79G+4        0.00000   0.00000   0.00000   0.00000   0.00000
 253       79G-4        0.00000   0.00000   0.00000   0.00000   0.00000
 254       80G 0        0.00000   0.00000   0.00000   0.00000   0.00010
 255       80G+1        0.00000   0.00049   0.00000   0.00000   0.00000
 256       80G-1        0.00049   0.00000   0.00000   0.00000   0.00000
 257       80G+2        0.00000   0.00000   0.00019   0.00000   0.00000
 258       80G-2        0.00000   0.00000   0.00000   0.00019   0.00000
 259       80G+3        0.00000  -0.00000   0.00000   0.00000   0.00000
 260       80G-3        0.00000   0.00000   0.00000   0.00000   0.00000
 261       80G+4        0.00000   0.00000   0.00000   0.00000  -0.00000
 262       80G-4        0.00000   0.00000   0.00000  -0.00000   0.00000
 263       81H 0        0.00000   0.00000  -0.00000   0.00000   0.00001
 264       81H+1        0.00000  -0.00001   0.00000   0.00000   0.00000
 265       81H-1       -0.00001   0.00000   0.00000   0.00000   0.00000
 266       81H+2        0.00000   0.00000  -0.00001   0.00000  -0.00000
 267       81H-2        0.00000   0.00000   0.00000  -0.00001   0.00000
 268       81H+3        0.00000   0.00000   0.00000   0.00000   0.00000
 269       81H-3       -0.00000   0.00000   0.00000   0.00000   0.00000
 270       81H+4        0.00000   0.00000   0.00000   0.00000  -0.00000
 271       81H-4        0.00000   0.00000   0.00000   0.00000   0.00000
 272       81H+5        0.00000   0.00000   0.00000   0.00000   0.00000
 273       81H-5       -0.00000   0.00000   0.00000   0.00000   0.00000
 274       82H 0        0.00000   0.00000   0.00000   0.00000   0.00000
 275       82H+1        0.00000   0.00000   0.00000   0.00000   0.00000
 276       82H-1        0.00000   0.00000   0.00000   0.00000   0.00000
 277       82H+2        0.00000   0.00000  -0.00001   0.00000   0.00000
 278       82H-2        0.00000   0.00000   0.00000  -0.00001   0.00000
 279       82H+3        0.00000  -0.00000   0.00000   0.00000   0.00000
 280       82H-3        0.00000   0.00000   0.00000   0.00000   0.00000
 281       82H+4        0.00000   0.00000  -0.00000   0.00000   0.00000
 282       82H-4        0.00000   0.00000   0.00000   0.00000   0.00000
 283       82H+5        0.00000  -0.00000   0.00000   0.00000   0.00000
 284       82H-5        0.00000   0.00000   0.00000   0.00000   0.00000
 285       83H 0        0.00000   0.00000  -0.00000   0.00000  -0.00004
 286       83H+1        0.00000  -0.00005   0.00000   0.00000   0.00000
 287       83H-1       -0.00005   0.00000   0.00000   0.00000   0.00000
 288       83H+2        0.00000   0.00000  -0.00000   0.00000  -0.00000
 289       83H-2        0.00000   0.00000   0.00000  -0.00000   0.00000
 290       83H+3        0.00000   0.00000   0.00000   0.00000   0.00000
 291       83H-3        0.00000   0.00000   0.00000   0.00000   0.00000
 292       83H+4        0.00000   0.00000   0.00000   0.00000  -0.00000
 293       83H-4        0.00000   0.00000   0.00000   0.00000   0.00000
 294       83H+5        0.00000  -0.00000   0.00000   0.00000   0.00000
 295       83H-5       -0.00000   0.00000   0.00000   0.00000   0.00000
 296       84H 0        0.00000   0.00000  -0.00000   0.00000   0.00002
 297       84H+1        0.00000  -0.00013   0.00000   0.00000   0.00000
 298       84H-1       -0.00013   0.00000   0.00000   0.00000   0.00000
 299       84H+2        0.00000   0.00000  -0.00005   0.00000  -0.00000
 300       84H-2        0.00000   0.00000   0.00000  -0.00005   0.00000
 301       84H+3        0.00000   0.00000   0.00000   0.00000   0.00000
 302       84H-3        0.00000   0.00000   0.00000   0.00000   0.00000
 303       84H+4        0.00000   0.00000  -0.00000   0.00000   0.00000
 304       84H-4        0.00000   0.00000   0.00000   0.00000   0.00000
 305       84H+5        0.00000   0.00000   0.00000   0.00000   0.00000
 306       84H-5        0.00000   0.00000   0.00000   0.00000   0.00000
 307       85I 0        0.00000   0.00000   0.00000   0.00000  -0.00001
 308       85I+1        0.00000   0.00002   0.00000   0.00000   0.00000
 309       85I-1        0.00002   0.00000   0.00000   0.00000   0.00000
 310       85I+2        0.00000   0.00000   0.00001   0.00000  -0.00000
 311       85I-2        0.00000   0.00000   0.00000   0.00001   0.00000
 312       85I+3        0.00000   0.00000   0.00000   0.00000   0.00000
 313       85I-3       -0.00000   0.00000   0.00000   0.00000   0.00000
 314       85I+4        0.00000   0.00000  -0.00000   0.00000  -0.00000
 315       85I-4        0.00000   0.00000   0.00000  -0.00000   0.00000
 316       85I+5        0.00000  -0.00000   0.00000   0.00000   0.00000
 317       85I-5        0.00000   0.00000   0.00000   0.00000   0.00000
 318       85I+6        0.00000   0.00000   0.00000   0.00000   0.00000
 319       85I-6        0.00000   0.00000   0.00000  -0.00000   0.00000
 320       86I 0        0.00000   0.00000  -0.00000   0.00000   0.00002
 321       86I+1        0.00000  -0.00002   0.00000   0.00000   0.00000
 322       86I-1       -0.00002   0.00000   0.00000   0.00000   0.00000
 323       86I+2        0.00000   0.00000  -0.00001   0.00000   0.00000
 324       86I-2        0.00000   0.00000   0.00000  -0.00001   0.00000
 325       86I+3        0.00000  -0.00000   0.00000   0.00000   0.00000
 326       86I-3       -0.00000   0.00000   0.00000   0.00000   0.00000
 327       86I+4        0.00000   0.00000   0.00000   0.00000   0.00000
 328       86I-4        0.00000   0.00000   0.00000  -0.00000   0.00000
 329       86I+5        0.00000  -0.00000   0.00000   0.00000   0.00000
 330       86I-5       -0.00000   0.00000   0.00000   0.00000   0.00000
 331       86I+6        0.00000   0.00000  -0.00000   0.00000  -0.00000
 332       86I-6        0.00000   0.00000   0.00000  -0.00000   0.00000
 333       87I 0        0.00000   0.00000   0.00000   0.00000  -0.00005
 334       87I+1        0.00000   0.00010   0.00000   0.00000   0.00000
 335       87I-1        0.00010   0.00000   0.00000   0.00000   0.00000
 336       87I+2        0.00000   0.00000   0.00005   0.00000  -0.00000
 337       87I-2        0.00000   0.00000   0.00000   0.00005   0.00000
 338       87I+3        0.00000  -0.00000   0.00000   0.00000   0.00000
 339       87I-3        0.00000   0.00000   0.00000   0.00000   0.00000
 340       87I+4        0.00000   0.00000  -0.00000   0.00000   0.00000
 341       87I-4        0.00000   0.00000   0.00000  -0.00000   0.00000
 342       87I+5        0.00000   0.00000   0.00000   0.00000   0.00000
 343       87I-5        0.00000   0.00000   0.00000   0.00000   0.00000
 344       87I+6        0.00000   0.00000   0.00000   0.00000   0.00000
 345       87I-6        0.00000   0.00000   0.00000   0.00000   0.00000
 346 2   H  1S          0.00000   0.00000  -0.00000   0.00000  -0.00002
 347        2S          0.00000   0.00000   0.00000   0.00000   0.00038
 348        3S          0.00000   0.00000   0.00000   0.00000   0.00748
 349        4S          0.00000   0.00000   0.00000   0.00000   0.02647
 350        5S          0.00000   0.00000   0.00000   0.00000   0.07840
 351        6S          0.00000   0.00000   0.00000   0.00000   0.17440
 352        7S          0.00000   0.00000   0.00000   0.00000   0.23732
 353        8S          0.00000   0.00000   0.00000   0.00000   0.13511
 354        9S          0.00000   0.00000  -0.00000   0.00000   0.01135
[...]
 208       74F-2        0.00009   0.00004   0.00004   0.00000
 209       74F+3        0.00000   0.00000   0.00000   0.00000
 210       74F-3        0.00000   0.00000   0.00000   0.00000
 211       75F 0        0.00101   0.00050   0.00050   0.00000
 212       75F+1        0.00002   0.00001   0.00001   0.00000
 213       75F-1        0.00002   0.00001   0.00001   0.00000
 214       75F+2        0.00005   0.00003   0.00003   0.00000
 215       75F-2        0.00005   0.00003   0.00003   0.00000
 216       75F+3       -0.00000  -0.00000  -0.00000   0.00000
 217       75F-3        0.00000   0.00000   0.00000   0.00000
 218       76G 0        0.00000   0.00000   0.00000   0.00000
 219       76G+1       -0.00000  -0.00000  -0.00000   0.00000
 220       76G-1       -0.00000  -0.00000  -0.00000   0.00000
 221       76G+2        0.00000   0.00000   0.00000   0.00000
 222       76G-2        0.00000   0.00000   0.00000   0.00000
 223       76G+3        0.00000   0.00000   0.00000   0.00000
 224       76G-3        0.00000   0.00000   0.00000   0.00000
 225       76G+4        0.00000   0.00000   0.00000   0.00000
 226       76G-4       -0.00000  -0.00000  -0.00000   0.00000
 227       77G 0       -0.00000  -0.00000  -0.00000   0.00000
 228       77G+1       -0.00000  -0.00000  -0.00000   0.00000
 229       77G-1       -0.00000  -0.00000  -0.00000   0.00000
 230       77G+2       -0.00000  -0.00000  -0.00000   0.00000
 231       77G-2       -0.00000  -0.00000  -0.00000   0.00000
 232       77G+3        0.00000   0.00000   0.00000   0.00000
 233       77G-3        0.00000   0.00000   0.00000   0.00000
 234       77G+4        0.00000   0.00000   0.00000   0.00000
 235       77G-4        0.00000   0.00000   0.00000   0.00000
 236       78G 0        0.00000   0.00000   0.00000   0.00000
 237       78G+1        0.00000   0.00000   0.00000   0.00000
 238       78G-1        0.00000   0.00000   0.00000   0.00000
 239       78G+2        0.00000   0.00000   0.00000   0.00000
 240       78G-2        0.00000   0.00000   0.00000   0.00000
 241       78G+3        0.00000   0.00000   0.00000   0.00000
 242       78G-3        0.00000   0.00000   0.00000   0.00000
 243       78G+4       -0.00000  -0.00000  -0.00000   0.00000
 244       78G-4       -0.00000  -0.00000  -0.00000   0.00000
 245       79G 0        0.00006   0.00003   0.00003   0.00000
 246       79G+1        0.00000   0.00000   0.00000   0.00000
 247       79G-1        0.00000   0.00000   0.00000   0.00000
 248       79G+2        0.00000   0.00000   0.00000   0.00000
 249       79G-2        0.00000   0.00000   0.00000   0.00000
 250       79G+3        0.00000   0.00000   0.00000   0.00000
 251       79G-3        0.00000   0.00000   0.00000   0.00000
 252       79G+4        0.00000   0.00000   0.00000   0.00000
 253       79G-4        0.00000   0.00000   0.00000   0.00000
 254       80G 0        0.00011   0.00006   0.00006   0.00000
 255       80G+1        0.00001   0.00000   0.00000   0.00000
 256       80G-1        0.00001   0.00000   0.00000   0.00000
 257       80G+2        0.00000   0.00000   0.00000   0.00000
 258       80G-2        0.00000   0.00000   0.00000   0.00000
 259       80G+3        0.00000   0.00000   0.00000   0.00000
 260       80G-3        0.00000   0.00000   0.00000   0.00000
 261       80G+4        0.00000   0.00000   0.00000   0.00000
 262       80G-4       -0.00000  -0.00000  -0.00000   0.00000
 263       81H 0        0.00000   0.00000   0.00000   0.00000
 264       81H+1        0.00000   0.00000   0.00000   0.00000
 265       81H-1        0.00000   0.00000   0.00000   0.00000
 266       81H+2        0.00000   0.00000   0.00000   0.00000
 267       81H-2        0.00000   0.00000   0.00000   0.00000
 268       81H+3        0.00000   0.00000   0.00000   0.00000
 269       81H-3        0.00000   0.00000   0.00000   0.00000
 270       81H+4       -0.00000  -0.00000  -0.00000   0.00000
 271       81H-4        0.00000   0.00000   0.00000   0.00000
 272       81H+5        0.00000   0.00000   0.00000   0.00000
 273       81H-5        0.00000   0.00000   0.00000   0.00000
 274       82H 0       -0.00000  -0.00000  -0.00000   0.00000
 275       82H+1        0.00000   0.00000   0.00000   0.00000
 276       82H-1        0.00000   0.00000   0.00000   0.00000
 277       82H+2        0.00000   0.00000   0.00000   0.00000
 278       82H-2        0.00000   0.00000   0.00000   0.00000
 279       82H+3       -0.00000  -0.00000  -0.00000   0.00000
 280       82H-3       -0.00000  -0.00000  -0.00000   0.00000
 281       82H+4        0.00000   0.00000   0.00000   0.00000
 282       82H-4        0.00000   0.00000   0.00000   0.00000
 283       82H+5        0.00000   0.00000   0.00000   0.00000
 284       82H-5       -0.00000  -0.00000  -0.00000   0.00000
 285       83H 0        0.00000   0.00000   0.00000   0.00000
 286       83H+1        0.00000   0.00000   0.00000   0.00000
 287       83H-1        0.00000   0.00000   0.00000   0.00000
 288       83H+2        0.00000   0.00000   0.00000   0.00000
 289       83H-2        0.00000   0.00000   0.00000   0.00000
 290       83H+3       -0.00000  -0.00000  -0.00000   0.00000
 291       83H-3       -0.00000  -0.00000  -0.00000   0.00000
 292       83H+4       -0.00000  -0.00000  -0.00000   0.00000
 293       83H-4        0.00000   0.00000   0.00000   0.00000
 294       83H+5        0.00000   0.00000   0.00000   0.00000
 295       83H-5       -0.00000  -0.00000  -0.00000   0.00000
 296       84H 0        0.00001   0.00001   0.00001   0.00000
 297       84H+1        0.00000   0.00000   0.00000   0.00000
 298       84H-1        0.00000   0.00000   0.00000   0.00000
 299       84H+2        0.00000   0.00000   0.00000   0.00000
 300       84H-2        0.00000   0.00000   0.00000   0.00000
 301       84H+3        0.00000   0.00000   0.00000   0.00000
 302       84H-3        0.00000   0.00000   0.00000   0.00000
 303       84H+4        0.00000   0.00000   0.00000   0.00000
 304       84H-4        0.00000   0.00000   0.00000   0.00000
 305       84H+5        0.00000   0.00000   0.00000   0.00000
 306       84H-5        0.00000   0.00000   0.00000   0.00000
 307       85I 0        0.00000   0.00000   0.00000   0.00000
 308       85I+1        0.00000   0.00000   0.00000   0.00000
 309       85I-1        0.00000   0.00000   0.00000   0.00000
 310       85I+2        0.00000   0.00000   0.00000   0.00000
 311       85I-2        0.00000   0.00000   0.00000   0.00000
 312       85I+3        0.00000   0.00000   0.00000   0.00000
 313       85I-3        0.00000   0.00000   0.00000   0.00000
 314       85I+4        0.00000   0.00000   0.00000   0.00000
 315       85I-4        0.00000   0.00000   0.00000   0.00000
 316       85I+5        0.00000   0.00000   0.00000   0.00000
 317       85I-5       -0.00000  -0.00000  -0.00000   0.00000
 318       85I+6        0.00000   0.00000   0.00000   0.00000
 319       85I-6        0.00000   0.00000   0.00000   0.00000
 320       86I 0       -0.00000  -0.00000  -0.00000   0.00000
 321       86I+1       -0.00000  -0.00000  -0.00000   0.00000
 322       86I-1       -0.00000  -0.00000  -0.00000   0.00000
 323       86I+2       -0.00000  -0.00000  -0.00000   0.00000
 324       86I-2       -0.00000  -0.00000  -0.00000   0.00000
 325       86I+3        0.00000   0.00000   0.00000   0.00000
 326       86I-3        0.00000   0.00000   0.00000   0.00000
 327       86I+4       -0.00000  -0.00000  -0.00000   0.00000
 328       86I-4        0.00000   0.00000   0.00000   0.00000
 329       86I+5        0.00000   0.00000   0.00000   0.00000
 330       86I-5        0.00000   0.00000   0.00000   0.00000
 331       86I+6       -0.00000  -0.00000  -0.00000   0.00000
 332       86I-6        0.00000   0.00000   0.00000   0.00000
 333       87I 0        0.00000   0.00000   0.00000   0.00000
 334       87I+1        0.00000   0.00000   0.00000   0.00000
 335       87I-1        0.00000   0.00000   0.00000   0.00000
 336       87I+2        0.00000   0.00000   0.00000   0.00000
 337       87I-2        0.00000   0.00000   0.00000   0.00000
 338       87I+3        0.00000   0.00000   0.00000   0.00000
 339       87I-3        0.00000   0.00000   0.00000   0.00000
 340       87I+4       -0.00000  -0.00000  -0.00000   0.00000
 341       87I-4        0.00000   0.00000   0.00000   0.00000
 342       87I+5        0.00000   0.00000   0.00000   0.00000
 343       87I-5       -0.00000  -0.00000  -0.00000   0.00000
 344       87I+6       -0.00000  -0.00000  -0.00000   0.00000
 345       87I-6        0.00000   0.00000   0.00000   0.00000
 346 2   H  1S         -0.00000  -0.00000  -0.00000   0.00000
 347        2S          0.00007   0.00003   0.00003   0.00000
 348        3S          0.00360   0.00180   0.00180   0.00000
 349        4S          0.02582   0.01291   0.01291   0.00000
 350        5S          0.12856   0.06428   0.06428   0.00000
 351        6S          0.36508   0.18254   0.18254   0.00000
 352        7S          0.49519   0.24759   0.24759   0.00000
 353        8S          0.23920   0.11960   0.11960   0.00000
 354        9S          0.01314   0.00657   0.00657   0.00000
 355       10PX         0.00002   0.00001   0.00001   0.00000
 356       10PY         0.00002   0.00001   0.00001   0.00000
 357       10PZ         0.00007   0.00003   0.00003   0.00000
 358       11PX         0.00020   0.00010   0.00010   0.00000
 359       11PY         0.00020   0.00010   0.00010   0.00000
 360       11PZ         0.00080   0.00040   0.00040   0.00000
 361       12PX         0.00195   0.00097   0.00097   0.00000
 362       12PY         0.00195   0.00097   0.00097   0.00000
 363       12PZ         0.00551   0.00275   0.00275   0.00000
 364       13PX         0.00210   0.00105   0.00105   0.00000
 365       13PY         0.00210   0.00105   0.00105   0.00000
 366       13PZ         0.00226   0.00113   0.00113   0.00000
 367       14PX        -0.00008  -0.00004  -0.00004   0.00000
 368       14PY        -0.00008  -0.00004  -0.00004   0.00000
 369       14PZ        -0.00097  -0.00049  -0.00049   0.00000
 370       15D 0        0.00003   0.00001   0.00001   0.00000
 371       15D+1        0.00001   0.00000   0.00000   0.00000
 372       15D-1        0.00001   0.00000   0.00000   0.00000
 373       15D+2        0.00000   0.00000   0.00000   0.00000
 374       15D-2        0.00000   0.00000   0.00000   0.00000
 375       16D 0        0.00049   0.00025   0.00025   0.00000
 376       16D+1        0.00034   0.00017   0.00017   0.00000
 377       16D-1        0.00034   0.00017   0.00017   0.00000
 378       16D+2        0.00002   0.00001   0.00001   0.00000
 379       16D-2        0.00002   0.00001   0.00001   0.00000
 380       17D 0        0.00092   0.00046   0.00046   0.00000
 381       17D+1        0.00070   0.00035   0.00035   0.00000
 382       17D-1        0.00070   0.00035   0.00035   0.00000
 383       17D+2        0.00013   0.00007   0.00007   0.00000
 384       17D-2        0.00013   0.00007   0.00007   0.00000
 385       18D 0        0.00029   0.00014   0.00014   0.00000
 386       18D+1       -0.00015  -0.00008  -0.00008   0.00000
 387       18D-1       -0.00015  -0.00008  -0.00008   0.00000
 388       18D+2        0.00014   0.00007   0.00007   0.00000
 389       18D-2        0.00014   0.00007   0.00007   0.00000
 390       19F 0        0.00002   0.00001   0.00001   0.00000
 391       19F+1        0.00001   0.00001   0.00001   0.00000
 392       19F-1        0.00001   0.00001   0.00001   0.00000
 393       19F+2        0.00000   0.00000   0.00000   0.00000
 394       19F-2        0.00000   0.00000   0.00000   0.00000
 395       19F+3       -0.00000  -0.00000  -0.00000   0.00000
 396       19F-3       -0.00000  -0.00000  -0.00000   0.00000
 397       20F 0        0.00044   0.00022   0.00022   0.00000
 398       20F+1        0.00024   0.00012   0.00012   0.00000
 399       20F-1        0.00024   0.00012   0.00012   0.00000
 400       20F+2        0.00006   0.00003   0.00003   0.00000
 401       20F-2        0.00006   0.00003   0.00003   0.00000
 402       20F+3        0.00000   0.00000   0.00000   0.00000
 403       20F-3        0.00000   0.00000   0.00000   0.00000
 404       21F 0        0.00063   0.00031   0.00031   0.00000
 405       21F+1       -0.00006  -0.00003  -0.00003   0.00000
 406       21F-1       -0.00006  -0.00003  -0.00003   0.00000
 407       21F+2        0.00002   0.00001   0.00001   0.00000
 408       21F-2        0.00002   0.00001   0.00001   0.00000
 409       21F+3        0.00000   0.00000   0.00000   0.00000
 410       21F-3        0.00000   0.00000   0.00000   0.00000
 411       22G 0        0.00001   0.00001   0.00001   0.00000
 412       22G+1        0.00001   0.00000   0.00000   0.00000
 413       22G-1        0.00001   0.00000   0.00000   0.00000
 414       22G+2        0.00000   0.00000   0.00000   0.00000
 415       22G-2        0.00000   0.00000   0.00000   0.00000
 416       22G+3        0.00000   0.00000   0.00000   0.00000
 417       22G-3       -0.00000  -0.00000  -0.00000   0.00000
 418       22G+4       -0.00000  -0.00000  -0.00000   0.00000
 419       22G-4       -0.00000  -0.00000  -0.00000   0.00000
 420       23G 0        0.00029   0.00015   0.00015   0.00000
 421       23G+1        0.00003   0.00002   0.00002   0.00000
 422       23G-1        0.00003   0.00002   0.00002   0.00000
 423       23G+2        0.00004   0.00002   0.00002   0.00000
 424       23G-2        0.00004   0.00002   0.00002   0.00000
 425       23G+3        0.00000   0.00000   0.00000   0.00000
 426       23G-3        0.00000   0.00000   0.00000   0.00000
 427       23G+4        0.00000   0.00000   0.00000   0.00000
 428       23G-4        0.00000   0.00000   0.00000   0.00000
          Condensed to atoms (all electrons):
               1          2
     1  Cu  18.307047   0.400080
     2  H    0.400080   0.892793
          Atomic-Atomic Spin Densities.
               1          2
     1  Cu   0.000000   0.000000
     2  H    0.000000   0.000000
 Mulliken charges and spin densities:
               1          2
     1  Cu   0.292873   0.000000
     2  H   -0.292873   0.000000
 Sum of Mulliken charges =  -0.00000   0.00000
 Mulliken charges and spin densities with hydrogens summed into heavy atoms:
               1          2
     1  Cu  -0.000000   0.000000
 Electronic spatial extent (au):  <R**2>=             38.6515
 Charge=             -0.0000 electrons
 Dipole moment (field-independent basis, Debye):
    X=              0.0000    Y=              0.0000    Z=              3.7568  Tot=              3.7568
 Quadrupole moment (field-independent basis, Debye-Ang):
   XX=            -13.7400   YY=            -13.7400   ZZ=            -15.5116
   XY=              0.0000   XZ=              0.0000   YZ=              0.0000
 Traceless Quadrupole moment (field-independent basis, Debye-Ang):
   XX=              0.5905   YY=              0.5905   ZZ=             -1.1811
   XY=              0.0000   XZ=              0.0000   YZ=              0.0000
 Octapole moment (field-independent basis, Debye-Ang**2):
  XXX=              0.0000  YYY=              0.0000  ZZZ=             12.9280  XYY=              0.0000
  XXY=              0.0000  XXZ=              3.5938  XZZ=              0.0000  YZZ=              0.0000
  YYZ=              3.5938  XYZ=              0.0000
 Hexadecapole moment (field-independent basis, Debye-Ang**3):
 XXXX=            -16.6346 YYYY=            -16.6346 ZZZZ=            -39.4579 XXXY=              0.0000
 XXXZ=              0.0000 YYYX=              0.0000 YYYZ=              0.0000 ZZZX=              0.0000
 ZZZY=              0.0000 XXYY=             -5.5449 XXZZ=             -9.1937 YYZZ=             -9.1937
 XXYZ=              0.0000 YYXZ=              0.0000 ZZXY=              0.0000
 N-N= 7.181690719629D+00 E-N=-4.997517576068D+02  KE= 1.302097812935D+02
 Symmetry A1   KE= 5.352534086749D+01
 Symmetry A2   KE= 1.888602971313D+01
 Symmetry B1   KE= 2.889920535568D+01
 Symmetry B2   KE= 2.889920535821D+01
 Symmetry A1   SP= 0.000000000000D+00
 Symmetry A2   SP= 0.000000000000D+00
 Symmetry B1   SP= 0.000000000000D+00
 Symmetry B2   SP= 0.000000000000D+00
 Orbital energies and kinetic energies (alpha):
                                 1                 2
   6         O                -0.504434          9.373961
   7         O                -0.504434          9.373961
   8         O                -0.500137          9.443015
   9         O                -0.500137          9.443015
  10         O                -0.340652          2.002061
  11         V                 0.002273          0.142789
  12         V                 0.025781          0.037219
  13         V                 0.025781          0.037219
  14         V                 0.028993          0.032472
  15         V                 0.044539          0.223522
 Total kinetic energy from orbitals= 1.302097812935D+02
                          Isotropic Fermi Contact Couplings
        Atom                 a.u.       MegaHertz       Gauss      10(-4) cm-1
     1  Cu(63)             0.00000       0.00000       0.00000       0.00000
     2  H(1)               0.00000       0.00000       0.00000       0.00000
 --------------------------------------------------------
       Center         ----  Spin Dipole Couplings  ----
                      3XX-RR        3YY-RR        3ZZ-RR
 --------------------------------------------------------
     1   Atom        0.000000      0.000000      0.000000
     2   Atom        0.000000      0.000000      0.000000
 --------------------------------------------------------
                        XY            XZ            YZ
 --------------------------------------------------------
     1   Atom        0.000000      0.000000      0.000000
     2   Atom        0.000000      0.000000      0.000000
 --------------------------------------------------------


 ---------------------------------------------------------------------------------
              Anisotropic Spin Dipole Couplings in Principal Axis System
 ---------------------------------------------------------------------------------

       Atom             a.u.   MegaHertz   Gauss  10(-4) cm-1        Axes

              Baa     0.0000     0.000     0.000     0.000  1.0000  0.0000  0.0000
     1 Cu(63) Bbb     0.0000     0.000     0.000     0.000 -0.0000  1.0000  0.0000
              Bcc     0.0000     0.000     0.000     0.000  0.0000  0.0000  1.0000
 
              Baa     0.0000     0.000     0.000     0.000  1.0000  0.0000  0.0000
     2 H(1)   Bbb     0.0000     0.000     0.000     0.000 -0.0000  1.0000  0.0000
              Bcc     0.0000     0.000     0.000     0.000  0.0000  0.0000  1.0000
 

 ---------------------------------------------------------------------------------

 No NMR shielding tensors so no spin-rotation constants.
 Leave Link  601 at Sun May  6 00:45:19 2018, MaxMem= 10737418240 cpu:             319.7 elap:              10.5
 (Enter /home1/apps/gaussian/16rA.03/g16/l9999.exe)

 Test job not archived.
 1\1\GINC-C433-104\SP\ROCCSD(T)-Full\Gen\Cu1H1\GWANG18\06-May-2018\0\\#
 P ROCCSD(T)=(MaxCyc=150, Full)/Gen SCF=(maxcycle=400, vshift=200) Pseu
 do=Read Integral(NoXCTest) Pop=Regular MaxDisk=500GB Guess=Read IOp(5/
 15=2)\\CuH\\0,1\Cu,0,0.,0.,0.\H,0,0.,0.,1.4\\Version=ES64L-G16RevA.03\
 State=1-SG\HF=-195.8872429\MP2=-197.0559844\MP3=-196.8451229\PUHF=-195
 .8872429\PMP2-0=-197.0559844\MP4SDQ=-197.0055995\CCSD=-196.9296701\CCS
 D(T)=-196.969896\RMSD=5.367e-09\PG=C*V [C*(H1Cu1)]\\@


 WE HAVE LEFT UNDONE THOSE THINGS WHICH WE OUGHT TO HAVE DONE,
 AND WE HAVE DONE THOSE THINGS WHICH WE OUGHT NOT TO HAVE DONE.
                   BOOK OF COMMON PRAYER                      
 Job cpu time:       3 days 16 hours 58 minutes 39.5 seconds.
 Elapsed time:       0 days  2 hours 47 minutes 35.9 seconds.
 File lengths (MBytes):  RWF=  27410 Int=      0 D2E=      0 Chk=     23 Scr=      1
 Normal termination of Gaussian 16 at Sun May  6 00:45:20 2018.
