 Entering Gaussian System, Link 0=g16
 Initial command:
 /home1/apps/gaussian/16rA.03/g16/l1.exe "/tmp/Gau-268625.inp" -scrdir="/tmp/"
 Entering Link 1 = /home1/apps/gaussian/16rA.03/g16/l1.exe PID=    268626.
  
 Copyright (c) 1988,1990,1992,1993,1995,1998,2003,2009,2016,
            Gaussian, Inc.  All Rights Reserved.
  
 This is part of the Gaussian(R) 16 program.  It is based on
 the Gaussian(R) 09 system (copyright 2009, Gaussian, Inc.),
 the Gaussian(R) 03 system (copyright 2003, Gaussian, Inc.),
 the Gaussian(R) 98 system (copyright 1998, Gaussian, Inc.),
 the Gaussian(R) 94 system (copyright 1995, Gaussian, Inc.),
 the Gaussian 92(TM) system (copyright 1992, Gaussian, Inc.),
 the Gaussian 90(TM) system (copyright 1990, Gaussian, Inc.),
 the Gaussian 88(TM) system (copyright 1988, Gaussian, Inc.),
 the Gaussian 86(TM) system (copyright 1986, Carnegie Mellon
 University), and the Gaussian 82(TM) system (copyright 1983,
 Carnegie Mellon University). Gaussian is a federally registered
 trademark of Gaussian, Inc.
  
 This software contains proprietary and confidential information,
 including trade secrets, belonging to Gaussian, Inc.
  
 This software is provided under written license and may be
 used, copied, transmitted, or stored only in accord with that
 written license.
  
 The following legend is applicable only to US Government
 contracts under FAR:
  
                    RESTRICTED RIGHTS LEGEND
  
 Use, reproduction and disclosure by the US Government is
 subject to restrictions as set forth in subparagraphs (a)
 and (c) of the Commercial Computer Software - Restricted
 Rights clause in FAR 52.227-19.
  
 Gaussian, Inc.
 340 Quinnipiac St., Bldg. 40, Wallingford CT 06492
  
  
 ---------------------------------------------------------------
 Warning -- This program may not be used in any manner that
 competes with the business of Gaussian, Inc. or will provide
 assistance to any competitor of Gaussian, Inc.  The licensee
 of this program is prohibited from giving any competitor of
 Gaussian, Inc. access to this program.  By using this program,
 the user acknowledges that Gaussian, Inc. is engaged in the
 business of creating and licensing software in the field of
 computational chemistry and represents and warrants to the
 licensee that it is not a competitor of Gaussian, Inc. and that
 it will not use this program in any manner prohibited above.
 ---------------------------------------------------------------
  

 Cite this work as:
 Gaussian 16, Revision A.03,
 M. J. Frisch, G. W. Trucks, H. B. Schlegel, G. E. Scuseria, 
 M. A. Robb, J. R. Cheeseman, G. Scalmani, V. Barone, 
 G. A. Petersson, H. Nakatsuji, X. Li, M. Caricato, A. V. Marenich, 
 J. Bloino, B. G. Janesko, R. Gomperts, B. Mennucci, H. P. Hratchian, 
 J. V. Ortiz, A. F. Izmaylov, J. L. Sonnenberg, D. Williams-Young, 
 F. Ding, F. Lipparini, F. Egidi, J. Goings, B. Peng, A. Petrone, 
 T. Henderson, D. Ranasinghe, V. G. Zakrzewski, J. Gao, N. Rega, 
 G. Zheng, W. Liang, M. Hada, M. Ehara, K. Toyota, R. Fukuda, 
 J. Hasegawa, M. Ishida, T. Nakajima, Y. Honda, O. Kitao, H. Nakai, 
 T. Vreven, K. Throssell, J. A. Montgomery, Jr., J. E. Peralta, 
 F. Ogliaro, M. J. Bearpark, J. J. Heyd, E. N. Brothers, K. N. Kudin, 
 V. N. Staroverov, T. A. Keith, R. Kobayashi, J. Normand, 
 K. Raghavachari, A. P. Rendell, J. C. Burant, S. S. Iyengar, 
 J. Tomasi, M. Cossi, J. M. Millam, M. Klene, C. Adamo, R. Cammi, 
 J. W. Ochterski, R. L. Martin, K. Morokuma, O. Farkas, 
 J. B. Foresman, and D. J. Fox, Gaussian, Inc., Wallingford CT, 2016.
 
 ******************************************
 Gaussian 16:  ES64L-G16RevA.03 25-Dec-2016
                 5-May-2018 
 ******************************************
 %mem=80GB
 %cpu=0-31
 SetSPE:  set environment variable "MP_BIND" = "yes"
 SetSPE:  set environment variable "MP_BLIST" = "0,1,2,3,4,5,6,7,8,9,10,11,12,13,14,15,16,17,18,19,20,21,22,23,24,25,26,27,28,29,30,31"
 Will use up to   32 processors via shared memory.
 %chk=tz.chk
 %rwf=/scratch/04843/gwang18/cuh/
 ----------------------------------------------------------------------
 #P ROCCSD(T)=(MaxCyc=150, Full)/Gen SCF=(maxcycle=400, vshift=200) Pse
 udo=Read Integral(NoXCTest) Pop=Regular MaxDisk=500GB Guess=Read IOp(5
 /15=2)
 ----------------------------------------------------------------------
 1/38=1,172=1/1;
 2/12=2,17=6,18=5,40=1/2;
 3/5=7,11=2,16=1,17=8,25=1,30=1,47=8,116=101/1,2,3;
 4/5=1/1;
 5/5=2,7=400,10=200,15=2,38=6/2;
 8/5=-1,6=4,9=120000,10=90/1,4;
 9/5=7,6=150,14=2/13;
 6//1;
 99/5=1,9=1/99;
 Leave Link    1 at Sat May  5 20:46:34 2018, MaxMem= 10737418240 cpu:               9.1 elap:               0.3
 (Enter /home1/apps/gaussian/16rA.03/g16/l101.exe)
 ---
 CuH
 ---
 Symbolic Z-matrix:
 Charge =  0 Multiplicity = 1
 Cu                    0.        0.        0. 
 H                     0.        0.        1.4 
 
 ITRead=  0  0
 MicOpt= -1 -1
 NAtoms=      2 NQM=        2 NQMF=       0 NMMI=      0 NMMIF=      0
                NMic=       0 NMicF=      0.
                    Isotopes and Nuclear Properties:
 (Nuclear quadrupole moments (NQMom) in fm**2, nuclear magnetic moments (NMagM)
  in nuclear magnetons)

  Atom         1           2
 IAtWgt=          63           1
 AtmWgt=  62.9295992   1.0078250
 NucSpn=           3           1
 AtZEff=  -0.0000000  -0.0000000
 NQMom=  -22.0000000   0.0000000
 NMagM=    2.2233000   2.7928460
 AtZNuc=  29.0000000   1.0000000
 Leave Link  101 at Sat May  5 20:46:34 2018, MaxMem= 10737418240 cpu:               3.2 elap:               0.1
 (Enter /home1/apps/gaussian/16rA.03/g16/l202.exe)
                          Input orientation:                          
 ---------------------------------------------------------------------
 Center     Atomic      Atomic             Coordinates (Angstroms)
 Number     Number       Type             X           Y           Z
 ---------------------------------------------------------------------
      1         29           0        0.000000    0.000000    0.000000
      2          1           0        0.000000    0.000000    1.400000
 ---------------------------------------------------------------------
 Stoichiometry    CuH
 Framework group  C*V[C*(HCu)]
 Deg. of freedom     1
 Full point group                 C*V     NOp   4
 Largest Abelian subgroup         C2V     NOp   4
 Largest concise Abelian subgroup C1      NOp   1
                         Standard orientation:                         
 ---------------------------------------------------------------------
 Center     Atomic      Atomic             Coordinates (Angstroms)
 Number     Number       Type             X           Y           Z
 ---------------------------------------------------------------------
      1         29           0        0.000000    0.000000    0.046667
      2          1           0        0.000000    0.000000   -1.353333
 ---------------------------------------------------------------------
 Rotational constants (GHZ):           0.0000000         259.9418203         259.9418203
 Leave Link  202 at Sat May  5 20:46:34 2018, MaxMem= 10737418240 cpu:               0.8 elap:               0.1
 (Enter /home1/apps/gaussian/16rA.03/g16/l301.exe)
 General basis read from cards:  (5D, 7F)
 Centers:       1
 S 1 1.00
     Exponent=  5.4303210000D+06 Coefficients=  1.0000000000D+00
 S 1 1.00
     Exponent=  8.1316650000D+05 Coefficients=  1.0000000000D+00
 S 1 1.00
     Exponent=  1.8505440000D+05 Coefficients=  1.0000000000D+00
 S 1 1.00
     Exponent=  5.2414660000D+04 Coefficients=  1.0000000000D+00
 S 1 1.00
     Exponent=  1.7098680000D+04 Coefficients=  1.0000000000D+00
 S 1 1.00
     Exponent=  6.1719940000D+03 Coefficients=  1.0000000000D+00
 S 1 1.00
     Exponent=  2.4064810000D+03 Coefficients=  1.0000000000D+00
 S 1 1.00
     Exponent=  9.9725840000D+02 Coefficients=  1.0000000000D+00
 S 1 1.00
     Exponent=  4.3392890000D+02 Coefficients=  1.0000000000D+00
 S 1 1.00
     Exponent=  1.9628690000D+02 Coefficients=  1.0000000000D+00
 S 1 1.00
     Exponent=  9.1042800000D+01 Coefficients=  1.0000000000D+00
 S 1 1.00
     Exponent=  4.1384250000D+01 Coefficients=  1.0000000000D+00
 S 1 1.00
     Exponent=  1.9932780000D+01 Coefficients=  1.0000000000D+00
 S 1 1.00
     Exponent=  9.5818910000D+00 Coefficients=  1.0000000000D+00
 S 1 1.00
     Exponent=  4.2345160000D+00 Coefficients=  1.0000000000D+00
 S 1 1.00
     Exponent=  1.9858140000D+00 Coefficients=  1.0000000000D+00
 S 1 1.00
     Exponent=  8.6708300000D-01 Coefficients=  1.0000000000D+00
 S 1 1.00
     Exponent=  1.8133900000D-01 Coefficients=  1.0000000000D+00
 S 1 1.00
     Exponent=  8.3657000000D-02 Coefficients=  1.0000000000D+00
 S 1 1.00
     Exponent=  3.6267000000D-02 Coefficients=  1.0000000000D+00
 S 1 1.00
     Exponent=  6.3233000000D+00 Coefficients=  1.0000000000D+00
 S 1 1.00
     Exponent=  1.6459000000D+00 Coefficients=  1.0000000000D+00
 S 1 1.00
     Exponent=  1.5720000000D-02 Coefficients=  1.0000000000D+00
 P 1 1.00
     Exponent=  2.2760570000D+04 Coefficients=  1.0000000000D+00
 P 1 1.00
     Exponent=  5.3876790000D+03 Coefficients=  1.0000000000D+00
 P 1 1.00
     Exponent=  1.7499450000D+03 Coefficients=  1.0000000000D+00
 P 1 1.00
     Exponent=  6.6966530000D+02 Coefficients=  1.0000000000D+00
 P 1 1.00
     Exponent=  2.8419480000D+02 Coefficients=  1.0000000000D+00
 P 1 1.00
     Exponent=  1.2960770000D+02 Coefficients=  1.0000000000D+00
 P 1 1.00
     Exponent=  6.2254150000D+01 Coefficients=  1.0000000000D+00
 P 1 1.00
     Exponent=  3.0929640000D+01 Coefficients=  1.0000000000D+00
 P 1 1.00
     Exponent=  1.5758270000D+01 Coefficients=  1.0000000000D+00
 P 1 1.00
     Exponent=  8.0942110000D+00 Coefficients=  1.0000000000D+00
 P 1 1.00
     Exponent=  4.0469210000D+00 Coefficients=  1.0000000000D+00
 P 1 1.00
     Exponent=  1.9678690000D+00 Coefficients=  1.0000000000D+00
 P 1 1.00
     Exponent=  9.2529500000D-01 Coefficients=  1.0000000000D+00
 P 1 1.00
     Exponent=  3.5299200000D-01 Coefficients=  1.0000000000D+00
 P 1 1.00
     Exponent=  1.2730700000D-01 Coefficients=  1.0000000000D+00
 P 1 1.00
     Exponent=  4.4356000000D-02 Coefficients=  1.0000000000D+00
 P 1 1.00
     Exponent=  9.6845000000D+00 Coefficients=  1.0000000000D+00
 P 1 1.00
     Exponent=  2.2065000000D+00 Coefficients=  1.0000000000D+00
 P 1 1.00
     Exponent=  1.5450000000D-02 Coefficients=  1.0000000000D+00
 D 1 1.00
     Exponent=  1.7389700000D+02 Coefficients=  1.0000000000D+00
 D 1 1.00
     Exponent=  5.1886900000D+01 Coefficients=  1.0000000000D+00
 D 1 1.00
     Exponent=  1.9341900000D+01 Coefficients=  1.0000000000D+00
 D 1 1.00
     Exponent=  7.9757200000D+00 Coefficients=  1.0000000000D+00
 D 1 1.00
     Exponent=  3.3982300000D+00 Coefficients=  1.0000000000D+00
 D 1 1.00
     Exponent=  1.4093200000D+00 Coefficients=  1.0000000000D+00
 D 1 1.00
     Exponent=  5.4885800000D-01 Coefficients=  1.0000000000D+00
 D 1 1.00
     Exponent=  1.9019900000D-01 Coefficients=  1.0000000000D+00
 D 1 1.00
     Exponent=  6.9242000000D+00 Coefficients=  1.0000000000D+00
 D 1 1.00
     Exponent=  3.3410000000D+00 Coefficients=  1.0000000000D+00
 D 1 1.00
     Exponent=  6.5910000000D-02 Coefficients=  1.0000000000D+00
 F 1 1.00
     Exponent=  9.2215000000D+00 Coefficients=  1.0000000000D+00
 F 1 1.00
     Exponent=  3.5468000000D+00 Coefficients=  1.0000000000D+00
 F 1 1.00
     Exponent=  1.2797000000D+00 Coefficients=  1.0000000000D+00
 F 1 1.00
     Exponent=  4.6172000000D-01 Coefficients=  1.0000000000D+00
 G 1 1.00
     Exponent=  8.3127000000D+00 Coefficients=  1.0000000000D+00
 G 1 1.00
     Exponent=  3.4835000000D+00 Coefficients=  1.0000000000D+00
 G 1 1.00
     Exponent=  1.4597900000D+00 Coefficients=  1.0000000000D+00
 ****
 Centers:       2
 S 1 1.00
     Exponent=  3.3870000000D+01 Coefficients=  1.0000000000D+00
 S 1 1.00
     Exponent=  5.0950000000D+00 Coefficients=  1.0000000000D+00
 S 1 1.00
     Exponent=  1.1590000000D+00 Coefficients=  1.0000000000D+00
 S 1 1.00
     Exponent=  3.2580000000D-01 Coefficients=  1.0000000000D+00
 S 1 1.00
     Exponent=  1.0270000000D-01 Coefficients=  1.0000000000D+00
 S 1 1.00
     Exponent=  2.5260000000D-02 Coefficients=  1.0000000000D+00
 P 1 1.00
     Exponent=  1.4070000000D+00 Coefficients=  1.0000000000D+00
 P 1 1.00
     Exponent=  3.8800000000D-01 Coefficients=  1.0000000000D+00
 P 1 1.00
     Exponent=  1.0200000000D-01 Coefficients=  1.0000000000D+00
 D 1 1.00
     Exponent=  1.0570000000D+00 Coefficients=  1.0000000000D+00
 D 1 1.00
     Exponent=  2.4700000000D-01 Coefficients=  1.0000000000D+00
 ****
 ======================================================================================================
                                       Pseudopotential Parameters
 ======================================================================================================
  Center     Atomic      Valence      Angular      Power
  Number     Number     Electrons     Momentum     of R      Exponent        Coefficient   SO-Coeffient
 ======================================================================================================
    1         29           19
                                      D and up 
                                                     1       31.5381126       19.00000000    0.00000000
                                                     3       31.0692553      599.22413998    0.00000000
                                                     2       30.5903587     -244.68915484    0.00000000
                                                     2       14.0514106       -1.29349526    0.00000000
                                      S - D
                                                     2       12.7723592       66.27560813    0.00000000
                                                     2       29.3556224      370.71371825    0.00000000
                                      P - D
                                                     2       12.5247148       49.76265057    0.00000000
                                                     2       33.5169454      271.66281028    0.00000000
    2          1            1
                                      P and up 
                                                     2       21.7769666      -10.85192405    0.00000000
                                                     1       21.2435951        1.00000000    0.00000000
                                                     3       21.2435951       21.24359508    0.00000000
                                      S - P
                                                     2        1.0000000        0.00000000    0.00000000
 ======================================================================================================
 Ernie: Thresh=  0.10000D-02 Tol=  0.10000D-05 Strict=F.
 There are   120 symmetry adapted cartesian basis functions of A1  symmetry.
 There are    26 symmetry adapted cartesian basis functions of A2  symmetry.
 There are    56 symmetry adapted cartesian basis functions of B1  symmetry.
 There are    56 symmetry adapted cartesian basis functions of B2  symmetry.
 There are    94 symmetry adapted basis functions of A1  symmetry.
 There are    23 symmetry adapted basis functions of A2  symmetry.
 There are    49 symmetry adapted basis functions of B1  symmetry.
 There are    49 symmetry adapted basis functions of B2  symmetry.
   215 basis functions,   258 primitive gaussians,   258 cartesian basis functions
    10 alpha electrons       10 beta electrons
       nuclear repulsion energy         7.1816907196 Hartrees.
 IExCor=    0 DFT=F Ex=HF Corr=None ExCW=0 ScaHFX=  1.000000
 ScaDFX=  1.000000  1.000000  1.000000  1.000000 ScalE2=  1.000000  1.000000
 IRadAn=      5 IRanWt=     -1 IRanGd=            0 ICorTp=0 IEmpDi=  4
 NAtoms=    2 NActive=    2 NUniq=    2 SFac= 1.00D+00 NAtFMM=   60 NAOKFM=F Big=F
 Integral buffers will be    131072 words long.
 Raffenetti 2 integral format.
 Two-electron integral symmetry is turned on.
 Leave Link  301 at Sat May  5 20:46:35 2018, MaxMem= 10737418240 cpu:               7.4 elap:               0.3
 (Enter /home1/apps/gaussian/16rA.03/g16/l302.exe)
 NPDir=0 NMtPBC=     1 NCelOv=     1 NCel=       1 NClECP=     1 NCelD=      1
         NCelK=      1 NCelE2=     1 NClLst=     1 CellRange=     0.0.
 One-electron integrals computed using PRISM.
 One-electron integral symmetry used in STVInt
   4 Symmetry operations used in ECPInt.
 ECPInt:  NShTT=    2556 NPrTT=    2556 LenC2=    2532 LenP2D=    2531.
 LDataN:  DoStor=T MaxTD1= 8 Len=  415
 NBasis=   215 RedAO= T EigKep=  4.34D-06  NBF=    94    23    49    49
 NBsUse=   210 1.00D-06 EigRej=  9.81D-07 NBFU=    92    22    48    48
 Leave Link  302 at Sat May  5 20:46:36 2018, MaxMem= 10737418240 cpu:              29.0 elap:               0.9
 (Enter /home1/apps/gaussian/16rA.03/g16/l303.exe)
 DipDrv:  MaxL=1.
 Leave Link  303 at Sat May  5 20:46:37 2018, MaxMem= 10737418240 cpu:               2.0 elap:               0.1
 (Enter /home1/apps/gaussian/16rA.03/g16/l401.exe)
 Initial guess from the checkpoint file:  "tz.chk"
 B after Tr=     0.000000    0.000000    0.000000
         Rot=    1.000000    0.000000    0.000000    0.000000 Ang=   0.00 deg.
 Guess basis will be translated and rotated to current coordinates.
 JPrj=2 DoOrth=T DoCkMO=T.
 Initial guess orbital symmetries:
       Occupied  (SG) (SG) (PI) (PI) (SG) (PI) (PI) (DLTA) (DLTA)
                 (SG)
       Virtual   (SG) (PI) (PI) (SG) (SG) (SG) (PI) (PI) (SG) (PI)
                 (PI) (DLTA) (DLTA) (SG) (SG) (PI) (PI) (SG) (PI)
                 (PI) (SG) (SG) (SG) (PI) (PI) (DLTA) (DLTA) (SG)
                 (DLTA) (DLTA) (PI) (PI) (SG) (PI) (PI) (SG) (PI)
                 (PI) (PHI) (PHI) (SG) (DLTA) (DLTA) (PI) (PI)
                 (SG) (DLTA) (DLTA) (PI) (PI) (SG) (SG) (SG) (PI)
                 (PI) (SG) (DLTA) (DLTA) (PI) (PI) (PI) (PI) (SG)
                 (PHI) (PHI) (SG) (DLTA) (DLTA) (PI) (PI) (SG)
                 (DLTA) (DLTA) (PHI) (PHI) (?A) (?A) (PI) (PI)
                 (DLTA) (DLTA) (SG) (PI) (PI) (SG) (SG) (PI) (PI)
                 (SG) (SG) (PHI) (PHI) (DLTA) (DLTA) (PI) (PI)
                 (SG) (DLTA) (DLTA) (PI) (PI) (SG) (PI) (PI) (PHI)
                 (PHI) (?A) (?A) (DLTA) (DLTA) (PI) (PI) (SG) (SG)
                 (SG) (PHI) (PHI) (DLTA) (DLTA) (PI) (PI) (SG)
                 (PI) (PI) (SG) (DLTA) (DLTA) (PI) (PI) (SG) (SG)
                 (?A) (?A) (PHI) (PHI) (DLTA) (DLTA) (PI) (PI)
                 (SG) (PI) (PI) (SG) (SG) (DLTA) (DLTA) (PI) (PI)
                 (SG) (SG) (PI) (PI) (SG) (SG) (DLTA) (DLTA) (PI)
                 (PI) (SG) (PI) (PI) (SG) (SG) (PI) (PI) (SG) (SG)
                 (DLTA) (DLTA) (PI) (PI) (SG) (PI) (PI) (SG) (SG)
                 (PI) (PI) (SG) (SG) (PI) (PI) (SG) (SG) (PI) (PI)
                 (SG) (SG) (PI) (PI) (SG) (SG) (SG) (PI) (PI) (SG)
                 (SG) (SG) (SG) (SG)
 The electronic state of the initial guess is 1-SG.
 Leave Link  401 at Sat May  5 20:46:38 2018, MaxMem= 10737418240 cpu:              10.1 elap:               0.4
 (Enter /home1/apps/gaussian/16rA.03/g16/l502.exe)
 Keep R1 and R2 ints in memory in symmetry-blocked form, NReq=338797193.
 FoFCou: FMM=F IPFlag=           8 FMFlag=           0 FMFlg1=           0
         NFxFlg=           0 DoJE=F BraDBF=F KetDBF=F FulRan=T
         wScrn=  0.000000 ICntrl=       600 IOpCl=  0 I1Cent=           0 NGrid=           0
         NMat0=    1 NMatS0=  23220 NMatT0=    0 NMatD0=    1 NMtDS0=    0 NMtDT0=    0
 Petite list used in FoFCou.
 Restricted open shell SCF:
 Using DIIS extrapolation, IDIIS=  1040.
 NGot= 10737418240 LenX= 10598929943 LenY= 10598862938
 Requested convergence on RMS density matrix=1.00D-08 within 400 cycles.
 Requested convergence on MAX density matrix=1.00D-06.
 Requested convergence on             energy=1.00D-06.
 Virtual orbitals will be shifted by   0.200 hartree.
 No special actions if energy rises.

 Cycle   1  Pass 1  IDiag  1:
 E= -195.240004636433    
 DIIS: error= 4.20D-01 at cycle   1 NSaved=   1.
 NSaved= 1 IEnMin= 1 EnMin= -195.240004636433     IErMin= 1 ErrMin= 4.20D-01
 ErrMax= 4.20D-01  0.00D+00 EMaxC= 1.00D-01 BMatC= 3.24D+01 BMatP= 3.24D+01
 IDIUse=3 WtCom= 0.00D+00 WtEn= 1.00D+00
 Coeff-Com:  0.100D+01
 Coeff-En:   0.100D+01
 Coeff:      0.100D+01
 Gap=     0.362 Goal=   None    Shift=    0.200
 GapD=    0.362 DampG=1.000 DampE=0.125 DampFc=0.1250 IDamp=-1.
 Damping current iteration by 1.25D-01
 RMSDP=2.53D-03 MaxDP=8.41D-02              OVMax= 3.77D-02

 Cycle   2  Pass 1  IDiag  1:
 E= -195.320118008227     Delta-E=       -0.080113371793 Rises=F Damp=T
 DIIS: error= 3.70D-01 at cycle   2 NSaved=   2.
 NSaved= 2 IEnMin= 2 EnMin= -195.320118008227     IErMin= 2 ErrMin= 3.70D-01
 ErrMax= 3.70D-01  0.00D+00 EMaxC= 1.00D-01 BMatC= 2.48D+01 BMatP= 3.24D+01
 IDIUse=3 WtCom= 0.00D+00 WtEn= 1.00D+00
 Coeff-Com: -0.707D+01 0.807D+01
 Coeff-En:   0.000D+00 0.100D+01
 Coeff:      0.000D+00 0.100D+01
 Gap=     0.340 Goal=   None    Shift=    0.200
 RMSDP=2.22D-03 MaxDP=7.50D-02 DE=-8.01D-02 OVMax= 2.51D-03

 Cycle   3  Pass 1  IDiag  1:
 E= -195.876839702285     Delta-E=       -0.556721694058 Rises=F Damp=F
 DIIS: error= 2.67D-02 at cycle   3 NSaved=   3.
 NSaved= 3 IEnMin= 3 EnMin= -195.876839702285     IErMin= 3 ErrMin= 2.67D-02
 ErrMax= 2.67D-02  0.00D+00 EMaxC= 1.00D-01 BMatC= 3.56D-02 BMatP= 2.48D+01
 IDIUse=3 WtCom= 7.33D-01 WtEn= 2.67D-01
 Large coefficients: NSaved=  3 BigCof=   34.53 CofMax=   10.00 Det=-2.68D-05
 Inversion failed.  Reducing to  2 matrices.
 Coeff-Com: -0.954D-02 0.101D+01
 Coeff-En:   0.000D+00 0.100D+01
 Coeff:     -0.699D-02 0.101D+01
 Gap=     0.361 Goal=   None    Shift=    0.200
 RMSDP=2.85D-04 MaxDP=1.19D-02 DE=-5.57D-01 OVMax= 2.74D-02

 Cycle   4  Pass 1  IDiag  1:
 E= -195.874036142950     Delta-E=        0.002803559335 Rises=F Damp=F
 DIIS: error= 2.75D-02 at cycle   4 NSaved=   3.
 NSaved= 3 IEnMin= 2 EnMin= -195.876839702285     IErMin= 2 ErrMin= 2.67D-02
 ErrMax= 2.75D-02  0.00D+00 EMaxC= 1.00D-01 BMatC= 4.57D-02 BMatP= 3.56D-02
 IDIUse=2 WtCom= 0.00D+00 WtEn= 1.00D+00
 Coeff-En:   0.000D+00 0.567D+00 0.433D+00
 Coeff:      0.000D+00 0.567D+00 0.433D+00
 Gap=     0.346 Goal=   None    Shift=    0.000
 RMSDP=1.80D-04 MaxDP=8.00D-03 DE= 2.80D-03 OVMax= 1.45D-02

 Cycle   5  Pass 1  IDiag  1:
 E= -195.884676239856     Delta-E=       -0.010640096906 Rises=F Damp=F
 DIIS: error= 1.43D-03 at cycle   5 NSaved=   4.
 NSaved= 4 IEnMin= 4 EnMin= -195.884676239856     IErMin= 4 ErrMin= 1.43D-03
 ErrMax= 1.43D-03  0.00D+00 EMaxC= 1.00D-01 BMatC= 1.72D-04 BMatP= 3.56D-02
 IDIUse=3 WtCom= 9.86D-01 WtEn= 1.43D-02
 Coeff-Com:  0.314D-03-0.362D-01-0.965D-01 0.113D+01
 Coeff-En:   0.000D+00 0.000D+00 0.000D+00 0.100D+01
 Coeff:      0.310D-03-0.357D-01-0.952D-01 0.113D+01
 Gap=     0.344 Goal=   None    Shift=    0.200
 RMSDP=2.31D-05 MaxDP=9.18D-04 DE=-1.06D-02 OVMax= 2.22D-03

 Cycle   6  Pass 1  IDiag  1:
 E= -195.884733110891     Delta-E=       -0.000056871035 Rises=F Damp=F
 DIIS: error= 3.00D-04 at cycle   6 NSaved=   5.
 NSaved= 5 IEnMin= 5 EnMin= -195.884733110891     IErMin= 5 ErrMin= 3.00D-04
 ErrMax= 3.00D-04  0.00D+00 EMaxC= 1.00D-01 BMatC= 2.30D-06 BMatP= 1.72D-04
 IDIUse=3 WtCom= 9.97D-01 WtEn= 3.00D-03
 Coeff-Com: -0.302D-04 0.483D-02 0.179D-01-0.248D+00 0.122D+01
 Coeff-En:   0.000D+00 0.000D+00 0.000D+00 0.000D+00 0.100D+01
 Coeff:     -0.302D-04 0.481D-02 0.179D-01-0.247D+00 0.122D+01
 Gap=     0.344 Goal=   None    Shift=    0.200
 RMSDP=8.08D-06 MaxDP=4.54D-04 DE=-5.69D-05 OVMax= 1.71D-03

 Cycle   7  Pass 1  IDiag  1:
 E= -195.884743304508     Delta-E=       -0.000010193617 Rises=F Damp=F
 DIIS: error= 2.05D-04 at cycle   7 NSaved=   6.
 NSaved= 6 IEnMin= 6 EnMin= -195.884743304508     IErMin= 6 ErrMin= 2.05D-04
 ErrMax= 2.05D-04  0.00D+00 EMaxC= 1.00D-01 BMatC= 1.44D-06 BMatP= 2.30D-06
 IDIUse=3 WtCom= 9.98D-01 WtEn= 2.05D-03
 Coeff-Com: -0.900D-04 0.954D-02 0.271D-01-0.261D+00-0.594D+00 0.182D+01
 Coeff-En:   0.000D+00 0.000D+00 0.000D+00 0.000D+00 0.000D+00 0.100D+01
 Coeff:     -0.898D-04 0.952D-02 0.270D-01-0.261D+00-0.593D+00 0.182D+01
 Gap=     0.344 Goal=   None    Shift=    0.200
 RMSDP=9.16D-06 MaxDP=4.11D-04 DE=-1.02D-05 OVMax= 1.91D-03

 Cycle   8  Pass 1  IDiag  1:
 E= -195.884751589057     Delta-E=       -0.000008284549 Rises=F Damp=F
 DIIS: error= 1.31D-04 at cycle   8 NSaved=   7.
 NSaved= 7 IEnMin= 7 EnMin= -195.884751589057     IErMin= 7 ErrMin= 1.31D-04
 ErrMax= 1.31D-04  0.00D+00 EMaxC= 1.00D-01 BMatC= 4.14D-07 BMatP= 1.44D-06
 IDIUse=3 WtCom= 9.99D-01 WtEn= 1.31D-03
 Coeff-Com:  0.173D-04-0.254D-02-0.100D-01 0.128D+00-0.587D+00-0.287D+00
 Coeff-Com:  0.176D+01
 Coeff-En:   0.000D+00 0.000D+00 0.000D+00 0.000D+00 0.000D+00 0.000D+00
 Coeff-En:   0.100D+01
 Coeff:      0.172D-04-0.253D-02-0.100D-01 0.128D+00-0.586D+00-0.286D+00
 Coeff:      0.176D+01
 Gap=     0.344 Goal=   None    Shift=    0.200
 RMSDP=7.86D-06 MaxDP=3.50D-04 DE=-8.28D-06 OVMax= 1.70D-03

 Cycle   9  Pass 1  IDiag  1:
 E= -195.884755681684     Delta-E=       -0.000004092627 Rises=F Damp=F
 DIIS: error= 5.72D-05 at cycle   9 NSaved=   8.
 NSaved= 8 IEnMin= 8 EnMin= -195.884755681684     IErMin= 8 ErrMin= 5.72D-05
 ErrMax= 5.72D-05  0.00D+00 EMaxC= 1.00D-01 BMatC= 1.12D-07 BMatP= 4.14D-07
 IDIUse=1 WtCom= 1.00D+00 WtEn= 0.00D+00
 Coeff-Com: -0.584D-05 0.106D-02 0.526D-02-0.674D-01 0.279D+00 0.513D+00
 Coeff-Com: -0.224D+01 0.250D+01
 Coeff:     -0.584D-05 0.106D-02 0.526D-02-0.674D-01 0.279D+00 0.513D+00
 Coeff:     -0.224D+01 0.250D+01
 Gap=     0.344 Goal=   None    Shift=    0.200
 RMSDP=3.69D-06 MaxDP=1.57D-04 DE=-4.09D-06 OVMax= 8.31D-04

 Cycle  10  Pass 1  IDiag  1:
 E= -195.884756648032     Delta-E=       -0.000000966348 Rises=F Damp=F
 DIIS: error= 2.70D-05 at cycle  10 NSaved=   9.
 NSaved= 9 IEnMin= 9 EnMin= -195.884756648032     IErMin= 9 ErrMin= 2.70D-05
 ErrMax= 2.70D-05  0.00D+00 EMaxC= 1.00D-01 BMatC= 3.77D-08 BMatP= 1.12D-07
 IDIUse=1 WtCom= 1.00D+00 WtEn= 0.00D+00
 Coeff-Com: -0.505D-05 0.586D-03 0.485D-03-0.141D-01-0.152D-01-0.139D+00
 Coeff-Com:  0.562D+00-0.156D+01 0.217D+01
 Coeff:     -0.505D-05 0.586D-03 0.485D-03-0.141D-01-0.152D-01-0.139D+00
 Coeff:      0.562D+00-0.156D+01 0.217D+01
 Gap=     0.344 Goal=   None    Shift=    0.200
 RMSDP=2.37D-06 MaxDP=1.09D-04 DE=-9.66D-07 OVMax= 5.34D-04

 Cycle  11  Pass 1  IDiag  1:
 E= -195.884756932748     Delta-E=       -0.000000284716 Rises=F Damp=F
 DIIS: error= 9.49D-06 at cycle  11 NSaved=  10.
 NSaved=10 IEnMin=10 EnMin= -195.884756932748     IErMin=10 ErrMin= 9.49D-06
 ErrMax= 9.49D-06  0.00D+00 EMaxC= 1.00D-01 BMatC= 9.22D-09 BMatP= 3.77D-08
 IDIUse=1 WtCom= 1.00D+00 WtEn= 0.00D+00
 Coeff-Com:  0.236D-05-0.354D-03-0.133D-02 0.183D-01-0.796D-01 0.610D-02
 Coeff-Com:  0.249D+00-0.180D+00-0.849D+00 0.184D+01
 Coeff:      0.236D-05-0.354D-03-0.133D-02 0.183D-01-0.796D-01 0.610D-02
 Coeff:      0.249D+00-0.180D+00-0.849D+00 0.184D+01
 Gap=     0.344 Goal=   None    Shift=    0.200
 RMSDP=1.04D-06 MaxDP=4.99D-05 DE=-2.85D-07 OVMax= 2.41D-04

 Cycle  12  Pass 1  IDiag  1:
 E= -195.884756985230     Delta-E=       -0.000000052483 Rises=F Damp=F
 DIIS: error= 4.89D-06 at cycle  12 NSaved=  11.
 NSaved=11 IEnMin=11 EnMin= -195.884756985230     IErMin=11 ErrMin= 4.89D-06
 ErrMax= 4.89D-06  0.00D+00 EMaxC= 1.00D-01 BMatC= 1.72D-09 BMatP= 9.22D-09
 IDIUse=1 WtCom= 1.00D+00 WtEn= 0.00D+00
 Coeff-Com: -0.251D-06 0.351D-04 0.244D-03-0.226D-02 0.137D-01 0.364D-02
 Coeff-Com: -0.901D-01 0.207D+00 0.720D-01-0.141D+01 0.221D+01
 Coeff:     -0.251D-06 0.351D-04 0.244D-03-0.226D-02 0.137D-01 0.364D-02
 Coeff:     -0.901D-01 0.207D+00 0.720D-01-0.141D+01 0.221D+01
 Gap=     0.344 Goal=   None    Shift=    0.200
 RMSDP=5.01D-07 MaxDP=2.09D-05 DE=-5.25D-08 OVMax= 1.14D-04

 Cycle  13  Pass 1  IDiag  1:
 E= -195.884756996050     Delta-E=       -0.000000010819 Rises=F Damp=F
 DIIS: error= 2.26D-06 at cycle  13 NSaved=  12.
 NSaved=12 IEnMin=12 EnMin= -195.884756996050     IErMin=12 ErrMin= 2.26D-06
 ErrMax= 2.26D-06  0.00D+00 EMaxC= 1.00D-01 BMatC= 3.73D-10 BMatP= 1.72D-09
 IDIUse=1 WtCom= 1.00D+00 WtEn= 0.00D+00
 Coeff-Com: -0.307D-07 0.231D-05-0.122D-03 0.563D-03-0.129D-01-0.233D-02
 Coeff-Com:  0.652D-01-0.188D+00 0.235D+00 0.224D+00-0.135D+01 0.203D+01
 Coeff:     -0.307D-07 0.231D-05-0.122D-03 0.563D-03-0.129D-01-0.233D-02
 Coeff:      0.652D-01-0.188D+00 0.235D+00 0.224D+00-0.135D+01 0.203D+01
 Gap=     0.344 Goal=   None    Shift=    0.200
 RMSDP=1.85D-07 MaxDP=7.54D-06 DE=-1.08D-08 OVMax= 4.69D-05

 Cycle  14  Pass 1  IDiag  1:
 E= -195.884756997981     Delta-E=       -0.000000001931 Rises=F Damp=F
 DIIS: error= 9.52D-07 at cycle  14 NSaved=  13.
 NSaved=13 IEnMin=13 EnMin= -195.884756997981     IErMin=13 ErrMin= 9.52D-07
 ErrMax= 9.52D-07  0.00D+00 EMaxC= 1.00D-01 BMatC= 6.74D-11 BMatP= 3.73D-10
 IDIUse=1 WtCom= 1.00D+00 WtEn= 0.00D+00
 Coeff-Com:  0.814D-07-0.109D-04-0.701D-05 0.371D-03 0.153D-02 0.117D-02
 Coeff-Com: -0.781D-02 0.371D-01-0.899D-01 0.128D-01 0.394D+00-0.150D+01
 Coeff-Com:  0.215D+01
 Coeff:      0.814D-07-0.109D-04-0.701D-05 0.371D-03 0.153D-02 0.117D-02
 Coeff:     -0.781D-02 0.371D-01-0.899D-01 0.128D-01 0.394D+00-0.150D+01
 Coeff:      0.215D+01
 Gap=     0.344 Goal=   None    Shift=    0.200
 RMSDP=7.53D-08 MaxDP=3.04D-06 DE=-1.93D-09 OVMax= 1.92D-05

 Cycle  15  Pass 1  IDiag  1:
 E= -195.884756998314     Delta-E=       -0.000000000334 Rises=F Damp=F
 DIIS: error= 3.96D-07 at cycle  15 NSaved=  14.
 NSaved=14 IEnMin=14 EnMin= -195.884756998314     IErMin=14 ErrMin= 3.96D-07
 ErrMax= 3.96D-07  0.00D+00 EMaxC= 1.00D-01 BMatC= 1.03D-11 BMatP= 6.74D-11
 IDIUse=1 WtCom= 1.00D+00 WtEn= 0.00D+00
 Coeff-Com: -0.413D-08 0.992D-06-0.202D-05-0.557D-04-0.467D-03-0.118D-04
 Coeff-Com: -0.622D-04-0.476D-02 0.282D-01-0.447D-01-0.559D-01 0.436D+00
 Coeff-Com: -0.129D+01 0.194D+01
 Coeff:     -0.413D-08 0.992D-06-0.202D-05-0.557D-04-0.467D-03-0.118D-04
 Coeff:     -0.622D-04-0.476D-02 0.282D-01-0.447D-01-0.559D-01 0.436D+00
 Coeff:     -0.129D+01 0.194D+01
 Gap=     0.344 Goal=   None    Shift=    0.200
 RMSDP=2.82D-08 MaxDP=1.20D-06 DE=-3.34D-10 OVMax= 7.34D-06

 Cycle  16  Pass 1  IDiag  1:
 E= -195.884756998364     Delta-E=       -0.000000000050 Rises=F Damp=F
 DIIS: error= 1.52D-07 at cycle  16 NSaved=  15.
 NSaved=15 IEnMin=15 EnMin= -195.884756998364     IErMin=15 ErrMin= 1.52D-07
 ErrMax= 1.52D-07  0.00D+00 EMaxC= 1.00D-01 BMatC= 1.39D-12 BMatP= 1.03D-11
 IDIUse=1 WtCom= 1.00D+00 WtEn= 0.00D+00
 Coeff-Com: -0.225D-08 0.109D-06 0.605D-06 0.582D-05 0.558D-04-0.359D-04
 Coeff-Com:  0.104D-02-0.287D-02-0.312D-02 0.209D-01-0.285D-01-0.192D-01
 Coeff-Com:  0.267D+00-0.126D+01 0.203D+01
 Coeff:     -0.225D-08 0.109D-06 0.605D-06 0.582D-05 0.558D-04-0.359D-04
 Coeff:      0.104D-02-0.287D-02-0.312D-02 0.209D-01-0.285D-01-0.192D-01
 Coeff:      0.267D+00-0.126D+01 0.203D+01
 Gap=     0.344 Goal=   None    Shift=    0.200
 RMSDP=1.23D-08 MaxDP=5.26D-07 DE=-4.97D-11 OVMax= 2.89D-06

 Cycle  17  Pass 1  IDiag  1:
 E= -195.884756998372     Delta-E=       -0.000000000007 Rises=F Damp=F
 DIIS: error= 5.97D-08 at cycle  17 NSaved=  16.
 NSaved=16 IEnMin=16 EnMin= -195.884756998372     IErMin=16 ErrMin= 5.97D-08
 ErrMax= 5.97D-08  0.00D+00 EMaxC= 1.00D-01 BMatC= 2.17D-13 BMatP= 1.39D-12
 IDIUse=1 WtCom= 1.00D+00 WtEn= 0.00D+00
 Large coefficients: NSaved= 16 BigCof=    0.00 CofMax=   10.00 Det=-9.13D-15
 Inversion failed.  Reducing to 15 matrices.
 Coeff-Com: -0.362D-06-0.253D-06 0.175D-04 0.410D-04-0.318D-04-0.333D-03
 Coeff-Com:  0.176D-02-0.167D-02-0.784D-02 0.320D-01-0.839D-01 0.113D+00
 Coeff-Com:  0.780D-01-0.935D+00 0.180D+01
 Coeff:     -0.362D-06-0.253D-06 0.175D-04 0.410D-04-0.318D-04-0.333D-03
 Coeff:      0.176D-02-0.167D-02-0.784D-02 0.320D-01-0.839D-01 0.113D+00
 Coeff:      0.780D-01-0.935D+00 0.180D+01
 Gap=     0.344 Goal=   None    Shift=    0.200
 RMSDP=4.58D-09 MaxDP=1.89D-07 DE=-7.47D-12 OVMax= 1.09D-06

 SCF Done:  E(ROHF) =  -195.884756998     A.U. after   17 cycles
            NFock= 17  Conv=0.46D-08     -V/T= 2.5045
 <Sx>= 0.0000 <Sy>= 0.0000 <Sz>= 0.0000 <S**2>=-0.0000 S=-0.0000
 <L.S>=  0.00000000000    
 KE= 1.301998008566D+02 PE=-4.997365162391D+02 EE= 1.664702676645D+02
 Annihilation of the first spin contaminant:
 S**2 before annihilation    -0.0000,   after    -0.0000
 Leave Link  502 at Sat May  5 20:46:49 2018, MaxMem= 10737418240 cpu:             322.7 elap:              10.9
 (Enter /home1/apps/gaussian/16rA.03/g16/l801.exe)
 Windowed orbitals will be sorted by symmetry type.
 GenMOA:  NOpAll=  4 NOp2=4 NOpUse=  4 JSym2X=1
 FoFJK:  IHMeth= 1 ICntrl=       0 DoSepK=F KAlg= 0 I1Cent=           0 FoldK=F
 IRaf=         0 NMat=       1 IRICut=       1 DoRegI=T DoRafI=F ISym2E= 1 IDoP0=0 IntGTp=1.
 FoFCou: FMM=F IPFlag=           8 FMFlag=      100000 FMFlg1=           0
         NFxFlg=           0 DoJE=F BraDBF=F KetDBF=F FulRan=T
         wScrn=  0.000000 ICntrl=         0 IOpCl=  1 I1Cent=           0 NGrid=           0
         NMat0=    1 NMatS0=      1 NMatT0=    0 NMatD0=    1 NMtDS0=    0 NMtDT0=    0
 Petite list used in FoFCou.
 <Sx>= 0.0000 <Sy>= 0.0000 <Sz>= 0.0000 <S**2>= 0.0000 S= 0.0000
 Range of M.O.s used for correlation:     1   210
 NBasis=   215 NAE=    10 NBE=    10 NFC=     0 NFV=     0
 NROrb=    210 NOA=    10 NOB=    10 NVA=   200 NVB=   200

 **** Warning!!: The largest alpha MO coefficient is  0.14310048D+03


 **** Warning!!: The largest beta MO coefficient is  0.14310048D+03

 Singles contribution to E2=   -0.1316258125D-12
 Leave Link  801 at Sat May  5 20:46:53 2018, MaxMem= 10737418240 cpu:              98.2 elap:               3.1
 (Enter /home1/apps/gaussian/16rA.03/g16/l804.exe)
 Open-shell transformation, MDV= 10737418240 ITran=4 ISComp=2.
 Unit  1 TFree=       1397484 TCopy=       1082779.
 Semi-Direct transformation.
 ModeAB=           2 MOrb=            10 LenV=   10735959824
 LASXX=     11509746 LTotXX=    11509746 LenRXX=    11509746
 LTotAB=    11738602 MaxLAS=    70163100 LenRXY=    70163100
 NonZer=    71620500 LenScr=   108183552 LnRSAI=           0
 LnScr1=           0 LExtra=     6985111 Total=    196841509
 MaxDsk= 67108864000 SrtSym=           F ITran=            4
 DoSDTr:  NPSUse= 32
 JobTyp=1 Pass  1:  I=   1 to  10.
 (rs|ai) integrals will be sorted in core.
 Complete sort for first half transformation.
 First half transformation complete.
 Begin second half transformation for I=  10.
 Begin second half transformation for I=  10.
 Complete sort for second half transformation.
 Second half transformation complete.
 ModeAB=           2 MOrb=            10 LenV=   10735959824
 LASXX=     11509746 LTotXX=    11509746 LenRXX=    70163100
 LTotAB=    10644101 MaxLAS=    70163100 LenRXY=    10644101
 NonZer=    71620500 LenScr=   108183552 LnRSAI=           0
 LnScr1=           0 LExtra=    88657957 Total=    277648710
 MaxDsk= 67108864000 SrtSym=           F ITran=            4
 DoSDTr:  NPSUse= 32
 JobTyp=2 Pass  1:  I=   1 to  10.
 (rs|ai) integrals will be sorted in core.
 Complete sort for first half transformation.
 First half transformation complete.
 Begin second half transformation for I=  10.
 Begin second half transformation for I=  10.
 Complete sort for second half transformation.
 Second half transformation complete.
 Spin components of T(2) and E(2):
     alpha-alpha T2 =       0.2442240772D-01 E2=     -0.1708368455D+00
     alpha-beta  T2 =       0.1042934978D+00 E2=     -0.7500031824D+00
     beta-beta   T2 =       0.2442240772D-01 E2=     -0.1708368455D+00
 ANorm=    0.1073842779D+01
 E2 =    -0.1091676873D+01 EUMP2 =    -0.19697643387172D+03
 (S**2,0)=  0.00000D+00           (S**2,1)=  0.00000D+00
 E(PUHF)=      -0.19588475700D+03        E(PMP2)=      -0.19697643387D+03
 Leave Link  804 at Sat May  5 20:48:46 2018, MaxMem= 10737418240 cpu:            3613.9 elap:             113.2
 (Enter /home1/apps/gaussian/16rA.03/g16/l913.exe)
 CIDS:  MDV= 10737418240.
 IFCWin=0 IBDFC=1 NFBD=     0     0 NFCmp=     0     0 NFFFC=     0     0
 Using original routines for 1st iteration.
 Using DD4UQ or CC4UQ for 2nd and later iterations.
 Keep R2 and R3 ints in memory in symmetry-blocked form, NReq=338809507.
 FoFCou: FMM=F IPFlag=           8 FMFlag=           0 FMFlg1=           0
         NFxFlg=           0 DoJE=F BraDBF=F KetDBF=F FulRan=T
         wScrn=  0.000000 ICntrl=       600 IOpCl=  0 I1Cent=           0 NGrid=           0
         NMat0=    1 NMatS0=  23220 NMatT0=    0 NMatD0=    1 NMtDS0=    0 NMtDT0=    0
 Petite list used in FoFCou.
 CIDS: In Core Option IDoMem=           1.
 CCSD(T)
 =======
 Iterations= 150 Convergence= 0.100D-06
 Produce multiple copies of IABC intergrals
 Iteration Nr.   1
 **********************
 DD1Dir will call FoFMem   1 times, MxPair=       290
 NAB=   100 NAA=    45 NBB=    45.
 DD1Dir will call FoFMem   1 times, MxPair=       290
 NAB=   100 NAA=    45 NBB=    45.
 MP4(R+Q)= -0.22318301D+00
 Maximum subspace dimension=  5
 A-vector RMS=  3.6646600D-05 Max=  2.1308527D-03 conv= 1.00D-05.
 RLE energy=       -1.1087956128
 E3=        0.20632857D+00        EROMP3=      -0.19677010530D+03
 E4(SDQ)=  -0.16376405D+00        ROMP4(SDQ)=  -0.19693386936D+03
 VARIATIONAL ENERGIES WITH THE FIRST-ORDER WAVEFUNCTION:
 DE(Corr)=  -1.1085313     E(Corr)=     -196.99328831    
 NORM(A)=   0.10767098D+01
 Iteration Nr.   2
 **********************
 DD1Dir will call FoFMem   1 times, MxPair=       290
 NAB=   100 NAA=    45 NBB=    45.
 A-vector RMS=  6.0849850D-03 Max=  3.5719712D-02 conv= 1.00D-05.
 RLE energy=       -1.0727225765
 DE(Corr)= -0.88669229     E(CORR)=     -196.77144929     Delta= 2.22D-01
 NORM(A)=   0.10698908D+01
 Iteration Nr.   3
 **********************
 DD1Dir will call FoFMem   1 times, MxPair=       290
 NAB=   100 NAA=    45 NBB=    45.
 A-vector RMS=  4.4438648D-03 Max=  2.6807151D-02 conv= 1.00D-05.
 RLE energy=       -1.0233201757
 DE(Corr)= -0.90529373     E(CORR)=     -196.79005073     Delta=-1.86D-02
 NORM(A)=   0.10648799D+01
 Iteration Nr.   4
 **********************
 DD1Dir will call FoFMem   1 times, MxPair=       290
 NAB=   100 NAA=    45 NBB=    45.
 A-vector RMS=  3.1819718D-03 Max=  2.0468707D-02 conv= 1.00D-05.
 RLE energy=       -0.8963847943
 DE(Corr)= -0.93255138     E(CORR)=     -196.81730838     Delta=-2.73D-02
 NORM(A)=   0.10776841D+01
 Iteration Nr.   5
 **********************
 DD1Dir will call FoFMem   1 times, MxPair=       290
 NAB=   100 NAA=    45 NBB=    45.
 A-vector RMS=  3.3179308D-03 Max=  2.1180128D-02 conv= 1.00D-05.
 RLE energy=       -0.9457487907
 DE(Corr)=  -1.0209609     E(CORR)=     -196.90571789     Delta=-8.84D-02
 NORM(A)=   0.10837113D+01
 Iteration Nr.   6
 **********************
 DD1Dir will call FoFMem   1 times, MxPair=       290
 NAB=   100 NAA=    45 NBB=    45.
 A-vector RMS=  1.0551210D-03 Max=  7.9566812D-03 conv= 1.00D-05.
 RLE energy=       -0.9755654811
 DE(Corr)= -0.99022830     E(CORR)=     -196.87498530     Delta= 3.07D-02
 NORM(A)=   0.10783048D+01
 Iteration Nr.   7
 **********************
 DD1Dir will call FoFMem   1 times, MxPair=       290
 NAB=   100 NAA=    45 NBB=    45.
 A-vector RMS=  3.0823935D-04 Max=  3.2026129D-03 conv= 1.00D-05.
 RLE energy=       -0.9713397122
 DE(Corr)= -0.96970412     E(CORR)=     -196.85446111     Delta= 2.05D-02
 NORM(A)=   0.10796153D+01
 Iteration Nr.   8
 **********************
 DD1Dir will call FoFMem   1 times, MxPair=       290
 NAB=   100 NAA=    45 NBB=    45.
 A-vector RMS=  2.7323135D-04 Max=  3.7562908D-03 conv= 1.00D-05.
 RLE energy=       -0.9714879909
 DE(Corr)= -0.97215687     E(CORR)=     -196.85691387     Delta=-2.45D-03
 NORM(A)=   0.10814301D+01
 Iteration Nr.   9
 **********************
 DD1Dir will call FoFMem   1 times, MxPair=       290
 NAB=   100 NAA=    45 NBB=    45.
 A-vector RMS=  1.4284890D-04 Max=  2.0090912D-03 conv= 1.00D-05.
 RLE energy=       -0.9718140195
 DE(Corr)= -0.97179789     E(CORR)=     -196.85655489     Delta= 3.59D-04
 NORM(A)=   0.10832839D+01
 Iteration Nr.  10
 **********************
 DD1Dir will call FoFMem   1 times, MxPair=       290
 NAB=   100 NAA=    45 NBB=    45.
 A-vector RMS=  9.9641038D-05 Max=  1.2930849D-03 conv= 1.00D-05.
 RLE energy=       -0.9719203096
 DE(Corr)= -0.97186493     E(CORR)=     -196.85662193     Delta=-6.70D-05
 NORM(A)=   0.10837064D+01
 Iteration Nr.  11
 **********************
 DD1Dir will call FoFMem   1 times, MxPair=       290
 NAB=   100 NAA=    45 NBB=    45.
 A-vector RMS=  5.6793398D-05 Max=  8.3532972D-04 conv= 1.00D-05.
 RLE energy=       -0.9717362174
 DE(Corr)= -0.97179048     E(CORR)=     -196.85654748     Delta= 7.45D-05
 NORM(A)=   0.10839330D+01
 Iteration Nr.  12
 **********************
 DD1Dir will call FoFMem   1 times, MxPair=       290
 NAB=   100 NAA=    45 NBB=    45.
 A-vector RMS=  3.2885294D-05 Max=  3.4540422D-04 conv= 1.00D-05.
 RLE energy=       -0.9719577488
 DE(Corr)= -0.97194276     E(CORR)=     -196.85669976     Delta=-1.52D-04
 NORM(A)=   0.10838303D+01
 Iteration Nr.  13
 **********************
 DD1Dir will call FoFMem   1 times, MxPair=       290
 NAB=   100 NAA=    45 NBB=    45.
 A-vector RMS=  2.2652146D-05 Max=  2.8812042D-04 conv= 1.00D-05.
 RLE energy=       -0.9718092362
 DE(Corr)= -0.97174660     E(CORR)=     -196.85650360     Delta= 1.96D-04
 NORM(A)=   0.10838436D+01
 Iteration Nr.  14
 **********************
 DD1Dir will call FoFMem   1 times, MxPair=       290
 NAB=   100 NAA=    45 NBB=    45.
 A-vector RMS=  1.0132119D-05 Max=  9.2323298D-05 conv= 1.00D-05.
 RLE energy=       -0.9718394681
 DE(Corr)= -0.97186430     E(CORR)=     -196.85662130     Delta=-1.18D-04
 NORM(A)=   0.10838173D+01
 Iteration Nr.  15
 **********************
 DD1Dir will call FoFMem   1 times, MxPair=       290
 NAB=   100 NAA=    45 NBB=    45.
 A-vector RMS=  7.1872468D-06 Max=  9.9478065D-05 conv= 1.00D-05.
 RLE energy=       -0.9718261068
 DE(Corr)= -0.97182525     E(CORR)=     -196.85658224     Delta= 3.91D-05
 NORM(A)=   0.10837930D+01
 Iteration Nr.  16
 **********************
 DD1Dir will call FoFMem   1 times, MxPair=       290
 NAB=   100 NAA=    45 NBB=    45.
 A-vector RMS=  3.5030645D-06 Max=  4.5390489D-05 conv= 1.00D-05.
 RLE energy=       -0.9718267331
 DE(Corr)= -0.97183046     E(CORR)=     -196.85658745     Delta=-5.21D-06
 NORM(A)=   0.10837742D+01
 Iteration Nr.  17
 **********************
 DD1Dir will call FoFMem   1 times, MxPair=       290
 NAB=   100 NAA=    45 NBB=    45.
 A-vector RMS=  2.7637734D-06 Max=  3.3765222D-05 conv= 1.00D-05.
 RLE energy=       -0.9718218259
 DE(Corr)= -0.97182561     E(CORR)=     -196.85658261     Delta= 4.85D-06
 NORM(A)=   0.10837559D+01
 Iteration Nr.  18
 **********************
 DD1Dir will call FoFMem   1 times, MxPair=       290
 NAB=   100 NAA=    45 NBB=    45.
 A-vector RMS=  2.3001859D-06 Max=  2.6526992D-05 conv= 1.00D-05.
 RLE energy=       -0.9718276399
 DE(Corr)= -0.97182746     E(CORR)=     -196.85658446     Delta=-1.85D-06
 NORM(A)=   0.10837300D+01
 Iteration Nr.  19
 **********************
 DD1Dir will call FoFMem   1 times, MxPair=       290
 NAB=   100 NAA=    45 NBB=    45.
 A-vector RMS=  1.4509037D-06 Max=  1.0455462D-05 conv= 1.00D-05.
 RLE energy=       -0.9718186844
 DE(Corr)= -0.97181784     E(CORR)=     -196.85657484     Delta= 9.62D-06
 NORM(A)=   0.10837239D+01
 Iteration Nr.  20
 **********************
 DD1Dir will call FoFMem   1 times, MxPair=       290
 NAB=   100 NAA=    45 NBB=    45.
 A-vector RMS=  1.1324581D-06 Max=  1.4225466D-05 conv= 1.00D-05.
 RLE energy=       -0.9718239412
 DE(Corr)= -0.97182581     E(CORR)=     -196.85658281     Delta=-7.98D-06
 NORM(A)=   0.10837148D+01
 Iteration Nr.  21
 **********************
 DD1Dir will call FoFMem   1 times, MxPair=       290
 NAB=   100 NAA=    45 NBB=    45.
 A-vector RMS=  7.7092568D-07 Max=  1.0481664D-05 conv= 1.00D-05.
 RLE energy=       -0.9718217129
 DE(Corr)= -0.97182080     E(CORR)=     -196.85657780     Delta= 5.02D-06
 NORM(A)=   0.10837109D+01
 Iteration Nr.  22
 **********************
 DD1Dir will call FoFMem   1 times, MxPair=       290
 NAB=   100 NAA=    45 NBB=    45.
 A-vector RMS=  5.8188220D-07 Max=  6.0474642D-06 conv= 1.00D-05.
 RLE energy=       -0.9718221913
 DE(Corr)= -0.97182245     E(CORR)=     -196.85657945     Delta=-1.66D-06
 NORM(A)=   0.10837092D+01
 Iteration Nr.  23
 **********************
 DD1Dir will call FoFMem   1 times, MxPair=       290
 NAB=   100 NAA=    45 NBB=    45.
 A-vector RMS=  3.3888459D-07 Max=  2.9915359D-06 conv= 1.00D-05.
 RLE energy=       -0.9718220394
 DE(Corr)= -0.97182209     E(CORR)=     -196.85657909     Delta= 3.64D-07
 NORM(A)=   0.10837084D+01
 Iteration Nr.  24
 **********************
 DD1Dir will call FoFMem   1 times, MxPair=       290
 NAB=   100 NAA=    45 NBB=    45.
 A-vector RMS=  1.9970539D-07 Max=  1.9798690D-06 conv= 1.00D-05.
 RLE energy=       -0.9718225994
 DE(Corr)= -0.97182238     E(CORR)=     -196.85657938     Delta=-2.91D-07
 NORM(A)=   0.10837082D+01
 Iteration Nr.  25
 **********************
 DD1Dir will call FoFMem   1 times, MxPair=       290
 NAB=   100 NAA=    45 NBB=    45.
 A-vector RMS=  1.5169793D-07 Max=  1.6509775D-06 conv= 1.00D-05.
 RLE energy=       -0.9718218854
 DE(Corr)= -0.97182194     E(CORR)=     -196.85657894     Delta= 4.40D-07
 NORM(A)=   0.10837086D+01
 Iteration Nr.  26
 **********************
 DD1Dir will call FoFMem   1 times, MxPair=       290
 NAB=   100 NAA=    45 NBB=    45.
 A-vector RMS=  1.0515412D-07 Max=  8.3268206D-07 conv= 1.00D-05.
 RLE energy=       -0.9718224668
 DE(Corr)= -0.97182268     E(CORR)=     -196.85657968     Delta=-7.40D-07
 NORM(A)=   0.10837087D+01
 Iteration Nr.  27
 **********************
 DD1Dir will call FoFMem   1 times, MxPair=       290
 NAB=   100 NAA=    45 NBB=    45.
 A-vector RMS=  6.6649677D-08 Max=  8.1589774D-07 conv= 1.00D-05.
 RLE energy=       -0.9718223204
 DE(Corr)= -0.97182221     E(CORR)=     -196.85657921     Delta= 4.67D-07
 NORM(A)=   0.10837088D+01
 Iteration Nr.  28
 **********************
 DD1Dir will call FoFMem   1 times, MxPair=       290
 NAB=   100 NAA=    45 NBB=    45.
 A-vector RMS=  5.7265106D-08 Max=  8.6952539D-07 conv= 1.00D-05.
 RLE energy=       -0.9718223662
 DE(Corr)= -0.97182236     E(CORR)=     -196.85657936     Delta=-1.51D-07
 NORM(A)=   0.10837090D+01
 Iteration Nr.  29
 **********************
 DD1Dir will call FoFMem   1 times, MxPair=       290
 NAB=   100 NAA=    45 NBB=    45.
 A-vector RMS=  3.5651254D-08 Max=  5.2601311D-07 conv= 1.00D-05.
 RLE energy=       -0.9718223592
 DE(Corr)= -0.97182234     E(CORR)=     -196.85657934     Delta= 2.34D-08
 NORM(A)=   0.10837091D+01
 CI/CC converged in   29 iterations to DelEn= 2.34D-08 Conv= 1.00D-07 ErrA1= 3.57D-08 Conv= 1.00D-05
 Wavefunction amplitudes converged. E(Corr)=     -196.85657934    
 Largest amplitude= 7.93D-02
 Time for triples=    16685.17 seconds.
 T4(CCSD)= -0.46612813D-01
 T5(CCSD)=  0.91963488D-02
 CCSD(T)= -0.19689399580D+03
 Discarding MO integrals.
 Leave Link  913 at Sat May  5 21:03:00 2018, MaxMem= 10737418240 cpu:           27272.2 elap:             853.2
 (Enter /home1/apps/gaussian/16rA.03/g16/l601.exe)
 Copying SCF densities to generalized density rwf, IOpCl= 0 IROHF=1.

 **********************************************************************

            Population analysis using the SCF density.

 **********************************************************************

 Orbital symmetries:
       Occupied  (SG) (SG) (PI) (PI) (SG) (PI) (PI) (DLTA) (DLTA)
                 (SG)
       Virtual   (SG) (PI) (PI) (SG) (SG) (SG) (PI) (PI) (SG) (PI)
                 (PI) (DLTA) (DLTA) (SG) (SG) (PI) (PI) (SG) (PI)
                 (PI) (SG) (SG) (SG) (PI) (PI) (DLTA) (DLTA) (SG)
                 (DLTA) (DLTA) (SG) (PI) (PI) (PI) (PI) (PI) (PI)
                 (SG) (PHI) (PHI) (SG) (DLTA) (DLTA) (PI) (PI)
                 (SG) (DLTA) (DLTA) (PI) (PI) (SG) (SG) (SG) (PI)
                 (PI) (SG) (DLTA) (DLTA) (PI) (PI) (PI) (PI) (SG)
                 (PHI) (PHI) (SG) (DLTA) (DLTA) (PI) (PI) (SG)
                 (DLTA) (DLTA) (PI) (PI) (PHI) (PHI) (?A) (?A)
                 (DLTA) (DLTA) (SG) (PI) (PI) (SG) (SG) (PI) (PI)
                 (SG) (SG) (PHI) (PHI) (DLTA) (DLTA) (PI) (PI)
                 (SG) (DLTA) (DLTA) (PI) (PI) (SG) (PHI) (PHI)
                 (?A) (?A) (DLTA) (DLTA) (PI) (PI) (SG) (PI) (PI)
                 (SG) (SG) (PHI) (PHI) (DLTA) (DLTA) (PI) (PI)
                 (SG) (PI) (PI) (SG) (DLTA) (DLTA) (PI) (PI) (SG)
                 (SG) (?A) (?A) (PHI) (PHI) (DLTA) (DLTA) (PI)
                 (PI) (SG) (PI) (PI) (SG) (SG) (DLTA) (DLTA) (PI)
                 (PI) (SG) (SG) (PI) (PI) (SG) (SG) (DLTA) (DLTA)
                 (PI) (PI) (SG) (PI) (PI) (SG) (SG) (PI) (PI) (SG)
                 (SG) (DLTA) (DLTA) (PI) (PI) (SG) (PI) (PI) (SG)
                 (SG) (PI) (PI) (SG) (SG) (PI) (PI) (SG) (SG) (PI)
                 (PI) (SG) (SG) (PI) (PI) (SG) (SG) (SG) (PI) (PI)
                 (SG) (SG) (SG) (SG) (SG)
 The electronic state is 1-SG.
 Alpha  occ. eigenvalues --   -5.23230  -3.40362  -3.39768  -3.39768  -0.51742
 Alpha  occ. eigenvalues --   -0.50436  -0.50436  -0.50003  -0.50003  -0.34060
 Alpha virt. eigenvalues --    0.00329   0.02957   0.02957   0.03506   0.05624
 Alpha virt. eigenvalues --    0.10031   0.10387   0.10387   0.17233   0.19537
 Alpha virt. eigenvalues --    0.19537   0.20453   0.20453   0.21691   0.25935
 Alpha virt. eigenvalues --    0.32680   0.32680   0.34872   0.40885   0.40885
 Alpha virt. eigenvalues --    0.54253   0.66006   0.69228   0.70968   0.70968
 Alpha virt. eigenvalues --    0.73601   0.73601   0.92588   0.92783   0.92783
 Alpha virt. eigenvalues --    1.08953   1.09507   1.09507   1.13197   1.13197
 Alpha virt. eigenvalues --    1.34712   1.34712   1.34819   1.67675   1.67675
 Alpha virt. eigenvalues --    1.70553   1.82457   1.82457   2.10665   2.10665
 Alpha virt. eigenvalues --    2.13571   2.30615   2.30615   2.42909   2.42909
 Alpha virt. eigenvalues --    2.52159   2.68879   3.00137   3.45411   3.45411
 Alpha virt. eigenvalues --    3.68896   3.96336   3.96336   4.16144   4.16144
 Alpha virt. eigenvalues --    4.42899   4.42899   4.46160   4.79586   4.79586
 Alpha virt. eigenvalues --    4.85927   4.86604   4.86604   5.07420   5.07420
 Alpha virt. eigenvalues --    5.74000   6.47065   6.47065   6.48337   6.48337
 Alpha virt. eigenvalues --    6.49042   6.49042   6.49464   6.49464   6.53704
 Alpha virt. eigenvalues --    6.53704   6.75137   7.04725   7.04725   7.39846
 Alpha virt. eigenvalues --    8.12719   8.49767   8.49767   8.73031  10.52351
 Alpha virt. eigenvalues --   12.28397  12.28397  12.33197  12.33197  12.45000
 Alpha virt. eigenvalues --   12.45000  12.69559  16.13726  16.13726  16.17686
 Alpha virt. eigenvalues --   16.17686  16.46742  17.17730  17.17730  17.17915
 Alpha virt. eigenvalues --   17.17915  17.19402  17.19402  17.39125  17.39125
 Alpha virt. eigenvalues --   17.54800  17.75043  17.75043  17.90989  18.12786
 Alpha virt. eigenvalues --   32.10991  32.10991  32.14503  32.14503  32.22487
 Alpha virt. eigenvalues --   32.22487  32.33502  34.21437  34.21437  34.39397
 Alpha virt. eigenvalues --   35.31144  35.31144  35.35369  35.35369  35.72111
 Alpha virt. eigenvalues --   36.95480  41.49246  41.49246  41.49433  41.49433
 Alpha virt. eigenvalues --   41.50453  41.50453  41.61606  41.61606  41.83267
 Alpha virt. eigenvalues --   62.85611  62.85611  63.02445  64.06931  72.53535
 Alpha virt. eigenvalues --   72.53535  72.57591  72.57591  72.89962  75.13512
 Alpha virt. eigenvalues --  112.15469 112.15469 112.33227 151.73601 175.25366
 Alpha virt. eigenvalues --  175.25366 175.28709 175.28709 175.55501 201.18407
 Alpha virt. eigenvalues --  201.18407 201.34304 274.12924 368.39907 368.39907
 Alpha virt. eigenvalues --  368.54216 483.56359 620.60166 620.60166 620.62252
 Alpha virt. eigenvalues --  620.62252 620.79564 698.85993 698.85993 698.99491
 Alpha virt. eigenvalues --  904.484941399.844571399.844571399.969591796.00203
 Alpha virt. eigenvalues -- 3026.897823026.897823027.010703796.734567261.36719
 Alpha virt. eigenvalues -- 7261.367197261.465438560.30374********************
 Alpha virt. eigenvalues -- **************************************************
 Alpha virt. eigenvalues -- **************************************************
     Molecular Orbital Coefficients:
                           6         7         8         9        10
                           O         O         O         O         O
     Eigenvalues --    -0.50436  -0.50436  -0.50003  -0.50003  -0.34060
   1 1   Cu 1S          0.00000   0.00000  -0.00000   0.00000   0.00000
   2        2S          0.00000   0.00000   0.00000   0.00000  -0.00000
   3        3S          0.00000   0.00000  -0.00000   0.00000   0.00000
   4        4S          0.00000   0.00000   0.00000   0.00000  -0.00000
   5        5S          0.00000   0.00000  -0.00000   0.00000   0.00000
   6        6S          0.00000   0.00000   0.00000   0.00000  -0.00001
   7        7S          0.00000   0.00000  -0.00000   0.00000   0.00002
   8        8S          0.00000   0.00000   0.00000   0.00000  -0.00007
   9        9S          0.00000   0.00000  -0.00000   0.00000   0.00023
  10       10S          0.00000   0.00000  -0.00000   0.00000  -0.00069
  11       11S          0.00000   0.00000   0.00000   0.00000   0.00224
  12       12S          0.00000   0.00000  -0.00000   0.00000  -0.00848
  13       13S          0.00000   0.00000  -0.00000   0.00000   0.00123
  14       14S          0.00000   0.00000   0.00000   0.00000   0.09414
  15       15S          0.00000   0.00000  -0.00000   0.00000  -0.01138
  16       16S          0.00000   0.00000  -0.00000   0.00000  -0.18063
  17       17S          0.00000   0.00000  -0.00000   0.00000  -0.14683
  18       18S          0.00000   0.00000   0.00000   0.00000   0.17275
  19       19S          0.00000   0.00000   0.00000   0.00000   0.23082
  20       20S          0.00000   0.00000  -0.00000   0.00000   0.09360
  21       21S          0.00000   0.00000  -0.00000   0.00000  -0.03252
  22       22S          0.00000   0.00000  -0.00000   0.00000   0.01987
  23       23S          0.00000   0.00000   0.00000   0.00000  -0.01572
  24       24PX         0.00000  -0.00000   0.00000   0.00000   0.00000
  25       24PY        -0.00000   0.00000   0.00000   0.00000   0.00000
  26       24PZ         0.00000   0.00000  -0.00000   0.00000   0.00000
  27       25PX         0.00000   0.00000   0.00000   0.00000   0.00000
  28       25PY         0.00000   0.00000   0.00000   0.00000   0.00000
  29       25PZ         0.00000   0.00000   0.00000   0.00000  -0.00000
  30       26PX         0.00000  -0.00000   0.00000   0.00000   0.00000
  31       26PY        -0.00000   0.00000   0.00000   0.00000   0.00000
  32       26PZ         0.00000   0.00000  -0.00000   0.00000   0.00000
  33       27PX         0.00000   0.00000   0.00000   0.00000   0.00000
  34       27PY         0.00000   0.00000   0.00000   0.00000   0.00000
  35       27PZ         0.00000   0.00000   0.00000   0.00000  -0.00001
  36       28PX         0.00000  -0.00000   0.00000   0.00000   0.00000
  37       28PY        -0.00000   0.00000   0.00000   0.00000   0.00000
  38       28PZ         0.00000   0.00000  -0.00000   0.00000   0.00002
  39       29PX         0.00000   0.00002   0.00000   0.00000   0.00000
  40       29PY         0.00002   0.00000   0.00000   0.00000   0.00000
  41       29PZ         0.00000   0.00000   0.00000   0.00000  -0.00010
  42       30PX         0.00000  -0.00008   0.00000   0.00000   0.00000
  43       30PY        -0.00008   0.00000   0.00000   0.00000   0.00000
  44       30PZ         0.00000   0.00000  -0.00000   0.00000   0.00045
  45       31PX         0.00000   0.00020   0.00000   0.00000   0.00000
  46       31PY         0.00020   0.00000   0.00000   0.00000   0.00000
  47       31PZ         0.00000   0.00000   0.00000   0.00000  -0.00110
  48       32PX         0.00000   0.00038   0.00000   0.00000   0.00000
  49       32PY         0.00038   0.00000   0.00000   0.00000   0.00000
  50       32PZ         0.00000   0.00000  -0.00000   0.00000  -0.00591
  51       33PX         0.00000  -0.00409   0.00000   0.00000   0.00000
  52       33PY        -0.00409   0.00000   0.00000   0.00000   0.00000
  53       33PZ         0.00000   0.00000  -0.00000   0.00000   0.01381
  54       34PX         0.00000  -0.00155   0.00000   0.00000   0.00000
  55       34PY        -0.00155   0.00000   0.00000   0.00000   0.00000
  56       34PZ         0.00000   0.00000   0.00000   0.00000   0.02614
  57       35PX         0.00000   0.00810   0.00000   0.00000   0.00000
  58       35PY         0.00810   0.00000   0.00000   0.00000   0.00000
  59       35PZ         0.00000   0.00000   0.00000   0.00000   0.00955
  60       36PX         0.00000  -0.00462   0.00000   0.00000   0.00000
  61       36PY        -0.00462   0.00000   0.00000   0.00000   0.00000
  62       36PZ         0.00000   0.00000   0.00000   0.00000   0.03536
  63       37PX         0.00000   0.01167   0.00000   0.00000   0.00000
  64       37PY         0.01167   0.00000   0.00000   0.00000   0.00000
  65       37PZ         0.00000   0.00000  -0.00000   0.00000  -0.03868
  66       38PX         0.00000   0.00595   0.00000   0.00000   0.00000
  67       38PY         0.00595   0.00000   0.00000   0.00000   0.00000
  68       38PZ         0.00000   0.00000  -0.00000   0.00000  -0.05398
  69       39PX         0.00000  -0.00339   0.00000   0.00000   0.00000
  70       39PY        -0.00339   0.00000   0.00000   0.00000   0.00000
  71       39PZ         0.00000   0.00000  -0.00000   0.00000  -0.02072
  72       40PX         0.00000   0.00322   0.00000   0.00000   0.00000
  73       40PY         0.00322   0.00000   0.00000   0.00000   0.00000
  74       40PZ         0.00000   0.00000   0.00000   0.00000  -0.00890
  75       41PX         0.00000  -0.01428   0.00000   0.00000   0.00000
  76       41PY        -0.01428   0.00000   0.00000   0.00000   0.00000
  77       41PZ         0.00000   0.00000  -0.00000   0.00000   0.03658
  78       42PX         0.00000   0.00085   0.00000   0.00000   0.00000
  79       42PY         0.00085   0.00000   0.00000   0.00000   0.00000
  80       42PZ         0.00000   0.00000   0.00000   0.00000   0.00382
  81       43D 0        0.00000   0.00000  -0.00000   0.00000   0.00006
  82       43D+1        0.00000  -0.00014   0.00000   0.00000   0.00000
  83       43D-1       -0.00014   0.00000   0.00000   0.00000   0.00000
  84       43D+2        0.00000   0.00000  -0.00014   0.00000   0.00000
  85       43D-2        0.00000   0.00000   0.00000  -0.00014   0.00000
  86       44D 0        0.00000   0.00000   0.00000   0.00000  -0.00846
  87       44D+1        0.00000   0.02040   0.00000   0.00000   0.00000
  88       44D-1        0.02040   0.00000   0.00000   0.00000   0.00000
  89       44D+2        0.00000   0.00000   0.02050   0.00000  -0.00000
  90       44D-2        0.00000   0.00000   0.00000   0.02050   0.00000
  91       45D 0        0.00000   0.00000   0.00000   0.00000  -0.03672
  92       45D+1        0.00000   0.08850   0.00000   0.00000   0.00000
  93       45D-1        0.08850   0.00000   0.00000   0.00000   0.00000
  94       45D+2        0.00000   0.00000   0.08890   0.00000  -0.00000
  95       45D-2        0.00000   0.00000   0.00000   0.08890   0.00000
  96       46D 0        0.00000   0.00000   0.00000   0.00000  -0.06878
  97       46D+1        0.00000   0.16622   0.00000   0.00000   0.00000
  98       46D-1        0.16622   0.00000   0.00000   0.00000   0.00000
  99       46D+2        0.00000   0.00000   0.16720   0.00000  -0.00000
 100       46D-2        0.00000   0.00000   0.00000   0.16720   0.00000
 101       47D 0        0.00000   0.00000   0.00000   0.00000  -0.06415
 102       47D+1        0.00000   0.15253   0.00000   0.00000   0.00000
 103       47D-1        0.15253   0.00000   0.00000   0.00000   0.00000
 104       47D+2        0.00000   0.00000   0.15320   0.00000  -0.00000
 105       47D-2        0.00000   0.00000   0.00000   0.15320   0.00000
 106       48D 0        0.00000   0.00000   0.00000   0.00000  -0.14578
 107       48D+1        0.00000   0.35078   0.00000   0.00000   0.00000
 108       48D-1        0.35078   0.00000   0.00000   0.00000   0.00000
 109       48D+2        0.00000   0.00000   0.35183   0.00000  -0.00000
 110       48D-2        0.00000   0.00000   0.00000   0.35183   0.00000
 111       49D 0        0.00000   0.00000   0.00000   0.00000  -0.11014
 112       49D+1        0.00000   0.27421   0.00000   0.00000   0.00000
 113       49D-1        0.27421   0.00000   0.00000   0.00000   0.00000
 114       49D+2        0.00000   0.00000   0.27418   0.00000  -0.00000
 115       49D-2        0.00000   0.00000   0.00000   0.27418   0.00000
 116       50D 0        0.00000   0.00000   0.00000   0.00000  -0.05904
 117       50D+1        0.00000   0.12277   0.00000   0.00000   0.00000
 118       50D-1        0.12277   0.00000   0.00000   0.00000   0.00000
 119       50D+2        0.00000   0.00000   0.12177   0.00000   0.00000
 120       50D-2        0.00000   0.00000   0.00000   0.12177   0.00000
 121       51D 0        0.00000   0.00000   0.00000   0.00000  -0.01872
 122       51D+1        0.00000   0.04465   0.00000   0.00000   0.00000
 123       51D-1        0.04465   0.00000   0.00000   0.00000   0.00000
 124       51D+2        0.00000   0.00000   0.04460   0.00000   0.00000
 125       51D-2        0.00000   0.00000   0.00000   0.04460   0.00000
 126       52D 0        0.00000   0.00000   0.00000   0.00000  -0.06852
 127       52D+1        0.00000   0.16780   0.00000   0.00000   0.00000
 128       52D-1        0.16780   0.00000   0.00000   0.00000   0.00000
 129       52D+2        0.00000   0.00000   0.16857   0.00000  -0.00000
 130       52D-2        0.00000   0.00000   0.00000   0.16857   0.00000
 131       53D 0        0.00000   0.00000   0.00000   0.00000  -0.01134
 132       53D+1        0.00000   0.01260   0.00000   0.00000   0.00000
 133       53D-1        0.01260   0.00000   0.00000   0.00000   0.00000
 134       53D+2        0.00000   0.00000   0.00833   0.00000  -0.00000
 135       53D-2        0.00000   0.00000   0.00000   0.00833   0.00000
 136       54F 0        0.00000   0.00000  -0.00000   0.00000  -0.00026
 137       54F+1        0.00000   0.00023   0.00000   0.00000   0.00000
 138       54F-1        0.00023   0.00000   0.00000   0.00000   0.00000
 139       54F+2        0.00000   0.00000   0.00021   0.00000  -0.00000
 140       54F-2        0.00000   0.00000   0.00000   0.00021   0.00000
 141       54F+3        0.00000   0.00000   0.00000   0.00000   0.00000
 142       54F-3        0.00000   0.00000   0.00000   0.00000   0.00000
 143       55F 0        0.00000   0.00000   0.00000   0.00000  -0.00083
 144       55F+1        0.00000   0.00095   0.00000   0.00000   0.00000
 145       55F-1        0.00095   0.00000   0.00000   0.00000   0.00000
 146       55F+2        0.00000   0.00000   0.00075   0.00000  -0.00000
 147       55F-2        0.00000   0.00000   0.00000   0.00075   0.00000
 148       55F+3        0.00000   0.00000   0.00000   0.00000   0.00000
 149       55F-3        0.00000   0.00000   0.00000   0.00000   0.00000
 150       56F 0        0.00000   0.00000  -0.00000   0.00000  -0.00340
 151       56F+1        0.00000   0.00200   0.00000   0.00000   0.00000
 152       56F-1        0.00200   0.00000   0.00000   0.00000   0.00000
 153       56F+2        0.00000   0.00000   0.00196   0.00000  -0.00000
 154       56F-2        0.00000   0.00000   0.00000   0.00196   0.00000
 155       56F+3        0.00000   0.00000   0.00000   0.00000   0.00000
 156       56F-3        0.00000   0.00000   0.00000   0.00000   0.00000
 157       57F 0        0.00000   0.00000   0.00000   0.00000  -0.00739
 158       57F+1        0.00000   0.00657   0.00000   0.00000   0.00000
 159       57F-1        0.00657   0.00000   0.00000   0.00000   0.00000
 160       57F+2        0.00000   0.00000   0.00604   0.00000   0.00000
 161       57F-2        0.00000   0.00000   0.00000   0.00604   0.00000
 162       57F+3        0.00000   0.00000   0.00000   0.00000   0.00000
 163       57F-3        0.00000   0.00000   0.00000   0.00000   0.00000
 164       58G 0        0.00000   0.00000   0.00000   0.00000   0.00003
 165       58G+1        0.00000   0.00003   0.00000   0.00000   0.00000
 166       58G-1        0.00003   0.00000   0.00000   0.00000   0.00000
 167       58G+2        0.00000   0.00000   0.00002   0.00000  -0.00000
 168       58G-2        0.00000   0.00000   0.00000   0.00002   0.00000
 169       58G+3        0.00000   0.00000   0.00000   0.00000   0.00000
 170       58G-3        0.00000   0.00000   0.00000   0.00000   0.00000
 171       58G+4        0.00000   0.00000   0.00000   0.00000  -0.00000
 172       58G-4        0.00000   0.00000   0.00000   0.00000   0.00000
 173       59G 0        0.00000   0.00000  -0.00000   0.00000  -0.00004
 174       59G+1        0.00000  -0.00011   0.00000   0.00000   0.00000
 175       59G-1       -0.00011   0.00000   0.00000   0.00000   0.00000
 176       59G+2        0.00000   0.00000  -0.00001   0.00000   0.00000
 177       59G-2        0.00000   0.00000   0.00000  -0.00001   0.00000
 178       59G+3        0.00000   0.00000   0.00000   0.00000   0.00000
 179       59G-3        0.00000   0.00000   0.00000   0.00000   0.00000
 180       59G+4        0.00000   0.00000   0.00000   0.00000   0.00000
 181       59G-4        0.00000   0.00000   0.00000   0.00000   0.00000
 182       60G 0        0.00000   0.00000   0.00000   0.00000   0.00041
 183       60G+1        0.00000   0.00099   0.00000   0.00000   0.00000
 184       60G-1        0.00099   0.00000   0.00000   0.00000   0.00000
 185       60G+2        0.00000   0.00000   0.00050   0.00000  -0.00000
 186       60G-2        0.00000   0.00000   0.00000   0.00050   0.00000
 187       60G+3        0.00000   0.00000   0.00000   0.00000   0.00000
 188       60G-3        0.00000   0.00000   0.00000   0.00000   0.00000
 189       60G+4        0.00000   0.00000   0.00000   0.00000  -0.00000
 190       60G-4        0.00000   0.00000   0.00000   0.00000   0.00000
 191 2   H  1S          0.00000   0.00000   0.00000   0.00000   0.00261
 192        2S          0.00000   0.00000   0.00000   0.00000   0.02849
 193        3S          0.00000   0.00000   0.00000   0.00000   0.10969
 194        4S          0.00000   0.00000   0.00000   0.00000   0.26897
 195        5S          0.00000   0.00000   0.00000   0.00000   0.26325
 196        6S          0.00000   0.00000   0.00000   0.00000   0.03670
 197        7PX         0.00000  -0.00409   0.00000   0.00000   0.00000
 198        7PY        -0.00409   0.00000   0.00000   0.00000   0.00000
 199        7PZ         0.00000   0.00000   0.00000   0.00000   0.00174
 200        8PX         0.00000  -0.00738   0.00000   0.00000   0.00000
 201        8PY        -0.00738   0.00000   0.00000   0.00000   0.00000
 202        8PZ         0.00000   0.00000   0.00000   0.00000   0.01114
 203        9PX         0.00000   0.00564   0.00000   0.00000   0.00000
 204        9PY         0.00564   0.00000   0.00000   0.00000   0.00000
 205        9PZ         0.00000   0.00000   0.00000   0.00000   0.00574
 206       10D 0        0.00000   0.00000   0.00000   0.00000   0.00033
 207       10D+1        0.00000  -0.00243   0.00000   0.00000   0.00000
 208       10D-1       -0.00243   0.00000   0.00000   0.00000   0.00000
 209       10D+2        0.00000   0.00000   0.00094   0.00000  -0.00000
 210       10D-2        0.00000   0.00000   0.00000   0.00094   0.00000
 211       11D 0        0.00000   0.00000   0.00000   0.00000  -0.00221
 212       11D+1        0.00000  -0.00027   0.00000   0.00000   0.00000
 213       11D-1       -0.00027   0.00000   0.00000   0.00000   0.00000
 214       11D+2        0.00000   0.00000  -0.00154   0.00000   0.00000
 215       11D-2        0.00000   0.00000   0.00000  -0.00154   0.00000
                          11        12        13        14        15
                           V         V         V         V         V
     Eigenvalues --     0.00329   0.02957   0.02957   0.03506   0.05624
   1 1   Cu 1S          0.00000   0.00000   0.00000   0.00000  -0.00000
   2        2S         -0.00000   0.00000   0.00000  -0.00000   0.00000
   3        3S          0.00000   0.00000   0.00000   0.00000  -0.00000
   4        4S         -0.00000   0.00000   0.00000  -0.00000   0.00000
   5        5S          0.00000   0.00000   0.00000   0.00000  -0.00000
   6        6S         -0.00000   0.00000   0.00000  -0.00000   0.00000
   7        7S          0.00001   0.00000   0.00000   0.00000  -0.00001
   8        8S         -0.00003   0.00000   0.00000  -0.00000   0.00002
   9        9S          0.00009   0.00000   0.00000   0.00001  -0.00005
  10       10S         -0.00025   0.00000   0.00000  -0.00004   0.00011
  11       11S          0.00075   0.00000   0.00000   0.00018  -0.00009
  12       12S         -0.00265   0.00000   0.00000  -0.00079  -0.00047
  13       13S          0.00273   0.00000   0.00000  -0.00130  -0.01017
  14       14S          0.00740   0.00000   0.00000   0.02190   0.10030
  15       15S         -0.04760   0.00000   0.00000   0.02472   0.19153
  16       16S          0.10002   0.00000   0.00000  -0.10381  -0.70272
  17       17S          0.00815   0.00000   0.00000  -0.03708  -0.25362
  18       18S         -0.11092   0.00000   0.00000  -0.02725   0.42453
  19       19S          0.53841   0.00000   0.00000  -0.95772  -1.52555
  20       20S         -0.60519   0.00000   0.00000  -0.71557   3.07371
  21       21S          0.02891   0.00000   0.00000  -0.02614  -0.17093
  22       22S         -0.14463   0.00000   0.00000   0.08258   0.68060
  23       23S          0.89314   0.00000   0.00000  -3.66599  -0.85200
  24       24PX         0.00000   0.00000   0.00000   0.00000   0.00000
  25       24PY         0.00000   0.00000   0.00000   0.00000   0.00000
  26       24PZ        -0.00000   0.00000   0.00000   0.00000  -0.00000
  27       25PX         0.00000  -0.00000   0.00000   0.00000   0.00000
  28       25PY         0.00000   0.00000  -0.00000   0.00000   0.00000
  29       25PZ         0.00000   0.00000   0.00000  -0.00000   0.00000
  30       26PX         0.00000   0.00000   0.00000   0.00000   0.00000
  31       26PY         0.00000   0.00000   0.00000   0.00000   0.00000
  32       26PZ        -0.00000   0.00000   0.00000   0.00000  -0.00000
  33       27PX         0.00000  -0.00001   0.00000   0.00000   0.00000
  34       27PY         0.00000   0.00000  -0.00001   0.00000   0.00000
  35       27PZ         0.00001   0.00000   0.00000  -0.00001   0.00001
  36       28PX         0.00000   0.00003   0.00000   0.00000   0.00000
  37       28PY         0.00000   0.00000   0.00003   0.00000   0.00000
  38       28PZ        -0.00002   0.00000   0.00000   0.00002  -0.00003
  39       29PX         0.00000  -0.00008   0.00000   0.00000   0.00000
  40       29PY         0.00000   0.00000  -0.00008   0.00000   0.00000
  41       29PZ         0.00008   0.00000   0.00000  -0.00007   0.00011
  42       30PX         0.00000   0.00023   0.00000   0.00000   0.00000
  43       30PY         0.00000   0.00000   0.00023   0.00000   0.00000
  44       30PZ        -0.00034   0.00000   0.00000   0.00023  -0.00049
  45       31PX         0.00000  -0.00098   0.00000   0.00000   0.00000
  46       31PY         0.00000   0.00000  -0.00098   0.00000   0.00000
  47       31PZ         0.00087   0.00000   0.00000  -0.00083   0.00133
  48       32PX         0.00000   0.00927   0.00000   0.00000   0.00000
  49       32PY         0.00000   0.00000   0.00927   0.00000   0.00000
  50       32PZ         0.00376   0.00000   0.00000   0.00421   0.00331
  51       33PX         0.00000   0.04294   0.00000   0.00000   0.00000
  52       33PY         0.00000   0.00000   0.04294   0.00000   0.00000
  53       33PZ        -0.01288   0.00000   0.00000   0.02841  -0.02413
  54       34PX         0.00000  -0.04484   0.00000   0.00000   0.00000
  55       34PY         0.00000   0.00000  -0.04484   0.00000   0.00000
  56       34PZ        -0.01611   0.00000   0.00000  -0.02067  -0.01449
  57       35PX         0.00000  -0.20304   0.00000   0.00000   0.00000
  58       35PY         0.00000   0.00000  -0.20304   0.00000   0.00000
  59       35PZ         0.01212   0.00000   0.00000  -0.11473   0.03365
  60       36PX         0.00000   0.02419   0.00000   0.00000   0.00000
  61       36PY         0.00000   0.00000   0.02419   0.00000   0.00000
  62       36PZ        -0.03152   0.00000   0.00000   0.01886  -0.03588
  63       37PX         0.00000  -0.02843   0.00000   0.00000   0.00000
  64       37PY         0.00000   0.00000  -0.02843   0.00000   0.00000
  65       37PZ         0.03528   0.00000   0.00000  -0.00755   0.01330
  66       38PX         0.00000   0.13405   0.00000   0.00000   0.00000
  67       38PY         0.00000   0.00000   0.13405   0.00000   0.00000
  68       38PZ         0.02146   0.00000   0.00000   0.38611   0.27057
  69       39PX         0.00000  -0.26340   0.00000   0.00000   0.00000
  70       39PY         0.00000   0.00000  -0.26340   0.00000   0.00000
  71       39PZ         0.12425   0.00000   0.00000   0.55514   0.72509
  72       40PX         0.00000  -0.03877   0.00000   0.00000   0.00000
  73       40PY         0.00000   0.00000  -0.03877   0.00000   0.00000
  74       40PZ         0.00896   0.00000   0.00000  -0.02489   0.01842
  75       41PX         0.00000   0.18920   0.00000   0.00000   0.00000
  76       41PY         0.00000   0.00000   0.18920   0.00000   0.00000
  77       41PZ        -0.04369   0.00000   0.00000   0.11718  -0.07542
  78       42PX         0.00000   1.12395   0.00000   0.00000   0.00000
  79       42PY         0.00000   0.00000   1.12395   0.00000   0.00000
  80       42PZ         0.56809   0.00000   0.00000   1.82328  -1.23632
  81       43D 0       -0.00001   0.00000   0.00000   0.00001  -0.00002
  82       43D+1        0.00000  -0.00000   0.00000   0.00000   0.00000
  83       43D-1        0.00000   0.00000  -0.00000   0.00000   0.00000
  84       43D+2       -0.00000   0.00000   0.00000  -0.00000   0.00000
  85       43D-2        0.00000   0.00000   0.00000   0.00000   0.00000
  86       44D 0        0.00175   0.00000   0.00000  -0.00054   0.00195
  87       44D+1        0.00000  -0.00016   0.00000   0.00000   0.00000
  88       44D-1        0.00000   0.00000  -0.00016   0.00000   0.00000
  89       44D+2       -0.00000   0.00000   0.00000  -0.00000   0.00000
  90       44D-2        0.00000   0.00000   0.00000   0.00000   0.00000
  91       45D 0        0.00776   0.00000   0.00000  -0.00214   0.00790
  92       45D+1        0.00000  -0.00084   0.00000   0.00000   0.00000
  93       45D-1        0.00000   0.00000  -0.00084   0.00000   0.00000
  94       45D+2       -0.00000   0.00000   0.00000  -0.00000   0.00000
  95       45D-2        0.00000   0.00000   0.00000   0.00000   0.00000
  96       46D 0        0.01251   0.00000   0.00000  -0.00671   0.02220
  97       46D+1        0.00000   0.00029   0.00000   0.00000   0.00000
  98       46D-1        0.00000   0.00000   0.00029   0.00000   0.00000
  99       46D+2        0.00000   0.00000   0.00000   0.00000  -0.00000
 100       46D-2        0.00000   0.00000   0.00000   0.00000   0.00000
 101       47D 0        0.01217   0.00000   0.00000  -0.00566   0.01222
 102       47D+1        0.00000  -0.00027   0.00000   0.00000   0.00000
 103       47D-1        0.00000   0.00000  -0.00027   0.00000   0.00000
 104       47D+2       -0.00000   0.00000   0.00000  -0.00000   0.00000
 105       47D-2        0.00000   0.00000   0.00000   0.00000   0.00000
 106       48D 0        0.03211   0.00000   0.00000  -0.00643   0.02612
 107       48D+1        0.00000  -0.00431   0.00000   0.00000   0.00000
 108       48D-1        0.00000   0.00000  -0.00431   0.00000   0.00000
 109       48D+2       -0.00000   0.00000   0.00000  -0.00000   0.00000
 110       48D-2        0.00000   0.00000   0.00000   0.00000   0.00000
 111       49D 0        0.01859   0.00000   0.00000  -0.01431   0.04155
 112       49D+1        0.00000   0.00076   0.00000   0.00000   0.00000
 113       49D-1        0.00000   0.00000   0.00076   0.00000   0.00000
 114       49D+2        0.00000   0.00000   0.00000   0.00000  -0.00000
 115       49D-2        0.00000   0.00000   0.00000   0.00000   0.00000
 116       50D 0        0.03082   0.00000   0.00000  -0.04187  -0.02951
 117       50D+1        0.00000  -0.01494   0.00000   0.00000   0.00000
 118       50D-1        0.00000   0.00000  -0.01494   0.00000   0.00000
 119       50D+2       -0.00000   0.00000   0.00000  -0.00000   0.00000
 120       50D-2        0.00000   0.00000   0.00000   0.00000   0.00000
 121       51D 0        0.00621   0.00000   0.00000   0.00193  -0.00418
 122       51D+1        0.00000  -0.00249   0.00000   0.00000   0.00000
 123       51D-1        0.00000   0.00000  -0.00249   0.00000   0.00000
 124       51D+2       -0.00000   0.00000   0.00000  -0.00000   0.00000
 125       51D-2        0.00000   0.00000   0.00000   0.00000   0.00000
 126       52D 0        0.01445   0.00000   0.00000  -0.00395   0.02165
 127       52D+1        0.00000  -0.00147   0.00000   0.00000   0.00000
 128       52D-1        0.00000   0.00000  -0.00147   0.00000   0.00000
 129       52D+2        0.00000   0.00000   0.00000  -0.00000   0.00000
 130       52D-2        0.00000   0.00000   0.00000   0.00000   0.00000
 131       53D 0        0.05529   0.00000   0.00000  -0.16116   0.01251
 132       53D+1        0.00000   0.09600   0.00000   0.00000   0.00000
 133       53D-1        0.00000   0.00000   0.09600   0.00000   0.00000
 134       53D+2        0.00000   0.00000   0.00000   0.00000  -0.00000
 135       53D-2        0.00000   0.00000   0.00000   0.00000   0.00000
 136       54F 0        0.00007   0.00000   0.00000  -0.00007  -0.00004
 137       54F+1        0.00000  -0.00003   0.00000   0.00000   0.00000
 138       54F-1        0.00000   0.00000  -0.00003   0.00000   0.00000
 139       54F+2        0.00000   0.00000   0.00000   0.00000  -0.00000
 140       54F-2        0.00000   0.00000   0.00000   0.00000   0.00000
 141       54F+3        0.00000  -0.00000   0.00000   0.00000   0.00000
 142       54F-3        0.00000   0.00000  -0.00000   0.00000   0.00000
 143       55F 0        0.00003   0.00000   0.00000   0.00009   0.00047
 144       55F+1        0.00000   0.00004   0.00000   0.00000   0.00000
 145       55F-1        0.00000   0.00000   0.00004   0.00000   0.00000
 146       55F+2       -0.00000   0.00000   0.00000  -0.00000   0.00000
 147       55F-2        0.00000   0.00000   0.00000   0.00000   0.00000
 148       55F+3        0.00000   0.00000   0.00000   0.00000   0.00000
 149       55F-3        0.00000   0.00000   0.00000   0.00000   0.00000
 150       56F 0        0.00092   0.00000   0.00000  -0.00116  -0.00062
 151       56F+1        0.00000  -0.00044   0.00000   0.00000   0.00000
 152       56F-1        0.00000   0.00000  -0.00044   0.00000   0.00000
 153       56F+2        0.00000   0.00000   0.00000   0.00000  -0.00000
 154       56F-2        0.00000   0.00000   0.00000   0.00000   0.00000
 155       56F+3        0.00000  -0.00000   0.00000   0.00000   0.00000
 156       56F-3        0.00000   0.00000  -0.00000   0.00000   0.00000
 157       57F 0        0.00170   0.00000   0.00000   0.00576   0.00383
 158       57F+1        0.00000   0.00185   0.00000   0.00000   0.00000
 159       57F-1        0.00000   0.00000   0.00185   0.00000   0.00000
 160       57F+2       -0.00000   0.00000   0.00000  -0.00000   0.00000
 161       57F-2        0.00000   0.00000   0.00000   0.00000   0.00000
 162       57F+3        0.00000   0.00000   0.00000   0.00000   0.00000
[...]
                         211       212       213       214       215
 211       11D 0        0.00008
 212       11D+1        0.00000   0.00000
 213       11D-1        0.00000   0.00000   0.00000
 214       11D+2       -0.00000   0.00000   0.00000   0.00000
 215       11D-2        0.00000   0.00000   0.00000   0.00000   0.00000
     Gross orbital populations:
                         Total     Alpha     Beta      Spin
   1 1   Cu 1S         -0.00000  -0.00000  -0.00000   0.00000
   2        2S          0.00000   0.00000   0.00000   0.00000
   3        3S         -0.00000  -0.00000  -0.00000   0.00000
   4        4S          0.00000   0.00000   0.00000   0.00000
   5        5S         -0.00000  -0.00000  -0.00000   0.00000
   6        6S          0.00000   0.00000   0.00000   0.00000
   7        7S         -0.00000  -0.00000  -0.00000   0.00000
   8        8S          0.00000   0.00000   0.00000   0.00000
   9        9S         -0.00001  -0.00000  -0.00000   0.00000
  10       10S          0.00004   0.00002   0.00002   0.00000
  11       11S         -0.00040  -0.00020  -0.00020   0.00000
  12       12S          0.00500   0.00250   0.00250   0.00000
  13       13S         -0.00024  -0.00012  -0.00012   0.00000
  14       14S         -0.39648  -0.19824  -0.19824   0.00000
  15       15S          0.07897   0.03948   0.03948   0.00000
  16       16S          1.66556   0.83278   0.83278   0.00000
  17       17S          0.70932   0.35466   0.35466   0.00000
  18       18S          0.21258   0.10629   0.10629   0.00000
  19       19S          0.34271   0.17135   0.17135   0.00000
  20       20S          0.12557   0.06279   0.06279   0.00000
  21       21S          0.18150   0.09075   0.09075   0.00000
  22       22S         -0.26239  -0.13119  -0.13119   0.00000
  23       23S         -0.01513  -0.00756  -0.00756   0.00000
  24       24PX         0.00000   0.00000   0.00000   0.00000
  25       24PY         0.00000   0.00000   0.00000   0.00000
  26       24PZ         0.00000   0.00000   0.00000   0.00000
  27       25PX        -0.00000  -0.00000  -0.00000   0.00000
  28       25PY        -0.00000  -0.00000  -0.00000   0.00000
  29       25PZ        -0.00000  -0.00000  -0.00000   0.00000
  30       26PX         0.00000   0.00000   0.00000   0.00000
  31       26PY         0.00000   0.00000   0.00000   0.00000
  32       26PZ         0.00000   0.00000   0.00000   0.00000
  33       27PX        -0.00000  -0.00000  -0.00000   0.00000
  34       27PY        -0.00000  -0.00000  -0.00000   0.00000
  35       27PZ        -0.00000  -0.00000  -0.00000   0.00000
  36       28PX         0.00000   0.00000   0.00000   0.00000
  37       28PY         0.00000   0.00000   0.00000   0.00000
  38       28PZ         0.00000   0.00000   0.00000   0.00000
  39       29PX        -0.00003  -0.00002  -0.00002   0.00000
  40       29PY        -0.00003  -0.00002  -0.00002   0.00000
  41       29PZ        -0.00003  -0.00002  -0.00002   0.00000
  42       30PX         0.00047   0.00024   0.00024   0.00000
  43       30PY         0.00047   0.00024   0.00024   0.00000
  44       30PZ         0.00047   0.00024   0.00024   0.00000
  45       31PX        -0.00276  -0.00138  -0.00138   0.00000
  46       31PY        -0.00276  -0.00138  -0.00138   0.00000
  47       31PZ        -0.00277  -0.00138  -0.00138   0.00000
  48       32PX        -0.05096  -0.02548  -0.02548   0.00000
  49       32PY        -0.05096  -0.02548  -0.02548   0.00000
  50       32PZ        -0.05173  -0.02586  -0.02586   0.00000
  51       33PX         0.06818   0.03409   0.03409   0.00000
  52       33PY         0.06818   0.03409   0.03409   0.00000
  53       33PZ         0.06630   0.03315   0.03315   0.00000
  54       34PX         0.58002   0.29001   0.29001   0.00000
  55       34PY         0.58002   0.29001   0.29001   0.00000
  56       34PZ         0.58770   0.29385   0.29385   0.00000
  57       35PX         0.78569   0.39285   0.39285   0.00000
  58       35PY         0.78569   0.39285   0.39285   0.00000
  59       35PZ         0.80298   0.40149   0.40149   0.00000
  60       36PX         0.48738   0.24369   0.24369   0.00000
  61       36PY         0.48738   0.24369   0.24369   0.00000
  62       36PZ         0.48047   0.24024   0.24024   0.00000
  63       37PX         0.04699   0.02350   0.02350   0.00000
  64       37PY         0.04699   0.02350   0.02350   0.00000
  65       37PZ         0.06471   0.03236   0.03236   0.00000
  66       38PX        -0.00078  -0.00039  -0.00039   0.00000
  67       38PY        -0.00078  -0.00039  -0.00039   0.00000
  68       38PZ         0.05945   0.02972   0.02972   0.00000
  69       39PX         0.00015   0.00008   0.00008   0.00000
  70       39PY         0.00015   0.00008   0.00008   0.00000
  71       39PZ         0.01713   0.00857   0.00857   0.00000
  72       40PX        -0.02308  -0.01154  -0.01154   0.00000
  73       40PY        -0.02308  -0.01154  -0.01154   0.00000
  74       40PZ        -0.02126  -0.01063  -0.01063   0.00000
  75       41PX         0.10917   0.05458   0.05458   0.00000
  76       41PY         0.10917   0.05458   0.05458   0.00000
  77       41PZ         0.09587   0.04794   0.04794   0.00000
  78       42PX        -0.00001  -0.00001  -0.00001   0.00000
  79       42PY        -0.00001  -0.00001  -0.00001   0.00000
  80       42PZ        -0.00138  -0.00069  -0.00069   0.00000
  81       43D 0       -0.00001  -0.00000  -0.00000   0.00000
  82       43D+1       -0.00001  -0.00001  -0.00001   0.00000
  83       43D-1       -0.00001  -0.00001  -0.00001   0.00000
  84       43D+2       -0.00001  -0.00001  -0.00001   0.00000
  85       43D-2       -0.00001  -0.00001  -0.00001   0.00000
  86       44D 0        0.00617   0.00308   0.00308   0.00000
  87       44D+1        0.00668   0.00334   0.00334   0.00000
  88       44D-1        0.00668   0.00334   0.00334   0.00000
  89       44D+2        0.00674   0.00337   0.00337   0.00000
  90       44D-2        0.00674   0.00337   0.00337   0.00000
  91       45D 0        0.06307   0.03154   0.03154   0.00000
  92       45D+1        0.06807   0.03403   0.03403   0.00000
  93       45D-1        0.06807   0.03403   0.03403   0.00000
  94       45D+2        0.06866   0.03433   0.03433   0.00000
  95       45D-2        0.06866   0.03433   0.03433   0.00000
  96       46D 0        0.19505   0.09752   0.09752   0.00000
  97       46D+1        0.21465   0.10732   0.10732   0.00000
  98       46D-1        0.21465   0.10732   0.10732   0.00000
  99       46D+2        0.21676   0.10838   0.10838   0.00000
 100       46D-2        0.21676   0.10838   0.10838   0.00000
 101       47D 0        0.23600   0.11800   0.11800   0.00000
 102       47D+1        0.25711   0.12855   0.12855   0.00000
 103       47D-1        0.25711   0.12855   0.12855   0.00000
 104       47D+2        0.25904   0.12952   0.12952   0.00000
 105       47D-2        0.25904   0.12952   0.12952   0.00000
 106       48D 0        0.58658   0.29329   0.29329   0.00000
 107       48D+1        0.61421   0.30710   0.30710   0.00000
 108       48D-1        0.61421   0.30710   0.30710   0.00000
 109       48D+2        0.61671   0.30836   0.30836   0.00000
 110       48D-2        0.61671   0.30836   0.30836   0.00000
 111       49D 0        0.38160   0.19080   0.19080   0.00000
 112       49D+1        0.38752   0.19376   0.19376   0.00000
 113       49D-1        0.38752   0.19376   0.19376   0.00000
 114       49D+2        0.38563   0.19281   0.19281   0.00000
 115       49D-2        0.38563   0.19281   0.19281   0.00000
 116       50D 0        0.10535   0.05267   0.05267   0.00000
 117       50D+1        0.09933   0.04966   0.04966   0.00000
 118       50D-1        0.09933   0.04966   0.04966   0.00000
 119       50D+2        0.09689   0.04845   0.04845   0.00000
 120       50D-2        0.09689   0.04845   0.04845   0.00000
 121       51D 0        0.06185   0.03092   0.03092   0.00000
 122       51D+1        0.06124   0.03062   0.03062   0.00000
 123       51D-1        0.06124   0.03062   0.03062   0.00000
 124       51D+2        0.06139   0.03070   0.03070   0.00000
 125       51D-2        0.06139   0.03070   0.03070   0.00000
 126       52D 0        0.26509   0.13254   0.13254   0.00000
 127       52D+1        0.28369   0.14185   0.14185   0.00000
 128       52D-1        0.28369   0.14185   0.14185   0.00000
 129       52D+2        0.28588   0.14294   0.14294   0.00000
 130       52D-2        0.28588   0.14294   0.14294   0.00000
 131       53D 0        0.00435   0.00217   0.00217   0.00000
 132       53D+1        0.00403   0.00201   0.00201   0.00000
 133       53D-1        0.00403   0.00201   0.00201   0.00000
 134       53D+2        0.00258   0.00129   0.00129   0.00000
 135       53D-2        0.00258   0.00129   0.00129   0.00000
 136       54F 0        0.00000   0.00000   0.00000   0.00000
 137       54F+1        0.00000   0.00000   0.00000   0.00000
 138       54F-1        0.00000   0.00000   0.00000   0.00000
 139       54F+2        0.00000   0.00000   0.00000   0.00000
 140       54F-2        0.00000   0.00000   0.00000   0.00000
 141       54F+3        0.00000   0.00000   0.00000   0.00000
 142       54F-3        0.00000   0.00000   0.00000   0.00000
 143       55F 0        0.00001   0.00000   0.00000   0.00000
 144       55F+1        0.00001   0.00000   0.00000   0.00000
 145       55F-1        0.00001   0.00000   0.00000   0.00000
 146       55F+2        0.00000   0.00000   0.00000   0.00000
 147       55F-2        0.00000   0.00000   0.00000   0.00000
 148       55F+3        0.00000   0.00000   0.00000   0.00000
 149       55F-3        0.00000   0.00000   0.00000   0.00000
 150       56F 0        0.00026   0.00013   0.00013   0.00000
 151       56F+1        0.00002   0.00001   0.00001   0.00000
 152       56F-1        0.00002   0.00001   0.00001   0.00000
 153       56F+2        0.00002   0.00001   0.00001   0.00000
 154       56F-2        0.00002   0.00001   0.00001   0.00000
 155       56F+3        0.00000   0.00000   0.00000   0.00000
 156       56F-3        0.00000   0.00000   0.00000   0.00000
 157       57F 0        0.00101   0.00050   0.00050   0.00000
 158       57F+1        0.00005   0.00002   0.00002   0.00000
 159       57F-1        0.00005   0.00002   0.00002   0.00000
 160       57F+2        0.00009   0.00005   0.00005   0.00000
 161       57F-2        0.00009   0.00005   0.00005   0.00000
 162       57F+3        0.00000   0.00000   0.00000   0.00000
 163       57F-3       -0.00000  -0.00000  -0.00000   0.00000
 164       58G 0        0.00000   0.00000   0.00000   0.00000
 165       58G+1        0.00000   0.00000   0.00000   0.00000
 166       58G-1        0.00000   0.00000   0.00000   0.00000
 167       58G+2        0.00000   0.00000   0.00000   0.00000
 168       58G-2        0.00000   0.00000   0.00000   0.00000
 169       58G+3        0.00000   0.00000   0.00000   0.00000
 170       58G-3        0.00000   0.00000   0.00000   0.00000
 171       58G+4        0.00000   0.00000   0.00000   0.00000
 172       58G-4        0.00000   0.00000   0.00000   0.00000
 173       59G 0       -0.00000  -0.00000  -0.00000   0.00000
 174       59G+1       -0.00000  -0.00000  -0.00000   0.00000
 175       59G-1       -0.00000  -0.00000  -0.00000   0.00000
 176       59G+2       -0.00000  -0.00000  -0.00000   0.00000
 177       59G-2       -0.00000  -0.00000  -0.00000   0.00000
 178       59G+3       -0.00000  -0.00000  -0.00000   0.00000
 179       59G-3        0.00000   0.00000   0.00000   0.00000
 180       59G+4        0.00000   0.00000   0.00000   0.00000
 181       59G-4        0.00000   0.00000   0.00000   0.00000
 182       60G 0        0.00005   0.00002   0.00002   0.00000
 183       60G+1        0.00000   0.00000   0.00000   0.00000
 184       60G-1        0.00000   0.00000   0.00000   0.00000
 185       60G+2        0.00000   0.00000   0.00000   0.00000
 186       60G-2        0.00000   0.00000   0.00000   0.00000
 187       60G+3        0.00000   0.00000   0.00000   0.00000
 188       60G-3       -0.00000  -0.00000  -0.00000   0.00000
 189       60G+4        0.00000   0.00000   0.00000   0.00000
 190       60G-4        0.00000   0.00000   0.00000   0.00000
 191 2   H  1S          0.00071   0.00035   0.00035   0.00000
 192        2S          0.02401   0.01201   0.01201   0.00000
 193        3S          0.18785   0.09393   0.09393   0.00000
 194        4S          0.57772   0.28886   0.28886   0.00000
 195        5S          0.49988   0.24994   0.24994   0.00000
 196        6S          0.04607   0.02304   0.02304   0.00000
 197        7PX         0.00064   0.00032   0.00032   0.00000
 198        7PY         0.00064   0.00032   0.00032   0.00000
 199        7PZ         0.00232   0.00116   0.00116   0.00000
 200        8PX         0.00299   0.00150   0.00150   0.00000
 201        8PY         0.00299   0.00150   0.00150   0.00000
 202        8PZ         0.00759   0.00380   0.00380   0.00000
 203        9PX        -0.00128  -0.00064  -0.00064   0.00000
 204        9PY        -0.00128  -0.00064  -0.00064   0.00000
 205        9PZ         0.00203   0.00101   0.00101   0.00000
 206       10D 0        0.00097   0.00049   0.00049   0.00000
 207       10D+1        0.00067   0.00033   0.00033   0.00000
 208       10D-1        0.00067   0.00033   0.00033   0.00000
 209       10D+2        0.00007   0.00003   0.00003   0.00000
 210       10D-2        0.00007   0.00003   0.00003   0.00000
 211       11D 0       -0.00010  -0.00005  -0.00005   0.00000
 212       11D+1       -0.00004  -0.00002  -0.00002   0.00000
 213       11D-1       -0.00004  -0.00002  -0.00002   0.00000
 214       11D+2       -0.00046  -0.00023  -0.00023   0.00000
 215       11D-2       -0.00046  -0.00023  -0.00023   0.00000
          Condensed to atoms (all electrons):
               1          2
     1  Cu  18.261904   0.383878
     2  H    0.383878   0.970340
          Atomic-Atomic Spin Densities.
               1          2
     1  Cu   0.000000   0.000000
     2  H    0.000000   0.000000
 Mulliken charges and spin densities:
               1          2
     1  Cu   0.354218   0.000000
     2  H   -0.354218   0.000000
 Sum of Mulliken charges =  -0.00000   0.00000
 Mulliken charges and spin densities with hydrogens summed into heavy atoms:
               1          2
     1  Cu  -0.000000   0.000000
 Electronic spatial extent (au):  <R**2>=             38.6559
 Charge=             -0.0000 electrons
 Dipole moment (field-independent basis, Debye):
    X=              0.0000    Y=              0.0000    Z=              3.7685  Tot=              3.7685
 Quadrupole moment (field-independent basis, Debye-Ang):
   XX=            -13.7522   YY=            -13.7522   ZZ=            -15.4932
   XY=              0.0000   XZ=              0.0000   YZ=              0.0000
 Traceless Quadrupole moment (field-independent basis, Debye-Ang):
   XX=              0.5803   YY=              0.5803   ZZ=             -1.1606
   XY=              0.0000   XZ=              0.0000   YZ=              0.0000
 Octapole moment (field-independent basis, Debye-Ang**2):
  XXX=              0.0000  YYY=              0.0000  ZZZ=             12.9355  XYY=              0.0000
  XXY=              0.0000  XXZ=              3.6046  XZZ=              0.0000  YZZ=              0.0000
  YYZ=              3.6046  XYZ=              0.0000
 Hexadecapole moment (field-independent basis, Debye-Ang**3):
 XXXX=            -16.6865 YYYY=            -16.6865 ZZZZ=            -39.4024 XXXY=              0.0000
 XXXZ=              0.0000 YYYX=              0.0000 YYYZ=              0.0000 ZZZX=              0.0000
 ZZZY=              0.0000 XXYY=             -5.5622 XXZZ=             -9.1798 YYZZ=             -9.1798
 XXYZ=              0.0000 YYXZ=              0.0000 ZZXY=              0.0000
 N-N= 7.181690719629D+00 E-N=-4.997365149659D+02  KE= 1.301998008566D+02
 Symmetry A1   KE= 5.352119536842D+01
 Symmetry A2   KE= 1.888465733719D+01
 Symmetry B1   KE= 2.889697407549D+01
 Symmetry B2   KE= 2.889697407579D+01
 Symmetry A1   SP= 0.000000000000D+00
 Symmetry A2   SP= 0.000000000000D+00
 Symmetry B1   SP= 0.000000000000D+00
 Symmetry B2   SP= 0.000000000000D+00
 Orbital energies and kinetic energies (alpha):
                                 1                 2
   6         O                -0.504363          9.372709
   7         O                -0.504363          9.372709
   8         O                -0.500033          9.442329
   9         O                -0.500033          9.442329
  10         O                -0.340604          2.002155
  11         V                 0.003288          0.159774
  12         V                 0.029567          0.043568
  13         V                 0.029567          0.043568
  14         V                 0.035058          0.042893
  15         V                 0.056242          0.266503
 Total kinetic energy from orbitals= 1.301998008566D+02
                          Isotropic Fermi Contact Couplings
        Atom                 a.u.       MegaHertz       Gauss      10(-4) cm-1
     1  Cu(63)             0.00000       0.00000       0.00000       0.00000
     2  H(1)               0.00000       0.00000       0.00000       0.00000
 --------------------------------------------------------
       Center         ----  Spin Dipole Couplings  ----
                      3XX-RR        3YY-RR        3ZZ-RR
 --------------------------------------------------------
     1   Atom        0.000000      0.000000      0.000000
     2   Atom        0.000000      0.000000      0.000000
 --------------------------------------------------------
                        XY            XZ            YZ
 --------------------------------------------------------
     1   Atom        0.000000      0.000000      0.000000
     2   Atom        0.000000      0.000000      0.000000
 --------------------------------------------------------


 ---------------------------------------------------------------------------------
              Anisotropic Spin Dipole Couplings in Principal Axis System
 ---------------------------------------------------------------------------------

       Atom             a.u.   MegaHertz   Gauss  10(-4) cm-1        Axes

              Baa     0.0000     0.000     0.000     0.000  1.0000  0.0000  0.0000
     1 Cu(63) Bbb     0.0000     0.000     0.000     0.000 -0.0000  1.0000  0.0000
              Bcc     0.0000     0.000     0.000     0.000  0.0000  0.0000  1.0000
 
              Baa     0.0000     0.000     0.000     0.000  1.0000  0.0000  0.0000
     2 H(1)   Bbb     0.0000     0.000     0.000     0.000 -0.0000  1.0000  0.0000
              Bcc     0.0000     0.000     0.000     0.000  0.0000  0.0000  1.0000
 

 ---------------------------------------------------------------------------------

 No NMR shielding tensors so no spin-rotation constants.
 Leave Link  601 at Sat May  5 21:03:02 2018, MaxMem= 10737418240 cpu:              70.0 elap:               2.3
 (Enter /home1/apps/gaussian/16rA.03/g16/l9999.exe)

 Test job not archived.
 1\1\GINC-C433-104\SP\ROCCSD(T)-Full\Gen\Cu1H1\GWANG18\05-May-2018\0\\#
 P ROCCSD(T)=(MaxCyc=150, Full)/Gen SCF=(maxcycle=400, vshift=200) Pseu
 do=Read Integral(NoXCTest) Pop=Regular MaxDisk=500GB Guess=Read IOp(5/
 15=2)\\CuH\\0,1\Cu,0,0.,0.,0.\H,0,0.,0.,1.4\\Version=ES64L-G16RevA.03\
 State=1-SG\HF=-195.884757\MP2=-196.9764339\MP3=-196.7701053\PUHF=-195.
 884757\PMP2-0=-196.9764339\MP4SDQ=-196.9338694\CCSD=-196.8565793\CCSD(
 T)=-196.8939958\RMSD=4.583e-09\PG=C*V [C*(H1Cu1)]\\@


 IN SO FAR AS QUANTUM MECHANICS IS CORRECT, CHEMICAL 
 QUESTIONS ARE PROBLEMS IN APPLIED MATHEMATICS.

                    -- EYRING, WALTER, & KIMBALL, 1944
 Job cpu time:       0 days  8 hours 44 minutes  3.5 seconds.
 Elapsed time:       0 days  0 hours 16 minutes 25.1 seconds.
 File lengths (MBytes):  RWF=   3082 Int=      0 D2E=      0 Chk=      6 Scr=      1
 Normal termination of Gaussian 16 at Sat May  5 21:03:03 2018.
