 Entering Gaussian System, Link 0=g16
 Initial command:
 /home1/apps/gaussian/16rA.03/g16/l1.exe "/tmp/Gau-210392.inp" -scrdir="/tmp/"
 Entering Link 1 = /home1/apps/gaussian/16rA.03/g16/l1.exe PID=    210393.
  
 Copyright (c) 1988,1990,1992,1993,1995,1998,2003,2009,2016,
            Gaussian, Inc.  All Rights Reserved.
  
 This is part of the Gaussian(R) 16 program.  It is based on
 the Gaussian(R) 09 system (copyright 2009, Gaussian, Inc.),
 the Gaussian(R) 03 system (copyright 2003, Gaussian, Inc.),
 the Gaussian(R) 98 system (copyright 1998, Gaussian, Inc.),
 the Gaussian(R) 94 system (copyright 1995, Gaussian, Inc.),
 the Gaussian 92(TM) system (copyright 1992, Gaussian, Inc.),
 the Gaussian 90(TM) system (copyright 1990, Gaussian, Inc.),
 the Gaussian 88(TM) system (copyright 1988, Gaussian, Inc.),
 the Gaussian 86(TM) system (copyright 1986, Carnegie Mellon
 University), and the Gaussian 82(TM) system (copyright 1983,
 Carnegie Mellon University). Gaussian is a federally registered
 trademark of Gaussian, Inc.
  
 This software contains proprietary and confidential information,
 including trade secrets, belonging to Gaussian, Inc.
  
 This software is provided under written license and may be
 used, copied, transmitted, or stored only in accord with that
 written license.
  
 The following legend is applicable only to US Government
 contracts under FAR:
  
                    RESTRICTED RIGHTS LEGEND
  
 Use, reproduction and disclosure by the US Government is
 subject to restrictions as set forth in subparagraphs (a)
 and (c) of the Commercial Computer Software - Restricted
 Rights clause in FAR 52.227-19.
  
 Gaussian, Inc.
 340 Quinnipiac St., Bldg. 40, Wallingford CT 06492
  
  
 ---------------------------------------------------------------
 Warning -- This program may not be used in any manner that
 competes with the business of Gaussian, Inc. or will provide
 assistance to any competitor of Gaussian, Inc.  The licensee
 of this program is prohibited from giving any competitor of
 Gaussian, Inc. access to this program.  By using this program,
 the user acknowledges that Gaussian, Inc. is engaged in the
 business of creating and licensing software in the field of
 computational chemistry and represents and warrants to the
 licensee that it is not a competitor of Gaussian, Inc. and that
 it will not use this program in any manner prohibited above.
 ---------------------------------------------------------------
  

 Cite this work as:
 Gaussian 16, Revision A.03,
 M. J. Frisch, G. W. Trucks, H. B. Schlegel, G. E. Scuseria, 
 M. A. Robb, J. R. Cheeseman, G. Scalmani, V. Barone, 
 G. A. Petersson, H. Nakatsuji, X. Li, M. Caricato, A. V. Marenich, 
 J. Bloino, B. G. Janesko, R. Gomperts, B. Mennucci, H. P. Hratchian, 
 J. V. Ortiz, A. F. Izmaylov, J. L. Sonnenberg, D. Williams-Young, 
 F. Ding, F. Lipparini, F. Egidi, J. Goings, B. Peng, A. Petrone, 
 T. Henderson, D. Ranasinghe, V. G. Zakrzewski, J. Gao, N. Rega, 
 G. Zheng, W. Liang, M. Hada, M. Ehara, K. Toyota, R. Fukuda, 
 J. Hasegawa, M. Ishida, T. Nakajima, Y. Honda, O. Kitao, H. Nakai, 
 T. Vreven, K. Throssell, J. A. Montgomery, Jr., J. E. Peralta, 
 F. Ogliaro, M. J. Bearpark, J. J. Heyd, E. N. Brothers, K. N. Kudin, 
 V. N. Staroverov, T. A. Keith, R. Kobayashi, J. Normand, 
 K. Raghavachari, A. P. Rendell, J. C. Burant, S. S. Iyengar, 
 J. Tomasi, M. Cossi, J. M. Millam, M. Klene, C. Adamo, R. Cammi, 
 J. W. Ochterski, R. L. Martin, K. Morokuma, O. Farkas, 
 J. B. Foresman, and D. J. Fox, Gaussian, Inc., Wallingford CT, 2016.
 
 ******************************************
 Gaussian 16:  ES64L-G16RevA.03 25-Dec-2016
                 5-May-2018 
 ******************************************
 %mem=80GB
 %cpu=0-31
 SetSPE:  set environment variable "MP_BIND" = "yes"
 SetSPE:  set environment variable "MP_BLIST" = "0,1,2,3,4,5,6,7,8,9,10,11,12,13,14,15,16,17,18,19,20,21,22,23,24,25,26,27,28,29,30,31"
 Will use up to   32 processors via shared memory.
 %chk=tz.chk
 %rwf=/scratch/04843/gwang18/cuo/
 ----------------------------------------------------------------------
 #P ROCCSD(T)=(MaxCyc=150, Full)/Gen SCF=(maxcycle=400, vshift=200) Pse
 udo=Read Integral(NoXCTest) Pop=Regular MaxDisk=500GB Guess=Read IOp(5
 /15=2)
 ----------------------------------------------------------------------
 1/38=1,172=1/1;
 2/12=2,17=6,18=5,40=1/2;
 3/5=7,11=2,16=1,17=8,25=1,30=1,47=8,116=101/1,2,3;
 4/5=1/1;
 5/5=2,7=400,10=200,15=2,38=6/2;
 8/5=-1,6=4,9=120000,10=90/1,4;
 9/5=7,6=150,14=2/13;
 6//1;
 99/5=1,9=1/99;
 Leave Link    1 at Sat May  5 20:46:16 2018, MaxMem= 10737418240 cpu:               9.0 elap:               0.3
 (Enter /home1/apps/gaussian/16rA.03/g16/l101.exe)
 ---
 CuO
 ---
 Symbolic Z-matrix:
 Charge =  0 Multiplicity = 2
 Cu                    0.        0.        0. 
 O                     0.        0.        1.4 
 
 ITRead=  0  0
 MicOpt= -1 -1
 NAtoms=      2 NQM=        2 NQMF=       0 NMMI=      0 NMMIF=      0
                NMic=       0 NMicF=      0.
                    Isotopes and Nuclear Properties:
 (Nuclear quadrupole moments (NQMom) in fm**2, nuclear magnetic moments (NMagM)
  in nuclear magnetons)

  Atom         1           2
 IAtWgt=          63          16
 AtmWgt=  62.9295992  15.9949146
 NucSpn=           3           0
 AtZEff=  -0.0000000  -0.0000000
 NQMom=  -22.0000000   0.0000000
 NMagM=    2.2233000   0.0000000
 AtZNuc=  29.0000000   8.0000000
 Leave Link  101 at Sat May  5 20:46:17 2018, MaxMem= 10737418240 cpu:               3.1 elap:               0.1
 (Enter /home1/apps/gaussian/16rA.03/g16/l202.exe)
                          Input orientation:                          
 ---------------------------------------------------------------------
 Center     Atomic      Atomic             Coordinates (Angstroms)
 Number     Number       Type             X           Y           Z
 ---------------------------------------------------------------------
      1         29           0        0.000000    0.000000    0.000000
      2          8           0        0.000000    0.000000    1.400000
 ---------------------------------------------------------------------
 Stoichiometry    CuO(2)
 Framework group  C*V[C*(OCu)]
 Deg. of freedom     1
 Full point group                 C*V     NOp   4
 Largest Abelian subgroup         C2V     NOp   4
 Largest concise Abelian subgroup C1      NOp   1
                         Standard orientation:                         
 ---------------------------------------------------------------------
 Center     Atomic      Atomic             Coordinates (Angstroms)
 Number     Number       Type             X           Y           Z
 ---------------------------------------------------------------------
      1         29           0        0.000000    0.000000    0.302703
      2          8           0        0.000000    0.000000   -1.097297
 ---------------------------------------------------------------------
 Rotational constants (GHZ):           0.0000000          20.2179050          20.2179050
 Leave Link  202 at Sat May  5 20:46:17 2018, MaxMem= 10737418240 cpu:               0.8 elap:               0.1
 (Enter /home1/apps/gaussian/16rA.03/g16/l301.exe)
 General basis read from cards:  (5D, 7F)
 Centers:       1
 S 1 1.00
     Exponent=  5.4303210000D+06 Coefficients=  1.0000000000D+00
 S 1 1.00
     Exponent=  8.1316650000D+05 Coefficients=  1.0000000000D+00
 S 1 1.00
     Exponent=  1.8505440000D+05 Coefficients=  1.0000000000D+00
 S 1 1.00
     Exponent=  5.2414660000D+04 Coefficients=  1.0000000000D+00
 S 1 1.00
     Exponent=  1.7098680000D+04 Coefficients=  1.0000000000D+00
 S 1 1.00
     Exponent=  6.1719940000D+03 Coefficients=  1.0000000000D+00
 S 1 1.00
     Exponent=  2.4064810000D+03 Coefficients=  1.0000000000D+00
 S 1 1.00
     Exponent=  9.9725840000D+02 Coefficients=  1.0000000000D+00
 S 1 1.00
     Exponent=  4.3392890000D+02 Coefficients=  1.0000000000D+00
 S 1 1.00
     Exponent=  1.9628690000D+02 Coefficients=  1.0000000000D+00
 S 1 1.00
     Exponent=  9.1042800000D+01 Coefficients=  1.0000000000D+00
 S 1 1.00
     Exponent=  4.1384250000D+01 Coefficients=  1.0000000000D+00
 S 1 1.00
     Exponent=  1.9932780000D+01 Coefficients=  1.0000000000D+00
 S 1 1.00
     Exponent=  9.5818910000D+00 Coefficients=  1.0000000000D+00
 S 1 1.00
     Exponent=  4.2345160000D+00 Coefficients=  1.0000000000D+00
 S 1 1.00
     Exponent=  1.9858140000D+00 Coefficients=  1.0000000000D+00
 S 1 1.00
     Exponent=  8.6708300000D-01 Coefficients=  1.0000000000D+00
 S 1 1.00
     Exponent=  1.8133900000D-01 Coefficients=  1.0000000000D+00
 S 1 1.00
     Exponent=  8.3657000000D-02 Coefficients=  1.0000000000D+00
 S 1 1.00
     Exponent=  3.6267000000D-02 Coefficients=  1.0000000000D+00
 S 1 1.00
     Exponent=  6.3233000000D+00 Coefficients=  1.0000000000D+00
 S 1 1.00
     Exponent=  1.6459000000D+00 Coefficients=  1.0000000000D+00
 S 1 1.00
     Exponent=  1.5720000000D-02 Coefficients=  1.0000000000D+00
 P 1 1.00
     Exponent=  2.2760570000D+04 Coefficients=  1.0000000000D+00
 P 1 1.00
     Exponent=  5.3876790000D+03 Coefficients=  1.0000000000D+00
 P 1 1.00
     Exponent=  1.7499450000D+03 Coefficients=  1.0000000000D+00
 P 1 1.00
     Exponent=  6.6966530000D+02 Coefficients=  1.0000000000D+00
 P 1 1.00
     Exponent=  2.8419480000D+02 Coefficients=  1.0000000000D+00
 P 1 1.00
     Exponent=  1.2960770000D+02 Coefficients=  1.0000000000D+00
 P 1 1.00
     Exponent=  6.2254150000D+01 Coefficients=  1.0000000000D+00
 P 1 1.00
     Exponent=  3.0929640000D+01 Coefficients=  1.0000000000D+00
 P 1 1.00
     Exponent=  1.5758270000D+01 Coefficients=  1.0000000000D+00
 P 1 1.00
     Exponent=  8.0942110000D+00 Coefficients=  1.0000000000D+00
 P 1 1.00
     Exponent=  4.0469210000D+00 Coefficients=  1.0000000000D+00
 P 1 1.00
     Exponent=  1.9678690000D+00 Coefficients=  1.0000000000D+00
 P 1 1.00
     Exponent=  9.2529500000D-01 Coefficients=  1.0000000000D+00
 P 1 1.00
     Exponent=  3.5299200000D-01 Coefficients=  1.0000000000D+00
 P 1 1.00
     Exponent=  1.2730700000D-01 Coefficients=  1.0000000000D+00
 P 1 1.00
     Exponent=  4.4356000000D-02 Coefficients=  1.0000000000D+00
 P 1 1.00
     Exponent=  9.6845000000D+00 Coefficients=  1.0000000000D+00
 P 1 1.00
     Exponent=  2.2065000000D+00 Coefficients=  1.0000000000D+00
 P 1 1.00
     Exponent=  1.5450000000D-02 Coefficients=  1.0000000000D+00
 D 1 1.00
     Exponent=  1.7389700000D+02 Coefficients=  1.0000000000D+00
 D 1 1.00
     Exponent=  5.1886900000D+01 Coefficients=  1.0000000000D+00
 D 1 1.00
     Exponent=  1.9341900000D+01 Coefficients=  1.0000000000D+00
 D 1 1.00
     Exponent=  7.9757200000D+00 Coefficients=  1.0000000000D+00
 D 1 1.00
     Exponent=  3.3982300000D+00 Coefficients=  1.0000000000D+00
 D 1 1.00
     Exponent=  1.4093200000D+00 Coefficients=  1.0000000000D+00
 D 1 1.00
     Exponent=  5.4885800000D-01 Coefficients=  1.0000000000D+00
 D 1 1.00
     Exponent=  1.9019900000D-01 Coefficients=  1.0000000000D+00
 D 1 1.00
     Exponent=  6.9242000000D+00 Coefficients=  1.0000000000D+00
 D 1 1.00
     Exponent=  3.3410000000D+00 Coefficients=  1.0000000000D+00
 D 1 1.00
     Exponent=  6.5910000000D-02 Coefficients=  1.0000000000D+00
 F 1 1.00
     Exponent=  9.2215000000D+00 Coefficients=  1.0000000000D+00
 F 1 1.00
     Exponent=  3.5468000000D+00 Coefficients=  1.0000000000D+00
 F 1 1.00
     Exponent=  1.2797000000D+00 Coefficients=  1.0000000000D+00
 F 1 1.00
     Exponent=  4.6172000000D-01 Coefficients=  1.0000000000D+00
 G 1 1.00
     Exponent=  8.3127000000D+00 Coefficients=  1.0000000000D+00
 G 1 1.00
     Exponent=  3.4835000000D+00 Coefficients=  1.0000000000D+00
 G 1 1.00
     Exponent=  1.4597900000D+00 Coefficients=  1.0000000000D+00
 ****
 Centers:       2
 S 1 1.00
     Exponent=  1.5330000000D+04 Coefficients=  1.0000000000D+00
 S 1 1.00
     Exponent=  2.2990000000D+03 Coefficients=  1.0000000000D+00
 S 1 1.00
     Exponent=  5.2240000000D+02 Coefficients=  1.0000000000D+00
 S 1 1.00
     Exponent=  1.4730000000D+02 Coefficients=  1.0000000000D+00
 S 1 1.00
     Exponent=  4.7550000000D+01 Coefficients=  1.0000000000D+00
 S 1 1.00
     Exponent=  1.6760000000D+01 Coefficients=  1.0000000000D+00
 S 1 1.00
     Exponent=  6.2070000000D+00 Coefficients=  1.0000000000D+00
 S 1 1.00
     Exponent=  6.8820000000D-01 Coefficients=  1.0000000000D+00
 S 1 1.00
     Exponent=  1.7520000000D+00 Coefficients=  1.0000000000D+00
 S 1 1.00
     Exponent=  2.3840000000D-01 Coefficients=  1.0000000000D+00
 S 1 1.00
     Exponent=  7.8450000000D+00 Coefficients=  1.0000000000D+00
 S 1 1.00
     Exponent=  2.1032000000D+01 Coefficients=  1.0000000000D+00
 S 1 1.00
     Exponent=  7.3760000000D-02 Coefficients=  1.0000000000D+00
 P 1 1.00
     Exponent=  3.4460000000D+01 Coefficients=  1.0000000000D+00
 P 1 1.00
     Exponent=  7.7490000000D+00 Coefficients=  1.0000000000D+00
 P 1 1.00
     Exponent=  2.2800000000D+00 Coefficients=  1.0000000000D+00
 P 1 1.00
     Exponent=  7.1560000000D-01 Coefficients=  1.0000000000D+00
 P 1 1.00
     Exponent=  2.1400000000D-01 Coefficients=  1.0000000000D+00
 P 1 1.00
     Exponent=  1.5159000000D+01 Coefficients=  1.0000000000D+00
 P 1 1.00
     Exponent=  5.7437000000D+01 Coefficients=  1.0000000000D+00
 P 1 1.00
     Exponent=  5.9740000000D-02 Coefficients=  1.0000000000D+00
 D 1 1.00
     Exponent=  2.3140000000D+00 Coefficients=  1.0000000000D+00
 D 1 1.00
     Exponent=  6.4500000000D-01 Coefficients=  1.0000000000D+00
 D 1 1.00
     Exponent=  1.5858000000D+01 Coefficients=  1.0000000000D+00
 D 1 1.00
     Exponent=  2.1400000000D-01 Coefficients=  1.0000000000D+00
 F 1 1.00
     Exponent=  1.4280000000D+00 Coefficients=  1.0000000000D+00
 F 1 1.00
     Exponent=  5.0000000000D-01 Coefficients=  1.0000000000D+00
 ****
 ======================================================================================================
                                       Pseudopotential Parameters
 ======================================================================================================
  Center     Atomic      Valence      Angular      Power
  Number     Number     Electrons     Momentum     of R      Exponent        Coefficient   SO-Coeffient
 ======================================================================================================
    1         29           19
                                      D and up 
                                                     1       31.5381126       19.00000000    0.00000000
                                                     3       31.0692553      599.22413998    0.00000000
                                                     2       30.5903587     -244.68915484    0.00000000
                                                     2       14.0514106       -1.29349526    0.00000000
                                      S - D
                                                     2       12.7723592       66.27560813    0.00000000
                                                     2       29.3556224      370.71371825    0.00000000
                                      P - D
                                                     2       12.5247148       49.76265057    0.00000000
                                                     2       33.5169454      271.66281028    0.00000000
    2          8            6
                                      P and up 
                                                     1       12.3099744        6.00000000    0.00000000
                                                     3       14.7696229       73.85984616    0.00000000
                                                     2       13.7141954      -47.87600504    0.00000000
                                      S - P
                                                     2       13.6551200       85.86406526    0.00000000
 ======================================================================================================
 Ernie: Thresh=  0.10000D-02 Tol=  0.10000D-05 Strict=F.
 There are   144 symmetry adapted cartesian basis functions of A1  symmetry.
 There are    30 symmetry adapted cartesian basis functions of A2  symmetry.
 There are    69 symmetry adapted cartesian basis functions of B1  symmetry.
 There are    69 symmetry adapted cartesian basis functions of B2  symmetry.
 There are   114 symmetry adapted basis functions of A1  symmetry.
 There are    27 symmetry adapted basis functions of A2  symmetry.
 There are    60 symmetry adapted basis functions of B1  symmetry.
 There are    60 symmetry adapted basis functions of B2  symmetry.
   261 basis functions,   312 primitive gaussians,   312 cartesian basis functions
    13 alpha electrons       12 beta electrons
       nuclear repulsion energy        43.0901443178 Hartrees.
 IExCor=    0 DFT=F Ex=HF Corr=None ExCW=0 ScaHFX=  1.000000
 ScaDFX=  1.000000  1.000000  1.000000  1.000000 ScalE2=  1.000000  1.000000
 IRadAn=      5 IRanWt=     -1 IRanGd=            0 ICorTp=0 IEmpDi=  4
 NAtoms=    2 NActive=    2 NUniq=    2 SFac= 1.00D+00 NAtFMM=   60 NAOKFM=F Big=F
 Integral buffers will be    131072 words long.
 Raffenetti 2 integral format.
 Two-electron integral symmetry is turned on.
 Leave Link  301 at Sat May  5 20:46:18 2018, MaxMem= 10737418240 cpu:               8.2 elap:               0.3
 (Enter /home1/apps/gaussian/16rA.03/g16/l302.exe)
 NPDir=0 NMtPBC=     1 NCelOv=     1 NCel=       1 NClECP=     1 NCelD=      1
         NCelK=      1 NCelE2=     1 NClLst=     1 CellRange=     0.0.
 One-electron integrals computed using PRISM.
 One-electron integral symmetry used in STVInt
   4 Symmetry operations used in ECPInt.
 ECPInt:  NShTT=    3828 NPrTT=    3828 LenC2=    3562 LenP2D=    3561.
 LDataN:  DoStor=T MaxTD1= 8 Len=  415
 NBasis=   261 RedAO= T EigKep=  3.97D-06  NBF=   114    27    60    60
 NBsUse=   256 1.00D-06 EigRej=  9.78D-07 NBFU=   112    26    59    59
 Leave Link  302 at Sat May  5 20:46:19 2018, MaxMem= 10737418240 cpu:              30.8 elap:               1.0
 (Enter /home1/apps/gaussian/16rA.03/g16/l303.exe)
 DipDrv:  MaxL=1.
 Leave Link  303 at Sat May  5 20:46:20 2018, MaxMem= 10737418240 cpu:               2.4 elap:               0.1
 (Enter /home1/apps/gaussian/16rA.03/g16/l401.exe)
 Initial guess from the checkpoint file:  "tz.chk"
 B after Tr=     0.000000    0.000000   -0.000000
         Rot=    1.000000    0.000000    0.000000    0.000000 Ang=   0.00 deg.
 Guess basis will be translated and rotated to current coordinates.
 JPrj=2 DoOrth=T DoCkMO=T.
 Initial guess orbital symmetries:
       Occupied  (SG) (SG) (PI) (PI) (SG) (?A) (SG) (?A) (DLTA)
                 (DLTA) (?A) (SG) (?A)
       Virtual   (SG) (PI) (PI) (SG) (SG) (PI) (PI) (?B) (?B) (?B)
                 (?B) (SG) (PI) (PI) (PI) (SG) (PI) (PI) (PI) (SG)
                 (SG) (?C) (?C) (?C) (?C) (?C) (PI) (?C) (PI) (PI)
                 (PI) (SG) (?A) (?A) (?A) (?A) (SG) (SG) (PHI)
                 (PHI) (?D) (?D) (?D) (PI) (PI) (SG) (PHI) (PHI)
                 (?E) (PI) (PI) (?E) (?E) (?E) (?E) (?E) (?E) (PI)
                 (?E) (PI) (SG) (PI) (PI) (PI) (PI) (SG) (SG) (PI)
                 (PI) (SG) (PHI) (PHI) (?F) (?F) (?F) (PI) (PI)
                 (SG) (?G) (?H) (?H) (?H) (?H) (?G) (?G) (?G) (?G)
                 (DLTA) (DLTA) (?H) (?H) (?H) (?H) (?G) (?G) (PI)
                 (PI) (?G) (?I) (?I) (?I) (PI) (PI) (SG) (PI) (PI)
                 (SG) (SG) (PHI) (PHI) (DLTA) (DLTA) (PI) (PI)
                 (SG) (SG) (PI) (PI) (SG) (SG) (PI) (PI) (SG) (DLTA)
                 (DLTA) (PI) (PI) (?J) (?J) (PHI) (PHI) (DLTA)
                 (DLTA) (SG) (PI) (PI) (SG) (SG) (PHI) (PHI) (DLTA)
                 (DLTA) (PI) (PI) (SG) (PI) (PI) (SG) (SG) (DLTA)
                 (DLTA) (PI) (PI) (SG) (?J) (?J) (PHI) (PHI) (DLTA)
                 (DLTA) (PI) (PI) (SG) (?K) (?K) (PI) (PI) (?K)
                 (PI) (PI) (SG) (PI) (PI) (SG) (SG) (SG) (DLTA)
                 (DLTA) (PI) (PI) (SG) (PI) (PI) (SG) (SG) (PI)
                 (PI) (SG) (SG) (PI) (PI) (SG) (SG) (DLTA) (DLTA)
                 (PI) (PI) (SG) (SG) (PI) (PI) (SG) (PI) (PI) (SG)
                 (SG) (SG) (PI) (PI) (SG) (DLTA) (DLTA) (PI) (PI)
                 (SG) (SG) (PI) (PI) (SG) (SG) (SG) (PI) (PI) (SG)
                 (SG) (SG) (PI) (PI) (SG) (SG) (PI) (PI) (SG) (SG)
                 (SG) (SG) (PI) (PI) (SG) (SG) (SG) (SG) (SG)
 Leave Link  401 at Sat May  5 20:46:21 2018, MaxMem= 10737418240 cpu:              13.6 elap:               0.6
 (Enter /home1/apps/gaussian/16rA.03/g16/l502.exe)
 Keep R1 and R2 ints in memory in symmetry-blocked form, NReq=734602573.
 FoFCou: FMM=F IPFlag=           8 FMFlag=           0 FMFlg1=           0
         NFxFlg=           0 DoJE=F BraDBF=F KetDBF=F FulRan=T
         wScrn=  0.000000 ICntrl=       600 IOpCl=  0 I1Cent=           0 NGrid=           0
         NMat0=    1 NMatS0=  34191 NMatT0=    0 NMatD0=    1 NMtDS0=    0 NMtDT0=    0
 Petite list used in FoFCou.
 Restricted open shell SCF:
 Using DIIS extrapolation, IDIIS=  1040.
 NGot= 10737418240 LenX= 10437146893 LenY= 10437049108
 Requested convergence on RMS density matrix=1.00D-08 within 400 cycles.
 Requested convergence on MAX density matrix=1.00D-06.
 Requested convergence on             energy=1.00D-06.
 Virtual orbitals will be shifted by   0.200 hartree.
 No special actions if energy rises.

 Cycle   1  Pass 1  IDiag  1:
 E= -207.731569907443    
 DIIS: error= 1.35D+00 at cycle   1 NSaved=   1.
 NSaved= 1 IEnMin= 1 EnMin= -207.731569907443     IErMin= 1 ErrMin= 1.35D+00
 ErrMax= 1.35D+00  0.00D+00 EMaxC= 1.00D-01 BMatC= 1.48D+02 BMatP= 1.48D+02
 IDIUse=3 WtCom= 0.00D+00 WtEn= 1.00D+00
 Coeff-Com:  0.100D+01
 Coeff-En:   0.100D+01
 Coeff:      0.100D+01
 Gap=     0.150 Goal=   None    Shift=    0.200
 GapD=    0.150 DampG=1.000 DampE=0.125 DampFc=0.1250 IDamp=-1.
 Damping current iteration by 1.25D-01
 RMSDP=2.74D-03 MaxDP=2.24D-01              OVMax= 8.85D-02

 Cycle   2  Pass 1  IDiag  1:
 E= -208.126329401753     Delta-E=       -0.394759494310 Rises=F Damp=T
 DIIS: error= 1.18D+00 at cycle   2 NSaved=   2.
 NSaved= 2 IEnMin= 2 EnMin= -208.126329401753     IErMin= 2 ErrMin= 1.18D+00
 ErrMax= 1.18D+00  0.00D+00 EMaxC= 1.00D-01 BMatC= 1.13D+02 BMatP= 1.48D+02
 IDIUse=3 WtCom= 0.00D+00 WtEn= 1.00D+00
 Coeff-Com: -0.705D+01 0.805D+01
 Coeff-En:   0.000D+00 0.100D+01
 Coeff:      0.000D+00 0.100D+01
 Gap=     0.099 Goal=   None    Shift=    0.200
 RMSDP=2.37D-03 MaxDP=1.94D-01 DE=-3.95D-01 OVMax= 1.71D-02

 Cycle   3  Pass 1  IDiag  1:
 E= -210.866647636742     Delta-E=       -2.740318234989 Rises=F Damp=F
 DIIS: error= 5.76D-02 at cycle   3 NSaved=   3.
 NSaved= 3 IEnMin= 3 EnMin= -210.866647636742     IErMin= 3 ErrMin= 5.76D-02
 ErrMax= 5.76D-02  0.00D+00 EMaxC= 1.00D-01 BMatC= 2.25D-01 BMatP= 1.13D+02
 IDIUse=3 WtCom= 4.24D-01 WtEn= 5.76D-01
 Coeff-Com:  0.510D+01-0.585D+01 0.174D+01
 Coeff-En:   0.000D+00 0.000D+00 0.100D+01
 Coeff:      0.216D+01-0.248D+01 0.131D+01
 Gap=     0.205 Goal=   None    Shift=    0.200
 RMSDP=7.83D-04 MaxDP=4.83D-02 DE=-2.74D+00 OVMax= 7.62D-02

 Cycle   4  Pass 1  IDiag  1:
 E= -210.878952821660     Delta-E=       -0.012305184918 Rises=F Damp=F
 DIIS: error= 3.00D-02 at cycle   4 NSaved=   4.
 NSaved= 4 IEnMin= 4 EnMin= -210.878952821660     IErMin= 4 ErrMin= 3.00D-02
 ErrMax= 3.00D-02  0.00D+00 EMaxC= 1.00D-01 BMatC= 1.19D-01 BMatP= 2.25D-01
 IDIUse=3 WtCom= 7.00D-01 WtEn= 3.00D-01
 Coeff-Com:  0.126D+01-0.144D+01 0.640D+00 0.547D+00
 Coeff-En:   0.000D+00 0.000D+00 0.424D+00 0.576D+00
 Coeff:      0.879D+00-0.101D+01 0.575D+00 0.555D+00
 Gap=     0.094 Goal=   None    Shift=    0.200
 RMSDP=2.98D-04 MaxDP=1.56D-02 DE=-1.23D-02 OVMax= 3.95D-02

 Cycle   5  Pass 1  IDiag  1:
 E= -210.917575433152     Delta-E=       -0.038622611492 Rises=F Damp=F
 DIIS: error= 8.41D-03 at cycle   5 NSaved=   5.
 NSaved= 5 IEnMin= 5 EnMin= -210.917575433152     IErMin= 5 ErrMin= 8.41D-03
 ErrMax= 8.41D-03  0.00D+00 EMaxC= 1.00D-01 BMatC= 2.35D-03 BMatP= 1.19D-01
 IDIUse=3 WtCom= 9.16D-01 WtEn= 8.41D-02
 Coeff-Com:  0.801D+00-0.917D+00 0.207D+00 0.175D-01 0.891D+00
 Coeff-En:   0.000D+00 0.000D+00 0.000D+00 0.000D+00 0.100D+01
 Coeff:      0.734D+00-0.840D+00 0.190D+00 0.160D-01 0.900D+00
 Gap=     0.101 Goal=   None    Shift=    0.200
 RMSDP=1.02D-04 MaxDP=5.44D-03 DE=-3.86D-02 OVMax= 1.40D-02

 Cycle   6  Pass 1  IDiag  1:
 E= -210.915946628082     Delta-E=        0.001628805070 Rises=F Damp=F
 DIIS: error= 7.31D-03 at cycle   6 NSaved=   6.
 NSaved= 6 IEnMin= 5 EnMin= -210.917575433152     IErMin= 6 ErrMin= 7.31D-03
 ErrMax= 7.31D-03  0.00D+00 EMaxC= 1.00D-01 BMatC= 3.39D-03 BMatP= 2.35D-03
 IDIUse=3 WtCom= 9.16D-01 WtEn= 8.41D-02
 Rare condition: small coef for last iteration:  0.000D+00
 Coeff-Com:  0.974D+00-0.111D+01 0.105D+00-0.562D-01 0.310D+00 0.780D+00
 Coeff-En:   0.000D+00 0.000D+00 0.000D+00 0.000D+00 0.000D+00 0.100D+01
 Coeff:      0.974D+00-0.111D+01 0.105D+00-0.562D-01 0.310D+00 0.780D+00
 Gap=     0.091 Goal=   None    Shift=    0.000
 RMSDP=1.22D-04 MaxDP=1.14D-02 DE= 1.63D-03 OVMax= 1.92D-02

 Cycle   7  Pass 1  IDiag  1:
 E= -210.911535221153     Delta-E=        0.004411406929 Rises=F Damp=F
 DIIS: error= 8.18D-03 at cycle   7 NSaved=   7.
 NSaved= 7 IEnMin= 5 EnMin= -210.917575433152     IErMin= 6 ErrMin= 7.31D-03
 ErrMax= 8.18D-03  0.00D+00 EMaxC= 1.00D-01 BMatC= 5.23D-03 BMatP= 2.35D-03
 IDIUse=3 WtCom= 9.16D-01 WtEn= 8.41D-02
 Rare condition: small coef for last iteration:  0.000D+00
 Coeff-Com:  0.837D+00-0.956D+00 0.814D-01-0.624D-01 0.168D+00 0.189D+01
 Coeff-Com: -0.962D+00
 Coeff-En:   0.000D+00 0.000D+00 0.000D+00 0.000D+00 0.000D+00 0.000D+00
 Coeff-En:   0.100D+01
 Coeff:      0.837D+00-0.956D+00 0.814D-01-0.624D-01 0.168D+00 0.189D+01
 Coeff:     -0.962D+00
 Gap=     0.095 Goal=   None    Shift=    0.000
 RMSDP=1.22D-04 MaxDP=1.19D-02 DE= 4.41D-03 OVMax= 1.12D-02

 Cycle   8  Pass 1  IDiag  1:
 E= -210.916021640627     Delta-E=       -0.004486419474 Rises=F Damp=F
 DIIS: error= 7.34D-03 at cycle   8 NSaved=   8.
 NSaved= 8 IEnMin= 5 EnMin= -210.917575433152     IErMin= 6 ErrMin= 7.31D-03
 ErrMax= 7.34D-03  0.00D+00 EMaxC= 1.00D-01 BMatC= 4.43D-03 BMatP= 2.35D-03
 IDIUse=3 WtCom= 9.16D-01 WtEn= 8.41D-02
 Coeff-Com:  0.812D+00-0.928D+00 0.768D-01-0.580D-01 0.152D+00 0.187D+01
 Coeff-Com: -0.114D+01 0.211D+00
 Coeff-En:   0.000D+00 0.000D+00 0.000D+00 0.000D+00 0.000D+00 0.000D+00
 Coeff-En:   0.000D+00 0.100D+01
 Coeff:      0.744D+00-0.850D+00 0.704D-01-0.531D-01 0.139D+00 0.171D+01
 Coeff:     -0.104D+01 0.278D+00
 Gap=     0.094 Goal=   None    Shift=    0.000
 RMSDP=3.23D-05 MaxDP=3.68D-03 DE=-4.49D-03 OVMax= 4.55D-03

 Cycle   9  Pass 1  IDiag  1:
 E= -210.918198234244     Delta-E=       -0.002176593617 Rises=F Damp=F
 DIIS: error= 5.92D-03 at cycle   9 NSaved=   9.
 NSaved= 9 IEnMin= 9 EnMin= -210.918198234244     IErMin= 9 ErrMin= 5.92D-03
 ErrMax= 5.92D-03  0.00D+00 EMaxC= 1.00D-01 BMatC= 2.37D-03 BMatP= 2.35D-03
 IDIUse=3 WtCom= 9.41D-01 WtEn= 5.92D-02
 Coeff-Com:  0.382D+00-0.437D+00 0.632D-01-0.154D-01-0.349D+00 0.400D+00
 Coeff-Com:  0.480D+00-0.360D+01 0.407D+01
 Coeff-En:   0.000D+00 0.000D+00 0.000D+00 0.000D+00 0.000D+00 0.000D+00
 Coeff-En:   0.000D+00 0.000D+00 0.100D+01
 Coeff:      0.360D+00-0.411D+00 0.594D-01-0.144D-01-0.328D+00 0.376D+00
 Coeff:      0.452D+00-0.339D+01 0.389D+01
 Gap=     0.103 Goal=   None    Shift=    0.200
 RMSDP=7.73D-05 MaxDP=4.56D-03 DE=-2.18D-03 OVMax= 1.37D-02

 Cycle  10  Pass 1  IDiag  1:
 E= -210.920978848190     Delta-E=       -0.002780613946 Rises=F Damp=F
 DIIS: error= 3.47D-03 at cycle  10 NSaved=  10.
 NSaved=10 IEnMin=10 EnMin= -210.920978848190     IErMin=10 ErrMin= 3.47D-03
 ErrMax= 3.47D-03  0.00D+00 EMaxC= 1.00D-01 BMatC= 2.78D-04 BMatP= 2.35D-03
 IDIUse=3 WtCom= 9.65D-01 WtEn= 3.47D-02
 Coeff-Com:  0.369D+00-0.422D+00 0.668D-01-0.171D-01-0.130D+00-0.115D-01
 Coeff-Com:  0.774D+00-0.150D+01 0.912D+00 0.957D+00
 Coeff-En:   0.000D+00 0.000D+00 0.000D+00 0.000D+00 0.000D+00 0.000D+00
 Coeff-En:   0.000D+00 0.000D+00 0.000D+00 0.100D+01
 Coeff:      0.356D+00-0.407D+00 0.645D-01-0.165D-01-0.126D+00-0.111D-01
 Coeff:      0.747D+00-0.145D+01 0.881D+00 0.958D+00
 Gap=     0.103 Goal=   None    Shift=    0.200
 RMSDP=6.86D-05 MaxDP=4.29D-03 DE=-2.78D-03 OVMax= 1.18D-02

 Cycle  11  Pass 1  IDiag  1:
 E= -210.919703835154     Delta-E=        0.001275013036 Rises=F Damp=F
 DIIS: error= 3.26D-03 at cycle  11 NSaved=  11.
 NSaved=11 IEnMin=10 EnMin= -210.920978848190     IErMin=11 ErrMin= 3.26D-03
 ErrMax= 3.26D-03  0.00D+00 EMaxC= 1.00D-01 BMatC= 2.17D-04 BMatP= 2.78D-04
 IDIUse=3 WtCom= 9.67D-01 WtEn= 3.26D-02
 Rare condition: small coef for last iteration:  0.000D+00
 Coeff-Com:  0.286D+00-0.327D+00 0.474D-01 0.434D-02-0.396D-01-0.551D-01
 Coeff-Com: -0.331D+00 0.584D+00-0.212D+00-0.795D+00 0.184D+01
 Coeff-En:   0.000D+00 0.000D+00 0.000D+00 0.000D+00 0.000D+00 0.000D+00
 Coeff-En:   0.000D+00 0.000D+00 0.000D+00 0.000D+00 0.100D+01
 Coeff:      0.286D+00-0.327D+00 0.474D-01 0.434D-02-0.396D-01-0.551D-01
 Coeff:     -0.331D+00 0.584D+00-0.212D+00-0.795D+00 0.184D+01
 Gap=     0.100 Goal=   None    Shift=    0.000
 RMSDP=5.26D-05 MaxDP=3.09D-03 DE= 1.28D-03 OVMax= 1.20D-02

 Cycle  12  Pass 1  IDiag  1:
 E= -210.920814423560     Delta-E=       -0.001110588406 Rises=F Damp=F
 DIIS: error= 1.89D-03 at cycle  12 NSaved=  12.
 NSaved=12 IEnMin=10 EnMin= -210.920978848190     IErMin=12 ErrMin= 1.89D-03
 ErrMax= 1.89D-03  0.00D+00 EMaxC= 1.00D-01 BMatC= 1.60D-04 BMatP= 2.17D-04
 IDIUse=3 WtCom= 9.81D-01 WtEn= 1.89D-02
 Coeff-Com:  0.296D+00-0.339D+00 0.431D-01 0.962D-02-0.102D-01 0.317D+00
 Coeff-Com: -0.295D+00 0.124D+01-0.119D+01-0.809D+00 0.501D+00 0.123D+01
 Coeff-En:   0.000D+00 0.000D+00 0.000D+00 0.000D+00 0.000D+00 0.000D+00
 Coeff-En:   0.000D+00 0.000D+00 0.000D+00 0.000D+00 0.000D+00 0.100D+01
 Coeff:      0.291D+00-0.332D+00 0.423D-01 0.943D-02-0.100D-01 0.311D+00
 Coeff:     -0.290D+00 0.122D+01-0.116D+01-0.794D+00 0.491D+00 0.123D+01
 Gap=     0.101 Goal=   None    Shift=    0.000
 RMSDP=2.91D-05 MaxDP=2.21D-03 DE=-1.11D-03 OVMax= 5.70D-03

 Cycle  13  Pass 1  IDiag  1:
 E= -210.920565894352     Delta-E=        0.000248529208 Rises=F Damp=F
 DIIS: error= 1.94D-03 at cycle  13 NSaved=  13.
 NSaved=13 IEnMin=10 EnMin= -210.920978848190     IErMin=12 ErrMin= 1.89D-03
 ErrMax= 1.94D-03  0.00D+00 EMaxC= 1.00D-01 BMatC= 1.51D-04 BMatP= 1.60D-04
 IDIUse=3 WtCom= 9.81D-01 WtEn= 1.89D-02
 Rare condition: small coef for last iteration:  0.000D+00
 Coeff-Com:  0.303D+00-0.346D+00 0.443D-01 0.570D-02-0.167D-01 0.272D+00
 Coeff-Com: -0.197D+00 0.110D+01-0.112D+01-0.354D+00 0.656D-01 0.392D+00
 Coeff-Com:  0.844D+00
 Coeff-En:   0.000D+00 0.000D+00 0.000D+00 0.000D+00 0.000D+00 0.000D+00
 Coeff-En:   0.000D+00 0.000D+00 0.000D+00 0.000D+00 0.000D+00 0.000D+00
 Coeff-En:   0.100D+01
 Coeff:      0.303D+00-0.346D+00 0.443D-01 0.570D-02-0.167D-01 0.272D+00
 Coeff:     -0.197D+00 0.110D+01-0.112D+01-0.354D+00 0.656D-01 0.392D+00
 Coeff:      0.844D+00
 Gap=     0.101 Goal=   None    Shift=    0.000
 RMSDP=1.58D-05 MaxDP=1.35D-03 DE= 2.49D-04 OVMax= 2.27D-03

 Cycle  14  Pass 1  IDiag  1:
 E= -210.920625044565     Delta-E=       -0.000059150212 Rises=F Damp=F
 DIIS: error= 2.08D-03 at cycle  14 NSaved=  14.
 NSaved=14 IEnMin=10 EnMin= -210.920978848190     IErMin=12 ErrMin= 1.89D-03
 ErrMax= 2.08D-03  0.00D+00 EMaxC= 1.00D-01 BMatC= 1.33D-04 BMatP= 1.51D-04
 IDIUse=3 WtCom= 9.81D-01 WtEn= 1.89D-02
 Coeff-Com:  0.296D+00-0.339D+00 0.445D-01 0.372D-02-0.282D-01 0.198D+00
 Coeff-Com: -0.204D+00 0.902D+00-0.833D+00-0.252D+00 0.124D+00-0.864D-01
 Coeff-Com:  0.422D+00 0.752D+00
 Coeff-En:   0.000D+00 0.000D+00 0.000D+00 0.000D+00 0.000D+00 0.000D+00
 Coeff-En:   0.000D+00 0.000D+00 0.000D+00 0.000D+00 0.000D+00 0.000D+00
 Coeff-En:   0.000D+00 0.100D+01
 Coeff:      0.291D+00-0.332D+00 0.437D-01 0.365D-02-0.277D-01 0.194D+00
 Coeff:     -0.200D+00 0.885D+00-0.817D+00-0.247D+00 0.122D+00-0.848D-01
 Coeff:      0.414D+00 0.756D+00
 Gap=     0.102 Goal=   None    Shift=    0.000
 RMSDP=1.43D-05 MaxDP=1.05D-03 DE=-5.92D-05 OVMax= 1.23D-03

 Cycle  15  Pass 1  IDiag  1:
 E= -210.920995622314     Delta-E=       -0.000370577749 Rises=F Damp=F
 DIIS: error= 1.99D-03 at cycle  15 NSaved=  15.
 NSaved=15 IEnMin=15 EnMin= -210.920995622314     IErMin=12 ErrMin= 1.89D-03
 ErrMax= 1.99D-03  0.00D+00 EMaxC= 1.00D-01 BMatC= 1.31D-04 BMatP= 1.33D-04
 IDIUse=3 WtCom= 9.81D-01 WtEn= 1.89D-02
 Coeff-Com:  0.287D+00-0.328D+00 0.430D-01 0.411D-02-0.824D-02 0.181D+00
 Coeff-Com: -0.199D+00 0.887D+00-0.828D+00-0.474D+00 0.494D+00 0.209D+00
 Coeff-Com: -0.503D+00-0.175D+01 0.299D+01
 Coeff-En:   0.000D+00 0.000D+00 0.000D+00 0.000D+00 0.000D+00 0.000D+00
 Coeff-En:   0.000D+00 0.000D+00 0.000D+00 0.000D+00 0.000D+00 0.000D+00
 Coeff-En:   0.000D+00 0.000D+00 0.100D+01
 Coeff:      0.281D+00-0.321D+00 0.422D-01 0.403D-02-0.809D-02 0.178D+00
 Coeff:     -0.196D+00 0.870D+00-0.813D+00-0.465D+00 0.485D+00 0.205D+00
 Coeff:     -0.493D+00-0.172D+01 0.295D+01
 Gap=     0.104 Goal=   None    Shift=    0.200
 RMSDP=2.58D-05 MaxDP=2.00D-03 DE=-3.71D-04 OVMax= 2.60D-03

 Cycle  16  Pass 1  IDiag  1:
 E= -210.921700944963     Delta-E=       -0.000705322649 Rises=F Damp=F
 DIIS: error= 1.90D-03 at cycle  16 NSaved=  16.
 NSaved=16 IEnMin=16 EnMin= -210.921700944963     IErMin=12 ErrMin= 1.89D-03
 ErrMax= 1.90D-03  0.00D+00 EMaxC= 1.00D-01 BMatC= 1.35D-04 BMatP= 1.31D-04
 IDIUse=3 WtCom= 9.81D-01 WtEn= 1.89D-02
 Coeff-Com:  0.265D+00-0.303D+00 0.406D-01 0.658D-02-0.169D-01 0.653D-01
 Coeff-Com: -0.367D+00 0.107D+01-0.746D+00-0.584D+00 0.918D+00-0.412D+00
 Coeff-Com:  0.276D-01 0.392D+00-0.316D+01 0.381D+01
 Coeff-En:   0.000D+00 0.000D+00 0.000D+00 0.000D+00 0.000D+00 0.000D+00
 Coeff-En:   0.000D+00 0.000D+00 0.000D+00 0.000D+00 0.000D+00 0.000D+00
 Coeff-En:   0.000D+00 0.000D+00 0.000D+00 0.100D+01
 Coeff:      0.260D+00-0.297D+00 0.399D-01 0.646D-02-0.166D-01 0.641D-01
 Coeff:     -0.360D+00 0.105D+01-0.732D+00-0.573D+00 0.900D+00-0.404D+00
 Coeff:      0.270D-01 0.384D+00-0.310D+01 0.376D+01
 Gap=     0.107 Goal=   None    Shift=    0.200
 RMSDP=6.72D-05 MaxDP=4.81D-03 DE=-7.05D-04 OVMax= 7.07D-03

 Cycle  17  Pass 1  IDiag  1:
 E= -210.923327984932     Delta-E=       -0.001627039969 Rises=F Damp=F
 DIIS: error= 1.64D-03 at cycle  17 NSaved=  17.
 NSaved=17 IEnMin=17 EnMin= -210.923327984932     IErMin=17 ErrMin= 1.64D-03
 ErrMax= 1.64D-03  0.00D+00 EMaxC= 1.00D-01 BMatC= 9.16D-05 BMatP= 1.31D-04
 IDIUse=3 WtCom= 9.84D-01 WtEn= 1.64D-02
 Coeff-Com:  0.200D+00-0.229D+00 0.291D-01-0.121D-02 0.329D-01 0.132D+00
 Coeff-Com: -0.237D+00 0.566D+00-0.612D+00-0.316D+00 0.673D+00-0.534D+00
 Coeff-Com:  0.248D-01 0.188D+01 0.145D+01-0.536D+01 0.331D+01
 Coeff-En:   0.000D+00 0.000D+00 0.000D+00 0.000D+00 0.000D+00 0.000D+00
 Coeff-En:   0.000D+00 0.000D+00 0.000D+00 0.000D+00 0.000D+00 0.000D+00
 Coeff-En:   0.000D+00 0.000D+00 0.000D+00 0.000D+00 0.100D+01
 Coeff:      0.197D+00-0.225D+00 0.286D-01-0.119D-02 0.324D-01 0.130D+00
 Coeff:     -0.233D+00 0.556D+00-0.602D+00-0.311D+00 0.661D+00-0.525D+00
 Coeff:      0.244D-01 0.185D+01 0.142D+01-0.528D+01 0.327D+01
 Gap=     0.110 Goal=   None    Shift=    0.200
 RMSDP=5.19D-05 MaxDP=3.71D-03 DE=-1.63D-03 OVMax= 5.97D-03

 Cycle  18  Pass 1  IDiag  1:
 E= -210.924424281909     Delta-E=       -0.001096296978 Rises=F Damp=F
 DIIS: error= 1.28D-03 at cycle  18 NSaved=  18.
 NSaved=18 IEnMin=18 EnMin= -210.924424281909     IErMin=18 ErrMin= 1.28D-03
 ErrMax= 1.28D-03  0.00D+00 EMaxC= 1.00D-01 BMatC= 6.54D-05 BMatP= 9.16D-05
 IDIUse=3 WtCom= 9.87D-01 WtEn= 1.28D-02
 Coeff-Com:  0.868D-01-0.992D-01 0.136D-01-0.397D-02 0.221D-01-0.291D-01
 Coeff-Com:  0.189D+00-0.322D+00 0.451D-01 0.252D-01 0.345D+00-0.791D+00
 Coeff-Com: -0.806D+00 0.777D+00 0.425D+01-0.545D+01-0.490D+00 0.324D+01
 Coeff-En:   0.000D+00 0.000D+00 0.000D+00 0.000D+00 0.000D+00 0.000D+00
 Coeff-En:   0.000D+00 0.000D+00 0.000D+00 0.000D+00 0.000D+00 0.000D+00
 Coeff-En:   0.000D+00 0.000D+00 0.000D+00 0.000D+00 0.000D+00 0.100D+01
 Coeff:      0.857D-01-0.979D-01 0.134D-01-0.392D-02 0.218D-01-0.287D-01
 Coeff:      0.186D+00-0.318D+00 0.445D-01 0.249D-01 0.340D+00-0.781D+00
 Coeff:     -0.795D+00 0.767D+00 0.420D+01-0.538D+01-0.484D+00 0.321D+01
 Gap=     0.117 Goal=   None    Shift=    0.200
 RMSDP=1.17D-04 MaxDP=7.75D-03 DE=-1.10D-03 OVMax= 1.29D-02

 Cycle  19  Pass 1  IDiag  1:
 E= -210.925901898916     Delta-E=       -0.001477617007 Rises=F Damp=F
 DIIS: error= 5.36D-04 at cycle  19 NSaved=  19.
 NSaved=19 IEnMin=19 EnMin= -210.925901898916     IErMin=19 ErrMin= 5.36D-04
 ErrMax= 5.36D-04  0.00D+00 EMaxC= 1.00D-01 BMatC= 2.67D-05 BMatP= 6.54D-05
 IDIUse=3 WtCom= 9.95D-01 WtEn= 5.36D-03
 Coeff-Com:  0.583D-01-0.667D-01 0.110D-01-0.103D-02-0.266D-01-0.769D-01
 Coeff-Com: -0.497D-01-0.660D-01 0.213D+00-0.147D+00 0.403D+00-0.604D+00
 Coeff-Com: -0.654D+00 0.106D+01 0.251D+01-0.175D+01-0.147D+01 0.228D+00
 Coeff-Com:  0.143D+01
 Coeff-En:   0.000D+00 0.000D+00 0.000D+00 0.000D+00 0.000D+00 0.000D+00
 Coeff-En:   0.000D+00 0.000D+00 0.000D+00 0.000D+00 0.000D+00 0.000D+00
 Coeff-En:   0.000D+00 0.000D+00 0.000D+00 0.000D+00 0.000D+00 0.000D+00
 Coeff-En:   0.100D+01
 Coeff:      0.580D-01-0.664D-01 0.110D-01-0.102D-02-0.265D-01-0.765D-01
 Coeff:     -0.494D-01-0.656D-01 0.212D+00-0.147D+00 0.401D+00-0.601D+00
 Coeff:     -0.650D+00 0.106D+01 0.250D+01-0.175D+01-0.146D+01 0.227D+00
 Coeff:      0.142D+01
 Gap=     0.117 Goal=   None    Shift=    0.200
 RMSDP=3.53D-05 MaxDP=2.37D-03 DE=-1.48D-03 OVMax= 2.88D-03

 Cycle  20  Pass 1  IDiag  1:
 E= -210.925644629623     Delta-E=        0.000257269293 Rises=F Damp=F
 DIIS: error= 7.07D-04 at cycle  20 NSaved=  20.
 NSaved=20 IEnMin=19 EnMin= -210.925901898916     IErMin=19 ErrMin= 5.36D-04
 ErrMax= 7.07D-04  0.00D+00 EMaxC= 1.00D-01 BMatC= 4.11D-05 BMatP= 2.67D-05
 IDIUse=3 WtCom= 9.95D-01 WtEn= 5.36D-03
 Rare condition: small coef for last iteration:  0.000D+00
 Coeff-Com:  0.472D-01-0.540D-01 0.988D-02-0.145D-02-0.340D-01-0.116D+00
 Coeff-Com: -0.486D-01-0.133D+00 0.331D+00-0.506D-01 0.295D+00-0.773D+00
 Coeff-Com: -0.401D+00 0.172D+01 0.160D+01-0.196D+01-0.705D+00-0.303D+00
 Coeff-Com:  0.127D+01 0.314D+00
 Coeff-En:   0.000D+00 0.000D+00 0.000D+00 0.000D+00 0.000D+00 0.000D+00
 Coeff-En:   0.000D+00 0.000D+00 0.000D+00 0.000D+00 0.000D+00 0.000D+00
 Coeff-En:   0.000D+00 0.000D+00 0.000D+00 0.000D+00 0.000D+00 0.000D+00
 Coeff-En:   0.000D+00 0.100D+01
 Coeff:      0.472D-01-0.540D-01 0.988D-02-0.145D-02-0.340D-01-0.116D+00
 Coeff:     -0.486D-01-0.133D+00 0.331D+00-0.506D-01 0.295D+00-0.773D+00
 Coeff:     -0.401D+00 0.172D+01 0.160D+01-0.196D+01-0.705D+00-0.303D+00
 Coeff:      0.127D+01 0.314D+00
 Gap=     0.117 Goal=   None    Shift=    0.000
 RMSDP=1.66D-05 MaxDP=1.07D-03 DE= 2.57D-04 OVMax= 2.12D-03

 Cycle  21  Pass 1  IDiag  1:
 E= -210.925785201405     Delta-E=       -0.000140571782 Rises=F Damp=F
 DIIS: error= 7.11D-04 at cycle  21 NSaved=  20.
 NSaved=20 IEnMin=18 EnMin= -210.925901898916     IErMin=18 ErrMin= 5.36D-04
 ErrMax= 7.11D-04  0.00D+00 EMaxC= 1.00D-01 BMatC= 3.96D-05 BMatP= 2.67D-05
 IDIUse=3 WtCom= 9.95D-01 WtEn= 5.36D-03
 Coeff-Com: -0.385D-04 0.278D-02-0.110D-02-0.988D-02-0.142D+00 0.687D-02
 Coeff-Com: -0.792D-01 0.141D+00 0.817D-01 0.375D+00-0.591D+00-0.768D+00
 Coeff-Com: -0.233D+00 0.462D+01-0.308D+01-0.473D+00-0.478D+00 0.125D+01
 Coeff-Com: -0.203D+01 0.241D+01
 Coeff-En:   0.000D+00 0.000D+00 0.000D+00 0.000D+00 0.000D+00 0.000D+00
 Coeff-En:   0.000D+00 0.000D+00 0.000D+00 0.000D+00 0.000D+00 0.000D+00
 Coeff-En:   0.000D+00 0.000D+00 0.000D+00 0.000D+00 0.000D+00 0.000D+00
 Coeff-En:   0.000D+00 0.100D+01
 Coeff:     -0.383D-04 0.277D-02-0.109D-02-0.982D-02-0.141D+00 0.684D-02
 Coeff:     -0.787D-01 0.140D+00 0.813D-01 0.373D+00-0.588D+00-0.764D+00
 Coeff:     -0.232D+00 0.460D+01-0.306D+01-0.470D+00-0.475D+00 0.124D+01
 Coeff:     -0.202D+01 0.240D+01
 Gap=     0.118 Goal=   None    Shift=    0.000
 RMSDP=3.27D-05 MaxDP=2.27D-03 DE=-1.41D-04 OVMax= 3.73D-03

 Cycle  22  Pass 1  IDiag  1:
 E= -210.925985934498     Delta-E=       -0.000200733093 Rises=F Damp=F
 DIIS: error= 7.28D-04 at cycle  22 NSaved=  20.
 NSaved=20 IEnMin=20 EnMin= -210.925985934498     IErMin=17 ErrMin= 5.36D-04
 ErrMax= 7.28D-04  0.00D+00 EMaxC= 1.00D-01 BMatC= 3.42D-05 BMatP= 2.67D-05
 IDIUse=3 WtCom= 9.95D-01 WtEn= 5.36D-03
 Coeff-Com:  0.406D-03 0.164D-02 0.191D-02-0.793D-01-0.401D-01 0.648D-01
 Coeff-Com:  0.180D-01-0.156D+00 0.530D+00-0.357D+00-0.759D+00-0.341D+00
 Coeff-Com:  0.341D+01-0.207D+01-0.396D+00 0.479D+00 0.568D+00-0.148D+01
 Coeff-Com: -0.124D+01 0.285D+01
 Coeff-En:   0.000D+00 0.000D+00 0.000D+00 0.000D+00 0.000D+00 0.000D+00
 Coeff-En:   0.000D+00 0.000D+00 0.000D+00 0.000D+00 0.000D+00 0.000D+00
 Coeff-En:   0.000D+00 0.000D+00 0.000D+00 0.000D+00 0.000D+00 0.000D+00
 Coeff-En:   0.000D+00 0.100D+01
 Coeff:      0.404D-03 0.163D-02 0.190D-02-0.789D-01-0.399D-01 0.645D-01
 Coeff:      0.179D-01-0.155D+00 0.527D+00-0.355D+00-0.755D+00-0.339D+00
 Coeff:      0.339D+01-0.206D+01-0.394D+00 0.476D+00 0.564D+00-0.147D+01
 Coeff:     -0.124D+01 0.284D+01
 Gap=     0.118 Goal=   None    Shift=    0.200
 RMSDP=4.31D-06 MaxDP=2.08D-04 DE=-2.01D-04 OVMax= 6.30D-04

 Cycle  23  Pass 1  IDiag  1:
 E= -210.925993446022     Delta-E=       -0.000007511523 Rises=F Damp=F
 DIIS: error= 7.23D-04 at cycle  23 NSaved=  20.
 NSaved=20 IEnMin=20 EnMin= -210.925993446022     IErMin=16 ErrMin= 5.36D-04
 ErrMax= 7.23D-04  0.00D+00 EMaxC= 1.00D-01 BMatC= 3.44D-05 BMatP= 2.67D-05
 IDIUse=3 WtCom= 9.95D-01 WtEn= 5.36D-03
 Coeff-Com:  0.160D-02 0.405D-02-0.705D-01-0.437D-01 0.831D-01-0.748D-02
 Coeff-Com: -0.169D+00 0.537D+00-0.326D+00-0.767D+00-0.406D+00 0.348D+01
 Coeff-Com: -0.213D+01-0.381D+00 0.529D+00 0.544D+00-0.150D+01-0.131D+01
 Coeff-Com:  0.295D+01-0.263D-01
 Coeff-En:   0.000D+00 0.000D+00 0.000D+00 0.000D+00 0.000D+00 0.000D+00
 Coeff-En:   0.000D+00 0.000D+00 0.000D+00 0.000D+00 0.000D+00 0.000D+00
 Coeff-En:   0.000D+00 0.000D+00 0.000D+00 0.000D+00 0.000D+00 0.000D+00
 Coeff-En:   0.000D+00 0.100D+01
 Coeff:      0.159D-02 0.403D-02-0.701D-01-0.435D-01 0.826D-01-0.744D-02
 Coeff:     -0.168D+00 0.534D+00-0.324D+00-0.762D+00-0.404D+00 0.346D+01
 Coeff:     -0.212D+01-0.379D+00 0.526D+00 0.541D+00-0.149D+01-0.130D+01
 Coeff:      0.294D+01-0.208D-01
 Gap=     0.118 Goal=   None    Shift=    0.200
 RMSDP=1.20D-06 MaxDP=7.50D-05 DE=-7.51D-06 OVMax= 2.19D-04

 Cycle  24  Pass 1  IDiag  1:
 E= -210.925995104340     Delta-E=       -0.000001658319 Rises=F Damp=F
 DIIS: error= 7.09D-04 at cycle  24 NSaved=  20.
 NSaved=20 IEnMin=20 EnMin= -210.925995104340     IErMin=15 ErrMin= 5.36D-04
 ErrMax= 7.09D-04  0.00D+00 EMaxC= 1.00D-01 BMatC= 3.25D-05 BMatP= 2.67D-05
 IDIUse=3 WtCom= 9.95D-01 WtEn= 5.36D-03
 Coeff-Com:  0.190D-02-0.723D-01 0.103D-01-0.406D-01 0.522D-01-0.629D-01
 Coeff-Com:  0.427D+00-0.391D+00-0.790D+00-0.395D+00 0.367D+01-0.229D+01
 Coeff-Com: -0.584D+00 0.660D+00 0.682D+00-0.117D+01-0.101D+01 0.224D+01
 Coeff-Com: -0.378D+01 0.383D+01
 Coeff-En:   0.000D+00 0.000D+00 0.000D+00 0.000D+00 0.000D+00 0.000D+00
 Coeff-En:   0.000D+00 0.000D+00 0.000D+00 0.000D+00 0.000D+00 0.000D+00
 Coeff-En:   0.000D+00 0.000D+00 0.000D+00 0.000D+00 0.000D+00 0.000D+00
 Coeff-En:   0.000D+00 0.100D+01
 Coeff:      0.189D-02-0.719D-01 0.102D-01-0.404D-01 0.519D-01-0.625D-01
 Coeff:      0.425D+00-0.388D+00-0.786D+00-0.393D+00 0.365D+01-0.228D+01
 Coeff:     -0.581D+00 0.656D+00 0.678D+00-0.116D+01-0.100D+01 0.223D+01
 Coeff:     -0.376D+01 0.382D+01
 Gap=     0.118 Goal=   None    Shift=    0.200
 RMSDP=1.08D-05 MaxDP=6.76D-04 DE=-1.66D-06 OVMax= 1.15D-03

 Cycle  25  Pass 1  IDiag  1:
 E= -210.926032491976     Delta-E=       -0.000037387636 Rises=F Damp=F
 DIIS: error= 5.51D-04 at cycle  25 NSaved=  20.
 NSaved=20 IEnMin=20 EnMin= -210.926032491976     IErMin=14 ErrMin= 5.36D-04
 ErrMax= 5.51D-04  0.00D+00 EMaxC= 1.00D-01 BMatC= 1.80D-05 BMatP= 2.67D-05
 IDIUse=3 WtCom= 9.95D-01 WtEn= 5.36D-03
 Coeff-Com:  0.133D-01-0.177D-01-0.321D-01-0.385D-01 0.455D-01 0.869D-01
 Coeff-Com: -0.967D-01-0.973D-01-0.311D-01 0.150D+01-0.159D+01 0.114D+00
 Coeff-Com:  0.480D+00-0.206D+00-0.687D-01-0.659D+00 0.968D+00-0.212D+01
 Coeff-Com: -0.211D+01 0.485D+01
 Coeff-En:   0.000D+00 0.000D+00 0.000D+00 0.000D+00 0.000D+00 0.000D+00
 Coeff-En:   0.000D+00 0.000D+00 0.000D+00 0.000D+00 0.000D+00 0.000D+00
 Coeff-En:   0.000D+00 0.000D+00 0.000D+00 0.000D+00 0.000D+00 0.000D+00
 Coeff-En:   0.000D+00 0.100D+01
 Coeff:      0.133D-01-0.176D-01-0.320D-01-0.383D-01 0.453D-01 0.865D-01
 Coeff:     -0.961D-01-0.968D-01-0.309D-01 0.149D+01-0.158D+01 0.114D+00
 Coeff:      0.477D+00-0.205D+00-0.683D-01-0.656D+00 0.963D+00-0.211D+01
 Coeff:     -0.210D+01 0.483D+01
 Gap=     0.117 Goal=   None    Shift=    0.200
 RMSDP=1.25D-05 MaxDP=8.03D-04 DE=-3.74D-05 OVMax= 1.47D-03

 Cycle  26  Pass 1  IDiag  1:
 E= -210.926058830129     Delta-E=       -0.000026338153 Rises=F Damp=F
 DIIS: error= 3.06D-04 at cycle  26 NSaved=  20.
 NSaved=20 IEnMin=20 EnMin= -210.926058830129     IErMin=20 ErrMin= 3.06D-04
 ErrMax= 3.06D-04  0.00D+00 EMaxC= 1.00D-01 BMatC= 5.20D-06 BMatP= 1.80D-05
 IDIUse=3 WtCom= 9.97D-01 WtEn= 3.06D-03
 Coeff-Com:  0.121D-01 0.197D-01-0.204D-01-0.808D-01 0.126D+00 0.265D-02
 Coeff-Com: -0.175D+00-0.208D+00 0.457D+00 0.432D-01-0.362D+00 0.378D+00
 Coeff-Com: -0.246D-01-0.165D+00-0.635D+00 0.173D+01-0.200D+01 0.200D+01
 Coeff-Com: -0.254D+01 0.245D+01
 Coeff-En:   0.000D+00 0.000D+00 0.000D+00 0.000D+00 0.000D+00 0.000D+00
 Coeff-En:   0.000D+00 0.000D+00 0.000D+00 0.000D+00 0.000D+00 0.000D+00
 Coeff-En:   0.000D+00 0.000D+00 0.000D+00 0.000D+00 0.000D+00 0.000D+00
 Coeff-En:   0.000D+00 0.100D+01
 Coeff:      0.121D-01 0.197D-01-0.204D-01-0.805D-01 0.126D+00 0.265D-02
 Coeff:     -0.174D+00-0.208D+00 0.456D+00 0.430D-01-0.361D+00 0.377D+00
 Coeff:     -0.246D-01-0.165D+00-0.633D+00 0.172D+01-0.199D+01 0.199D+01
 Coeff:     -0.254D+01 0.244D+01
 Gap=     0.116 Goal=   None    Shift=    0.200
 RMSDP=2.93D-06 MaxDP=2.54D-04 DE=-2.63D-05 OVMax= 5.73D-04

 Cycle  27  Pass 1  IDiag  1:
 E= -210.926061464676     Delta-E=       -0.000002634547 Rises=F Damp=F
 DIIS: error= 2.08D-04 at cycle  27 NSaved=  20.
 NSaved=20 IEnMin=20 EnMin= -210.926061464676     IErMin=20 ErrMin= 2.08D-04
 ErrMax= 2.08D-04  0.00D+00 EMaxC= 1.00D-01 BMatC= 2.86D-06 BMatP= 5.20D-06
 IDIUse=3 WtCom= 9.98D-01 WtEn= 2.08D-03
 Coeff-Com: -0.439D-02 0.145D-01-0.300D-01 0.719D-01-0.856D-01-0.692D-01
 Coeff-Com:  0.165D-01-0.113D+00 0.264D+00-0.670D-01-0.331D-01 0.723D-01
 Coeff-Com: -0.769D-01-0.532D-01 0.408D+00 0.267D+00-0.328D+00-0.530D+00
 Coeff-Com: -0.381D+00 0.166D+01
 Coeff-En:   0.000D+00 0.000D+00 0.000D+00 0.000D+00 0.000D+00 0.000D+00
 Coeff-En:   0.000D+00 0.000D+00 0.000D+00 0.000D+00 0.000D+00 0.000D+00
 Coeff-En:   0.000D+00 0.000D+00 0.000D+00 0.000D+00 0.000D+00 0.000D+00
 Coeff-En:   0.000D+00 0.100D+01
 Coeff:     -0.438D-02 0.145D-01-0.299D-01 0.717D-01-0.855D-01-0.690D-01
 Coeff:      0.165D-01-0.113D+00 0.263D+00-0.668D-01-0.330D-01 0.721D-01
 Coeff:     -0.768D-01-0.531D-01 0.407D+00 0.267D+00-0.328D+00-0.529D+00
 Coeff:     -0.380D+00 0.166D+01
 Gap=     0.116 Goal=   None    Shift=    0.200
 RMSDP=8.59D-06 MaxDP=5.80D-04 DE=-2.63D-06 OVMax= 1.01D-03

 Cycle  28  Pass 1  IDiag  1:
 E= -210.926066055243     Delta-E=       -0.000004590567 Rises=F Damp=F
 DIIS: error= 3.71D-05 at cycle  28 NSaved=  20.
 NSaved=20 IEnMin=20 EnMin= -210.926066055243     IErMin=20 ErrMin= 3.71D-05
 ErrMax= 3.71D-05  0.00D+00 EMaxC= 1.00D-01 BMatC= 1.37D-07 BMatP= 2.86D-06
 IDIUse=1 WtCom= 1.00D+00 WtEn= 0.00D+00
 Coeff-Com: -0.596D-02 0.730D-02 0.145D-01-0.333D-01 0.648D-02 0.285D-01
 Coeff-Com:  0.718D-01-0.138D+00 0.150D-02 0.104D+00-0.114D+00-0.651D-02
 Coeff-Com:  0.630D-01-0.958D-01 0.592D+00-0.389D+00 0.109D-01-0.196D+00
 Coeff-Com: -0.457D+00 0.154D+01
 Coeff:     -0.596D-02 0.730D-02 0.145D-01-0.333D-01 0.648D-02 0.285D-01
 Coeff:      0.718D-01-0.138D+00 0.150D-02 0.104D+00-0.114D+00-0.651D-02
 Coeff:      0.630D-01-0.958D-01 0.592D+00-0.389D+00 0.109D-01-0.196D+00
 Coeff:     -0.457D+00 0.154D+01
 Gap=     0.116 Goal=   None    Shift=    0.200
 RMSDP=2.26D-06 MaxDP=1.54D-04 DE=-4.59D-06 OVMax= 1.83D-04

 Cycle  29  Pass 1  IDiag  1:
 E= -210.926066230986     Delta-E=       -0.000000175743 Rises=F Damp=F
 DIIS: error= 2.37D-05 at cycle  29 NSaved=  20.
 NSaved=20 IEnMin=20 EnMin= -210.926066230986     IErMin=20 ErrMin= 2.37D-05
 ErrMax= 2.37D-05  0.00D+00 EMaxC= 1.00D-01 BMatC= 3.78D-08 BMatP= 1.37D-07
 IDIUse=1 WtCom= 1.00D+00 WtEn= 0.00D+00
 Coeff-Com:  0.114D-02 0.356D-02-0.157D-01 0.901D-02 0.398D-01-0.654D-01
 Coeff-Com:  0.314D-01-0.758D-02 0.499D-02 0.169D-01-0.499D-01 0.104D-01
 Coeff-Com: -0.176D-01 0.106D+00-0.608D-01 0.181D-01 0.396D-01-0.171D+00
 Coeff-Com: -0.352D+00 0.146D+01
 Coeff:      0.114D-02 0.356D-02-0.157D-01 0.901D-02 0.398D-01-0.654D-01
 Coeff:      0.314D-01-0.758D-02 0.499D-02 0.169D-01-0.499D-01 0.104D-01
 Coeff:     -0.176D-01 0.106D+00-0.608D-01 0.181D-01 0.396D-01-0.171D+00
 Coeff:     -0.352D+00 0.146D+01
 Gap=     0.116 Goal=   None    Shift=    0.200
 RMSDP=1.22D-06 MaxDP=8.08D-05 DE=-1.76D-07 OVMax= 1.39D-04

 Cycle  30  Pass 1  IDiag  1:
 E= -210.926066318822     Delta-E=       -0.000000087836 Rises=F Damp=F
 DIIS: error= 6.06D-06 at cycle  30 NSaved=  20.
 NSaved=20 IEnMin=20 EnMin= -210.926066318822     IErMin=20 ErrMin= 6.06D-06
 ErrMax= 6.06D-06  0.00D+00 EMaxC= 1.00D-01 BMatC= 3.22D-09 BMatP= 3.78D-08
 IDIUse=1 WtCom= 1.00D+00 WtEn= 0.00D+00
 Coeff-Com: -0.372D-03 0.300D-03-0.598D-03-0.964D-02 0.107D-01 0.129D-01
 Coeff-Com: -0.311D-01 0.175D-01 0.317D-02-0.802D-02 0.298D-01-0.330D-01
 Coeff-Com: -0.870D-01 0.119D+00-0.535D-01 0.376D-01 0.229D-01-0.169D+00
 Coeff-Com: -0.276D+00 0.141D+01
 Coeff:     -0.372D-03 0.300D-03-0.598D-03-0.964D-02 0.107D-01 0.129D-01
 Coeff:     -0.311D-01 0.175D-01 0.317D-02-0.802D-02 0.298D-01-0.330D-01
 Coeff:     -0.870D-01 0.119D+00-0.535D-01 0.376D-01 0.229D-01-0.169D+00
 Coeff:     -0.276D+00 0.141D+01
 Gap=     0.116 Goal=   None    Shift=    0.200
 RMSDP=3.17D-07 MaxDP=2.00D-05 DE=-8.78D-08 OVMax= 2.73D-05

 Cycle  31  Pass 1  IDiag  1:
 E= -210.926066323977     Delta-E=       -0.000000005155 Rises=F Damp=F
 DIIS: error= 3.18D-06 at cycle  31 NSaved=  20.
 NSaved=20 IEnMin=20 EnMin= -210.926066323977     IErMin=20 ErrMin= 3.18D-06
 ErrMax= 3.18D-06  0.00D+00 EMaxC= 1.00D-01 BMatC= 5.95D-10 BMatP= 3.22D-09
 IDIUse=1 WtCom= 1.00D+00 WtEn= 0.00D+00
 Coeff-Com:  0.399D-03-0.163D-02-0.259D-02 0.739D-02-0.867D-03-0.537D-02
 Coeff-Com:  0.185D-02-0.102D-03-0.331D-02 0.972D-02-0.123D-01 0.833D-02
 Coeff-Com:  0.868D-02-0.794D-02-0.429D-02-0.846D-02 0.100D+00-0.226D+00
 Coeff-Com: -0.464D+00 0.160D+01
 Coeff:      0.399D-03-0.163D-02-0.259D-02 0.739D-02-0.867D-03-0.537D-02
 Coeff:      0.185D-02-0.102D-03-0.331D-02 0.972D-02-0.123D-01 0.833D-02
 Coeff:      0.868D-02-0.794D-02-0.429D-02-0.846D-02 0.100D+00-0.226D+00
 Coeff:     -0.464D+00 0.160D+01
 Gap=     0.116 Goal=   None    Shift=    0.200
 RMSDP=8.62D-08 MaxDP=6.07D-06 DE=-5.15D-09 OVMax= 1.62D-05

 Cycle  32  Pass 1  IDiag  1:
 E= -210.926066324966     Delta-E=       -0.000000000990 Rises=F Damp=F
 DIIS: error= 2.33D-06 at cycle  32 NSaved=  20.
 NSaved=20 IEnMin=20 EnMin= -210.926066324966     IErMin=20 ErrMin= 2.33D-06
 ErrMax= 2.33D-06  0.00D+00 EMaxC= 1.00D-01 BMatC= 3.59D-10 BMatP= 5.95D-10
 IDIUse=1 WtCom= 1.00D+00 WtEn= 0.00D+00
 Coeff-Com:  0.106D-03 0.384D-03 0.289D-02-0.205D-02-0.340D-02 0.160D-02
 Coeff-Com:  0.836D-03-0.275D-02 0.539D-02-0.449D-02-0.142D-01 0.150D-01
 Coeff-Com: -0.578D-02 0.141D-01-0.180D-01-0.234D-01 0.124D+00 0.588D-01
 Coeff-Com: -0.110D+01 0.195D+01
 Coeff:      0.106D-03 0.384D-03 0.289D-02-0.205D-02-0.340D-02 0.160D-02
 Coeff:      0.836D-03-0.275D-02 0.539D-02-0.449D-02-0.142D-01 0.150D-01
 Coeff:     -0.578D-02 0.141D-01-0.180D-01-0.234D-01 0.124D+00 0.588D-01
 Coeff:     -0.110D+01 0.195D+01
 Gap=     0.116 Goal=   None    Shift=    0.200
 RMSDP=3.65D-08 MaxDP=1.99D-06 DE=-9.90D-10 OVMax= 6.89D-06

 Cycle  33  Pass 1  IDiag  1:
 E= -210.926066325266     Delta-E=       -0.000000000300 Rises=F Damp=F
 DIIS: error= 1.66D-06 at cycle  33 NSaved=  20.
 NSaved=20 IEnMin=20 EnMin= -210.926066325266     IErMin=20 ErrMin= 1.66D-06
 ErrMax= 1.66D-06  0.00D+00 EMaxC= 1.00D-01 BMatC= 1.79D-10 BMatP= 3.59D-10
 IDIUse=1 WtCom= 1.00D+00 WtEn= 0.00D+00
 Coeff-Com: -0.116D-03 0.228D-02-0.123D-02-0.305D-02 0.254D-02-0.635D-04
 Coeff-Com: -0.259D-03 0.124D-02-0.144D-02-0.136D-01 0.150D-01-0.660D-02
 Coeff-Com:  0.953D-02-0.987D-02-0.266D-01 0.613D-01 0.209D+00-0.708D+00
 Coeff-Com:  0.603D-01 0.141D+01
 Coeff:     -0.116D-03 0.228D-02-0.123D-02-0.305D-02 0.254D-02-0.635D-04
 Coeff:     -0.259D-03 0.124D-02-0.144D-02-0.136D-01 0.150D-01-0.660D-02
 Coeff:      0.953D-02-0.987D-02-0.266D-01 0.613D-01 0.209D+00-0.708D+00
 Coeff:      0.603D-01 0.141D+01
 Gap=     0.116 Goal=   None    Shift=    0.200
 RMSDP=1.38D-08 MaxDP=8.51D-07 DE=-3.00D-10 OVMax= 3.78D-06

 Cycle  34  Pass 1  IDiag  1:
 E= -210.926066325348     Delta-E=       -0.000000000081 Rises=F Damp=F
 DIIS: error= 1.22D-06 at cycle  34 NSaved=  20.
 NSaved=20 IEnMin=20 EnMin= -210.926066325348     IErMin=20 ErrMin= 1.22D-06
 ErrMax= 1.22D-06  0.00D+00 EMaxC= 1.00D-01 BMatC= 1.01D-10 BMatP= 1.79D-10
 IDIUse=1 WtCom= 1.00D+00 WtEn= 0.00D+00
 Coeff-Com:  0.898D-03-0.269D-03-0.142D-02 0.628D-03 0.356D-03-0.535D-03
 Coeff-Com:  0.147D-02-0.254D-02-0.454D-02 0.493D-02 0.499D-03 0.668D-03
 Coeff-Com: -0.533D-03-0.612D-02-0.121D-01 0.525D-01 0.274D-01-0.725D-01
 Coeff-Com: -0.999D+00 0.201D+01
 Coeff:      0.898D-03-0.269D-03-0.142D-02 0.628D-03 0.356D-03-0.535D-03
 Coeff:      0.147D-02-0.254D-02-0.454D-02 0.493D-02 0.499D-03 0.668D-03
 Coeff:     -0.533D-03-0.612D-02-0.121D-01 0.525D-01 0.274D-01-0.725D-01
 Coeff:     -0.999D+00 0.201D+01
 Gap=     0.116 Goal=   None    Shift=    0.200
 RMSDP=2.29D-08 MaxDP=1.45D-06 DE=-8.15D-11 OVMax= 3.41D-06

 Cycle  35  Pass 1  IDiag  1:
 E= -210.926066325462     Delta-E=       -0.000000000115 Rises=F Damp=F
 DIIS: error= 7.15D-07 at cycle  35 NSaved=  20.
 NSaved=20 IEnMin=20 EnMin= -210.926066325462     IErMin=20 ErrMin= 7.15D-07
 ErrMax= 7.15D-07  0.00D+00 EMaxC= 1.00D-01 BMatC= 3.65D-11 BMatP= 1.01D-10
 IDIUse=1 WtCom= 1.00D+00 WtEn= 0.00D+00
 Coeff-Com:  0.223D-03-0.340D-03 0.778D-04-0.270D-03 0.187D-03 0.625D-03
 Coeff-Com: -0.112D-02-0.153D-02 0.151D-02 0.215D-03 0.373D-03-0.315D-03
 Coeff-Com: -0.545D-03-0.591D-02 0.105D-01 0.472D-02 0.713D-01-0.432D+00
 Coeff-Com: -0.277D+00 0.163D+01
 Coeff:      0.223D-03-0.340D-03 0.778D-04-0.270D-03 0.187D-03 0.625D-03
 Coeff:     -0.112D-02-0.153D-02 0.151D-02 0.215D-03 0.373D-03-0.315D-03
 Coeff:     -0.545D-03-0.591D-02 0.105D-01 0.472D-02 0.713D-01-0.432D+00
 Coeff:     -0.277D+00 0.163D+01
 Gap=     0.116 Goal=   None    Shift=    0.200
 RMSDP=1.31D-08 MaxDP=7.27D-07 DE=-1.15D-10 OVMax= 2.27D-06

 Cycle  36  Pass 1  IDiag  1:
 E= -210.926066325496     Delta-E=       -0.000000000034 Rises=F Damp=F
 DIIS: error= 3.66D-07 at cycle  36 NSaved=  20.
 NSaved=20 IEnMin=20 EnMin= -210.926066325496     IErMin=20 ErrMin= 3.66D-07
 ErrMax= 3.66D-07  0.00D+00 EMaxC= 1.00D-01 BMatC= 1.00D-11 BMatP= 3.65D-11
 IDIUse=1 WtCom= 1.00D+00 WtEn= 0.00D+00
 Coeff-Com: -0.114D-04-0.345D-04-0.401D-04-0.737D-04 0.383D-03-0.108D-03
 Coeff-Com: -0.154D-02 0.108D-02 0.251D-03 0.497D-03-0.638D-03-0.226D-02
 Coeff-Com:  0.116D-01-0.408D-03-0.832D-01 0.128D+00 0.934D-01-0.472D+00
 Coeff-Com: -0.593D+00 0.192D+01
 Coeff:     -0.114D-04-0.345D-04-0.401D-04-0.737D-04 0.383D-03-0.108D-03
 Coeff:     -0.154D-02 0.108D-02 0.251D-03 0.497D-03-0.638D-03-0.226D-02
 Coeff:      0.116D-01-0.408D-03-0.832D-01 0.128D+00 0.934D-01-0.472D+00
 Coeff:     -0.593D+00 0.192D+01
 Gap=     0.116 Goal=   None    Shift=    0.200
 RMSDP=1.13D-08 MaxDP=6.01D-07 DE=-3.43D-11 OVMax= 1.70D-06

 Cycle  37  Pass 1  IDiag  1:
 E= -210.926066325508     Delta-E=       -0.000000000011 Rises=F Damp=F
 DIIS: error= 1.13D-07 at cycle  37 NSaved=  20.
 NSaved=20 IEnMin=20 EnMin= -210.926066325508     IErMin=20 ErrMin= 1.13D-07
 ErrMax= 1.13D-07  0.00D+00 EMaxC= 1.00D-01 BMatC= 1.10D-12 BMatP= 1.00D-11
 IDIUse=1 WtCom= 1.00D+00 WtEn= 0.00D+00
 Large coefficients: NSaved= 20 BigCof=    0.00 CofMax=   10.00 Det=-2.31D-15
 Inversion failed.  Reducing to 19 matrices.
 Large coefficients: NSaved= 19 BigCof=    0.00 CofMax=   10.00 Det=-2.45D-15
 Inversion failed.  Reducing to 18 matrices.
 Large coefficients: NSaved= 18 BigCof=    0.00 CofMax=   10.00 Det=-2.50D-15
 Inversion failed.  Reducing to 17 matrices.
 Large coefficients: NSaved= 17 BigCof=    0.00 CofMax=   10.00 Det=-2.50D-15
 Inversion failed.  Reducing to 16 matrices.
 Large coefficients: NSaved= 16 BigCof=    0.00 CofMax=   10.00 Det=-2.61D-15
 Inversion failed.  Reducing to 15 matrices.
 Coeff-Com: -0.829D-03 0.132D-02-0.228D-03-0.463D-03 0.260D-03 0.113D-02
 Coeff-Com: -0.141D-02-0.859D-02 0.114D-01 0.794D-02-0.988D-01 0.173D+00
 Coeff-Com: -0.336D-01-0.105D+01 0.200D+01
 Coeff:     -0.829D-03 0.132D-02-0.228D-03-0.463D-03 0.260D-03 0.113D-02
 Coeff:     -0.141D-02-0.859D-02 0.114D-01 0.794D-02-0.988D-01 0.173D+00
 Coeff:     -0.336D-01-0.105D+01 0.200D+01
 Gap=     0.116 Goal=   None    Shift=    0.200
 RMSDP=2.34D-09 MaxDP=2.20D-07 DE=-1.13D-11 OVMax= 6.51D-07

 SCF Done:  E(ROHF) =  -210.926066326     A.U. after   37 cycles
            NFock= 37  Conv=0.23D-08     -V/T= 2.4897
 <Sx>= 0.0000 <Sy>= 0.0000 <Sz>= 0.5000 <S**2>= 0.7500 S= 0.5000
 <L.S>=  0.00000000000    
 KE= 1.415887214862D+02 PE=-6.073998995545D+02 EE= 2.117949674251D+02
 Annihilation of the first spin contaminant:
 S**2 before annihilation     0.7500,   after     0.7500
 Leave Link  502 at Sat May  5 20:46:53 2018, MaxMem= 10737418240 cpu:             770.1 elap:              31.6
 (Enter /home1/apps/gaussian/16rA.03/g16/l801.exe)
 Windowed orbitals will be sorted by symmetry type.
 GenMOA:  NOpAll=  4 NOp2=4 NOpUse=  4 JSym2X=1
 FoFJK:  IHMeth= 1 ICntrl=       0 DoSepK=F KAlg= 0 I1Cent=           0 FoldK=F
 IRaf=         0 NMat=       1 IRICut=       1 DoRegI=T DoRafI=F ISym2E= 1 IDoP0=0 IntGTp=1.
 FoFCou: FMM=F IPFlag=           8 FMFlag=      100000 FMFlg1=           0
         NFxFlg=           0 DoJE=F BraDBF=F KetDBF=F FulRan=T
         wScrn=  0.000000 ICntrl=         0 IOpCl=  1 I1Cent=           0 NGrid=           0
         NMat0=    1 NMatS0=      1 NMatT0=    0 NMatD0=    1 NMtDS0=    0 NMtDT0=    0
 Petite list used in FoFCou.
 <Sx>= 0.0000 <Sy>= 0.0000 <Sz>= 0.5000 <S**2>= 0.7500 S= 0.5000
 Range of M.O.s used for correlation:     1   256
 NBasis=   261 NAE=    13 NBE=    12 NFC=     0 NFV=     0
 NROrb=    256 NOA=    13 NOB=    12 NVA=   243 NVB=   244

 **** Warning!!: The largest alpha MO coefficient is  0.14409939D+03


 **** Warning!!: The largest beta MO coefficient is  0.14409809D+03

 Singles contribution to E2=   -0.4297808441D-02
 Leave Link  801 at Sat May  5 20:46:57 2018, MaxMem= 10737418240 cpu:             137.4 elap:               4.3
 (Enter /home1/apps/gaussian/16rA.03/g16/l804.exe)
 Open-shell transformation, MDV= 10737418240 ITran=4 ISComp=2.
 Unit  1 TFree=       2056238 TCopy=        911956.
 Semi-Direct transformation.
 ModeAB=           4 MOrb=            13 LenV=   10735381109
 LASXX=     27084267 LTotXX=    27084267 LenRXX=    54625511
 LTotAB=    27541244 MaxLAS=   160130048 LenRXY=           0
 NonZer=    81709778 LenScr=   123333120 LnRSAI=   160130048
 LnScr1=   241137664 LExtra=    15157823 Total=    594384166
 MaxDsk= 67108864000 SrtSym=           T ITran=            4
 DoSDTr:  NPSUse= 32
 JobTyp=1 Pass  1:  I=   1 to  13.
 (rs|ai) integrals will be sorted in core.
 Complete sort for first half transformation.
 First half transformation complete.
 Begin second half transformation for I=  10.
 Complete sort for second half transformation.
 Second half transformation complete.
 ModeAB=           4 MOrb=            12 LenV=   10735381109
 LASXX=     25114839 LTotXX=    25114839 LenRXX=    48116653
 LTotAB=    23001814 MaxLAS=   147812352 LenRXY=           0
 NonZer=    73231492 LenScr=   110598144 LnRSAI=   147812352
 LnScr1=   222588928 LExtra=    69783334 Total=    598899411
 MaxDsk= 67108864000 SrtSym=           T ITran=            4
 DoSDTr:  NPSUse= 32
 JobTyp=2 Pass  1:  I=   1 to  12.
 (rs|ai) integrals will be sorted in core.
 Complete sort for first half transformation.
 First half transformation complete.
 Begin second half transformation for I=  10.
 Complete sort for second half transformation.
 Second half transformation complete.
 Spin components of T(2) and E(2):
     alpha-alpha T2 =       0.3382679027D-01 E2=     -0.2089848740D+00
     alpha-beta  T2 =       0.1433077381D+00 E2=     -0.9126808230D+00
     beta-beta   T2 =       0.3475220763D-01 E2=     -0.2010124960D+00
 ANorm=    0.1101853482D+01
 E2 =    -0.1326976001D+01 EUMP2 =    -0.21225304232691D+03
 (S**2,0)=  0.75000D+00           (S**2,1)=  0.75000D+00
 E(PUHF)=      -0.21092606633D+03        E(PMP2)=      -0.21225304233D+03
 Leave Link  804 at Sat May  5 20:49:14 2018, MaxMem= 10737418240 cpu:            4346.8 elap:             136.3
 (Enter /home1/apps/gaussian/16rA.03/g16/l913.exe)
 CIDS:  MDV= 10737418240.
 IFCWin=0 IBDFC=1 NFBD=     0     0 NFCmp=     0     0 NFFFC=     0     0
 Using original routines for 1st iteration.
 Using DD4UQ or CC4UQ for 2nd and later iterations.
 Keep R2 and R3 ints in memory in symmetry-blocked form, NReq=734619877.
 FoFCou: FMM=F IPFlag=           8 FMFlag=           0 FMFlg1=           0
         NFxFlg=           0 DoJE=F BraDBF=F KetDBF=F FulRan=T
         wScrn=  0.000000 ICntrl=       600 IOpCl=  0 I1Cent=           0 NGrid=           0
         NMat0=    1 NMatS0=  34191 NMatT0=    0 NMatD0=    1 NMtDS0=    0 NMtDT0=    0
 Petite list used in FoFCou.
 CIDS: In Core Option IDoMem=           1.
 CCSD(T)
 =======
 Iterations= 150 Convergence= 0.100D-06
 Produce multiple copies of IABC intergrals
 Iteration Nr.   1
 **********************
 DD1Dir will call FoFMem   1 times, MxPair=       456
 NAB=   156 NAA=    78 NBB=    66.
 DD1Dir will call FoFMem   1 times, MxPair=       456
 NAB=   156 NAA=    78 NBB=    66.
 MP4(R+Q)= -0.24244617D+00
 Maximum subspace dimension=  5
 A-vector RMS=  2.2595443D-04 Max=  5.5780048D-03 conv= 1.00D-05.
 RLE energy=       -1.3378794665
 E3=        0.23140822D+00        EROMP3=      -0.21202163411D+03
 E4(SDQ)=  -0.19040603D+00        ROMP4(SDQ)=  -0.21221204014D+03
 VARIATIONAL ENERGIES WITH THE FIRST-ORDER WAVEFUNCTION:
 DE(Corr)=  -1.3377917     E(Corr)=     -212.26385800    
 NORM(A)=   0.11023021D+01
 Iteration Nr.   2
 **********************
 DD1Dir will call FoFMem   1 times, MxPair=       456
 NAB=   156 NAA=    78 NBB=    66.
 A-vector RMS=  5.8790091D-03 Max=  6.8398725D-02 conv= 1.00D-05.
 RLE energy=       -1.2924210879
 DE(Corr)=  -1.0895607     E(CORR)=     -212.01562705     Delta= 2.48D-01
 NORM(A)=   0.10932191D+01
 Iteration Nr.   3
 **********************
 DD1Dir will call FoFMem   1 times, MxPair=       456
 NAB=   156 NAA=    78 NBB=    66.
 A-vector RMS=  4.1536187D-03 Max=  4.9580666D-02 conv= 1.00D-05.
 RLE energy=       -1.2430400405
 DE(Corr)=  -1.1156862     E(CORR)=     -212.04175251     Delta=-2.61D-02
 NORM(A)=   0.10894747D+01
 Iteration Nr.   4
 **********************
 DD1Dir will call FoFMem   1 times, MxPair=       456
 NAB=   156 NAA=    78 NBB=    66.
 A-vector RMS=  3.1812363D-03 Max=  4.0170969D-02 conv= 1.00D-05.
 RLE energy=       -1.0912118667
 DE(Corr)=  -1.1481768     E(CORR)=     -212.07424315     Delta=-3.25D-02
 NORM(A)=   0.11394623D+01
 Iteration Nr.   5
 **********************
 DD1Dir will call FoFMem   1 times, MxPair=       456
 NAB=   156 NAA=    78 NBB=    66.
 A-vector RMS=  4.4836535D-03 Max=  4.4793398D-02 conv= 1.00D-05.
 RLE energy=       -1.2066989324
 DE(Corr)=  -1.2817515     E(CORR)=     -212.20781783     Delta=-1.34D-01
 NORM(A)=   0.11549869D+01
 Iteration Nr.   6
 **********************
 DD1Dir will call FoFMem   1 times, MxPair=       456
 NAB=   156 NAA=    78 NBB=    66.
 A-vector RMS=  1.2976996D-03 Max=  1.6251942D-02 conv= 1.00D-05.
 RLE energy=       -1.2072789616
 DE(Corr)=  -1.2019478     E(CORR)=     -212.12801413     Delta= 7.98D-02
 NORM(A)=   0.11408887D+01
 Iteration Nr.   7
 **********************
 DD1Dir will call FoFMem   1 times, MxPair=       456
 NAB=   156 NAA=    78 NBB=    66.
 A-vector RMS=  3.8129311D-04 Max=  5.6443136D-03 conv= 1.00D-05.
 RLE energy=       -1.2007181040
 DE(Corr)=  -1.1976312     E(CORR)=     -212.12369749     Delta= 4.32D-03
 NORM(A)=   0.11431078D+01
 Iteration Nr.   8
 **********************
 DD1Dir will call FoFMem   1 times, MxPair=       456
 NAB=   156 NAA=    78 NBB=    66.
 A-vector RMS=  2.6469090D-04 Max=  2.8421530D-03 conv= 1.00D-05.
 RLE energy=       -1.2009808860
 DE(Corr)=  -1.2015897     E(CORR)=     -212.12765604     Delta=-3.96D-03
 NORM(A)=   0.11452596D+01
 Iteration Nr.   9
 **********************
 DD1Dir will call FoFMem   1 times, MxPair=       456
 NAB=   156 NAA=    78 NBB=    66.
 A-vector RMS=  1.4985416D-04 Max=  2.0427856D-03 conv= 1.00D-05.
 RLE energy=       -1.2014617294
 DE(Corr)=  -1.2012919     E(CORR)=     -212.12735827     Delta= 2.98D-04
 NORM(A)=   0.11471023D+01
 Iteration Nr.  10
 **********************
 DD1Dir will call FoFMem   1 times, MxPair=       456
 NAB=   156 NAA=    78 NBB=    66.
 A-vector RMS=  8.6409750D-05 Max=  9.6173505D-04 conv= 1.00D-05.
 RLE energy=       -1.2017672477
 DE(Corr)=  -1.2015142     E(CORR)=     -212.12758048     Delta=-2.22D-04
 NORM(A)=   0.11478017D+01
 Iteration Nr.  11
 **********************
 DD1Dir will call FoFMem   1 times, MxPair=       456
 NAB=   156 NAA=    78 NBB=    66.
 A-vector RMS=  4.3409428D-05 Max=  6.7013308D-04 conv= 1.00D-05.
 RLE energy=       -1.2014652737
 DE(Corr)=  -1.2014900     E(CORR)=     -212.12755630     Delta= 2.42D-05
 NORM(A)=   0.11477270D+01
 Iteration Nr.  12
 **********************
 DD1Dir will call FoFMem   1 times, MxPair=       456
 NAB=   156 NAA=    78 NBB=    66.
 A-vector RMS=  2.7762176D-05 Max=  4.4296255D-04 conv= 1.00D-05.
 RLE energy=       -1.2017280198
 DE(Corr)=  -1.2016701     E(CORR)=     -212.12773645     Delta=-1.80D-04
 NORM(A)=   0.11475943D+01
 Iteration Nr.  13
 **********************
 DD1Dir will call FoFMem   1 times, MxPair=       456
 NAB=   156 NAA=    78 NBB=    66.
 A-vector RMS=  1.6697585D-05 Max=  2.1526694D-04 conv= 1.00D-05.
 RLE energy=       -1.2015464684
 DE(Corr)=  -1.2014739     E(CORR)=     -212.12754019     Delta= 1.96D-04
 NORM(A)=   0.11475157D+01
 Iteration Nr.  14
 **********************
 DD1Dir will call FoFMem   1 times, MxPair=       456
 NAB=   156 NAA=    78 NBB=    66.
 A-vector RMS=  1.2244527D-05 Max=  1.9636182D-04 conv= 1.00D-05.
 RLE energy=       -1.2015714771
 DE(Corr)=  -1.2016014     E(CORR)=     -212.12766771     Delta=-1.28D-04
 NORM(A)=   0.11474077D+01
 Iteration Nr.  15
 **********************
 DD1Dir will call FoFMem   1 times, MxPair=       456
 NAB=   156 NAA=    78 NBB=    66.
 A-vector RMS=  8.2184589D-06 Max=  1.2108362D-04 conv= 1.00D-05.
 RLE energy=       -1.2015563148
 DE(Corr)=  -1.2015484     E(CORR)=     -212.12761471     Delta= 5.30D-05
 NORM(A)=   0.11473657D+01
 Iteration Nr.  16
 **********************
 DD1Dir will call FoFMem   1 times, MxPair=       456
 NAB=   156 NAA=    78 NBB=    66.
 A-vector RMS=  6.0798500D-06 Max=  8.6679118D-05 conv= 1.00D-05.
 RLE energy=       -1.2015512951
 DE(Corr)=  -1.2015526     E(CORR)=     -212.12761891     Delta=-4.20D-06
 NORM(A)=   0.11473268D+01
 Iteration Nr.  17
 **********************
 DD1Dir will call FoFMem   1 times, MxPair=       456
 NAB=   156 NAA=    78 NBB=    66.
 A-vector RMS=  4.3480133D-06 Max=  5.1034372D-05 conv= 1.00D-05.
 RLE energy=       -1.2015399866
 DE(Corr)=  -1.2015477     E(CORR)=     -212.12761399     Delta= 4.92D-06
 NORM(A)=   0.11472868D+01
 Iteration Nr.  18
 **********************
 DD1Dir will call FoFMem   1 times, MxPair=       456
 NAB=   156 NAA=    78 NBB=    66.
 A-vector RMS=  3.0583376D-06 Max=  4.2031859D-05 conv= 1.00D-05.
 RLE energy=       -1.2015460430
 DE(Corr)=  -1.2015486     E(CORR)=     -212.12761493     Delta=-9.42D-07
 NORM(A)=   0.11472570D+01
 Iteration Nr.  19
 **********************
 DD1Dir will call FoFMem   1 times, MxPair=       456
 NAB=   156 NAA=    78 NBB=    66.
 A-vector RMS=  2.6369096D-06 Max=  4.5825649D-05 conv= 1.00D-05.
 RLE energy=       -1.2015345160
 DE(Corr)=  -1.2015353     E(CORR)=     -212.12760160     Delta= 1.33D-05
 NORM(A)=   0.11472566D+01
 Iteration Nr.  20
 **********************
 DD1Dir will call FoFMem   1 times, MxPair=       456
 NAB=   156 NAA=    78 NBB=    66.
 A-vector RMS=  1.3303065D-06 Max=  1.7644117D-05 conv= 1.00D-05.
 RLE energy=       -1.2015423754
 DE(Corr)=  -1.2015454     E(CORR)=     -212.12761174     Delta=-1.01D-05
 NORM(A)=   0.11472518D+01
 Iteration Nr.  21
 **********************
 DD1Dir will call FoFMem   1 times, MxPair=       456
 NAB=   156 NAA=    78 NBB=    66.
 A-vector RMS=  1.0700434D-06 Max=  1.2305333D-05 conv= 1.00D-05.
 RLE energy=       -1.2015397960
 DE(Corr)=  -1.2015376     E(CORR)=     -212.12760389     Delta= 7.85D-06
 NORM(A)=   0.11472553D+01
 Iteration Nr.  22
 **********************
 DD1Dir will call FoFMem   1 times, MxPair=       456
 NAB=   156 NAA=    78 NBB=    66.
 A-vector RMS=  9.5195773D-07 Max=  1.4916257D-05 conv= 1.00D-05.
 RLE energy=       -1.2015394331
 DE(Corr)=  -1.2015399     E(CORR)=     -212.12760627     Delta=-2.38D-06
 NORM(A)=   0.11472578D+01
 Iteration Nr.  23
 **********************
 DD1Dir will call FoFMem   1 times, MxPair=       456
 NAB=   156 NAA=    78 NBB=    66.
 A-vector RMS=  5.7406185D-07 Max=  8.0011881D-06 conv= 1.00D-05.
 RLE energy=       -1.2015399928
 DE(Corr)=  -1.2015406     E(CORR)=     -212.12760689     Delta=-6.23D-07
 NORM(A)=   0.11472593D+01
 Iteration Nr.  24
 **********************
 DD1Dir will call FoFMem   1 times, MxPair=       456
 NAB=   156 NAA=    78 NBB=    66.
 A-vector RMS=  3.0846517D-07 Max=  3.3507521D-06 conv= 1.00D-05.
 RLE energy=       -1.2015407542
 DE(Corr)=  -1.2015404     E(CORR)=     -212.12760672     Delta= 1.70D-07
 NORM(A)=   0.11472613D+01
 Iteration Nr.  25
 **********************
 DD1Dir will call FoFMem   1 times, MxPair=       456
 NAB=   156 NAA=    78 NBB=    66.
 A-vector RMS=  2.4660254D-07 Max=  4.2354105D-06 conv= 1.00D-05.
 RLE energy=       -1.2015398595
 DE(Corr)=  -1.2015399     E(CORR)=     -212.12760624     Delta= 4.83D-07
 NORM(A)=   0.11472638D+01
 Iteration Nr.  26
 **********************
 DD1Dir will call FoFMem   1 times, MxPair=       456
 NAB=   156 NAA=    78 NBB=    66.
 A-vector RMS=  1.8484166D-07 Max=  2.2916927D-06 conv= 1.00D-05.
 RLE energy=       -1.2015409004
 DE(Corr)=  -1.2015411     E(CORR)=     -212.12760746     Delta=-1.22D-06
 NORM(A)=   0.11472654D+01
 Iteration Nr.  27
 **********************
 DD1Dir will call FoFMem   1 times, MxPair=       456
 NAB=   156 NAA=    78 NBB=    66.
 A-vector RMS=  1.4307050D-07 Max=  1.8062501D-06 conv= 1.00D-05.
 RLE energy=       -1.2015406435
 DE(Corr)=  -1.2015405     E(CORR)=     -212.12760682     Delta= 6.37D-07
 NORM(A)=   0.11472665D+01
 Iteration Nr.  28
 **********************
 DD1Dir will call FoFMem   1 times, MxPair=       456
 NAB=   156 NAA=    78 NBB=    66.
 A-vector RMS=  1.0446057D-07 Max=  1.7061129D-06 conv= 1.00D-05.
 RLE energy=       -1.2015406998
 DE(Corr)=  -1.2015409     E(CORR)=     -212.12760720     Delta=-3.84D-07
 NORM(A)=   0.11472671D+01
 Iteration Nr.  29
 **********************
 DD1Dir will call FoFMem   1 times, MxPair=       456
 NAB=   156 NAA=    78 NBB=    66.
 A-vector RMS=  8.2651454D-08 Max=  1.3176362D-06 conv= 1.00D-05.
 RLE energy=       -1.2015408548
 DE(Corr)=  -1.2015410     E(CORR)=     -212.12760731     Delta=-1.03D-07
 NORM(A)=   0.11472673D+01
 Iteration Nr.  30
 **********************
 DD1Dir will call FoFMem   1 times, MxPair=       456
 NAB=   156 NAA=    78 NBB=    66.
 A-vector RMS=  5.5401529D-08 Max=  8.4344239D-07 conv= 1.00D-05.
 RLE energy=       -1.2015409521
 DE(Corr)=  -1.2015409     E(CORR)=     -212.12760723     Delta= 7.83D-08
 NORM(A)=   0.11472676D+01
 CI/CC converged in   30 iterations to DelEn= 7.83D-08 Conv= 1.00D-07 ErrA1= 5.54D-08 Conv= 1.00D-05
 Wavefunction amplitudes converged. E(Corr)=     -212.12760723    
 Dominant configurations:
 ***********************
 Spin Case        I    J    A    B          Value
    BB            8        18           -0.174601D+00
    BB            8        21            0.132048D+00
 Largest amplitude= 1.75D-01
 Time for triples=    61249.34 seconds.
 T4(CCSD)= -0.69852190D-01
 T5(CCSD)=  0.18097157D-01
 CCSD(T)= -0.21217936226D+03
 Discarding MO integrals.
 Leave Link  913 at Sat May  5 21:35:18 2018, MaxMem= 10737418240 cpu:           87705.0 elap:            2762.8
 (Enter /home1/apps/gaussian/16rA.03/g16/l601.exe)
 Copying SCF densities to generalized density rwf, IOpCl= 0 IROHF=1.

 **********************************************************************

            Population analysis using the SCF density.

 **********************************************************************

 Orbital symmetries:
       Occupied  (SG) (SG) (PI) (PI) (SG) (?A) (?B) (?A) (?B) (?B)
                 (?A) (SG) (?A)
       Virtual   (SG) (PI) (PI) (SG) (SG) (PI) (PI) (?C) (?C) (?C)
                 (?C) (PI) (SG) (PI) (PI) (SG) (PI) (PI) (PI) (SG)
                 (SG) (?D) (?D) (?D) (PI) (?E) (PI) (?E) (?E) (PI)
                 (PI) (SG) (PI) (PI) (SG) (PI) (PI) (SG) (PHI)
                 (PHI) (DLTA) (DLTA) (SG) (PI) (PI) (?F) (?G) (?G)
                 (?G) (?G) (?F) (?F) (?H) (?H) (?H) (?H) (PI) (PI)
                 (?H) (?H) (SG) (SG) (PI) (PI) (PI) (PI) (SG) (PI)
                 (PI) (SG) (PHI) (PHI) (DLTA) (DLTA) (PI) (PI)
                 (SG) (SG) (PI) (PI) (SG) (DLTA) (DLTA) (PHI) (PHI)
                 (?I) (?I) (?I) (?I) (PHI) (PHI) (?J) (?J) (PI)
                 (?J) (PI) (?J) (?J) (PI) (PI) (SG) (PI) (PI) (SG)
                 (PI) (PI) (SG) (SG) (PHI) (PHI) (DLTA) (DLTA)
                 (PI) (PI) (SG) (PI) (PI) (SG) (DLTA) (DLTA) (PI)
                 (PI) (SG) (SG) (?K) (?K) (PHI) (PHI) (DLTA) (DLTA)
                 (PI) (PI) (PI) (SG) (PI) (SG) (SG) (PHI) (PHI)
                 (DLTA) (DLTA) (PI) (PI) (SG) (PI) (PI) (SG) (DLTA)
                 (DLTA) (PI) (PI) (SG) (SG) (SG) (?K) (?K) (PHI)
                 (PHI) (DLTA) (DLTA) (PI) (PI) (SG) (?L) (?L) (PI)
                 (PI) (?L) (PI) (PI) (SG) (PI) (PI) (SG) (DLTA)
                 (DLTA) (PI) (PI) (SG) (SG) (SG) (PI) (PI) (SG)
                 (PI) (PI) (SG) (SG) (SG) (DLTA) (DLTA) (PI) (PI)
                 (SG) (PI) (PI) (SG) (SG) (SG) (PI) (PI) (SG) (PI)
                 (PI) (SG) (SG) (SG) (DLTA) (DLTA) (PI) (PI) (SG)
                 (PI) (PI) (SG) (SG) (PI) (PI) (SG) (SG) (SG) (PI)
                 (PI) (SG) (SG) (SG) (PI) (PI) (SG) (SG) (PI) (PI)
                 (SG) (SG) (SG) (SG) (PI) (PI) (SG) (SG) (SG) (SG)
                 (SG)
 Unable to determine electronic state:  an orbital has unidentified symmetry.
 Alpha  occ. eigenvalues --   -5.32665  -3.51222  -3.48607  -3.47551  -1.31968
 Alpha  occ. eigenvalues --   -0.70021  -0.66481  -0.62840  -0.57536  -0.57531
 Alpha  occ. eigenvalues --   -0.48792  -0.43417  -0.37028
 Alpha virt. eigenvalues --   -0.00129   0.03059   0.03230   0.03950   0.05268
 Alpha virt. eigenvalues --    0.10827   0.11311   0.13679   0.19294   0.19989
 Alpha virt. eigenvalues --    0.20009   0.21262   0.21671   0.22165   0.26025
 Alpha virt. eigenvalues --    0.26092   0.26295   0.34229   0.35075   0.38204
 Alpha virt. eigenvalues --    0.58695   0.67921   0.69380   0.69407   0.75864
 Alpha virt. eigenvalues --    0.76235   0.76735   0.76927   0.77680   0.85429
 Alpha virt. eigenvalues --    0.87033   0.93813   1.07319   1.09806   1.17142
 Alpha virt. eigenvalues --    1.18734   1.20667   1.37213   1.63130   1.63130
 Alpha virt. eigenvalues --    1.73207   1.73220   1.80930   1.95053   1.97197
 Alpha virt. eigenvalues --    2.12982   2.14607   2.14609   2.16782   2.17818
 Alpha virt. eigenvalues --    2.17859   2.18013   2.25852   2.26031   2.28566
 Alpha virt. eigenvalues --    2.39613   2.51627   2.54171   2.60764   2.60808
 Alpha virt. eigenvalues --    3.07195   3.17845   3.21343   3.24793   3.40673
 Alpha virt. eigenvalues --    3.41697   3.95134   4.06600   4.12055   4.63617
 Alpha virt. eigenvalues --    4.75934   4.75934   4.80563   4.80566   4.91389
 Alpha virt. eigenvalues --    4.93011   5.14713   5.84695   6.09003   6.10830
 Alpha virt. eigenvalues --    6.11489   6.35109   6.35150   6.45033   6.45034
 Alpha virt. eigenvalues --    6.45403   6.45403   6.46590   6.46616   6.50846
 Alpha virt. eigenvalues --    6.50847   6.81075   6.81273   6.85629   6.87037
 Alpha virt. eigenvalues --    6.87946   7.11525   7.11676   7.33012   7.38150
 Alpha virt. eigenvalues --    7.86689   7.99123   8.01655   8.20777   8.48190
 Alpha virt. eigenvalues --    8.49279   8.61005   9.34939  12.22104  12.22104
 Alpha virt. eigenvalues --   12.27800  12.27802  12.48746  12.49751  13.12153
 Alpha virt. eigenvalues --   14.79236  14.85696  15.66695  16.07639  16.07642
 Alpha virt. eigenvalues --   16.17830  16.18774  16.42820  16.92801  17.11243
 Alpha virt. eigenvalues --   17.11243  17.11564  17.11564  17.23276  17.23280
 Alpha virt. eigenvalues --   17.67319  17.68229  17.70772  17.70938  17.71784
 Alpha virt. eigenvalues --   18.01315  18.57503  32.03332  32.03332  32.07530
 Alpha virt. eigenvalues --   32.07535  32.19372  32.20285  32.57390  34.14507
 Alpha virt. eigenvalues --   34.15456  34.37620  35.24312  35.24314  35.34851
 Alpha virt. eigenvalues --   35.35821  35.90055  37.14240  38.29208  41.41221
 Alpha virt. eigenvalues --   41.41221  41.41869  41.41869  41.48685  41.48693
 Alpha virt. eigenvalues --   41.73089  41.74045  41.87833  43.65944  43.66029
 Alpha virt. eigenvalues --   43.78327  43.81865  44.07266  45.48776  45.54068
 Alpha virt. eigenvalues --   46.69198  62.77846  62.78800  63.08913  72.46098
 Alpha virt. eigenvalues --   72.46099  72.56636  72.57552  72.98243  74.46498
 Alpha virt. eigenvalues --   75.30153 112.07237 112.08122 112.37216 118.87214
 Alpha virt. eigenvalues --  118.90956 119.88020 136.70506 151.83480 175.17275
 Alpha virt. eigenvalues --  175.17276 175.26169 175.26776 175.59182 201.09900
 Alpha virt. eigenvalues --  201.10606 201.37238 257.46790 274.18619 286.17951
 Alpha virt. eigenvalues --  286.20069 287.08968 368.31259 368.31757 368.55608
 Alpha virt. eigenvalues --  483.63641 554.96072 620.51480 620.51480 620.57291
 Alpha virt. eigenvalues --  620.57498 620.78523 698.77273 698.77591 699.00471
 Alpha virt. eigenvalues --  904.566611399.756831399.758621399.971751529.49222
 Alpha virt. eigenvalues -- 1796.085193026.809523026.810393027.004493796.81467
 Alpha virt. eigenvalues -- 5659.657387261.278267261.278627261.448388560.37841
 Alpha virt. eigenvalues -- **************************************************
 Alpha virt. eigenvalues -- **************************************************
 Alpha virt. eigenvalues -- ******************************
     Molecular Orbital Coefficients:
                           8         9        10        11        12
                           O         O         O         O         O
     Eigenvalues --    -0.62840  -0.57536  -0.57531  -0.48792  -0.43417
   1 1   Cu 1S          0.00000   0.00000   0.00000   0.00000   0.00000
   2        2S          0.00000   0.00000  -0.00000   0.00000  -0.00000
   3        3S          0.00000   0.00000   0.00000   0.00000   0.00000
   4        4S          0.00000   0.00000  -0.00000   0.00000  -0.00000
   5        5S          0.00000   0.00000   0.00000   0.00000   0.00000
   6        6S          0.00000   0.00000  -0.00000   0.00000  -0.00001
[...]
  40       29PY        -0.00003  -0.00002  -0.00002   0.00000
  41       29PZ        -0.00003  -0.00002  -0.00002   0.00000
  42       30PX         0.00047   0.00024   0.00024   0.00000
  43       30PY         0.00048   0.00024   0.00024   0.00000
  44       30PZ         0.00048   0.00024   0.00024   0.00000
  45       31PX        -0.00277  -0.00139  -0.00138  -0.00001
  46       31PY        -0.00278  -0.00139  -0.00139   0.00000
  47       31PZ        -0.00275  -0.00138  -0.00138   0.00000
  48       32PX        -0.05139  -0.02578  -0.02561  -0.00017
  49       32PY        -0.05174  -0.02587  -0.02587   0.00000
  50       32PZ        -0.05355  -0.02678  -0.02678   0.00000
  51       33PX         0.06744   0.03377   0.03367   0.00011
  52       33PY         0.06742   0.03371   0.03371   0.00000
  53       33PZ         0.05792   0.02896   0.02896   0.00000
  54       34PX         0.58453   0.29312   0.29141   0.00170
  55       34PY         0.58803   0.29401   0.29401   0.00000
  56       34PZ         0.60739   0.30369   0.30369   0.00000
  57       35PX         0.79280   0.39725   0.39554   0.00171
  58       35PY         0.79942   0.39971   0.39971   0.00000
  59       35PZ         0.85892   0.42946   0.42946   0.00000
  60       36PX         0.48221   0.24050   0.24171  -0.00120
  61       36PY         0.47878   0.23939   0.23939   0.00000
  62       36PZ         0.47192   0.23596   0.23596   0.00000
  63       37PX         0.05133   0.02889   0.02243   0.00646
  64       37PY         0.06401   0.03200   0.03200   0.00000
  65       37PZ         0.03635   0.01817   0.01817   0.00000
  66       38PX         0.00939   0.00994  -0.00055   0.01049
  67       38PY         0.04784   0.02392   0.02392   0.00000
  68       38PZ        -0.02940  -0.01470  -0.01470   0.00000
  69       39PX         0.00324   0.00315   0.00009   0.00306
  70       39PY         0.00987   0.00493   0.00493  -0.00000
  71       39PZ         0.00242   0.00121   0.00121  -0.00000
  72       40PX        -0.02227  -0.01112  -0.01115   0.00002
  73       40PY        -0.02198  -0.01099  -0.01099   0.00000
  74       40PZ        -0.01423  -0.00711  -0.00711  -0.00000
  75       41PX         0.10527   0.05238   0.05289  -0.00050
  76       41PY         0.10102   0.05051   0.05051   0.00000
  77       41PZ         0.04403   0.02201   0.02201   0.00000
  78       42PX        -0.00036  -0.00036  -0.00000  -0.00036
  79       42PY        -0.00116  -0.00058  -0.00058  -0.00000
  80       42PZ        -0.00062  -0.00031  -0.00031   0.00000
  81       43D 0       -0.00001  -0.00000  -0.00000  -0.00000
  82       43D+1       -0.00001  -0.00001  -0.00000  -0.00000
  83       43D-1       -0.00001  -0.00001  -0.00001   0.00000
  84       43D+2       -0.00001  -0.00001  -0.00001   0.00000
  85       43D-2       -0.00001  -0.00001  -0.00001   0.00000
  86       44D 0        0.00524   0.00262   0.00262   0.00000
  87       44D+1        0.00654   0.00347   0.00307   0.00040
  88       44D-1        0.00702   0.00351   0.00351   0.00000
  89       44D+2        0.00692   0.00346   0.00346   0.00000
  90       44D-2        0.00692   0.00346   0.00346   0.00000
  91       45D 0        0.05391   0.02695   0.02695   0.00000
  92       45D+1        0.06680   0.03545   0.03135   0.00410
  93       45D-1        0.07169   0.03584   0.03584   0.00000
  94       45D+2        0.07052   0.03526   0.03526   0.00000
  95       45D-2        0.07052   0.03526   0.03526   0.00000
  96       46D 0        0.16036   0.08018   0.08018   0.00000
  97       46D+1        0.20736   0.10996   0.09740   0.01257
  98       46D-1        0.22201   0.11101   0.11101   0.00000
  99       46D+2        0.22192   0.11096   0.11096   0.00000
 100       46D-2        0.22193   0.11096   0.11096   0.00000
 101       47D 0        0.19856   0.09928   0.09928   0.00000
 102       47D+1        0.25128   0.13288   0.11840   0.01448
 103       47D-1        0.26729   0.13365   0.13365  -0.00000
 104       47D+2        0.26452   0.13226   0.13226   0.00000
 105       47D-2        0.26453   0.13226   0.13226   0.00000
 106       48D 0        0.52530   0.26265   0.26265   0.00000
 107       48D+1        0.60337   0.31532   0.28805   0.02726
 108       48D-1        0.62919   0.31459   0.31459   0.00000
 109       48D+2        0.62323   0.31162   0.31162   0.00000
 110       48D-2        0.62326   0.31163   0.31163   0.00000
 111       49D 0        0.32636   0.16318   0.16318   0.00000
 112       49D+1        0.37015   0.18427   0.18587  -0.00160
 113       49D-1        0.35783   0.17892   0.17892   0.00000
 114       49D+2        0.37293   0.18646   0.18646   0.00000
 115       49D-2        0.37293   0.18647   0.18647   0.00000
 116       50D 0        0.06641   0.03320   0.03320   0.00000
 117       50D+1        0.07232   0.02807   0.04425  -0.01618
 118       50D-1        0.05238   0.02619   0.02619   0.00000
 119       50D+2        0.08176   0.04088   0.04088  -0.00000
 120       50D-2        0.08177   0.04088   0.04088   0.00000
 121       51D 0        0.06108   0.03054   0.03054   0.00000
 122       51D+1        0.06390   0.03387   0.03004   0.00383
 123       51D-1        0.06846   0.03423   0.03423   0.00000
 124       51D+2        0.06335   0.03168   0.03168   0.00000
 125       51D-2        0.06336   0.03168   0.03168   0.00000
 126       52D 0        0.22827   0.11414   0.11414   0.00000
 127       52D+1        0.27630   0.14602   0.13029   0.01573
 128       52D-1        0.29372   0.14686   0.14686   0.00000
 129       52D+2        0.29178   0.14589   0.14589   0.00000
 130       52D-2        0.29179   0.14589   0.14589   0.00000
 131       53D 0        0.01282   0.00641   0.00641   0.00000
 132       53D+1        0.00075   0.00017   0.00058  -0.00041
 133       53D-1       -0.00015  -0.00008  -0.00008   0.00000
 134       53D+2        0.00131   0.00066   0.00066   0.00000
 135       53D-2        0.00132   0.00066   0.00066   0.00000
 136       54F 0        0.00001   0.00000   0.00000   0.00000
 137       54F+1        0.00000   0.00000   0.00000   0.00000
 138       54F-1        0.00000   0.00000   0.00000   0.00000
 139       54F+2        0.00000   0.00000   0.00000   0.00000
 140       54F-2        0.00000   0.00000   0.00000   0.00000
 141       54F+3        0.00000   0.00000   0.00000   0.00000
 142       54F-3        0.00000   0.00000   0.00000   0.00000
 143       55F 0        0.00007   0.00004   0.00004   0.00000
 144       55F+1        0.00002   0.00002   0.00000   0.00002
 145       55F-1        0.00004   0.00002   0.00002   0.00000
 146       55F+2        0.00000   0.00000   0.00000   0.00000
 147       55F-2        0.00000   0.00000   0.00000   0.00000
 148       55F+3        0.00000   0.00000   0.00000  -0.00000
 149       55F-3        0.00000   0.00000   0.00000   0.00000
 150       56F 0        0.00219   0.00109   0.00109   0.00000
 151       56F+1        0.00061   0.00057   0.00004   0.00052
 152       56F-1        0.00111   0.00056   0.00056   0.00000
 153       56F+2        0.00001   0.00001   0.00001   0.00000
 154       56F-2        0.00001   0.00000   0.00000   0.00000
 155       56F+3        0.00000   0.00000   0.00000  -0.00000
 156       56F-3        0.00000   0.00000   0.00000   0.00000
 157       57F 0        0.00190   0.00095   0.00095   0.00000
 158       57F+1        0.00337   0.00365  -0.00028   0.00393
 159       57F-1        0.00778   0.00389   0.00389  -0.00000
 160       57F+2        0.00004   0.00002   0.00002  -0.00000
 161       57F-2        0.00003   0.00002   0.00002   0.00000
 162       57F+3        0.00000   0.00000   0.00000   0.00000
 163       57F-3        0.00000   0.00000   0.00000   0.00000
 164       58G 0        0.00000   0.00000   0.00000   0.00000
 165       58G+1        0.00000   0.00000   0.00000   0.00000
 166       58G-1        0.00000   0.00000   0.00000   0.00000
 167       58G+2        0.00000   0.00000   0.00000   0.00000
 168       58G-2        0.00000   0.00000   0.00000   0.00000
 169       58G+3        0.00000   0.00000   0.00000   0.00000
 170       58G-3        0.00000   0.00000   0.00000   0.00000
 171       58G+4        0.00000   0.00000   0.00000   0.00000
 172       58G-4        0.00000   0.00000   0.00000   0.00000
 173       59G 0       -0.00001  -0.00000  -0.00000   0.00000
 174       59G+1       -0.00000  -0.00000  -0.00000  -0.00000
 175       59G-1       -0.00000  -0.00000  -0.00000   0.00000
 176       59G+2        0.00000   0.00000   0.00000   0.00000
 177       59G-2        0.00000   0.00000   0.00000   0.00000
 178       59G+3       -0.00000   0.00000  -0.00000   0.00000
 179       59G-3       -0.00000  -0.00000  -0.00000   0.00000
 180       59G+4        0.00000   0.00000   0.00000  -0.00000
 181       59G-4        0.00000   0.00000   0.00000   0.00000
 182       60G 0        0.00054   0.00027   0.00027  -0.00000
 183       60G+1        0.00022   0.00014   0.00007   0.00007
 184       60G-1        0.00029   0.00015   0.00015   0.00000
 185       60G+2        0.00001   0.00001   0.00001   0.00000
 186       60G-2        0.00001   0.00001   0.00001   0.00000
 187       60G+3        0.00000   0.00000   0.00000  -0.00000
 188       60G-3        0.00000   0.00000   0.00000   0.00000
 189       60G+4        0.00000   0.00000   0.00000   0.00000
 190       60G-4        0.00000   0.00000   0.00000   0.00000
 191 2   O  1S         -0.00000  -0.00000  -0.00000  -0.00000
 192        2S          0.00000   0.00000   0.00000   0.00000
 193        3S         -0.00000  -0.00000  -0.00000   0.00000
 194        4S          0.00001   0.00000   0.00000   0.00000
 195        5S         -0.00024  -0.00012  -0.00012   0.00000
 196        6S         -0.01119  -0.00559  -0.00559  -0.00000
 197        7S         -0.10198  -0.05099  -0.05099   0.00000
 198        8S          1.10366   0.55183   0.55183   0.00000
 199        9S          0.23009   0.11504   0.11504  -0.00000
 200       10S          0.78010   0.39005   0.39005  -0.00000
 201       11S         -0.00137  -0.00068  -0.00068   0.00000
 202       12S          0.00840   0.00420   0.00420  -0.00000
 203       13S          0.07185   0.03592   0.03592   0.00000
 204       14PX         0.00119   0.00113   0.00006   0.00106
 205       14PY         0.00211   0.00105   0.00105   0.00000
 206       14PZ         0.00190   0.00095   0.00095   0.00000
 207       15PX         0.04006   0.03792   0.00214   0.03579
 208       15PY         0.07073   0.03536   0.03536   0.00000
 209       15PZ         0.06518   0.03259   0.03259   0.00000
 210       16PX         0.23670   0.22346   0.01323   0.21023
 211       16PY         0.41383   0.20691   0.20691   0.00000
 212       16PZ         0.39134   0.19567   0.19567  -0.00000
 213       17PX         0.47728   0.44169   0.03558   0.40611
 214       17PY         0.82969   0.41485   0.41485   0.00000
 215       17PZ         0.77019   0.38510   0.38510   0.00000
 216       18PX         0.27681   0.26299   0.01382   0.24918
 217       18PY         0.56788   0.28394   0.28394  -0.00000
 218       18PZ         0.49068   0.24534   0.24534  -0.00000
 219       19PX         0.00141   0.00134   0.00007   0.00127
 220       19PY         0.00241   0.00120   0.00120   0.00000
 221       19PZ         0.00256   0.00128   0.00128   0.00000
 222       20PX        -0.00019  -0.00018  -0.00001  -0.00017
 223       20PY        -0.00034  -0.00017  -0.00017   0.00000
 224       20PZ        -0.00030  -0.00015  -0.00015   0.00000
 225       21PX         0.01002   0.01050  -0.00048   0.01098
 226       21PY         0.04515   0.02258   0.02258   0.00000
 227       21PZ         0.05827   0.02913   0.02913   0.00000
 228       22D 0        0.00163   0.00082   0.00082   0.00000
 229       22D+1        0.00081   0.00041   0.00040   0.00002
 230       22D-1        0.00075   0.00037   0.00037   0.00000
 231       22D+2        0.00003   0.00002   0.00002   0.00000
 232       22D-2        0.00003   0.00002   0.00002   0.00000
 233       23D 0        0.00802   0.00401   0.00401  -0.00000
 234       23D+1        0.00993   0.00473   0.00520  -0.00048
 235       23D-1        0.00799   0.00399   0.00399  -0.00000
 236       23D+2        0.00089   0.00044   0.00044  -0.00000
 237       23D-2        0.00088   0.00044   0.00044   0.00000
 238       24D 0        0.00001   0.00000   0.00000   0.00000
 239       24D+1        0.00000   0.00000   0.00000   0.00000
 240       24D-1        0.00000   0.00000   0.00000   0.00000
 241       24D+2        0.00000   0.00000   0.00000   0.00000
 242       24D-2        0.00000   0.00000   0.00000   0.00000
 243       25D 0       -0.00263  -0.00131  -0.00131   0.00000
 244       25D+1        0.00081   0.00036   0.00045  -0.00009
 245       25D-1        0.00057   0.00028   0.00028   0.00000
 246       25D+2       -0.00013  -0.00007  -0.00007   0.00000
 247       25D-2       -0.00015  -0.00008  -0.00008   0.00000
 248       26F 0        0.00127   0.00063   0.00063   0.00000
 249       26F+1        0.00093   0.00049   0.00045   0.00004
 250       26F-1        0.00080   0.00040   0.00040   0.00000
 251       26F+2        0.00010   0.00005   0.00005   0.00000
 252       26F-2        0.00009   0.00005   0.00005   0.00000
 253       26F+3        0.00003   0.00003   0.00000   0.00003
 254       26F-3        0.00001   0.00001   0.00001   0.00000
 255       27F 0        0.00031   0.00016   0.00016  -0.00000
 256       27F+1        0.00133   0.00065   0.00068  -0.00004
 257       27F-1        0.00060   0.00030   0.00030   0.00000
 258       27F+2        0.00079   0.00040   0.00040   0.00000
 259       27F-2        0.00078   0.00039   0.00039   0.00000
 260       27F+3        0.00003   0.00003   0.00000   0.00003
 261       27F-3        0.00002   0.00001   0.00001   0.00000
          Condensed to atoms (all electrons):
               1          2
     1  Cu  18.160553  -0.030980
     2  O   -0.030980   6.901407
          Atomic-Atomic Spin Densities.
               1          2
     1  Cu   0.123042  -0.037004
     2  O   -0.037004   0.950966
 Mulliken charges and spin densities:
               1          2
     1  Cu   0.870427   0.086038
     2  O   -0.870427   0.913962
 Sum of Mulliken charges =  -0.00000   1.00000
 Mulliken charges and spin densities with hydrogens summed into heavy atoms:
               1          2
     1  Cu   0.870427   0.086038
     2  O   -0.870427   0.913962
 Electronic spatial extent (au):  <R**2>=             71.5824
 Charge=              0.0000 electrons
 Dipole moment (field-independent basis, Debye):
    X=              0.0000    Y=              0.0000    Z=              4.3732  Tot=              4.3732
 Quadrupole moment (field-independent basis, Debye-Ang):
   XX=            -16.6538   YY=            -18.1376   ZZ=            -18.4271
   XY=              0.0000   XZ=              0.0000   YZ=              0.0000
 Traceless Quadrupole moment (field-independent basis, Debye-Ang):
   XX=              1.0856   YY=             -0.3981   ZZ=             -0.6876
   XY=              0.0000   XZ=              0.0000   YZ=              0.0000
 Octapole moment (field-independent basis, Debye-Ang**2):
  XXX=              0.0000  YYY=              0.0000  ZZZ=             16.6072  XYY=              0.0000
  XXY=              0.0000  XXZ=              2.5891  XZZ=              0.0000  YZZ=              0.0000
  YYZ=              3.7875  XYZ=              0.0000
 Hexadecapole moment (field-independent basis, Debye-Ang**3):
 XXXX=            -15.9743 YYYY=            -19.1311 ZZZZ=            -65.7745 XXXY=              0.0000
 XXXZ=              0.0000 YYYX=              0.0000 YYYZ=              0.0000 ZZZX=              0.0000
 ZZZY=              0.0000 XXYY=             -5.8511 XXZZ=            -12.0124 YYZZ=            -14.0581
 XXYZ=              0.0000 YYXZ=              0.0000 ZZXY=              0.0000
 N-N= 4.309014431777D+01 E-N=-6.073998931214D+02  KE= 1.415887214862D+02
 Symmetry A1   KE= 5.710484267144D+01
 Symmetry A2   KE= 1.929283983493D+01
 Symmetry B1   KE= 3.101895676384D+01
 Symmetry B2   KE= 3.417208221669D+01
 Symmetry A1   SP=-1.319156303894D-16
 Symmetry A2   SP= 0.000000000000D+00
 Symmetry B1   SP= 1.000000000000D+00
 Symmetry B2   SP=-8.662896253906D-18
 Orbital energies and kinetic energies (alpha):
                                 1                 2
   8         O                -0.628403          8.766871
   9         O                -0.575362          9.646420
  10         O                -0.575309          9.622062
  11         O                -0.487922          4.674797
  12         O                -0.434166          4.153148
  13         O                -0.370280          3.310535
  14         V                -0.001289          0.475463
  15         V                 0.030594          0.058000
  16         V                 0.032301          0.071528
  17         V                 0.039496          0.059005
  18         V                 0.052680          0.531936
 Total kinetic energy from orbitals= 1.448992560315D+02
                          Isotropic Fermi Contact Couplings
        Atom                 a.u.       MegaHertz       Gauss      10(-4) cm-1
     1  Cu(63)            -0.00000      -0.00000      -0.00000      -0.00000
     2  O(17)             -0.00000       0.00000       0.00000       0.00000
 --------------------------------------------------------
       Center         ----  Spin Dipole Couplings  ----
                      3XX-RR        3YY-RR        3ZZ-RR
 --------------------------------------------------------
     1   Atom        0.248043     -0.542507      0.294463
     2   Atom        3.061441     -1.535599     -1.525842
 --------------------------------------------------------
                        XY            XZ            YZ
 --------------------------------------------------------
     1   Atom        0.000000      0.000000      0.000000
     2   Atom        0.000000      0.000000      0.000000
 --------------------------------------------------------


 ---------------------------------------------------------------------------------
              Anisotropic Spin Dipole Couplings in Principal Axis System
 ---------------------------------------------------------------------------------

       Atom             a.u.   MegaHertz   Gauss  10(-4) cm-1        Axes

              Baa    -0.5425   -76.809   -27.407   -25.621 -0.0000  1.0000  0.0000
     1 Cu(63) Bbb     0.2480    35.118    12.531    11.714  1.0000  0.0000  0.0000
              Bcc     0.2945    41.691    14.876    13.906  0.0000  0.0000  1.0000
 
              Baa    -1.5356   111.115    39.649    37.064 -0.0000  1.0000  0.0000
     2 O(17)  Bbb    -1.5258   110.409    39.397    36.828  0.0000  0.0000  1.0000
              Bcc     3.0614  -221.524   -79.045   -73.892  1.0000  0.0000  0.0000
 

 ---------------------------------------------------------------------------------

 No NMR shielding tensors so no spin-rotation constants.
 Leave Link  601 at Sat May  5 21:35:22 2018, MaxMem= 10737418240 cpu:             112.1 elap:               3.6
 (Enter /home1/apps/gaussian/16rA.03/g16/l9999.exe)

 Test job not archived.
 1\1\GINC-C451-081\SP\ROCCSD(T)-Full\Gen\Cu1O1(2)\GWANG18\05-May-2018\0
 \\#P ROCCSD(T)=(MaxCyc=150, Full)/Gen SCF=(maxcycle=400, vshift=200) P
 seudo=Read Integral(NoXCTest) Pop=Regular MaxDisk=500GB Guess=Read IOp
 (5/15=2)\\CuO\\0,2\Cu,0,0.,0.,0.\O,0,0.,0.,1.4\\Version=ES64L-G16RevA.
 03\HF=-210.9260663\MP2=-212.2530423\MP3=-212.0216341\PUHF=-210.9260663
 \PMP2-0=-212.2530423\MP4SDQ=-212.2120401\CCSD=-212.1276072\CCSD(T)=-21
 2.1793623\RMSD=2.340e-09\PG=C*V [C*(O1Cu1)]\\@


 EDUCATION WITHOUT COMMON SENSE IS A LOAD OF BOOKS ON THE BACK OF AN ASS.
 Job cpu time:       1 days  1 hours 52 minutes 24.5 seconds.
 Elapsed time:       0 days  0 hours 49 minutes  1.4 seconds.
 File lengths (MBytes):  RWF=   4951 Int=      0 D2E=      0 Chk=      8 Scr=      1
 Normal termination of Gaussian 16 at Sat May  5 21:35:23 2018.
