 Entering Gaussian System, Link 0=g16
 Initial command:
 /home1/apps/gaussian/16rA.03/g16/l1.exe "/tmp/Gau-189169.inp" -scrdir="/tmp/"
 Entering Link 1 = /home1/apps/gaussian/16rA.03/g16/l1.exe PID=    189170.
  
 Copyright (c) 1988,1990,1992,1993,1995,1998,2003,2009,2016,
            Gaussian, Inc.  All Rights Reserved.
  
 This is part of the Gaussian(R) 16 program.  It is based on
 the Gaussian(R) 09 system (copyright 2009, Gaussian, Inc.),
 the Gaussian(R) 03 system (copyright 2003, Gaussian, Inc.),
 the Gaussian(R) 98 system (copyright 1998, Gaussian, Inc.),
 the Gaussian(R) 94 system (copyright 1995, Gaussian, Inc.),
 the Gaussian 92(TM) system (copyright 1992, Gaussian, Inc.),
 the Gaussian 90(TM) system (copyright 1990, Gaussian, Inc.),
 the Gaussian 88(TM) system (copyright 1988, Gaussian, Inc.),
 the Gaussian 86(TM) system (copyright 1986, Carnegie Mellon
 University), and the Gaussian 82(TM) system (copyright 1983,
 Carnegie Mellon University). Gaussian is a federally registered
 trademark of Gaussian, Inc.
  
 This software contains proprietary and confidential information,
 including trade secrets, belonging to Gaussian, Inc.
  
 This software is provided under written license and may be
 used, copied, transmitted, or stored only in accord with that
 written license.
  
 The following legend is applicable only to US Government
 contracts under FAR:
  
                    RESTRICTED RIGHTS LEGEND
  
 Use, reproduction and disclosure by the US Government is
 subject to restrictions as set forth in subparagraphs (a)
 and (c) of the Commercial Computer Software - Restricted
 Rights clause in FAR 52.227-19.
  
 Gaussian, Inc.
 340 Quinnipiac St., Bldg. 40, Wallingford CT 06492
  
  
 ---------------------------------------------------------------
 Warning -- This program may not be used in any manner that
 competes with the business of Gaussian, Inc. or will provide
 assistance to any competitor of Gaussian, Inc.  The licensee
 of this program is prohibited from giving any competitor of
 Gaussian, Inc. access to this program.  By using this program,
 the user acknowledges that Gaussian, Inc. is engaged in the
 business of creating and licensing software in the field of
 computational chemistry and represents and warrants to the
 licensee that it is not a competitor of Gaussian, Inc. and that
 it will not use this program in any manner prohibited above.
 ---------------------------------------------------------------
  

 Cite this work as:
 Gaussian 16, Revision A.03,
 M. J. Frisch, G. W. Trucks, H. B. Schlegel, G. E. Scuseria, 
 M. A. Robb, J. R. Cheeseman, G. Scalmani, V. Barone, 
 G. A. Petersson, H. Nakatsuji, X. Li, M. Caricato, A. V. Marenich, 
 J. Bloino, B. G. Janesko, R. Gomperts, B. Mennucci, H. P. Hratchian, 
 J. V. Ortiz, A. F. Izmaylov, J. L. Sonnenberg, D. Williams-Young, 
 F. Ding, F. Lipparini, F. Egidi, J. Goings, B. Peng, A. Petrone, 
 T. Henderson, D. Ranasinghe, V. G. Zakrzewski, J. Gao, N. Rega, 
 G. Zheng, W. Liang, M. Hada, M. Ehara, K. Toyota, R. Fukuda, 
 J. Hasegawa, M. Ishida, T. Nakajima, Y. Honda, O. Kitao, H. Nakai, 
 T. Vreven, K. Throssell, J. A. Montgomery, Jr., J. E. Peralta, 
 F. Ogliaro, M. J. Bearpark, J. J. Heyd, E. N. Brothers, K. N. Kudin, 
 V. N. Staroverov, T. A. Keith, R. Kobayashi, J. Normand, 
 K. Raghavachari, A. P. Rendell, J. C. Burant, S. S. Iyengar, 
 J. Tomasi, M. Cossi, J. M. Millam, M. Klene, C. Adamo, R. Cammi, 
 J. W. Ochterski, R. L. Martin, K. Morokuma, O. Farkas, 
 J. B. Foresman, and D. J. Fox, Gaussian, Inc., Wallingford CT, 2016.
 
 ******************************************
 Gaussian 16:  ES64L-G16RevA.03 25-Dec-2016
                27-Mar-2018 
 ******************************************
 %mem=80GB
 %chk=tz.chk
 %cpu=0-31
 SetSPE:  set environment variable "MP_BIND" = "yes"
 SetSPE:  set environment variable "MP_BLIST" = "0,1,2,3,4,5,6,7,8,9,10,11,12,13,14,15,16,17,18,19,20,21,22,23,24,25,26,27,28,29,30,31"
 Will use up to   32 processors via shared memory.
 ----------------------------------------------------------------------
 #P ROCCSD(T)=(MaxCyc=150, Full)/Gen SCF=(maxcycle=400) Pseudo=Read Int
 egral(NoXCTest) Pop=Regular MaxDisk=500GB Guess=Read IOp(5/15=2)
 ----------------------------------------------------------------------
 1/38=1,172=1/1;
 2/12=2,17=6,18=5,40=1/2;
 3/5=7,11=2,16=1,17=8,25=1,30=1,47=8,116=101/1,2,3;
 4/5=1/1;
 5/5=2,7=400,15=2,38=6/2;
 8/5=-1,6=4,9=120000,10=90/1,4;
 9/5=7,6=150,14=2/13;
 6//1;
 99/5=1,9=1/99;
 Leave Link    1 at Tue Mar 27 23:11:15 2018, MaxMem= 10737418240 cpu:               8.2 elap:               0.3
 (Enter /home1/apps/gaussian/16rA.03/g16/l101.exe)
 --
 Ni
 --
 Symbolic Z-matrix:
 Charge =  0 Multiplicity = 3
 Ni                    0.        0.        0. 
 
 ITRead=  0
 MicOpt= -1
 NAtoms=      1 NQM=        1 NQMF=       0 NMMI=      0 NMMIF=      0
                NMic=       0 NMicF=      0.
                    Isotopes and Nuclear Properties:
 (Nuclear quadrupole moments (NQMom) in fm**2, nuclear magnetic moments (NMagM)
  in nuclear magnetons)

  Atom         1
 IAtWgt=          58
 AtmWgt=  57.9353471
 NucSpn=           0
 AtZEff=  -0.0000000
 NQMom=    0.0000000
 NMagM=    0.0000000
 AtZNuc=  28.0000000
 Leave Link  101 at Tue Mar 27 23:11:16 2018, MaxMem= 10737418240 cpu:               3.4 elap:               0.1
 (Enter /home1/apps/gaussian/16rA.03/g16/l202.exe)
                          Input orientation:                          
 ---------------------------------------------------------------------
 Center     Atomic      Atomic             Coordinates (Angstroms)
 Number     Number       Type             X           Y           Z
 ---------------------------------------------------------------------
      1         28           0        0.000000    0.000000    0.000000
 ---------------------------------------------------------------------
 Stoichiometry    Ni(3)
 Framework group  OH[O(Ni)]
 Deg. of freedom     0
 Full point group                 OH      NOp  48
 Largest Abelian subgroup         D2H     NOp   8
 Largest concise Abelian subgroup C1      NOp   1
                         Standard orientation:                         
 ---------------------------------------------------------------------
 Center     Atomic      Atomic             Coordinates (Angstroms)
 Number     Number       Type             X           Y           Z
 ---------------------------------------------------------------------
      1         28           0        0.000000    0.000000    0.000000
 ---------------------------------------------------------------------
 Leave Link  202 at Tue Mar 27 23:11:16 2018, MaxMem= 10737418240 cpu:               1.2 elap:               0.1
 (Enter /home1/apps/gaussian/16rA.03/g16/l301.exe)
 General basis read from cards:  (5D, 7F)
 Centers:       1
 S 1 1.00
     Exponent=  5.0459910000D+06 Coefficients=  1.0000000000D+00
 S 1 1.00
     Exponent=  7.5561420000D+05 Coefficients=  1.0000000000D+00
 S 1 1.00
     Exponent=  1.7195680000D+05 Coefficients=  1.0000000000D+00
 S 1 1.00
     Exponent=  4.8704790000D+04 Coefficients=  1.0000000000D+00
 S 1 1.00
     Exponent=  1.5888410000D+04 Coefficients=  1.0000000000D+00
 S 1 1.00
     Exponent=  5.7351230000D+03 Coefficients=  1.0000000000D+00
 S 1 1.00
     Exponent=  2.2361370000D+03 Coefficients=  1.0000000000D+00
 S 1 1.00
     Exponent=  9.2664680000D+02 Coefficients=  1.0000000000D+00
 S 1 1.00
     Exponent=  4.0317430000D+02 Coefficients=  1.0000000000D+00
 S 1 1.00
     Exponent=  1.8234760000D+02 Coefficients=  1.0000000000D+00
 S 1 1.00
     Exponent=  8.4548850000D+01 Coefficients=  1.0000000000D+00
 S 1 1.00
     Exponent=  3.8396340000D+01 Coefficients=  1.0000000000D+00
 S 1 1.00
     Exponent=  1.8458590000D+01 Coefficients=  1.0000000000D+00
 S 1 1.00
     Exponent=  8.8635480000D+00 Coefficients=  1.0000000000D+00
 S 1 1.00
     Exponent=  3.9162270000D+00 Coefficients=  1.0000000000D+00
 S 1 1.00
     Exponent=  1.8388700000D+00 Coefficients=  1.0000000000D+00
 S 1 1.00
     Exponent=  8.0436200000D-01 Coefficients=  1.0000000000D+00
 S 1 1.00
     Exponent=  1.6979700000D-01 Coefficients=  1.0000000000D+00
 S 1 1.00
     Exponent=  7.9306000000D-02 Coefficients=  1.0000000000D+00
 S 1 1.00
     Exponent=  3.4677000000D-02 Coefficients=  1.0000000000D+00
 S 1 1.00
     Exponent=  5.7408000000D+00 Coefficients=  1.0000000000D+00
 S 1 1.00
     Exponent=  1.5172000000D+00 Coefficients=  1.0000000000D+00
 S 1 1.00
     Exponent=  1.5160000000D-02 Coefficients=  1.0000000000D+00
 P 1 1.00
     Exponent=  2.1027920000D+04 Coefficients=  1.0000000000D+00
 P 1 1.00
     Exponent=  4.9775600000D+03 Coefficients=  1.0000000000D+00
 P 1 1.00
     Exponent=  1.6167400000D+03 Coefficients=  1.0000000000D+00
 P 1 1.00
     Exponent=  6.1867180000D+02 Coefficients=  1.0000000000D+00
 P 1 1.00
     Exponent=  2.6251830000D+02 Coefficients=  1.0000000000D+00
 P 1 1.00
     Exponent=  1.1969070000D+02 Coefficients=  1.0000000000D+00
 P 1 1.00
     Exponent=  5.7465850000D+01 Coefficients=  1.0000000000D+00
 P 1 1.00
     Exponent=  2.8528290000D+01 Coefficients=  1.0000000000D+00
 P 1 1.00
     Exponent=  1.4521480000D+01 Coefficients=  1.0000000000D+00
 P 1 1.00
     Exponent=  7.4538500000D+00 Coefficients=  1.0000000000D+00
 P 1 1.00
     Exponent=  3.7235530000D+00 Coefficients=  1.0000000000D+00
 P 1 1.00
     Exponent=  1.8098130000D+00 Coefficients=  1.0000000000D+00
 P 1 1.00
     Exponent=  8.5133600000D-01 Coefficients=  1.0000000000D+00
 P 1 1.00
     Exponent=  3.2481400000D-01 Coefficients=  1.0000000000D+00
 P 1 1.00
     Exponent=  1.1952200000D-01 Coefficients=  1.0000000000D+00
 P 1 1.00
     Exponent=  4.2366000000D-02 Coefficients=  1.0000000000D+00
 P 1 1.00
     Exponent=  8.6879000000D+00 Coefficients=  1.0000000000D+00
 P 1 1.00
     Exponent=  2.0080000000D+00 Coefficients=  1.0000000000D+00
 P 1 1.00
     Exponent=  1.5020000000D-02 Coefficients=  1.0000000000D+00
 D 1 1.00
     Exponent=  1.4025270000D+02 Coefficients=  1.0000000000D+00
 D 1 1.00
     Exponent=  4.1726100000D+01 Coefficients=  1.0000000000D+00
 D 1 1.00
     Exponent=  1.5398100000D+01 Coefficients=  1.0000000000D+00
 D 1 1.00
     Exponent=  6.2771000000D+00 Coefficients=  1.0000000000D+00
 D 1 1.00
     Exponent=  2.6185000000D+00 Coefficients=  1.0000000000D+00
 D 1 1.00
     Exponent=  1.0526000000D+00 Coefficients=  1.0000000000D+00
 D 1 1.00
     Exponent=  3.9160000000D-01 Coefficients=  1.0000000000D+00
 D 1 1.00
     Exponent=  1.2620000000D-01 Coefficients=  1.0000000000D+00
 D 1 1.00
     Exponent=  5.7882000000D+00 Coefficients=  1.0000000000D+00
 D 1 1.00
     Exponent=  2.7127000000D+00 Coefficients=  1.0000000000D+00
 D 1 1.00
     Exponent=  4.0670000000D-02 Coefficients=  1.0000000000D+00
 F 1 1.00
     Exponent=  8.0748000000D+00 Coefficients=  1.0000000000D+00
 F 1 1.00
     Exponent=  3.1196000000D+00 Coefficients=  1.0000000000D+00
 F 1 1.00
     Exponent=  1.1286000000D+00 Coefficients=  1.0000000000D+00
 F 1 1.00
     Exponent=  4.0830000000D-01 Coefficients=  1.0000000000D+00
 G 1 1.00
     Exponent=  7.3562000000D+00 Coefficients=  1.0000000000D+00
 G 1 1.00
     Exponent=  2.9771000000D+00 Coefficients=  1.0000000000D+00
 G 1 1.00
     Exponent=  1.2048500000D+00 Coefficients=  1.0000000000D+00
 ****
 ======================================================================================================
                                       Pseudopotential Parameters
 ======================================================================================================
  Center     Atomic      Valence      Angular      Power
  Number     Number     Electrons     Momentum     of R      Exponent        Coefficient   SO-Coeffient
 ======================================================================================================
    1         28           18
                                      D and up 
                                                     1       21.8180446       18.00000000    0.00000000
                                                     3       35.2110128      392.72480289    0.00000000
                                                     2       23.6992575     -150.77747349    0.00000000
                                                     2        9.0979779        0.87797910    0.00000000
                                      S - D
                                                     2       14.1241004       83.50736810    0.00000000
                                                     2       25.8110686      353.95993490    0.00000000
                                      P - D
                                                     2       10.0823891       44.99270171    0.00000000
                                                     2       37.6049913      268.79379402    0.00000000
 ======================================================================================================
 Ernie: Thresh=  0.10000D-02 Tol=  0.10000D-05 Strict=F.
 There are    74 symmetry adapted cartesian basis functions of AG  symmetry.
 There are    20 symmetry adapted cartesian basis functions of B1G symmetry.
 There are    20 symmetry adapted cartesian basis functions of B2G symmetry.
 There are    20 symmetry adapted cartesian basis functions of B3G symmetry.
 There are     4 symmetry adapted cartesian basis functions of AU  symmetry.
 There are    31 symmetry adapted cartesian basis functions of B1U symmetry.
 There are    31 symmetry adapted cartesian basis functions of B2U symmetry.
 There are    31 symmetry adapted cartesian basis functions of B3U symmetry.
 There are    54 symmetry adapted basis functions of AG  symmetry.
 There are    17 symmetry adapted basis functions of B1G symmetry.
 There are    17 symmetry adapted basis functions of B2G symmetry.
 There are    17 symmetry adapted basis functions of B3G symmetry.
 There are     4 symmetry adapted basis functions of AU  symmetry.
 There are    27 symmetry adapted basis functions of B1U symmetry.
 There are    27 symmetry adapted basis functions of B2U symmetry.
 There are    27 symmetry adapted basis functions of B3U symmetry.
   190 basis functions,   231 primitive gaussians,   231 cartesian basis functions
    10 alpha electrons        8 beta electrons
       nuclear repulsion energy         0.0000000000 Hartrees.
 IExCor=    0 DFT=F Ex=HF Corr=None ExCW=0 ScaHFX=  1.000000
 ScaDFX=  1.000000  1.000000  1.000000  1.000000 ScalE2=  1.000000  1.000000
 IRadAn=      5 IRanWt=     -1 IRanGd=            0 ICorTp=0 IEmpDi=  4
 NAtoms=    1 NActive=    1 NUniq=    1 SFac= 1.00D+00 NAtFMM=   60 NAOKFM=F Big=F
 Integral buffers will be    131072 words long.
 Raffenetti 2 integral format.
 Two-electron integral symmetry is turned on.
 Leave Link  301 at Tue Mar 27 23:11:17 2018, MaxMem= 10737418240 cpu:               6.7 elap:               0.2
 (Enter /home1/apps/gaussian/16rA.03/g16/l302.exe)
 NPDir=0 NMtPBC=     1 NCelOv=     1 NCel=       1 NClECP=     1 NCelD=      1
         NCelK=      1 NCelE2=     1 NClLst=     1 CellRange=     0.0.
 One-electron integrals computed using PRISM.
 One-electron integral symmetry used in STVInt
  48 Symmetry operations used in ECPInt.
 ECPInt:  NShTT=    1830 NPrTT=    1830 LenC2=    1831 LenP2D=    1830.
 LDataN:  DoStor=T MaxTD1= 8 Len=  415
 NBasis=   190 RedAO= T EigKep=  3.68D-06  NBF=    54    17    17    17     4    27    27    27
 NBsUse=   190 1.00D-06 EigRej= -1.00D+00 NBFU=    54    17    17    17     4    27    27    27
 Leave Link  302 at Tue Mar 27 23:11:19 2018, MaxMem= 10737418240 cpu:              44.6 elap:               1.5
 (Enter /home1/apps/gaussian/16rA.03/g16/l303.exe)
 DipDrv:  MaxL=1.
 Leave Link  303 at Tue Mar 27 23:11:19 2018, MaxMem= 10737418240 cpu:               2.3 elap:               0.1
 (Enter /home1/apps/gaussian/16rA.03/g16/l401.exe)
 Initial guess from the checkpoint file:  "tz.chk"
 B after Tr=     0.000000    0.000000    0.000000
         Rot=    1.000000    0.000000    0.000000    0.000000 Ang=   0.00 deg.
 Guess basis will be translated and rotated to current coordinates.
 JPrj=2 DoOrth=T DoCkMO=T.
 Initial guess orbital symmetries:
       Occupied  (A1G) (T1U) (T1U) (T1U) (?A) (?B) (?A) (?A) (?B)
                 (?B)
       Virtual   (?C) (?C) (?C) (A1G) (?C) (?C) (?C) (EG) (?B)
                 (?B) (?B) (EG) (A1G) (?C) (?C) (?C) (?A) (?B)
                 (?B) (?B) (?A) (?A) (?D) (?D) (?D) (?D) (?D) (?D)
                 (?D) (A2U) (?D) (?D) (?A) (?B) (?B) (?B) (?A)
                 (?A) (?E) (?E) (?E) (?E) (?E) (?E) (A2U) (?E)
                 (?E) (?E) (?A) (?F) (?F) (?A) (?F) (?F) (?F) (?A)
                 (?F) (?A) (?F) (?F) (?F) (?A) (T2G) (T1U) (T1U)
                 (T1U) (T2G) (T2G) (T2G) (T2G) (T2G) (?F) (?F)
                 (?F) (A2U) (?F) (?F) (?F) (T2G) (?F) (?F) (?F)
                 (T2G) (?F) (?F) (?F) (T2G) (T1U) (T1U) (T1U) (A1G)
                 (T2G) (T2G) (EG) (EG) (T2G) (?F) (?F) (?F) (?F)
                 (A2U) (?F) (?F) (T1U) (T1U) (T1U) (A1G) (T2G)
                 (?F) (?F) (?F) (T2G) (?F) (?F) (?F) (T2G) (T2G)
                 (T2G) (EG) (EG) (T2G) (T1U) (T1U) (T1U) (A1G)
                 (T2G) (T2G) (EG) (EG) (T2G) (T1U) (T1U) (T1U)
                 (A1G) (T1U) (T1U) (T1U) (T2G) (T2G) (EG) (EG)
                 (T2G) (A1G) (T1U) (T1U) (T1U) (A1G) (T2G) (T2G)
                 (EG) (EG) (T2G) (T1U) (T1U) (T1U) (A1G) (T1U)
                 (T1U) (T1U) (A1G) (T1U) (T1U) (T1U) (A1G) (T1U)
                 (T1U) (T1U) (A1G) (T1U) (T1U) (T1U) (A1G) (A1G)
                 (T1U) (T1U) (T1U) (A1G) (A1G) (A1G) (A1G)
 Leave Link  401 at Tue Mar 27 23:11:20 2018, MaxMem= 10737418240 cpu:               9.1 elap:               0.3
 (Enter /home1/apps/gaussian/16rA.03/g16/l502.exe)
 Keep R1 and R2 ints in memory in symmetry-blocked form, NReq=200881053.
 FoFCou: FMM=F IPFlag=           8 FMFlag=           0 FMFlg1=           0
         NFxFlg=           0 DoJE=F BraDBF=F KetDBF=F FulRan=T
         wScrn=  0.000000 ICntrl=       600 IOpCl=  0 I1Cent=           0 NGrid=           0
         NMat0=    1 NMatS0=  18145 NMatT0=    0 NMatD0=    1 NMtDS0=    0 NMtDT0=    0
 Petite list used in FoFCou.
 Restricted open shell SCF:
 Using DIIS extrapolation, IDIIS=  1040.
 NGot= 10737418240 LenX= 10694695884 LenY= 10694642082
 Requested convergence on RMS density matrix=1.00D-08 within 400 cycles.
 Requested convergence on MAX density matrix=1.00D-06.
 Requested convergence on             energy=1.00D-06.
 No special actions if energy rises.

 Cycle   1  Pass 1  IDiag  1:
 Density matrix breaks symmetry, PCut= 1.00D-07
 Density has only Abelian symmetry.
 E= -167.202041651236    
 DIIS: error= 1.72D+00 at cycle   1 NSaved=   1.
 NSaved= 1 IEnMin= 1 EnMin= -167.202041651236     IErMin= 1 ErrMin= 1.72D+00
 ErrMax= 1.72D+00  0.00D+00 EMaxC= 1.00D-01 BMatC= 1.20D+02 BMatP= 1.20D+02
 IDIUse=3 WtCom= 0.00D+00 WtEn= 1.00D+00
 Coeff-Com:  0.100D+01
 Coeff-En:   0.100D+01
 Coeff:      0.100D+01
 Gap=     0.093 Goal=   None    Shift=    0.000
 GapD=    0.093 DampG=0.500 DampE=0.125 DampFc=0.1250 IDamp=-1.
 Damping current iteration by 1.25D-01
 RMSDP=1.26D-02 MaxDP=4.32D-01              OVMax= 5.53D-02

 Cycle   2  Pass 1  IDiag  1:
 Density matrix breaks symmetry, PCut= 1.00D-07
 Density has only Abelian symmetry.
 E= -167.430813244454     Delta-E=       -0.228771593218 Rises=F Damp=T
 DIIS: error= 1.51D+00 at cycle   2 NSaved=   2.
 NSaved= 2 IEnMin= 2 EnMin= -167.430813244454     IErMin= 2 ErrMin= 1.51D+00
 ErrMax= 1.51D+00  0.00D+00 EMaxC= 1.00D-01 BMatC= 9.23D+01 BMatP= 1.20D+02
 IDIUse=3 WtCom= 0.00D+00 WtEn= 1.00D+00
 Coeff-Com: -0.702D+01 0.802D+01
 Coeff-En:   0.000D+00 0.100D+01
 Coeff:      0.000D+00 0.100D+01
 Gap=     0.157 Goal=   None    Shift=    0.000
 RMSDP=1.10D-02 MaxDP=3.77D-01 DE=-2.29D-01 OVMax= 2.79D-02

 Cycle   3  Pass 1  IDiag  1:
 Density matrix breaks symmetry, PCut= 1.00D-07
 Density has only Abelian symmetry.
 E= -169.056348622387     Delta-E=       -1.625535377933 Rises=F Damp=F
 DIIS: error= 2.41D-02 at cycle   3 NSaved=   3.
 NSaved= 3 IEnMin= 3 EnMin= -169.056348622387     IErMin= 3 ErrMin= 2.41D-02
 ErrMax= 2.41D-02  0.00D+00 EMaxC= 1.00D-01 BMatC= 2.91D-02 BMatP= 9.23D+01
 IDIUse=3 WtCom= 7.59D-01 WtEn= 2.41D-01
 Coeff-Com: -0.272D+00 0.299D+00 0.973D+00
 Coeff-En:   0.000D+00 0.000D+00 0.100D+01
 Coeff:     -0.206D+00 0.227D+00 0.979D+00
 Gap=     0.197 Goal=   None    Shift=    0.000
 RMSDP=4.02D-04 MaxDP=1.62D-02 DE=-1.63D+00 OVMax= 2.71D-02

 Cycle   4  Pass 1  IDiag  1:
 Density matrix breaks symmetry, PCut= 1.00D-07
 Density has only Abelian symmetry.
 E= -169.057136938659     Delta-E=       -0.000788316272 Rises=F Damp=F
 DIIS: error= 1.57D-02 at cycle   4 NSaved=   4.
 NSaved= 4 IEnMin= 4 EnMin= -169.057136938659     IErMin= 4 ErrMin= 1.57D-02
 ErrMax= 1.57D-02  0.00D+00 EMaxC= 1.00D-01 BMatC= 1.19D-02 BMatP= 2.91D-02
 IDIUse=3 WtCom= 8.43D-01 WtEn= 1.57D-01
 Coeff-Com: -0.544D+00 0.616D+00 0.365D+00 0.563D+00
 Coeff-En:   0.000D+00 0.000D+00 0.442D+00 0.558D+00
 Coeff:     -0.458D+00 0.519D+00 0.377D+00 0.562D+00
 Gap=     0.164 Goal=   None    Shift=    0.000
 RMSDP=2.73D-04 MaxDP=1.63D-02 DE=-7.88D-04 OVMax= 2.24D-02

 Cycle   5  Pass 1  IDiag  1:
 Density matrix breaks symmetry, PCut= 1.00D-07
 Density has only Abelian symmetry.
 E= -169.059856599816     Delta-E=       -0.002719661157 Rises=F Damp=F
 DIIS: error= 5.62D-03 at cycle   5 NSaved=   5.
 NSaved= 5 IEnMin= 5 EnMin= -169.059856599816     IErMin= 5 ErrMin= 5.62D-03
 ErrMax= 5.62D-03  0.00D+00 EMaxC= 1.00D-01 BMatC= 4.33D-04 BMatP= 1.19D-02
 IDIUse=3 WtCom= 9.44D-01 WtEn= 5.62D-02
 Coeff-Com: -0.389D+00 0.445D+00-0.742D-01 0.698D-01 0.949D+00
 Coeff-En:   0.000D+00 0.000D+00 0.000D+00 0.000D+00 0.100D+01
 Coeff:     -0.367D+00 0.420D+00-0.701D-01 0.658D-01 0.952D+00
 Gap=     0.167 Goal=   None    Shift=    0.000
 RMSDP=2.13D-04 MaxDP=2.06D-02 DE=-2.72D-03 OVMax= 1.74D-02

 Cycle   6  Pass 1  IDiag  1:
 Density matrix breaks symmetry, PCut= 1.00D-07
 Density has only Abelian symmetry.
 E= -169.059929829938     Delta-E=       -0.000073230122 Rises=F Damp=F
 DIIS: error= 3.54D-03 at cycle   6 NSaved=   6.
 NSaved= 6 IEnMin= 6 EnMin= -169.059929829938     IErMin= 6 ErrMin= 3.54D-03
 ErrMax= 3.54D-03  0.00D+00 EMaxC= 1.00D-01 BMatC= 2.76D-04 BMatP= 4.33D-04
 IDIUse=3 WtCom= 9.65D-01 WtEn= 3.54D-02
 Coeff-Com: -0.337D+00 0.385D+00-0.737D-01 0.292D-01 0.600D+00 0.396D+00
 Coeff-En:   0.000D+00 0.000D+00 0.000D+00 0.000D+00 0.435D+00 0.565D+00
 Coeff:     -0.325D+00 0.372D+00-0.711D-01 0.282D-01 0.594D+00 0.402D+00
 Gap=     0.168 Goal=   None    Shift=    0.000
 RMSDP=1.02D-04 MaxDP=9.18D-03 DE=-7.32D-05 OVMax= 9.80D-03

 Cycle   7  Pass 1  IDiag  1:
 Density matrix breaks symmetry, PCut= 1.00D-07
 Density has only Abelian symmetry.
 E= -169.060018266814     Delta-E=       -0.000088436876 Rises=F Damp=F
 DIIS: error= 3.41D-03 at cycle   7 NSaved=   7.
 NSaved= 7 IEnMin= 7 EnMin= -169.060018266814     IErMin= 7 ErrMin= 3.41D-03
 ErrMax= 3.41D-03  0.00D+00 EMaxC= 1.00D-01 BMatC= 1.69D-04 BMatP= 2.76D-04
 IDIUse=3 WtCom= 9.66D-01 WtEn= 3.41D-02
 Rare condition: small coef for last iteration:  0.000D+00
 Coeff-Com: -0.263D+00 0.300D+00-0.373D-01-0.504D-02-0.126D+00-0.740D-01
 Coeff-Com:  0.120D+01
 Coeff-En:   0.000D+00 0.000D+00 0.000D+00 0.000D+00 0.495D-01 0.242D+00
 Coeff-En:   0.709D+00
 Coeff:     -0.263D+00 0.300D+00-0.373D-01-0.504D-02-0.126D+00-0.740D-01
 Coeff:      0.120D+01
 Gap=     0.170 Goal=   None    Shift=    0.000
 RMSDP=7.01D-06 MaxDP=4.17D-04 DE=-8.84D-05 OVMax= 1.50D-03

 Cycle   8  Pass 1  IDiag  1:
 Density matrix breaks symmetry, PCut= 1.00D-07
 Density has only Abelian symmetry.
 E= -169.060042143642     Delta-E=       -0.000023876828 Rises=F Damp=F
 DIIS: error= 2.65D-03 at cycle   8 NSaved=   8.
 NSaved= 8 IEnMin= 8 EnMin= -169.060042143642     IErMin= 8 ErrMin= 2.65D-03
 ErrMax= 2.65D-03  0.00D+00 EMaxC= 1.00D-01 BMatC= 1.04D-04 BMatP= 1.69D-04
 IDIUse=3 WtCom= 9.73D-01 WtEn= 2.65D-02
 Coeff-Com: -0.211D+00 0.241D+00-0.289D-01 0.229D-02-0.106D+00-0.107D+00
 Coeff-Com:  0.257D+00 0.952D+00
 Coeff-En:   0.000D+00 0.000D+00 0.000D+00 0.000D+00 0.000D+00 0.125D+00
 Coeff-En:   0.000D+00 0.875D+00
 Coeff:     -0.205D+00 0.234D+00-0.281D-01 0.223D-02-0.103D+00-0.101D+00
 Coeff:      0.250D+00 0.950D+00
 Gap=     0.171 Goal=   None    Shift=    0.000
 RMSDP=1.35D-05 MaxDP=1.39D-03 DE=-2.39D-05 OVMax= 7.70D-04

 Cycle   9  Pass 1  IDiag  1:
 Density matrix breaks symmetry, PCut= 1.00D-07
 Density has only Abelian symmetry.
 E= -169.060052588060     Delta-E=       -0.000010444418 Rises=F Damp=F
 DIIS: error= 2.08D-03 at cycle   9 NSaved=   9.
 NSaved= 9 IEnMin= 9 EnMin= -169.060052588060     IErMin= 9 ErrMin= 2.08D-03
 ErrMax= 2.08D-03  0.00D+00 EMaxC= 1.00D-01 BMatC= 6.35D-05 BMatP= 1.04D-04
 IDIUse=3 WtCom= 9.79D-01 WtEn= 2.08D-02
 Coeff-Com: -0.331D-01 0.378D-01-0.740D-02 0.117D-01 0.879D-01 0.294D-01
 Coeff-Com: -0.554D+00-0.215D+01 0.358D+01
 Coeff-En:   0.000D+00 0.000D+00 0.000D+00 0.000D+00 0.000D+00 0.686D-01
 Coeff-En:   0.000D+00 0.000D+00 0.931D+00
 Coeff:     -0.324D-01 0.371D-01-0.725D-02 0.115D-01 0.861D-01 0.302D-01
 Coeff:     -0.542D+00-0.211D+01 0.353D+01
 Gap=     0.175 Goal=   None    Shift=    0.000
 RMSDP=2.80D-05 MaxDP=2.61D-03 DE=-1.04D-05 OVMax= 2.55D-03

 Cycle  10  Pass 1  IDiag  1:
 Density matrix breaks symmetry, PCut= 1.00D-07
 Density has only Abelian symmetry.
 E= -169.060069621240     Delta-E=       -0.000017033180 Rises=F Damp=F
 DIIS: error= 3.23D-04 at cycle  10 NSaved=  10.
 NSaved=10 IEnMin=10 EnMin= -169.060069621240     IErMin=10 ErrMin= 3.23D-04
 ErrMax= 3.23D-04  0.00D+00 EMaxC= 1.00D-01 BMatC= 1.55D-06 BMatP= 6.35D-05
 IDIUse=3 WtCom= 9.97D-01 WtEn= 3.23D-03
 Coeff-Com:  0.386D-02-0.442D-02 0.107D-02-0.224D-02-0.204D-01-0.454D-02
 Coeff-Com:  0.216D+00 0.192D+00-0.780D+00 0.140D+01
 Coeff-En:   0.000D+00 0.000D+00 0.000D+00 0.000D+00 0.000D+00 0.000D+00
 Coeff-En:   0.000D+00 0.000D+00 0.000D+00 0.100D+01
 Coeff:      0.385D-02-0.441D-02 0.107D-02-0.223D-02-0.203D-01-0.452D-02
 Coeff:      0.215D+00 0.192D+00-0.777D+00 0.140D+01
 Gap=     0.176 Goal=   None    Shift=    0.000
 RMSDP=7.30D-06 MaxDP=7.06D-04 DE=-1.70D-05 OVMax= 4.99D-04

 Cycle  11  Pass 1  IDiag  1:
 Density matrix breaks symmetry, PCut= 1.00D-07
 Density has only Abelian symmetry.
 E= -169.060070013250     Delta-E=       -0.000000392010 Rises=F Damp=F
 DIIS: error= 3.96D-05 at cycle  11 NSaved=  11.
 NSaved=11 IEnMin=11 EnMin= -169.060070013250     IErMin=11 ErrMin= 3.96D-05
 ErrMax= 3.96D-05  0.00D+00 EMaxC= 1.00D-01 BMatC= 2.30D-08 BMatP= 1.55D-06
 IDIUse=1 WtCom= 1.00D+00 WtEn= 0.00D+00
 Coeff-Com:  0.811D-03-0.926D-03 0.748D-04 0.252D-03 0.252D-02 0.120D-03
 Coeff-Com: -0.343D-01 0.243D-01 0.887D-01-0.330D+00 0.125D+01
 Coeff:      0.811D-03-0.926D-03 0.748D-04 0.252D-03 0.252D-02 0.120D-03
 Coeff:     -0.343D-01 0.243D-01 0.887D-01-0.330D+00 0.125D+01
 Gap=     0.176 Goal=   None    Shift=    0.000
 RMSDP=6.01D-07 MaxDP=5.09D-05 DE=-3.92D-07 OVMax= 4.47D-05

 Cycle  12  Pass 1  IDiag  1:
 Density matrix breaks symmetry, PCut= 1.00D-07
 Density has only Abelian symmetry.
 E= -169.060070019491     Delta-E=       -0.000000006241 Rises=F Damp=F
 DIIS: error= 8.30D-06 at cycle  12 NSaved=  12.
 NSaved=12 IEnMin=12 EnMin= -169.060070019491     IErMin=12 ErrMin= 8.30D-06
 ErrMax= 8.30D-06  0.00D+00 EMaxC= 1.00D-01 BMatC= 9.84D-10 BMatP= 2.30D-08
 IDIUse=1 WtCom= 1.00D+00 WtEn= 0.00D+00
 Coeff-Com: -0.356D-05 0.407D-05-0.189D-05-0.323D-05 0.953D-04 0.113D-03
 Coeff-Com:  0.267D-04-0.697D-02 0.864D-02 0.122D-01-0.122D+00 0.111D+01
 Coeff:     -0.356D-05 0.407D-05-0.189D-05-0.323D-05 0.953D-04 0.113D-03
 Coeff:      0.267D-04-0.697D-02 0.864D-02 0.122D-01-0.122D+00 0.111D+01
 Gap=     0.176 Goal=   None    Shift=    0.000
 RMSDP=1.47D-07 MaxDP=1.38D-05 DE=-6.24D-09 OVMax= 1.20D-05

 Cycle  13  Pass 1  IDiag  1:
 Density matrix breaks symmetry, PCut= 1.00D-07
 Density has only Abelian symmetry.
 E= -169.060070019762     Delta-E=       -0.000000000270 Rises=F Damp=F
 DIIS: error= 6.82D-08 at cycle  13 NSaved=  13.
 NSaved=13 IEnMin=13 EnMin= -169.060070019762     IErMin=13 ErrMin= 6.82D-08
 ErrMax= 6.82D-08  0.00D+00 EMaxC= 1.00D-01 BMatC= 7.38D-14 BMatP= 9.84D-10
 IDIUse=1 WtCom= 1.00D+00 WtEn= 0.00D+00
 Coeff-Com: -0.212D-04 0.243D-04-0.264D-05-0.407D-05-0.348D-04 0.776D-05
 Coeff-Com:  0.624D-03-0.847D-03-0.130D-02 0.745D-02-0.329D-01 0.597D-01
 Coeff-Com:  0.967D+00
 Coeff:     -0.212D-04 0.243D-04-0.264D-05-0.407D-05-0.348D-04 0.776D-05
 Coeff:      0.624D-03-0.847D-03-0.130D-02 0.745D-02-0.329D-01 0.597D-01
 Coeff:      0.967D+00
 Gap=     0.176 Goal=   None    Shift=    0.000
 RMSDP=6.88D-09 MaxDP=6.43D-07 DE=-2.70D-10 OVMax= 5.50D-07

 Density matrix breaks symmetry, PCut= 1.00D-07
 Density has only Abelian symmetry.
 SCF Done:  E(ROHF) =  -169.060070020     A.U. after   13 cycles
            NFock= 13  Conv=0.69D-08     -V/T= 2.5904
 <Sx>= 0.0000 <Sy>= 0.0000 <Sz>= 1.0000 <S**2>= 2.0000 S= 1.0000
 <L.S>=  0.00000000000    
 KE= 1.063005735044D+02 PE=-4.083050401937D+02 EE= 1.329443966696D+02
 Annihilation of the first spin contaminant:
 S**2 before annihilation     2.0000,   after     2.0000
 Leave Link  502 at Tue Mar 27 23:11:32 2018, MaxMem= 10737418240 cpu:             363.7 elap:              11.6
 (Enter /home1/apps/gaussian/16rA.03/g16/l801.exe)
 Windowed orbitals will be sorted by symmetry type.
 Density matrix breaks symmetry, PCut= 1.00D-07
 Density has only Abelian symmetry.
 GenMOA:  NOpAll= 48 NOp2=8 NOpUse=  8 JSym2X=1
 FoFJK:  IHMeth= 1 ICntrl=       0 DoSepK=F KAlg= 0 I1Cent=           0 FoldK=F
 IRaf=         0 NMat=       1 IRICut=       1 DoRegI=T DoRafI=F ISym2E= 1 IDoP0=0 IntGTp=1.
 FoFCou: FMM=F IPFlag=           8 FMFlag=      100000 FMFlg1=           0
         NFxFlg=           0 DoJE=F BraDBF=F KetDBF=F FulRan=T
         wScrn=  0.000000 ICntrl=         0 IOpCl=  1 I1Cent=           0 NGrid=           0
         NMat0=    1 NMatS0=      1 NMatT0=    0 NMatD0=    1 NMtDS0=    0 NMtDT0=    0
 Petite list used in FoFCou.
 <Sx>= 0.0000 <Sy>= 0.0000 <Sz>= 1.0000 <S**2>= 2.0000 S= 1.0000
 Range of M.O.s used for correlation:     1   190
 NBasis=   190 NAE=    10 NBE=     8 NFC=     0 NFV=     0
 NROrb=    190 NOA=    10 NOB=     8 NVA=   180 NVB=   182

 **** Warning!!: The largest alpha MO coefficient is  0.16581809D+03


 **** Warning!!: The largest beta MO coefficient is  0.16566227D+03

 Singles contribution to E2=   -0.6084878126D-02
 Leave Link  801 at Tue Mar 27 23:11:36 2018, MaxMem= 10737418240 cpu:              94.4 elap:               3.0
 (Enter /home1/apps/gaussian/16rA.03/g16/l804.exe)
 Open-shell transformation, MDV= 10737418240 ITran=4 ISComp=2.
 Unit  1 TFree=       1087334 TCopy=        991910.
 Semi-Direct transformation.
 ModeAB=           2 MOrb=            10 LenV=   10736177467
 LASXX=      4276431 LTotXX=     4276431 LenRXX=     4276431
 LTotAB=     4380873 MaxLAS=    50912400 LenRXY=    50912400
 NonZer=    52274700 LenScr=    79171584 LnRSAI=           0
 LnScr1=           0 LExtra=     4806281 Total=    139166696
 MaxDsk= 67108864000 SrtSym=           F ITran=            4
 DoSDTr:  NPSUse= 32
 JobTyp=1 Pass  1:  I=   1 to  10.
 (rs|ai) integrals will be sorted in core.
 Complete sort for first half transformation.
 First half transformation complete.
 Begin second half transformation for I=  10.
 Begin second half transformation for I=  10.
 Complete sort for second half transformation.
 Second half transformation complete.
 ModeAB=           2 MOrb=             8 LenV=   10736177467
 LASXX=      3494416 LTotXX=     3494416 LenRXX=    40729920
 LTotAB=     3211028 MaxLAS=    40729920 LenRXY=     3211028
 NonZer=    41819760 LenScr=    63493632 LnRSAI=           0
 LnScr1=           0 LExtra=    59995112 Total=    167429692
 MaxDsk= 67108864000 SrtSym=           F ITran=            4
 DoSDTr:  NPSUse= 32
 JobTyp=2 Pass  1:  I=   1 to   8.
 (rs|ai) integrals will be sorted in core.
 Complete sort for first half transformation.
 First half transformation complete.
 Complete sort for second half transformation.
 Second half transformation complete.
 Spin components of T(2) and E(2):
     alpha-alpha T2 =       0.1862448451D-01 E2=     -0.1557082021D+00
     alpha-beta  T2 =       0.8310159057D-01 E2=     -0.5877850247D+00
     beta-beta   T2 =       0.1140575178D-01 E2=     -0.9425245839D-01
 ANorm=    0.1055644076D+01
 E2 =    -0.8438305633D+00 EUMP2 =    -0.16990390058309D+03
 (S**2,0)=  0.20000D+01           (S**2,1)=  0.20000D+01
 E(PUHF)=      -0.16906007002D+03        E(PMP2)=      -0.16990390058D+03
 Leave Link  804 at Tue Mar 27 23:12:54 2018, MaxMem= 10737418240 cpu:            2503.7 elap:              78.3
 (Enter /home1/apps/gaussian/16rA.03/g16/l913.exe)
 CIDS:  MDV= 10737418240.
 IFCWin=0 IBDFC=1 NFBD=     0     0 NFCmp=     0     0 NFFFC=     0     0
 Using original routines for 1st iteration.
 Using DD4UQ or CC4UQ for 2nd and later iterations.
 Keep R2 and R3 ints in memory in symmetry-blocked form, NReq=200893775.
 FoFCou: FMM=F IPFlag=           8 FMFlag=           0 FMFlg1=           0
         NFxFlg=           0 DoJE=F BraDBF=F KetDBF=F FulRan=T
         wScrn=  0.000000 ICntrl=       600 IOpCl=  0 I1Cent=           0 NGrid=           0
         NMat0=    1 NMatS0=  18145 NMatT0=    0 NMatD0=    1 NMtDS0=    0 NMtDT0=    0
 Petite list used in FoFCou.
 CIDS: In Core Option IDoMem=           1.
 CCSD(T)
 =======
 Iterations= 150 Convergence= 0.100D-06
 Produce multiple copies of IABC intergrals
 Iteration Nr.   1
 **********************
 DD1Dir will call FoFMem   1 times, MxPair=       234
 NAB=    80 NAA=    45 NBB=    28.
 DD1Dir will call FoFMem   1 times, MxPair=       234
 NAB=    80 NAA=    45 NBB=    28.
 MP4(R+Q)= -0.53052006D-01
 Maximum subspace dimension=  5
 A-vector RMS=  1.3632936D-04 Max=  4.8951526D-03 conv= 1.00D-05.
 RLE energy=       -0.8395263563
 E3=        0.57302334D-01        EROMP3=      -0.16984659825D+03
 E4(SDQ)=  -0.33757754D-01        ROMP4(SDQ)=  -0.16988035600D+03
 VARIATIONAL ENERGIES WITH THE FIRST-ORDER WAVEFUNCTION:
 DE(Corr)= -0.83950366     E(Corr)=     -169.89957368    
 NORM(A)=   0.10526494D+01
 Iteration Nr.   2
 **********************
 DD1Dir will call FoFMem   1 times, MxPair=       234
 NAB=    80 NAA=    45 NBB=    28.
 A-vector RMS=  3.2667570D-03 Max=  3.1335612D-02 conv= 1.00D-05.
 RLE energy=       -0.8289895287
 DE(Corr)= -0.78014269     E(CORR)=     -169.84021271     Delta= 5.94D-02
 NORM(A)=   0.10520234D+01
 Iteration Nr.   3
 **********************
 DD1Dir will call FoFMem   1 times, MxPair=       234
 NAB=    80 NAA=    45 NBB=    28.
 A-vector RMS=  2.6595401D-03 Max=  2.7666442D-02 conv= 1.00D-05.
 RLE energy=       -0.8196686369
 DE(Corr)= -0.78565659     E(CORR)=     -169.84572661     Delta=-5.51D-03
 NORM(A)=   0.10559523D+01
 Iteration Nr.   4
 **********************
 DD1Dir will call FoFMem   1 times, MxPair=       234
 NAB=    80 NAA=    45 NBB=    28.
 A-vector RMS=  1.7093100D-03 Max=  1.6513719D-02 conv= 1.00D-05.
 RLE energy=       -0.8028046602
 DE(Corr)= -0.79563801     E(CORR)=     -169.85570803     Delta=-9.98D-03
 NORM(A)=   0.10731329D+01
 Iteration Nr.   5
 **********************
 DD1Dir will call FoFMem   1 times, MxPair=       234
 NAB=    80 NAA=    45 NBB=    28.
 A-vector RMS=  8.1143164D-04 Max=  6.5052659D-03 conv= 1.00D-05.
 RLE energy=       -0.8111157226
 DE(Corr)= -0.81671554     E(CORR)=     -169.87678556     Delta=-2.11D-02
 NORM(A)=   0.10678873D+01
 Iteration Nr.   6
 **********************
 DD1Dir will call FoFMem   1 times, MxPair=       234
 NAB=    80 NAA=    45 NBB=    28.
 A-vector RMS=  1.4379960D-04 Max=  3.2717712D-03 conv= 1.00D-05.
 RLE energy=       -0.8100357615
 DE(Corr)= -0.80901883     E(CORR)=     -169.86908885     Delta= 7.70D-03
 NORM(A)=   0.10694144D+01
 Iteration Nr.   7
 **********************
 DD1Dir will call FoFMem   1 times, MxPair=       234
 NAB=    80 NAA=    45 NBB=    28.
 A-vector RMS=  8.9827059D-05 Max=  1.6761329D-03 conv= 1.00D-05.
 RLE energy=       -0.8102720520
 DE(Corr)= -0.81030431     E(CORR)=     -169.87037433     Delta=-1.29D-03
 NORM(A)=   0.10697021D+01
 Iteration Nr.   8
 **********************
 DD1Dir will call FoFMem   1 times, MxPair=       234
 NAB=    80 NAA=    45 NBB=    28.
 A-vector RMS=  6.2408112D-05 Max=  7.1548572D-04 conv= 1.00D-05.
 RLE energy=       -0.8103364034
 DE(Corr)= -0.81038319     E(CORR)=     -169.87045321     Delta=-7.89D-05
 NORM(A)=   0.10696879D+01
 Iteration Nr.   9
 **********************
 DD1Dir will call FoFMem   1 times, MxPair=       234
 NAB=    80 NAA=    45 NBB=    28.
 A-vector RMS=  2.7127043D-05 Max=  3.7623002D-04 conv= 1.00D-05.
 RLE energy=       -0.8103757839
 DE(Corr)= -0.81031897     E(CORR)=     -169.87038899     Delta= 6.42D-05
 NORM(A)=   0.10697222D+01
 Iteration Nr.  10
 **********************
 DD1Dir will call FoFMem   1 times, MxPair=       234
 NAB=    80 NAA=    45 NBB=    28.
 A-vector RMS=  1.1130878D-05 Max=  1.3273655D-04 conv= 1.00D-05.
 RLE energy=       -0.8103291116
 DE(Corr)= -0.81036668     E(CORR)=     -169.87043670     Delta=-4.77D-05
 NORM(A)=   0.10696835D+01
 Iteration Nr.  11
 **********************
 DD1Dir will call FoFMem   1 times, MxPair=       234
 NAB=    80 NAA=    45 NBB=    28.
 A-vector RMS=  2.4221471D-06 Max=  2.6939397D-05 conv= 1.00D-05.
 RLE energy=       -0.8103513345
 DE(Corr)= -0.81035034     E(CORR)=     -169.87042036     Delta= 1.63D-05
 NORM(A)=   0.10696906D+01
 Iteration Nr.  12
 **********************
 DD1Dir will call FoFMem   1 times, MxPair=       234
 NAB=    80 NAA=    45 NBB=    28.
 A-vector RMS=  1.3264539D-06 Max=  1.5144052D-05 conv= 1.00D-05.
 RLE energy=       -0.8103467213
 DE(Corr)= -0.81034769     E(CORR)=     -169.87041771     Delta= 2.65D-06
 NORM(A)=   0.10696954D+01
 Iteration Nr.  13
 **********************
 DD1Dir will call FoFMem   1 times, MxPair=       234
 NAB=    80 NAA=    45 NBB=    28.
 A-vector RMS=  7.9643905D-07 Max=  8.5400775D-06 conv= 1.00D-05.
 RLE energy=       -0.8103505842
 DE(Corr)= -0.81035060     E(CORR)=     -169.87042061     Delta=-2.90D-06
 NORM(A)=   0.10696993D+01
 Iteration Nr.  14
 **********************
 DD1Dir will call FoFMem   1 times, MxPair=       234
 NAB=    80 NAA=    45 NBB=    28.
 A-vector RMS=  5.8228766D-07 Max=  1.0219966D-05 conv= 1.00D-05.
 RLE energy=       -0.8103513853
 DE(Corr)= -0.81035016     E(CORR)=     -169.87042018     Delta= 4.36D-07
 NORM(A)=   0.10697022D+01
 Iteration Nr.  15
 **********************
 DD1Dir will call FoFMem   1 times, MxPair=       234
 NAB=    80 NAA=    45 NBB=    28.
 A-vector RMS=  1.4629601D-07 Max=  4.7333429D-06 conv= 1.00D-05.
 RLE energy=       -0.8103513577
 DE(Corr)= -0.81035122     E(CORR)=     -169.87042124     Delta=-1.06D-06
 NORM(A)=   0.10697026D+01
 Iteration Nr.  16
 **********************
 DD1Dir will call FoFMem   1 times, MxPair=       234
 NAB=    80 NAA=    45 NBB=    28.
 A-vector RMS=  1.1544947D-07 Max=  3.6027781D-06 conv= 1.00D-05.
 RLE energy=       -0.8103516135
 DE(Corr)= -0.81035142     E(CORR)=     -169.87042144     Delta=-2.08D-07
 NORM(A)=   0.10697030D+01
 Iteration Nr.  17
 **********************
 DD1Dir will call FoFMem   1 times, MxPair=       234
 NAB=    80 NAA=    45 NBB=    28.
 A-vector RMS=  1.2874809D-07 Max=  2.3119811D-06 conv= 1.00D-05.
 RLE energy=       -0.8103515629
 DE(Corr)= -0.81035153     E(CORR)=     -169.87042155     Delta=-1.01D-07
 NORM(A)=   0.10697031D+01
 Iteration Nr.  18
 **********************
 DD1Dir will call FoFMem   1 times, MxPair=       234
 NAB=    80 NAA=    45 NBB=    28.
 A-vector RMS=  6.2032821D-08 Max=  1.1254451D-06 conv= 1.00D-05.
 RLE energy=       -0.8103516116
 DE(Corr)= -0.81035164     E(CORR)=     -169.87042166     Delta=-1.14D-07
 NORM(A)=   0.10697033D+01
 Iteration Nr.  19
 **********************
 DD1Dir will call FoFMem   1 times, MxPair=       234
 NAB=    80 NAA=    45 NBB=    28.
 A-vector RMS=  3.2517880D-08 Max=  4.7370867D-07 conv= 1.00D-05.
 RLE energy=       -0.8103516079
 DE(Corr)= -0.81035162     E(CORR)=     -169.87042164     Delta= 2.38D-08
 NORM(A)=   0.10697035D+01
 CI/CC converged in   19 iterations to DelEn= 2.38D-08 Conv= 1.00D-07 ErrA1= 3.25D-08 Conv= 1.00D-05
 Wavefunction amplitudes converged. E(Corr)=     -169.87042164    
 Largest amplitude= 5.88D-02
 Time for triples=    13659.62 seconds.
 T4(CCSD)= -0.28117758D-01
 T5(CCSD)=  0.17471253D-02
 CCSD(T)= -0.16989679227D+03
 Discarding MO integrals.
 Leave Link  913 at Tue Mar 27 23:21:23 2018, MaxMem= 10737418240 cpu:           16265.6 elap:             508.7
 (Enter /home1/apps/gaussian/16rA.03/g16/l601.exe)
 Copying SCF densities to generalized density rwf, IOpCl= 0 IROHF=1.
 SCF density gives NOpUse=  8 NOpAll= 48.
 Marking SCF density as not fully symmetric.

 **********************************************************************

            Population analysis using the SCF density.

 **********************************************************************

 Orbital symmetries:
       Occupied  (A1G) (T1U) (T1U) (T1U) (?A) (?A) (?B) (?A) (?B)
                 (?B)
       Virtual   (?C) (?C) (?C) (A1G) (?C) (?C) (?C) (EG) (T2G)
                 (T2G) (T2G) (EG) (A1G) (?C) (?C) (?C) (?A) (?B)
                 (?B) (?B) (?A) (?A) (?D) (?D) (?D) (?D) (?D) (?D)
                 (?D) (A2U) (?D) (?D) (?A) (?B) (?B) (?B) (?A)
                 (?A) (?E) (?E) (?E) (?E) (?E) (?E) (?E) (A2U)
                 (?E) (?E) (?A) (?F) (?F) (?A) (?F) (?F) (?F) (?A)
                 (?F) (?A) (?F) (?F) (?F) (?A) (T2G) (T1U) (T1U)
                 (T1U) (T2G) (T2G) (T2G) (T2G) (T2G) (?F) (?F)
                 (?F) (A2U) (?F) (?F) (?F) (T2G) (?F) (?F) (?F)
                 (T2G) (?F) (?F) (T2G) (?F) (T1U) (T1U) (T1U) (T2G)
                 (T2G) (T2G) (T2G) (T2G) (T2G) (?F) (?F) (?F) (?F)
                 (A2U) (?F) (?F) (T1U) (T1U) (T1U) (?F) (?F) (?F)
                 (?F) (?F) (?F) (?F) (?F) (?F) (?F) (?F) (?F) (?F)
                 (?F) (?F) (T1U) (T1U) (T1U) (T2G) (T2G) (T2G)
                 (T2G) (T2G) (T2G) (T1U) (T1U) (T1U) (T2G) (T2G)
                 (T2G) (T2G) (T2G) (T2G) (T1U) (T1U) (T1U) (A1G)
                 (T1U) (T1U) (T1U) (A1G) (T2G) (T2G) (EG) (EG)
                 (T2G) (T1U) (T1U) (T1U) (A1G) (T1U) (T1U) (T1U)
                 (A1G) (T1U) (T1U) (T1U) (A1G) (T1U) (T1U) (T1U)
                 (A1G) (T1U) (T1U) (T1U) (A1G) (A1G) (T1U) (T1U)
                 (T1U) (A1G) (A1G) (A1G) (A1G)
 Unable to determine electronic state:  an orbital has unidentified symmetry.
 Alpha  occ. eigenvalues --   -5.20152  -3.48788  -3.40354  -3.40354  -0.77041
 Alpha  occ. eigenvalues --   -0.77041  -0.73176  -0.68391  -0.68391  -0.28819
 Alpha virt. eigenvalues --    0.02243   0.02405   0.02405   0.03100   0.07652
 Alpha virt. eigenvalues --    0.08070   0.08070   0.12671   0.12671   0.12681
 Alpha virt. eigenvalues --    0.12759   0.12759   0.16524   0.28258   0.29015
 Alpha virt. eigenvalues --    0.29015   0.44425   0.44425   0.44660   0.45203
 Alpha virt. eigenvalues --    0.45203   0.58603   0.96937   0.98655   0.98655
 Alpha virt. eigenvalues --    1.41758   1.41758   1.41833   1.41841   1.41841
 Alpha virt. eigenvalues --    1.43158   1.43158   1.44625   1.44625   1.45703
 Alpha virt. eigenvalues --    1.47341   1.47341   2.26454   2.98509   3.01776
 Alpha virt. eigenvalues --    3.01776   4.07337   4.07337   4.07434   4.07434
 Alpha virt. eigenvalues --    4.07954   4.12031   4.12031   4.16167   4.16167
 Alpha virt. eigenvalues --    4.18270   4.20892   4.20892   5.27809   5.27809
 Alpha virt. eigenvalues --    5.28032   5.28032   5.28218   5.28521   5.28521
 Alpha virt. eigenvalues --    5.31915   5.31915   6.84461   7.46315   7.50965
 Alpha virt. eigenvalues --    7.50965   9.80341   9.80341   9.83086   9.86254
 Alpha virt. eigenvalues --    9.86254  10.60954  10.60954  10.61358  10.61358
 Alpha virt. eigenvalues --   10.62377  10.68858  10.68858  14.41684  14.41684
 Alpha virt. eigenvalues --   14.42398  14.42398  14.42862  14.42917  14.42917
 Alpha virt. eigenvalues --   14.49724  14.49724  15.68528  15.74210  15.74210
 Alpha virt. eigenvalues --   16.27879  19.89327  19.89327  19.92522  19.96026
 Alpha virt. eigenvalues --   19.96026  27.57263  27.57263  27.57696  27.57696
 Alpha virt. eigenvalues --   27.58721  27.65414  27.65414  30.30993  30.37474
 Alpha virt. eigenvalues --   30.37474  34.60825  35.73423  35.73423  35.74315
 Alpha virt. eigenvalues --   35.74315  35.74912  35.74923  35.74923  35.82956
 Alpha virt. eigenvalues --   35.82956  37.36662  37.36662  37.40267  37.44068
 Alpha virt. eigenvalues --   37.44068  56.38381  56.45237  56.45237  68.98586
 Alpha virt. eigenvalues --   68.98586  69.01847  69.05591  69.05591  72.93183
 Alpha virt. eigenvalues --  102.67301 102.73719 102.73719 158.02875 158.02875
 Alpha virt. eigenvalues --  158.04510 158.07257 158.07257 158.89487 190.33124
 Alpha virt. eigenvalues --  190.38050 190.38050 301.30010 358.33533 358.36717
 Alpha virt. eigenvalues --  358.36717 511.06047 535.04167 535.04167 535.04449
 Alpha virt. eigenvalues --  535.05602 535.05602 680.93689 680.95630 680.95630
 Alpha virt. eigenvalues --  913.644291347.200301347.211191347.211191754.42908
 Alpha virt. eigenvalues -- 2867.083272867.088602867.088603623.303336790.80228
 Alpha virt. eigenvalues -- 6790.804506790.804508055.83713********************
 Alpha virt. eigenvalues -- **************************************************
 Alpha virt. eigenvalues -- **************************************************
     Molecular Orbital Coefficients:
                           4         5         6         7         8
                       (T1U)--O      O         O         O         O
     Eigenvalues --    -3.40354  -0.77041  -0.77041  -0.73176  -0.68391
   1 1   Ni 1S          0.00000  -0.00000  -0.00000   0.00000   0.00000
   2        2S          0.00000   0.00000   0.00000   0.00000  -0.00000
   3        3S          0.00000  -0.00000  -0.00000   0.00000   0.00000
   4        4S          0.00000   0.00000   0.00000   0.00000  -0.00000
   5        5S          0.00000  -0.00000  -0.00000   0.00000   0.00000
   6        6S          0.00000   0.00000   0.00000   0.00000  -0.00001
   7        7S          0.00000  -0.00000  -0.00000   0.00000   0.00004
   8        8S          0.00000   0.00000   0.00000   0.00000  -0.00014
   9        9S          0.00000  -0.00000  -0.00000   0.00000   0.00043
  10       10S          0.00000   0.00001   0.00000   0.00000  -0.00130
  11       11S          0.00000  -0.00004  -0.00000   0.00000   0.00426
  12       12S          0.00000   0.00013   0.00000   0.00000  -0.01528
  13       13S          0.00000   0.00017   0.00000   0.00000   0.00087
  14       14S          0.00000  -0.00202  -0.00000   0.00000   0.15246
  15       15S          0.00000  -0.00136   0.00000   0.00000   0.00132
  16       16S          0.00000   0.00564   0.00000   0.00000  -0.26280
  17       17S          0.00000   0.00263   0.00000   0.00000  -0.22328
  18       18S          0.00000   0.00156   0.00000   0.00000   0.34282
  19       19S          0.00000  -0.00032   0.00000   0.00000   0.55640
  20       20S          0.00000   0.00026  -0.00000   0.00000   0.25582
  21       21S          0.00000   0.00154   0.00000   0.00000  -0.06999
  22       22S          0.00000  -0.00420   0.00000   0.00000   0.01991
  23       23S          0.00000  -0.00007   0.00000   0.00000  -0.00114
  24       24PX         0.00000   0.00000   0.00000   0.00000   0.00000
  25       24PY        -0.00000   0.00000   0.00000   0.00000   0.00000
  26       24PZ         0.00000   0.00000   0.00000   0.00000   0.00000
  27       25PX         0.00000   0.00000   0.00000   0.00000   0.00000
  28       25PY         0.00000   0.00000   0.00000   0.00000   0.00000
  29       25PZ         0.00000   0.00000   0.00000   0.00000   0.00000
  30       26PX         0.00000   0.00000   0.00000   0.00000   0.00000
  31       26PY        -0.00000   0.00000   0.00000   0.00000   0.00000
  32       26PZ         0.00000   0.00000   0.00000   0.00000   0.00000
  33       27PX         0.00000   0.00000   0.00000   0.00000   0.00000
  34       27PY         0.00001   0.00000   0.00000   0.00000   0.00000
  35       27PZ         0.00000   0.00000   0.00000   0.00000   0.00000
  36       28PX         0.00000   0.00000   0.00000   0.00000   0.00000
  37       28PY        -0.00001   0.00000   0.00000   0.00000   0.00000
  38       28PZ         0.00000   0.00000   0.00000   0.00000   0.00000
  39       29PX         0.00000   0.00000   0.00000   0.00000   0.00000
  40       29PY        -0.00018   0.00000   0.00000   0.00000   0.00000
  41       29PZ         0.00000   0.00000   0.00000   0.00000   0.00000
  42       30PX         0.00000   0.00000   0.00000   0.00000   0.00000
  43       30PY         0.00617   0.00000   0.00000   0.00000   0.00000
  44       30PZ         0.00000   0.00000   0.00000   0.00000   0.00000
  45       31PX         0.00000   0.00000   0.00000   0.00000   0.00000
  46       31PY        -0.04407   0.00000   0.00000   0.00000   0.00000
  47       31PZ         0.00000   0.00000   0.00000   0.00000   0.00000
  48       32PX         0.00000   0.00000   0.00000   0.00000   0.00000
  49       32PY         0.00008   0.00000   0.00000   0.00000   0.00000
  50       32PZ         0.00000   0.00000   0.00000   0.00000   0.00000
  51       33PX         0.00000   0.00000   0.00000   0.00000   0.00000
  52       33PY         0.15022   0.00000   0.00000   0.00000   0.00000
  53       33PZ         0.00000   0.00000   0.00000   0.00000   0.00000
  54       34PX         0.00000   0.00000   0.00000   0.00000   0.00000
  55       34PY         0.30876   0.00000   0.00000   0.00000   0.00000
  56       34PZ         0.00000   0.00000   0.00000   0.00000   0.00000
  57       35PX         0.00000   0.00000   0.00000   0.00000   0.00000
  58       35PY         0.35888   0.00000   0.00000   0.00000   0.00000
  59       35PZ         0.00000   0.00000   0.00000   0.00000   0.00000
  60       36PX         0.00000   0.00000   0.00000   0.00000   0.00000
  61       36PY         0.27458   0.00000   0.00000   0.00000   0.00000
  62       36PZ         0.00000   0.00000   0.00000   0.00000   0.00000
  63       37PX         0.00000   0.00000   0.00000   0.00000   0.00000
  64       37PY         0.03595   0.00000   0.00000   0.00000   0.00000
  65       37PZ         0.00000   0.00000   0.00000   0.00000   0.00000
  66       38PX         0.00000   0.00000   0.00000   0.00000   0.00000
  67       38PY        -0.00202   0.00000   0.00000   0.00000   0.00000
  68       38PZ         0.00000   0.00000   0.00000   0.00000   0.00000
  69       39PX         0.00000   0.00000   0.00000   0.00000   0.00000
  70       39PY         0.00122   0.00000   0.00000   0.00000   0.00000
  71       39PZ         0.00000   0.00000   0.00000   0.00000   0.00000
  72       40PX         0.00000   0.00000   0.00000   0.00000   0.00000
  73       40PY        -0.12719   0.00000   0.00000   0.00000   0.00000
  74       40PZ         0.00000   0.00000   0.00000   0.00000   0.00000
  75       41PX         0.00000   0.00000   0.00000   0.00000   0.00000
  76       41PY         0.10554   0.00000   0.00000   0.00000   0.00000
  77       41PZ         0.00000   0.00000   0.00000   0.00000   0.00000
  78       42PX         0.00000   0.00000   0.00000   0.00000   0.00000
  79       42PY        -0.00036   0.00000   0.00000   0.00000   0.00000
  80       42PZ         0.00000   0.00000   0.00000   0.00000   0.00000
  81       43D 0        0.00000  -0.00011  -0.00019   0.00000  -0.00000
  82       43D+1        0.00000   0.00000   0.00000  -0.00022   0.00000
  83       43D-1        0.00000   0.00000   0.00000   0.00000   0.00000
  84       43D+2        0.00000  -0.00019   0.00011   0.00000  -0.00000
  85       43D-2        0.00000   0.00000   0.00000   0.00000   0.00000
  86       44D 0        0.00000   0.00453   0.00778   0.00000   0.00003
  87       44D+1        0.00000   0.00000   0.00000   0.00898   0.00000
  88       44D-1        0.00000   0.00000   0.00000   0.00000   0.00000
  89       44D+2        0.00000   0.00785  -0.00449   0.00000   0.00004
  90       44D-2        0.00000   0.00000   0.00000   0.00000   0.00000
  91       45D 0        0.00000   0.05579   0.09570   0.00000   0.00030
  92       45D+1        0.00000   0.00000   0.00000   0.11050   0.00000
  93       45D-1        0.00000   0.00000   0.00000   0.00000   0.00000
  94       45D+2        0.00000   0.09662  -0.05525   0.00000   0.00051
  95       45D-2        0.00000   0.00000   0.00000   0.00000   0.00000
  96       46D 0        0.00000   0.09393   0.16035   0.00000   0.00039
  97       46D+1        0.00000   0.00000   0.00000   0.18516   0.00000
  98       46D-1        0.00000   0.00000   0.00000   0.00000   0.00000
  99       46D+2        0.00000   0.16269  -0.09258   0.00000   0.00068
 100       46D-2        0.00000   0.00000   0.00000   0.00000   0.00000
 101       47D 0        0.00000   0.23951   0.41336   0.00000   0.00181
 102       47D+1        0.00000   0.00000   0.00000   0.47731   0.00000
 103       47D-1        0.00000   0.00000   0.00000   0.00000   0.00000
 104       47D+2        0.00000   0.41485  -0.23865   0.00000   0.00314
 105       47D-2        0.00000   0.00000   0.00000   0.00000   0.00000
 106       48D 0        0.00000   0.18079   0.31151   0.00000   0.00037
 107       48D+1        0.00000   0.00000   0.00000   0.35970   0.00000
 108       48D-1        0.00000   0.00000   0.00000   0.00000   0.00000
 109       48D+2        0.00000   0.31314  -0.17985   0.00000   0.00065
 110       48D-2        0.00000   0.00000   0.00000   0.00000   0.00000
 111       49D 0        0.00000   0.10922   0.19741   0.00000  -0.00294
 112       49D+1        0.00000   0.00000   0.00000   0.22795   0.00000
 113       49D-1        0.00000   0.00000   0.00000   0.00000   0.00000
 114       49D+2        0.00000   0.18917  -0.11397   0.00000  -0.00510
 115       49D-2        0.00000   0.00000   0.00000   0.00000   0.00000
 116       50D 0        0.00000   0.02069   0.04301   0.00000  -0.00359
 117       50D+1        0.00000   0.00000   0.00000   0.04966   0.00000
 118       50D-1        0.00000   0.00000   0.00000   0.00000   0.00000
 119       50D+2        0.00000   0.03584  -0.02483   0.00000  -0.00622
 120       50D-2        0.00000   0.00000   0.00000   0.00000   0.00000
 121       51D 0        0.00000   0.03286   0.05692   0.00000   0.00037
 122       51D+1        0.00000   0.00000   0.00000   0.06572   0.00000
 123       51D-1        0.00000   0.00000   0.00000   0.00000   0.00000
 124       51D+2        0.00000   0.05691  -0.03286   0.00000   0.00063
 125       51D-2        0.00000   0.00000   0.00000   0.00000   0.00000
 126       52D 0        0.00000  -0.06018  -0.10653   0.00000  -0.00062
 127       52D+1        0.00000   0.00000   0.00000  -0.12301   0.00000
 128       52D-1        0.00000   0.00000   0.00000   0.00000   0.00000
 129       52D+2        0.00000  -0.10424   0.06151   0.00000  -0.00107
 130       52D-2        0.00000   0.00000   0.00000   0.00000   0.00000
 131       53D 0        0.00000  -0.00104  -0.00199   0.00000  -0.00055
 132       53D+1        0.00000   0.00000   0.00000  -0.00230   0.00000
 133       53D-1        0.00000   0.00000   0.00000   0.00000   0.00000
 134       53D+2        0.00000  -0.00179   0.00115   0.00000  -0.00096
 135       53D-2        0.00000   0.00000   0.00000   0.00000   0.00000
 136       54F 0        0.00000   0.00000   0.00000   0.00000   0.00000
 137       54F+1        0.00000   0.00000   0.00000   0.00000   0.00000
 138       54F-1       -0.00128   0.00000   0.00000   0.00000   0.00000
 139       54F+2        0.00000   0.00000   0.00000   0.00000   0.00000
 140       54F-2        0.00000   0.00000   0.00000   0.00000   0.00000
 141       54F+3        0.00000   0.00000   0.00000   0.00000   0.00000
 142       54F-3       -0.00165   0.00000   0.00000   0.00000   0.00000
 143       55F 0        0.00000   0.00000   0.00000   0.00000   0.00000
 144       55F+1        0.00000   0.00000   0.00000   0.00000   0.00000
 145       55F-1       -0.00325   0.00000   0.00000   0.00000   0.00000
 146       55F+2        0.00000   0.00000   0.00000   0.00000   0.00000
 147       55F-2        0.00000   0.00000   0.00000   0.00000   0.00000
 148       55F+3        0.00000   0.00000   0.00000   0.00000   0.00000
 149       55F-3       -0.00419   0.00000   0.00000   0.00000   0.00000
 150       56F 0        0.00000   0.00000   0.00000   0.00000   0.00000
 151       56F+1        0.00000   0.00000   0.00000   0.00000   0.00000
 152       56F-1       -0.00335   0.00000   0.00000   0.00000   0.00000
 153       56F+2        0.00000   0.00000   0.00000   0.00000   0.00000
 154       56F-2        0.00000   0.00000   0.00000   0.00000   0.00000
 155       56F+3        0.00000   0.00000   0.00000   0.00000   0.00000
 156       56F-3       -0.00432   0.00000   0.00000   0.00000   0.00000
 157       57F 0        0.00000   0.00000   0.00000   0.00000   0.00000
 158       57F+1        0.00000   0.00000   0.00000   0.00000   0.00000
 159       57F-1       -0.00066   0.00000   0.00000   0.00000   0.00000
 160       57F+2        0.00000   0.00000   0.00000   0.00000   0.00000
 161       57F-2        0.00000   0.00000   0.00000   0.00000   0.00000
 162       57F+3        0.00000   0.00000   0.00000   0.00000   0.00000
 163       57F-3       -0.00085   0.00000   0.00000   0.00000   0.00000
 164       58G 0        0.00000  -0.00026  -0.00014   0.00000  -0.00000
 165       58G+1        0.00000   0.00000   0.00000  -0.00009   0.00000
 166       58G-1        0.00000   0.00000   0.00000   0.00000   0.00000
 167       58G+2        0.00000  -0.00038  -0.00012   0.00000  -0.00000
 168       58G-2        0.00000   0.00000   0.00000   0.00000   0.00000
 169       58G+3        0.00000   0.00000   0.00000  -0.00023   0.00000
 170       58G-3        0.00000   0.00000   0.00000   0.00000   0.00000
 171       58G+4        0.00000  -0.00051   0.00016   0.00000  -0.00000
 172       58G-4        0.00000   0.00000   0.00000   0.00000   0.00000
 173       59G 0        0.00000  -0.00050  -0.00034   0.00000   0.00007
 174       59G+1        0.00000   0.00000   0.00000  -0.00022   0.00000
 175       59G-1        0.00000   0.00000   0.00000   0.00000   0.00000
 176       59G+2        0.00000  -0.00075  -0.00031   0.00000   0.00010
 177       59G-2        0.00000   0.00000   0.00000   0.00000   0.00000
 178       59G+3        0.00000   0.00000   0.00000  -0.00057   0.00000
 179       59G-3        0.00000   0.00000   0.00000   0.00000   0.00000
 180       59G+4        0.00000  -0.00099   0.00040   0.00000   0.00014
 181       59G-4        0.00000   0.00000   0.00000   0.00000   0.00000
 182       60G 0        0.00000  -0.00090  -0.00043   0.00000  -0.00005
 183       60G+1        0.00000   0.00000   0.00000  -0.00027   0.00000
 184       60G-1        0.00000   0.00000   0.00000   0.00000   0.00000
 185       60G+2        0.00000  -0.00135  -0.00038   0.00000  -0.00008
 186       60G-2        0.00000   0.00000   0.00000   0.00000   0.00000
 187       60G+3        0.00000   0.00000   0.00000  -0.00071   0.00000
 188       60G-3        0.00000   0.00000   0.00000   0.00000   0.00000
 189       60G+4        0.00000  -0.00178   0.00051   0.00000  -0.00010
 190       60G-4        0.00000   0.00000   0.00000   0.00000   0.00000
                           9        10        11        12        13
                           O         O         V         V         V
     Eigenvalues --    -0.68391  -0.28819   0.02243   0.02405   0.02405
   1 1   Ni 1S          0.00000   0.00000   0.00000   0.00000   0.00000
   2        2S          0.00000   0.00000   0.00000   0.00000   0.00000
   3        3S          0.00000   0.00000   0.00000   0.00000   0.00000
   4        4S          0.00000   0.00000   0.00000   0.00000   0.00000
   5        5S          0.00000   0.00000   0.00000   0.00000   0.00000
   6        6S          0.00000   0.00000   0.00000   0.00000   0.00000
   7        7S          0.00000   0.00000   0.00000   0.00000   0.00000
   8        8S          0.00000   0.00000   0.00000   0.00000   0.00000
   9        9S          0.00000   0.00000   0.00000   0.00000   0.00000
  10       10S          0.00000   0.00000   0.00000   0.00000   0.00000
  11       11S          0.00000   0.00000   0.00000   0.00000   0.00000
  12       12S          0.00000   0.00000   0.00000   0.00000   0.00000
  13       13S          0.00000   0.00000   0.00000   0.00000   0.00000
  14       14S          0.00000   0.00000   0.00000   0.00000   0.00000
  15       15S          0.00000   0.00000   0.00000   0.00000   0.00000
  16       16S          0.00000   0.00000   0.00000   0.00000   0.00000
  17       17S          0.00000   0.00000   0.00000   0.00000   0.00000
  18       18S          0.00000   0.00000   0.00000   0.00000   0.00000
  19       19S          0.00000   0.00000   0.00000   0.00000   0.00000
  20       20S          0.00000   0.00000   0.00000   0.00000   0.00000
  21       21S          0.00000   0.00000   0.00000   0.00000   0.00000
  22       22S          0.00000   0.00000   0.00000   0.00000   0.00000
  23       23S          0.00000   0.00000   0.00000   0.00000   0.00000
  24       24PX         0.00000   0.00000   0.00000   0.00000   0.00000
  25       24PY         0.00000   0.00000   0.00000   0.00000   0.00000
  26       24PZ         0.00000   0.00000   0.00000   0.00000   0.00000
  27       25PX         0.00000   0.00000   0.00000  -0.00000   0.00000
  28       25PY         0.00000   0.00000  -0.00000   0.00000   0.00000
  29       25PZ         0.00000   0.00000   0.00000   0.00000  -0.00000
  30       26PX         0.00000   0.00000   0.00000   0.00000   0.00000
  31       26PY         0.00000   0.00000   0.00000   0.00000   0.00000
  32       26PZ         0.00000   0.00000   0.00000   0.00000   0.00000
  33       27PX         0.00000   0.00000   0.00000  -0.00001   0.00000
  34       27PY         0.00000   0.00000  -0.00001   0.00000   0.00000
  35       27PZ         0.00000   0.00000   0.00000   0.00000  -0.00001
  36       28PX         0.00000   0.00000   0.00000   0.00003   0.00000
  37       28PY         0.00000   0.00000   0.00003   0.00000   0.00000
  38       28PZ         0.00000   0.00000   0.00000   0.00000   0.00003
  39       29PX         0.00000   0.00000   0.00000  -0.00010   0.00000
  40       29PY         0.00000   0.00000  -0.00009   0.00000   0.00000
  41       29PZ         0.00000   0.00000   0.00000   0.00000  -0.00010
  42       30PX         0.00000   0.00000   0.00000   0.00001   0.00000
  43       30PY         0.00000   0.00000  -0.00005   0.00000   0.00000
  44       30PZ         0.00000   0.00000   0.00000   0.00000   0.00001
  45       31PX         0.00000   0.00000   0.00000   0.00128   0.00000
  46       31PY         0.00000   0.00000   0.00163   0.00000   0.00000
  47       31PZ         0.00000   0.00000   0.00000   0.00000   0.00128
  48       32PX         0.00000   0.00000   0.00000   0.00633   0.00000
  49       32PY         0.00000   0.00000   0.00585   0.00000   0.00000
  50       32PZ         0.00000   0.00000   0.00000   0.00000   0.00633
  51       33PX         0.00000   0.00000   0.00000   0.04074   0.00000
  52       33PY         0.00000   0.00000   0.03578   0.00000   0.00000
  53       33PZ         0.00000   0.00000   0.00000   0.00000   0.04074
  54       34PX         0.00000   0.00000   0.00000  -0.05237   0.00000
  55       34PY         0.00000   0.00000  -0.05181   0.00000   0.00000
  56       34PZ         0.00000   0.00000   0.00000   0.00000  -0.05237
  57       35PX         0.00000   0.00000   0.00000  -0.23009   0.00000
  58       35PY         0.00000   0.00000  -0.21688   0.00000   0.00000
  59       35PZ         0.00000   0.00000   0.00000   0.00000  -0.23009
  60       36PX         0.00000   0.00000   0.00000   0.01552   0.00000
  61       36PY         0.00000   0.00000   0.01099   0.00000   0.00000
  62       36PZ         0.00000   0.00000   0.00000   0.00000   0.01552
  63       37PX         0.00000   0.00000   0.00000  -0.01202   0.00000
  64       37PY         0.00000   0.00000  -0.00419   0.00000   0.00000
  65       37PZ         0.00000   0.00000   0.00000   0.00000  -0.01202
  66       38PX         0.00000   0.00000   0.00000   0.20620   0.00000
  67       38PY         0.00000   0.00000   0.21549   0.00000   0.00000
  68       38PZ         0.00000   0.00000   0.00000   0.00000   0.20620
  69       39PX         0.00000   0.00000   0.00000  -0.09174   0.00000
  70       39PY         0.00000   0.00000  -0.05438   0.00000   0.00000
  71       39PZ         0.00000   0.00000   0.00000   0.00000  -0.09174
  72       40PX         0.00000   0.00000   0.00000  -0.03671   0.00000
  73       40PY         0.00000   0.00000  -0.03240   0.00000   0.00000
  74       40PZ         0.00000   0.00000   0.00000   0.00000  -0.03671
  75       41PX         0.00000   0.00000   0.00000   0.20147   0.00000
  76       41PY         0.00000   0.00000   0.18495   0.00000   0.00000
  77       41PZ         0.00000   0.00000   0.00000   0.00000   0.20147
  78       42PX         0.00000   0.00000   0.00000   0.99226   0.00000
  79       42PY         0.00000   0.00000   0.95681   0.00000   0.00000
  80       42PZ         0.00000   0.00000   0.00000   0.00000   0.99226
  81       43D 0        0.00000   0.00000   0.00000   0.00000   0.00000
  82       43D+1        0.00000   0.00000   0.00000   0.00000   0.00000
  83       43D-1        0.00000  -0.00022   0.00000   0.00000   0.00000
  84       43D+2        0.00000   0.00000   0.00000   0.00000   0.00000
  85       43D-2       -0.00022   0.00000   0.00000   0.00000   0.00000
  86       44D 0        0.00000   0.00000   0.00000   0.00000   0.00000
  87       44D+1        0.00000   0.00000   0.00000   0.00000   0.00000
  88       44D-1        0.00000   0.00915   0.00000   0.00000   0.00000
  89       44D+2        0.00000   0.00000   0.00000   0.00000   0.00000
  90       44D-2        0.00915   0.00000   0.00000   0.00000   0.00000
  91       45D 0        0.00000   0.00000   0.00000   0.00000   0.00000
  92       45D+1        0.00000   0.00000   0.00000   0.00000   0.00000
  93       45D-1        0.00000   0.11277   0.00000   0.00000   0.00000
  94       45D+2        0.00000   0.00000   0.00000   0.00000   0.00000
  95       45D-2        0.11277   0.00000   0.00000   0.00000   0.00000
  96       46D 0        0.00000   0.00000   0.00000   0.00000   0.00000
  97       46D+1        0.00000   0.00000   0.00000   0.00000   0.00000
  98       46D-1        0.00000   0.18925   0.00000   0.00000   0.00000
  99       46D+2        0.00000   0.00000   0.00000   0.00000   0.00000
 100       46D-2        0.18925   0.00000   0.00000   0.00000   0.00000
 101       47D 0        0.00000   0.00000   0.00000   0.00000   0.00000
 102       47D+1        0.00000   0.00000   0.00000   0.00000   0.00000
 103       47D-1        0.00000   0.49077   0.00000   0.00000   0.00000
 104       47D+2        0.00000   0.00000   0.00000   0.00000   0.00000
 105       47D-2        0.49077   0.00000   0.00000   0.00000   0.00000
 106       48D 0        0.00000   0.00000   0.00000   0.00000   0.00000
 107       48D+1        0.00000   0.00000   0.00000   0.00000   0.00000
 108       48D-1        0.00000   0.36289   0.00000   0.00000   0.00000
 109       48D+2        0.00000   0.00000   0.00000   0.00000   0.00000
 110       48D-2        0.36289   0.00000   0.00000   0.00000   0.00000
 111       49D 0        0.00000   0.00000   0.00000   0.00000   0.00000
 112       49D+1        0.00000   0.00000   0.00000   0.00000   0.00000
 113       49D-1        0.00000   0.20594   0.00000   0.00000   0.00000
 114       49D+2        0.00000   0.00000   0.00000   0.00000   0.00000
 115       49D-2        0.20594   0.00000   0.00000   0.00000   0.00000
 116       50D 0        0.00000   0.00000   0.00000   0.00000   0.00000
 117       50D+1        0.00000   0.00000   0.00000   0.00000   0.00000
 118       50D-1        0.00000   0.03297   0.00000   0.00000   0.00000
 119       50D+2        0.00000   0.00000   0.00000   0.00000   0.00000
 120       50D-2        0.03297   0.00000   0.00000   0.00000   0.00000
 121       51D 0        0.00000   0.00000   0.00000   0.00000   0.00000
 122       51D+1        0.00000   0.00000   0.00000   0.00000   0.00000
 123       51D-1        0.00000   0.06782   0.00000   0.00000   0.00000
 124       51D+2        0.00000   0.00000   0.00000   0.00000   0.00000
 125       51D-2        0.06782   0.00000   0.00000   0.00000   0.00000
 126       52D 0        0.00000   0.00000   0.00000   0.00000   0.00000
 127       52D+1        0.00000   0.00000   0.00000   0.00000   0.00000
 128       52D-1        0.00000  -0.12631   0.00000   0.00000   0.00000
 129       52D+2        0.00000   0.00000   0.00000   0.00000   0.00000
 130       52D-2       -0.12631   0.00000   0.00000   0.00000   0.00000
 131       53D 0        0.00000   0.00000   0.00000   0.00000   0.00000
 132       53D+1        0.00000   0.00000   0.00000   0.00000   0.00000
 133       53D-1        0.00000  -0.00165   0.00000   0.00000   0.00000
 134       53D+2        0.00000   0.00000   0.00000   0.00000   0.00000
 135       53D-2       -0.00165   0.00000   0.00000   0.00000   0.00000
 136       54F 0        0.00000   0.00000   0.00000   0.00000   0.00002
 137       54F+1        0.00000   0.00000   0.00000   0.00001   0.00000
 138       54F-1        0.00000   0.00000   0.00004   0.00000   0.00000
 139       54F+2        0.00000   0.00000   0.00000   0.00000   0.00003
 140       54F-2        0.00000   0.00000   0.00000   0.00000   0.00000
 141       54F+3        0.00000   0.00000   0.00000   0.00003   0.00000
 142       54F-3        0.00000   0.00000   0.00005   0.00000   0.00000
 143       55F 0        0.00000   0.00000   0.00000   0.00000   0.00007
 144       55F+1        0.00000   0.00000   0.00000   0.00003   0.00000
 145       55F-1        0.00000   0.00000   0.00003   0.00000   0.00000
 146       55F+2        0.00000   0.00000   0.00000   0.00000   0.00009
 147       55F-2        0.00000   0.00000   0.00000   0.00000   0.00000
 148       55F+3        0.00000   0.00000   0.00000   0.00011   0.00000
 149       55F-3        0.00000   0.00000   0.00004   0.00000   0.00000
 150       56F 0        0.00000   0.00000   0.00000   0.00000   0.00008
 151       56F+1        0.00000   0.00000   0.00000   0.00003   0.00000
 152       56F-1        0.00000   0.00000  -0.00002   0.00000   0.00000
 153       56F+2        0.00000   0.00000   0.00000   0.00000   0.00010
 154       56F-2        0.00000   0.00000   0.00000   0.00000   0.00000
 155       56F+3        0.00000   0.00000   0.00000   0.00013   0.00000
 156       56F-3        0.00000   0.00000  -0.00003   0.00000   0.00000
 157       57F 0        0.00000   0.00000   0.00000   0.00000  -0.00070
 158       57F+1        0.00000   0.00000   0.00000  -0.00029   0.00000
 159       57F-1        0.00000   0.00000  -0.00098   0.00000   0.00000
 160       57F+2        0.00000   0.00000   0.00000   0.00000  -0.00091
 161       57F-2        0.00000   0.00000   0.00000   0.00000   0.00000
 162       57F+3        0.00000   0.00000   0.00000  -0.00111   0.00000
 163       57F-3        0.00000   0.00000  -0.00126   0.00000   0.00000
 164       58G 0        0.00000   0.00000   0.00000   0.00000   0.00000
 165       58G+1        0.00000   0.00000   0.00000   0.00000   0.00000
 166       58G-1        0.00000  -0.00050   0.00000   0.00000   0.00000
 167       58G+2        0.00000   0.00000   0.00000   0.00000   0.00000
 168       58G-2       -0.00023   0.00000   0.00000   0.00000   0.00000
 169       58G+3        0.00000   0.00000   0.00000   0.00000   0.00000
 170       58G-3        0.00000  -0.00044   0.00000   0.00000   0.00000
 171       58G+4        0.00000   0.00000   0.00000   0.00000   0.00000
 172       58G-4       -0.00062   0.00000   0.00000   0.00000   0.00000
 173       59G 0        0.00000   0.00000   0.00000   0.00000   0.00000
 174       59G+1        0.00000   0.00000   0.00000   0.00000   0.00000
 175       59G-1        0.00000  -0.00104   0.00000   0.00000   0.00000
 176       59G+2        0.00000   0.00000   0.00000   0.00000   0.00000
 177       59G-2       -0.00049   0.00000   0.00000   0.00000   0.00000
 178       59G+3        0.00000   0.00000   0.00000   0.00000   0.00000
 179       59G-3        0.00000  -0.00092   0.00000   0.00000   0.00000
 180       59G+4        0.00000   0.00000   0.00000   0.00000   0.00000
 181       59G-4       -0.00130   0.00000   0.00000   0.00000   0.00000
 182       60G 0        0.00000   0.00000   0.00000   0.00000   0.00000
 183       60G+1        0.00000   0.00000   0.00000   0.00000   0.00000
 184       60G-1        0.00000  -0.00160   0.00000   0.00000   0.00000
 185       60G+2        0.00000   0.00000   0.00000   0.00000   0.00000
 186       60G-2       -0.00076   0.00000   0.00000   0.00000   0.00000
 187       60G+3        0.00000   0.00000   0.00000   0.00000   0.00000
 188       60G-3        0.00000  -0.00142   0.00000   0.00000   0.00000
 189       60G+4        0.00000   0.00000   0.00000   0.00000   0.00000
 190       60G-4       -0.00200   0.00000   0.00000   0.00000   0.00000
                          14        15
                       (A1G)--V      V
     Eigenvalues --     0.03100   0.07652
   1 1   Ni 1S          0.00000   0.00000
   2        2S         -0.00000   0.00000
   3        3S          0.00000   0.00000
   4        4S         -0.00000   0.00000
   5        5S          0.00000   0.00000
   6        6S         -0.00000   0.00000
   7        7S          0.00000   0.00000
   8        8S         -0.00001   0.00000
   9        9S          0.00004   0.00000
  10       10S         -0.00008   0.00000
  11       11S          0.00001   0.00000
  12       12S          0.00052   0.00000
  13       13S          0.00961   0.00000
  14       14S         -0.08815   0.00000
  15       15S         -0.19311   0.00000
  16       16S          0.63667   0.00000
  17       17S          0.22427   0.00000
  18       18S         -0.40076   0.00000
  19       19S          0.80708   0.00000
  20       20S         -2.29241   0.00000
  21       21S          0.16769   0.00000
  22       22S         -0.62139   0.00000
  23       23S          2.33507   0.00000
  24       24PX         0.00000   0.00000
  25       24PY         0.00000  -0.00000
  26       24PZ         0.00000   0.00000
  27       25PX         0.00000   0.00000
  28       25PY         0.00000   0.00000
  29       25PZ         0.00000   0.00000
  30       26PX         0.00000   0.00000
  31       26PY         0.00000  -0.00001
  32       26PZ         0.00000   0.00000
  33       27PX         0.00000   0.00000
  34       27PY         0.00000   0.00003
  35       27PZ         0.00000   0.00000
  36       28PX         0.00000   0.00000
  37       28PY         0.00000  -0.00010
  38       28PZ         0.00000   0.00000
  39       29PX         0.00000   0.00000
  40       29PY         0.00000   0.00037
  41       29PZ         0.00000   0.00000
  42       30PX         0.00000   0.00000
  43       30PY         0.00000  -0.00184
  44       30PZ         0.00000   0.00000
  45       31PX         0.00000   0.00000
  46       31PY         0.00000   0.00917
  47       31PZ         0.00000   0.00000
  48       32PX         0.00000   0.00000
  49       32PY         0.00000  -0.02124
  50       32PZ         0.00000   0.00000
  51       33PX         0.00000   0.00000
  52       33PY         0.00000  -0.19310
  53       33PZ         0.00000   0.00000
  54       34PX         0.00000   0.00000
  55       34PY         0.00000   0.07466
  56       34PZ         0.00000   0.00000
  57       35PX         0.00000   0.00000
  58       35PY         0.00000   0.65675
  59       35PZ         0.00000   0.00000
  60       36PX         0.00000   0.00000
  61       36PY         0.00000  -0.15938
  62       36PZ         0.00000   0.00000
  63       37PX         0.00000   0.00000
  64       37PY         0.00000   0.19105
  65       37PZ         0.00000   0.00000
  66       38PX         0.00000   0.00000
  67       38PY         0.00000  -0.04992
  68       38PZ         0.00000   0.00000
  69       39PX         0.00000   0.00000
  70       39PY         0.00000   1.40808
  71       39PZ         0.00000   0.00000
  72       40PX         0.00000   0.00000
  73       40PY         0.00000   0.16833
  74       40PZ         0.00000   0.00000
  75       41PX         0.00000   0.00000
  76       41PY         0.00000  -0.71894
  77       41PZ         0.00000   0.00000
  78       42PX         0.00000   0.00000
  79       42PY         0.00000  -1.14679
  80       42PZ         0.00000   0.00000
  81       43D 0        0.00000   0.00000
  82       43D+1        0.00000   0.00000
  83       43D-1        0.00000   0.00000
  84       43D+2        0.00000   0.00000
  85       43D-2        0.00000   0.00000
  86       44D 0       -0.00001   0.00000
  87       44D+1        0.00000   0.00000
  88       44D-1        0.00000   0.00000
  89       44D+2       -0.00001   0.00000
  90       44D-2        0.00000   0.00000
  91       45D 0       -0.00008   0.00000
  92       45D+1        0.00000   0.00000
  93       45D-1        0.00000   0.00000
  94       45D+2       -0.00015   0.00000
  95       45D-2        0.00000   0.00000
  96       46D 0       -0.00005   0.00000
  97       46D+1        0.00000   0.00000
  98       46D-1        0.00000   0.00000
  99       46D+2       -0.00009   0.00000
 100       46D-2        0.00000   0.00000
 101       47D 0       -0.00087   0.00000
 102       47D+1        0.00000   0.00000
 103       47D-1        0.00000   0.00000
 104       47D+2       -0.00150   0.00000
 105       47D-2        0.00000   0.00000
 106       48D 0       -0.00007   0.00000
 107       48D+1        0.00000   0.00000
 108       48D-1        0.00000   0.00000
 109       48D+2       -0.00011   0.00000
 110       48D-2        0.00000   0.00000
 111       49D 0        0.00073   0.00000
 112       49D+1        0.00000   0.00000
 113       49D-1        0.00000   0.00000
 114       49D+2        0.00127   0.00000
 115       49D-2        0.00000   0.00000
 116       50D 0        0.00095   0.00000
 117       50D+1        0.00000   0.00000
 118       50D-1        0.00000   0.00000
 119       50D+2        0.00164   0.00000
 120       50D-2        0.00000   0.00000
 121       51D 0       -0.00017   0.00000
 122       51D+1        0.00000   0.00000
 123       51D-1        0.00000   0.00000
 124       51D+2       -0.00029   0.00000
 125       51D-2        0.00000   0.00000
 126       52D 0        0.00054   0.00000
 127       52D+1        0.00000   0.00000
 128       52D-1        0.00000   0.00000
 129       52D+2        0.00094   0.00000
 130       52D-2        0.00000   0.00000
 131       53D 0       -0.00037   0.00000
 132       53D+1        0.00000   0.00000
 133       53D-1        0.00000   0.00000
 134       53D+2       -0.00064   0.00000
 135       53D-2        0.00000   0.00000
 136       54F 0        0.00000   0.00000
 137       54F+1        0.00000   0.00000
 138       54F-1        0.00000   0.00007
 139       54F+2        0.00000   0.00000
 140       54F-2        0.00000   0.00000
 141       54F+3        0.00000   0.00000
 142       54F-3        0.00000   0.00009
 143       55F 0        0.00000   0.00000
 144       55F+1        0.00000   0.00000
 145       55F-1        0.00000   0.00006
 146       55F+2        0.00000   0.00000
 147       55F-2        0.00000   0.00000
 148       55F+3        0.00000   0.00000
 149       55F-3        0.00000   0.00008
 150       56F 0        0.00000   0.00000
 151       56F+1        0.00000   0.00000
 152       56F-1        0.00000  -0.00005
 153       56F+2        0.00000   0.00000
[...]
 181       59G-4        0.00000   0.00000   0.00000   0.00000   0.00000
 182       60G 0       -0.00000   0.00000  -0.00000  -0.00000   0.00000
 183       60G+1        0.00000   0.00000  -0.00000  -0.00000   0.00000
 184       60G-1        0.00000  -0.00000  -0.00000   0.00000  -0.00000
 185       60G+2        0.00000  -0.00000   0.00000   0.00000  -0.00000
 186       60G-2        0.00000   0.00000   0.00000   0.00000   0.00000
 187       60G+3       -0.00000   0.00000   0.00000  -0.00000   0.00000
 188       60G-3        0.00000  -0.00000   0.00000   0.00000   0.00000
 189       60G+4       -0.00000   0.00000   0.00000  -0.00000   0.00000
 190       60G-4       -0.00000   0.00000  -0.00000   0.00000   0.00000
                         181       182       183       184       185
 181       59G-4        0.00000
 182       60G 0        0.00000   0.00000
 183       60G+1       -0.00000   0.00000   0.00000
 184       60G-1       -0.00000   0.00000   0.00000   0.00000
 185       60G+2       -0.00000  -0.00000   0.00000   0.00000   0.00000
 186       60G-2        0.00000   0.00000  -0.00000   0.00000   0.00000
 187       60G+3       -0.00000   0.00000  -0.00000  -0.00000   0.00000
 188       60G-3        0.00000   0.00000  -0.00000   0.00000   0.00000
 189       60G+4       -0.00000  -0.00000  -0.00000   0.00000   0.00000
 190       60G-4        0.00000   0.00000  -0.00000   0.00000   0.00000
                         186       187       188       189       190
 186       60G-2        0.00000
 187       60G+3       -0.00000   0.00000
 188       60G-3       -0.00000   0.00000   0.00000
 189       60G+4        0.00000  -0.00000   0.00000   0.00001
 190       60G-4       -0.00000  -0.00000   0.00000   0.00000   0.00000
     Gross orbital populations:
                         Total     Alpha     Beta      Spin
   1 1   Ni 1S         -0.00000  -0.00000  -0.00000  -0.00000
   2        2S          0.00000   0.00000   0.00000   0.00000
   3        3S         -0.00000  -0.00000  -0.00000  -0.00000
   4        4S          0.00000   0.00000   0.00000   0.00000
   5        5S         -0.00000  -0.00000  -0.00000  -0.00000
   6        6S          0.00000   0.00000   0.00000   0.00000
   7        7S         -0.00000  -0.00000  -0.00000  -0.00000
   8        8S          0.00000   0.00000   0.00000   0.00000
   9        9S         -0.00000  -0.00000  -0.00000   0.00000
  10       10S          0.00003   0.00002   0.00002   0.00000
  11       11S         -0.00037  -0.00019  -0.00019   0.00000
  12       12S          0.00530   0.00265   0.00265  -0.00000
  13       13S          0.00090   0.00045   0.00045   0.00000
  14       14S         -0.45659  -0.22829  -0.22829   0.00000
  15       15S         -0.03205  -0.01603  -0.01603   0.00000
  16       16S          1.80103   0.90052   0.90052  -0.00000
  17       17S          0.66277   0.33139   0.33139  -0.00000
  18       18S          0.53791   0.26896   0.26896  -0.00000
  19       19S          1.04055   0.52028   0.52028  -0.00000
  20       20S          0.45163   0.22581   0.22581  -0.00000
  21       21S          0.31534   0.15767   0.15767  -0.00000
  22       22S         -0.32516  -0.16258  -0.16258   0.00000
  23       23S         -0.00160  -0.00080  -0.00080   0.00000
  24       24PX        -0.00000  -0.00000  -0.00000   0.00000
  25       24PY        -0.00000  -0.00000  -0.00000  -0.00000
  26       24PZ        -0.00000  -0.00000  -0.00000  -0.00000
  27       25PX         0.00000   0.00000   0.00000   0.00000
  28       25PY         0.00000   0.00000   0.00000   0.00000
  29       25PZ         0.00000   0.00000   0.00000  -0.00000
  30       26PX        -0.00000  -0.00000  -0.00000   0.00000
  31       26PY        -0.00000  -0.00000  -0.00000   0.00000
  32       26PZ        -0.00000  -0.00000  -0.00000   0.00000
  33       27PX         0.00000   0.00000   0.00000  -0.00000
  34       27PY         0.00000   0.00000   0.00000  -0.00000
  35       27PZ         0.00000   0.00000   0.00000  -0.00000
  36       28PX        -0.00000  -0.00000  -0.00000   0.00000
  37       28PY        -0.00000  -0.00000  -0.00000   0.00000
  38       28PZ        -0.00000  -0.00000  -0.00000   0.00000
  39       29PX        -0.00001  -0.00000  -0.00000   0.00000
  40       29PY        -0.00001  -0.00000  -0.00000   0.00000
  41       29PZ        -0.00001  -0.00000  -0.00000   0.00000
  42       30PX         0.00073   0.00037   0.00037  -0.00000
  43       30PY         0.00073   0.00037   0.00037  -0.00000
  44       30PZ         0.00073   0.00037   0.00037  -0.00000
  45       31PX        -0.01406  -0.00703  -0.00703   0.00000
  46       31PY        -0.01405  -0.00703  -0.00703   0.00000
  47       31PZ        -0.01406  -0.00703  -0.00703   0.00000
  48       32PX         0.00021   0.00010   0.00010  -0.00000
  49       32PY         0.00006   0.00003   0.00003  -0.00000
  50       32PZ         0.00021   0.00010   0.00010  -0.00000
  51       33PX         0.18629   0.09314   0.09314  -0.00000
  52       33PY         0.18428   0.09214   0.09214  -0.00000
  53       33PZ         0.18629   0.09314   0.09314  -0.00000
  54       34PX         0.53867   0.26933   0.26933  -0.00000
  55       34PY         0.54160   0.27080   0.27080  -0.00000
  56       34PZ         0.53867   0.26933   0.26933  -0.00000
  57       35PX         0.69607   0.34804   0.34804  -0.00000
  58       35PY         0.70935   0.35467   0.35467  -0.00000
  59       35PZ         0.69607   0.34804   0.34804  -0.00000
  60       36PX         0.47716   0.23858   0.23858  -0.00000
  61       36PY         0.47306   0.23653   0.23653  -0.00000
  62       36PZ         0.47716   0.23858   0.23858  -0.00000
  63       37PX         0.03893   0.01947   0.01947  -0.00000
  64       37PY         0.03683   0.01841   0.01841  -0.00000
  65       37PZ         0.03893   0.01947   0.01947  -0.00000
  66       38PX        -0.00087  -0.00043  -0.00043   0.00000
  67       38PY        -0.00088  -0.00044  -0.00044   0.00000
  68       38PZ        -0.00087  -0.00043  -0.00043   0.00000
  69       39PX         0.00018   0.00009   0.00009  -0.00000
  70       39PY         0.00018   0.00009   0.00009  -0.00000
  71       39PZ         0.00018   0.00009   0.00009  -0.00000
  72       40PX        -0.14075  -0.07038  -0.07038   0.00000
  73       40PY        -0.13963  -0.06981  -0.06981   0.00000
  74       40PZ        -0.14075  -0.07038  -0.07038   0.00000
  75       41PX         0.21745   0.10872   0.10872  -0.00000
  76       41PY         0.20826   0.10413   0.10413  -0.00000
  77       41PZ         0.21745   0.10872   0.10872  -0.00000
  78       42PX        -0.00002  -0.00001  -0.00001   0.00000
  79       42PY        -0.00002  -0.00001  -0.00001   0.00000
  80       42PZ        -0.00002  -0.00001  -0.00001   0.00000
  81       43D 0       -0.00002  -0.00001  -0.00001   0.00000
  82       43D+1       -0.00002  -0.00001  -0.00001   0.00000
  83       43D-1       -0.00001  -0.00001  -0.00000  -0.00001
  84       43D+2       -0.00002  -0.00001  -0.00001   0.00000
  85       43D-2       -0.00001  -0.00001  -0.00000  -0.00001
  86       44D 0        0.00315   0.00158   0.00158  -0.00000
  87       44D+1        0.00314   0.00157   0.00157  -0.00000
  88       44D-1        0.00163   0.00163   0.00000   0.00163
  89       44D+2        0.00318   0.00159   0.00159  -0.00000
  90       44D-2        0.00163   0.00163   0.00000   0.00163
  91       45D 0        0.09506   0.04753   0.04753  -0.00000
  92       45D+1        0.09458   0.04729   0.04729  -0.00000
  93       45D-1        0.04933   0.04933   0.00000   0.04933
  94       45D+2        0.09600   0.04800   0.04800  -0.00000
  95       45D-2        0.04933   0.04933   0.00000   0.04933
  96       46D 0        0.26307   0.13153   0.13153  -0.00000
  97       46D+1        0.26151   0.13076   0.13076  -0.00000
  98       46D-1        0.13635   0.13635   0.00000   0.13635
  99       46D+2        0.26618   0.13309   0.13309  -0.00000
 100       46D-2        0.13635   0.13635   0.00000   0.13635
 101       47D 0        0.84594   0.42297   0.42297  -0.00000
 102       47D+1        0.84391   0.42196   0.42196  -0.00000
 103       47D-1        0.43943   0.43943   0.00000   0.43943
 104       47D+2        0.85000   0.42500   0.42500  -0.00000
 105       47D-2        0.43943   0.43943   0.00000   0.43943
 106       48D 0        0.61568   0.30784   0.30784  -0.00000
 107       48D+1        0.61525   0.30763   0.30763  -0.00000
 108       48D-1        0.30845   0.30845   0.00000   0.30845
 109       48D+2        0.61654   0.30827   0.30827  -0.00000
 110       48D-2        0.30845   0.30845   0.00000   0.30845
 111       49D 0        0.27186   0.13593   0.13593  -0.00000
 112       49D+1        0.27600   0.13800   0.13800  -0.00000
 113       49D-1        0.11922   0.11922   0.00000   0.11922
 114       49D+2        0.26357   0.13179   0.13179  -0.00000
 115       49D-2        0.11922   0.11922   0.00000   0.11922
 116       50D 0        0.02540   0.01270   0.01270  -0.00000
 117       50D+1        0.02675   0.01338   0.01338  -0.00000
 118       50D-1        0.00795   0.00795   0.00000   0.00795
 119       50D+2        0.02271   0.01136   0.01136  -0.00000
 120       50D-2        0.00795   0.00795   0.00000   0.00795
 121       51D 0        0.09602   0.04801   0.04801  -0.00000
 122       51D+1        0.09580   0.04790   0.04790  -0.00000
 123       51D-1        0.05041   0.05041   0.00000   0.05041
 124       51D+2        0.09646   0.04823   0.04823  -0.00000
 125       51D-2        0.05041   0.05041   0.00000   0.05041
 126       52D 0       -0.21577  -0.10788  -0.10788   0.00000
 127       52D+1       -0.21659  -0.10829  -0.10829   0.00000
 128       52D-1       -0.11268  -0.11268  -0.00000  -0.11268
 129       52D+2       -0.21412  -0.10706  -0.10706   0.00000
 130       52D-2       -0.11268  -0.11268  -0.00000  -0.11268
 131       53D 0       -0.00033  -0.00017  -0.00017   0.00000
 132       53D+1       -0.00035  -0.00018  -0.00018   0.00000
 133       53D-1       -0.00011  -0.00011  -0.00000  -0.00011
 134       53D+2       -0.00030  -0.00015  -0.00015   0.00000
 135       53D-2       -0.00011  -0.00011  -0.00000  -0.00011
 136       54F 0        0.00000   0.00000   0.00000  -0.00000
 137       54F+1        0.00000   0.00000   0.00000  -0.00000
 138       54F-1        0.00001   0.00000   0.00000  -0.00000
 139       54F+2        0.00000   0.00000   0.00000  -0.00000
 140       54F-2        0.00000   0.00000   0.00000  -0.00000
 141       54F+3        0.00000   0.00000   0.00000  -0.00000
 142       54F-3        0.00002   0.00001   0.00001  -0.00000
 143       55F 0        0.00000   0.00000   0.00000  -0.00000
 144       55F+1        0.00000   0.00000   0.00000  -0.00000
 145       55F-1        0.00004   0.00002   0.00002  -0.00000
 146       55F+2        0.00000   0.00000   0.00000  -0.00000
 147       55F-2        0.00000   0.00000   0.00000  -0.00000
 148       55F+3        0.00000   0.00000   0.00000  -0.00000
 149       55F-3        0.00007   0.00003   0.00003  -0.00000
 150       56F 0        0.00000   0.00000   0.00000  -0.00000
 151       56F+1        0.00000   0.00000   0.00000  -0.00000
 152       56F-1        0.00004   0.00002   0.00002  -0.00000
 153       56F+2        0.00001   0.00000   0.00000  -0.00000
 154       56F-2        0.00000   0.00000   0.00000  -0.00000
 155       56F+3        0.00001   0.00000   0.00000  -0.00000
 156       56F-3        0.00006   0.00003   0.00003  -0.00000
 157       57F 0        0.00000   0.00000   0.00000  -0.00000
 158       57F+1        0.00000   0.00000   0.00000  -0.00000
 159       57F-1        0.00000   0.00000   0.00000  -0.00000
 160       57F+2        0.00000   0.00000   0.00000  -0.00000
 161       57F-2        0.00000   0.00000   0.00000  -0.00000
 162       57F+3        0.00000   0.00000   0.00000  -0.00000
 163       57F-3        0.00001   0.00000   0.00000  -0.00000
 164       58G 0        0.00000   0.00000   0.00000  -0.00000
 165       58G+1        0.00000   0.00000   0.00000  -0.00000
 166       58G-1        0.00000   0.00000   0.00000   0.00000
 167       58G+2        0.00000   0.00000   0.00000  -0.00000
 168       58G-2        0.00000   0.00000   0.00000   0.00000
 169       58G+3        0.00000   0.00000   0.00000  -0.00000
 170       58G-3        0.00000   0.00000   0.00000   0.00000
 171       58G+4        0.00000   0.00000   0.00000  -0.00000
 172       58G-4        0.00000   0.00000   0.00000   0.00000
 173       59G 0        0.00000   0.00000   0.00000  -0.00000
 174       59G+1        0.00000   0.00000   0.00000  -0.00000
 175       59G-1        0.00000   0.00000   0.00000   0.00000
 176       59G+2        0.00000   0.00000   0.00000  -0.00000
 177       59G-2        0.00000   0.00000   0.00000   0.00000
 178       59G+3        0.00000   0.00000   0.00000  -0.00000
 179       59G-3        0.00000   0.00000   0.00000   0.00000
 180       59G+4        0.00001   0.00000   0.00000  -0.00000
 181       59G-4        0.00000   0.00000   0.00000   0.00000
 182       60G 0        0.00000   0.00000   0.00000  -0.00000
 183       60G+1        0.00000   0.00000   0.00000  -0.00000
 184       60G-1        0.00000   0.00000   0.00000   0.00000
 185       60G+2        0.00001   0.00000   0.00000  -0.00000
 186       60G-2        0.00000   0.00000   0.00000   0.00000
 187       60G+3        0.00000   0.00000   0.00000  -0.00000
 188       60G-3        0.00000   0.00000   0.00000   0.00000
 189       60G+4        0.00001   0.00001   0.00001  -0.00000
 190       60G-4        0.00001   0.00001   0.00000   0.00001
          Condensed to atoms (all electrons):
               1
     1  Ni  18.000000
          Atomic-Atomic Spin Densities.
               1
     1  Ni   2.000000
 Mulliken charges and spin densities:
               1          2
     1  Ni  -0.000000   2.000000
 Sum of Mulliken charges =  -0.00000   2.00000
 Mulliken charges and spin densities with hydrogens summed into heavy atoms:
               1          2
     1  Ni  -0.000000   2.000000
 Electronic spatial extent (au):  <R**2>=             36.7538
 Charge=             -0.0000 electrons
 Dipole moment (field-independent basis, Debye):
    X=              0.0000    Y=              0.0000    Z=              0.0000  Tot=              0.0000
 Quadrupole moment (field-independent basis, Debye-Ang):
   XX=            -16.5620   YY=            -16.3111   ZZ=            -16.5620
   XY=             -0.0000   XZ=             -0.0000   YZ=              0.0000
 Traceless Quadrupole moment (field-independent basis, Debye-Ang):
   XX=             -0.0836   YY=              0.1673   ZZ=             -0.0836
   XY=             -0.0000   XZ=             -0.0000   YZ=              0.0000
 Octapole moment (field-independent basis, Debye-Ang**2):
  XXX=              0.0000  YYY=              0.0000  ZZZ=              0.0000  XYY=              0.0000
  XXY=              0.0000  XXZ=              0.0000  XZZ=              0.0000  YZZ=              0.0000
  YYZ=              0.0000  XYZ=              0.0000
 Hexadecapole moment (field-independent basis, Debye-Ang**3):
 XXXX=            -33.2551 YYYY=            -34.0641 ZZZZ=            -33.2551 XXXY=              0.0000
 XXXZ=             -0.0000 YYYX=              0.0000 YYYZ=             -0.0000 ZZZX=             -0.0000
 ZZZY=             -0.0000 XXYY=            -11.1055 XXZZ=            -11.0850 YYZZ=            -11.1055
 XXYZ=             -0.0000 YYXZ=             -0.0000 ZZXY=              0.0000
 N-N= 0.000000000000D+00 E-N=-4.083050414970D+02  KE= 1.063005735044D+02
 Symmetry AG   KE= 4.186600226664D+01
 Symmetry B1G  KE= 9.074465366105D+00
 Symmetry B2G  KE= 1.747245613370D+01
 Symmetry B3G  KE= 9.074465096283D+00
 Symmetry AU   KE= 1.131742645347D-36
 Symmetry B1U  KE= 9.596174207940D+00
 Symmetry B2U  KE= 9.620836225447D+00
 Symmetry B3U  KE= 9.596174208260D+00
 Symmetry AG   SP=-1.216552186324D-15
 Symmetry B1G  SP= 1.000000000000D+00
 Symmetry B2G  SP=-3.464146729981D-16
 Symmetry B3G  SP= 1.000000000000D+00
 Symmetry AU   SP=-2.776201630276D-53
 Symmetry B1U  SP=-3.026243518395D-16
 Symmetry B2U  SP=-3.612886255514D-16
 Symmetry B3U  SP=-3.024673864992D-16
 Orbital energies and kinetic energies (alpha):
                                 1                 2
   4         (T1U)--O         -3.403545          4.810418
   5         O                -0.770408          8.889029
   6         O                -0.770408          8.736228
   7         O                -0.731761          8.736228
   8         O                -0.683906          0.400770
   9         O                -0.683906          9.074465
  10         O                -0.288194          9.074465
  11         V                 0.022433          0.070195
  12         V                 0.024053          0.063060
  13         V                 0.024053          0.063060
  14         (A1G)--V          0.030996          0.052792
  15         V                 0.076525          0.213520
 Total kinetic energy from orbitals= 1.244495039671D+02
                          Isotropic Fermi Contact Couplings
        Atom                 a.u.       MegaHertz       Gauss      10(-4) cm-1
     1  Ni(61)            -0.00000       0.00000       0.00000       0.00000
 --------------------------------------------------------
       Center         ----  Spin Dipole Couplings  ----
                      3XX-RR        3YY-RR        3ZZ-RR
 --------------------------------------------------------
     1   Atom       -1.812782      3.625564     -1.812782
 --------------------------------------------------------
                        XY            XZ            YZ
 --------------------------------------------------------
     1   Atom        0.000000      0.000000      0.000000
 --------------------------------------------------------


 ---------------------------------------------------------------------------------
              Anisotropic Spin Dipole Couplings in Principal Axis System
 ---------------------------------------------------------------------------------

       Atom             a.u.   MegaHertz   Gauss  10(-4) cm-1        Axes

              Baa    -1.8128    86.582    30.895    28.881  0.0000  0.0000  1.0000
     1 Ni(61) Bbb    -1.8128    86.582    30.895    28.881  1.0000  0.0000  0.0000
              Bcc     3.6256  -173.164   -61.789   -57.761 -0.0000  1.0000  0.0000
 

 ---------------------------------------------------------------------------------

 No NMR shielding tensors so no spin-rotation constants.
 Leave Link  601 at Tue Mar 27 23:21:26 2018, MaxMem= 10737418240 cpu:              86.1 elap:               2.8
 (Enter /home1/apps/gaussian/16rA.03/g16/l9999.exe)

 Test job not archived.
 1\1\GINC-C470-121\SP\ROCCSD(T)-Full\Gen\Ni1(3)\GWANG18\27-Mar-2018\0\\
 #P ROCCSD(T)=(MaxCyc=150, Full)/Gen SCF=(maxcycle=400) Pseudo=Read Int
 egral(NoXCTest) Pop=Regular MaxDisk=500GB Guess=Read IOp(5/15=2)\\Ni\\
 0,3\Ni,0,0.,0.,0.\\Version=ES64L-G16RevA.03\HF=-169.06007\MP2=-169.903
 9006\MP3=-169.8465982\PUHF=-169.06007\PMP2-0=-169.9039006\MP4SDQ=-169.
 880356\CCSD=-169.8704216\CCSD(T)=-169.8967923\RMSD=6.876e-09\PG=OH [O(
 Ni1)]\\@


 TERENCE, THIS IS STUPID STUFF:
 YOU EAT YOUR VICTUALS FAST ENOUGH;
 THERE CAN'T BE MUCH AMISS, 'TIS CLEAR
 TO SEE THE RATE YOU DRINK YOUR BEER.
 BUT OH, GOOD LORD, THE VERSE YOU MAKE,
 IT GIVES A CHAP THE BELLY-ACHE.
 THE COW, THE OLD COW, SHE IS DEAD;
 IT SLEEPS WELL, THE HORNED HEAD:
 WE POOR LADS, 'TIS OUR TURN NOW
 TO HEAR SUCH TUNES AS KILLED THE COW.
 PRETTY FRIENDSHIP 'TIS TO RHYME
 YOUR FRIENDS TO DEATH BEFORE THEIR TIME.
 MOPING, MELANCHOLY MAD:
 COME PIPE A TUNE TO DANCE TO, LAD.

     -- A. E. HOUSMAN
 Job cpu time:       0 days  5 hours 23 minutes 14.9 seconds.
 Elapsed time:       0 days  0 hours 10 minutes  7.2 seconds.
 File lengths (MBytes):  RWF=   1425 Int=      0 D2E=      0 Chk=      5 Scr=      1
 Normal termination of Gaussian 16 at Tue Mar 27 23:21:27 2018.
