 Entering Gaussian System, Link 0=g16
 Initial command:
 /home1/apps/gaussian/16rA.03/g16/l1.exe "/tmp/Gau-167605.inp" -scrdir="/tmp/"
 Entering Link 1 = /home1/apps/gaussian/16rA.03/g16/l1.exe PID=    167606.
  
 Copyright (c) 1988,1990,1992,1993,1995,1998,2003,2009,2016,
            Gaussian, Inc.  All Rights Reserved.
  
 This is part of the Gaussian(R) 16 program.  It is based on
 the Gaussian(R) 09 system (copyright 2009, Gaussian, Inc.),
 the Gaussian(R) 03 system (copyright 2003, Gaussian, Inc.),
 the Gaussian(R) 98 system (copyright 1998, Gaussian, Inc.),
 the Gaussian(R) 94 system (copyright 1995, Gaussian, Inc.),
 the Gaussian 92(TM) system (copyright 1992, Gaussian, Inc.),
 the Gaussian 90(TM) system (copyright 1990, Gaussian, Inc.),
 the Gaussian 88(TM) system (copyright 1988, Gaussian, Inc.),
 the Gaussian 86(TM) system (copyright 1986, Carnegie Mellon
 University), and the Gaussian 82(TM) system (copyright 1983,
 Carnegie Mellon University). Gaussian is a federally registered
 trademark of Gaussian, Inc.
  
 This software contains proprietary and confidential information,
 including trade secrets, belonging to Gaussian, Inc.
  
 This software is provided under written license and may be
 used, copied, transmitted, or stored only in accord with that
 written license.
  
 The following legend is applicable only to US Government
 contracts under FAR:
  
                    RESTRICTED RIGHTS LEGEND
  
 Use, reproduction and disclosure by the US Government is
 subject to restrictions as set forth in subparagraphs (a)
 and (c) of the Commercial Computer Software - Restricted
 Rights clause in FAR 52.227-19.
  
 Gaussian, Inc.
 340 Quinnipiac St., Bldg. 40, Wallingford CT 06492
  
  
 ---------------------------------------------------------------
 Warning -- This program may not be used in any manner that
 competes with the business of Gaussian, Inc. or will provide
 assistance to any competitor of Gaussian, Inc.  The licensee
 of this program is prohibited from giving any competitor of
 Gaussian, Inc. access to this program.  By using this program,
 the user acknowledges that Gaussian, Inc. is engaged in the
 business of creating and licensing software in the field of
 computational chemistry and represents and warrants to the
 licensee that it is not a competitor of Gaussian, Inc. and that
 it will not use this program in any manner prohibited above.
 ---------------------------------------------------------------
  

 Cite this work as:
 Gaussian 16, Revision A.03,
 M. J. Frisch, G. W. Trucks, H. B. Schlegel, G. E. Scuseria, 
 M. A. Robb, J. R. Cheeseman, G. Scalmani, V. Barone, 
 G. A. Petersson, H. Nakatsuji, X. Li, M. Caricato, A. V. Marenich, 
 J. Bloino, B. G. Janesko, R. Gomperts, B. Mennucci, H. P. Hratchian, 
 J. V. Ortiz, A. F. Izmaylov, J. L. Sonnenberg, D. Williams-Young, 
 F. Ding, F. Lipparini, F. Egidi, J. Goings, B. Peng, A. Petrone, 
 T. Henderson, D. Ranasinghe, V. G. Zakrzewski, J. Gao, N. Rega, 
 G. Zheng, W. Liang, M. Hada, M. Ehara, K. Toyota, R. Fukuda, 
 J. Hasegawa, M. Ishida, T. Nakajima, Y. Honda, O. Kitao, H. Nakai, 
 T. Vreven, K. Throssell, J. A. Montgomery, Jr., J. E. Peralta, 
 F. Ogliaro, M. J. Bearpark, J. J. Heyd, E. N. Brothers, K. N. Kudin, 
 V. N. Staroverov, T. A. Keith, R. Kobayashi, J. Normand, 
 K. Raghavachari, A. P. Rendell, J. C. Burant, S. S. Iyengar, 
 J. Tomasi, M. Cossi, J. M. Millam, M. Klene, C. Adamo, R. Cammi, 
 J. W. Ochterski, R. L. Martin, K. Morokuma, O. Farkas, 
 J. B. Foresman, and D. J. Fox, Gaussian, Inc., Wallingford CT, 2016.
 
 ******************************************
 Gaussian 16:  ES64L-G16RevA.03 25-Dec-2016
                27-Mar-2018 
 ******************************************
 %mem=80GB
 %cpu=0-31
 SetSPE:  set environment variable "MP_BIND" = "yes"
 SetSPE:  set environment variable "MP_BLIST" = "0,1,2,3,4,5,6,7,8,9,10,11,12,13,14,15,16,17,18,19,20,21,22,23,24,25,26,27,28,29,30,31"
 Will use up to   32 processors via shared memory.
 %chk=qz.chk
 %rwf=/scratch/04843/gwang18/zno/
 ----------------------------------------------------------------------
 #P ROCCSD(T)=(MaxCyc=150, Full)/Gen SCF=(maxcycle=400) Pseudo=Read Int
 egral(NoXCTest) Pop=Regular MaxDisk=500GB Guess=Read IOp(5/15=2)
 ----------------------------------------------------------------------
 1/38=1,172=1/1;
 2/12=2,17=6,18=5,40=1/2;
 3/5=7,11=2,16=1,17=8,25=1,30=1,47=8,116=101/1,2,3;
 4/5=1/1;
 5/5=2,7=400,15=2,38=6/2;
 8/5=-1,6=4,9=120000,10=90/1,4;
 9/5=7,6=150,14=2/13;
 6//1;
 99/5=1,9=1/99;
 Leave Link    1 at Tue Mar 27 11:37:46 2018, MaxMem= 10737418240 cpu:               6.3 elap:               0.2
 (Enter /home1/apps/gaussian/16rA.03/g16/l101.exe)
 ---
 ZnO
 ---
 Symbolic Z-matrix:
 Charge =  0 Multiplicity = 1
 Zn                    0.        0.        0. 
 O                     0.        0.        1.4 
 
 ITRead=  0  0
 MicOpt= -1 -1
 NAtoms=      2 NQM=        2 NQMF=       0 NMMI=      0 NMMIF=      0
                NMic=       0 NMicF=      0.
                    Isotopes and Nuclear Properties:
 (Nuclear quadrupole moments (NQMom) in fm**2, nuclear magnetic moments (NMagM)
  in nuclear magnetons)

  Atom         1           2
 IAtWgt=          64          16
 AtmWgt=  63.9291454  15.9949146
 NucSpn=           0           0
 AtZEff=  -0.0000000  -0.0000000
 NQMom=    0.0000000   0.0000000
 NMagM=    0.0000000   0.0000000
 AtZNuc=  30.0000000   8.0000000
 Leave Link  101 at Tue Mar 27 11:37:46 2018, MaxMem= 10737418240 cpu:               3.1 elap:               0.1
 (Enter /home1/apps/gaussian/16rA.03/g16/l202.exe)
                          Input orientation:                          
 ---------------------------------------------------------------------
 Center     Atomic      Atomic             Coordinates (Angstroms)
 Number     Number       Type             X           Y           Z
 ---------------------------------------------------------------------
      1         30           0        0.000000    0.000000    0.000000
      2          8           0        0.000000    0.000000    1.400000
 ---------------------------------------------------------------------
 Stoichiometry    OZn
 Framework group  C*V[C*(OZn)]
 Deg. of freedom     1
 Full point group                 C*V     NOp   4
 Largest Abelian subgroup         C2V     NOp   4
 Largest concise Abelian subgroup C1      NOp   1
                         Standard orientation:                         
 ---------------------------------------------------------------------
 Center     Atomic      Atomic             Coordinates (Angstroms)
 Number     Number       Type             X           Y           Z
 ---------------------------------------------------------------------
      1         30           0        0.000000    0.000000    0.294737
      2          8           0        0.000000    0.000000   -1.105263
 ---------------------------------------------------------------------
 Rotational constants (GHZ):           0.0000000          20.1538416          20.1538416
 Leave Link  202 at Tue Mar 27 11:37:46 2018, MaxMem= 10737418240 cpu:               0.8 elap:               0.1
 (Enter /home1/apps/gaussian/16rA.03/g16/l301.exe)
 General basis read from cards:  (5D, 7F)
 Centers:       1
 S 1 1.00
     Exponent=  1.7852930000D+07 Coefficients=  1.0000000000D+00
 S 1 1.00
     Exponent=  2.6730380000D+06 Coefficients=  1.0000000000D+00
 S 1 1.00
     Exponent=  6.0832440000D+05 Coefficients=  1.0000000000D+00
 S 1 1.00
     Exponent=  1.7231760000D+05 Coefficients=  1.0000000000D+00
 S 1 1.00
     Exponent=  5.6222690000D+04 Coefficients=  1.0000000000D+00
 S 1 1.00
     Exponent=  2.0299850000D+04 Coefficients=  1.0000000000D+00
 S 1 1.00
     Exponent=  7.9188710000D+03 Coefficients=  1.0000000000D+00
 S 1 1.00
     Exponent=  3.2853400000D+03 Coefficients=  1.0000000000D+00
 S 1 1.00
     Exponent=  1.4335240000D+03 Coefficients=  1.0000000000D+00
 S 1 1.00
     Exponent=  6.5228890000D+02 Coefficients=  1.0000000000D+00
 S 1 1.00
     Exponent=  3.0743600000D+02 Coefficients=  1.0000000000D+00
 S 1 1.00
     Exponent=  1.4914660000D+02 Coefficients=  1.0000000000D+00
 S 1 1.00
     Exponent=  7.3451080000D+01 Coefficients=  1.0000000000D+00
 S 1 1.00
     Exponent=  3.3925620000D+01 Coefficients=  1.0000000000D+00
 S 1 1.00
     Exponent=  1.7189470000D+01 Coefficients=  1.0000000000D+00
 S 1 1.00
     Exponent=  8.6665950000D+00 Coefficients=  1.0000000000D+00
 S 1 1.00
     Exponent=  3.9725050000D+00 Coefficients=  1.0000000000D+00
 S 1 1.00
     Exponent=  1.8946650000D+00 Coefficients=  1.0000000000D+00
 S 1 1.00
     Exponent=  8.5938500000D-01 Coefficients=  1.0000000000D+00
 S 1 1.00
     Exponent=  1.9525600000D-01 Coefficients=  1.0000000000D+00
 S 1 1.00
     Exponent=  8.5854000000D-02 Coefficients=  1.0000000000D+00
 S 1 1.00
     Exponent=  3.6781000000D-02 Coefficients=  1.0000000000D+00
 S 1 1.00
     Exponent=  8.3276000000D+00 Coefficients=  1.0000000000D+00
 S 1 1.00
     Exponent=  3.4194000000D+00 Coefficients=  1.0000000000D+00
 S 1 1.00
     Exponent=  1.5760000000D-02 Coefficients=  1.0000000000D+00
 P 1 1.00
     Exponent=  5.2867930000D+04 Coefficients=  1.0000000000D+00
 P 1 1.00
     Exponent=  1.2511790000D+04 Coefficients=  1.0000000000D+00
 P 1 1.00
     Exponent=  4.0652860000D+03 Coefficients=  1.0000000000D+00
 P 1 1.00
     Exponent=  1.5575950000D+03 Coefficients=  1.0000000000D+00
 P 1 1.00
     Exponent=  6.6328920000D+02 Coefficients=  1.0000000000D+00
 P 1 1.00
     Exponent=  3.0415610000D+02 Coefficients=  1.0000000000D+00
 P 1 1.00
     Exponent=  1.4736800000D+02 Coefficients=  1.0000000000D+00
 P 1 1.00
     Exponent=  7.4454690000D+01 Coefficients=  1.0000000000D+00
 P 1 1.00
     Exponent=  3.8714930000D+01 Coefficients=  1.0000000000D+00
 P 1 1.00
     Exponent=  2.0570220000D+01 Coefficients=  1.0000000000D+00
 P 1 1.00
     Exponent=  1.1054250000D+01 Coefficients=  1.0000000000D+00
 P 1 1.00
     Exponent=  5.8746610000D+00 Coefficients=  1.0000000000D+00
 P 1 1.00
     Exponent=  3.0529360000D+00 Coefficients=  1.0000000000D+00
 P 1 1.00
     Exponent=  1.5472250000D+00 Coefficients=  1.0000000000D+00
 P 1 1.00
     Exponent=  7.5415100000D-01 Coefficients=  1.0000000000D+00
 P 1 1.00
     Exponent=  2.6534900000D-01 Coefficients=  1.0000000000D+00
 P 1 1.00
     Exponent=  1.0206700000D-01 Coefficients=  1.0000000000D+00
 P 1 1.00
     Exponent=  3.8755000000D-02 Coefficients=  1.0000000000D+00
 P 1 1.00
     Exponent=  1.2535700000D+01 Coefficients=  1.0000000000D+00
 P 1 1.00
     Exponent=  3.4227000000D+00 Coefficients=  1.0000000000D+00
 P 1 1.00
     Exponent=  1.4720000000D-02 Coefficients=  1.0000000000D+00
 D 1 1.00
     Exponent=  6.3978060000D+02 Coefficients=  1.0000000000D+00
 D 1 1.00
     Exponent=  1.9267420000D+02 Coefficients=  1.0000000000D+00
 D 1 1.00
     Exponent=  7.4843680000D+01 Coefficients=  1.0000000000D+00
 D 1 1.00
     Exponent=  3.2860480000D+01 Coefficients=  1.0000000000D+00
 D 1 1.00
     Exponent=  1.5393530000D+01 Coefficients=  1.0000000000D+00
 D 1 1.00
     Exponent=  7.5255120000D+00 Coefficients=  1.0000000000D+00
 D 1 1.00
     Exponent=  3.7154290000D+00 Coefficients=  1.0000000000D+00
 D 1 1.00
     Exponent=  1.8064590000D+00 Coefficients=  1.0000000000D+00
 D 1 1.00
     Exponent=  8.5297300000D-01 Coefficients=  1.0000000000D+00
 D 1 1.00
     Exponent=  3.8478000000D-01 Coefficients=  1.0000000000D+00
 D 1 1.00
     Exponent=  1.5933700000D-01 Coefficients=  1.0000000000D+00
 D 1 1.00
     Exponent=  9.2094000000D+00 Coefficients=  1.0000000000D+00
 D 1 1.00
     Exponent=  5.2262000000D+00 Coefficients=  1.0000000000D+00
 D 1 1.00
     Exponent=  6.5980000000D-02 Coefficients=  1.0000000000D+00
 F 1 1.00
     Exponent=  1.3235500000D+01 Coefficients=  1.0000000000D+00
 F 1 1.00
     Exponent=  5.6706000000D+00 Coefficients=  1.0000000000D+00
 F 1 1.00
     Exponent=  2.4295000000D+00 Coefficients=  1.0000000000D+00
 F 1 1.00
     Exponent=  8.5300000000D-01 Coefficients=  1.0000000000D+00
 F 1 1.00
     Exponent=  2.9949000000D-01 Coefficients=  1.0000000000D+00
 G 1 1.00
     Exponent=  1.0790200000D+01 Coefficients=  1.0000000000D+00
 G 1 1.00
     Exponent=  4.9368000000D+00 Coefficients=  1.0000000000D+00
 G 1 1.00
     Exponent=  2.0693000000D+00 Coefficients=  1.0000000000D+00
 G 1 1.00
     Exponent=  8.6736000000D-01 Coefficients=  1.0000000000D+00
 H 1 1.00
     Exponent=  9.6086000000D+00 Coefficients=  1.0000000000D+00
 H 1 1.00
     Exponent=  4.4136000000D+00 Coefficients=  1.0000000000D+00
 H 1 1.00
     Exponent=  2.0273400000D+00 Coefficients=  1.0000000000D+00
 ****
 Centers:       2
 S 1 1.00
     Exponent=  6.1420000000D+04 Coefficients=  1.0000000000D+00
 S 1 1.00
     Exponent=  9.1990000000D+03 Coefficients=  1.0000000000D+00
 S 1 1.00
     Exponent=  2.0910000000D+03 Coefficients=  1.0000000000D+00
 S 1 1.00
     Exponent=  5.9090000000D+02 Coefficients=  1.0000000000D+00
 S 1 1.00
     Exponent=  1.9230000000D+02 Coefficients=  1.0000000000D+00
 S 1 1.00
     Exponent=  6.9320000000D+01 Coefficients=  1.0000000000D+00
 S 1 1.00
     Exponent=  2.6970000000D+01 Coefficients=  1.0000000000D+00
 S 1 1.00
     Exponent=  1.1100000000D+01 Coefficients=  1.0000000000D+00
 S 1 1.00
     Exponent=  4.6820000000D+00 Coefficients=  1.0000000000D+00
 S 1 1.00
     Exponent=  1.4280000000D+00 Coefficients=  1.0000000000D+00
 S 1 1.00
     Exponent=  5.5470000000D-01 Coefficients=  1.0000000000D+00
 S 1 1.00
     Exponent=  2.0670000000D-01 Coefficients=  1.0000000000D+00
 S 1 1.00
     Exponent=  1.2974000000D+01 Coefficients=  1.0000000000D+00
 S 1 1.00
     Exponent=  3.4900000000D+01 Coefficients=  1.0000000000D+00
 S 1 1.00
     Exponent=  9.3881000000D+01 Coefficients=  1.0000000000D+00
 S 1 1.00
     Exponent=  6.9590000000D-02 Coefficients=  1.0000000000D+00
 P 1 1.00
     Exponent=  6.3420000000D+01 Coefficients=  1.0000000000D+00
 P 1 1.00
     Exponent=  1.4660000000D+01 Coefficients=  1.0000000000D+00
 P 1 1.00
     Exponent=  4.4590000000D+00 Coefficients=  1.0000000000D+00
 P 1 1.00
     Exponent=  1.5310000000D+00 Coefficients=  1.0000000000D+00
 P 1 1.00
     Exponent=  5.3020000000D-01 Coefficients=  1.0000000000D+00
 P 1 1.00
     Exponent=  1.7500000000D-01 Coefficients=  1.0000000000D+00
 P 1 1.00
     Exponent=  1.4475000000D+01 Coefficients=  1.0000000000D+00
 P 1 1.00
     Exponent=  4.2730000000D+01 Coefficients=  1.0000000000D+00
 P 1 1.00
     Exponent=  1.2614000000D+02 Coefficients=  1.0000000000D+00
 P 1 1.00
     Exponent=  5.3480000000D-02 Coefficients=  1.0000000000D+00
 D 1 1.00
     Exponent=  3.7750000000D+00 Coefficients=  1.0000000000D+00
 D 1 1.00
     Exponent=  1.3000000000D+00 Coefficients=  1.0000000000D+00
 D 1 1.00
     Exponent=  4.4400000000D-01 Coefficients=  1.0000000000D+00
 D 1 1.00
     Exponent=  1.4927000000D+01 Coefficients=  1.0000000000D+00
 D 1 1.00
     Exponent=  5.7544000000D+01 Coefficients=  1.0000000000D+00
 D 1 1.00
     Exponent=  1.5400000000D-01 Coefficients=  1.0000000000D+00
 F 1 1.00
     Exponent=  2.6660000000D+00 Coefficients=  1.0000000000D+00
 F 1 1.00
     Exponent=  8.5900000000D-01 Coefficients=  1.0000000000D+00
 F 1 1.00
     Exponent=  2.6483000000D+01 Coefficients=  1.0000000000D+00
 F 1 1.00
     Exponent=  3.2400000000D-01 Coefficients=  1.0000000000D+00
 G 1 1.00
     Exponent=  1.8460000000D+00 Coefficients=  1.0000000000D+00
 G 1 1.00
     Exponent=  7.1400000000D-01 Coefficients=  1.0000000000D+00
 ****
 ======================================================================================================
                                       Pseudopotential Parameters
 ======================================================================================================
  Center     Atomic      Valence      Angular      Power
  Number     Number     Electrons     Momentum     of R      Exponent        Coefficient   SO-Coeffient
 ======================================================================================================
    1         30           20
                                      D and up 
                                                     1        5.2528273       20.00000000    0.00000000
                                                     3        5.8543330      105.05654526    0.00000000
                                                     2        5.8045290     -105.08806248    0.00000000
                                      S - D
                                                     2       12.5217496      123.87006927    0.00000000
                                      P - D
                                                     2       11.5601905       72.33499364    0.00000000
    2          8            6
                                      P and up 
                                                     1        9.2979390        6.00000000    0.00000000
                                                     3        8.8649220       55.78763416    0.00000000
                                                     2        8.6292567      -38.81978498    0.00000000
                                      S - P
                                                     2        8.7192445       38.41914135    0.00000000
 ======================================================================================================
 Ernie: Thresh=  0.10000D-02 Tol=  0.10000D-05 Strict=F.
 There are   213 symmetry adapted cartesian basis functions of A1  symmetry.
 There are    56 symmetry adapted cartesian basis functions of A2  symmetry.
 There are   114 symmetry adapted cartesian basis functions of B1  symmetry.
 There are   114 symmetry adapted cartesian basis functions of B2  symmetry.
 There are   157 symmetry adapted basis functions of A1  symmetry.
 There are    47 symmetry adapted basis functions of A2  symmetry.
 There are    90 symmetry adapted basis functions of B1  symmetry.
 There are    90 symmetry adapted basis functions of B2  symmetry.
   384 basis functions,   497 primitive gaussians,   497 cartesian basis functions
    13 alpha electrons       13 beta electrons
       nuclear repulsion energy        45.3580466503 Hartrees.
 IExCor=    0 DFT=F Ex=HF Corr=None ExCW=0 ScaHFX=  1.000000
 ScaDFX=  1.000000  1.000000  1.000000  1.000000 ScalE2=  1.000000  1.000000
 IRadAn=      5 IRanWt=     -1 IRanGd=            0 ICorTp=0 IEmpDi=  4
 NAtoms=    2 NActive=    2 NUniq=    2 SFac= 1.00D+00 NAtFMM=   60 NAOKFM=F Big=F
 Integral buffers will be    131072 words long.
 Raffenetti 2 integral format.
 Two-electron integral symmetry is turned on.
 Leave Link  301 at Tue Mar 27 11:37:47 2018, MaxMem= 10737418240 cpu:               9.2 elap:               0.3
 (Enter /home1/apps/gaussian/16rA.03/g16/l302.exe)
 NPDir=0 NMtPBC=     1 NCelOv=     1 NCel=       1 NClECP=     1 NCelD=      1
         NCelK=      1 NCelE2=     1 NClLst=     1 CellRange=     0.0.
 One-electron integrals computed using PRISM.
 One-electron integral symmetry used in STVInt
   4 Symmetry operations used in ECPInt.
 ECPInt:  NShTT=    6105 NPrTT=    6105 LenC2=    5553 LenP2D=    5552.
 LDataN:  DoStor=T MaxTD1=10 Len=  848
 NBasis=   384 RedAO= T EigKep=  2.13D-06  NBF=   157    47    90    90
 NBsUse=   380 1.00D-06 EigRej=  9.64D-07 NBFU=   155    47    89    89
 Leave Link  302 at Tue Mar 27 11:37:49 2018, MaxMem= 10737418240 cpu:              79.7 elap:               2.5
 (Enter /home1/apps/gaussian/16rA.03/g16/l303.exe)
 DipDrv:  MaxL=1.
 Leave Link  303 at Tue Mar 27 11:37:50 2018, MaxMem= 10737418240 cpu:               3.9 elap:               0.2
 (Enter /home1/apps/gaussian/16rA.03/g16/l401.exe)
 Initial guess from the checkpoint file:  "qz.chk"
 B after Tr=     0.000000    0.000000    0.000000
         Rot=    1.000000    0.000000    0.000000    0.000000 Ang=   0.00 deg.
 Guess basis will be translated and rotated to current coordinates.
 JPrj=2 DoOrth=T DoCkMO=T.
 Initial guess orbital symmetries:
       Occupied  (SG) (SG) (PI) (PI) (SG) (PI) (PI) (DLTA) (DLTA)
                 (SG) (PI) (PI) (SG)
       Virtual   (SG) (PI) (PI) (SG) (SG) (PI) (PI) (SG) (SG) (SG)
                 (PI) (PI) (DLTA) (DLTA) (PI) (PI) (SG) (PI) (PI)
                 (SG) (SG) (SG) (DLTA) (DLTA) (SG) (PI) (PI) (DLTA)
                 (DLTA) (PI) (PI) (SG) (PI) (PI) (SG) (PI) (PI)
                 (SG) (PHI) (PHI) (SG) (DLTA) (DLTA) (PI) (PI)
                 (PHI) (PHI) (SG) (DLTA) (DLTA) (SG) (SG) (PI)
                 (PI) (DLTA) (DLTA) (PI) (PI) (DLTA) (DLTA) (SG)
                 (SG) (PI) (PI) (PI) (PI) (SG) (PI) (PI) (SG) (SG)
                 (PHI) (PHI) (PI) (PI) (DLTA) (DLTA) (SG) (PHI)
                 (PHI) (DLTA) (DLTA) (PI) (PI) (SG) (DLTA) (DLTA)
                 (SG) (PI) (PI) (DLTA) (DLTA) (PI) (PI) (?A) (?A)
                 (PHI) (PHI) (DLTA) (DLTA) (SG) (SG) (PI) (PI)
                 (PI) (PI) (SG) (SG) (PHI) (PHI) (DLTA) (DLTA)
                 (PI) (PI) (SG) (SG) (PI) (PI) (SG) (DLTA) (DLTA)
                 (PI) (PI) (SG) (PI) (PI) (SG) (SG) (?A) (?A) (PHI)
                 (PHI) (DLTA) (DLTA) (PI) (PI) (SG) (SG) (DLTA)
                 (DLTA) (PI) (PI) (SG) (PI) (PI) (SG) (PHI) (PHI)
                 (SG) (DLTA) (DLTA) (PI) (PI) (SG) (DLTA) (DLTA)
                 (PI) (PI) (SG) (?A) (?A) (PHI) (PHI) (DLTA) (DLTA)
                 (PI) (PI) (PI) (PI) (SG) (SG) (DLTA) (DLTA) (PI)
                 (PI) (SG) (PI) (PI) (SG) (SG) (SG) (PI) (PI) (SG)
                 (DLTA) (DLTA) (PI) (PI) (SG) (SG) (PI) (PI) (SG)
                 (SG) (PI) (PI) (SG) (SG) (SG) (DLTA) (DLTA) (PI)
                 (PI) (SG) (PI) (PI) (SG) (PI) (PI) (SG) (SG) (SG)
                 (PI) (PI) (SG) (SG) (DLTA) (DLTA) (PI) (PI) (SG)
                 (PI) (PI) (SG) (SG) (SG) (PI) (PI) (SG) (SG) (SG)
                 (PI) (PI) (SG) (SG) (PI) (PI) (SG) (SG) (SG) (SG)
                 (PI) (PI) (SG) (SG) (SG) (SG) (SG) (DLTA) (SG)
                 (SG) (DLTA) (SG) (SG) (SG) (SG) (SG) (DLTA) (SG)
                 (DLTA) (SG) (SG) (DLTA) (SG) (?A) (SG) (DLTA)
                 (SG) (DLTA) (?A) (SG) (DLTA) (SG) (SG) (DLTA)
                 (SG) (DLTA) (SG) (?A) (DLTA) (DLTA) (DLTA) (SG)
                 (DLTA) (SG) (SG) (?A) (?A) (?A) (DLTA) (DLTA)
                 (DLTA) (DLTA) (DLTA) (?A) (DLTA) (DLTA) (?A) (DLTA)
                 (DLTA) (DLTA) (?A) (DLTA) (DLTA) (DLTA) (DLTA)
                 (?A) (?A) (?A) (PI) (PI) (PI) (PI) (PI) (PHI)
                 (PI) (PI) (PHI) (PI) (PI) (PI) (PHI) (PI) (?B)
                 (PHI) (PI) (PI) (PHI) (PI) (PHI) (PI) (PI) (PI)
                 (PHI) (PHI) (?B) (PHI) (?B) (PI) (PI) (PI) (PI)
                 (PI) (PHI) (PI) (PI) (PHI) (PI) (PI) (PI) (PHI)
                 (PI) (?B) (PHI) (PI) (PI) (PHI) (PI) (PHI) (PI)
                 (PI) (PI) (PHI) (PHI) (?B) (PHI) (?B)
 The electronic state of the initial guess is 1-SG.
 Leave Link  401 at Tue Mar 27 11:37:51 2018, MaxMem= 10737418240 cpu:              25.3 elap:               0.9
 (Enter /home1/apps/gaussian/16rA.03/g16/l502.exe)
 Keep R1 and R2 ints in memory in symmetry-blocked form, NReq=3425113631.
 FoFCou: FMM=F IPFlag=           8 FMFlag=           0 FMFlg1=           0
         NFxFlg=           0 DoJE=F BraDBF=F KetDBF=F FulRan=T
         wScrn=  0.000000 ICntrl=       600 IOpCl=  0 I1Cent=           0 NGrid=           0
         NMat0=    1 NMatS0=  73920 NMatT0=    0 NMatD0=    1 NMtDS0=    0 NMtDT0=    0
 Petite list used in FoFCou.
 Restricted open shell SCF:
 Using DIIS extrapolation, IDIIS=  1040.
 NGot= 10737418240 LenX=  9351085953 LenY=  9350838447
 Requested convergence on RMS density matrix=1.00D-08 within 400 cycles.
 Requested convergence on MAX density matrix=1.00D-06.
 Requested convergence on             energy=1.00D-06.
 No special actions if energy rises.

 Cycle   1  Pass 1  IDiag  1:
 E= -241.585582828430    
 DIIS: error= 3.03D+00 at cycle   1 NSaved=   1.
 NSaved= 1 IEnMin= 1 EnMin= -241.585582828430     IErMin= 1 ErrMin= 3.03D+00
 ErrMax= 3.03D+00  0.00D+00 EMaxC= 1.00D-01 BMatC= 1.05D+03 BMatP= 1.05D+03
 IDIUse=3 WtCom= 0.00D+00 WtEn= 1.00D+00
 Coeff-Com:  0.100D+01
 Coeff-En:   0.100D+01
 Coeff:      0.100D+01
 Gap=     0.360 Goal=   None    Shift=    0.000
 GapD=    0.360 DampG=1.000 DampE=0.125 DampFc=0.1250 IDamp=-1.
 Damping current iteration by 1.25D-01
 RMSDP=2.71D-03 MaxDP=3.48D-01              OVMax= 3.51D-03

 Cycle   2  Pass 1  IDiag  1:
 E= -241.585948579405     Delta-E=       -0.000365750975 Rises=F Damp=T
 DIIS: error= 2.65D+00 at cycle   2 NSaved=   2.
 NSaved= 2 IEnMin= 2 EnMin= -241.585948579405     IErMin= 2 ErrMin= 2.65D+00
 ErrMax= 2.65D+00  0.00D+00 EMaxC= 1.00D-01 BMatC= 8.05D+02 BMatP= 1.05D+03
 IDIUse=3 WtCom= 0.00D+00 WtEn= 1.00D+00
 Coeff-Com: -0.700D+01 0.800D+01
 Coeff-En:   0.000D+00 0.100D+01
 Coeff:      0.000D+00 0.100D+01
 Gap=     0.360 Goal=   None    Shift=    0.000
 RMSDP=2.38D-03 MaxDP=3.05D-01 DE=-3.66D-04 OVMax= 1.15D-04

 Cycle   3  Pass 1  IDiag  1:
 E= -241.588554607457     Delta-E=       -0.002606028052 Rises=F Damp=F
 DIIS: error= 3.89D-04 at cycle   3 NSaved=   3.
 NSaved= 3 IEnMin= 3 EnMin= -241.588554607457     IErMin= 3 ErrMin= 3.89D-04
 ErrMax= 3.89D-04  0.00D+00 EMaxC= 1.00D-01 BMatC= 1.30D-05 BMatP= 8.05D+02
 IDIUse=3 WtCom= 9.96D-01 WtEn= 3.89D-03
 Large coefficients: NSaved=  3 BigCof=   47.31 CofMax=   10.00 Det=-5.05D-09
 Inversion failed.  Reducing to  2 matrices.
 Coeff-Com: -0.163D-05 0.100D+01
 Coeff-En:   0.000D+00 0.100D+01
 Coeff:     -0.162D-05 0.100D+01
 Gap=     0.360 Goal=   None    Shift=    0.000
 RMSDP=1.01D-04 MaxDP=5.91D-03 DE=-2.61D-03 OVMax= 7.14D-04

 Cycle   4  Pass 1  IDiag  1:
 E= -241.588557863505     Delta-E=       -0.000003256047 Rises=F Damp=F
 DIIS: error= 9.92D-05 at cycle   4 NSaved=   3.
 NSaved= 3 IEnMin= 3 EnMin= -241.588557863505     IErMin= 3 ErrMin= 9.92D-05
 ErrMax= 9.92D-05  0.00D+00 EMaxC= 1.00D-01 BMatC= 1.09D-06 BMatP= 1.30D-05
 IDIUse=1 WtCom= 1.00D+00 WtEn= 0.00D+00
 Coeff-Com: -0.162D-06 0.904D-01 0.910D+00
 Coeff:     -0.162D-06 0.904D-01 0.910D+00
 Gap=     0.360 Goal=   None    Shift=    0.000
 RMSDP=8.51D-06 MaxDP=5.26D-04 DE=-3.26D-06 OVMax= 5.63D-04

 Cycle   5  Pass 1  IDiag  1:
 E= -241.588557935858     Delta-E=       -0.000000072353 Rises=F Damp=F
 DIIS: error= 9.62D-05 at cycle   5 NSaved=   4.
 NSaved= 4 IEnMin= 4 EnMin= -241.588557935858     IErMin= 4 ErrMin= 9.62D-05
 ErrMax= 9.62D-05  0.00D+00 EMaxC= 1.00D-01 BMatC= 9.64D-07 BMatP= 1.09D-06
 IDIUse=1 WtCom= 1.00D+00 WtEn= 0.00D+00
 Coeff-Com:  0.378D-07-0.279D-01 0.490D+00 0.538D+00
 Coeff:      0.378D-07-0.279D-01 0.490D+00 0.538D+00
 Gap=     0.360 Goal=   None    Shift=    0.000
 RMSDP=3.16D-06 MaxDP=2.17D-04 DE=-7.24D-08 OVMax= 3.32D-04

 Cycle   6  Pass 1  IDiag  1:
 E= -241.588558576470     Delta-E=       -0.000000640612 Rises=F Damp=F
 DIIS: error= 4.83D-06 at cycle   6 NSaved=   5.
 NSaved= 5 IEnMin= 5 EnMin= -241.588558576470     IErMin= 5 ErrMin= 4.83D-06
 ErrMax= 4.83D-06  0.00D+00 EMaxC= 1.00D-01 BMatC= 2.08D-09 BMatP= 9.64D-07
 IDIUse=1 WtCom= 1.00D+00 WtEn= 0.00D+00
 Coeff-Com: -0.753D-09 0.904D-03-0.522D-01-0.229D-01 0.107D+01
 Coeff:     -0.753D-09 0.904D-03-0.522D-01-0.229D-01 0.107D+01
 Gap=     0.360 Goal=   None    Shift=    0.000
 RMSDP=5.76D-07 MaxDP=3.46D-05 DE=-6.41D-07 OVMax= 3.05D-05

 Cycle   7  Pass 1  IDiag  1:
 E= -241.588558580472     Delta-E=       -0.000000004002 Rises=F Damp=F
 DIIS: error= 3.47D-06 at cycle   7 NSaved=   6.
 NSaved= 6 IEnMin= 6 EnMin= -241.588558580472     IErMin= 6 ErrMin= 3.47D-06
 ErrMax= 3.47D-06  0.00D+00 EMaxC= 1.00D-01 BMatC= 1.30D-09 BMatP= 2.08D-09
 IDIUse=1 WtCom= 1.00D+00 WtEn= 0.00D+00
 Coeff-Com: -0.252D-08 0.207D-02-0.578D-01-0.386D-01 0.572D+00 0.522D+00
 Coeff:     -0.252D-08 0.207D-02-0.578D-01-0.386D-01 0.572D+00 0.522D+00
 Gap=     0.360 Goal=   None    Shift=    0.000
 RMSDP=8.26D-08 MaxDP=5.62D-06 DE=-4.00D-09 OVMax= 1.57D-05

 Cycle   8  Pass 1  IDiag  1:
 E= -241.588558581515     Delta-E=       -0.000000001042 Rises=F Damp=F
 DIIS: error= 1.86D-06 at cycle   8 NSaved=   7.
 NSaved= 7 IEnMin= 7 EnMin= -241.588558581515     IErMin= 7 ErrMin= 1.86D-06
 ErrMax= 1.86D-06  0.00D+00 EMaxC= 1.00D-01 BMatC= 3.10D-10 BMatP= 1.30D-09
 IDIUse=1 WtCom= 1.00D+00 WtEn= 0.00D+00
 Coeff-Com: -0.419D-10-0.188D-03 0.176D-01 0.193D-01-0.444D+00-0.294D+00
 Coeff-Com:  0.170D+01
 Coeff:     -0.419D-10-0.188D-03 0.176D-01 0.193D-01-0.444D+00-0.294D+00
 Coeff:      0.170D+01
 Gap=     0.360 Goal=   None    Shift=    0.000
 RMSDP=1.40D-07 MaxDP=9.51D-06 DE=-1.04D-09 OVMax= 3.67D-05

 Cycle   9  Pass 1  IDiag  1:
 E= -241.588558583044     Delta-E=       -0.000000001529 Rises=F Damp=F
 DIIS: error= 1.04D-06 at cycle   9 NSaved=   8.
 NSaved= 8 IEnMin= 8 EnMin= -241.588558583044     IErMin= 8 ErrMin= 1.04D-06
 ErrMax= 1.04D-06  0.00D+00 EMaxC= 1.00D-01 BMatC= 8.40D-11 BMatP= 3.10D-10
 IDIUse=1 WtCom= 1.00D+00 WtEn= 0.00D+00
 Coeff-Com:  0.817D-09-0.554D-03 0.124D-01 0.151D-01-0.924D-01-0.502D-01
 Coeff-Com: -0.367D+00 0.148D+01
 Coeff:      0.817D-09-0.554D-03 0.124D-01 0.151D-01-0.924D-01-0.502D-01
 Coeff:     -0.367D+00 0.148D+01
 Gap=     0.360 Goal=   None    Shift=    0.000
 RMSDP=1.02D-07 MaxDP=7.70D-06 DE=-1.53D-09 OVMax= 2.59D-05

 Cycle  10  Pass 1  IDiag  1:
 E= -241.588558583585     Delta-E=       -0.000000000541 Rises=F Damp=F
 DIIS: error= 3.59D-07 at cycle  10 NSaved=   9.
 NSaved= 9 IEnMin= 9 EnMin= -241.588558583585     IErMin= 9 ErrMin= 3.59D-07
 ErrMax= 3.59D-07  0.00D+00 EMaxC= 1.00D-01 BMatC= 1.39D-11 BMatP= 8.40D-11
 IDIUse=1 WtCom= 1.00D+00 WtEn= 0.00D+00
 Coeff-Com: -0.282D-09 0.188D-03-0.754D-02-0.659D-02 0.119D+00 0.925D-01
 Coeff-Com: -0.349D+00-0.387D+00 0.154D+01
 Coeff:     -0.282D-09 0.188D-03-0.754D-02-0.659D-02 0.119D+00 0.925D-01
 Coeff:     -0.349D+00-0.387D+00 0.154D+01
 Gap=     0.360 Goal=   None    Shift=    0.000
 RMSDP=6.76D-08 MaxDP=5.78D-06 DE=-5.41D-10 OVMax= 1.53D-05

 Cycle  11  Pass 1  IDiag  1:
 E= -241.588558583698     Delta-E=       -0.000000000113 Rises=F Damp=F
 DIIS: error= 1.02D-07 at cycle  11 NSaved=  10.
 NSaved=10 IEnMin=10 EnMin= -241.588558583698     IErMin=10 ErrMin= 1.02D-07
 ErrMax= 1.02D-07  0.00D+00 EMaxC= 1.00D-01 BMatC= 9.67D-13 BMatP= 1.39D-11
 IDIUse=1 WtCom= 1.00D+00 WtEn= 0.00D+00
 Coeff-Com: -0.445D-10 0.261D-04 0.619D-04-0.913D-04-0.142D-01-0.360D-02
 Coeff-Com:  0.973D-01-0.552D-01-0.397D+00 0.137D+01
 Coeff:     -0.445D-10 0.261D-04 0.619D-04-0.913D-04-0.142D-01-0.360D-02
 Coeff:      0.973D-01-0.552D-01-0.397D+00 0.137D+01
 Gap=     0.360 Goal=   None    Shift=    0.000
 RMSDP=1.45D-08 MaxDP=1.14D-06 DE=-1.13D-10 OVMax= 3.14D-06

 Cycle  12  Pass 1  IDiag  1:
 E= -241.588558583704     Delta-E=       -0.000000000006 Rises=F Damp=F
 DIIS: error= 2.96D-08 at cycle  12 NSaved=  11.
 NSaved=11 IEnMin=11 EnMin= -241.588558583704     IErMin=11 ErrMin= 2.96D-08
 ErrMax= 2.96D-08  0.00D+00 EMaxC= 1.00D-01 BMatC= 1.16D-13 BMatP= 9.67D-13
 IDIUse=1 WtCom= 1.00D+00 WtEn= 0.00D+00
 Coeff-Com:  0.101D-09-0.289D-04 0.843D-03 0.707D-03-0.982D-02-0.143D-02
 Coeff-Com:  0.970D-03 0.569D-01-0.620D-01-0.358D+00 0.137D+01
 Coeff:      0.101D-09-0.289D-04 0.843D-03 0.707D-03-0.982D-02-0.143D-02
 Coeff:      0.970D-03 0.569D-01-0.620D-01-0.358D+00 0.137D+01
 Gap=     0.360 Goal=   None    Shift=    0.000
 RMSDP=3.55D-09 MaxDP=2.85D-07 DE=-6.25D-12 OVMax= 7.55D-07

 SCF Done:  E(ROHF) =  -241.588558584     A.U. after   12 cycles
            NFock= 12  Conv=0.35D-08     -V/T= 2.5378
 <Sx>= 0.0000 <Sy>= 0.0000 <Sz>= 0.0000 <S**2>=-0.0000 S=-0.0000
 <L.S>=  0.00000000000    
 KE= 1.571001855491D+02 PE=-6.832112822569D+02 EE= 2.391644914739D+02
 Annihilation of the first spin contaminant:
 S**2 before annihilation    -0.0000,   after     0.0000
 Leave Link  502 at Tue Mar 27 11:39:01 2018, MaxMem= 10737418240 cpu:            2093.2 elap:              70.8
 (Enter /home1/apps/gaussian/16rA.03/g16/l801.exe)
 Windowed orbitals will be sorted by symmetry type.
 GenMOA:  NOpAll=  4 NOp2=4 NOpUse=  4 JSym2X=1
 FoFJK:  IHMeth= 1 ICntrl=       0 DoSepK=F KAlg= 0 I1Cent=           0 FoldK=F
 IRaf=         0 NMat=       1 IRICut=       1 DoRegI=T DoRafI=F ISym2E= 1 IDoP0=0 IntGTp=1.
 FoFCou: FMM=F IPFlag=           8 FMFlag=      100000 FMFlg1=           0
         NFxFlg=           0 DoJE=F BraDBF=F KetDBF=F FulRan=T
         wScrn=  0.000000 ICntrl=         0 IOpCl=  1 I1Cent=           0 NGrid=           0
         NMat0=    1 NMatS0=      1 NMatT0=    0 NMatD0=    1 NMtDS0=    0 NMtDT0=    0
 Petite list used in FoFCou.
 <Sx>= 0.0000 <Sy>= 0.0000 <Sz>= 0.0000 <S**2>= 0.0000 S= 0.0000
 Range of M.O.s used for correlation:     1   380
 NBasis=   384 NAE=    13 NBE=    13 NFC=     0 NFV=     0
 NROrb=    380 NOA=    13 NOB=    13 NVA=   367 NVB=   367

 **** Warning!!: The largest alpha MO coefficient is  0.28196698D+03


 **** Warning!!: The largest beta MO coefficient is  0.28196698D+03

 Singles contribution to E2=   -0.1052316714D-13
 Leave Link  801 at Tue Mar 27 11:39:23 2018, MaxMem= 10737418240 cpu:             667.8 elap:              20.9
 (Enter /home1/apps/gaussian/16rA.03/g16/l804.exe)
 Open-shell transformation, MDV= 10737418240 ITran=4 ISComp=2.
 Unit  1 TFree=       4463836 TCopy=       3315950.
 Semi-Direct transformation.
 ModeAB=           4 MOrb=            13 LenV=   10733128414
 LASXX=     88669000 LTotXX=    88669000 LenRXX=   178270504
 LTotAB=    89601504 MaxLAS=   597932660 LenRXY=           0
 NonZer=   266939504 LenScr=   401980416 LnRSAI=   597932660
 LnScr1=   900416512 LExtra=    36575530 Total=   2115175622
 MaxDsk= 67108864000 SrtSym=           T ITran=            4
 DoSDTr:  NPSUse= 32
 JobTyp=1 Pass  1:  I=   1 to  13.
 (rs|ai) integrals will be sorted in core.
 Complete sort for first half transformation.
 First half transformation complete.
 Begin second half transformation for I=  10.
 Complete sort for second half transformation.
 Second half transformation complete.
 ModeAB=           4 MOrb=            13 LenV=   10733128414
 LASXX=     88669000 LTotXX=    88669000 LenRXX=   172217940
 LTotAB=    83548940 MaxLAS=   597932660 LenRXY=           0
 NonZer=   260886940 LenScr=   392865792 LnRSAI=   597932660
 LnScr1=   900416512 LExtra=   214846034 Total=   2278278938
 MaxDsk= 67108864000 SrtSym=           T ITran=            4
 DoSDTr:  NPSUse= 32
 JobTyp=2 Pass  1:  I=   1 to  13.
 (rs|ai) integrals will be sorted in core.
 Complete sort for first half transformation.
 First half transformation complete.
 Begin second half transformation for I=  10.
 Complete sort for second half transformation.
 Second half transformation complete.
 Spin components of T(2) and E(2):
     alpha-alpha T2 =       0.3355046297D-01 E2=     -0.2108309973D+00
     alpha-beta  T2 =       0.1546025814D+00 E2=     -0.1007884584D+01
     beta-beta   T2 =       0.3355046297D-01 E2=     -0.2108309973D+00
 ANorm=    0.1105306974D+01
 E2 =    -0.1429546578D+01 EUMP2 =    -0.24301810516201D+03
 (S**2,0)=  0.00000D+00           (S**2,1)=  0.00000D+00
 E(PUHF)=      -0.24158855858D+03        E(PMP2)=      -0.24301810516D+03
 Leave Link  804 at Tue Mar 27 11:52:15 2018, MaxMem= 10737418240 cpu:           24692.4 elap:             772.3
 (Enter /home1/apps/gaussian/16rA.03/g16/l913.exe)
 CIDS:  MDV= 10737418240.
 IFCWin=0 IBDFC=1 NFBD=     0     0 NFCmp=     0     0 NFFFC=     0     0
 Using original routines for 1st iteration.
 Using DD4UQ or CC4UQ for 2nd and later iterations.
 Keep R2 and R3 ints in memory in symmetry-blocked form, NReq=3425139157.
 FoFCou: FMM=F IPFlag=           8 FMFlag=           0 FMFlg1=           0
         NFxFlg=           0 DoJE=F BraDBF=F KetDBF=F FulRan=T
         wScrn=  0.000000 ICntrl=       600 IOpCl=  0 I1Cent=           0 NGrid=           0
         NMat0=    1 NMatS0=  73920 NMatT0=    0 NMatD0=    1 NMtDS0=    0 NMtDT0=    0
 Petite list used in FoFCou.
 CIDS: In Core Option IDoMem=           1.
 CCSD(T)
 =======
 Iterations= 150 Convergence= 0.100D-06
 Produce multiple copies of IABC intergrals
 Iteration Nr.   1
 **********************
 DD1Dir will call FoFMem   1 times, MxPair=       494
 NAB=   169 NAA=    78 NBB=    78.
 DD1Dir will call FoFMem   1 times, MxPair=       494
 NAB=   169 NAA=    78 NBB=    78.
 MP4(R+Q)= -0.16984718D+00
 Maximum subspace dimension=  5
 A-vector RMS=  1.5959007D-05 Max=  1.7612106D-02 conv= 1.00D-05.
 RLE energy=       -1.4228287956
 E3=        0.17659668D+00        EROMP3=      -0.24284150848D+03
 E4(SDQ)=  -0.10761604D+00        ROMP4(SDQ)=  -0.24294912452D+03
 VARIATIONAL ENERGIES WITH THE FIRST-ORDER WAVEFUNCTION:
 DE(Corr)=  -1.4227971     E(Corr)=     -243.01135566    
 NORM(A)=   0.10992470D+01
 Iteration Nr.   2
 **********************
 DD1Dir will call FoFMem   1 times, MxPair=       494
 NAB=   169 NAA=    78 NBB=    78.
 A-vector RMS=  4.1109331D-03 Max=  7.8421566D-02 conv= 1.00D-05.
 RLE energy=       -1.3750130778
 DE(Corr)=  -1.2405861     E(CORR)=     -242.82914468     Delta= 1.82D-01
 NORM(A)=   0.10905468D+01
 Iteration Nr.   3
 **********************
 DD1Dir will call FoFMem   1 times, MxPair=       494
 NAB=   169 NAA=    78 NBB=    78.
 A-vector RMS=  2.4554121D-03 Max=  4.6341848D-02 conv= 1.00D-05.
 RLE energy=       -1.3578761286
 DE(Corr)=  -1.2658309     E(CORR)=     -242.85438947     Delta=-2.52D-02
 NORM(A)=   0.10915851D+01
 Iteration Nr.   4
 **********************
 DD1Dir will call FoFMem   1 times, MxPair=       494
 NAB=   169 NAA=    78 NBB=    78.
 A-vector RMS=  2.4514648D-03 Max=  5.1579441D-02 conv= 1.00D-05.
 RLE energy=       -1.2744802640
 DE(Corr)=  -1.2767672     E(CORR)=     -242.86532578     Delta=-1.09D-02
 NORM(A)=   0.11081677D+01
 Iteration Nr.   5
 **********************
 DD1Dir will call FoFMem   1 times, MxPair=       494
 NAB=   169 NAA=    78 NBB=    78.
 A-vector RMS=  1.5867287D-03 Max=  3.0713736D-02 conv= 1.00D-05.
 RLE energy=       -1.3248862126
 DE(Corr)=  -1.3378297     E(CORR)=     -242.92638833     Delta=-6.11D-02
 NORM(A)=   0.11020415D+01
 Iteration Nr.   6
 **********************
 DD1Dir will call FoFMem   1 times, MxPair=       494
 NAB=   169 NAA=    78 NBB=    78.
 A-vector RMS=  7.3623339D-04 Max=  1.8586280D-02 conv= 1.00D-05.
 RLE energy=       -1.3132326922
 DE(Corr)=  -1.3039794     E(CORR)=     -242.89253797     Delta= 3.39D-02
 NORM(A)=   0.11073230D+01
 Iteration Nr.   7
 **********************
 DD1Dir will call FoFMem   1 times, MxPair=       494
 NAB=   169 NAA=    78 NBB=    78.
 A-vector RMS=  1.1126340D-04 Max=  1.8939083D-03 conv= 1.00D-05.
 RLE energy=       -1.3125606374
 DE(Corr)=  -1.3125168     E(CORR)=     -242.90107541     Delta=-8.54D-03
 NORM(A)=   0.11085597D+01
 Iteration Nr.   8
 **********************
 DD1Dir will call FoFMem   1 times, MxPair=       494
 NAB=   169 NAA=    78 NBB=    78.
 A-vector RMS=  6.8440312D-05 Max=  1.7497649D-03 conv= 1.00D-05.
 RLE energy=       -1.3127191816
 DE(Corr)=  -1.3128447     E(CORR)=     -242.90140324     Delta=-3.28D-04
 NORM(A)=   0.11092072D+01
 Iteration Nr.   9
 **********************
 DD1Dir will call FoFMem   1 times, MxPair=       494
 NAB=   169 NAA=    78 NBB=    78.
 A-vector RMS=  3.4893089D-05 Max=  6.9302123D-04 conv= 1.00D-05.
 RLE energy=       -1.3127347427
 DE(Corr)=  -1.3126195     E(CORR)=     -242.90117808     Delta= 2.25D-04
 NORM(A)=   0.11095278D+01
 Iteration Nr.  10
 **********************
 DD1Dir will call FoFMem   1 times, MxPair=       494
 NAB=   169 NAA=    78 NBB=    78.
 A-vector RMS=  2.2339219D-05 Max=  3.6581953D-04 conv= 1.00D-05.
 RLE energy=       -1.3126526256
 DE(Corr)=  -1.3127253     E(CORR)=     -242.90128384     Delta=-1.06D-04
 NORM(A)=   0.11095427D+01
 Iteration Nr.  11
 **********************
 DD1Dir will call FoFMem   1 times, MxPair=       494
 NAB=   169 NAA=    78 NBB=    78.
 A-vector RMS=  5.8517050D-06 Max=  9.6623196D-05 conv= 1.00D-05.
 RLE energy=       -1.3127170167
 DE(Corr)=  -1.3127136     E(CORR)=     -242.90127217     Delta= 1.17D-05
 NORM(A)=   0.11094937D+01
 Iteration Nr.  12
 **********************
 DD1Dir will call FoFMem   1 times, MxPair=       494
 NAB=   169 NAA=    78 NBB=    78.
 A-vector RMS=  2.8300109D-06 Max=  4.6944962D-05 conv= 1.00D-05.
 RLE energy=       -1.3126894060
 DE(Corr)=  -1.3126874     E(CORR)=     -242.90124600     Delta= 2.62D-05
 NORM(A)=   0.11094991D+01
 Iteration Nr.  13
 **********************
 DD1Dir will call FoFMem   1 times, MxPair=       494
 NAB=   169 NAA=    78 NBB=    78.
 A-vector RMS=  2.5023892D-06 Max=  5.1772944D-05 conv= 1.00D-05.
 RLE energy=       -1.3127016322
 DE(Corr)=  -1.3127116     E(CORR)=     -242.90127020     Delta=-2.42D-05
 NORM(A)=   0.11094952D+01
 Iteration Nr.  14
 **********************
 DD1Dir will call FoFMem   1 times, MxPair=       494
 NAB=   169 NAA=    78 NBB=    78.
 A-vector RMS=  1.1167967D-06 Max=  2.2897333D-05 conv= 1.00D-05.
 RLE energy=       -1.3127036422
 DE(Corr)=  -1.3127002     E(CORR)=     -242.90125877     Delta= 1.14D-05
 NORM(A)=   0.11094991D+01
 Iteration Nr.  15
 **********************
 DD1Dir will call FoFMem   1 times, MxPair=       494
 NAB=   169 NAA=    78 NBB=    78.
 A-vector RMS=  3.2437117D-07 Max=  6.1677834D-06 conv= 1.00D-05.
 RLE energy=       -1.3127019649
 DE(Corr)=  -1.3127011     E(CORR)=     -242.90125969     Delta=-9.26D-07
 NORM(A)=   0.11095015D+01
 Iteration Nr.  16
 **********************
 DD1Dir will call FoFMem   1 times, MxPair=       494
 NAB=   169 NAA=    78 NBB=    78.
 A-vector RMS=  2.1341644D-07 Max=  5.0698288D-06 conv= 1.00D-05.
 RLE energy=       -1.3127029761
 DE(Corr)=  -1.3127033     E(CORR)=     -242.90126192     Delta=-2.22D-06
 NORM(A)=   0.11095017D+01
 Iteration Nr.  17
 **********************
 DD1Dir will call FoFMem   1 times, MxPair=       494
 NAB=   169 NAA=    78 NBB=    78.
 A-vector RMS=  1.7234577D-07 Max=  3.3518489D-06 conv= 1.00D-05.
 RLE energy=       -1.3127028852
 DE(Corr)=  -1.3127024     E(CORR)=     -242.90126103     Delta= 8.89D-07
 NORM(A)=   0.11095024D+01
 Iteration Nr.  18
 **********************
 DD1Dir will call FoFMem   1 times, MxPair=       494
 NAB=   169 NAA=    78 NBB=    78.
 A-vector RMS=  4.6274772D-08 Max=  1.1115298D-06 conv= 1.00D-05.
 RLE energy=       -1.3127027819
 DE(Corr)=  -1.3127028     E(CORR)=     -242.90126141     Delta=-3.79D-07
 NORM(A)=   0.11095027D+01
 Iteration Nr.  19
 **********************
 DD1Dir will call FoFMem   1 times, MxPair=       494
 NAB=   169 NAA=    78 NBB=    78.
 A-vector RMS=  4.6032740D-08 Max=  9.0465485D-07 conv= 1.00D-05.
 RLE energy=       -1.3127029600
 DE(Corr)=  -1.3127030     E(CORR)=     -242.90126158     Delta=-1.79D-07
 NORM(A)=   0.11095026D+01
 Iteration Nr.  20
 **********************
 DD1Dir will call FoFMem   1 times, MxPair=       494
 NAB=   169 NAA=    78 NBB=    78.
 A-vector RMS=  3.0501224D-08 Max=  4.9873723D-07 conv= 1.00D-05.
 RLE energy=       -1.3127029195
 DE(Corr)=  -1.3127028     E(CORR)=     -242.90126138     Delta= 1.99D-07
 NORM(A)=   0.11095026D+01
 Iteration Nr.  21
 **********************
 DD1Dir will call FoFMem   1 times, MxPair=       494
 NAB=   169 NAA=    78 NBB=    78.
 A-vector RMS=  1.1644061D-08 Max=  1.5028290D-07 conv= 1.00D-05.
 RLE energy=       -1.3127029000
 DE(Corr)=  -1.3127028     E(CORR)=     -242.90126143     Delta=-4.22D-08
 NORM(A)=   0.11095026D+01
 CI/CC converged in   21 iterations to DelEn=-4.22D-08 Conv= 1.00D-07 ErrA1= 1.16D-08 Conv= 1.00D-05
 Wavefunction amplitudes converged. E(Corr)=     -242.90126143    
 Dominant configurations:
 ***********************
 Spin Case        I    J    A    B          Value
    AA           13        14            0.104413D+00
    BB           13        14            0.104413D+00
 Largest amplitude= 1.04D-01
 Time for triples=   186741.20 seconds.
 T4(CCSD)= -0.61252138D-01
 T5(CCSD)=  0.10066564D-01
 CCSD(T)= -0.24295244700D+03
 Discarding MO integrals.
 Leave Link  913 at Tue Mar 27 13:54:59 2018, MaxMem= 10737418240 cpu:          234604.6 elap:            7364.1
 (Enter /home1/apps/gaussian/16rA.03/g16/l601.exe)
 Copying SCF densities to generalized density rwf, IOpCl= 0 IROHF=1.

 **********************************************************************

            Population analysis using the SCF density.

 **********************************************************************

 Orbital symmetries:
       Occupied  (SG) (SG) (PI) (PI) (SG) (PI) (PI) (DLTA) (DLTA)
                 (SG) (PI) (PI) (SG)
       Virtual   (SG) (PI) (PI) (SG) (SG) (PI) (PI) (SG) (SG) (SG)
                 (DLTA) (DLTA) (PI) (PI) (PI) (PI) (SG) (PI) (PI)
                 (SG) (SG) (DLTA) (DLTA) (PI) (PI) (DLTA) (DLTA)
                 (SG) (SG) (PI) (PI) (SG) (PI) (PI) (PI) (PI) (SG)
                 (SG) (PHI) (PHI) (DLTA) (DLTA) (PI) (PI) (SG)
                 (PHI) (PHI) (SG) (DLTA) (DLTA) (PI) (PI) (DLTA)
                 (DLTA) (SG) (PI) (PI) (DLTA) (DLTA) (SG) (SG)
                 (PI) (PI) (SG) (PI) (PI) (PI) (PI) (DLTA) (DLTA)
                 (PHI) (PHI) (SG) (SG) (PI) (PI) (PHI) (PHI) (?A)
                 (?A) (PI) (PI) (DLTA) (DLTA) (SG) (?A) (?A) (SG)
                 (DLTA) (DLTA) (PHI) (PHI) (PI) (PI) (SG) (DLTA)
                 (DLTA) (SG) (PHI) (PHI) (DLTA) (DLTA) (PI) (PI)
                 (SG) (PI) (PI) (DLTA) (DLTA) (SG) (PI) (PI) (SG)
                 (PI) (PI) (SG) (PHI) (PHI) (DLTA) (DLTA) (PI)
                 (PI) (SG) (DLTA) (DLTA) (PI) (PI) (SG) (SG) (PI)
                 (PI) (PI) (PI) (DLTA) (DLTA) (?A) (?A) (PHI) (PHI)
                 (SG) (?A) (?A) (PHI) (PHI) (?B) (?B) (?A) (?A)
                 (DLTA) (DLTA) (PHI) (PHI) (SG) (PI) (PI) (SG)
                 (DLTA) (DLTA) (SG) (PHI) (PHI) (SG) (PI) (PI)
                 (DLTA) (DLTA) (PI) (PI) (DLTA) (DLTA) (SG) (PI)
                 (PI) (SG) (PI) (PI) (SG) (DLTA) (DLTA) (PI) (PI)
                 (SG) (PHI) (PHI) (DLTA) (DLTA) (PI) (PI) (SG)
                 (SG) (?A) (?A) (PHI) (PHI) (DLTA) (DLTA) (PI)
                 (PI) (SG) (?B) (?B) (?A) (?A) (PHI) (PHI) (DLTA)
                 (DLTA) (SG) (SG) (PI) (PI) (PI) (PI) (SG) (PI)
                 (PI) (SG) (DLTA) (DLTA) (PI) (PI) (SG) (SG) (DLTA)
                 (DLTA) (PI) (PI) (SG) (PHI) (PHI) (DLTA) (DLTA)
                 (PI) (PI) (SG) (?A) (?A) (PHI) (PHI) (DLTA) (DLTA)
                 (PI) (PI) (SG) (SG) (DLTA) (DLTA) (PI) (PI) (SG)
                 (?B) (?B) (?A) (?A) (PHI) (PHI) (DLTA) (DLTA)
                 (PI) (PI) (SG) (PI) (PI) (SG) (PI) (PI) (SG) (SG)
                 (DLTA) (DLTA) (PI) (PI) (SG) (PHI) (PHI) (DLTA)
                 (DLTA) (PI) (PI) (SG) (SG) (PI) (PI) (SG) (PI)
                 (PI) (SG) (SG) (DLTA) (DLTA) (PI) (PI) (SG) (SG)
                 (PI) (PI) (SG) (DLTA) (DLTA) (PI) (PI) (SG) (SG)
                 (PI) (PI) (SG) (SG) (DLTA) (DLTA) (PI) (PI) (SG)
                 (PI) (PI) (SG) (SG) (SG) (PI) (PI) (SG) (PI) (PI)
                 (SG) (DLTA) (DLTA) (PI) (PI) (SG) (SG) (SG) (PI)
                 (PI) (SG) (SG) (SG) (DLTA) (DLTA) (PI) (PI) (SG)
                 (PI) (PI) (SG) (SG) (SG) (PI) (PI) (SG) (SG) (PI)
                 (PI) (SG) (SG) (SG) (PI) (PI) (SG) (SG) (SG) (PI)
                 (PI) (SG) (SG) (SG) (SG) (SG) (SG)
 The electronic state is 1-SG.
 Alpha  occ. eigenvalues --   -5.61379  -3.91691  -3.90066  -3.90066  -1.22237
 Alpha  occ. eigenvalues --   -0.84913  -0.84913  -0.81903  -0.81903  -0.78621
 Alpha  occ. eigenvalues --   -0.40826  -0.40826  -0.39763
 Alpha virt. eigenvalues --   -0.03771   0.02684   0.02684   0.02792   0.04137
 Alpha virt. eigenvalues --    0.08637   0.08637   0.12329   0.16670   0.17955
 Alpha virt. eigenvalues --    0.18153   0.18153   0.20159   0.20159   0.23026
 Alpha virt. eigenvalues --    0.23026   0.23594   0.27667   0.27667   0.35287
 Alpha virt. eigenvalues --    0.49577   0.56729   0.56729   0.59163   0.59163
 Alpha virt. eigenvalues --    0.59457   0.59457   0.61523   0.64635   0.68341
 Alpha virt. eigenvalues --    0.68341   0.69399   0.81079   0.81079   0.95898
 Alpha virt. eigenvalues --    0.95898   0.96148   1.07483   1.08283   1.08283
 Alpha virt. eigenvalues --    1.22003   1.22003   1.40585   1.40585   1.45151
 Alpha virt. eigenvalues --    1.49257   1.49257   1.52279   1.52455   1.52455
 Alpha virt. eigenvalues --    1.56092   1.56092   1.64984   1.64984   1.77192
 Alpha virt. eigenvalues --    1.79473   1.79473   1.87821   1.87821   1.98239
 Alpha virt. eigenvalues --    2.12195   2.29351   2.29351   2.51315   2.57796
 Alpha virt. eigenvalues --    2.57796   3.01147   3.01147   3.20237   3.20237
 Alpha virt. eigenvalues --    3.24384   3.24384   3.36723   3.46992   3.56821
 Alpha virt. eigenvalues --    3.56821   3.58666   3.58666   3.67471   3.67471
 Alpha virt. eigenvalues --    3.79770   3.79770   3.80044   3.80044   3.85546
 Alpha virt. eigenvalues --    3.99847   3.99847   4.07779   4.11162   4.11162
 Alpha virt. eigenvalues --    4.19941   4.19941   4.24475   4.24475   4.26744
 Alpha virt. eigenvalues --    4.32231   4.32231   4.35080   4.49511   4.49511
 Alpha virt. eigenvalues --    4.55046   4.55046   4.67492   4.67492   4.95782
 Alpha virt. eigenvalues --    5.30644   5.30644   5.39050   5.39050   5.68490
 Alpha virt. eigenvalues --    6.13208   6.13208   6.57107   7.25399   7.25399
 Alpha virt. eigenvalues --    7.47956   8.41864   8.41864   8.59705   8.59705
 Alpha virt. eigenvalues --    8.73665   8.73665   8.76962   8.78883   8.78883
 Alpha virt. eigenvalues --    9.19584   9.19584   9.19692   9.81425   9.94956
 Alpha virt. eigenvalues --    9.94956  10.19224  10.19224  10.35972  10.35972
 Alpha virt. eigenvalues --   10.49826  10.49826  10.54653  10.54653  10.56780
 Alpha virt. eigenvalues --   10.75705  10.75705  10.86140  10.86140  10.99090
 Alpha virt. eigenvalues --   10.99090  11.00426  11.00426  11.06907  11.06907
 Alpha virt. eigenvalues --   11.08781  11.08781  11.16730  11.30609  11.30609
 Alpha virt. eigenvalues --   11.42969  11.67450  11.67450  11.77280  12.01795
 Alpha virt. eigenvalues --   12.01795  12.03820  12.18786  12.18786  12.32287
 Alpha virt. eigenvalues --   12.32287  12.68906  12.68906  12.73958  12.73958
 Alpha virt. eigenvalues --   14.02904  14.20102  14.20102  15.76501  16.63101
 Alpha virt. eigenvalues --   16.63101  17.02411  18.22048  18.22048  18.42072
 Alpha virt. eigenvalues --   18.42072  18.81287  19.85585  19.85585  20.01183
 Alpha virt. eigenvalues --   20.01183  20.61992  20.61992  21.00780  22.85671
 Alpha virt. eigenvalues --   24.54961  24.54961  24.62156  24.62156  24.79985
 Alpha virt. eigenvalues --   24.79985  24.90473  24.90473  25.23465  27.38675
 Alpha virt. eigenvalues --   27.38675  27.38868  27.38868  27.43434  27.43434
 Alpha virt. eigenvalues --   27.63433  27.63433  27.68856  28.07150  28.07785
 Alpha virt. eigenvalues --   28.07785  28.61293  28.61293  30.54940  33.17441
 Alpha virt. eigenvalues --   33.17441  33.64018  34.26875  34.26875  34.47682
 Alpha virt. eigenvalues --   34.47682  34.87843  44.45053  46.99435  46.99435
 Alpha virt. eigenvalues --   47.35115  47.35115  48.58769  50.48529  50.48529
 Alpha virt. eigenvalues --   50.60313  50.60313  51.02645  51.02645  51.30702
 Alpha virt. eigenvalues --   54.74080  54.74080  54.79616  54.79616  54.93198
 Alpha virt. eigenvalues --   54.93198  55.01042  55.01042  55.19747  57.68290
 Alpha virt. eigenvalues --   60.01792  60.01792  60.13997  60.13997  60.22752
 Alpha virt. eigenvalues --   60.54330  60.54330  60.54961  60.54961  60.57766
 Alpha virt. eigenvalues --   60.57766  60.68672  60.68672  60.89419  60.89419
 Alpha virt. eigenvalues --   61.05164  61.31699  61.31699  62.28924  70.69487
 Alpha virt. eigenvalues --   70.69487  71.83682  84.53268 101.04686 101.04686
 Alpha virt. eigenvalues --  101.20779 101.20779 101.35163 103.59227 103.59227
 Alpha virt. eigenvalues --  103.60193 103.60193 103.65148 103.65148 103.70331
 Alpha virt. eigenvalues --  108.89196 111.02655 111.02655 112.10461 156.46636
 Alpha virt. eigenvalues --  156.46636 157.42810 160.41418 179.85585 179.85585
 Alpha virt. eigenvalues --  180.00621 180.00621 180.14428 194.47192 204.00539
 Alpha virt. eigenvalues --  204.00539 205.14137 210.39262 210.39262 210.58286
 Alpha virt. eigenvalues --  210.58286 211.20975 311.30455 328.20850 328.20850
 Alpha virt. eigenvalues --  329.06925 338.35343 373.11941 373.11941 373.24449
 Alpha virt. eigenvalues --  373.24449 373.34210 382.85516 382.85516 384.01561
 Alpha virt. eigenvalues --  587.35659 615.96444 696.67274 696.67274 697.48352
 Alpha virt. eigenvalues --  737.35506 737.35506 738.45805 914.27944 914.27944
 Alpha virt. eigenvalues --  914.37892 914.37892 914.474751059.779951241.48894
 Alpha virt. eigenvalues -- 1469.632531469.632531470.677602227.501612560.22495
 Alpha virt. eigenvalues -- 2796.777242796.777242796.843802796.843802796.90735
 Alpha virt. eigenvalues -- 3068.716103068.716103069.679515438.734156103.67354
 Alpha virt. eigenvalues -- 6830.157826830.157826831.02293********************
 Alpha virt. eigenvalues -- **************************************************
 Alpha virt. eigenvalues -- **************************************************
 Alpha virt. eigenvalues -- **************************************************
 Alpha virt. eigenvalues -- ********************
     Molecular Orbital Coefficients:
                           9        10        11        12        13
                           O         O         O         O         O
     Eigenvalues --    -0.81903  -0.78621  -0.40826  -0.40826  -0.39763
   1 1   Zn 1S          0.00000  -0.00000   0.00000   0.00000   0.00000
   2        2S          0.00000   0.00000   0.00000   0.00000  -0.00000
   3        3S          0.00000  -0.00000   0.00000   0.00000   0.00000
   4        4S          0.00000   0.00000   0.00000   0.00000  -0.00000
   5        5S          0.00000  -0.00000   0.00000   0.00000   0.00000
   6        6S          0.00000   0.00000   0.00000   0.00000  -0.00000
   7        7S          0.00000  -0.00000   0.00000   0.00000   0.00001
   8        8S          0.00000   0.00000   0.00000   0.00000  -0.00002
   9        9S          0.00000  -0.00001   0.00000   0.00000   0.00006
  10       10S          0.00000   0.00002   0.00000   0.00000  -0.00017
  11       11S          0.00000  -0.00006   0.00000   0.00000   0.00046
  12       12S          0.00000   0.00016   0.00000   0.00000  -0.00118
  13       13S          0.00000  -0.00040   0.00000   0.00000   0.00291
  14       14S          0.00000   0.00141   0.00000   0.00000  -0.00984
  15       15S          0.00000  -0.00177   0.00000   0.00000   0.01263
  16       16S          0.00000  -0.01866   0.00000   0.00000   0.10999
  17       17S          0.00000   0.04891   0.00000   0.00000  -0.26353
  18       18S          0.00000   0.04408   0.00000   0.00000  -0.26496
  19       19S          0.00000   0.01789   0.00000   0.00000  -0.13619
  20       20S          0.00000  -0.08427   0.00000   0.00000   0.32909
  21       21S          0.00000  -0.03237   0.00000   0.00000   0.27564
  22       22S          0.00000  -0.00224   0.00000   0.00000   0.04129
  23       23S          0.00000   0.00324   0.00000   0.00000  -0.01639
  24       24S          0.00000  -0.03949   0.00000   0.00000   0.20698
  25       25S          0.00000   0.00063   0.00000   0.00000  -0.00130
  26       26PX         0.00000   0.00000   0.00000  -0.00000   0.00000
  27       26PY         0.00000   0.00000  -0.00000   0.00000   0.00000
  28       26PZ         0.00000  -0.00000   0.00000   0.00000   0.00000
  29       27PX         0.00000   0.00000   0.00000   0.00000   0.00000
  30       27PY         0.00000   0.00000   0.00000   0.00000   0.00000
  31       27PZ         0.00000   0.00000   0.00000   0.00000  -0.00000
  32       28PX         0.00000   0.00000   0.00000  -0.00000   0.00000
  33       28PY         0.00000   0.00000  -0.00000   0.00000   0.00000
  34       28PZ         0.00000  -0.00000   0.00000   0.00000   0.00000
  35       29PX         0.00000   0.00000   0.00000   0.00000   0.00000
  36       29PY         0.00000   0.00000   0.00000   0.00000   0.00000
  37       29PZ         0.00000   0.00000   0.00000   0.00000  -0.00000
  38       30PX         0.00000   0.00000   0.00000  -0.00001   0.00000
  39       30PY         0.00000   0.00000  -0.00001   0.00000   0.00000
  40       30PZ         0.00000  -0.00000   0.00000   0.00000   0.00000
  41       31PX         0.00000   0.00000   0.00000   0.00002   0.00000
  42       31PY         0.00000   0.00000   0.00002   0.00000   0.00000
  43       31PZ         0.00000   0.00001   0.00000   0.00000  -0.00001
  44       32PX         0.00000   0.00000   0.00000  -0.00006   0.00000
  45       32PY         0.00000   0.00000  -0.00006   0.00000   0.00000
  46       32PZ         0.00000  -0.00002   0.00000   0.00000   0.00004
  47       33PX         0.00000   0.00000   0.00000   0.00018   0.00000
  48       33PY         0.00000   0.00000   0.00018   0.00000   0.00000
  49       33PZ         0.00000   0.00006   0.00000   0.00000  -0.00012
  50       34PX         0.00000   0.00000   0.00000  -0.00062   0.00000
  51       34PY         0.00000   0.00000  -0.00062   0.00000   0.00000
  52       34PZ         0.00000  -0.00018   0.00000   0.00000   0.00041
  53       35PX         0.00000   0.00000   0.00000   0.00219   0.00000
  54       35PY         0.00000   0.00000   0.00219   0.00000   0.00000
  55       35PZ         0.00000   0.00062   0.00000   0.00000  -0.00144
  56       36PX         0.00000   0.00000   0.00000  -0.00437   0.00000
  57       36PY         0.00000   0.00000  -0.00437   0.00000   0.00000
  58       36PZ         0.00000   0.00149   0.00000   0.00000   0.00589
  59       37PX         0.00000   0.00000   0.00000  -0.02510   0.00000
  60       37PY         0.00000   0.00000  -0.02510   0.00000   0.00000
  61       37PZ         0.00000  -0.00392   0.00000   0.00000   0.02199
  62       38PX         0.00000   0.00000   0.00000  -0.03141   0.00000
  63       38PY         0.00000   0.00000  -0.03141   0.00000   0.00000
  64       38PZ         0.00000  -0.00175   0.00000   0.00000   0.04143
  65       39PX         0.00000   0.00000   0.00000  -0.05182   0.00000
  66       39PY         0.00000   0.00000  -0.05182   0.00000   0.00000
  67       39PZ         0.00000  -0.00717   0.00000   0.00000   0.04210
  68       40PX         0.00000   0.00000   0.00000   0.00240   0.00000
  69       40PY         0.00000   0.00000   0.00240   0.00000   0.00000
  70       40PZ         0.00000  -0.00591   0.00000   0.00000  -0.00072
  71       41PX         0.00000   0.00000   0.00000   0.09081   0.00000
  72       41PY         0.00000   0.00000   0.09081   0.00000   0.00000
  73       41PZ         0.00000   0.01527   0.00000   0.00000  -0.05878
  74       42PX         0.00000   0.00000   0.00000   0.08010   0.00000
  75       42PY         0.00000   0.00000   0.08010   0.00000   0.00000
  76       42PZ         0.00000   0.00715   0.00000   0.00000   0.00794
  77       43PX         0.00000   0.00000   0.00000   0.01057   0.00000
  78       43PY         0.00000   0.00000   0.01057   0.00000   0.00000
  79       43PZ         0.00000  -0.00095   0.00000   0.00000   0.00987
  80       44PX         0.00000   0.00000   0.00000   0.00612   0.00000
  81       44PY         0.00000   0.00000   0.00612   0.00000   0.00000
  82       44PZ         0.00000  -0.00104   0.00000   0.00000  -0.00753
  83       45PX         0.00000   0.00000   0.00000  -0.00902   0.00000
  84       45PY         0.00000   0.00000  -0.00902   0.00000   0.00000
  85       45PZ         0.00000  -0.00441   0.00000   0.00000  -0.00503
  86       46PX         0.00000   0.00000   0.00000  -0.00230   0.00000
  87       46PY         0.00000   0.00000  -0.00230   0.00000   0.00000
  88       46PZ         0.00000   0.00012   0.00000   0.00000  -0.00174
  89       47D 0        0.00000  -0.00000   0.00000   0.00000   0.00000
  90       47D+1        0.00000   0.00000   0.00000  -0.00000   0.00000
  91       47D-1        0.00000   0.00000  -0.00000   0.00000   0.00000
  92       47D+2        0.00000   0.00000   0.00000   0.00000  -0.00000
  93       47D-2       -0.00000   0.00000   0.00000   0.00000   0.00000
  94       48D 0        0.00000   0.00001   0.00000   0.00000  -0.00000
  95       48D+1        0.00000   0.00000   0.00000   0.00000   0.00000
  96       48D-1        0.00000   0.00000   0.00000   0.00000   0.00000
  97       48D+2        0.00000  -0.00000   0.00000   0.00000   0.00000
  98       48D-2        0.00001   0.00000   0.00000   0.00000   0.00000
  99       49D 0        0.00000  -0.00009   0.00000   0.00000   0.00001
 100       49D+1        0.00000   0.00000   0.00000  -0.00002   0.00000
 101       49D-1        0.00000   0.00000  -0.00002   0.00000   0.00000
 102       49D+2        0.00000   0.00000   0.00000   0.00000  -0.00000
 103       49D-2       -0.00010   0.00000   0.00000   0.00000   0.00000
 104       50D 0        0.00000   0.00213   0.00000   0.00000  -0.00046
 105       50D+1        0.00000   0.00000   0.00000   0.00063   0.00000
 106       50D-1        0.00000   0.00000   0.00063   0.00000   0.00000
 107       50D+2        0.00000  -0.00000   0.00000   0.00000   0.00000
 108       50D-2        0.00237   0.00000   0.00000   0.00000   0.00000
 109       51D 0        0.00000   0.06487   0.00000   0.00000  -0.01620
 110       51D+1        0.00000   0.00000   0.00000   0.01989   0.00000
 111       51D-1        0.00000   0.00000   0.01989   0.00000   0.00000
 112       51D+2        0.00000   0.00000   0.00000   0.00000  -0.00000
 113       51D-2        0.07346   0.00000   0.00000   0.00000   0.00000
 114       52D 0        0.00000   0.13034   0.00000   0.00000  -0.04030
 115       52D+1        0.00000   0.00000   0.00000   0.04179   0.00000
 116       52D-1        0.00000   0.00000   0.04179   0.00000   0.00000
 117       52D+2        0.00000   0.00000   0.00000   0.00000  -0.00000
 118       52D-2        0.15134   0.00000   0.00000   0.00000   0.00000
 119       53D 0        0.00000   0.23918   0.00000   0.00000  -0.06379
 120       53D+1        0.00000   0.00000   0.00000   0.07375   0.00000
 121       53D-1        0.00000   0.00000   0.07375   0.00000   0.00000
 122       53D+2        0.00000  -0.00000   0.00000   0.00000  -0.00000
 123       53D-2        0.27202   0.00000   0.00000   0.00000   0.00000
 124       54D 0        0.00000   0.26840   0.00000   0.00000  -0.06221
 125       54D+1        0.00000   0.00000   0.00000   0.08101   0.00000
 126       54D-1        0.00000   0.00000   0.08101   0.00000   0.00000
 127       54D+2        0.00000  -0.00000   0.00000   0.00000  -0.00000
 128       54D-2        0.30064   0.00000   0.00000   0.00000   0.00000
 129       55D 0        0.00000   0.22388   0.00000   0.00000  -0.05100
 130       55D+1        0.00000   0.00000   0.00000   0.06031   0.00000
 131       55D-1        0.00000   0.00000   0.06031   0.00000   0.00000
 132       55D+2        0.00000  -0.00000   0.00000   0.00000   0.00000
 133       55D-2        0.24324   0.00000   0.00000   0.00000   0.00000
 134       56D 0        0.00000   0.12451   0.00000   0.00000  -0.02166
 135       56D+1        0.00000   0.00000   0.00000   0.02297   0.00000
 136       56D-1        0.00000   0.00000   0.02297   0.00000   0.00000
 137       56D+2        0.00000  -0.00000   0.00000   0.00000  -0.00000
 138       56D-2        0.13736   0.00000   0.00000   0.00000   0.00000
 139       57D 0        0.00000   0.02967   0.00000   0.00000  -0.01185
 140       57D+1        0.00000   0.00000   0.00000   0.01002   0.00000
 141       57D-1        0.00000   0.00000   0.01002   0.00000   0.00000
 142       57D+2        0.00000  -0.00000   0.00000   0.00000   0.00000
 143       57D-2        0.03359   0.00000   0.00000   0.00000   0.00000
 144       58D 0        0.00000   0.07504   0.00000   0.00000  -0.01297
 145       58D+1        0.00000   0.00000   0.00000   0.02133   0.00000
 146       58D-1        0.00000   0.00000   0.02133   0.00000   0.00000
 147       58D+2        0.00000  -0.00000   0.00000   0.00000   0.00000
 148       58D-2        0.08210   0.00000   0.00000   0.00000   0.00000
 149       59D 0        0.00000   0.03195   0.00000   0.00000   0.00133
 150       59D+1        0.00000   0.00000   0.00000   0.00734   0.00000
 151       59D-1        0.00000   0.00000   0.00734   0.00000   0.00000
 152       59D+2        0.00000  -0.00000   0.00000   0.00000   0.00000
 153       59D-2        0.03194   0.00000   0.00000   0.00000   0.00000
 154       60D 0        0.00000   0.00041   0.00000   0.00000  -0.01135
 155       60D+1        0.00000   0.00000   0.00000  -0.00017   0.00000
 156       60D-1        0.00000   0.00000  -0.00017   0.00000   0.00000
 157       60D+2        0.00000   0.00000   0.00000   0.00000  -0.00000
 158       60D-2        0.00038   0.00000   0.00000   0.00000   0.00000
 159       61F 0        0.00000   0.00028   0.00000   0.00000  -0.00036
 160       61F+1        0.00000   0.00000   0.00000   0.00027   0.00000
 161       61F-1        0.00000   0.00000   0.00027   0.00000   0.00000
 162       61F+2        0.00000   0.00000   0.00000   0.00000  -0.00000
 163       61F-2        0.00030   0.00000   0.00000   0.00000   0.00000
 164       61F+3        0.00000   0.00000   0.00000  -0.00000   0.00000
 165       61F-3        0.00000   0.00000  -0.00000   0.00000   0.00000
 166       62F 0        0.00000   0.00092   0.00000   0.00000  -0.00075
 167       62F+1        0.00000   0.00000   0.00000   0.00091   0.00000
 168       62F-1        0.00000   0.00000   0.00091   0.00000   0.00000
 169       62F+2        0.00000   0.00000   0.00000   0.00000  -0.00000
 170       62F-2        0.00083   0.00000   0.00000   0.00000   0.00000
 171       62F+3        0.00000   0.00000   0.00000   0.00000   0.00000
 172       62F-3        0.00000   0.00000  -0.00000   0.00000   0.00000
 173       63F 0        0.00000   0.00115   0.00000   0.00000  -0.00288
 174       63F+1        0.00000   0.00000   0.00000   0.00202   0.00000
 175       63F-1        0.00000   0.00000   0.00202   0.00000   0.00000
 176       63F+2        0.00000   0.00000   0.00000   0.00000  -0.00000
 177       63F-2        0.00160   0.00000   0.00000   0.00000   0.00000
 178       63F+3        0.00000   0.00000   0.00000  -0.00000   0.00000
 179       63F-3        0.00000   0.00000  -0.00000   0.00000   0.00000
 180       64F 0        0.00000   0.00116   0.00000   0.00000  -0.00936
 181       64F+1        0.00000   0.00000   0.00000   0.01048   0.00000
 182       64F-1        0.00000   0.00000   0.01048   0.00000   0.00000
 183       64F+2        0.00000   0.00000   0.00000   0.00000  -0.00000
 184       64F-2        0.00465   0.00000   0.00000   0.00000   0.00000
 185       64F+3        0.00000   0.00000   0.00000  -0.00000   0.00000
 186       64F-3        0.00000   0.00000  -0.00000   0.00000   0.00000
 187       65F 0        0.00000   0.00727   0.00000   0.00000  -0.00976
 188       65F+1        0.00000   0.00000   0.00000   0.01114   0.00000
 189       65F-1        0.00000   0.00000   0.01114   0.00000   0.00000
 190       65F+2        0.00000   0.00000   0.00000   0.00000  -0.00000
 191       65F-2        0.00556   0.00000   0.00000   0.00000   0.00000
 192       65F+3        0.00000   0.00000   0.00000   0.00000   0.00000
 193       65F-3        0.00000   0.00000   0.00000   0.00000   0.00000
 194       66G 0        0.00000   0.00001   0.00000   0.00000   0.00004
 195       66G+1        0.00000   0.00000   0.00000  -0.00005   0.00000
 196       66G-1        0.00000   0.00000  -0.00005   0.00000   0.00000
 197       66G+2        0.00000   0.00000   0.00000   0.00000  -0.00000
 198       66G-2       -0.00000   0.00000   0.00000   0.00000   0.00000
 199       66G+3        0.00000   0.00000   0.00000  -0.00000   0.00000
 200       66G-3        0.00000   0.00000  -0.00000   0.00000   0.00000
 201       66G+4        0.00000  -0.00000   0.00000   0.00000   0.00000
 202       66G-4        0.00000   0.00000   0.00000   0.00000   0.00000
 203       67G 0        0.00000  -0.00009   0.00000   0.00000   0.00001
 204       67G+1        0.00000   0.00000   0.00000   0.00001   0.00000
 205       67G-1        0.00000   0.00000   0.00001   0.00000   0.00000
 206       67G+2        0.00000  -0.00000   0.00000   0.00000   0.00000
 207       67G-2        0.00003   0.00000   0.00000   0.00000   0.00000
 208       67G+3        0.00000   0.00000   0.00000   0.00000   0.00000
 209       67G-3        0.00000   0.00000   0.00000   0.00000   0.00000
 210       67G+4        0.00000   0.00000   0.00000   0.00000  -0.00000
 211       67G-4        0.00000   0.00000   0.00000   0.00000   0.00000
 212       68G 0        0.00000   0.00110   0.00000   0.00000   0.00058
 213       68G+1        0.00000   0.00000   0.00000  -0.00046   0.00000
 214       68G-1        0.00000   0.00000  -0.00046   0.00000   0.00000
 215       68G+2        0.00000   0.00000   0.00000   0.00000  -0.00000
 216       68G-2        0.00039   0.00000   0.00000   0.00000   0.00000
 217       68G+3        0.00000   0.00000   0.00000  -0.00000   0.00000
 218       68G-3        0.00000   0.00000  -0.00000   0.00000   0.00000
 219       68G+4        0.00000  -0.00000   0.00000   0.00000   0.00000
 220       68G-4       -0.00000   0.00000   0.00000   0.00000   0.00000
 221       69G 0        0.00000   0.00254   0.00000   0.00000   0.00206
 222       69G+1        0.00000   0.00000   0.00000  -0.00236   0.00000
 223       69G-1        0.00000   0.00000  -0.00236   0.00000   0.00000
 224       69G+2        0.00000  -0.00000   0.00000   0.00000   0.00000
 225       69G-2        0.00072   0.00000   0.00000   0.00000   0.00000
 226       69G+3        0.00000   0.00000   0.00000   0.00000   0.00000
 227       69G-3        0.00000   0.00000   0.00000   0.00000   0.00000
 228       69G+4        0.00000   0.00000   0.00000   0.00000  -0.00000
 229       69G-4       -0.00000   0.00000   0.00000   0.00000   0.00000
 230       70H 0        0.00000  -0.00010   0.00000   0.00000   0.00001
 231       70H+1        0.00000   0.00000   0.00000   0.00004   0.00000
 232       70H-1        0.00000   0.00000   0.00004   0.00000   0.00000
 233       70H+2        0.00000  -0.00000   0.00000   0.00000   0.00000
 234       70H-2       -0.00005   0.00000   0.00000   0.00000   0.00000
 235       70H+3        0.00000   0.00000   0.00000  -0.00000   0.00000
 236       70H-3        0.00000   0.00000  -0.00000   0.00000   0.00000
 237       70H+4        0.00000  -0.00000   0.00000   0.00000   0.00000
 238       70H-4       -0.00000   0.00000   0.00000   0.00000   0.00000
 239       70H+5        0.00000   0.00000   0.00000   0.00000   0.00000
 240       70H-5        0.00000   0.00000   0.00000   0.00000   0.00000
 241       71H 0        0.00000   0.00017   0.00000   0.00000   0.00001
 242       71H+1        0.00000   0.00000   0.00000  -0.00020   0.00000
 243       71H-1        0.00000   0.00000  -0.00020   0.00000   0.00000
 244       71H+2        0.00000   0.00000   0.00000   0.00000  -0.00000
 245       71H-2        0.00005   0.00000   0.00000   0.00000   0.00000
 246       71H+3        0.00000   0.00000   0.00000   0.00000   0.00000
 247       71H-3        0.00000   0.00000   0.00000   0.00000   0.00000
 248       71H+4        0.00000   0.00000   0.00000   0.00000  -0.00000
 249       71H-4        0.00000   0.00000   0.00000   0.00000   0.00000
 250       71H+5        0.00000   0.00000   0.00000   0.00000   0.00000
 251       71H-5        0.00000   0.00000   0.00000   0.00000   0.00000
 252       72H 0        0.00000  -0.00087   0.00000   0.00000  -0.00032
 253       72H+1        0.00000   0.00000   0.00000   0.00070   0.00000
 254       72H-1        0.00000   0.00000   0.00070   0.00000   0.00000
 255       72H+2        0.00000  -0.00000   0.00000   0.00000   0.00000
 256       72H-2       -0.00026   0.00000   0.00000   0.00000   0.00000
 257       72H+3        0.00000   0.00000   0.00000   0.00000   0.00000
 258       72H-3        0.00000   0.00000   0.00000   0.00000   0.00000
 259       72H+4        0.00000  -0.00000   0.00000   0.00000   0.00000
 260       72H-4       -0.00000   0.00000   0.00000   0.00000   0.00000
 261       72H+5        0.00000   0.00000   0.00000  -0.00000   0.00000
 262       72H-5        0.00000   0.00000  -0.00000   0.00000   0.00000
 263 2   O  1S          0.00000   0.00000   0.00000   0.00000   0.00000
 264        2S          0.00000  -0.00000   0.00000   0.00000  -0.00000
 265        3S          0.00000   0.00000   0.00000   0.00000   0.00000
 266        4S          0.00000  -0.00001   0.00000   0.00000  -0.00000
 267        5S          0.00000   0.00013   0.00000   0.00000   0.00004
 268        6S          0.00000   0.00285   0.00000   0.00000   0.00099
 269        7S          0.00000   0.01495   0.00000   0.00000   0.00577
 270        8S          0.00000   0.05509   0.00000   0.00000   0.02564
 271        9S          0.00000   0.02947   0.00000   0.00000   0.01789
 272       10S          0.00000  -0.08183   0.00000   0.00000  -0.05350
 273       11S          0.00000  -0.19377   0.00000   0.00000  -0.11992
 274       12S          0.00000  -0.15449   0.00000   0.00000  -0.15345
 275       13S          0.00000  -0.05301   0.00000   0.00000  -0.02411
 276       14S          0.00000  -0.01054   0.00000   0.00000  -0.00392
 277       15S          0.00000  -0.00144   0.00000   0.00000  -0.00049
 278       16S          0.00000  -0.01299   0.00000   0.00000  -0.05046
 279       17PX         0.00000   0.00000   0.00000  -0.00092   0.00000
 280       17PY         0.00000   0.00000  -0.00092   0.00000   0.00000
 281       17PZ         0.00000  -0.00050   0.00000   0.00000  -0.00087
 282       18PX         0.00000   0.00000   0.00000  -0.45518   0.00000
 283       18PY         0.00000   0.00000  -0.45518   0.00000   0.00000
 284       18PZ         0.00000  -0.17172   0.00000   0.00000  -0.39373
 285       19PX         0.00000   0.00000   0.00000   0.13388   0.00000
 286       19PY         0.00000   0.00000   0.13388   0.00000   0.00000
 287       19PZ         0.00000   0.03904   0.00000   0.00000   0.11027
 288       20PX         0.00000   0.00000   0.00000   0.29603   0.00000
 289       20PY         0.00000   0.00000   0.29603   0.00000   0.00000
 290       20PZ         0.00000   0.09335   0.00000   0.00000   0.24704
 291       21PX         0.00000   0.00000   0.00000   0.38680   0.00000
 292       21PY         0.00000   0.00000   0.38680   0.00000   0.00000
 293       21PZ         0.00000   0.09187   0.00000   0.00000   0.30973
 294       22PX         0.00000   0.00000   0.00000   0.28137   0.00000
 295       22PY         0.00000   0.00000   0.28137   0.00000   0.00000
 296       22PZ         0.00000   0.03395   0.00000   0.00000   0.20159
 297       23PX         0.00000   0.00000   0.00000   0.48783   0.00000
 298       23PY         0.00000   0.00000   0.48783   0.00000   0.00000
 299       23PZ         0.00000   0.18197   0.00000   0.00000   0.42098
 300       24PX         0.00000   0.00000   0.00000   0.00206   0.00000
 301       24PY         0.00000   0.00000   0.00206   0.00000   0.00000
 302       24PZ         0.00000   0.00100   0.00000   0.00000   0.00189
 303       25PX         0.00000   0.00000   0.00000   0.00010   0.00000
 304       25PY         0.00000   0.00000   0.00010   0.00000   0.00000
 305       25PZ         0.00000   0.00006   0.00000   0.00000   0.00010
 306       26PX         0.00000   0.00000   0.00000   0.04170   0.00000
 307       26PY         0.00000   0.00000   0.04170   0.00000   0.00000
 308       26PZ         0.00000   0.00176   0.00000   0.00000   0.02675
 309       27D 0        0.00000   0.00248   0.00000   0.00000   0.00157
 310       27D+1        0.00000   0.00000   0.00000   0.00162   0.00000
 311       27D-1        0.00000   0.00000   0.00162   0.00000   0.00000
 312       27D+2        0.00000   0.00000   0.00000   0.00000  -0.00000
 313       27D-2        0.00027   0.00000   0.00000   0.00000   0.00000
 314       28D 0        0.00000   0.01108   0.00000   0.00000   0.00702
 315       28D+1        0.00000   0.00000   0.00000   0.01060   0.00000
 316       28D-1        0.00000   0.00000   0.01060   0.00000   0.00000
 317       28D+2        0.00000  -0.00000   0.00000   0.00000   0.00000
 318       28D-2        0.00188   0.00000   0.00000   0.00000   0.00000
 319       29D 0        0.00000   0.00753   0.00000   0.00000   0.01623
 320       29D+1        0.00000   0.00000   0.00000   0.02552   0.00000
 321       29D-1        0.00000   0.00000   0.02552   0.00000   0.00000
 322       29D+2        0.00000   0.00000   0.00000   0.00000  -0.00000
 323       29D-2        0.00315   0.00000   0.00000   0.00000   0.00000
 324       30D 0        0.00000   0.00028   0.00000   0.00000   0.00017
 325       30D+1        0.00000   0.00000   0.00000   0.00025   0.00000
 326       30D-1        0.00000   0.00000   0.00025   0.00000   0.00000
 327       30D+2        0.00000   0.00000   0.00000   0.00000  -0.00000
 328       30D-2        0.00005   0.00000   0.00000   0.00000   0.00000
 329       31D 0        0.00000  -0.00001   0.00000   0.00000  -0.00001
 330       31D+1        0.00000   0.00000   0.00000  -0.00002   0.00000
 331       31D-1        0.00000   0.00000  -0.00002   0.00000   0.00000
 332       31D+2        0.00000  -0.00000   0.00000   0.00000   0.00000
 333       31D-2       -0.00000   0.00000   0.00000   0.00000   0.00000
 334       32D 0        0.00000   0.00145   0.00000   0.00000   0.00948
 335       32D+1        0.00000   0.00000   0.00000   0.01762   0.00000
 336       32D-1        0.00000   0.00000   0.01762   0.00000   0.00000
 337       32D+2        0.00000   0.00000   0.00000   0.00000  -0.00000
 338       32D-2        0.00002   0.00000   0.00000   0.00000   0.00000
 339       33F 0        0.00000   0.00170   0.00000   0.00000   0.00066
 340       33F+1        0.00000   0.00000   0.00000   0.00090   0.00000
 341       33F-1        0.00000   0.00000   0.00090   0.00000   0.00000
 342       33F+2        0.00000   0.00000   0.00000   0.00000  -0.00000
 343       33F-2        0.00027   0.00000   0.00000   0.00000   0.00000
 344       33F+3        0.00000   0.00000   0.00000  -0.00000   0.00000
 345       33F-3        0.00000   0.00000  -0.00000   0.00000   0.00000
 346       34F 0        0.00000   0.00389   0.00000   0.00000   0.00289
 347       34F+1        0.00000   0.00000   0.00000   0.00538   0.00000
 348       34F-1        0.00000   0.00000   0.00538   0.00000   0.00000
 349       34F+2        0.00000  -0.00000   0.00000   0.00000   0.00000
 350       34F-2        0.00153   0.00000   0.00000   0.00000   0.00000
 351       34F+3        0.00000   0.00000   0.00000   0.00000   0.00000
 352       34F-3        0.00000   0.00000   0.00000   0.00000   0.00000
 353       35F 0        0.00000   0.00001   0.00000   0.00000   0.00001
 354       35F+1        0.00000   0.00000   0.00000   0.00001   0.00000
 355       35F-1        0.00000   0.00000   0.00001   0.00000   0.00000
 356       35F+2        0.00000   0.00000   0.00000   0.00000  -0.00000
 357       35F-2        0.00000   0.00000   0.00000   0.00000   0.00000
 358       35F+3        0.00000   0.00000   0.00000  -0.00000   0.00000
 359       35F-3        0.00000   0.00000  -0.00000   0.00000   0.00000
 360       36F 0        0.00000   0.00043   0.00000   0.00000   0.00576
 361       36F+1        0.00000   0.00000   0.00000   0.00438   0.00000
 362       36F-1        0.00000   0.00000   0.00438   0.00000   0.00000
 363       36F+2        0.00000   0.00000   0.00000   0.00000  -0.00000
 364       36F-2        0.00040   0.00000   0.00000   0.00000   0.00000
 365       36F+3        0.00000   0.00000   0.00000  -0.00000   0.00000
 366       36F-3        0.00000   0.00000  -0.00000   0.00000   0.00000
 367       37G 0        0.00000   0.00107   0.00000   0.00000  -0.00004
 368       37G+1        0.00000   0.00000   0.00000   0.00045   0.00000
 369       37G-1        0.00000   0.00000   0.00045   0.00000   0.00000
[...]
 163       61F-2        0.00000   0.00000   0.00000   0.00000
 164       61F+3        0.00000   0.00000   0.00000   0.00000
 165       61F-3       -0.00000  -0.00000  -0.00000   0.00000
 166       62F 0        0.00002   0.00001   0.00001   0.00000
 167       62F+1        0.00002   0.00001   0.00001   0.00000
 168       62F-1        0.00002   0.00001   0.00001   0.00000
 169       62F+2        0.00000   0.00000   0.00000   0.00000
 170       62F-2        0.00000   0.00000   0.00000   0.00000
 171       62F+3        0.00000   0.00000   0.00000   0.00000
 172       62F-3        0.00000   0.00000   0.00000   0.00000
 173       63F 0        0.00027   0.00013   0.00013   0.00000
 174       63F+1        0.00013   0.00006   0.00006   0.00000
 175       63F-1        0.00013   0.00006   0.00006   0.00000
 176       63F+2        0.00002   0.00001   0.00001   0.00000
 177       63F-2        0.00002   0.00001   0.00001   0.00000
 178       63F+3       -0.00000  -0.00000  -0.00000   0.00000
 179       63F-3        0.00000   0.00000   0.00000   0.00000
 180       64F 0        0.00346   0.00173   0.00173   0.00000
 181       64F+1        0.00347   0.00174   0.00174   0.00000
 182       64F-1        0.00347   0.00174   0.00174   0.00000
 183       64F+2        0.00007   0.00003   0.00003   0.00000
 184       64F-2        0.00007   0.00003   0.00003   0.00000
 185       64F+3       -0.00000  -0.00000  -0.00000   0.00000
 186       64F-3        0.00000   0.00000   0.00000   0.00000
 187       65F 0        0.00138   0.00069   0.00069   0.00000
 188       65F+1        0.00832   0.00416   0.00416   0.00000
 189       65F-1        0.00832   0.00416   0.00416   0.00000
 190       65F+2        0.00007   0.00003   0.00003   0.00000
 191       65F-2        0.00007   0.00003   0.00003   0.00000
 192       65F+3        0.00000   0.00000   0.00000   0.00000
 193       65F-3        0.00000   0.00000   0.00000   0.00000
 194       66G 0        0.00000   0.00000   0.00000   0.00000
 195       66G+1        0.00000   0.00000   0.00000   0.00000
 196       66G-1        0.00000   0.00000   0.00000   0.00000
 197       66G+2       -0.00000  -0.00000  -0.00000   0.00000
 198       66G-2       -0.00000  -0.00000  -0.00000   0.00000
 199       66G+3       -0.00000  -0.00000  -0.00000   0.00000
 200       66G-3        0.00000   0.00000   0.00000   0.00000
 201       66G+4       -0.00000  -0.00000  -0.00000   0.00000
 202       66G-4       -0.00000  -0.00000  -0.00000   0.00000
 203       67G 0       -0.00000  -0.00000  -0.00000   0.00000
 204       67G+1       -0.00000  -0.00000  -0.00000   0.00000
 205       67G-1       -0.00000  -0.00000  -0.00000   0.00000
 206       67G+2        0.00000   0.00000   0.00000   0.00000
 207       67G-2        0.00000   0.00000   0.00000   0.00000
 208       67G+3       -0.00000  -0.00000  -0.00000   0.00000
 209       67G-3       -0.00000  -0.00000  -0.00000   0.00000
 210       67G+4        0.00000   0.00000   0.00000   0.00000
 211       67G-4        0.00000   0.00000   0.00000   0.00000
 212       68G 0        0.00008   0.00004   0.00004   0.00000
 213       68G+1        0.00004   0.00002   0.00002   0.00000
 214       68G-1        0.00004   0.00002   0.00002   0.00000
 215       68G+2        0.00000   0.00000   0.00000   0.00000
 216       68G-2        0.00000   0.00000   0.00000   0.00000
 217       68G+3       -0.00000  -0.00000  -0.00000   0.00000
 218       68G-3       -0.00000  -0.00000  -0.00000   0.00000
 219       68G+4       -0.00000  -0.00000  -0.00000   0.00000
 220       68G-4       -0.00000  -0.00000  -0.00000   0.00000
 221       69G 0        0.00076   0.00038   0.00038   0.00000
 222       69G+1        0.00086   0.00043   0.00043   0.00000
 223       69G-1        0.00086   0.00043   0.00043   0.00000
 224       69G+2        0.00000   0.00000   0.00000   0.00000
 225       69G-2        0.00000   0.00000   0.00000   0.00000
 226       69G+3        0.00000   0.00000   0.00000   0.00000
 227       69G-3       -0.00000  -0.00000  -0.00000   0.00000
 228       69G+4       -0.00000  -0.00000  -0.00000   0.00000
 229       69G-4        0.00000   0.00000   0.00000   0.00000
 230       70H 0        0.00000   0.00000   0.00000   0.00000
 231       70H+1        0.00000   0.00000   0.00000   0.00000
 232       70H-1        0.00000   0.00000   0.00000   0.00000
 233       70H+2        0.00000   0.00000   0.00000   0.00000
 234       70H-2        0.00000   0.00000   0.00000   0.00000
 235       70H+3        0.00000   0.00000   0.00000   0.00000
 236       70H-3        0.00000   0.00000   0.00000   0.00000
 237       70H+4       -0.00000  -0.00000  -0.00000   0.00000
 238       70H-4       -0.00000  -0.00000  -0.00000   0.00000
 239       70H+5        0.00000   0.00000   0.00000   0.00000
 240       70H-5        0.00000   0.00000   0.00000   0.00000
 241       71H 0       -0.00000  -0.00000  -0.00000   0.00000
 242       71H+1       -0.00000  -0.00000  -0.00000   0.00000
 243       71H-1       -0.00000  -0.00000  -0.00000   0.00000
 244       71H+2       -0.00000  -0.00000  -0.00000   0.00000
 245       71H-2       -0.00000  -0.00000  -0.00000   0.00000
 246       71H+3       -0.00000  -0.00000  -0.00000   0.00000
 247       71H-3        0.00000   0.00000   0.00000   0.00000
 248       71H+4        0.00000   0.00000   0.00000   0.00000
 249       71H-4        0.00000   0.00000   0.00000   0.00000
 250       71H+5        0.00000   0.00000   0.00000   0.00000
 251       71H-5       -0.00000  -0.00000  -0.00000   0.00000
 252       72H 0        0.00005   0.00002   0.00002   0.00000
 253       72H+1        0.00004   0.00002   0.00002   0.00000
 254       72H-1        0.00004   0.00002   0.00002   0.00000
 255       72H+2        0.00000   0.00000   0.00000   0.00000
 256       72H-2        0.00000   0.00000   0.00000   0.00000
 257       72H+3        0.00000   0.00000   0.00000   0.00000
 258       72H-3        0.00000   0.00000   0.00000   0.00000
 259       72H+4       -0.00000  -0.00000  -0.00000   0.00000
 260       72H-4       -0.00000  -0.00000  -0.00000   0.00000
 261       72H+5        0.00000   0.00000   0.00000   0.00000
 262       72H-5       -0.00000  -0.00000  -0.00000   0.00000
 263 2   O  1S         -0.00000  -0.00000  -0.00000   0.00000
 264        2S          0.00000   0.00000   0.00000   0.00000
 265        3S         -0.00000  -0.00000  -0.00000   0.00000
 266        4S          0.00000   0.00000   0.00000   0.00000
 267        5S         -0.00001  -0.00000  -0.00000   0.00000
 268        6S         -0.00033  -0.00016  -0.00016   0.00000
 269        7S         -0.00462  -0.00231  -0.00231   0.00000
 270        8S         -0.04913  -0.02457  -0.02457   0.00000
 271        9S         -0.08920  -0.04460  -0.04460   0.00000
 272       10S          0.41852   0.20926   0.20926   0.00000
 273       11S          1.06072   0.53036   0.53036   0.00000
 274       12S          0.56505   0.28252   0.28252   0.00000
 275       13S          0.04049   0.02024   0.02024   0.00000
 276       14S          0.00244   0.00122   0.00122   0.00000
 277       15S          0.00013   0.00006   0.00006   0.00000
 278       16S          0.05061   0.02531   0.02531   0.00000
 279       17PX        -0.00012  -0.00006  -0.00006   0.00000
 280       17PY        -0.00012  -0.00006  -0.00006   0.00000
 281       17PZ        -0.00011  -0.00006  -0.00006   0.00000
 282       18PX        -0.22769  -0.11385  -0.11385   0.00000
 283       18PY        -0.22769  -0.11385  -0.11385   0.00000
 284       18PZ        -0.18993  -0.09497  -0.09497   0.00000
 285       19PX         0.14371   0.07185   0.07185   0.00000
 286       19PY         0.14371   0.07185   0.07185   0.00000
 287       19PZ         0.11243   0.05622   0.05622   0.00000
 288       20PX         0.48024   0.24012   0.24012   0.00000
 289       20PY         0.48024   0.24012   0.24012   0.00000
 290       20PZ         0.39217   0.19608   0.19608   0.00000
 291       21PX         0.71171   0.35586   0.35586   0.00000
 292       21PY         0.71171   0.35586   0.35586   0.00000
 293       21PZ         0.54830   0.27415   0.27415   0.00000
 294       22PX         0.42655   0.21327   0.21327   0.00000
 295       22PY         0.42655   0.21327   0.21327   0.00000
 296       22PZ         0.31285   0.15642   0.15642   0.00000
 297       23PX         0.24637   0.12318   0.12318   0.00000
 298       23PY         0.24637   0.12318   0.12318   0.00000
 299       23PZ         0.20481   0.10240   0.10240   0.00000
 300       24PX         0.00040   0.00020   0.00020   0.00000
 301       24PY         0.00040   0.00020   0.00020   0.00000
 302       24PZ         0.00036   0.00018   0.00018   0.00000
 303       25PX         0.00001   0.00000   0.00000   0.00000
 304       25PY         0.00001   0.00000   0.00000   0.00000
 305       25PZ         0.00001   0.00000   0.00000   0.00000
 306       26PX         0.03635   0.01817   0.01817   0.00000
 307       26PY         0.03635   0.01817   0.01817   0.00000
 308       26PZ         0.03020   0.01510   0.01510   0.00000
 309       27D 0        0.00023   0.00011   0.00011   0.00000
 310       27D+1        0.00011   0.00006   0.00006   0.00000
 311       27D-1        0.00011   0.00006   0.00006   0.00000
 312       27D+2        0.00000   0.00000   0.00000   0.00000
 313       27D-2        0.00000   0.00000   0.00000   0.00000
 314       28D 0        0.00396   0.00198   0.00198   0.00000
 315       28D+1        0.00252   0.00126   0.00126   0.00000
 316       28D-1        0.00252   0.00126   0.00126   0.00000
 317       28D+2        0.00008   0.00004   0.00004   0.00000
 318       28D-2        0.00008   0.00004   0.00004   0.00000
 319       29D 0        0.00495   0.00248   0.00248   0.00000
 320       29D+1        0.00679   0.00340   0.00340   0.00000
 321       29D-1        0.00679   0.00340   0.00340   0.00000
 322       29D+2        0.00053   0.00027   0.00027   0.00000
 323       29D-2        0.00053   0.00027   0.00027   0.00000
 324       30D 0        0.00000   0.00000   0.00000   0.00000
 325       30D+1        0.00000   0.00000   0.00000   0.00000
 326       30D-1        0.00000   0.00000   0.00000   0.00000
 327       30D+2        0.00000   0.00000   0.00000   0.00000
 328       30D-2        0.00000   0.00000   0.00000   0.00000
 329       31D 0       -0.00000  -0.00000  -0.00000   0.00000
 330       31D+1       -0.00000  -0.00000  -0.00000   0.00000
 331       31D-1       -0.00000  -0.00000  -0.00000   0.00000
 332       31D+2       -0.00000  -0.00000  -0.00000   0.00000
 333       31D-2       -0.00000  -0.00000  -0.00000   0.00000
 334       32D 0        0.00301   0.00150   0.00150   0.00000
 335       32D+1        0.00371   0.00186   0.00186   0.00000
 336       32D-1        0.00371   0.00186   0.00186   0.00000
 337       32D+2        0.00001   0.00000   0.00000   0.00000
 338       32D-2        0.00001   0.00000   0.00000   0.00000
 339       33F 0        0.00014   0.00007   0.00007   0.00000
 340       33F+1        0.00007   0.00004   0.00004   0.00000
 341       33F-1        0.00007   0.00004   0.00004   0.00000
 342       33F+2        0.00000   0.00000   0.00000   0.00000
 343       33F-2        0.00000   0.00000   0.00000   0.00000
 344       33F+3       -0.00000  -0.00000  -0.00000   0.00000
 345       33F-3       -0.00000  -0.00000  -0.00000   0.00000
 346       34F 0        0.00177   0.00089   0.00089   0.00000
 347       34F+1        0.00134   0.00067   0.00067   0.00000
 348       34F-1        0.00134   0.00067   0.00067   0.00000
 349       34F+2        0.00023   0.00012   0.00012   0.00000
 350       34F-2        0.00023   0.00012   0.00012   0.00000
 351       34F+3        0.00000   0.00000   0.00000   0.00000
 352       34F-3       -0.00000  -0.00000  -0.00000   0.00000
 353       35F 0        0.00000   0.00000   0.00000   0.00000
 354       35F+1        0.00000   0.00000   0.00000   0.00000
 355       35F-1        0.00000   0.00000   0.00000   0.00000
 356       35F+2        0.00000   0.00000   0.00000   0.00000
 357       35F-2        0.00000   0.00000   0.00000   0.00000
 358       35F+3       -0.00000  -0.00000  -0.00000   0.00000
 359       35F-3        0.00000   0.00000   0.00000   0.00000
 360       36F 0        0.00032   0.00016   0.00016   0.00000
 361       36F+1        0.00012   0.00006   0.00006   0.00000
 362       36F-1        0.00012   0.00006   0.00006   0.00000
 363       36F+2        0.00015   0.00008   0.00008   0.00000
 364       36F-2        0.00015   0.00008   0.00008   0.00000
 365       36F+3        0.00000   0.00000   0.00000   0.00000
 366       36F-3       -0.00000  -0.00000  -0.00000   0.00000
 367       37G 0        0.00019   0.00010   0.00010   0.00000
 368       37G+1        0.00011   0.00005   0.00005   0.00000
 369       37G-1        0.00011   0.00005   0.00005   0.00000
 370       37G+2        0.00002   0.00001   0.00001   0.00000
 371       37G-2        0.00002   0.00001   0.00001   0.00000
 372       37G+3       -0.00000  -0.00000  -0.00000   0.00000
 373       37G-3        0.00000   0.00000   0.00000   0.00000
 374       37G+4       -0.00000  -0.00000  -0.00000   0.00000
 375       37G-4        0.00000   0.00000   0.00000   0.00000
 376       38G 0        0.00044   0.00022   0.00022   0.00000
 377       38G+1        0.00020   0.00010   0.00010   0.00000
 378       38G-1        0.00020   0.00010   0.00010   0.00000
 379       38G+2        0.00011   0.00006   0.00006   0.00000
 380       38G-2        0.00011   0.00006   0.00006   0.00000
 381       38G+3       -0.00000  -0.00000  -0.00000   0.00000
 382       38G-3        0.00000   0.00000   0.00000   0.00000
 383       38G+4        0.00000   0.00000   0.00000   0.00000
 384       38G-4        0.00000   0.00000   0.00000   0.00000
          Condensed to atoms (all electrons):
               1          2
     1  Zn  18.646347   0.265621
     2  O    0.265621   6.822411
          Atomic-Atomic Spin Densities.
               1          2
     1  Zn   0.000000   0.000000
     2  O    0.000000   0.000000
 Mulliken charges and spin densities:
               1          2
     1  Zn   1.088032   0.000000
     2  O   -1.088032   0.000000
 Sum of Mulliken charges =  -0.00000   0.00000
 Mulliken charges and spin densities with hydrogens summed into heavy atoms:
               1          2
     1  Zn   1.088032   0.000000
     2  O   -1.088032   0.000000
 Electronic spatial extent (au):  <R**2>=             73.6531
 Charge=             -0.0000 electrons
 Dipole moment (field-independent basis, Debye):
    X=              0.0000    Y=              0.0000    Z=              6.5817  Tot=              6.5817
 Quadrupole moment (field-independent basis, Debye-Ang):
   XX=            -17.7617   YY=            -17.7617   ZZ=            -19.9917
   XY=              0.0000   XZ=              0.0000   YZ=              0.0000
 Traceless Quadrupole moment (field-independent basis, Debye-Ang):
   XX=              0.7433   YY=              0.7433   ZZ=             -1.4867
   XY=              0.0000   XZ=              0.0000   YZ=              0.0000
 Octapole moment (field-independent basis, Debye-Ang**2):
  XXX=              0.0000  YYY=              0.0000  ZZZ=             19.0469  XYY=              0.0000
  XXY=              0.0000  XXZ=              4.9496  XZZ=              0.0000  YZZ=              0.0000
  YYZ=              4.9496  XYZ=              0.0000
 Hexadecapole moment (field-independent basis, Debye-Ang**3):
 XXXX=            -18.3875 YYYY=            -18.3875 ZZZZ=            -69.5458 XXXY=              0.0000
 XXXZ=              0.0000 YYYX=              0.0000 YYYZ=              0.0000 ZZZX=              0.0000
 ZZZY=              0.0000 XXYY=             -6.1292 XXZZ=            -14.5169 YYZZ=            -14.5169
 XXYZ=              0.0000 YYXZ=              0.0000 ZZXY=              0.0000
 N-N= 4.535804665029D+01 E-N=-6.832112812947D+02  KE= 1.571001855491D+02
 Symmetry A1   KE= 6.270219635149D+01
 Symmetry A2   KE= 2.084910244223D+01
 Symmetry B1   KE= 3.677444337772D+01
 Symmetry B2   KE= 3.677444337654D+01
 Symmetry A1   SP= 0.000000000000D+00
 Symmetry A2   SP= 0.000000000000D+00
 Symmetry B1   SP= 0.000000000000D+00
 Symmetry B2   SP= 0.000000000000D+00
 Orbital energies and kinetic energies (alpha):
                                 1                 2
   9         O                -0.819027         10.424551
  10         O                -0.786213          8.533113
  11         O                -0.408259          2.666289
  12         O                -0.408259          2.666289
  13         O                -0.397632          2.140034
  14         V                -0.037707          0.745014
  15         V                 0.026839          0.082525
  16         V                 0.026839          0.082525
  17         V                 0.027921          0.229803
  18         V                 0.041371          0.045241
 Total kinetic energy from orbitals= 1.571001855491D+02
                          Isotropic Fermi Contact Couplings
        Atom                 a.u.       MegaHertz       Gauss      10(-4) cm-1
     1  Zn(67)             0.00000       0.00000       0.00000       0.00000
     2  O(17)              0.00000      -0.00000      -0.00000      -0.00000
 --------------------------------------------------------
       Center         ----  Spin Dipole Couplings  ----
                      3XX-RR        3YY-RR        3ZZ-RR
 --------------------------------------------------------
     1   Atom        0.000000      0.000000      0.000000
     2   Atom        0.000000      0.000000      0.000000
 --------------------------------------------------------
                        XY            XZ            YZ
 --------------------------------------------------------
     1   Atom        0.000000      0.000000      0.000000
     2   Atom        0.000000      0.000000      0.000000
 --------------------------------------------------------


 ---------------------------------------------------------------------------------
              Anisotropic Spin Dipole Couplings in Principal Axis System
 ---------------------------------------------------------------------------------

       Atom             a.u.   MegaHertz   Gauss  10(-4) cm-1        Axes

              Baa     0.0000     0.000     0.000     0.000  1.0000  0.0000  0.0000
     1 Zn(67) Bbb     0.0000     0.000     0.000     0.000 -0.0000  1.0000  0.0000
              Bcc     0.0000     0.000     0.000     0.000  0.0000  0.0000  1.0000
 
              Baa     0.0000    -0.000    -0.000    -0.000  1.0000  0.0000  0.0000
     2 O(17)  Bbb     0.0000    -0.000    -0.000    -0.000 -0.0000  1.0000  0.0000
              Bcc     0.0000    -0.000    -0.000    -0.000  0.0000  0.0000  1.0000
 

 ---------------------------------------------------------------------------------

 No NMR shielding tensors so no spin-rotation constants.
 Leave Link  601 at Tue Mar 27 13:55:07 2018, MaxMem= 10737418240 cpu:             199.5 elap:               6.5
 (Enter /home1/apps/gaussian/16rA.03/g16/l9999.exe)

 Test job not archived.
 1\1\GINC-C407-063\SP\ROCCSD(T)-Full\Gen\O1Zn1\GWANG18\27-Mar-2018\0\\#
 P ROCCSD(T)=(MaxCyc=150, Full)/Gen SCF=(maxcycle=400) Pseudo=Read Inte
 gral(NoXCTest) Pop=Regular MaxDisk=500GB Guess=Read IOp(5/15=2)\\ZnO\\
 0,1\Zn,0,0.,0.,0.\O,0,0.,0.,1.4\\Version=ES64L-G16RevA.03\State=1-SG\H
 F=-241.5885586\MP2=-243.0181052\MP3=-242.8415085\PUHF=-241.5885586\PMP
 2-0=-243.0181052\MP4SDQ=-242.9491245\CCSD=-242.9012614\CCSD(T)=-242.95
 2447\RMSD=3.546e-09\PG=C*V [C*(O1Zn1)]\\@


 Sacred cows make the best hamburger.
                               -- Mark Twain
 Job cpu time:       3 days  0 hours 53 minutes 11.8 seconds.
 Elapsed time:       0 days  2 hours 17 minutes 19.2 seconds.
 File lengths (MBytes):  RWF=  17387 Int=      0 D2E=      0 Chk=     18 Scr=      1
 Normal termination of Gaussian 16 at Tue Mar 27 13:55:07 2018.
