 Entering Gaussian System, Link 0=g16
 Initial command:
 /home1/apps/gaussian/16rA.03/g16/l1.exe "/tmp/Gau-269095.inp" -scrdir="/tmp/"
 Entering Link 1 = /home1/apps/gaussian/16rA.03/g16/l1.exe PID=    269096.
  
 Copyright (c) 1988,1990,1992,1993,1995,1998,2003,2009,2016,
            Gaussian, Inc.  All Rights Reserved.
  
 This is part of the Gaussian(R) 16 program.  It is based on
 the Gaussian(R) 09 system (copyright 2009, Gaussian, Inc.),
 the Gaussian(R) 03 system (copyright 2003, Gaussian, Inc.),
 the Gaussian(R) 98 system (copyright 1998, Gaussian, Inc.),
 the Gaussian(R) 94 system (copyright 1995, Gaussian, Inc.),
 the Gaussian 92(TM) system (copyright 1992, Gaussian, Inc.),
 the Gaussian 90(TM) system (copyright 1990, Gaussian, Inc.),
 the Gaussian 88(TM) system (copyright 1988, Gaussian, Inc.),
 the Gaussian 86(TM) system (copyright 1986, Carnegie Mellon
 University), and the Gaussian 82(TM) system (copyright 1983,
 Carnegie Mellon University). Gaussian is a federally registered
 trademark of Gaussian, Inc.
  
 This software contains proprietary and confidential information,
 including trade secrets, belonging to Gaussian, Inc.
  
 This software is provided under written license and may be
 used, copied, transmitted, or stored only in accord with that
 written license.
  
 The following legend is applicable only to US Government
 contracts under FAR:
  
                    RESTRICTED RIGHTS LEGEND
  
 Use, reproduction and disclosure by the US Government is
 subject to restrictions as set forth in subparagraphs (a)
 and (c) of the Commercial Computer Software - Restricted
 Rights clause in FAR 52.227-19.
  
 Gaussian, Inc.
 340 Quinnipiac St., Bldg. 40, Wallingford CT 06492
  
  
 ---------------------------------------------------------------
 Warning -- This program may not be used in any manner that
 competes with the business of Gaussian, Inc. or will provide
 assistance to any competitor of Gaussian, Inc.  The licensee
 of this program is prohibited from giving any competitor of
 Gaussian, Inc. access to this program.  By using this program,
 the user acknowledges that Gaussian, Inc. is engaged in the
 business of creating and licensing software in the field of
 computational chemistry and represents and warrants to the
 licensee that it is not a competitor of Gaussian, Inc. and that
 it will not use this program in any manner prohibited above.
 ---------------------------------------------------------------
  

 Cite this work as:
 Gaussian 16, Revision A.03,
 M. J. Frisch, G. W. Trucks, H. B. Schlegel, G. E. Scuseria, 
 M. A. Robb, J. R. Cheeseman, G. Scalmani, V. Barone, 
 G. A. Petersson, H. Nakatsuji, X. Li, M. Caricato, A. V. Marenich, 
 J. Bloino, B. G. Janesko, R. Gomperts, B. Mennucci, H. P. Hratchian, 
 J. V. Ortiz, A. F. Izmaylov, J. L. Sonnenberg, D. Williams-Young, 
 F. Ding, F. Lipparini, F. Egidi, J. Goings, B. Peng, A. Petrone, 
 T. Henderson, D. Ranasinghe, V. G. Zakrzewski, J. Gao, N. Rega, 
 G. Zheng, W. Liang, M. Hada, M. Ehara, K. Toyota, R. Fukuda, 
 J. Hasegawa, M. Ishida, T. Nakajima, Y. Honda, O. Kitao, H. Nakai, 
 T. Vreven, K. Throssell, J. A. Montgomery, Jr., J. E. Peralta, 
 F. Ogliaro, M. J. Bearpark, J. J. Heyd, E. N. Brothers, K. N. Kudin, 
 V. N. Staroverov, T. A. Keith, R. Kobayashi, J. Normand, 
 K. Raghavachari, A. P. Rendell, J. C. Burant, S. S. Iyengar, 
 J. Tomasi, M. Cossi, J. M. Millam, M. Klene, C. Adamo, R. Cammi, 
 J. W. Ochterski, R. L. Martin, K. Morokuma, O. Farkas, 
 J. B. Foresman, and D. J. Fox, Gaussian, Inc., Wallingford CT, 2016.
 
 ******************************************
 Gaussian 16:  ES64L-G16RevA.03 25-Dec-2016
                18-Mar-2018 
 ******************************************
 %mem=160GB
 %cpu=0-31
 SetSPE:  set environment variable "MP_BIND" = "yes"
 SetSPE:  set environment variable "MP_BLIST" = "0,1,2,3,4,5,6,7,8,9,10,11,12,13,14,15,16,17,18,19,20,21,22,23,24,25,26,27,28,29,30,31"
 Will use up to   32 processors via shared memory.
 %chk=qz.chk
 %rwf=/scratch/04843/gwang18/nio/
 ----------------------------------------------------------------------
 #P ROCCSD(T)=(MaxCyc=150, Window=(7,0))/Gen SCF=(maxcycle=400) Integra
 l(DKHSO, NoXCTest) Pop=Regular MaxDisk=500GB Guess=Read IOp(5/15=2)
 ----------------------------------------------------------------------
 1/38=1,172=1/1;
 2/12=2,17=6,18=5,40=1/2;
 3/5=7,11=2,25=1,30=1,47=8,91=5,116=101/1,2,3;
 4/5=1/1;
 5/5=2,7=400,15=2,38=6/2;
 8/5=-1,6=4,9=120000,10=91,37=7/1,4;
 9/5=7,6=150,14=2/13;
 6//1;
 99/5=1,9=1/99;
 Leave Link    1 at Sun Mar 18 02:56:10 2018, MaxMem= 21474836480 cpu:               2.1 elap:               0.1
 (Enter /home1/apps/gaussian/16rA.03/g16/l101.exe)
 ---
 NiO
 ---
 Symbolic Z-matrix:
 Charge =  0 Multiplicity = 3
 Ni                    0.        0.        0. 
 O                     0.        0.        1.8 
 
 ITRead=  0  0
 MicOpt= -1 -1
 NAtoms=      2 NQM=        2 NQMF=       0 NMMI=      0 NMMIF=      0
                NMic=       0 NMicF=      0.
                    Isotopes and Nuclear Properties:
 (Nuclear quadrupole moments (NQMom) in fm**2, nuclear magnetic moments (NMagM)
  in nuclear magnetons)

  Atom         1           2
 IAtWgt=          58          16
 AtmWgt=  57.9353471  15.9949146
 NucSpn=           0           0
 AtZEff=  -0.0000000  -0.0000000
 NQMom=    0.0000000   0.0000000
 NMagM=    0.0000000   0.0000000
 AtZNuc=  28.0000000   8.0000000
 Leave Link  101 at Sun Mar 18 02:56:10 2018, MaxMem= 21474836480 cpu:               2.7 elap:               0.1
 (Enter /home1/apps/gaussian/16rA.03/g16/l202.exe)
                          Input orientation:                          
 ---------------------------------------------------------------------
 Center     Atomic      Atomic             Coordinates (Angstroms)
 Number     Number       Type             X           Y           Z
 ---------------------------------------------------------------------
      1         28           0        0.000000    0.000000    0.000000
      2          8           0        0.000000    0.000000    1.800000
 ---------------------------------------------------------------------
 Stoichiometry    NiO(3)
 Framework group  C*V[C*(ONi)]
 Deg. of freedom     1
 Full point group                 C*V     NOp   4
 Largest Abelian subgroup         C2V     NOp   4
 Largest concise Abelian subgroup C1      NOp   1
                         Standard orientation:                         
 ---------------------------------------------------------------------
 Center     Atomic      Atomic             Coordinates (Angstroms)
 Number     Number       Type             X           Y           Z
 ---------------------------------------------------------------------
      1         28           0        0.000000    0.000000    0.400000
      2          8           0        0.000000    0.000000   -1.400000
 ---------------------------------------------------------------------
 Rotational constants (GHZ):           0.0000000          12.4442548          12.4442548
 Leave Link  202 at Sun Mar 18 02:56:10 2018, MaxMem= 21474836480 cpu:               0.5 elap:               0.0
 (Enter /home1/apps/gaussian/16rA.03/g16/l301.exe)
 General basis read from cards:  (5D, 7F)
 Centers:       1
 S 1 1.00
     Exponent=  1.5503020000D+07 Coefficients=  1.0000000000D+00
 S 1 1.00
     Exponent=  2.3210710000D+06 Coefficients=  1.0000000000D+00
 S 1 1.00
     Exponent=  5.2818020000D+05 Coefficients=  1.0000000000D+00
 S 1 1.00
     Exponent=  1.4960400000D+05 Coefficients=  1.0000000000D+00
 S 1 1.00
     Exponent=  4.8809070000D+04 Coefficients=  1.0000000000D+00
 S 1 1.00
     Exponent=  1.7622390000D+04 Coefficients=  1.0000000000D+00
 S 1 1.00
     Exponent=  6.8742010000D+03 Coefficients=  1.0000000000D+00
 S 1 1.00
     Exponent=  2.8518570000D+03 Coefficients=  1.0000000000D+00
 S 1 1.00
     Exponent=  1.2443340000D+03 Coefficients=  1.0000000000D+00
 S 1 1.00
     Exponent=  5.6615470000D+02 Coefficients=  1.0000000000D+00
 S 1 1.00
     Exponent=  2.6678730000D+02 Coefficients=  1.0000000000D+00
 S 1 1.00
     Exponent=  1.2937520000D+02 Coefficients=  1.0000000000D+00
 S 1 1.00
     Exponent=  6.3651610000D+01 Coefficients=  1.0000000000D+00
 S 1 1.00
     Exponent=  2.9333020000D+01 Coefficients=  1.0000000000D+00
 S 1 1.00
     Exponent=  1.4822120000D+01 Coefficients=  1.0000000000D+00
 S 1 1.00
     Exponent=  7.4605130000D+00 Coefficients=  1.0000000000D+00
 S 1 1.00
     Exponent=  3.4135760000D+00 Coefficients=  1.0000000000D+00
 S 1 1.00
     Exponent=  1.6328840000D+00 Coefficients=  1.0000000000D+00
 S 1 1.00
     Exponent=  7.4357900000D-01 Coefficients=  1.0000000000D+00
 S 1 1.00
     Exponent=  1.7259200000D-01 Coefficients=  1.0000000000D+00
 S 1 1.00
     Exponent=  7.7420000000D-02 Coefficients=  1.0000000000D+00
 S 1 1.00
     Exponent=  3.3701000000D-02 Coefficients=  1.0000000000D+00
 S 1 1.00
     Exponent=  6.5001000000D+00 Coefficients=  1.0000000000D+00
 S 1 1.00
     Exponent=  1.7599000000D+00 Coefficients=  1.0000000000D+00
 S 1 1.00
     Exponent=  1.4670000000D-02 Coefficients=  1.0000000000D+00
 P 1 1.00
     Exponent=  4.5066620000D+04 Coefficients=  1.0000000000D+00
 P 1 1.00
     Exponent=  1.0662640000D+04 Coefficients=  1.0000000000D+00
 P 1 1.00
     Exponent=  3.4634310000D+03 Coefficients=  1.0000000000D+00
 P 1 1.00
     Exponent=  1.3266240000D+03 Coefficients=  1.0000000000D+00
 P 1 1.00
     Exponent=  5.6474140000D+02 Coefficients=  1.0000000000D+00
 P 1 1.00
     Exponent=  2.5882880000D+02 Coefficients=  1.0000000000D+00
 P 1 1.00
     Exponent=  1.2531150000D+02 Coefficients=  1.0000000000D+00
 P 1 1.00
     Exponent=  6.3242330000D+01 Coefficients=  1.0000000000D+00
 P 1 1.00
     Exponent=  3.2824060000D+01 Coefficients=  1.0000000000D+00
 P 1 1.00
     Exponent=  1.7396920000D+01 Coefficients=  1.0000000000D+00
 P 1 1.00
     Exponent=  9.3243940000D+00 Coefficients=  1.0000000000D+00
 P 1 1.00
     Exponent=  4.9388390000D+00 Coefficients=  1.0000000000D+00
 P 1 1.00
     Exponent=  2.5620250000D+00 Coefficients=  1.0000000000D+00
 P 1 1.00
     Exponent=  1.2992940000D+00 Coefficients=  1.0000000000D+00
 P 1 1.00
     Exponent=  6.3467800000D-01 Coefficients=  1.0000000000D+00
 P 1 1.00
     Exponent=  2.3226200000D-01 Coefficients=  1.0000000000D+00
 P 1 1.00
     Exponent=  9.1546000000D-02 Coefficients=  1.0000000000D+00
 P 1 1.00
     Exponent=  3.5643000000D-02 Coefficients=  1.0000000000D+00
 P 1 1.00
     Exponent=  1.0416500000D+01 Coefficients=  1.0000000000D+00
 P 1 1.00
     Exponent=  2.9093000000D+00 Coefficients=  1.0000000000D+00
 P 1 1.00
     Exponent=  1.3880000000D-02 Coefficients=  1.0000000000D+00
 D 1 1.00
     Exponent=  4.1434270000D+02 Coefficients=  1.0000000000D+00
 D 1 1.00
     Exponent=  1.2439260000D+02 Coefficients=  1.0000000000D+00
 D 1 1.00
     Exponent=  4.8115400000D+01 Coefficients=  1.0000000000D+00
 D 1 1.00
     Exponent=  2.0842000000D+01 Coefficients=  1.0000000000D+00
 D 1 1.00
     Exponent=  9.6221000000D+00 Coefficients=  1.0000000000D+00
 D 1 1.00
     Exponent=  4.6034000000D+00 Coefficients=  1.0000000000D+00
 D 1 1.00
     Exponent=  2.1963000000D+00 Coefficients=  1.0000000000D+00
 D 1 1.00
     Exponent=  1.0206000000D+00 Coefficients=  1.0000000000D+00
 D 1 1.00
     Exponent=  4.5440000000D-01 Coefficients=  1.0000000000D+00
 D 1 1.00
     Exponent=  1.9000000000D-01 Coefficients=  1.0000000000D+00
 D 1 1.00
     Exponent=  7.1500000000D-02 Coefficients=  1.0000000000D+00
 D 1 1.00
     Exponent=  6.9565000000D+00 Coefficients=  1.0000000000D+00
 D 1 1.00
     Exponent=  3.6674000000D+00 Coefficients=  1.0000000000D+00
 D 1 1.00
     Exponent=  2.6910000000D-02 Coefficients=  1.0000000000D+00
 F 1 1.00
     Exponent=  1.0379100000D+01 Coefficients=  1.0000000000D+00
 F 1 1.00
     Exponent=  4.4257000000D+00 Coefficients=  1.0000000000D+00
 F 1 1.00
     Exponent=  1.8872000000D+00 Coefficients=  1.0000000000D+00
 F 1 1.00
     Exponent=  6.5380000000D-01 Coefficients=  1.0000000000D+00
 F 1 1.00
     Exponent=  2.2650000000D-01 Coefficients=  1.0000000000D+00
 G 1 1.00
     Exponent=  8.5105000000D+00 Coefficients=  1.0000000000D+00
 G 1 1.00
     Exponent=  3.8307000000D+00 Coefficients=  1.0000000000D+00
 G 1 1.00
     Exponent=  1.5457000000D+00 Coefficients=  1.0000000000D+00
 G 1 1.00
     Exponent=  6.2370000000D-01 Coefficients=  1.0000000000D+00
 H 1 1.00
     Exponent=  7.7448000000D+00 Coefficients=  1.0000000000D+00
 H 1 1.00
     Exponent=  3.3495000000D+00 Coefficients=  1.0000000000D+00
 H 1 1.00
     Exponent=  1.4486000000D+00 Coefficients=  1.0000000000D+00
 ****
 Centers:       2
 S 1 1.00
     Exponent=  6.1420000000D+04 Coefficients=  1.0000000000D+00
 S 1 1.00
     Exponent=  9.1990000000D+03 Coefficients=  1.0000000000D+00
 S 1 1.00
     Exponent=  2.0910000000D+03 Coefficients=  1.0000000000D+00
 S 1 1.00
     Exponent=  5.9090000000D+02 Coefficients=  1.0000000000D+00
 S 1 1.00
     Exponent=  1.9230000000D+02 Coefficients=  1.0000000000D+00
 S 1 1.00
     Exponent=  6.9320000000D+01 Coefficients=  1.0000000000D+00
 S 1 1.00
     Exponent=  2.6970000000D+01 Coefficients=  1.0000000000D+00
 S 1 1.00
     Exponent=  1.1100000000D+01 Coefficients=  1.0000000000D+00
 S 1 1.00
     Exponent=  4.6820000000D+00 Coefficients=  1.0000000000D+00
 S 1 1.00
     Exponent=  1.4280000000D+00 Coefficients=  1.0000000000D+00
 S 1 1.00
     Exponent=  5.5470000000D-01 Coefficients=  1.0000000000D+00
 S 1 1.00
     Exponent=  2.0670000000D-01 Coefficients=  1.0000000000D+00
 S 1 1.00
     Exponent=  1.2974000000D+01 Coefficients=  1.0000000000D+00
 S 1 1.00
     Exponent=  3.4900000000D+01 Coefficients=  1.0000000000D+00
 S 1 1.00
     Exponent=  9.3881000000D+01 Coefficients=  1.0000000000D+00
 S 1 1.00
     Exponent=  6.9590000000D-02 Coefficients=  1.0000000000D+00
 P 1 1.00
     Exponent=  6.3420000000D+01 Coefficients=  1.0000000000D+00
 P 1 1.00
     Exponent=  1.4660000000D+01 Coefficients=  1.0000000000D+00
 P 1 1.00
     Exponent=  4.4590000000D+00 Coefficients=  1.0000000000D+00
 P 1 1.00
     Exponent=  1.5310000000D+00 Coefficients=  1.0000000000D+00
 P 1 1.00
     Exponent=  5.3020000000D-01 Coefficients=  1.0000000000D+00
 P 1 1.00
     Exponent=  1.7500000000D-01 Coefficients=  1.0000000000D+00
 P 1 1.00
     Exponent=  1.4475000000D+01 Coefficients=  1.0000000000D+00
 P 1 1.00
     Exponent=  4.2730000000D+01 Coefficients=  1.0000000000D+00
 P 1 1.00
     Exponent=  1.2614000000D+02 Coefficients=  1.0000000000D+00
 P 1 1.00
     Exponent=  5.3480000000D-02 Coefficients=  1.0000000000D+00
 D 1 1.00
     Exponent=  3.7750000000D+00 Coefficients=  1.0000000000D+00
 D 1 1.00
     Exponent=  1.3000000000D+00 Coefficients=  1.0000000000D+00
 D 1 1.00
     Exponent=  4.4400000000D-01 Coefficients=  1.0000000000D+00
 D 1 1.00
     Exponent=  1.4927000000D+01 Coefficients=  1.0000000000D+00
 D 1 1.00
     Exponent=  5.7544000000D+01 Coefficients=  1.0000000000D+00
 D 1 1.00
     Exponent=  1.5400000000D-01 Coefficients=  1.0000000000D+00
 F 1 1.00
     Exponent=  2.6660000000D+00 Coefficients=  1.0000000000D+00
 F 1 1.00
     Exponent=  8.5900000000D-01 Coefficients=  1.0000000000D+00
 F 1 1.00
     Exponent=  2.6483000000D+01 Coefficients=  1.0000000000D+00
 F 1 1.00
     Exponent=  3.2400000000D-01 Coefficients=  1.0000000000D+00
 G 1 1.00
     Exponent=  1.8460000000D+00 Coefficients=  1.0000000000D+00
 G 1 1.00
     Exponent=  7.1400000000D-01 Coefficients=  1.0000000000D+00
 ****
 Ernie: Thresh=  0.10000D-02 Tol=  0.10000D-05 Strict=F.
 There are   213 symmetry adapted cartesian basis functions of A1  symmetry.
 There are    56 symmetry adapted cartesian basis functions of A2  symmetry.
 There are   114 symmetry adapted cartesian basis functions of B1  symmetry.
 There are   114 symmetry adapted cartesian basis functions of B2  symmetry.
 There are   157 symmetry adapted basis functions of A1  symmetry.
 There are    47 symmetry adapted basis functions of A2  symmetry.
 There are    90 symmetry adapted basis functions of B1  symmetry.
 There are    90 symmetry adapted basis functions of B2  symmetry.
   384 basis functions,   497 primitive gaussians,   497 cartesian basis functions
    19 alpha electrons       17 beta electrons
       nuclear repulsion energy        65.8531640256 Hartrees.
 IExCor=    0 DFT=F Ex=HF Corr=None ExCW=0 ScaHFX=  1.000000
 ScaDFX=  1.000000  1.000000  1.000000  1.000000 ScalE2=  1.000000  1.000000
 IRadAn=      5 IRanWt=     -1 IRanGd=            0 ICorTp=0 IEmpDi=  4
 NAtoms=    2 NActive=    2 NUniq=    2 SFac= 1.00D+00 NAtFMM=   60 NAOKFM=F Big=F
 Integral buffers will be    131072 words long.
 Raffenetti 2 integral format.
 Two-electron integral symmetry is turned on.
 FoFCou: FMM=F IPFlag=           8 FMFlag=           0 FMFlg1=           0
         NFxFlg=           0 DoJE=F BraDBF=T KetDBF=T FulRan=T
         wScrn=  0.000000 ICntrl=       600 IOpCl=  3 I1Cent=           6 NGrid=           0
         NMat0=    1 NMatS0=      2 NMatT0=    0 NMatD0=    1 NMtDS0=    0 NMtDT0=    0
 Symmetry not used in FoFCou.
 Finite nuclear repulsion energy        65.8531640256.
 Leave Link  301 at Sun Mar 18 02:56:11 2018, MaxMem= 21474836480 cpu:               5.2 elap:               0.2
 (Enter /home1/apps/gaussian/16rA.03/g16/l302.exe)
 Using DK4 one-electron Hamiltonian with SO, DoBoet=T.
 NPDir=0 NMtPBC=     1 NCelOv=     1 NCel=       1 NClECP=     1 NCelD=      1
         NCelK=      1 NCelE2=     1 NClLst=     1 CellRange=     0.0.
 One-electron integrals computed using PRISM.
 One-electron integral symmetry used in STVInt
 FoFCou: FMM=F IPFlag=           8 FMFlag=      100000 FMFlg1=           0
         NFxFlg=           0 DoJE=T BraDBF=F KetDBF=T FulRan=T
         wScrn=  0.000000 ICntrl=       500 IOpCl=  0 I1Cent=           4 NGrid=           0
         NMat0=    1 NMatS0=      1 NMatT0=    0 NMatD0=    1 NMtDS0=    0 NMtDT0=    0
 Symmetry not used in FoFCou.
 UnConB:  Uncontracting AO basis from    384 functions to    384 functions (excluding duplicates).
 RelInt: Using uncontracted basis, NUnBas=   384 NBsUse=   384 0.100E-13 EigKep=  5.66D-07 EigRej= -1.00D+00
 NBasis=   384 RedAO= T EigKep=  2.18D-06  NBF=   157    47    90    90
 NBsUse=   380 1.00D-06 EigRej=  8.72D-07 NBFU=   155    47    89    89
 Leave Link  302 at Sun Mar 18 02:56:16 2018, MaxMem= 21474836480 cpu:             135.6 elap:               4.9
 (Enter /home1/apps/gaussian/16rA.03/g16/l303.exe)
 DipDrv:  MaxL=1.
 Leave Link  303 at Sun Mar 18 02:56:16 2018, MaxMem= 21474836480 cpu:               1.5 elap:               0.1
 (Enter /home1/apps/gaussian/16rA.03/g16/l401.exe)
 Initial guess from the checkpoint file:  "qz.chk"
 B after Tr=     0.000000    0.000000    0.000000
         Rot=    1.000000    0.000000    0.000000    0.000000 Ang=   0.00 deg.
 Guess basis will be translated and rotated to current coordinates.
 JPrj=2 DoOrth=T DoCkMO=T.
 Initial guess orbital symmetries:
       Occupied  (SG) (SG) (SG) (PI) (PI) (SG) (SG) (PI) (PI) (SG)
                 (SG) (SG) (DLTA) (DLTA) (PI) (PI) (SG) (PI) (PI)
       Virtual   (SG) (PI) (PI) (SG) (SG) (PI) (PI) (SG) (DLTA)
                 (DLTA) (PI) (PI) (SG) (SG) (SG) (PI) (PI) (PI)
                 (PI) (SG) (DLTA) (DLTA) (SG) (PI) (PI) (SG) (SG)
                 (DLTA) (DLTA) (PI) (PI) (SG) (PI) (PI) (SG) (PI)
                 (PI) (SG) (PHI) (PHI) (DLTA) (DLTA) (PI) (PI)
                 (SG) (DLTA) (DLTA) (PI) (PI) (SG) (SG) (SG) (PHI)
                 (PHI) (DLTA) (DLTA) (DLTA) (DLTA) (PI) (PI) (SG)
                 (PI) (PI) (SG) (PI) (PI) (SG) (PI) (PI) (PHI)
                 (PHI) (SG) (DLTA) (DLTA) (PI) (PI) (DLTA) (DLTA)
                 (SG) (PI) (PI) (SG) (PHI) (PHI) (?A) (?A) (SG)
                 (DLTA) (DLTA) (PI) (PI) (SG) (PHI) (PHI) (DLTA)
                 (DLTA) (PI) (PI) (SG) (DLTA) (DLTA) (SG) (PI)
                 (PI) (PI) (PI) (SG) (SG) (DLTA) (DLTA) (PI) (PI)
                 (SG) (PHI) (PHI) (DLTA) (DLTA) (PI) (PI) (SG)
                 (PHI) (PHI) (?A) (?A) (DLTA) (DLTA) (PI) (PI)
                 (SG) (PI) (PI) (SG) (PI) (PI) (SG) (SG) (SG) (DLTA)
                 (DLTA) (PI) (PI) (SG) (DLTA) (DLTA) (PHI) (PHI)
                 (PI) (PI) (SG) (PI) (PI) (SG) (SG) (PHI) (PHI)
                 (DLTA) (DLTA) (?A) (?A) (PI) (PI) (DLTA) (DLTA)
                 (SG) (PI) (PI) (SG) (SG) (PI) (PI) (DLTA) (DLTA)
                 (SG) (PI) (PI) (SG) (PI) (PI) (SG) (DLTA) (DLTA)
                 (PI) (PI) (SG) (SG) (SG) (PI) (PI) (SG) (PI) (PI)
                 (SG) (DLTA) (DLTA) (PI) (PI) (SG) (SG) (SG) (PI)
                 (PI) (SG) (PI) (PI) (SG) (SG) (PI) (PI) (SG) (SG)
                 (DLTA) (DLTA) (PI) (PI) (SG) (PI) (PI) (SG) (SG)
                 (SG) (PI) (PI) (SG) (SG) (SG) (PI) (PI) (SG) (SG)
                 (SG) (PI) (PI) (SG) (SG) (SG) (PI) (PI) (SG) (SG)
                 (SG) (SG) (SG) (SG) (SG) (DLTA) (SG) (SG) (SG)
                 (SG) (SG) (DLTA) (SG) (DLTA) (SG) (SG) (DLTA)
                 (SG) (?A) (DLTA) (SG) (DLTA) (SG) (?A) (DLTA)
                 (SG) (SG) (SG) (DLTA) (DLTA) (SG) (?A) (DLTA)
                 (DLTA) (SG) (DLTA) (SG) (DLTA) (SG) (DLTA) (SG)
                 (?A) (?A) (?A) (DLTA) (DLTA) (DLTA) (DLTA) (?A)
                 (DLTA) (DLTA) (?A) (DLTA) (DLTA) (DLTA) (?A) (DLTA)
                 (DLTA) (DLTA) (DLTA) (DLTA) (?A) (?A) (?A) (PI)
                 (PI) (PI) (PI) (PI) (PI) (PHI) (PI) (PI) (PHI)
                 (PI) (PI) (PHI) (PI) (?B) (PHI) (PI) (PI) (PI)
                 (PI) (PHI) (PHI) (PI) (PI) (PHI) (PHI) (?B) (PHI)
                 (?B) (PI) (PI) (PI) (PI) (PI) (PI) (PHI) (PI)
                 (PI) (PHI) (PI) (PI) (PHI) (PI) (?B) (PHI) (PI)
                 (PI) (PI) (PI) (PHI) (PHI) (PI) (PI) (PHI) (PHI)
                 (?B) (PHI) (?B)
 The electronic state of the initial guess is 3-SG.
 Leave Link  401 at Sun Mar 18 02:56:16 2018, MaxMem= 21474836480 cpu:               8.5 elap:               0.3
 (Enter /home1/apps/gaussian/16rA.03/g16/l502.exe)
 Keep R1 and R2 ints in memory in symmetry-blocked form, NReq=3425113631.
 FoFCou: FMM=F IPFlag=           8 FMFlag=           0 FMFlg1=           0
         NFxFlg=           0 DoJE=F BraDBF=F KetDBF=F FulRan=T
         wScrn=  0.000000 ICntrl=       600 IOpCl=  0 I1Cent=           0 NGrid=           0
         NMat0=    1 NMatS0=  73920 NMatT0=    0 NMatD0=    1 NMtDS0=    0 NMtDT0=    0
 Petite list used in FoFCou.
 Restricted open shell SCF:
 Using DIIS extrapolation, IDIIS=  1040.
 NGot= 21474836480 LenX= 20088504193 LenY= 20088256687
 Requested convergence on RMS density matrix=1.00D-08 within 400 cycles.
 Requested convergence on MAX density matrix=1.00D-06.
 Requested convergence on             energy=1.00D-06.
 No special actions if energy rises.

 Cycle   1  Pass 1  IDiag  1:
 E= -1593.89411669448    
 DIIS: error= 1.27D+00 at cycle   1 NSaved=   1.
 NSaved= 1 IEnMin= 1 EnMin= -1593.89411669448     IErMin= 1 ErrMin= 1.27D+00
 ErrMax= 1.27D+00  0.00D+00 EMaxC= 1.00D-01 BMatC= 1.97D+02 BMatP= 1.97D+02
 IDIUse=3 WtCom= 0.00D+00 WtEn= 1.00D+00
 Coeff-Com:  0.100D+01
 Coeff-En:   0.100D+01
 Coeff:      0.100D+01
 Gap=     0.209 Goal=   None    Shift=    0.000
 GapD=    0.209 DampG=1.000 DampE=0.125 DampFc=0.1250 IDamp=-1.
 Damping current iteration by 1.25D-01
 RMSDP=1.86D-03 MaxDP=1.80D-01              OVMax= 5.17D-02

 Cycle   2  Pass 1  IDiag  1:
 E= -1593.89555194048     Delta-E=       -0.001435246005 Rises=F Damp=T
 DIIS: error= 1.11D+00 at cycle   2 NSaved=   2.
 NSaved= 2 IEnMin= 2 EnMin= -1593.89555194048     IErMin= 2 ErrMin= 1.11D+00
 ErrMax= 1.11D+00  0.00D+00 EMaxC= 1.00D-01 BMatC= 1.51D+02 BMatP= 1.97D+02
 IDIUse=3 WtCom= 0.00D+00 WtEn= 1.00D+00
 Coeff-Com: -0.700D+01 0.800D+01
 Coeff-En:   0.000D+00 0.100D+01
 Coeff:      0.000D+00 0.100D+01
 Gap=     0.120 Goal=   None    Shift=    0.000
 RMSDP=1.62D-03 MaxDP=1.58D-01 DE=-1.44D-03 OVMax= 3.97D-02

 Cycle   3  Pass 1  IDiag  1:
 E= -1593.89390178961     Delta-E=        0.001650150869 Rises=F Damp=F
 DIIS: error= 8.96D-03 at cycle   3 NSaved=   3.
 NSaved= 3 IEnMin= 2 EnMin= -1593.89555194048     IErMin= 3 ErrMin= 8.96D-03
 ErrMax= 8.96D-03  0.00D+00 EMaxC= 1.00D-01 BMatC= 1.08D-02 BMatP= 1.51D+02
 IDIUse=3 WtCom= 9.10D-01 WtEn= 8.96D-02
 Coeff-Com: -0.197D+01 0.226D+01 0.718D+00
 Coeff-En:   0.000D+00 0.623D+00 0.377D+00
 Coeff:     -0.180D+01 0.211D+01 0.687D+00
 Gap=     0.098 Goal=   None    Shift=    0.000
 RMSDP=2.01D-04 MaxDP=1.39D-02 DE= 1.65D-03 OVMax= 4.99D-02

 Cycle   4  Pass 1  IDiag  1:
 E= -1593.89452443001     Delta-E=       -0.000622640398 Rises=F Damp=F
 DIIS: error= 1.03D-02 at cycle   4 NSaved=   4.
 NSaved= 4 IEnMin= 2 EnMin= -1593.89555194048     IErMin= 3 ErrMin= 8.96D-03
 ErrMax= 1.03D-02  0.00D+00 EMaxC= 1.00D-01 BMatC= 1.09D-02 BMatP= 1.08D-02
 IDIUse=3 WtCom= 8.97D-01 WtEn= 1.03D-01
 EnCoef did     4 forward-backward iterations
 Coeff-Com: -0.149D+01 0.170D+01 0.327D+00 0.461D+00
 Coeff-En:   0.000D+00 0.145D+00 0.419D+00 0.436D+00
 Coeff:     -0.134D+01 0.154D+01 0.336D+00 0.458D+00
 Gap=     0.111 Goal=   None    Shift=    0.000
 RMSDP=1.37D-04 MaxDP=8.76D-03 DE=-6.23D-04 OVMax= 4.24D-02

 Cycle   5  Pass 1  IDiag  1:
 E= -1593.90103549592     Delta-E=       -0.006511065911 Rises=F Damp=F
 DIIS: error= 4.33D-03 at cycle   5 NSaved=   5.
 NSaved= 5 IEnMin= 5 EnMin= -1593.90103549592     IErMin= 5 ErrMin= 4.33D-03
 ErrMax= 4.33D-03  0.00D+00 EMaxC= 1.00D-01 BMatC= 1.39D-03 BMatP= 1.08D-02
 IDIUse=3 WtCom= 9.57D-01 WtEn= 4.33D-02
 Coeff-Com: -0.125D+01 0.143D+01 0.767D-01 0.273D+00 0.472D+00
 Coeff-En:   0.000D+00 0.000D+00 0.000D+00 0.000D+00 0.100D+01
 Coeff:     -0.119D+01 0.136D+01 0.734D-01 0.261D+00 0.495D+00
 Gap=     0.108 Goal=   None    Shift=    0.000
 RMSDP=5.57D-05 MaxDP=5.13D-03 DE=-6.51D-03 OVMax= 1.81D-02

 Cycle   6  Pass 1  IDiag  1:
 E= -1593.90365193316     Delta-E=       -0.002616437235 Rises=F Damp=F
 DIIS: error= 4.11D-03 at cycle   6 NSaved=   6.
 NSaved= 6 IEnMin= 6 EnMin= -1593.90365193316     IErMin= 6 ErrMin= 4.11D-03
 ErrMax= 4.11D-03  0.00D+00 EMaxC= 1.00D-01 BMatC= 8.47D-04 BMatP= 1.39D-03
 IDIUse=3 WtCom= 9.59D-01 WtEn= 4.11D-02
 Coeff-Com: -0.949D+00 0.108D+01-0.101D+00 0.172D-01 0.383D+00 0.565D+00
 Coeff-En:   0.000D+00 0.000D+00 0.000D+00 0.000D+00 0.000D+00 0.100D+01
 Coeff:     -0.910D+00 0.104D+01-0.965D-01 0.164D-01 0.368D+00 0.582D+00
 Gap=     0.109 Goal=   None    Shift=    0.000
 RMSDP=5.67D-05 MaxDP=3.53D-03 DE=-2.62D-03 OVMax= 1.30D-02

 Cycle   7  Pass 1  IDiag  1:
 E= -1593.90734633836     Delta-E=       -0.003694405204 Rises=F Damp=F
 DIIS: error= 3.31D-03 at cycle   7 NSaved=   7.
 NSaved= 7 IEnMin= 7 EnMin= -1593.90734633836     IErMin= 7 ErrMin= 3.31D-03
 ErrMax= 3.31D-03  0.00D+00 EMaxC= 1.00D-01 BMatC= 6.66D-04 BMatP= 8.47D-04
 IDIUse=3 WtCom= 9.67D-01 WtEn= 3.31D-02
 Coeff-Com: -0.902D+00 0.103D+01-0.894D-01 0.777D-02 0.372D+00 0.475D+00
 Coeff-Com:  0.106D+00
 Coeff-En:   0.000D+00 0.000D+00 0.000D+00 0.000D+00 0.000D+00 0.000D+00
 Coeff-En:   0.100D+01
 Coeff:     -0.872D+00 0.997D+00-0.865D-01 0.751D-02 0.360D+00 0.459D+00
 Coeff:      0.135D+00
 Gap=     0.110 Goal=   None    Shift=    0.000
 RMSDP=1.10D-05 MaxDP=1.04D-03 DE=-3.69D-03 OVMax= 2.54D-03

 Cycle   8  Pass 1  IDiag  1:
 E= -1593.90765573004     Delta-E=       -0.000309391675 Rises=F Damp=F
 DIIS: error= 3.33D-03 at cycle   8 NSaved=   8.
 NSaved= 8 IEnMin= 8 EnMin= -1593.90765573004     IErMin= 7 ErrMin= 3.31D-03
 ErrMax= 3.33D-03  0.00D+00 EMaxC= 1.00D-01 BMatC= 5.96D-04 BMatP= 6.66D-04
 IDIUse=3 WtCom= 9.67D-01 WtEn= 3.31D-02
 Coeff-Com: -0.836D+00 0.955D+00-0.761D-01 0.756D-02 0.374D+00 0.304D+00
 Coeff-Com: -0.439D+00 0.709D+00
 Coeff-En:   0.000D+00 0.000D+00 0.000D+00 0.000D+00 0.000D+00 0.000D+00
 Coeff-En:   0.000D+00 0.100D+01
 Coeff:     -0.808D+00 0.924D+00-0.736D-01 0.731D-02 0.362D+00 0.294D+00
 Coeff:     -0.424D+00 0.719D+00
 Gap=     0.110 Goal=   None    Shift=    0.000
 RMSDP=1.43D-05 MaxDP=8.18D-04 DE=-3.09D-04 OVMax= 2.88D-03

 Cycle   9  Pass 1  IDiag  1:
 E= -1593.90825451461     Delta-E=       -0.000598784569 Rises=F Damp=F
 DIIS: error= 3.11D-03 at cycle   9 NSaved=   9.
 NSaved= 9 IEnMin= 9 EnMin= -1593.90825451461     IErMin= 9 ErrMin= 3.11D-03
 ErrMax= 3.11D-03  0.00D+00 EMaxC= 1.00D-01 BMatC= 5.30D-04 BMatP= 5.96D-04
 IDIUse=3 WtCom= 9.69D-01 WtEn= 3.11D-02
 Coeff-Com: -0.513D+00 0.586D+00-0.995D-01 0.367D-01 0.389D+00 0.310D+00
 Coeff-Com: -0.299D+01-0.150D+01 0.478D+01
 Coeff-En:   0.000D+00 0.000D+00 0.000D+00 0.000D+00 0.000D+00 0.000D+00
 Coeff-En:   0.000D+00 0.000D+00 0.100D+01
 Coeff:     -0.497D+00 0.568D+00-0.964D-01 0.356D-01 0.377D+00 0.301D+00
 Coeff:     -0.290D+01-0.145D+01 0.466D+01
 Gap=     0.113 Goal=   None    Shift=    0.000
 RMSDP=6.96D-05 MaxDP=5.13D-03 DE=-5.99D-04 OVMax= 1.73D-02

 Cycle  10  Pass 1  IDiag  1:
 E= -1593.91065487823     Delta-E=       -0.002400363629 Rises=F Damp=F
 DIIS: error= 2.49D-03 at cycle  10 NSaved=  10.
 NSaved=10 IEnMin=10 EnMin= -1593.91065487823     IErMin=10 ErrMin= 2.49D-03
 ErrMax= 2.49D-03  0.00D+00 EMaxC= 1.00D-01 BMatC= 3.23D-04 BMatP= 5.30D-04
 IDIUse=3 WtCom= 9.75D-01 WtEn= 2.49D-02
 Coeff-Com: -0.308D+00 0.352D+00-0.838D-01 0.125D-01 0.331D+00 0.521D+00
 Coeff-Com: -0.577D+00-0.202D+01 0.114D+01 0.163D+01
 Coeff-En:   0.000D+00 0.000D+00 0.000D+00 0.000D+00 0.000D+00 0.000D+00
 Coeff-En:   0.000D+00 0.000D+00 0.000D+00 0.100D+01
 Coeff:     -0.300D+00 0.343D+00-0.817D-01 0.122D-01 0.323D+00 0.508D+00
 Coeff:     -0.563D+00-0.197D+01 0.112D+01 0.161D+01
 Gap=     0.114 Goal=   None    Shift=    0.000
 RMSDP=5.95D-05 MaxDP=5.48D-03 DE=-2.40D-03 OVMax= 1.74D-02

 Cycle  11  Pass 1  IDiag  1:
 E= -1593.91167305408     Delta-E=       -0.001018175848 Rises=F Damp=F
 DIIS: error= 1.78D-03 at cycle  11 NSaved=  11.
 NSaved=11 IEnMin=11 EnMin= -1593.91167305408     IErMin=11 ErrMin= 1.78D-03
 ErrMax= 1.78D-03  0.00D+00 EMaxC= 1.00D-01 BMatC= 1.55D-04 BMatP= 3.23D-04
 IDIUse=3 WtCom= 9.82D-01 WtEn= 1.78D-02
 Coeff-Com: -0.110D+00 0.125D+00-0.276D-01-0.420D-01 0.148D+00 0.475D+00
 Coeff-Com:  0.379D+01-0.668D-02-0.659D+01 0.192D+01 0.132D+01
 Coeff-En:   0.000D+00 0.000D+00 0.000D+00 0.000D+00 0.000D+00 0.000D+00
 Coeff-En:   0.000D+00 0.000D+00 0.000D+00 0.000D+00 0.100D+01
 Coeff:     -0.108D+00 0.123D+00-0.271D-01-0.413D-01 0.146D+00 0.466D+00
 Coeff:      0.372D+01-0.656D-02-0.647D+01 0.188D+01 0.131D+01
 Gap=     0.117 Goal=   None    Shift=    0.000
 RMSDP=8.10D-05 MaxDP=8.88D-03 DE=-1.02D-03 OVMax= 2.67D-02

 Cycle  12  Pass 1  IDiag  1:
 E= -1593.91243341011     Delta-E=       -0.000760356026 Rises=F Damp=F
 DIIS: error= 5.03D-04 at cycle  12 NSaved=  12.
 NSaved=12 IEnMin=12 EnMin= -1593.91243341011     IErMin=12 ErrMin= 5.03D-04
 ErrMax= 5.03D-04  0.00D+00 EMaxC= 1.00D-01 BMatC= 2.21D-05 BMatP= 1.55D-04
 IDIUse=3 WtCom= 9.95D-01 WtEn= 5.03D-03
 Coeff-Com: -0.995D-01 0.114D+00 0.965D-02-0.498D-02-0.283D-02-0.450D-01
 Coeff-Com:  0.169D+01 0.145D+01-0.376D+01 0.895D-02 0.729D+00 0.912D+00
 Coeff-En:   0.000D+00 0.000D+00 0.000D+00 0.000D+00 0.000D+00 0.000D+00
 Coeff-En:   0.000D+00 0.000D+00 0.000D+00 0.000D+00 0.000D+00 0.100D+01
 Coeff:     -0.990D-01 0.113D+00 0.960D-02-0.495D-02-0.281D-02-0.448D-01
 Coeff:      0.168D+01 0.144D+01-0.374D+01 0.891D-02 0.726D+00 0.912D+00
 Gap=     0.119 Goal=   None    Shift=    0.000
 RMSDP=3.98D-05 MaxDP=4.00D-03 DE=-7.60D-04 OVMax= 1.16D-02

 Cycle  13  Pass 1  IDiag  1:
 E= -1593.91257774325     Delta-E=       -0.000144333142 Rises=F Damp=F
 DIIS: error= 3.99D-04 at cycle  13 NSaved=  13.
 NSaved=13 IEnMin=13 EnMin= -1593.91257774325     IErMin=13 ErrMin= 3.99D-04
 ErrMax= 3.99D-04  0.00D+00 EMaxC= 1.00D-01 BMatC= 1.33D-05 BMatP= 2.21D-05
 IDIUse=3 WtCom= 9.96D-01 WtEn= 3.99D-03
 Coeff-Com: -0.108D+00 0.123D+00 0.136D-01 0.247D-01-0.701D-01-0.289D+00
 Coeff-Com: -0.451D+00 0.135D+01-0.495D-01-0.871D+00-0.906D-01 0.584D+00
 Coeff-Com:  0.836D+00
 Coeff-En:   0.000D+00 0.000D+00 0.000D+00 0.000D+00 0.000D+00 0.000D+00
 Coeff-En:   0.000D+00 0.000D+00 0.000D+00 0.000D+00 0.000D+00 0.000D+00
 Coeff-En:   0.100D+01
 Coeff:     -0.107D+00 0.122D+00 0.136D-01 0.246D-01-0.699D-01-0.288D+00
 Coeff:     -0.449D+00 0.134D+01-0.493D-01-0.868D+00-0.902D-01 0.581D+00
 Coeff:      0.836D+00
 Gap=     0.120 Goal=   None    Shift=    0.000
 RMSDP=2.54D-05 MaxDP=2.53D-03 DE=-1.44D-04 OVMax= 7.23D-03

 Cycle  14  Pass 1  IDiag  1:
 E= -1593.91263062536     Delta-E=       -0.000052882110 Rises=F Damp=F
 DIIS: error= 4.81D-04 at cycle  14 NSaved=  14.
 NSaved=14 IEnMin=14 EnMin= -1593.91263062536     IErMin=13 ErrMin= 3.99D-04
 ErrMax= 4.81D-04  0.00D+00 EMaxC= 1.00D-01 BMatC= 1.07D-05 BMatP= 1.33D-05
 IDIUse=3 WtCom= 9.96D-01 WtEn= 3.99D-03
 Coeff-Com: -0.132D+00 0.151D+00-0.199D-01 0.299D-02-0.127D-01-0.272D-02
 Coeff-Com:  0.547D-01 0.182D+00-0.102D+00-0.119D+00-0.710D-01-0.210D-01
 Coeff-Com:  0.211D+00 0.879D+00
 Coeff-En:   0.000D+00 0.000D+00 0.000D+00 0.000D+00 0.000D+00 0.000D+00
 Coeff-En:   0.000D+00 0.000D+00 0.000D+00 0.000D+00 0.000D+00 0.000D+00
 Coeff-En:   0.000D+00 0.100D+01
 Coeff:     -0.132D+00 0.151D+00-0.198D-01 0.297D-02-0.127D-01-0.271D-02
 Coeff:      0.545D-01 0.181D+00-0.102D+00-0.118D+00-0.708D-01-0.210D-01
 Coeff:      0.210D+00 0.879D+00
 Gap=     0.119 Goal=   None    Shift=    0.000
 RMSDP=7.73D-06 MaxDP=5.54D-04 DE=-5.29D-05 OVMax= 7.33D-04

 Cycle  15  Pass 1  IDiag  1:
 E= -1593.91260079744     Delta-E=        0.000029827919 Rises=F Damp=F
 DIIS: error= 4.54D-04 at cycle  15 NSaved=  15.
 NSaved=15 IEnMin=14 EnMin= -1593.91263062536     IErMin=13 ErrMin= 3.99D-04
 ErrMax= 4.54D-04  0.00D+00 EMaxC= 1.00D-01 BMatC= 8.72D-06 BMatP= 1.07D-05
 IDIUse=3 WtCom= 9.96D-01 WtEn= 3.99D-03
 Rare condition: small coef for last iteration:  0.000D+00
 Coeff-Com: -0.100D+00 0.115D+00-0.117D-01 0.333D-02-0.630D-02 0.430D-02
 Coeff-Com:  0.360D-01-0.703D-02-0.691D-01 0.375D-01-0.565D-02-0.590D-01
 Coeff-Com:  0.500D-02 0.415D+00 0.643D+00
 Coeff-En:   0.000D+00 0.000D+00 0.000D+00 0.000D+00 0.000D+00 0.000D+00
 Coeff-En:   0.000D+00 0.000D+00 0.000D+00 0.000D+00 0.000D+00 0.000D+00
 Coeff-En:   0.000D+00 0.000D+00 0.100D+01
 Coeff:     -0.100D+00 0.115D+00-0.117D-01 0.333D-02-0.630D-02 0.430D-02
 Coeff:      0.360D-01-0.703D-02-0.691D-01 0.375D-01-0.565D-02-0.590D-01
 Coeff:      0.500D-02 0.415D+00 0.643D+00
 Gap=     0.119 Goal=   None    Shift=    0.000
 RMSDP=7.99D-06 MaxDP=6.64D-04 DE= 2.98D-05 OVMax= 2.08D-03

 Cycle  16  Pass 1  IDiag  1:
 E= -1593.91264246948     Delta-E=       -0.000041672043 Rises=F Damp=F
 DIIS: error= 3.43D-04 at cycle  16 NSaved=  16.
 NSaved=16 IEnMin=16 EnMin= -1593.91264246948     IErMin=16 ErrMin= 3.43D-04
 ErrMax= 3.43D-04  0.00D+00 EMaxC= 1.00D-01 BMatC= 4.87D-06 BMatP= 8.72D-06
 IDIUse=3 WtCom= 9.97D-01 WtEn= 3.43D-03
 Coeff-Com: -0.758D-01 0.866D-01-0.688D-02 0.275D-02-0.888D-02-0.107D-01
 Coeff-Com:  0.488D-01 0.116D+00-0.145D+00-0.602D-01 0.250D-01 0.461D-01
 Coeff-Com:  0.654D-02-0.144D-01-0.126D+00 0.112D+01
 Coeff-En:   0.000D+00 0.000D+00 0.000D+00 0.000D+00 0.000D+00 0.000D+00
 Coeff-En:   0.000D+00 0.000D+00 0.000D+00 0.000D+00 0.000D+00 0.000D+00
 Coeff-En:   0.000D+00 0.000D+00 0.000D+00 0.100D+01
 Coeff:     -0.755D-01 0.863D-01-0.685D-02 0.274D-02-0.885D-02-0.106D-01
 Coeff:      0.487D-01 0.115D+00-0.144D+00-0.600D-01 0.249D-01 0.459D-01
 Coeff:      0.651D-02-0.144D-01-0.126D+00 0.112D+01
 Gap=     0.119 Goal=   None    Shift=    0.000
 RMSDP=4.11D-06 MaxDP=3.54D-04 DE=-4.17D-05 OVMax= 1.07D-03

 Cycle  17  Pass 1  IDiag  1:
 E= -1593.91265851418     Delta-E=       -0.000016044695 Rises=F Damp=F
 DIIS: error= 2.52D-04 at cycle  17 NSaved=  17.
 NSaved=17 IEnMin=17 EnMin= -1593.91265851418     IErMin=17 ErrMin= 2.52D-04
 ErrMax= 2.52D-04  0.00D+00 EMaxC= 1.00D-01 BMatC= 2.66D-06 BMatP= 4.87D-06
 IDIUse=3 WtCom= 9.97D-01 WtEn= 2.52D-03
 Coeff-Com: -0.378D-01 0.432D-01-0.260D-02 0.198D-02-0.577D-02-0.140D-01
 Coeff-Com: -0.206D-01 0.825D-01-0.219D-01-0.707D-01 0.152D-01 0.631D-01
 Coeff-Com:  0.216D-01-0.103D+00-0.292D+00-0.131D+00 0.147D+01
 Coeff-En:   0.000D+00 0.000D+00 0.000D+00 0.000D+00 0.000D+00 0.000D+00
 Coeff-En:   0.000D+00 0.000D+00 0.000D+00 0.000D+00 0.000D+00 0.000D+00
 Coeff-En:   0.000D+00 0.000D+00 0.000D+00 0.000D+00 0.100D+01
 Coeff:     -0.377D-01 0.431D-01-0.259D-02 0.197D-02-0.576D-02-0.140D-01
 Coeff:     -0.205D-01 0.823D-01-0.218D-01-0.705D-01 0.151D-01 0.630D-01
 Coeff:      0.216D-01-0.103D+00-0.291D+00-0.131D+00 0.147D+01
 Gap=     0.119 Goal=   None    Shift=    0.000
 RMSDP=6.48D-06 MaxDP=5.24D-04 DE=-1.60D-05 OVMax= 1.61D-03

 Cycle  18  Pass 1  IDiag  1:
 E= -1593.91267505465     Delta-E=       -0.000016540474 Rises=F Damp=F
 DIIS: error= 1.27D-04 at cycle  18 NSaved=  18.
 NSaved=18 IEnMin=18 EnMin= -1593.91267505465     IErMin=18 ErrMin= 1.27D-04
 ErrMax= 1.27D-04  0.00D+00 EMaxC= 1.00D-01 BMatC= 6.63D-07 BMatP= 2.66D-06
 IDIUse=3 WtCom= 9.99D-01 WtEn= 1.27D-03
 Coeff-Com: -0.115D-01 0.131D-01-0.132D-02 0.371D-03-0.218D-02-0.327D-03
 Coeff-Com: -0.310D-02 0.290D-02 0.835D-02-0.157D-01-0.191D-02 0.140D-01
 Coeff-Com:  0.198D-01 0.194D-01 0.491D-01-0.728D+00 0.432D+00 0.121D+01
 Coeff-En:   0.000D+00 0.000D+00 0.000D+00 0.000D+00 0.000D+00 0.000D+00
 Coeff-En:   0.000D+00 0.000D+00 0.000D+00 0.000D+00 0.000D+00 0.000D+00
 Coeff-En:   0.000D+00 0.000D+00 0.000D+00 0.000D+00 0.000D+00 0.100D+01
 Coeff:     -0.115D-01 0.131D-01-0.132D-02 0.371D-03-0.218D-02-0.327D-03
 Coeff:     -0.309D-02 0.290D-02 0.834D-02-0.157D-01-0.191D-02 0.139D-01
 Coeff:      0.197D-01 0.194D-01 0.490D-01-0.727D+00 0.431D+00 0.121D+01
 Gap=     0.119 Goal=   None    Shift=    0.000
 RMSDP=4.11D-06 MaxDP=3.47D-04 DE=-1.65D-05 OVMax= 1.05D-03

 Cycle  19  Pass 1  IDiag  1:
 E= -1593.91267940803     Delta-E=       -0.000004353376 Rises=F Damp=F
 DIIS: error= 4.16D-05 at cycle  19 NSaved=  19.
 NSaved=19 IEnMin=19 EnMin= -1593.91267940803     IErMin=19 ErrMin= 4.16D-05
 ErrMax= 4.16D-05  0.00D+00 EMaxC= 1.00D-01 BMatC= 7.69D-08 BMatP= 6.63D-07
 IDIUse=1 WtCom= 1.00D+00 WtEn= 0.00D+00
 Coeff-Com: -0.115D-02 0.131D-02-0.373D-03-0.282D-04-0.547D-03 0.133D-02
 Coeff-Com: -0.658D-03-0.110D-01 0.106D-01 0.569D-02-0.386D-02-0.634D-02
 Coeff-Com:  0.871D-03 0.189D-01 0.983D-01-0.257D+00-0.143D+00 0.307D+00
 Coeff-Com:  0.980D+00
 Coeff:     -0.115D-02 0.131D-02-0.373D-03-0.282D-04-0.547D-03 0.133D-02
 Coeff:     -0.658D-03-0.110D-01 0.106D-01 0.569D-02-0.386D-02-0.634D-02
 Coeff:      0.871D-03 0.189D-01 0.983D-01-0.257D+00-0.143D+00 0.307D+00
 Coeff:      0.980D+00
 Gap=     0.119 Goal=   None    Shift=    0.000
 RMSDP=1.59D-06 MaxDP=1.26D-04 DE=-4.35D-06 OVMax= 3.80D-04

 Cycle  20  Pass 1  IDiag  1:
 E= -1593.91267987377     Delta-E=       -0.000000465745 Rises=F Damp=F
 DIIS: error= 4.88D-06 at cycle  20 NSaved=  20.
 NSaved=20 IEnMin=20 EnMin= -1593.91267987377     IErMin=20 ErrMin= 4.88D-06
 ErrMax= 4.88D-06  0.00D+00 EMaxC= 1.00D-01 BMatC= 1.45D-09 BMatP= 7.69D-08
 IDIUse=1 WtCom= 1.00D+00 WtEn= 0.00D+00
 Coeff-Com: -0.903D-03 0.103D-02-0.675D-04 0.329D-04-0.261D-03 0.155D-04
 Coeff-Com:  0.256D-02-0.169D-03-0.449D-02 0.241D-02 0.961D-03-0.137D-02
 Coeff-Com: -0.260D-02-0.236D-02 0.166D-01 0.539D-01-0.356D-01-0.119D+00
 Coeff-Com:  0.251D-01 0.106D+01
 Coeff:     -0.903D-03 0.103D-02-0.675D-04 0.329D-04-0.261D-03 0.155D-04
 Coeff:      0.256D-02-0.169D-03-0.449D-02 0.241D-02 0.961D-03-0.137D-02
 Coeff:     -0.260D-02-0.236D-02 0.166D-01 0.539D-01-0.356D-01-0.119D+00
 Coeff:      0.251D-01 0.106D+01
 Gap=     0.119 Goal=   None    Shift=    0.000
 RMSDP=4.01D-08 MaxDP=3.20D-06 DE=-4.66D-07 OVMax= 5.61D-06

 Cycle  21  Pass 1  IDiag  1:
 E= -1593.91267987562     Delta-E=       -0.000000001846 Rises=F Damp=F
 DIIS: error= 3.16D-06 at cycle  21 NSaved=  20.
 NSaved=20 IEnMin=20 EnMin= -1593.91267987562     IErMin=20 ErrMin= 3.16D-06
 ErrMax= 3.16D-06  0.00D+00 EMaxC= 1.00D-01 BMatC= 4.27D-10 BMatP= 1.45D-09
 IDIUse=1 WtCom= 1.00D+00 WtEn= 0.00D+00
 Coeff-Com: -0.255D-03 0.292D-03-0.326D-07-0.541D-04-0.879D-04 0.199D-02
 Coeff-Com:  0.164D-02-0.401D-02-0.332D-04 0.532D-03 0.232D-03-0.368D-03
 Coeff-Com: -0.814D-03-0.251D-02 0.296D-01-0.141D-02-0.572D-01-0.914D-01
 Coeff-Com:  0.174D+00 0.950D+00
 Coeff:     -0.255D-03 0.292D-03-0.326D-07-0.541D-04-0.879D-04 0.199D-02
 Coeff:      0.164D-02-0.401D-02-0.332D-04 0.532D-03 0.232D-03-0.368D-03
 Coeff:     -0.814D-03-0.251D-02 0.296D-01-0.141D-02-0.572D-01-0.914D-01
 Coeff:      0.174D+00 0.950D+00
 Gap=     0.119 Goal=   None    Shift=    0.000
 RMSDP=8.87D-08 MaxDP=7.63D-06 DE=-1.85D-09 OVMax= 2.28D-05

 Cycle  22  Pass 1  IDiag  1:
 E= -1593.91267987779     Delta-E=       -0.000000002167 Rises=F Damp=F
 DIIS: error= 1.03D-06 at cycle  22 NSaved=  20.
 NSaved=20 IEnMin=20 EnMin= -1593.91267987779     IErMin=20 ErrMin= 1.03D-06
 ErrMax= 1.03D-06  0.00D+00 EMaxC= 1.00D-01 BMatC= 4.21D-11 BMatP= 4.27D-10
 IDIUse=1 WtCom= 1.00D+00 WtEn= 0.00D+00
 Coeff-Com:  0.153D-10-0.754D-05 0.117D-04 0.596D-05 0.544D-03 0.343D-03
 Coeff-Com: -0.101D-02-0.288D-04 0.987D-04 0.692D-04 0.581D-04 0.350D-03
 Coeff-Com: -0.229D-02 0.416D-02 0.188D-02-0.969D-02-0.500D-01-0.530D-01
 Coeff-Com:  0.627D+00 0.481D+00
 Coeff:      0.153D-10-0.754D-05 0.117D-04 0.596D-05 0.544D-03 0.343D-03
 Coeff:     -0.101D-02-0.288D-04 0.987D-04 0.692D-04 0.581D-04 0.350D-03
 Coeff:     -0.229D-02 0.416D-02 0.188D-02-0.969D-02-0.500D-01-0.530D-01
 Coeff:      0.627D+00 0.481D+00
 Gap=     0.119 Goal=   None    Shift=    0.000
 RMSDP=4.56D-08 MaxDP=3.55D-06 DE=-2.17D-09 OVMax= 1.09D-05

 Cycle  23  Pass 1  IDiag  1:
 E= -1593.91267987814     Delta-E=       -0.000000000352 Rises=F Damp=F
 DIIS: error= 1.66D-07 at cycle  23 NSaved=  20.
 NSaved=20 IEnMin=20 EnMin= -1593.91267987814     IErMin=20 ErrMin= 1.66D-07
 ErrMax= 1.66D-07  0.00D+00 EMaxC= 1.00D-01 BMatC= 1.45D-12 BMatP= 4.21D-11
 IDIUse=1 WtCom= 1.00D+00 WtEn= 0.00D+00
 Coeff-Com: -0.160D-10 0.924D-05-0.116D-04-0.188D-03-0.441D-04 0.248D-03
 Coeff-Com: -0.560D-04-0.827D-05 0.695D-04 0.100D-03 0.166D-03-0.137D-02
 Coeff-Com: -0.443D-02 0.402D-02 0.842D-02-0.164D-01-0.735D-01 0.213D+00
 Coeff-Com:  0.348D+00 0.522D+00
 Coeff:     -0.160D-10 0.924D-05-0.116D-04-0.188D-03-0.441D-04 0.248D-03
 Coeff:     -0.560D-04-0.827D-05 0.695D-04 0.100D-03 0.166D-03-0.137D-02
 Coeff:     -0.443D-02 0.402D-02 0.842D-02-0.164D-01-0.735D-01 0.213D+00
 Coeff:      0.348D+00 0.522D+00
 Gap=     0.119 Goal=   None    Shift=    0.000
 RMSDP=5.53D-09 MaxDP=4.89D-07 DE=-3.52D-10 OVMax= 1.12D-06

 SCF Done:  E(ROHF) =  -1593.91267988     A.U. after   23 cycles
            NFock= 23  Conv=0.55D-08     -V/T= 1.9557
 <Sx>= 0.0000 <Sy>= 0.0000 <Sz>= 1.0000 <S**2>= 2.0000 S= 1.0000
 <L.S>=  0.00000000000    
 KE= 1.667785496009D+03 PE=-4.011989933370D+03 EE= 6.844385934566D+02
 Annihilation of the first spin contaminant:
 S**2 before annihilation     2.0000,   after     2.0000
 Leave Link  502 at Sun Mar 18 02:56:55 2018, MaxMem= 21474836480 cpu:             716.5 elap:              38.7
 (Enter /home1/apps/gaussian/16rA.03/g16/l801.exe)
 Windowed orbitals will be sorted by symmetry type.
 GenMOA:  NOpAll=  4 NOp2=4 NOpUse=  4 JSym2X=1
 FoFJK:  IHMeth= 1 ICntrl=       0 DoSepK=F KAlg= 0 I1Cent=           0 FoldK=F
 IRaf=         0 NMat=       1 IRICut=       1 DoRegI=T DoRafI=F ISym2E= 1 IDoP0=0 IntGTp=1.
 FoFCou: FMM=F IPFlag=           8 FMFlag=      100000 FMFlg1=           0
         NFxFlg=           0 DoJE=F BraDBF=F KetDBF=F FulRan=T
         wScrn=  0.000000 ICntrl=         0 IOpCl=  1 I1Cent=           0 NGrid=           0
         NMat0=    1 NMatS0=      1 NMatT0=    0 NMatD0=    1 NMtDS0=    0 NMtDT0=    0
 Petite list used in FoFCou.
 <Sx>= 0.0000 <Sy>= 0.0000 <Sz>= 1.0000 <S**2>= 2.0000 S= 1.0000
 Range of M.O.s used for correlation:     7   380
 NBasis=   384 NAE=    19 NBE=    17 NFC=     6 NFV=     0
 NROrb=    374 NOA=    13 NOB=    11 NVA=   361 NVB=   363

 **** Warning!!: The largest alpha MO coefficient is  0.28121456D+03


 **** Warning!!: The largest beta MO coefficient is  0.28121471D+03

 Singles contribution to E2=   -0.6154646719D-02
 Leave Link  801 at Sun Mar 18 02:57:01 2018, MaxMem= 21474836480 cpu:             177.0 elap:               5.6
 (Enter /home1/apps/gaussian/16rA.03/g16/l804.exe)
 Open-shell transformation, MDV= 21474836480 ITran=4 ISComp=2.
 Unit  1 TFree=       4473233 TCopy=       3426069.
 Semi-Direct transformation.
 ModeAB=           4 MOrb=            13 LenV=   21470648073
 LASXX=     84409870 LTotXX=    84409870 LenRXX=   169720288
 LTotAB=    85310418 MaxLAS=   579409402 LenRXY=           0
 NonZer=   254130158 LenScr=   382690304 LnRSAI=   579409402
 LnScr1=   872522752 LExtra=    30967878 Total=   2035310624
 MaxDsk= 67108864000 SrtSym=           T ITran=            4
 DoSDTr:  NPSUse= 32
 JobTyp=1 Pass  1:  I=   1 to  13.
 (rs|ai) integrals will be sorted in core.
 Complete sort for first half transformation.
 First half transformation complete.
 Begin second half transformation for I=  10.
 Complete sort for second half transformation.
 Second half transformation complete.
 ModeAB=           4 MOrb=            11 LenV=   21470648073
 LASXX=     71842268 LTotXX=    71842268 LenRXX=   139457041
 LTotAB=    67614773 MaxLAS=   490269494 LenRXY=           0
 NonZer=   211299309 LenScr=   318192640 LnRSAI=   490269494
 LnScr1=   738288640 LExtra=   200688166 Total=   1886895981
 MaxDsk= 67108864000 SrtSym=           T ITran=            4
 DoSDTr:  NPSUse= 32
 JobTyp=2 Pass  1:  I=   1 to  11.
 (rs|ai) integrals will be sorted in core.
 Complete sort for first half transformation.
 First half transformation complete.
 Begin second half transformation for I=  10.
 Complete sort for second half transformation.
 Second half transformation complete.
 Spin components of T(2) and E(2):
     alpha-alpha T2 =       0.3667139348D-01 E2=     -0.2102726499D+00
     alpha-beta  T2 =       0.1683161336D+00 E2=     -0.8354662280D+00
     beta-beta   T2 =       0.3269610290D-01 E2=     -0.1478111489D+00
 ANorm=    0.1113299224D+01
 E2 =    -0.1199704673D+01 EUMP2 =    -0.15951123845516D+04
 (S**2,0)=  0.20000D+01           (S**2,1)=  0.20000D+01
 E(PUHF)=      -0.15939126799D+04        E(PMP2)=      -0.15951123846D+04
 Leave Link  804 at Sun Mar 18 03:00:36 2018, MaxMem= 21474836480 cpu:            6875.1 elap:             215.5
 (Enter /home1/apps/gaussian/16rA.03/g16/l913.exe)
 CIDS:  MDV= 21474836480.
 Frozen-core window:  NFC=   6 NFV=   0.
 IFCWin=0 IBDFC=1 NFBD=     0     0 NFCmp=     0     0 NFFFC=     0     0
 Using original routines for 1st iteration.
 Using DD4UQ or CC4UQ for 2nd and later iterations.
 Keep R2 and R3 ints in memory in symmetry-blocked form, NReq=3425137219.
 FoFCou: FMM=F IPFlag=           8 FMFlag=           0 FMFlg1=           0
         NFxFlg=           0 DoJE=F BraDBF=F KetDBF=F FulRan=T
         wScrn=  0.000000 ICntrl=       600 IOpCl=  0 I1Cent=           0 NGrid=           0
         NMat0=    1 NMatS0=  73920 NMatT0=    0 NMatD0=    1 NMtDS0=    0 NMtDT0=    0
 Petite list used in FoFCou.
 CIDS: In Core Option IDoMem=           1.
 CCSD(T)
 =======
 Iterations= 150 Convergence= 0.100D-06
 Produce multiple copies of IABC intergrals
 Iteration Nr.   1
 **********************
 DD1Dir will call FoFMem   1 times, MxPair=       420
 NAB=   143 NAA=    78 NBB=    55.
 DD1Dir will call FoFMem   1 times, MxPair=       420
 NAB=   143 NAA=    78 NBB=    55.
 MP4(R+Q)= -0.11305597D+00
 Maximum subspace dimension=  5
 A-vector RMS=  1.6565537D-04 Max=  3.8325801D-02 conv= 1.00D-05.
 RLE energy=       -1.1849822786
 E3=        0.12779525D+00        EROMP3=      -0.15949845893D+04
 E4(SDQ)=  -0.81338806D-01        ROMP4(SDQ)=  -0.15950659281D+04
 VARIATIONAL ENERGIES WITH THE FIRST-ORDER WAVEFUNCTION:
 DE(Corr)=  -1.1847978     E(Corr)=     -1595.0974777    
 NORM(A)=   0.11016661D+01
 Iteration Nr.   2
 **********************
 DD1Dir will call FoFMem   1 times, MxPair=       420
 NAB=   143 NAA=    78 NBB=    55.
 A-vector RMS=  4.5655634D-03 Max=  7.1255467D-02 conv= 1.00D-05.
 RLE energy=       -1.1374274315
 DE(Corr)=  -1.0567871     E(CORR)=     -1594.9694670     Delta= 1.28D-01
 NORM(A)=   0.10934191D+01
 Iteration Nr.   3
 **********************
 DD1Dir will call FoFMem   1 times, MxPair=       420
 NAB=   143 NAA=    78 NBB=    55.
 A-vector RMS=  2.2935689D-03 Max=  4.0096319D-02 conv= 1.00D-05.
 RLE energy=       -1.1442977770
 DE(Corr)=  -1.0859841     E(CORR)=     -1594.9986640     Delta=-2.92D-02
 NORM(A)=   0.11014022D+01
 Iteration Nr.   4
 **********************
 DD1Dir will call FoFMem   1 times, MxPair=       420
 NAB=   143 NAA=    78 NBB=    55.
 A-vector RMS=  3.0847050D-03 Max=  5.4068177D-02 conv= 1.00D-05.
 RLE energy=       -1.0285807490
 DE(Corr)=  -1.0876154     E(CORR)=     -1595.0002953     Delta=-1.63D-03
 NORM(A)=   0.13342560D+01
 Iteration Nr.   5
 **********************
 DD1Dir will call FoFMem   1 times, MxPair=       420
 NAB=   143 NAA=    78 NBB=    55.
 A-vector RMS=  9.1574172D-03 Max=  1.7286097D-01 conv= 1.00D-05.
 RLE energy=       -1.1297665071
 DE(Corr)=  -1.2414758     E(CORR)=     -1595.1541556     Delta=-1.54D-01
 NORM(A)=   0.12658726D+01
 Iteration Nr.   6
 **********************
 DD1Dir will call FoFMem   1 times, MxPair=       420
 NAB=   143 NAA=    78 NBB=    55.
 A-vector RMS=  1.8026010D-03 Max=  3.8679664D-02 conv= 1.00D-05.
 RLE energy=       -1.1436039249
 DE(Corr)=  -1.1521634     E(CORR)=     -1595.0648433     Delta= 8.93D-02
 NORM(A)=   0.12562915D+01
 Iteration Nr.   7
 **********************
 DD1Dir will call FoFMem   1 times, MxPair=       420
 NAB=   143 NAA=    78 NBB=    55.
 A-vector RMS=  6.4272114D-04 Max=  1.1561713D-02 conv= 1.00D-05.
 RLE energy=       -1.1395759672
 DE(Corr)=  -1.1371802     E(CORR)=     -1595.0498601     Delta= 1.50D-02
 NORM(A)=   0.12776702D+01
 Iteration Nr.   8
 **********************
 DD1Dir will call FoFMem   1 times, MxPair=       420
 NAB=   143 NAA=    78 NBB=    55.
 A-vector RMS=  5.6636576D-04 Max=  1.0022436D-02 conv= 1.00D-05.
 RLE energy=       -1.1449879250
 DE(Corr)=  -1.1417808     E(CORR)=     -1595.0544606     Delta=-4.60D-03
 NORM(A)=   0.13374357D+01
 Iteration Nr.   9
 **********************
 DD1Dir will call FoFMem   1 times, MxPair=       420
 NAB=   143 NAA=    78 NBB=    55.
 A-vector RMS=  3.0945963D-04 Max=  5.8358529D-03 conv= 1.00D-05.
 RLE energy=       -1.1475755738
 DE(Corr)=  -1.1456152     E(CORR)=     -1595.0582951     Delta=-3.83D-03
 NORM(A)=   0.13640261D+01
 Iteration Nr.  10
 **********************
 DD1Dir will call FoFMem   1 times, MxPair=       420
 NAB=   143 NAA=    78 NBB=    55.
 A-vector RMS=  2.4038307D-04 Max=  7.2534426D-03 conv= 1.00D-05.
 RLE energy=       -1.1475711915
 DE(Corr)=  -1.1476717     E(CORR)=     -1595.0603516     Delta=-2.06D-03
 NORM(A)=   0.13599605D+01
 Iteration Nr.  11
 **********************
 DD1Dir will call FoFMem   1 times, MxPair=       420
 NAB=   143 NAA=    78 NBB=    55.
 A-vector RMS=  1.4650687D-04 Max=  2.7455271D-03 conv= 1.00D-05.
 RLE energy=       -1.1472128279
 DE(Corr)=  -1.1471329     E(CORR)=     -1595.0598128     Delta= 5.39D-04
 NORM(A)=   0.13639232D+01
 Iteration Nr.  12
 **********************
 DD1Dir will call FoFMem   1 times, MxPair=       420
 NAB=   143 NAA=    78 NBB=    55.
 A-vector RMS=  1.0782556D-04 Max=  3.8919940D-03 conv= 1.00D-05.
 RLE energy=       -1.1479534499
 DE(Corr)=  -1.1478966     E(CORR)=     -1595.0605764     Delta=-7.64D-04
 NORM(A)=   0.13644785D+01
 Iteration Nr.  13
 **********************
 DD1Dir will call FoFMem   1 times, MxPair=       420
 NAB=   143 NAA=    78 NBB=    55.
 A-vector RMS=  1.0086882D-04 Max=  2.8675857D-03 conv= 1.00D-05.
 RLE energy=       -1.1474254631
 DE(Corr)=  -1.1471653     E(CORR)=     -1595.0598452     Delta= 7.31D-04
 NORM(A)=   0.13658061D+01
 Iteration Nr.  14
 **********************
 DD1Dir will call FoFMem   1 times, MxPair=       420
 NAB=   143 NAA=    78 NBB=    55.
 A-vector RMS=  3.8000532D-05 Max=  1.1229312D-03 conv= 1.00D-05.
 RLE energy=       -1.1477047581
 DE(Corr)=  -1.1477736     E(CORR)=     -1595.0604535     Delta=-6.08D-04
 NORM(A)=   0.13667307D+01
 Iteration Nr.  15
 **********************
 DD1Dir will call FoFMem   1 times, MxPair=       420
 NAB=   143 NAA=    78 NBB=    55.
 A-vector RMS=  3.2651506D-05 Max=  9.2598344D-04 conv= 1.00D-05.
 RLE energy=       -1.1476548930
 DE(Corr)=  -1.1475986     E(CORR)=     -1595.0602785     Delta= 1.75D-04
 NORM(A)=   0.13675525D+01
 Iteration Nr.  16
 **********************
 DD1Dir will call FoFMem   1 times, MxPair=       420
 NAB=   143 NAA=    78 NBB=    55.
 A-vector RMS=  2.5523777D-05 Max=  4.9665080D-04 conv= 1.00D-05.
 RLE energy=       -1.1477649502
 DE(Corr)=  -1.1477806     E(CORR)=     -1595.0604604     Delta=-1.82D-04
 NORM(A)=   0.13678110D+01
 Iteration Nr.  17
 **********************
 DD1Dir will call FoFMem   1 times, MxPair=       420
 NAB=   143 NAA=    78 NBB=    55.
 A-vector RMS=  1.8461706D-05 Max=  4.3594270D-04 conv= 1.00D-05.
 RLE energy=       -1.1477467175
 DE(Corr)=  -1.1477316     E(CORR)=     -1595.0604115     Delta= 4.89D-05
 NORM(A)=   0.13680962D+01
 Iteration Nr.  18
 **********************
 DD1Dir will call FoFMem   1 times, MxPair=       420
 NAB=   143 NAA=    78 NBB=    55.
 A-vector RMS=  1.5279726D-05 Max=  4.4028371D-04 conv= 1.00D-05.
 RLE energy=       -1.1478339910
 DE(Corr)=  -1.1478081     E(CORR)=     -1595.0604880     Delta=-7.65D-05
 NORM(A)=   0.13680645D+01
 Iteration Nr.  19
 **********************
 DD1Dir will call FoFMem   1 times, MxPair=       420
 NAB=   143 NAA=    78 NBB=    55.
 A-vector RMS=  1.3519686D-05 Max=  4.3820512D-04 conv= 1.00D-05.
 RLE energy=       -1.1477600175
 DE(Corr)=  -1.1477299     E(CORR)=     -1595.0604098     Delta= 7.81D-05
 NORM(A)=   0.13682691D+01
 Iteration Nr.  20
 **********************
 DD1Dir will call FoFMem   1 times, MxPair=       420
 NAB=   143 NAA=    78 NBB=    55.
 A-vector RMS=  1.3551324D-05 Max=  3.0192166D-04 conv= 1.00D-05.
 RLE energy=       -1.1478133598
 DE(Corr)=  -1.1478371     E(CORR)=     -1595.0605170     Delta=-1.07D-04
 NORM(A)=   0.13681879D+01
 Iteration Nr.  21
 **********************
 DD1Dir will call FoFMem   1 times, MxPair=       420
 NAB=   143 NAA=    78 NBB=    55.
 A-vector RMS=  4.6442405D-06 Max=  1.0021309D-04 conv= 1.00D-05.
 RLE energy=       -1.1477864444
 DE(Corr)=  -1.1477837     E(CORR)=     -1595.0604636     Delta= 5.34D-05
 NORM(A)=   0.13681463D+01
 Iteration Nr.  22
 **********************
 DD1Dir will call FoFMem   1 times, MxPair=       420
 NAB=   143 NAA=    78 NBB=    55.
 A-vector RMS=  4.7453469D-06 Max=  8.4092654D-05 conv= 1.00D-05.
 RLE energy=       -1.1477949843
 DE(Corr)=  -1.1478013     E(CORR)=     -1595.0604811     Delta=-1.75D-05
 NORM(A)=   0.13680578D+01
 Iteration Nr.  23
 **********************
 DD1Dir will call FoFMem   1 times, MxPair=       420
 NAB=   143 NAA=    78 NBB=    55.
 A-vector RMS=  3.5445565D-06 Max=  5.7250095D-05 conv= 1.00D-05.
 RLE energy=       -1.1477781279
 DE(Corr)=  -1.1477801     E(CORR)=     -1595.0604599     Delta= 2.12D-05
 NORM(A)=   0.13680000D+01
 Iteration Nr.  24
 **********************
 DD1Dir will call FoFMem   1 times, MxPair=       420
 NAB=   143 NAA=    78 NBB=    55.
 A-vector RMS=  3.1096565D-06 Max=  5.0983398D-05 conv= 1.00D-05.
 RLE energy=       -1.1477878358
 DE(Corr)=  -1.1477883     E(CORR)=     -1595.0604682     Delta=-8.26D-06
 NORM(A)=   0.13679271D+01
 Iteration Nr.  25
 **********************
 DD1Dir will call FoFMem   1 times, MxPair=       420
 NAB=   143 NAA=    78 NBB=    55.
 A-vector RMS=  3.0245207D-06 Max=  9.2857616D-05 conv= 1.00D-05.
 RLE energy=       -1.1477723410
 DE(Corr)=  -1.1477666     E(CORR)=     -1595.0604465     Delta= 2.17D-05
 NORM(A)=   0.13679245D+01
 Iteration Nr.  26
 **********************
 DD1Dir will call FoFMem   1 times, MxPair=       420
 NAB=   143 NAA=    78 NBB=    55.
 A-vector RMS=  1.5893366D-06 Max=  3.3513257D-05 conv= 1.00D-05.
 RLE energy=       -1.1477764696
 DE(Corr)=  -1.1477811     E(CORR)=     -1595.0604609     Delta=-1.44D-05
 NORM(A)=   0.13678816D+01
 Iteration Nr.  27
 **********************
 DD1Dir will call FoFMem   1 times, MxPair=       420
 NAB=   143 NAA=    78 NBB=    55.
 A-vector RMS=  8.7140129D-07 Max=  2.9956702D-05 conv= 1.00D-05.
 RLE energy=       -1.1477720139
 DE(Corr)=  -1.1477713     E(CORR)=     -1595.0604512     Delta= 9.78D-06
 NORM(A)=   0.13678637D+01
 Iteration Nr.  28
 **********************
 DD1Dir will call FoFMem   1 times, MxPair=       420
 NAB=   143 NAA=    78 NBB=    55.
 A-vector RMS=  7.0982430D-07 Max=  2.1323810D-05 conv= 1.00D-05.
 RLE energy=       -1.1477718561
 DE(Corr)=  -1.1477724     E(CORR)=     -1595.0604523     Delta=-1.12D-06
 NORM(A)=   0.13678363D+01
 Iteration Nr.  29
 **********************
 DD1Dir will call FoFMem   1 times, MxPair=       420
 NAB=   143 NAA=    78 NBB=    55.
 A-vector RMS=  7.4006686D-07 Max=  2.4375484D-05 conv= 1.00D-05.
 RLE energy=       -1.1477682712
 DE(Corr)=  -1.1477683     E(CORR)=     -1595.0604482     Delta= 4.10D-06
 NORM(A)=   0.13678229D+01
 Iteration Nr.  30
 **********************
 DD1Dir will call FoFMem   1 times, MxPair=       420
 NAB=   143 NAA=    78 NBB=    55.
 A-vector RMS=  6.0661108D-07 Max=  1.5166751D-05 conv= 1.00D-05.
 RLE energy=       -1.1477691333
 DE(Corr)=  -1.1477699     E(CORR)=     -1595.0604497     Delta=-1.56D-06
 NORM(A)=   0.13678001D+01
 Iteration Nr.  31
 **********************
 DD1Dir will call FoFMem   1 times, MxPair=       420
 NAB=   143 NAA=    78 NBB=    55.
 A-vector RMS=  6.4151137D-07 Max=  1.9192824D-05 conv= 1.00D-05.
 RLE energy=       -1.1477651616
 DE(Corr)=  -1.1477650     E(CORR)=     -1595.0604449     Delta= 4.87D-06
 NORM(A)=   0.13678053D+01
 Iteration Nr.  32
 **********************
 DD1Dir will call FoFMem   1 times, MxPair=       420
 NAB=   143 NAA=    78 NBB=    55.
 A-vector RMS=  6.5182531D-07 Max=  1.9016521D-05 conv= 1.00D-05.
 RLE energy=       -1.1477669070
 DE(Corr)=  -1.1477695     E(CORR)=     -1595.0604493     Delta=-4.47D-06
 NORM(A)=   0.13677866D+01
 Iteration Nr.  33
 **********************
 DD1Dir will call FoFMem   1 times, MxPair=       420
 NAB=   143 NAA=    78 NBB=    55.
 A-vector RMS=  3.8219651D-07 Max=  6.6572698D-06 conv= 1.00D-05.
 RLE energy=       -1.1477655045
 DE(Corr)=  -1.1477650     E(CORR)=     -1595.0604449     Delta= 4.47D-06
 NORM(A)=   0.13677842D+01
 Iteration Nr.  34
 **********************
 DD1Dir will call FoFMem   1 times, MxPair=       420
 NAB=   143 NAA=    78 NBB=    55.
 A-vector RMS=  2.3327931D-07 Max=  5.2663100D-06 conv= 1.00D-05.
 RLE energy=       -1.1477657992
 DE(Corr)=  -1.1477657     E(CORR)=     -1595.0604456     Delta=-7.03D-07
 NORM(A)=   0.13677803D+01
 Iteration Nr.  35
 **********************
 DD1Dir will call FoFMem   1 times, MxPair=       420
 NAB=   143 NAA=    78 NBB=    55.
 A-vector RMS=  1.8523525D-07 Max=  3.4780151D-06 conv= 1.00D-05.
 RLE energy=       -1.1477651936
 DE(Corr)=  -1.1477648     E(CORR)=     -1595.0604446     Delta= 9.43D-07
 NORM(A)=   0.13677812D+01
 Iteration Nr.  36
 **********************
 DD1Dir will call FoFMem   1 times, MxPair=       420
 NAB=   143 NAA=    78 NBB=    55.
 A-vector RMS=  1.6583305D-07 Max=  2.8899031D-06 conv= 1.00D-05.
 RLE energy=       -1.1477658268
 DE(Corr)=  -1.1477656     E(CORR)=     -1595.0604455     Delta=-8.68D-07
 NORM(A)=   0.13677825D+01
 Iteration Nr.  37
 **********************
 DD1Dir will call FoFMem   1 times, MxPair=       420
 NAB=   143 NAA=    78 NBB=    55.
 A-vector RMS=  1.2743091D-07 Max=  2.3540433D-06 conv= 1.00D-05.
 RLE energy=       -1.1477653619
 DE(Corr)=  -1.1477652     E(CORR)=     -1595.0604450     Delta= 4.67D-07
 NORM(A)=   0.13677882D+01
 Iteration Nr.  38
 **********************
 DD1Dir will call FoFMem   1 times, MxPair=       420
 NAB=   143 NAA=    78 NBB=    55.
 A-vector RMS=  1.6532063D-07 Max=  3.4586476D-06 conv= 1.00D-05.
 RLE energy=       -1.1477660331
 DE(Corr)=  -1.1477666     E(CORR)=     -1595.0604465     Delta=-1.43D-06
 NORM(A)=   0.13677867D+01
 Iteration Nr.  39
 **********************
 DD1Dir will call FoFMem   1 times, MxPair=       420
 NAB=   143 NAA=    78 NBB=    55.
 A-vector RMS=  6.9683952D-08 Max=  1.3806449D-06 conv= 1.00D-05.
 RLE energy=       -1.1477659801
 DE(Corr)=  -1.1477657     E(CORR)=     -1595.0604456     Delta= 8.35D-07
 NORM(A)=   0.13677884D+01
 Iteration Nr.  40
 **********************
 DD1Dir will call FoFMem   1 times, MxPair=       420
 NAB=   143 NAA=    78 NBB=    55.
 A-vector RMS=  3.9426541D-08 Max=  1.0988701D-06 conv= 1.00D-05.
 RLE energy=       -1.1477661265
 DE(Corr)=  -1.1477660     E(CORR)=     -1595.0604459     Delta=-3.04D-07
 NORM(A)=   0.13677892D+01
 Iteration Nr.  41
 **********************
 DD1Dir will call FoFMem   1 times, MxPair=       420
 NAB=   143 NAA=    78 NBB=    55.
 A-vector RMS=  2.2046776D-08 Max=  6.2082708D-07 conv= 1.00D-05.
 RLE energy=       -1.1477661506
 DE(Corr)=  -1.1477661     E(CORR)=     -1595.0604459     Delta=-4.43D-09
 NORM(A)=   0.13677904D+01
 CI/CC converged in   41 iterations to DelEn=-4.43D-09 Conv= 1.00D-07 ErrA1= 2.20D-08 Conv= 1.00D-05
 Wavefunction amplitudes converged. E(Corr)=     -1595.0604459    
 Dominant configurations:
 ***********************
 Spin Case        I    J    A    B          Value
    BB           15        24           -0.109649D+00
    BB           15        32            0.385886D+00
    BB           15        37            0.169197D+00
    BB           15        40            0.218433D+00
    BB           15        43            0.135859D+00
    BB           16        23           -0.109649D+00
    BB           16        33            0.385886D+00
    BB           16        36            0.169197D+00
    BB           16        41            0.218433D+00
    BB           16        42            0.135859D+00
   ABAB          19   17   20   18      -0.103441D+00
 Largest amplitude= 3.86D-01
 Time for triples=   104986.52 seconds.
 T4(CCSD)= -0.12654271D+00
 T5(CCSD)=  0.56781477D-01
 CCSD(T)= -0.15951302072D+04
 Discarding MO integrals.
 Leave Link  913 at Sun Mar 18 04:11:21 2018, MaxMem= 21474836480 cpu:          134002.8 elap:            4244.8
 (Enter /home1/apps/gaussian/16rA.03/g16/l601.exe)
 Copying SCF densities to generalized density rwf, IOpCl= 0 IROHF=1.

 **********************************************************************

            Population analysis using the SCF density.

 **********************************************************************

 Orbital symmetries:
       Occupied  (SG) (SG) (SG) (PI) (PI) (SG) (SG) (PI) (PI) (SG)
                 (SG) (SG) (DLTA) (DLTA) (PI) (PI) (SG) (PI) (PI)
       Virtual   (SG) (PI) (PI) (SG) (SG) (PI) (PI) (SG) (DLTA)
                 (DLTA) (PI) (PI) (SG) (SG) (SG) (PI) (PI) (SG)
                 (PI) (PI) (DLTA) (DLTA) (PI) (PI) (SG) (SG) (SG)
                 (DLTA) (DLTA) (SG) (PI) (PI) (PI) (PI) (DLTA)
                 (DLTA) (SG) (PI) (PI) (PHI) (PHI) (SG) (PI) (PI)
                 (DLTA) (DLTA) (SG) (PI) (PI) (SG) (SG) (PHI) (PHI)
                 (DLTA) (DLTA) (DLTA) (DLTA) (SG) (PI) (PI) (PI)
                 (PI) (DLTA) (DLTA) (SG) (PI) (PI) (SG) (PI) (PI)
                 (SG) (PHI) (PHI) (DLTA) (DLTA) (PI) (PI) (SG)
                 (?A) (?A) (PHI) (PHI) (PI) (PI) (SG) (DLTA) (DLTA)
                 (SG) (PI) (PI) (?A) (?A) (PHI) (PHI) (SG) (SG)
                 (DLTA) (DLTA) (PHI) (PHI) (PI) (PI) (SG) (DLTA)
                 (DLTA) (PI) (PI) (DLTA) (DLTA) (DLTA) (DLTA) (PI)
                 (PI) (SG) (SG) (PI) (PI) (SG) (PI) (PI) (SG) (PHI)
                 (PHI) (DLTA) (DLTA) (PI) (PI) (SG) (?A) (?A) (PHI)
                 (PHI) (DLTA) (DLTA) (?A) (?A) (PHI) (PHI) (?B)
                 (?B) (SG) (PI) (PI) (DLTA) (DLTA) (PI) (PI) (SG)
                 (SG) (PI) (PI) (DLTA) (DLTA) (PI) (PI) (SG) (SG)
                 (?A) (?A) (PHI) (PHI) (DLTA) (DLTA) (PI) (PI)
                 (SG) (PHI) (PHI) (DLTA) (DLTA) (PI) (PI) (SG)
                 (DLTA) (DLTA) (PI) (PI) (SG) (SG) (PI) (PI) (SG)
                 (PHI) (PHI) (DLTA) (DLTA) (PI) (PI) (SG) (PHI)
                 (PHI) (?A) (?A) (DLTA) (DLTA) (PI) (PI) (SG) (DLTA)
                 (DLTA) (PI) (PI) (SG) (PHI) (PHI) (?A) (?A) (?B)
                 (?B) (DLTA) (DLTA) (PI) (PI) (SG) (SG) (PI) (PI)
                 (SG) (PI) (PI) (SG) (DLTA) (DLTA) (PI) (PI) (SG)
                 (SG) (DLTA) (DLTA) (PHI) (PHI) (PI) (PI) (SG)
                 (PHI) (PHI) (?A) (?A) (DLTA) (DLTA) (PI) (PI)
                 (SG) (DLTA) (DLTA) (PI) (PI) (SG) (PHI) (PHI)
                 (?A) (?A) (DLTA) (DLTA) (?B) (?B) (PI) (PI) (SG)
                 (SG) (PI) (PI) (SG) (PI) (PI) (DLTA) (DLTA) (SG)
                 (PI) (PI) (SG) (SG) (PI) (PI) (DLTA) (DLTA) (SG)
                 (DLTA) (DLTA) (PHI) (PHI) (PI) (PI) (SG) (PI)
                 (PI) (SG) (SG) (PI) (PI) (SG) (SG) (DLTA) (DLTA)
                 (PI) (PI) (SG) (DLTA) (DLTA) (PI) (PI) (SG) (PI)
                 (PI) (SG) (SG) (SG) (PI) (PI) (SG) (PI) (PI) (SG)
                 (DLTA) (DLTA) (PI) (PI) (SG) (SG) (SG) (PI) (PI)
                 (SG) (SG) (PI) (PI) (SG) (DLTA) (DLTA) (PI) (PI)
                 (SG) (SG) (SG) (PI) (PI) (SG) (SG) (PI) (PI) (SG)
                 (SG) (SG) (PI) (PI) (SG) (SG) (SG) (PI) (PI) (SG)
                 (SG) (SG) (PI) (PI) (SG) (SG) (SG) (SG) (SG) (SG)
 The electronic state is 3-SG.
 Alpha  occ. eigenvalues -- -308.83871 -38.70441 -33.18570 -33.14970 -33.14970
 Alpha  occ. eigenvalues --  -20.50270  -5.14062  -3.51300  -3.43405  -3.43405
 Alpha  occ. eigenvalues --   -1.13411  -0.81345  -0.81345  -0.75687  -0.72649
 Alpha  occ. eigenvalues --   -0.72649  -0.38865  -0.38865  -0.35653
 Alpha virt. eigenvalues --   -0.05573   0.01726   0.01726   0.01857   0.03859
 Alpha virt. eigenvalues --    0.06619   0.06619   0.07632   0.07927   0.07927
 Alpha virt. eigenvalues --    0.08835   0.08835   0.12448   0.14902   0.21612
 Alpha virt. eigenvalues --    0.21612   0.21793   0.23734   0.24628   0.24628
 Alpha virt. eigenvalues --    0.25326   0.25326   0.29102   0.29102   0.36517
 Alpha virt. eigenvalues --    0.46397   0.55093   0.58214   0.58214   0.64112
 Alpha virt. eigenvalues --    0.64419   0.64419   0.69776   0.69776   0.70797
 Alpha virt. eigenvalues --    0.70797   0.73557   0.77712   0.77712   0.82510
 Alpha virt. eigenvalues --    0.82510   0.88424   0.93212   0.93212   0.93682
 Alpha virt. eigenvalues --    0.93682   1.02277   1.13640   1.13640   1.32070
 Alpha virt. eigenvalues --    1.43188   1.46629   1.46629   1.65338   1.65338
 Alpha virt. eigenvalues --    1.69662   1.69662   1.70190   1.72944   1.72944
 Alpha virt. eigenvalues --    1.82871   1.82871   1.89549   1.89549   1.92072
 Alpha virt. eigenvalues --    2.08871   2.08871   2.15561   2.24403   2.24403
 Alpha virt. eigenvalues --    2.30470   2.49530   2.49530   2.49536   2.49536
 Alpha virt. eigenvalues --    2.68630   2.68630   2.70140   2.83953   2.83953
 Alpha virt. eigenvalues --    2.84056   2.84056   2.91815   2.91848   2.91848
 Alpha virt. eigenvalues --    3.07077   3.07077   3.33629   3.54130   3.54130
 Alpha virt. eigenvalues --    3.79207   3.79207   3.88693   3.88693   4.01553
 Alpha virt. eigenvalues --    4.06605   4.21286   4.21286   4.22554   4.22554
 Alpha virt. eigenvalues --    4.29795   4.29795   4.36978   4.37420   4.37420
 Alpha virt. eigenvalues --    4.52737   4.52737   4.56299   4.56299   4.61712
 Alpha virt. eigenvalues --    4.61712   4.70052   4.70052   4.83192   5.03830
 Alpha virt. eigenvalues --    5.25073   5.25073   5.59342   6.19095   6.19095
 Alpha virt. eigenvalues --    6.43699   6.50869   6.50869   6.52940   6.52940
 Alpha virt. eigenvalues --    6.89931   6.89931   7.24807   7.79123   7.79123
 Alpha virt. eigenvalues --    7.79355   7.79355   7.87672   7.87672   7.95245
 Alpha virt. eigenvalues --    7.95245   7.97030   7.97030   7.97713   7.97713
 Alpha virt. eigenvalues --    7.98400   8.00364   8.00364   8.23566   8.23566
 Alpha virt. eigenvalues --    8.57757   8.57757   8.72195   9.18204   9.42986
 Alpha virt. eigenvalues --    9.42986   9.90487   9.90487   9.93930   9.93930
 Alpha virt. eigenvalues --   10.11296  10.61636  10.78259  10.78259  10.80429
 Alpha virt. eigenvalues --   10.80429  10.97976  10.97976  11.09806  11.09806
 Alpha virt. eigenvalues --   11.22319  12.02060  12.02060  12.07125  12.07125
 Alpha virt. eigenvalues --   12.37906  12.37906  12.63616  12.81683  12.81683
 Alpha virt. eigenvalues --   13.12114  13.12114  13.38371  13.79338  14.28720
 Alpha virt. eigenvalues --   14.28720  14.78493  16.06322  16.06322  16.08593
 Alpha virt. eigenvalues --   16.08593  16.38230  16.38230  16.93486  18.83285
 Alpha virt. eigenvalues --   18.83285  18.87754  18.87754  18.92048  18.92048
 Alpha virt. eigenvalues --   19.01777  19.01777  19.03844  19.20632  19.20632
 Alpha virt. eigenvalues --   19.22864  19.22864  19.54330  20.44249  20.44249
 Alpha virt. eigenvalues --   20.44676  20.44676  20.50387  20.50387  20.53332
 Alpha virt. eigenvalues --   20.53332  20.74812  20.74812  20.88308  22.60358
 Alpha virt. eigenvalues --   27.21572  27.21572  28.27728  28.98904  28.98904
 Alpha virt. eigenvalues --   29.59507  34.35504  34.35504  34.36219  34.36219
 Alpha virt. eigenvalues --   34.59696  35.95271  39.31613  39.31613  39.35205
 Alpha virt. eigenvalues --   39.35205  39.52787  39.52787  39.85903  43.72699
 Alpha virt. eigenvalues --   43.72699  43.78463  43.78463  43.78672  43.78672
 Alpha virt. eigenvalues --   43.87411  43.87411  43.91130  47.11546  47.11546
 Alpha virt. eigenvalues --   47.26784  47.26784  47.45158  48.28202  48.28202
 Alpha virt. eigenvalues --   48.29724  48.29724  48.32735  48.32735  48.36665
 Alpha virt. eigenvalues --   48.36665  48.43299  48.43299  48.53442  49.51365
 Alpha virt. eigenvalues --   55.54443  55.54443  56.30330  58.52507  58.52507
 Alpha virt. eigenvalues --   58.53609  58.53609  58.76720  66.75265  66.75265
 Alpha virt. eigenvalues --   67.69179  78.64895 100.45364 100.45364 100.46277
 Alpha virt. eigenvalues --  100.46277 100.64828 103.08024 103.08024 103.09094
 Alpha virt. eigenvalues --  103.09094 103.09706 103.09706 103.12876 106.91098
 Alpha virt. eigenvalues --  106.91098 107.36329 110.93941 146.26448 146.26448
 Alpha virt. eigenvalues --  147.07959 152.84189 193.81050 193.81050 193.81265
 Alpha virt. eigenvalues --  193.81265 193.97941 197.23485 197.23485 197.31752
 Alpha virt. eigenvalues --  197.31752 197.43259 212.35175 212.35175 213.14100
 Alpha virt. eigenvalues --  261.43675 279.70849 306.50477 306.50477 307.25716
 Alpha virt. eigenvalues --  435.37438 435.37438 436.16318 455.90654 455.90654
 Alpha virt. eigenvalues --  455.92024 455.92024 456.03940 501.09400 624.36269
 Alpha virt. eigenvalues --  630.28567 630.28567 631.00083 912.70325 915.42073
 Alpha virt. eigenvalues --  915.42073 916.229001386.735131386.735131386.75036
 Alpha virt. eigenvalues -- 1386.750361386.820991447.293231892.108821966.62884
 Alpha virt. eigenvalues -- 1966.628841967.280793229.987624303.127284303.12728
 Alpha virt. eigenvalues -- 4303.661184901.705496920.481379541.002399541.00239
 Alpha virt. eigenvalues -- 9541.39767****************************************
 Alpha virt. eigenvalues -- **************************************************
 Alpha virt. eigenvalues -- **************************************************
 Alpha virt. eigenvalues -- **********
     Molecular Orbital Coefficients:
                          13        14        15        16        17
                           O         O         O         O         O
     Eigenvalues --    -0.81345  -0.75687  -0.72649  -0.72649  -0.38865
   1 1   Ni 1S          0.00000   0.00000   0.00000   0.00000  -0.00000
   2        2S          0.00000   0.00000   0.00000   0.00000  -0.00000
   3        3S          0.00000   0.00000   0.00000   0.00000  -0.00001
   4        4S          0.00000   0.00000   0.00000   0.00000  -0.00003
   5        5S          0.00000   0.00000   0.00000   0.00000  -0.00006
   6        6S          0.00000   0.00000   0.00000   0.00000  -0.00015
   7        7S          0.00000   0.00000   0.00000   0.00000  -0.00036
   8        8S          0.00000   0.00000   0.00000   0.00000  -0.00086
   9        9S          0.00000   0.00000   0.00000   0.00000  -0.00205
  10       10S          0.00000   0.00000   0.00000   0.00000  -0.00448
  11       11S          0.00000   0.00000   0.00000   0.00000  -0.00874
  12       12S          0.00000   0.00000   0.00000   0.00000  -0.01301
  13       13S          0.00000   0.00000   0.00000   0.00000  -0.00986
  14       14S         -0.00000   0.00000   0.00000   0.00000   0.02129
  15       15S         -0.00000   0.00000   0.00000   0.00000   0.06894
  16       16S         -0.00000   0.00000   0.00000   0.00000   0.12668
  17       17S          0.00000   0.00000   0.00000   0.00000  -0.04808
  18       18S          0.00000   0.00000   0.00000   0.00000  -0.16942
  19       19S         -0.00000   0.00000   0.00000   0.00000  -0.15564
  20       20S          0.00000   0.00000   0.00000   0.00000   0.32022
  21       21S         -0.00000   0.00000   0.00000   0.00000   0.33034
  22       22S          0.00000   0.00000   0.00000   0.00000   0.06376
  23       23S          0.00000   0.00000   0.00000   0.00000  -0.06735
  24       24S         -0.00000   0.00000   0.00000   0.00000  -0.04105
  25       25S          0.00000   0.00000   0.00000   0.00000  -0.00133
  26       26PX         0.00000   0.00000   0.00000   0.00000   0.00000
  27       26PY         0.00000   0.00000   0.00000   0.00000   0.00000
  28       26PZ        -0.00000   0.00000   0.00000   0.00000  -0.00000
  29       27PX         0.00000   0.00000   0.00000   0.00000   0.00000
  30       27PY         0.00000   0.00000   0.00000   0.00000   0.00000
  31       27PZ         0.00000   0.00000   0.00000   0.00000  -0.00000
  32       28PX         0.00000   0.00000   0.00000   0.00001   0.00000
  33       28PY         0.00000   0.00000   0.00001   0.00000   0.00000
  34       28PZ         0.00000   0.00000   0.00000   0.00000  -0.00002
  35       29PX         0.00000   0.00000   0.00000   0.00005   0.00000
  36       29PY         0.00000   0.00000   0.00005   0.00000   0.00000
  37       29PZ         0.00000   0.00000   0.00000   0.00000  -0.00007
  38       30PX         0.00000   0.00000   0.00000   0.00019   0.00000
  39       30PY         0.00000   0.00000   0.00019   0.00000   0.00000
  40       30PZ        -0.00000   0.00000   0.00000   0.00000  -0.00023
  41       31PX         0.00000   0.00000   0.00000   0.00058   0.00000
  42       31PY         0.00000   0.00000   0.00058   0.00000   0.00000
  43       31PZ         0.00000   0.00000   0.00000   0.00000  -0.00073
  44       32PX         0.00000   0.00000   0.00000   0.00153   0.00000
  45       32PY         0.00000   0.00000   0.00153   0.00000   0.00000
  46       32PZ         0.00000   0.00000   0.00000   0.00000  -0.00189
  47       33PX         0.00000   0.00000   0.00000   0.00342   0.00000
  48       33PY         0.00000   0.00000   0.00342   0.00000   0.00000
  49       33PZ         0.00000   0.00000   0.00000   0.00000  -0.00430
  50       34PX         0.00000   0.00000   0.00000   0.00573   0.00000
  51       34PY         0.00000   0.00000   0.00573   0.00000   0.00000
  52       34PZ         0.00000   0.00000   0.00000   0.00000  -0.00698
  53       35PX         0.00000   0.00000   0.00000   0.00707   0.00000
  54       35PY         0.00000   0.00000   0.00707   0.00000   0.00000
  55       35PZ        -0.00000   0.00000   0.00000   0.00000  -0.00945
  56       36PX         0.00000   0.00000   0.00000   0.00141   0.00000
  57       36PY         0.00000   0.00000   0.00141   0.00000   0.00000
  58       36PZ        -0.00000   0.00000   0.00000   0.00000  -0.00721
  59       37PX         0.00000   0.00000   0.00000  -0.00992   0.00000
  60       37PY         0.00000   0.00000  -0.00992   0.00000   0.00000
  61       37PZ         0.00000   0.00000   0.00000   0.00000   0.01407
  62       38PX         0.00000   0.00000   0.00000  -0.00911   0.00000
  63       38PY         0.00000   0.00000  -0.00911   0.00000   0.00000
  64       38PZ        -0.00000   0.00000   0.00000   0.00000   0.01271
  65       39PX         0.00000   0.00000   0.00000  -0.02728   0.00000
  66       39PY         0.00000   0.00000  -0.02728   0.00000   0.00000
  67       39PZ        -0.00000   0.00000   0.00000   0.00000   0.03565
  68       40PX         0.00000   0.00000   0.00000  -0.00295   0.00000
  69       40PY         0.00000   0.00000  -0.00295   0.00000   0.00000
  70       40PZ         0.00000   0.00000   0.00000   0.00000  -0.00431
  71       41PX         0.00000   0.00000   0.00000   0.04457   0.00000
  72       41PY         0.00000   0.00000   0.04457   0.00000   0.00000
  73       41PZ        -0.00000   0.00000   0.00000   0.00000  -0.04805
  74       42PX         0.00000   0.00000   0.00000   0.04978   0.00000
  75       42PY         0.00000   0.00000   0.04978   0.00000   0.00000
  76       42PZ        -0.00000   0.00000   0.00000   0.00000  -0.00498
  77       43PX         0.00000   0.00000   0.00000   0.00344   0.00000
  78       43PY         0.00000   0.00000   0.00344   0.00000   0.00000
  79       43PZ        -0.00000   0.00000   0.00000   0.00000   0.00749
  80       44PX         0.00000   0.00000   0.00000  -0.00018   0.00000
  81       44PY         0.00000   0.00000  -0.00018   0.00000   0.00000
  82       44PZ         0.00000   0.00000   0.00000   0.00000   0.00542
  83       45PX         0.00000   0.00000   0.00000  -0.01246   0.00000
  84       45PY         0.00000   0.00000  -0.01246   0.00000   0.00000
  85       45PZ         0.00000   0.00000   0.00000   0.00000   0.01349
  86       46PX         0.00000   0.00000   0.00000  -0.00137   0.00000
  87       46PY         0.00000   0.00000  -0.00137   0.00000   0.00000
  88       46PZ         0.00000   0.00000   0.00000   0.00000  -0.00153
  89       47D 0       -0.00000   0.00000   0.00000   0.00000  -0.00005
  90       47D+1        0.00000   0.00000   0.00000  -0.00005   0.00000
  91       47D-1        0.00000   0.00000  -0.00005   0.00000   0.00000
  92       47D+2        0.00039   0.00000   0.00000   0.00000   0.00000
  93       47D-2        0.00000   0.00039   0.00000   0.00000   0.00000
  94       48D 0       -0.00000   0.00000   0.00000   0.00000  -0.00041
  95       48D+1        0.00000   0.00000   0.00000  -0.00039   0.00000
  96       48D-1        0.00000   0.00000  -0.00039   0.00000   0.00000
  97       48D+2        0.00338   0.00000   0.00000   0.00000   0.00000
  98       48D-2        0.00000   0.00338   0.00000   0.00000   0.00000
  99       49D 0       -0.00000   0.00000   0.00000   0.00000  -0.00208
 100       49D+1        0.00000   0.00000   0.00000  -0.00195   0.00000
 101       49D-1        0.00000   0.00000  -0.00195   0.00000   0.00000
 102       49D+2        0.01704   0.00000   0.00000   0.00000   0.00000
 103       49D-2        0.00000   0.01704   0.00000   0.00000   0.00000
 104       50D 0       -0.00000   0.00000   0.00000   0.00000  -0.00697
 105       50D+1        0.00000   0.00000   0.00000  -0.00654   0.00000
 106       50D-1        0.00000   0.00000  -0.00654   0.00000   0.00000
 107       50D+2        0.05751   0.00000   0.00000   0.00000   0.00000
 108       50D-2        0.00000   0.05751   0.00000   0.00000   0.00000
 109       51D 0       -0.00000   0.00000   0.00000   0.00000  -0.01772
 110       51D+1        0.00000   0.00000   0.00000  -0.01647   0.00000
 111       51D-1        0.00000   0.00000  -0.01647   0.00000   0.00000
 112       51D+2        0.14258   0.00000   0.00000   0.00000   0.00000
 113       51D-2        0.00000   0.14258   0.00000   0.00000   0.00000
 114       52D 0       -0.00000   0.00000   0.00000   0.00000  -0.03223
 115       52D+1        0.00000   0.00000   0.00000  -0.03036   0.00000
[...]
 172       62F-3        0.00000   0.00000   0.00000   0.00000
 173       63F 0        0.00021   0.00011   0.00011   0.00000
 174       63F+1        0.00005   0.00004   0.00001   0.00003
 175       63F-1        0.00005   0.00004   0.00001   0.00003
 176       63F+2        0.00003   0.00001   0.00001   0.00000
 177       63F-2        0.00003   0.00001   0.00001   0.00000
 178       63F+3        0.00000   0.00000   0.00000   0.00000
 179       63F-3        0.00000   0.00000   0.00000   0.00000
 180       64F 0        0.00206   0.00103   0.00103   0.00000
 181       64F+1        0.00181   0.00107   0.00073   0.00034
 182       64F-1        0.00181   0.00107   0.00073   0.00034
 183       64F+2        0.00016   0.00008   0.00008   0.00000
 184       64F-2        0.00016   0.00008   0.00008   0.00000
 185       64F+3        0.00000   0.00000   0.00000   0.00000
 186       64F-3        0.00000   0.00000   0.00000  -0.00000
 187       65F 0        0.00261   0.00131   0.00131   0.00000
 188       65F+1        0.00486   0.00277   0.00209   0.00068
 189       65F-1        0.00486   0.00277   0.00209   0.00068
 190       65F+2        0.00013   0.00006   0.00006   0.00000
 191       65F-2        0.00013   0.00006   0.00006   0.00000
 192       65F+3        0.00000   0.00000  -0.00000   0.00000
 193       65F-3        0.00000   0.00000  -0.00000   0.00000
 194       66G 0        0.00000   0.00000   0.00000   0.00000
 195       66G+1        0.00000   0.00000   0.00000   0.00000
 196       66G-1        0.00000   0.00000   0.00000   0.00000
 197       66G+2        0.00000   0.00000   0.00000   0.00000
 198       66G-2        0.00000   0.00000   0.00000   0.00000
 199       66G+3       -0.00000  -0.00000   0.00000  -0.00000
 200       66G-3        0.00000   0.00000   0.00000   0.00000
 201       66G+4        0.00000   0.00000   0.00000   0.00000
 202       66G-4        0.00000   0.00000   0.00000   0.00000
 203       67G 0        0.00001   0.00000   0.00000   0.00000
 204       67G+1        0.00000   0.00000   0.00000   0.00000
 205       67G-1        0.00000   0.00000   0.00000   0.00000
 206       67G+2        0.00000   0.00000   0.00000   0.00000
 207       67G-2        0.00000   0.00000   0.00000   0.00000
 208       67G+3        0.00000   0.00000  -0.00000   0.00000
 209       67G-3       -0.00000  -0.00000   0.00000  -0.00000
 210       67G+4        0.00000   0.00000   0.00000   0.00000
 211       67G-4        0.00000   0.00000   0.00000   0.00000
 212       68G 0        0.00003   0.00002   0.00002   0.00000
 213       68G+1        0.00002   0.00001   0.00001   0.00000
 214       68G-1        0.00002   0.00001   0.00001   0.00000
 215       68G+2        0.00000   0.00000   0.00000   0.00000
 216       68G-2        0.00000   0.00000   0.00000   0.00000
 217       68G+3        0.00000   0.00000  -0.00000   0.00000
 218       68G-3       -0.00000  -0.00000  -0.00000  -0.00000
 219       68G+4        0.00000   0.00000   0.00000   0.00000
 220       68G-4        0.00000   0.00000   0.00000   0.00000
 221       69G 0        0.00042   0.00021   0.00021   0.00000
 222       69G+1        0.00061   0.00030   0.00031  -0.00001
 223       69G-1        0.00061   0.00030   0.00031  -0.00001
 224       69G+2        0.00000   0.00000   0.00000   0.00000
 225       69G-2        0.00000   0.00000   0.00000   0.00000
 226       69G+3       -0.00000   0.00000  -0.00000   0.00000
 227       69G-3        0.00000   0.00000   0.00000  -0.00000
 228       69G+4        0.00000   0.00000   0.00000   0.00000
 229       69G-4        0.00000   0.00000   0.00000   0.00000
 230       70H 0        0.00000   0.00000   0.00000   0.00000
 231       70H+1        0.00000   0.00000   0.00000   0.00000
 232       70H-1        0.00000   0.00000   0.00000   0.00000
 233       70H+2        0.00000   0.00000   0.00000   0.00000
 234       70H-2        0.00000   0.00000   0.00000   0.00000
 235       70H+3       -0.00000  -0.00000   0.00000  -0.00000
 236       70H-3        0.00000   0.00000  -0.00000   0.00000
 237       70H+4       -0.00000  -0.00000  -0.00000   0.00000
 238       70H-4        0.00000   0.00000   0.00000   0.00000
 239       70H+5        0.00000   0.00000   0.00000   0.00000
 240       70H-5       -0.00000  -0.00000  -0.00000  -0.00000
 241       71H 0       -0.00000  -0.00000  -0.00000   0.00000
 242       71H+1       -0.00000   0.00000  -0.00000   0.00000
 243       71H-1       -0.00000   0.00000  -0.00000   0.00000
 244       71H+2        0.00000   0.00000   0.00000   0.00000
 245       71H-2        0.00000   0.00000   0.00000   0.00000
 246       71H+3       -0.00000   0.00000  -0.00000   0.00000
 247       71H-3        0.00000   0.00000  -0.00000   0.00000
 248       71H+4        0.00000   0.00000   0.00000   0.00000
 249       71H-4       -0.00000  -0.00000  -0.00000   0.00000
 250       71H+5       -0.00000   0.00000  -0.00000   0.00000
 251       71H-5       -0.00000  -0.00000   0.00000  -0.00000
 252       72H 0        0.00001   0.00001   0.00001   0.00000
 253       72H+1        0.00001   0.00000   0.00000  -0.00000
 254       72H-1        0.00001   0.00000   0.00000  -0.00000
 255       72H+2        0.00000   0.00000   0.00000   0.00000
 256       72H-2        0.00000   0.00000   0.00000   0.00000
 257       72H+3       -0.00000  -0.00000   0.00000  -0.00000
 258       72H-3       -0.00000  -0.00000  -0.00000   0.00000
 259       72H+4        0.00000   0.00000   0.00000   0.00000
 260       72H-4        0.00000   0.00000   0.00000   0.00000
 261       72H+5       -0.00000   0.00000  -0.00000   0.00000
 262       72H-5        0.00000   0.00000  -0.00000   0.00000
 263 2   O  1S          0.00001   0.00000   0.00000   0.00000
 264        2S          0.00009   0.00004   0.00004   0.00000
 265        3S          0.00107   0.00054   0.00054   0.00000
 266        4S          0.00931   0.00465   0.00465   0.00000
 267        5S          0.05618   0.02809   0.02809   0.00000
 268        6S          0.22333   0.11166   0.11166   0.00000
 269        7S          0.56331   0.28166   0.28166   0.00000
 270        8S          0.72260   0.36130   0.36130   0.00000
 271        9S          0.30281   0.15141   0.15141   0.00000
 272       10S          0.41763   0.20881   0.20881   0.00000
 273       11S          1.03689   0.51844   0.51844   0.00000
 274       12S          0.52569   0.26285   0.26285   0.00000
 275       13S          0.05018   0.02509   0.02509   0.00000
 276       14S          0.02801   0.01401   0.01401   0.00000
 277       15S          0.00555   0.00278   0.00278   0.00000
 278       16S          0.01770   0.00885   0.00885   0.00000
 279       17PX        -0.00035  -0.00018  -0.00017  -0.00001
 280       17PY        -0.00035  -0.00018  -0.00017  -0.00001
 281       17PZ        -0.00020  -0.00010  -0.00010   0.00000
 282       18PX        -0.11705  -0.05944  -0.05761  -0.00183
 283       18PY        -0.11705  -0.05944  -0.05761  -0.00183
 284       18PZ        -0.06816  -0.03408  -0.03408   0.00000
 285       19PX         0.14839   0.07539   0.07300   0.00238
 286       19PY         0.14839   0.07539   0.07300   0.00238
 287       19PZ         0.08207   0.04103   0.04103   0.00000
 288       20PX         0.49413   0.25084   0.24329   0.00755
 289       20PY         0.49413   0.25084   0.24329   0.00755
 290       20PZ         0.28721   0.14361   0.14361   0.00000
 291       21PX         0.72158   0.36506   0.35652   0.00854
 292       21PY         0.72158   0.36506   0.35652   0.00854
 293       21PZ         0.46345   0.23172   0.23172   0.00000
 294       22PX         0.44751   0.22558   0.22193   0.00365
 295       22PY         0.44751   0.22558   0.22193   0.00365
 296       22PZ         0.30865   0.15433   0.15433   0.00000
 297       23PX         0.13615   0.06915   0.06701   0.00214
 298       23PY         0.13615   0.06915   0.06701   0.00214
 299       23PZ         0.07874   0.03937   0.03937   0.00000
 300       24PX         0.00196   0.00100   0.00096   0.00003
 301       24PY         0.00196   0.00100   0.00096   0.00003
 302       24PZ         0.00109   0.00055   0.00055   0.00000
 303       25PX         0.00013   0.00007   0.00007   0.00000
 304       25PY         0.00013   0.00007   0.00007   0.00000
 305       25PZ         0.00007   0.00004   0.00004   0.00000
 306       26PX         0.04391   0.02236   0.02155   0.00081
 307       26PY         0.04391   0.02236   0.02155   0.00081
 308       26PZ         0.04363   0.02182   0.02182   0.00000
 309       27D 0        0.00004   0.00002   0.00002   0.00000
 310       27D+1        0.00003   0.00002   0.00002   0.00000
 311       27D-1        0.00003   0.00002   0.00002   0.00000
 312       27D+2        0.00000   0.00000   0.00000   0.00000
 313       27D-2        0.00000   0.00000   0.00000   0.00000
 314       28D 0        0.00100   0.00050   0.00050   0.00000
 315       28D+1        0.00044   0.00023   0.00021   0.00003
 316       28D-1        0.00044   0.00023   0.00021   0.00003
 317       28D+2        0.00001   0.00000   0.00000   0.00000
 318       28D-2        0.00001   0.00000   0.00000   0.00000
 319       29D 0        0.00467   0.00234   0.00234   0.00000
 320       29D+1        0.00347   0.00172   0.00174  -0.00002
 321       29D-1        0.00347   0.00172   0.00174  -0.00002
 322       29D+2        0.00011   0.00005   0.00005   0.00000
 323       29D-2        0.00011   0.00005   0.00005   0.00000
 324       30D 0        0.00000   0.00000   0.00000   0.00000
 325       30D+1        0.00000   0.00000   0.00000   0.00000
 326       30D-1        0.00000   0.00000   0.00000   0.00000
 327       30D+2        0.00000   0.00000   0.00000   0.00000
 328       30D-2        0.00000   0.00000   0.00000   0.00000
 329       31D 0        0.00000   0.00000   0.00000   0.00000
 330       31D+1        0.00000   0.00000   0.00000  -0.00000
 331       31D-1        0.00000   0.00000   0.00000  -0.00000
 332       31D+2        0.00000   0.00000   0.00000   0.00000
 333       31D-2        0.00000   0.00000   0.00000   0.00000
 334       32D 0        0.00262   0.00131   0.00131   0.00000
 335       32D+1        0.00311   0.00139   0.00171  -0.00032
 336       32D-1        0.00311   0.00139   0.00171  -0.00032
 337       32D+2        0.00001   0.00001   0.00001   0.00000
 338       32D-2        0.00001   0.00001   0.00001   0.00000
 339       33F 0        0.00002   0.00001   0.00001   0.00000
 340       33F+1        0.00001   0.00001   0.00001   0.00000
 341       33F-1        0.00001   0.00001   0.00001   0.00000
 342       33F+2        0.00000   0.00000   0.00000   0.00000
 343       33F-2        0.00000   0.00000   0.00000   0.00000
 344       33F+3        0.00000   0.00000   0.00000  -0.00000
 345       33F-3        0.00000  -0.00000   0.00000  -0.00000
 346       34F 0        0.00057   0.00029   0.00029   0.00000
 347       34F+1        0.00033   0.00018   0.00015   0.00003
 348       34F-1        0.00033   0.00018   0.00015   0.00003
 349       34F+2        0.00003   0.00001   0.00001   0.00000
 350       34F-2        0.00003   0.00001   0.00001   0.00000
 351       34F+3        0.00000   0.00000   0.00000   0.00000
 352       34F-3        0.00000   0.00000   0.00000   0.00000
 353       35F 0        0.00000   0.00000   0.00000   0.00000
 354       35F+1        0.00000   0.00000   0.00000  -0.00000
 355       35F-1        0.00000   0.00000   0.00000  -0.00000
 356       35F+2        0.00000   0.00000   0.00000   0.00000
 357       35F-2        0.00000   0.00000   0.00000   0.00000
 358       35F+3        0.00000   0.00000  -0.00000   0.00000
 359       35F-3        0.00000   0.00000   0.00000   0.00000
 360       36F 0       -0.00038  -0.00019  -0.00019   0.00000
 361       36F+1        0.00064   0.00023   0.00040  -0.00017
 362       36F-1        0.00064   0.00023   0.00040  -0.00017
 363       36F+2        0.00005   0.00003   0.00003   0.00000
 364       36F-2        0.00005   0.00003   0.00003   0.00000
 365       36F+3        0.00000   0.00000   0.00000   0.00000
 366       36F-3        0.00000   0.00000   0.00000   0.00000
 367       37G 0        0.00002   0.00001   0.00001   0.00000
 368       37G+1        0.00000   0.00000   0.00000   0.00000
 369       37G-1        0.00000   0.00000   0.00000   0.00000
 370       37G+2        0.00000   0.00000   0.00000   0.00000
 371       37G-2        0.00000   0.00000   0.00000   0.00000
 372       37G+3        0.00000   0.00000   0.00000  -0.00000
 373       37G-3        0.00000   0.00000   0.00000  -0.00000
 374       37G+4       -0.00000  -0.00000  -0.00000   0.00000
 375       37G-4        0.00000   0.00000   0.00000   0.00000
 376       38G 0        0.00011   0.00006   0.00006   0.00000
 377       38G+1        0.00011   0.00006   0.00005   0.00001
 378       38G-1        0.00011   0.00006   0.00005   0.00001
 379       38G+2        0.00002   0.00001   0.00001   0.00000
 380       38G-2        0.00002   0.00001   0.00001   0.00000
 381       38G+3       -0.00000  -0.00000  -0.00000  -0.00000
 382       38G-3        0.00000   0.00000   0.00000   0.00000
 383       38G+4        0.00000   0.00000   0.00000   0.00000
 384       38G-4       -0.00000  -0.00000  -0.00000   0.00000
          Condensed to atoms (all electrons):
               1          2
     1  Ni  26.793031   0.271935
     2  O    0.271935   8.663098
          Atomic-Atomic Spin Densities.
               1          2
     1  Ni   1.973434  -0.019090
     2  O   -0.019090   0.064746
 Mulliken charges and spin densities:
               1          2
     1  Ni   0.935033   1.954344
     2  O   -0.935033   0.045656
 Sum of Mulliken charges =  -0.00000   2.00000
 Mulliken charges and spin densities with hydrogens summed into heavy atoms:
               1          2
     1  Ni   0.935033   1.954344
     2  O   -0.935033   0.045656
 Electronic spatial extent (au):  <R**2>=            117.2073
 Charge=             -0.0000 electrons
 Dipole moment (field-independent basis, Debye):
    X=              0.0000    Y=              0.0000    Z=              7.9216  Tot=              7.9216
 Quadrupole moment (field-independent basis, Debye-Ang):
   XX=            -19.1088   YY=            -19.1088   ZZ=            -22.5976
   XY=              0.0000   XZ=              0.0000   YZ=              0.0000
 Traceless Quadrupole moment (field-independent basis, Debye-Ang):
   XX=              1.1629   YY=              1.1629   ZZ=             -2.3259
   XY=              0.0000   XZ=              0.0000   YZ=              0.0000
 Octapole moment (field-independent basis, Debye-Ang**2):
  XXX=              0.0000  YYY=              0.0000  ZZZ=             24.7821  XYY=              0.0000
  XXY=              0.0000  XXZ=              6.1935  XZZ=              0.0000  YZZ=              0.0000
  YYZ=              6.1935  XYZ=              0.0000
 Hexadecapole moment (field-independent basis, Debye-Ang**3):
 XXXX=            -21.4359 YYYY=            -21.4359 ZZZZ=           -111.1206 XXXY=              0.0000
 XXXZ=              0.0000 YYYX=              0.0000 YYYZ=              0.0000 ZZZX=              0.0000
 ZZZY=              0.0000 XXYY=             -7.1453 XXZZ=            -21.8922 YYZZ=            -21.8922
 XXYZ=              0.0000 YYXZ=              0.0000 ZZXY=              0.0000
 N-N= 6.585316402560D+01 E-N=-4.011989924281D+03  KE= 1.667785496009D+03
 Symmetry A1   KE= 1.281958860661D+03
 Symmetry A2   KE= 1.793710103364D+01
 Symmetry B1   KE= 1.839447671174D+02
 Symmetry B2   KE= 1.839447671992D+02
 Symmetry A1   SP= 0.000000000000D+00
 Symmetry A2   SP= 0.000000000000D+00
 Symmetry B1   SP= 1.000000000000D+00
 Symmetry B2   SP= 1.000000000000D+00
 Orbital energies and kinetic energies (alpha):
                                 1                 2
  13         O                -0.813453          8.968551
  14         O                -0.756865          8.968551
  15         O                -0.726490          2.169887
  16         O                -0.726490          2.169887
  17         O                -0.388651          2.044405
  18         O                -0.388651          9.290761
  19         O                -0.356534          9.290761
  20         V                -0.055731          0.898432
  21         V                 0.017259          0.092873
  22         V                 0.017259          0.092873
  23         V                 0.018569          0.221918
  24         V                 0.038587          0.054239
 Total kinetic energy from orbitals= 1.686367018212D+03
 FoFCou: FMM=F IPFlag=           8 FMFlag=           0 FMFlg1=           0
         NFxFlg=           0 DoJE=F BraDBF=T KetDBF=F FulRan=T
         wScrn=  0.000000 ICntrl=   2000500 IOpCl=  0 I1Cent=           5 NGrid=           0
         NMat0=    1 NMatS0=      1 NMatT0=    0 NMatD0=    1 NMtDS0=    0 NMtDT0=    0
 Symmetry not used in FoFCou.
                          Isotropic Fermi Contact Couplings
        Atom                 a.u.       MegaHertz       Gauss      10(-4) cm-1
     1  Ni(61)             0.00000      -0.00002      -0.00001      -0.00001
     2  O(17)              0.00000      -0.00000      -0.00000      -0.00000
 --------------------------------------------------------
       Center         ----  Spin Dipole Couplings  ----
                      3XX-RR        3YY-RR        3ZZ-RR
 --------------------------------------------------------
     1   Atom       -1.988190     -1.988190      3.976379
     2   Atom        0.001104      0.001104     -0.002208
 --------------------------------------------------------
                        XY            XZ            YZ
 --------------------------------------------------------
     1   Atom        0.000000      0.000000      0.000000
     2   Atom        0.000000      0.000000      0.000000
 --------------------------------------------------------


 ---------------------------------------------------------------------------------
              Anisotropic Spin Dipole Couplings in Principal Axis System
 ---------------------------------------------------------------------------------

       Atom             a.u.   MegaHertz   Gauss  10(-4) cm-1        Axes

              Baa    -1.9882    94.960    33.884    31.675  1.0000  0.0000  0.0000
     1 Ni(61) Bbb    -1.9882    94.960    33.884    31.675 -0.0000  1.0000  0.0000
              Bcc     3.9764  -189.920   -67.768   -63.350  0.0000  0.0000  1.0000
 
              Baa    -0.0022     0.160     0.057     0.053  0.0000  0.0000  1.0000
     2 O(17)  Bbb     0.0011    -0.080    -0.028    -0.027  1.0000  0.0000  0.0000
              Bcc     0.0011    -0.080    -0.029    -0.027 -0.0000  1.0000  0.0000
 

 ---------------------------------------------------------------------------------

 No NMR shielding tensors so no spin-rotation constants.
 Leave Link  601 at Sun Mar 18 04:11:23 2018, MaxMem= 21474836480 cpu:              43.6 elap:               1.4
 (Enter /home1/apps/gaussian/16rA.03/g16/l9999.exe)

 Test job not archived.
 1\1\GINC-C477-004\SP\ROCCSD(T)-RW\Gen\Ni1O1(3)\GWANG18\18-Mar-2018\0\\
 #P ROCCSD(T)=(MaxCyc=150, Window=(7,0))/Gen SCF=(maxcycle=400) Integra
 l(DKHSO, NoXCTest) Pop=Regular MaxDisk=500GB Guess=Read IOp(5/15=2)\\N
 iO\\0,3\Ni,0,0.,0.,0.\O,0,0.,0.,1.8\\Version=ES64L-G16RevA.03\State=3-
 SG\HF=-1593.9126799\MP2=-1595.1123846\MP3=-1594.9845893\PUHF=-1593.912
 6799\PMP2-0=-1595.1123846\MP4SDQ=-1595.0659281\CCSD=-1595.0604459\CCSD
 (T)=-1595.1302072\RMSD=5.525e-09\PG=C*V [C*(O1Ni1)]\\@


 IT IS A CAPITAL MISTAKE TO THEORIZE BEFORE ONE HAS
 DATA.  INSENSIBLY ONE BEGINS TO TWIST FACTS TO SUIT
 THEORIES RATHER THAN THEORIES TO SUIT FACTS.

                                         -- SHERLOCK HOLMES
 Job cpu time:       1 days 15 hours 26 minutes 13.3 seconds.
 Elapsed time:       0 days  1 hours 15 minutes 11.8 seconds.
 File lengths (MBytes):  RWF=  15533 Int=      0 D2E=      0 Chk=     18 Scr=      1
 Normal termination of Gaussian 16 at Sun Mar 18 04:11:23 2018.
