 Entering Gaussian System, Link 0=g16
 Initial command:
 /home1/apps/gaussian/16rA.03/g16/l1.exe "/tmp/Gau-5915.inp" -scrdir="/tmp/"
 Entering Link 1 = /home1/apps/gaussian/16rA.03/g16/l1.exe PID=      5916.
  
 Copyright (c) 1988,1990,1992,1993,1995,1998,2003,2009,2016,
            Gaussian, Inc.  All Rights Reserved.
  
 This is part of the Gaussian(R) 16 program.  It is based on
 the Gaussian(R) 09 system (copyright 2009, Gaussian, Inc.),
 the Gaussian(R) 03 system (copyright 2003, Gaussian, Inc.),
 the Gaussian(R) 98 system (copyright 1998, Gaussian, Inc.),
 the Gaussian(R) 94 system (copyright 1995, Gaussian, Inc.),
 the Gaussian 92(TM) system (copyright 1992, Gaussian, Inc.),
 the Gaussian 90(TM) system (copyright 1990, Gaussian, Inc.),
 the Gaussian 88(TM) system (copyright 1988, Gaussian, Inc.),
 the Gaussian 86(TM) system (copyright 1986, Carnegie Mellon
 University), and the Gaussian 82(TM) system (copyright 1983,
 Carnegie Mellon University). Gaussian is a federally registered
 trademark of Gaussian, Inc.
  
 This software contains proprietary and confidential information,
 including trade secrets, belonging to Gaussian, Inc.
  
 This software is provided under written license and may be
 used, copied, transmitted, or stored only in accord with that
 written license.
  
 The following legend is applicable only to US Government
 contracts under FAR:
  
                    RESTRICTED RIGHTS LEGEND
  
 Use, reproduction and disclosure by the US Government is
 subject to restrictions as set forth in subparagraphs (a)
 and (c) of the Commercial Computer Software - Restricted
 Rights clause in FAR 52.227-19.
  
 Gaussian, Inc.
 340 Quinnipiac St., Bldg. 40, Wallingford CT 06492
  
  
 ---------------------------------------------------------------
 Warning -- This program may not be used in any manner that
 competes with the business of Gaussian, Inc. or will provide
 assistance to any competitor of Gaussian, Inc.  The licensee
 of this program is prohibited from giving any competitor of
 Gaussian, Inc. access to this program.  By using this program,
 the user acknowledges that Gaussian, Inc. is engaged in the
 business of creating and licensing software in the field of
 computational chemistry and represents and warrants to the
 licensee that it is not a competitor of Gaussian, Inc. and that
 it will not use this program in any manner prohibited above.
 ---------------------------------------------------------------
  

 Cite this work as:
 Gaussian 16, Revision A.03,
 M. J. Frisch, G. W. Trucks, H. B. Schlegel, G. E. Scuseria, 
 M. A. Robb, J. R. Cheeseman, G. Scalmani, V. Barone, 
 G. A. Petersson, H. Nakatsuji, X. Li, M. Caricato, A. V. Marenich, 
 J. Bloino, B. G. Janesko, R. Gomperts, B. Mennucci, H. P. Hratchian, 
 J. V. Ortiz, A. F. Izmaylov, J. L. Sonnenberg, D. Williams-Young, 
 F. Ding, F. Lipparini, F. Egidi, J. Goings, B. Peng, A. Petrone, 
 T. Henderson, D. Ranasinghe, V. G. Zakrzewski, J. Gao, N. Rega, 
 G. Zheng, W. Liang, M. Hada, M. Ehara, K. Toyota, R. Fukuda, 
 J. Hasegawa, M. Ishida, T. Nakajima, Y. Honda, O. Kitao, H. Nakai, 
 T. Vreven, K. Throssell, J. A. Montgomery, Jr., J. E. Peralta, 
 F. Ogliaro, M. J. Bearpark, J. J. Heyd, E. N. Brothers, K. N. Kudin, 
 V. N. Staroverov, T. A. Keith, R. Kobayashi, J. Normand, 
 K. Raghavachari, A. P. Rendell, J. C. Burant, S. S. Iyengar, 
 J. Tomasi, M. Cossi, J. M. Millam, M. Klene, C. Adamo, R. Cammi, 
 J. W. Ochterski, R. L. Martin, K. Morokuma, O. Farkas, 
 J. B. Foresman, and D. J. Fox, Gaussian, Inc., Wallingford CT, 2016.
 
 ******************************************
 Gaussian 16:  ES64L-G16RevA.03 25-Dec-2016
                18-Apr-2018 
 ******************************************
 %mem=80GB
 %cpu=0-31
 SetSPE:  set environment variable "MP_BIND" = "yes"
 SetSPE:  set environment variable "MP_BLIST" = "0,1,2,3,4,5,6,7,8,9,10,11,12,13,14,15,16,17,18,19,20,21,22,23,24,25,26,27,28,29,30,31"
 Will use up to   32 processors via shared memory.
 %chk=tz.chk
 %rwf=/scratch/04843/gwang18/zno/
 ----------------------------------------------------------------------
 #P ROCCSD(T)=(MaxCyc=150, Full)/Gen SCF=(maxcycle=400, vshift=200) Pse
 udo=Read Integral(NoXCTest) Pop=Regular MaxDisk=500GB
 ----------------------------------------------------------------------
 1/38=1,172=1/1;
 2/12=2,17=6,18=5,40=1/2;
 3/5=7,11=2,16=1,17=8,25=1,30=1,47=8,116=101/1,2,3;
 4//1;
 5/5=2,7=400,10=200,38=5/2;
 8/5=-1,6=4,9=120000,10=90/1,4;
 9/5=7,6=150,14=2/13;
 6//1;
 99/5=1,9=1/99;
 Leave Link    1 at Wed Apr 18 05:00:23 2018, MaxMem= 10737418240 cpu:               9.4 elap:               0.3
 (Enter /home1/apps/gaussian/16rA.03/g16/l101.exe)
 ---
 FeO
 ---
 Symbolic Z-matrix:
 Charge =  0 Multiplicity = 5
 Fe                    0.        0.        0. 
 O                     0.        0.        1.2 
 
 ITRead=  0  0
 MicOpt= -1 -1
 NAtoms=      2 NQM=        2 NQMF=       0 NMMI=      0 NMMIF=      0
                NMic=       0 NMicF=      0.
                    Isotopes and Nuclear Properties:
 (Nuclear quadrupole moments (NQMom) in fm**2, nuclear magnetic moments (NMagM)
  in nuclear magnetons)

  Atom         1           2
 IAtWgt=          56          16
 AtmWgt=  55.9349393  15.9949146
 NucSpn=           0           0
 AtZEff=  -0.0000000  -0.0000000
 NQMom=    0.0000000   0.0000000
 NMagM=    0.0000000   0.0000000
 AtZNuc=  26.0000000   8.0000000
 Leave Link  101 at Wed Apr 18 05:00:23 2018, MaxMem= 10737418240 cpu:               3.5 elap:               0.1
 (Enter /home1/apps/gaussian/16rA.03/g16/l202.exe)
                          Input orientation:                          
 ---------------------------------------------------------------------
 Center     Atomic      Atomic             Coordinates (Angstroms)
 Number     Number       Type             X           Y           Z
 ---------------------------------------------------------------------
      1         26           0        0.000000    0.000000    0.000000
      2          8           0        0.000000    0.000000    1.200000
 ---------------------------------------------------------------------
 Stoichiometry    FeO(5)
 Framework group  C*V[C*(OFe)]
 Deg. of freedom     1
 Full point group                 C*V     NOp   4
 Largest Abelian subgroup         C2V     NOp   4
 Largest concise Abelian subgroup C1      NOp   1
                         Standard orientation:                         
 ---------------------------------------------------------------------
 Center     Atomic      Atomic             Coordinates (Angstroms)
 Number     Number       Type             X           Y           Z
 ---------------------------------------------------------------------
      1         26           0        0.000000    0.000000    0.282353
      2          8           0        0.000000    0.000000   -0.917647
 ---------------------------------------------------------------------
 Rotational constants (GHZ):           0.0000000          28.2162171          28.2162171
 Leave Link  202 at Wed Apr 18 05:00:24 2018, MaxMem= 10737418240 cpu:               0.8 elap:               0.1
 (Enter /home1/apps/gaussian/16rA.03/g16/l301.exe)
 General basis read from cards:  (5D, 7F)
 Centers:       1
 S 1 1.00
     Exponent=  4.3162650000D+06 Coefficients=  1.0000000000D+00
 S 1 1.00
     Exponent=  6.4634240000D+05 Coefficients=  1.0000000000D+00
 S 1 1.00
     Exponent=  1.4708970000D+05 Coefficients=  1.0000000000D+00
 S 1 1.00
     Exponent=  4.1661520000D+04 Coefficients=  1.0000000000D+00
 S 1 1.00
     Exponent=  1.3590770000D+04 Coefficients=  1.0000000000D+00
 S 1 1.00
     Exponent=  4.9057500000D+03 Coefficients=  1.0000000000D+00
 S 1 1.00
     Exponent=  1.9127460000D+03 Coefficients=  1.0000000000D+00
 S 1 1.00
     Exponent=  7.9260430000D+02 Coefficients=  1.0000000000D+00
 S 1 1.00
     Exponent=  3.4480650000D+02 Coefficients=  1.0000000000D+00
 S 1 1.00
     Exponent=  1.5589990000D+02 Coefficients=  1.0000000000D+00
 S 1 1.00
     Exponent=  7.2230910000D+01 Coefficients=  1.0000000000D+00
 S 1 1.00
     Exponent=  3.2725060000D+01 Coefficients=  1.0000000000D+00
 S 1 1.00
     Exponent=  1.5667620000D+01 Coefficients=  1.0000000000D+00
 S 1 1.00
     Exponent=  7.5034830000D+00 Coefficients=  1.0000000000D+00
 S 1 1.00
     Exponent=  3.3122230000D+00 Coefficients=  1.0000000000D+00
 S 1 1.00
     Exponent=  1.5584710000D+00 Coefficients=  1.0000000000D+00
 S 1 1.00
     Exponent=  6.8391400000D-01 Coefficients=  1.0000000000D+00
 S 1 1.00
     Exponent=  1.4675700000D-01 Coefficients=  1.0000000000D+00
 S 1 1.00
     Exponent=  7.0583000000D-02 Coefficients=  1.0000000000D+00
 S 1 1.00
     Exponent=  3.1449000000D-02 Coefficients=  1.0000000000D+00
 S 1 1.00
     Exponent=  4.6844000000D+00 Coefficients=  1.0000000000D+00
 S 1 1.00
     Exponent=  1.2204000000D+00 Coefficients=  1.0000000000D+00
 S 1 1.00
     Exponent=  1.4010000000D-02 Coefficients=  1.0000000000D+00
 P 1 1.00
     Exponent=  1.7745690000D+04 Coefficients=  1.0000000000D+00
 P 1 1.00
     Exponent=  4.2007210000D+03 Coefficients=  1.0000000000D+00
 P 1 1.00
     Exponent=  1.3644290000D+03 Coefficients=  1.0000000000D+00
 P 1 1.00
     Exponent=  5.2208060000D+02 Coefficients=  1.0000000000D+00
 P 1 1.00
     Exponent=  2.2145950000D+02 Coefficients=  1.0000000000D+00
 P 1 1.00
     Exponent=  1.0090960000D+02 Coefficients=  1.0000000000D+00
 P 1 1.00
     Exponent=  4.8401150000D+01 Coefficients=  1.0000000000D+00
 P 1 1.00
     Exponent=  2.3985360000D+01 Coefficients=  1.0000000000D+00
 P 1 1.00
     Exponent=  1.2182500000D+01 Coefficients=  1.0000000000D+00
 P 1 1.00
     Exponent=  6.2422980000D+00 Coefficients=  1.0000000000D+00
 P 1 1.00
     Exponent=  3.1109440000D+00 Coefficients=  1.0000000000D+00
 P 1 1.00
     Exponent=  1.5099580000D+00 Coefficients=  1.0000000000D+00
 P 1 1.00
     Exponent=  7.1084500000D-01 Coefficients=  1.0000000000D+00
 P 1 1.00
     Exponent=  2.7259800000D-01 Coefficients=  1.0000000000D+00
 P 1 1.00
     Exponent=  1.0397200000D-01 Coefficients=  1.0000000000D+00
 P 1 1.00
     Exponent=  3.8166000000D-02 Coefficients=  1.0000000000D+00
 P 1 1.00
     Exponent=  6.8788000000D+00 Coefficients=  1.0000000000D+00
 P 1 1.00
     Exponent=  1.5748000000D+00 Coefficients=  1.0000000000D+00
 P 1 1.00
     Exponent=  1.4010000000D-02 Coefficients=  1.0000000000D+00
 D 1 1.00
     Exponent=  1.1488400000D+02 Coefficients=  1.0000000000D+00
 D 1 1.00
     Exponent=  3.3887800000D+01 Coefficients=  1.0000000000D+00
 D 1 1.00
     Exponent=  1.2373000000D+01 Coefficients=  1.0000000000D+00
 D 1 1.00
     Exponent=  4.9992500000D+00 Coefficients=  1.0000000000D+00
 D 1 1.00
     Exponent=  2.0704300000D+00 Coefficients=  1.0000000000D+00
 D 1 1.00
     Exponent=  8.2818300000D-01 Coefficients=  1.0000000000D+00
 D 1 1.00
     Exponent=  3.0754700000D-01 Coefficients=  1.0000000000D+00
 D 1 1.00
     Exponent=  9.9455000000D-02 Coefficients=  1.0000000000D+00
 D 1 1.00
     Exponent=  4.5305000000D+00 Coefficients=  1.0000000000D+00
 D 1 1.00
     Exponent=  2.1205000000D+00 Coefficients=  1.0000000000D+00
 D 1 1.00
     Exponent=  3.2160000000D-02 Coefficients=  1.0000000000D+00
 F 1 1.00
     Exponent=  6.0066000000D+00 Coefficients=  1.0000000000D+00
 F 1 1.00
     Exponent=  2.2522000000D+00 Coefficients=  1.0000000000D+00
 F 1 1.00
     Exponent=  7.7580000000D-01 Coefficients=  1.0000000000D+00
 F 1 1.00
     Exponent=  2.6723000000D-01 Coefficients=  1.0000000000D+00
 G 1 1.00
     Exponent=  5.5068000000D+00 Coefficients=  1.0000000000D+00
 G 1 1.00
     Exponent=  2.0515000000D+00 Coefficients=  1.0000000000D+00
 G 1 1.00
     Exponent=  7.6426000000D-01 Coefficients=  1.0000000000D+00
 ****
 Centers:       2
 S 1 1.00
     Exponent=  1.5330000000D+04 Coefficients=  1.0000000000D+00
 S 1 1.00
     Exponent=  2.2990000000D+03 Coefficients=  1.0000000000D+00
 S 1 1.00
     Exponent=  5.2240000000D+02 Coefficients=  1.0000000000D+00
 S 1 1.00
     Exponent=  1.4730000000D+02 Coefficients=  1.0000000000D+00
 S 1 1.00
     Exponent=  4.7550000000D+01 Coefficients=  1.0000000000D+00
 S 1 1.00
     Exponent=  1.6760000000D+01 Coefficients=  1.0000000000D+00
 S 1 1.00
     Exponent=  6.2070000000D+00 Coefficients=  1.0000000000D+00
 S 1 1.00
     Exponent=  6.8820000000D-01 Coefficients=  1.0000000000D+00
 S 1 1.00
     Exponent=  1.7520000000D+00 Coefficients=  1.0000000000D+00
 S 1 1.00
     Exponent=  2.3840000000D-01 Coefficients=  1.0000000000D+00
 S 1 1.00
     Exponent=  7.8450000000D+00 Coefficients=  1.0000000000D+00
 S 1 1.00
     Exponent=  2.1032000000D+01 Coefficients=  1.0000000000D+00
 S 1 1.00
     Exponent=  7.3760000000D-02 Coefficients=  1.0000000000D+00
 P 1 1.00
     Exponent=  3.4460000000D+01 Coefficients=  1.0000000000D+00
 P 1 1.00
     Exponent=  7.7490000000D+00 Coefficients=  1.0000000000D+00
 P 1 1.00
     Exponent=  2.2800000000D+00 Coefficients=  1.0000000000D+00
 P 1 1.00
     Exponent=  7.1560000000D-01 Coefficients=  1.0000000000D+00
 P 1 1.00
     Exponent=  2.1400000000D-01 Coefficients=  1.0000000000D+00
 P 1 1.00
     Exponent=  1.5159000000D+01 Coefficients=  1.0000000000D+00
 P 1 1.00
     Exponent=  5.7437000000D+01 Coefficients=  1.0000000000D+00
 P 1 1.00
     Exponent=  5.9740000000D-02 Coefficients=  1.0000000000D+00
 D 1 1.00
     Exponent=  2.3140000000D+00 Coefficients=  1.0000000000D+00
 D 1 1.00
     Exponent=  6.4500000000D-01 Coefficients=  1.0000000000D+00
 D 1 1.00
     Exponent=  1.5858000000D+01 Coefficients=  1.0000000000D+00
 D 1 1.00
     Exponent=  2.1400000000D-01 Coefficients=  1.0000000000D+00
 F 1 1.00
     Exponent=  1.4280000000D+00 Coefficients=  1.0000000000D+00
 F 1 1.00
     Exponent=  5.0000000000D-01 Coefficients=  1.0000000000D+00
 ****
 ======================================================================================================
                                       Pseudopotential Parameters
 ======================================================================================================
  Center     Atomic      Valence      Angular      Power
  Number     Number     Electrons     Momentum     of R      Exponent        Coefficient   SO-Coeffient
 ======================================================================================================
    1         26           16
                                      D and up 
                                                     1       23.2209171       16.00000000    0.00000000
                                                     3       23.5471468      371.53467418    0.00000000
                                                     2       23.4725634     -181.22603445    0.00000000
                                                     2        9.8523882       -2.37305236    0.00000000
                                      S - D
                                                     2       22.2106270      277.50032547    0.00000000
                                                     2        9.5151580       46.20495585    0.00000000
                                      P - D
                                                     2       24.5700087      194.99875057    0.00000000
                                                     2        8.8664878       31.67945133    0.00000000
    2          8            6
                                      P and up 
                                                     1       12.3099744        6.00000000    0.00000000
                                                     3       14.7696229       73.85984616    0.00000000
                                                     2       13.7141954      -47.87600504    0.00000000
                                      S - P
                                                     2       13.6551200       85.86406526    0.00000000
 ======================================================================================================
 Ernie: Thresh=  0.10000D-02 Tol=  0.10000D-05 Strict=F.
 There are   144 symmetry adapted cartesian basis functions of A1  symmetry.
 There are    30 symmetry adapted cartesian basis functions of A2  symmetry.
 There are    69 symmetry adapted cartesian basis functions of B1  symmetry.
 There are    69 symmetry adapted cartesian basis functions of B2  symmetry.
 There are   114 symmetry adapted basis functions of A1  symmetry.
 There are    27 symmetry adapted basis functions of A2  symmetry.
 There are    60 symmetry adapted basis functions of B1  symmetry.
 There are    60 symmetry adapted basis functions of B2  symmetry.
   261 basis functions,   312 primitive gaussians,   312 cartesian basis functions
    13 alpha electrons        9 beta electrons
       nuclear repulsion energy        42.3341768736 Hartrees.
 IExCor=    0 DFT=F Ex=HF Corr=None ExCW=0 ScaHFX=  1.000000
 ScaDFX=  1.000000  1.000000  1.000000  1.000000 ScalE2=  1.000000  1.000000
 IRadAn=      5 IRanWt=     -1 IRanGd=            0 ICorTp=0 IEmpDi=  4
 NAtoms=    2 NActive=    2 NUniq=    2 SFac= 1.00D+00 NAtFMM=   60 NAOKFM=F Big=F
 Integral buffers will be    131072 words long.
 Raffenetti 2 integral format.
 Two-electron integral symmetry is turned on.
 Leave Link  301 at Wed Apr 18 05:00:24 2018, MaxMem= 10737418240 cpu:               8.2 elap:               0.3
 (Enter /home1/apps/gaussian/16rA.03/g16/l302.exe)
 NPDir=0 NMtPBC=     1 NCelOv=     1 NCel=       1 NClECP=     1 NCelD=      1
         NCelK=      1 NCelE2=     1 NClLst=     1 CellRange=     0.0.
 One-electron integrals computed using PRISM.
 One-electron integral symmetry used in STVInt
   4 Symmetry operations used in ECPInt.
 ECPInt:  NShTT=    3828 NPrTT=    3828 LenC2=    3612 LenP2D=    3611.
 LDataN:  DoStor=T MaxTD1= 8 Len=  415
 NBasis=   261 RedAO= T EigKep=  1.73D-06  NBF=   114    27    60    60
 NBsUse=   258 1.00D-06 EigRej=  9.22D-07 NBFU=   113    27    59    59
 Leave Link  302 at Wed Apr 18 05:00:26 2018, MaxMem= 10737418240 cpu:              31.2 elap:               1.1
 (Enter /home1/apps/gaussian/16rA.03/g16/l303.exe)
 DipDrv:  MaxL=1.
 Leave Link  303 at Wed Apr 18 05:00:27 2018, MaxMem= 10737418240 cpu:               2.4 elap:               0.1
 (Enter /home1/apps/gaussian/16rA.03/g16/l401.exe)
 ExpMin= 1.40D-02 ExpMax= 4.32D+06 ExpMxC= 4.32D+06 IAcc=4 IRadAn=    199590 AccDes= 0.00D+00
 Harris functional with IExCor=  205 and IRadAn=  199590 diagonalized for initial guess.
 HarFok:  IExCor=  205 AccDes= 0.00D+00 IRadAn=    199590 IDoV= 1 UseB2=F ITyADJ=14
 ICtDFT=  3500011 ScaDFX=  1.000000  1.000000  1.000000  1.000000
 Spurious integrated density or basis function:
 NE=   22 NElCor=    0 El error=6.59D-09 rel=1.94D-10 Tolerance=1.00D-03
 Shell     1     absolute error=1.51D-02              Tolerance=1.20D-02
 Shell     2       signed error=3.25D-05              Tolerance=1.00D-01
 FoFCou: FMM=F IPFlag=           8 FMFlag=      100000 FMFlg1=           0
         NFxFlg=           0 DoJE=T BraDBF=F KetDBF=T FulRan=T
         wScrn=  0.000000 ICntrl=       500 IOpCl=  0 I1Cent=   200000004 NGrid=           0
         NMat0=    1 NMatS0=      1 NMatT0=    0 NMatD0=    1 NMtDS0=    0 NMtDT0=    0
 Petite list used in FoFCou.
 Harris En= -139.397462968451    
 JPrj=0 DoOrth=F DoCkMO=F.
 Initial guess orbital symmetries:
       Occupied  (SG) (SG) (PI) (PI) (SG) (PI) (PI) (SG) (DLTA)
                 (DLTA) (SG) (PI) (PI)
       Virtual   (SG) (PI) (PI) (SG) (SG) (PI) (PI) (PI) (PI) (DLTA)
                 (DLTA) (SG) (SG) (SG) (PI) (PI) (SG) (PI) (PI)
                 (SG) (DLTA) (DLTA) (PI) (PI) (SG) (SG) (SG) (DLTA)
                 (DLTA) (PI) (PI) (SG) (PI) (PI) (PHI) (PHI) (PI)
                 (PI) (SG) (SG) (DLTA) (DLTA) (PI) (PI) (DLTA)
                 (DLTA) (SG) (SG) (PI) (PI) (SG) (DLTA) (DLTA)
                 (PHI) (PHI) (SG) (PI) (PI) (DLTA) (DLTA) (SG)
                 (PI) (PI) (PHI) (PHI) (PI) (PI) (SG) (DLTA) (DLTA)
                 (SG) (PI) (PI) (DLTA) (DLTA) (?A) (?A) (SG) (PI)
                 (PI) (PHI) (PHI) (SG) (PI) (PI) (DLTA) (DLTA)
                 (SG) (SG) (PI) (PI) (SG) (PHI) (PHI) (DLTA) (DLTA)
                 (SG) (SG) (DLTA) (DLTA) (PI) (PI) (PI) (PI) (SG)
                 (PHI) (PHI) (DLTA) (DLTA) (PI) (PI) (DLTA) (DLTA)
                 (PI) (PI) (SG) (PI) (PI) (SG) (?A) (?A) (PHI)
                 (PHI) (DLTA) (DLTA) (PI) (PI) (SG) (SG) (SG) (PI)
                 (PI) (SG) (DLTA) (DLTA) (SG) (PI) (PI) (SG) (PI)
                 (PI) (PHI) (PHI) (DLTA) (DLTA) (PI) (PI) (SG)
                 (SG) (?A) (?A) (PHI) (PHI) (DLTA) (DLTA) (PI)
                 (PI) (SG) (SG) (DLTA) (DLTA) (PI) (PI) (SG) (SG)
                 (PI) (PI) (SG) (DLTA) (DLTA) (PI) (PI) (SG) (PI)
                 (PI) (SG) (DLTA) (DLTA) (SG) (PI) (PI) (SG) (PI)
                 (PI) (SG) (SG) (SG) (DLTA) (DLTA) (PI) (PI) (SG)
                 (PI) (PI) (SG) (SG) (PI) (PI) (SG) (SG) (SG) (PI)
                 (PI) (SG) (PI) (PI) (SG) (SG) (SG) (DLTA) (DLTA)
                 (PI) (PI) (PI) (PI) (SG) (SG) (SG) (PI) (PI) (SG)
                 (SG) (SG) (PI) (PI) (SG) (SG) (PI) (PI) (SG) (SG)
                 (SG) (PI) (PI) (SG) (SG) (SG) (SG) (PI) (PI) (SG)
                 (SG) (SG) (SG) (SG)
 Leave Link  401 at Wed Apr 18 05:00:29 2018, MaxMem= 10737418240 cpu:              44.5 elap:               1.5
 (Enter /home1/apps/gaussian/16rA.03/g16/l502.exe)
 Keep R1 and R2 ints in memory in symmetry-blocked form, NReq=734602573.
 FoFCou: FMM=F IPFlag=           8 FMFlag=           0 FMFlg1=           0
         NFxFlg=           0 DoJE=F BraDBF=F KetDBF=F FulRan=T
         wScrn=  0.000000 ICntrl=       600 IOpCl=  0 I1Cent=           0 NGrid=           0
         NMat0=    1 NMatS0=  34191 NMatT0=    0 NMatD0=    1 NMtDS0=    0 NMtDT0=    0
 Petite list used in FoFCou.
 Restricted open shell SCF:
 Using DIIS extrapolation, IDIIS=  1040.
 NGot= 10737418240 LenX= 10437146893 LenY= 10437049108
 Requested convergence on RMS density matrix=1.00D-08 within 400 cycles.
 Requested convergence on MAX density matrix=1.00D-06.
 Requested convergence on             energy=1.00D-06.
 Virtual orbitals will be shifted by   0.200 hartree.
 No special actions if energy rises.

 Cycle   1  Pass 1  IDiag  1:
 E= -137.864170913571    
 DIIS: error= 5.20D-02 at cycle   1 NSaved=   1.
 NSaved= 1 IEnMin= 1 EnMin= -137.864170913571     IErMin= 1 ErrMin= 5.20D-02
 ErrMax= 5.20D-02  0.00D+00 EMaxC= 1.00D-01 BMatC= 3.25D-01 BMatP= 3.25D-01
 IDIUse=3 WtCom= 4.80D-01 WtEn= 5.20D-01
 Coeff-Com:  0.100D+01
 Coeff-En:   0.100D+01
 Coeff:      0.100D+01
 Gap=     0.158 Goal=   None    Shift=    0.200
 GapD=    0.158 DampG=1.000 DampE=0.250 DampFc=0.2500 IDamp=-1.
 Damping current iteration by 2.50D-01
 RMSDP=2.01D-03 MaxDP=1.37D-01              OVMax= 1.73D-01

 Cycle   2  Pass 1  IDiag  1:
 E= -137.905073646642     Delta-E=       -0.040902733071 Rises=F Damp=T
 DIIS: error= 2.30D-02 at cycle   2 NSaved=   2.
 NSaved= 2 IEnMin= 2 EnMin= -137.905073646642     IErMin= 2 ErrMin= 2.30D-02
 ErrMax= 2.30D-02  0.00D+00 EMaxC= 1.00D-01 BMatC= 9.14D-02 BMatP= 3.25D-01
 IDIUse=3 WtCom= 7.70D-01 WtEn= 2.30D-01
 Coeff-Com: -0.628D+00 0.163D+01
 Coeff-En:   0.000D+00 0.100D+01
 Coeff:     -0.483D+00 0.148D+01
 Gap=     0.028 Goal=   None    Shift=    0.200
 RMSDP=1.30D-03 MaxDP=8.95D-02 DE=-4.09D-02 OVMax= 1.20D-01

 Cycle   3  Pass 1  IDiag  1:
 E= -137.973061082557     Delta-E=       -0.067987435915 Rises=F Damp=F
 DIIS: error= 4.69D-02 at cycle   3 NSaved=   3.
 NSaved= 3 IEnMin= 3 EnMin= -137.973061082557     IErMin= 2 ErrMin= 2.30D-02
 ErrMax= 4.69D-02  0.00D+00 EMaxC= 1.00D-01 BMatC= 9.66D-02 BMatP= 9.14D-02
 IDIUse=3 WtCom= 5.31D-01 WtEn= 4.69D-01
 Coeff-Com: -0.647D+00 0.115D+01 0.500D+00
 Coeff-En:   0.000D+00 0.000D+00 0.100D+01
 Coeff:     -0.343D+00 0.609D+00 0.735D+00
 Gap=     0.099 Goal=   None    Shift=    0.200
 RMSDP=9.50D-04 MaxDP=8.13D-02 DE=-6.80D-02 OVMax= 1.10D-01

 Cycle   4  Pass 1  IDiag  1:
 E= -138.010994101466     Delta-E=       -0.037933018909 Rises=F Damp=F
 DIIS: error= 1.56D-02 at cycle   4 NSaved=   4.
 NSaved= 4 IEnMin= 4 EnMin= -138.010994101466     IErMin= 4 ErrMin= 1.56D-02
 ErrMax= 1.56D-02  0.00D+00 EMaxC= 1.00D-01 BMatC= 2.81D-02 BMatP= 9.14D-02
 IDIUse=3 WtCom= 8.44D-01 WtEn= 1.56D-01
 Coeff-Com: -0.272D+00 0.459D+00 0.390D+00 0.423D+00
 Coeff-En:   0.000D+00 0.000D+00 0.240D+00 0.760D+00
 Coeff:     -0.230D+00 0.387D+00 0.367D+00 0.475D+00
 Gap=     0.064 Goal=   None    Shift=    0.200
 RMSDP=3.72D-04 MaxDP=3.59D-02 DE=-3.79D-02 OVMax= 3.86D-02

 Cycle   5  Pass 1  IDiag  1:
 E= -138.020491728005     Delta-E=       -0.009497626539 Rises=F Damp=F
 DIIS: error= 6.85D-03 at cycle   5 NSaved=   5.
 NSaved= 5 IEnMin= 5 EnMin= -138.020491728005     IErMin= 5 ErrMin= 6.85D-03
 ErrMax= 6.85D-03  0.00D+00 EMaxC= 1.00D-01 BMatC= 3.01D-03 BMatP= 2.81D-02
 IDIUse=3 WtCom= 9.32D-01 WtEn= 6.85D-02
 Coeff-Com: -0.232D+00 0.313D+00 0.752D-01-0.442D-01 0.888D+00
 Coeff-En:   0.000D+00 0.000D+00 0.000D+00 0.000D+00 0.100D+01
 Coeff:     -0.216D+00 0.292D+00 0.701D-01-0.412D-01 0.895D+00
 Gap=     0.060 Goal=   None    Shift=    0.200
 RMSDP=1.88D-04 MaxDP=1.85D-02 DE=-9.50D-03 OVMax= 3.92D-02

 Cycle   6  Pass 1  IDiag  1:
 E= -138.022775145521     Delta-E=       -0.002283417517 Rises=F Damp=F
 DIIS: error= 7.14D-03 at cycle   6 NSaved=   6.
 NSaved= 6 IEnMin= 6 EnMin= -138.022775145521     IErMin= 5 ErrMin= 6.85D-03
 ErrMax= 7.14D-03  0.00D+00 EMaxC= 1.00D-01 BMatC= 1.83D-03 BMatP= 3.01D-03
 IDIUse=3 WtCom= 9.32D-01 WtEn= 6.85D-02
 Coeff-Com: -0.803D-01 0.120D+00-0.127D+00-0.973D-01-0.401D+00 0.159D+01
 Coeff-En:   0.000D+00 0.000D+00 0.000D+00 0.000D+00 0.000D+00 0.100D+01
 Coeff:     -0.748D-01 0.112D+00-0.118D+00-0.907D-01-0.374D+00 0.155D+01
 Gap=     0.070 Goal=   None    Shift=    0.200
 RMSDP=2.01D-04 MaxDP=1.39D-02 DE=-2.28D-03 OVMax= 4.44D-02

 Cycle   7  Pass 1  IDiag  1:
 E= -138.025267346587     Delta-E=       -0.002492201065 Rises=F Damp=F
 DIIS: error= 2.67D-03 at cycle   7 NSaved=   7.
 NSaved= 7 IEnMin= 7 EnMin= -138.025267346587     IErMin= 7 ErrMin= 2.67D-03
 ErrMax= 2.67D-03  0.00D+00 EMaxC= 1.00D-01 BMatC= 3.54D-04 BMatP= 1.83D-03
 IDIUse=3 WtCom= 9.73D-01 WtEn= 2.67D-02
 Coeff-Com: -0.318D-02 0.176D-01-0.581D-01-0.587D-01-0.247D+00 0.138D+00
 Coeff-Com:  0.121D+01
 Coeff-En:   0.000D+00 0.000D+00 0.000D+00 0.000D+00 0.000D+00 0.000D+00
 Coeff-En:   0.100D+01
 Coeff:     -0.309D-02 0.171D-01-0.565D-01-0.572D-01-0.240D+00 0.134D+00
 Coeff:      0.121D+01
 Gap=     0.076 Goal=   None    Shift=    0.200
 RMSDP=1.67D-04 MaxDP=1.17D-02 DE=-2.49D-03 OVMax= 3.70D-02

 Cycle   8  Pass 1  IDiag  1:
 E= -138.026382433613     Delta-E=       -0.001115087026 Rises=F Damp=F
 DIIS: error= 1.42D-03 at cycle   8 NSaved=   8.
 NSaved= 8 IEnMin= 8 EnMin= -138.026382433613     IErMin= 8 ErrMin= 1.42D-03
 ErrMax= 1.42D-03  0.00D+00 EMaxC= 1.00D-01 BMatC= 1.08D-04 BMatP= 3.54D-04
 IDIUse=3 WtCom= 9.86D-01 WtEn= 1.42D-02
 Coeff-Com:  0.238D-01-0.345D-01 0.780D-01 0.222D-01 0.296D+00-0.916D+00
 Coeff-Com: -0.524D+00 0.205D+01
 Coeff-En:   0.000D+00 0.000D+00 0.000D+00 0.000D+00 0.000D+00 0.000D+00
 Coeff-En:   0.000D+00 0.100D+01
 Coeff:      0.235D-01-0.340D-01 0.769D-01 0.219D-01 0.291D+00-0.903D+00
 Coeff:     -0.516D+00 0.204D+01
 Gap=     0.080 Goal=   None    Shift=    0.200
 RMSDP=1.67D-04 MaxDP=1.24D-02 DE=-1.12D-03 OVMax= 3.53D-02

 Cycle   9  Pass 1  IDiag  1:
 E= -138.026962224136     Delta-E=       -0.000579790523 Rises=F Damp=F
 DIIS: error= 8.60D-04 at cycle   9 NSaved=   9.
 NSaved= 9 IEnMin= 9 EnMin= -138.026962224136     IErMin= 9 ErrMin= 8.60D-04
 ErrMax= 8.60D-04  0.00D+00 EMaxC= 1.00D-01 BMatC= 4.32D-05 BMatP= 1.08D-04
 IDIUse=3 WtCom= 9.91D-01 WtEn= 8.60D-03
 Coeff-Com: -0.155D-01 0.174D-01 0.398D-01 0.114D-01 0.196D+00-0.293D+00
 Coeff-Com: -0.442D+00 0.304D+00 0.118D+01
 Coeff-En:   0.000D+00 0.000D+00 0.000D+00 0.000D+00 0.000D+00 0.000D+00
 Coeff-En:   0.000D+00 0.000D+00 0.100D+01
 Coeff:     -0.153D-01 0.172D-01 0.394D-01 0.113D-01 0.194D+00-0.291D+00
 Coeff:     -0.438D+00 0.301D+00 0.118D+01
 Gap=     0.079 Goal=   None    Shift=    0.200
 RMSDP=7.82D-05 MaxDP=5.39D-03 DE=-5.80D-04 OVMax= 1.69D-02

 Cycle  10  Pass 1  IDiag  1:
 E= -138.027125568761     Delta-E=       -0.000163344626 Rises=F Damp=F
 DIIS: error= 6.62D-04 at cycle  10 NSaved=  10.
 NSaved=10 IEnMin=10 EnMin= -138.027125568761     IErMin=10 ErrMin= 6.62D-04
 ErrMax= 6.62D-04  0.00D+00 EMaxC= 1.00D-01 BMatC= 4.13D-05 BMatP= 4.32D-05
 IDIUse=3 WtCom= 9.93D-01 WtEn= 6.62D-03
 Coeff-Com: -0.574D-02 0.634D-02-0.137D-01 0.703D-02-0.564D-01 0.303D-01
 Coeff-Com: -0.492D-01-0.961D-01-0.482D+00 0.166D+01
 Coeff-En:   0.000D+00 0.000D+00 0.000D+00 0.000D+00 0.000D+00 0.000D+00
 Coeff-En:   0.000D+00 0.000D+00 0.000D+00 0.100D+01
 Coeff:     -0.570D-02 0.630D-02-0.136D-01 0.698D-02-0.561D-01 0.301D-01
 Coeff:     -0.489D-01-0.954D-01-0.479D+00 0.166D+01
 Gap=     0.081 Goal=   None    Shift=    0.200
 RMSDP=5.79D-05 MaxDP=4.20D-03 DE=-1.63D-04 OVMax= 1.35D-02

 Cycle  11  Pass 1  IDiag  1:
 E= -138.027214350263     Delta-E=       -0.000088781502 Rises=F Damp=F
 DIIS: error= 3.69D-04 at cycle  11 NSaved=  11.
 NSaved=11 IEnMin=11 EnMin= -138.027214350263     IErMin=11 ErrMin= 3.69D-04
 ErrMax= 3.69D-04  0.00D+00 EMaxC= 1.00D-01 BMatC= 9.63D-06 BMatP= 4.13D-05
 IDIUse=3 WtCom= 9.96D-01 WtEn= 3.69D-03
 Coeff-Com: -0.101D-01 0.154D-01-0.131D-01-0.123D-01-0.561D-01 0.962D-01
 Coeff-Com:  0.359D-01-0.700D-02-0.689D+00 0.541D+00 0.110D+01
 Coeff-En:   0.000D+00 0.000D+00 0.000D+00 0.000D+00 0.000D+00 0.000D+00
 Coeff-En:   0.000D+00 0.000D+00 0.000D+00 0.000D+00 0.100D+01
 Coeff:     -0.100D-01 0.154D-01-0.130D-01-0.122D-01-0.559D-01 0.958D-01
 Coeff:      0.358D-01-0.698D-02-0.686D+00 0.539D+00 0.110D+01
 Gap=     0.081 Goal=   None    Shift=    0.200
 RMSDP=2.54D-05 MaxDP=2.10D-03 DE=-8.88D-05 OVMax= 6.57D-03

 Cycle  12  Pass 1  IDiag  1:
 E= -138.027238982561     Delta-E=       -0.000024632298 Rises=F Damp=F
 DIIS: error= 2.25D-04 at cycle  12 NSaved=  12.
 NSaved=12 IEnMin=12 EnMin= -138.027238982561     IErMin=12 ErrMin= 2.25D-04
 ErrMax= 2.25D-04  0.00D+00 EMaxC= 1.00D-01 BMatC= 3.89D-06 BMatP= 9.63D-06
 IDIUse=3 WtCom= 9.98D-01 WtEn= 2.25D-03
 Coeff-Com: -0.300D-02 0.445D-02-0.669D-02-0.692D-02-0.170D-01 0.259D-01
 Coeff-Com: -0.237D-01 0.513D-01-0.249D+00 0.235D+00-0.361D+00 0.135D+01
 Coeff-En:   0.000D+00 0.000D+00 0.000D+00 0.000D+00 0.000D+00 0.000D+00
 Coeff-En:   0.000D+00 0.000D+00 0.000D+00 0.000D+00 0.000D+00 0.100D+01
 Coeff:     -0.300D-02 0.444D-02-0.667D-02-0.691D-02-0.169D-01 0.258D-01
 Coeff:     -0.237D-01 0.511D-01-0.249D+00 0.234D+00-0.360D+00 0.135D+01
 Gap=     0.081 Goal=   None    Shift=    0.200
 RMSDP=1.82D-05 MaxDP=1.17D-03 DE=-2.46D-05 OVMax= 4.47D-03

 Cycle  13  Pass 1  IDiag  1:
 E= -138.027250036627     Delta-E=       -0.000011054066 Rises=F Damp=F
 DIIS: error= 1.23D-04 at cycle  13 NSaved=  13.
 NSaved=13 IEnMin=13 EnMin= -138.027250036627     IErMin=13 ErrMin= 1.23D-04
 ErrMax= 1.23D-04  0.00D+00 EMaxC= 1.00D-01 BMatC= 1.29D-06 BMatP= 3.89D-06
 IDIUse=3 WtCom= 9.99D-01 WtEn= 1.23D-03
 Coeff-Com: -0.875D-03 0.119D-02-0.284D-02 0.129D-02-0.368D-02 0.281D-01
 Coeff-Com: -0.274D-01-0.505D-01-0.751D-03 0.282D+00-0.468D+00-0.659D+00
 Coeff-Com:  0.190D+01
 Coeff-En:   0.000D+00 0.000D+00 0.000D+00 0.000D+00 0.000D+00 0.000D+00
 Coeff-En:   0.000D+00 0.000D+00 0.000D+00 0.000D+00 0.000D+00 0.000D+00
 Coeff-En:   0.100D+01
 Coeff:     -0.874D-03 0.119D-02-0.283D-02 0.129D-02-0.368D-02 0.280D-01
 Coeff:     -0.273D-01-0.505D-01-0.750D-03 0.282D+00-0.468D+00-0.658D+00
 Coeff:      0.190D+01
 Gap=     0.081 Goal=   None    Shift=    0.200
 RMSDP=1.00D-05 MaxDP=9.98D-04 DE=-1.11D-05 OVMax= 2.58D-03

 Cycle  14  Pass 1  IDiag  1:
 E= -138.027253837330     Delta-E=       -0.000003800702 Rises=F Damp=F
 DIIS: error= 6.68D-05 at cycle  14 NSaved=  14.
 NSaved=14 IEnMin=14 EnMin= -138.027253837330     IErMin=14 ErrMin= 6.68D-05
 ErrMax= 6.68D-05  0.00D+00 EMaxC= 1.00D-01 BMatC= 4.38D-07 BMatP= 1.29D-06
 IDIUse=1 WtCom= 1.00D+00 WtEn= 0.00D+00
 Coeff-Com:  0.730D-03-0.121D-02-0.949D-03 0.223D-02-0.785D-02 0.484D-02
 Coeff-Com:  0.452D-02 0.145D-02-0.474D-01 0.122D+00-0.693D-01-0.425D+00
 Coeff-Com: -0.147D+00 0.156D+01
 Coeff:      0.730D-03-0.121D-02-0.949D-03 0.223D-02-0.785D-02 0.484D-02
 Coeff:      0.452D-02 0.145D-02-0.474D-01 0.122D+00-0.693D-01-0.425D+00
 Coeff:     -0.147D+00 0.156D+01
 Gap=     0.081 Goal=   None    Shift=    0.200
 RMSDP=6.72D-06 MaxDP=5.10D-04 DE=-3.80D-06 OVMax= 1.56D-03

 Cycle  15  Pass 1  IDiag  1:
 E= -138.027255138872     Delta-E=       -0.000001301542 Rises=F Damp=F
 DIIS: error= 3.36D-05 at cycle  15 NSaved=  15.
 NSaved=15 IEnMin=15 EnMin= -138.027255138872     IErMin=15 ErrMin= 3.36D-05
 ErrMax= 3.36D-05  0.00D+00 EMaxC= 1.00D-01 BMatC= 1.34D-07 BMatP= 4.38D-07
 IDIUse=1 WtCom= 1.00D+00 WtEn= 0.00D+00
 Coeff-Com:  0.138D-03-0.182D-03 0.258D-03 0.173D-03 0.114D-03-0.314D-03
 Coeff-Com:  0.332D-02 0.113D-01-0.423D-01 0.254D-01-0.178D-01-0.320D-01
 Coeff-Com: -0.246D-01-0.607D+00 0.168D+01
 Coeff:      0.138D-03-0.182D-03 0.258D-03 0.173D-03 0.114D-03-0.314D-03
 Coeff:      0.332D-02 0.113D-01-0.423D-01 0.254D-01-0.178D-01-0.320D-01
 Coeff:     -0.246D-01-0.607D+00 0.168D+01
 Gap=     0.081 Goal=   None    Shift=    0.200
 RMSDP=3.33D-06 MaxDP=2.79D-04 DE=-1.30D-06 OVMax= 8.04D-04

 Cycle  16  Pass 1  IDiag  1:
 E= -138.027255482305     Delta-E=       -0.000000343434 Rises=F Damp=F
 DIIS: error= 1.82D-05 at cycle  16 NSaved=  16.
 NSaved=16 IEnMin=16 EnMin= -138.027255482305     IErMin=16 ErrMin= 1.82D-05
 ErrMax= 1.82D-05  0.00D+00 EMaxC= 1.00D-01 BMatC= 4.10D-08 BMatP= 1.34D-07
 IDIUse=1 WtCom= 1.00D+00 WtEn= 0.00D+00
 Coeff-Com:  0.215D-03-0.296D-03-0.917D-04 0.492D-03 0.178D-02-0.316D-02
 Coeff-Com: -0.566D-02 0.491D-02-0.511D-02 0.391D-01-0.738D-01-0.891D-01
 Coeff-Com:  0.344D+00-0.280D+00-0.524D+00 0.159D+01
 Coeff:      0.215D-03-0.296D-03-0.917D-04 0.492D-03 0.178D-02-0.316D-02
 Coeff:     -0.566D-02 0.491D-02-0.511D-02 0.391D-01-0.738D-01-0.891D-01
 Coeff:      0.344D+00-0.280D+00-0.524D+00 0.159D+01
 Gap=     0.081 Goal=   None    Shift=    0.200
 RMSDP=1.99D-06 MaxDP=2.55D-04 DE=-3.43D-07 OVMax= 4.33D-04

 Cycle  17  Pass 1  IDiag  1:
 E= -138.027255585605     Delta-E=       -0.000000103300 Rises=F Damp=F
 DIIS: error= 9.95D-06 at cycle  17 NSaved=  17.
 NSaved=17 IEnMin=17 EnMin= -138.027255585605     IErMin=17 ErrMin= 9.95D-06
 ErrMax= 9.95D-06  0.00D+00 EMaxC= 1.00D-01 BMatC= 1.31D-08 BMatP= 4.10D-08
 IDIUse=1 WtCom= 1.00D+00 WtEn= 0.00D+00
 Coeff-Com:  0.261D-04-0.516D-04-0.101D-03 0.287D-03 0.206D-03 0.166D-03
 Coeff-Com: -0.221D-02-0.236D-02 0.466D-02 0.232D-01-0.393D-01-0.917D-01
 Coeff-Com:  0.137D+00 0.240D+00-0.511D+00-0.549D+00 0.179D+01
 Coeff:      0.261D-04-0.516D-04-0.101D-03 0.287D-03 0.206D-03 0.166D-03
 Coeff:     -0.221D-02-0.236D-02 0.466D-02 0.232D-01-0.393D-01-0.917D-01
 Coeff:      0.137D+00 0.240D+00-0.511D+00-0.549D+00 0.179D+01
 Gap=     0.081 Goal=   None    Shift=    0.200
 RMSDP=1.24D-06 MaxDP=1.01D-04 DE=-1.03D-07 OVMax= 2.19D-04

 Cycle  18  Pass 1  IDiag  1:
 E= -138.027255617443     Delta-E=       -0.000000031838 Rises=F Damp=F
 DIIS: error= 5.44D-06 at cycle  18 NSaved=  18.
 NSaved=18 IEnMin=18 EnMin= -138.027255617443     IErMin=18 ErrMin= 5.44D-06
 ErrMax= 5.44D-06  0.00D+00 EMaxC= 1.00D-01 BMatC= 4.13D-09 BMatP= 1.31D-08
 IDIUse=1 WtCom= 1.00D+00 WtEn= 0.00D+00
 Coeff-Com: -0.749D-05 0.407D-05 0.172D-04 0.684D-04-0.300D-03 0.893D-03
 Coeff-Com:  0.639D-03-0.281D-02 0.149D-02 0.708D-02-0.219D-02-0.502D-01
 Coeff-Com:  0.731D-02 0.141D+00-0.300D-01-0.679D+00 0.399D+00 0.121D+01
 Coeff:     -0.749D-05 0.407D-05 0.172D-04 0.684D-04-0.300D-03 0.893D-03
 Coeff:      0.639D-03-0.281D-02 0.149D-02 0.708D-02-0.219D-02-0.502D-01
 Coeff:      0.731D-02 0.141D+00-0.300D-01-0.679D+00 0.399D+00 0.121D+01
 Gap=     0.081 Goal=   None    Shift=    0.200
 RMSDP=6.15D-07 MaxDP=7.30D-05 DE=-3.18D-08 OVMax= 1.25D-04

 Cycle  19  Pass 1  IDiag  1:
 E= -138.027255627980     Delta-E=       -0.000000010537 Rises=F Damp=F
 DIIS: error= 2.91D-06 at cycle  19 NSaved=  19.
 NSaved=19 IEnMin=19 EnMin= -138.027255627980     IErMin=19 ErrMin= 2.91D-06
 ErrMax= 2.91D-06  0.00D+00 EMaxC= 1.00D-01 BMatC= 1.21D-09 BMatP= 4.13D-09
 IDIUse=1 WtCom= 1.00D+00 WtEn= 0.00D+00
 Coeff-Com:  0.165D-05 0.594D-05 0.205D-05-0.351D-04-0.419D-04 0.239D-03
 Coeff-Com:  0.481D-03-0.919D-03-0.642D-03-0.622D-03 0.769D-02-0.579D-02
 Coeff-Com:  0.673D-02-0.489D-01 0.620D-01 0.129D-01-0.244D+00-0.676D+00
 Coeff-Com:  0.189D+01
 Coeff:      0.165D-05 0.594D-05 0.205D-05-0.351D-04-0.419D-04 0.239D-03
 Coeff:      0.481D-03-0.919D-03-0.642D-03-0.622D-03 0.769D-02-0.579D-02
 Coeff:      0.673D-02-0.489D-01 0.620D-01 0.129D-01-0.244D+00-0.676D+00
 Coeff:      0.189D+01
 Gap=     0.081 Goal=   None    Shift=    0.200
 RMSDP=4.34D-07 MaxDP=6.55D-05 DE=-1.05D-08 OVMax= 6.83D-05

 Cycle  20  Pass 1  IDiag  1:
 E= -138.027255631217     Delta-E=       -0.000000003237 Rises=F Damp=F
 DIIS: error= 1.68D-06 at cycle  20 NSaved=  20.
 NSaved=20 IEnMin=20 EnMin= -138.027255631217     IErMin=20 ErrMin= 1.68D-06
 ErrMax= 1.68D-06  0.00D+00 EMaxC= 1.00D-01 BMatC= 3.84D-10 BMatP= 1.21D-09
 IDIUse=1 WtCom= 1.00D+00 WtEn= 0.00D+00
 Coeff-Com: -0.186D-07 0.190D-05 0.584D-06-0.160D-05 0.572D-04-0.131D-03
 Coeff-Com:  0.374D-04 0.126D-03 0.238D-03-0.882D-03 0.250D-03 0.131D-02
 Coeff-Com:  0.100D-01-0.259D-01-0.210D-01 0.518D-01-0.688D-02-0.357D+00
 Coeff-Com: -0.493D-01 0.140D+01
 Coeff:     -0.186D-07 0.190D-05 0.584D-06-0.160D-05 0.572D-04-0.131D-03
 Coeff:      0.374D-04 0.126D-03 0.238D-03-0.882D-03 0.250D-03 0.131D-02
 Coeff:      0.100D-01-0.259D-01-0.210D-01 0.518D-01-0.688D-02-0.357D+00
 Coeff:     -0.493D-01 0.140D+01
 Gap=     0.081 Goal=   None    Shift=    0.200
 RMSDP=2.18D-07 MaxDP=3.10D-05 DE=-3.24D-09 OVMax= 3.91D-05

 Cycle  21  Pass 1  IDiag  1:
 E= -138.027255632264     Delta-E=       -0.000000001047 Rises=F Damp=F
 DIIS: error= 9.22D-07 at cycle  21 NSaved=  20.
 NSaved=20 IEnMin=20 EnMin= -138.027255632264     IErMin=20 ErrMin= 9.22D-07
 ErrMax= 9.22D-07  0.00D+00 EMaxC= 1.00D-01 BMatC= 1.22D-10 BMatP= 3.84D-10
 IDIUse=1 WtCom= 1.00D+00 WtEn= 0.00D+00
 Coeff-Com: -0.139D-05 0.118D-04 0.433D-05 0.465D-04-0.877D-04 0.914D-04
 Coeff-Com:  0.418D-04 0.725D-03-0.694D-03-0.132D-02-0.693D-03-0.238D-02
 Coeff-Com:  0.154D-01-0.270D-01-0.535D-01 0.129D+00 0.105D+00-0.373D+00
 Coeff-Com: -0.700D+00 0.191D+01
 Coeff:     -0.139D-05 0.118D-04 0.433D-05 0.465D-04-0.877D-04 0.914D-04
 Coeff:      0.418D-04 0.725D-03-0.694D-03-0.132D-02-0.693D-03-0.238D-02
 Coeff:      0.154D-01-0.270D-01-0.535D-01 0.129D+00 0.105D+00-0.373D+00
 Coeff:     -0.700D+00 0.191D+01
 Gap=     0.081 Goal=   None    Shift=    0.200
 RMSDP=1.25D-07 MaxDP=2.03D-05 DE=-1.05D-09 OVMax= 2.16D-05

 Cycle  22  Pass 1  IDiag  1:
 E= -138.027255632616     Delta-E=       -0.000000000352 Rises=F Damp=F
 DIIS: error= 5.00D-07 at cycle  22 NSaved=  20.
 NSaved=20 IEnMin=20 EnMin= -138.027255632616     IErMin=20 ErrMin= 5.00D-07
 ErrMax= 5.00D-07  0.00D+00 EMaxC= 1.00D-01 BMatC= 3.87D-11 BMatP= 1.22D-10
 IDIUse=1 WtCom= 1.00D+00 WtEn= 0.00D+00
 Coeff-Com: -0.149D-05-0.393D-05 0.189D-04 0.247D-06 0.714D-04-0.187D-03
 Coeff-Com:  0.292D-03-0.453D-05 0.305D-03-0.978D-03-0.126D-02 0.727D-02
 Coeff-Com: -0.975D-02-0.371D-01 0.405D-01 0.451D-01 0.392D-01-0.594D+00
 Coeff-Com:  0.222D+00 0.129D+01
 Coeff:     -0.149D-05-0.393D-05 0.189D-04 0.247D-06 0.714D-04-0.187D-03
 Coeff:      0.292D-03-0.453D-05 0.305D-03-0.978D-03-0.126D-02 0.727D-02
 Coeff:     -0.975D-02-0.371D-01 0.405D-01 0.451D-01 0.392D-01-0.594D+00
 Coeff:      0.222D+00 0.129D+01
 Gap=     0.081 Goal=   None    Shift=    0.200
 RMSDP=8.60D-08 MaxDP=1.75D-05 DE=-3.52D-10 OVMax= 1.17D-05

 Cycle  23  Pass 1  IDiag  1:
 E= -138.027255632721     Delta-E=       -0.000000000105 Rises=F Damp=F
 DIIS: error= 2.92D-07 at cycle  23 NSaved=  20.
 NSaved=20 IEnMin=20 EnMin= -138.027255632721     IErMin=20 ErrMin= 2.92D-07
 ErrMax= 2.92D-07  0.00D+00 EMaxC= 1.00D-01 BMatC= 1.29D-11 BMatP= 3.87D-11
 IDIUse=1 WtCom= 1.00D+00 WtEn= 0.00D+00
 Coeff-Com: -0.378D-05 0.274D-04-0.283D-04-0.215D-06-0.985D-04 0.181D-03
 Coeff-Com: -0.844D-04 0.555D-03-0.279D-03 0.822D-03-0.845D-03-0.225D-02
 Coeff-Com: -0.219D-02-0.163D-01-0.362D-01 0.152D+00-0.731D-01-0.421D+00
 Coeff-Com: -0.219D-01 0.142D+01
 Coeff:     -0.378D-05 0.274D-04-0.283D-04-0.215D-06-0.985D-04 0.181D-03
 Coeff:     -0.844D-04 0.555D-03-0.279D-03 0.822D-03-0.845D-03-0.225D-02
 Coeff:     -0.219D-02-0.163D-01-0.362D-01 0.152D+00-0.731D-01-0.421D+00
 Coeff:     -0.219D-01 0.142D+01
 Gap=     0.081 Goal=   None    Shift=    0.200
 RMSDP=4.87D-08 MaxDP=1.03D-05 DE=-1.05D-10 OVMax= 6.60D-06

 Cycle  24  Pass 1  IDiag  1:
 E= -138.027255632755     Delta-E=       -0.000000000033 Rises=F Damp=F
 DIIS: error= 1.73D-07 at cycle  24 NSaved=  20.
 NSaved=20 IEnMin=20 EnMin= -138.027255632755     IErMin=20 ErrMin= 1.73D-07
 ErrMax= 1.73D-07  0.00D+00 EMaxC= 1.00D-01 BMatC= 4.47D-12 BMatP= 1.29D-11
 IDIUse=1 WtCom= 1.00D+00 WtEn= 0.00D+00
 Coeff-Com:  0.189D-05-0.231D-04 0.305D-05 0.231D-04 0.453D-04-0.118D-03
 Coeff-Com: -0.456D-04 0.244D-03 0.858D-03-0.123D-02-0.241D-02 0.103D-01
 Coeff-Com: -0.654D-02-0.295D-01-0.371D-02 0.139D+00-0.711D-01-0.395D+00
 Coeff-Com: -0.647D+00 0.201D+01
 Coeff:      0.189D-05-0.231D-04 0.305D-05 0.231D-04 0.453D-04-0.118D-03
 Coeff:     -0.456D-04 0.244D-03 0.858D-03-0.123D-02-0.241D-02 0.103D-01
 Coeff:     -0.654D-02-0.295D-01-0.371D-02 0.139D+00-0.711D-01-0.395D+00
 Coeff:     -0.647D+00 0.201D+01
 Gap=     0.081 Goal=   None    Shift=    0.200
 RMSDP=2.80D-08 MaxDP=5.29D-06 DE=-3.35D-11 OVMax= 3.90D-06

 Cycle  25  Pass 1  IDiag  1:
 E= -138.027255632766     Delta-E=       -0.000000000011 Rises=F Damp=F
 DIIS: error= 1.06D-07 at cycle  25 NSaved=  20.
 NSaved=20 IEnMin=20 EnMin= -138.027255632766     IErMin=20 ErrMin= 1.06D-07
 ErrMax= 1.06D-07  0.00D+00 EMaxC= 1.00D-01 BMatC= 1.61D-12 BMatP= 4.47D-12
 IDIUse=1 WtCom= 1.00D+00 WtEn= 0.00D+00
 Coeff-Com: -0.880D-05 0.131D-04 0.378D-05 0.127D-05-0.691D-04 0.780D-04
 Coeff-Com:  0.180D-03-0.823D-04-0.332D-03-0.135D-02 0.465D-02-0.287D-03
 Coeff-Com: -0.880D-02-0.228D-01 0.603D-01 0.172D-01-0.141D+00-0.560D+00
 Coeff-Com:  0.389D+00 0.126D+01
 Coeff:     -0.880D-05 0.131D-04 0.378D-05 0.127D-05-0.691D-04 0.780D-04
 Coeff:      0.180D-03-0.823D-04-0.332D-03-0.135D-02 0.465D-02-0.287D-03
 Coeff:     -0.880D-02-0.228D-01 0.603D-01 0.172D-01-0.141D+00-0.560D+00
 Coeff:      0.389D+00 0.126D+01
 Gap=     0.081 Goal=   None    Shift=    0.200
 RMSDP=1.78D-08 MaxDP=2.87D-06 DE=-1.13D-11 OVMax= 2.39D-06

 Cycle  26  Pass 1  IDiag  1:
 E= -138.027255632770     Delta-E=       -0.000000000005 Rises=F Damp=F
 DIIS: error= 6.63D-08 at cycle  26 NSaved=  20.
 NSaved=20 IEnMin=20 EnMin= -138.027255632770     IErMin=20 ErrMin= 6.63D-08
 ErrMax= 6.63D-08  0.00D+00 EMaxC= 1.00D-01 BMatC= 5.96D-13 BMatP= 1.61D-12
 IDIUse=1 WtCom= 1.00D+00 WtEn= 0.00D+00
 Coeff-Com:  0.169D-04-0.169D-04-0.224D-04-0.413D-05 0.185D-03-0.142D-04
 Coeff-Com: -0.610D-03 0.656D-03-0.590D-03-0.127D-02 0.331D-02 0.763D-02
 Coeff-Com: -0.189D-01-0.163D-01 0.353D-01 0.769D-01-0.214D+00-0.539D+00
 Coeff-Com:  0.411D+00 0.126D+01
 Coeff:      0.169D-04-0.169D-04-0.224D-04-0.413D-05 0.185D-03-0.142D-04
 Coeff:     -0.610D-03 0.656D-03-0.590D-03-0.127D-02 0.331D-02 0.763D-02
 Coeff:     -0.189D-01-0.163D-01 0.353D-01 0.769D-01-0.214D+00-0.539D+00
 Coeff:      0.411D+00 0.126D+01
 Gap=     0.081 Goal=   None    Shift=    0.200
 RMSDP=1.08D-08 MaxDP=2.00D-06 DE=-4.60D-12 OVMax= 1.43D-06

 Cycle  27  Pass 1  IDiag  1:
 E= -138.027255632772     Delta-E=       -0.000000000001 Rises=F Damp=F
 DIIS: error= 4.28D-08 at cycle  27 NSaved=  20.
 NSaved=20 IEnMin=20 EnMin= -138.027255632772     IErMin=20 ErrMin= 4.28D-08
 ErrMax= 4.28D-08  0.00D+00 EMaxC= 1.00D-01 BMatC= 2.18D-13 BMatP= 5.96D-13
 IDIUse=1 WtCom= 1.00D+00 WtEn= 0.00D+00
 Large coefficients: NSaved= 20 BigCof=    0.00 CofMax=   10.00 Det=-6.56D-15
 Inversion failed.  Reducing to 19 matrices.
 Large coefficients: NSaved= 19 BigCof=    0.00 CofMax=   10.00 Det=-6.71D-15
 Inversion failed.  Reducing to 18 matrices.
 Large coefficients: NSaved= 18 BigCof=    0.00 CofMax=   10.00 Det=-7.02D-15
 Inversion failed.  Reducing to 17 matrices.
 Large coefficients: NSaved= 17 BigCof=    0.00 CofMax=   10.00 Det=-7.05D-15
 Inversion failed.  Reducing to 16 matrices.
 Large coefficients: NSaved= 16 BigCof=    0.00 CofMax=   10.00 Det=-7.51D-15
 Inversion failed.  Reducing to 15 matrices.
 Coeff-Com: -0.754D-05 0.180D-03 0.279D-03-0.114D-02-0.831D-05 0.466D-02
 Coeff-Com:  0.806D-03-0.954D-02-0.177D-01 0.216D-01 0.976D-02 0.188D-01
 Coeff-Com: -0.434D+00-0.647D+00 0.205D+01
 Coeff:     -0.754D-05 0.180D-03 0.279D-03-0.114D-02-0.831D-05 0.466D-02
 Coeff:      0.806D-03-0.954D-02-0.177D-01 0.216D-01 0.976D-02 0.188D-01
 Coeff:     -0.434D+00-0.647D+00 0.205D+01
 Gap=     0.081 Goal=   None    Shift=    0.200
 RMSDP=6.25D-09 MaxDP=1.27D-06 DE=-1.48D-12 OVMax= 8.22D-07

 Cycle  28  Pass 1  IDiag  1:
 E= -138.027255632772     Delta-E=       -0.000000000000 Rises=F Damp=F
 DIIS: error= 2.67D-08 at cycle  28 NSaved=  16.
 NSaved=16 IEnMin=16 EnMin= -138.027255632772     IErMin=16 ErrMin= 2.67D-08
 ErrMax= 2.67D-08  0.00D+00 EMaxC= 1.00D-01 BMatC= 8.50D-14 BMatP= 2.18D-13
 IDIUse=1 WtCom= 1.00D+00 WtEn= 0.00D+00
 Large coefficients: NSaved= 16 BigCof=    0.00 CofMax=   10.00 Det=-2.11D-15
 Inversion failed.  Reducing to 15 matrices.
 Coeff-Com:  0.744D-04 0.349D-03-0.909D-03-0.390D-03 0.298D-02 0.419D-02
 Coeff-Com: -0.942D-02-0.212D-01 0.272D-01 0.234D-01-0.823D-02-0.303D+00
 Coeff-Com: -0.404D+00 0.796D+00 0.893D+00
 Coeff:      0.744D-04 0.349D-03-0.909D-03-0.390D-03 0.298D-02 0.419D-02
 Coeff:     -0.942D-02-0.212D-01 0.272D-01 0.234D-01-0.823D-02-0.303D+00
 Coeff:     -0.404D+00 0.796D+00 0.893D+00
 Gap=     0.081 Goal=   None    Shift=    0.200
 RMSDP=3.55D-09 MaxDP=4.97D-07 DE=-3.41D-13 OVMax= 5.20D-07

 SCF Done:  E(ROHF) =  -138.027255633     A.U. after   28 cycles
            NFock= 28  Conv=0.35D-08     -V/T= 2.6205
 <Sx>= 0.0000 <Sy>= 0.0000 <Sz>= 2.0000 <S**2>= 6.0000 S= 2.0000
 <L.S>=  0.00000000000    
 KE= 8.517385385239D+01 PE=-4.110692236942D+02 EE= 1.455339373354D+02
 Annihilation of the first spin contaminant:
 S**2 before annihilation     6.0000,   after     6.0000
 Leave Link  502 at Wed Apr 18 05:00:56 2018, MaxMem= 10737418240 cpu:             669.7 elap:              26.7
 (Enter /home1/apps/gaussian/16rA.03/g16/l801.exe)
 Windowed orbitals will be sorted by symmetry type.
 GenMOA:  NOpAll=  4 NOp2=4 NOpUse=  4 JSym2X=1
 FoFJK:  IHMeth= 1 ICntrl=       0 DoSepK=F KAlg= 0 I1Cent=           0 FoldK=F
 IRaf=         0 NMat=       1 IRICut=       1 DoRegI=T DoRafI=F ISym2E= 1 IDoP0=0 IntGTp=1.
 FoFCou: FMM=F IPFlag=           8 FMFlag=      100000 FMFlg1=           0
         NFxFlg=           0 DoJE=F BraDBF=F KetDBF=F FulRan=T
         wScrn=  0.000000 ICntrl=         0 IOpCl=  1 I1Cent=           0 NGrid=           0
         NMat0=    1 NMatS0=      1 NMatT0=    0 NMatD0=    1 NMtDS0=    0 NMtDT0=    0
 Petite list used in FoFCou.
 <Sx>= 0.0000 <Sy>= 0.0000 <Sz>= 2.0000 <S**2>= 6.0000 S= 2.0000
 Range of M.O.s used for correlation:     1   258
 NBasis=   261 NAE=    13 NBE=     9 NFC=     0 NFV=     0
 NROrb=    258 NOA=    13 NOB=     9 NVA=   245 NVB=   249

 **** Warning!!: The largest alpha MO coefficient is  0.25387947D+03


 **** Warning!!: The largest beta MO coefficient is  0.25351727D+03

 Singles contribution to E2=   -0.9745883289D-02
 Leave Link  801 at Wed Apr 18 05:01:01 2018, MaxMem= 10737418240 cpu:             140.5 elap:               4.5
 (Enter /home1/apps/gaussian/16rA.03/g16/l804.exe)
 Open-shell transformation, MDV= 10737418240 ITran=4 ISComp=2.
 Unit  1 TFree=       2052612 TCopy=        947069.
 Semi-Direct transformation.
 ModeAB=           4 MOrb=            13 LenV=   10735347565
 LASXX=     27714387 LTotXX=    27714387 LenRXX=    55891917
 LTotAB=    28177530 MaxLAS=   163118436 LenRXY=           0
 NonZer=    83606304 LenScr=   126157824 LnRSAI=   163118436
 LnScr1=   245638144 LExtra=    12244988 Total=    603051309
 MaxDsk= 67108864000 SrtSym=           T ITran=            4
 DoSDTr:  NPSUse= 32
 JobTyp=1 Pass  1:  I=   1 to  13.
 (rs|ai) integrals will be sorted in core.
 Complete sort for first half transformation.
 First half transformation complete.
 Begin second half transformation for I=  10.
 Complete sort for second half transformation.
 Second half transformation complete.
 ModeAB=           4 MOrb=             9 LenV=   10735347565
 LASXX=     19296872 LTotXX=    19296872 LenRXX=    36960241
 LTotAB=    17663369 MaxLAS=   112928148 LenRXY=           0
 NonZer=    56257113 LenScr=    85163008 LnRSAI=   112928148
 LnScr1=   170155008 LExtra=    68136905 Total=    473343310
 MaxDsk= 67108864000 SrtSym=           T ITran=            4
 DoSDTr:  NPSUse= 32
 JobTyp=2 Pass  1:  I=   1 to   9.
 (rs|ai) integrals will be sorted in core.
 Complete sort for first half transformation.
 First half transformation complete.
 Complete sort for second half transformation.
 Second half transformation complete.
 Spin components of T(2) and E(2):
     alpha-alpha T2 =       0.3981489225D-01 E2=     -0.2024889405D+00
     alpha-beta  T2 =       0.1228593526D+00 E2=     -0.7134608583D+00
     beta-beta   T2 =       0.2622466866D-01 E2=     -0.1213544571D+00
 ANorm=    0.1092273198D+01
 E2 =    -0.1047050139D+01 EUMP2 =    -0.13907430577198D+03
 (S**2,0)=  0.60000D+01           (S**2,1)=  0.60000D+01
 E(PUHF)=      -0.13802725563D+03        E(PMP2)=      -0.13907430577D+03
 Leave Link  804 at Wed Apr 18 05:03:02 2018, MaxMem= 10737418240 cpu:            3854.3 elap:             120.6
 (Enter /home1/apps/gaussian/16rA.03/g16/l913.exe)
 CIDS:  MDV= 10737418240.
 IFCWin=0 IBDFC=1 NFBD=     0     0 NFCmp=     0     0 NFFFC=     0     0
 Using original routines for 1st iteration.
 Using DD4UQ or CC4UQ for 2nd and later iterations.
 Keep R2 and R3 ints in memory in symmetry-blocked form, NReq=734618313.
 FoFCou: FMM=F IPFlag=           8 FMFlag=           0 FMFlg1=           0
         NFxFlg=           0 DoJE=F BraDBF=F KetDBF=F FulRan=T
         wScrn=  0.000000 ICntrl=       600 IOpCl=  0 I1Cent=           0 NGrid=           0
         NMat0=    1 NMatS0=  34191 NMatT0=    0 NMatD0=    1 NMtDS0=    0 NMtDT0=    0
 Petite list used in FoFCou.
 CIDS: In Core Option IDoMem=           1.
 CCSD(T)
 =======
 Iterations= 150 Convergence= 0.100D-06
 Produce multiple copies of IABC intergrals
 Iteration Nr.   1
 **********************
 DD1Dir will call FoFMem   1 times, MxPair=       348
 NAB=   117 NAA=    78 NBB=    36.
 DD1Dir will call FoFMem   1 times, MxPair=       348
 NAB=   117 NAA=    78 NBB=    36.
 MP4(R+Q)= -0.94854136D-01
 Maximum subspace dimension=  5
 A-vector RMS=  2.7457201D-04 Max=  2.2411612D-03 conv= 1.00D-05.
 RLE energy=       -1.0365588813
 E3=        0.10499776D+00        EROMP3=      -0.13896930801D+03
 E4(SDQ)=  -0.74735741D-01        ROMP4(SDQ)=  -0.13904404375D+03
 VARIATIONAL ENERGIES WITH THE FIRST-ORDER WAVEFUNCTION:
 DE(Corr)=  -1.0364504     E(Corr)=     -139.06370600    
 NORM(A)=   0.10888591D+01
 Iteration Nr.   2
 **********************
 DD1Dir will call FoFMem   1 times, MxPair=       348
 NAB=   117 NAA=    78 NBB=    36.
 A-vector RMS=  4.7305766D-03 Max=  4.7897756D-02 conv= 1.00D-05.
 RLE energy=       -1.0137148517
 DE(Corr)= -0.92900607     E(CORR)=     -138.95626170     Delta= 1.07D-01
 NORM(A)=   0.10838288D+01
 Iteration Nr.   3
 **********************
 DD1Dir will call FoFMem   1 times, MxPair=       348
 NAB=   117 NAA=    78 NBB=    36.
 A-vector RMS=  3.5107311D-03 Max=  3.4546746D-02 conv= 1.00D-05.
 RLE energy=       -0.9935284867
 DE(Corr)= -0.94364449     E(CORR)=     -138.97090012     Delta=-1.46D-02
 NORM(A)=   0.10866960D+01
 Iteration Nr.   4
 **********************
 DD1Dir will call FoFMem   1 times, MxPair=       348
 NAB=   117 NAA=    78 NBB=    36.
 A-vector RMS=  2.0064645D-03 Max=  1.9648254D-02 conv= 1.00D-05.
 RLE energy=       -0.9593906841
 DE(Corr)= -0.96880632     E(CORR)=     -138.99606195     Delta=-2.52D-02
 NORM(A)=   0.11345999D+01
 Iteration Nr.   5
 **********************
 DD1Dir will call FoFMem   1 times, MxPair=       348
 NAB=   117 NAA=    78 NBB=    36.
 A-vector RMS=  2.6521361D-03 Max=  2.6972612D-02 conv= 1.00D-05.
 RLE energy=       -0.9882201281
 DE(Corr)=  -1.0281374     E(CORR)=     -139.05539301     Delta=-5.93D-02
 NORM(A)=   0.11289548D+01
 Iteration Nr.   6
 **********************
 DD1Dir will call FoFMem   1 times, MxPair=       348
 NAB=   117 NAA=    78 NBB=    36.
 A-vector RMS=  7.4207915D-04 Max=  8.3246804D-03 conv= 1.00D-05.
 RLE energy=       -0.9912417044
 DE(Corr)=  -1.0013352     E(CORR)=     -139.02859080     Delta= 2.68D-02
 NORM(A)=   0.11152875D+01
 Iteration Nr.   7
 **********************
 DD1Dir will call FoFMem   1 times, MxPair=       348
 NAB=   117 NAA=    78 NBB=    36.
 A-vector RMS=  1.0049186D-04 Max=  1.9521458D-03 conv= 1.00D-05.
 RLE energy=       -0.9903253686
 DE(Corr)= -0.99045816     E(CORR)=     -139.01771380     Delta= 1.09D-02
 NORM(A)=   0.11152560D+01
 Iteration Nr.   8
 **********************
 DD1Dir will call FoFMem   1 times, MxPair=       348
 NAB=   117 NAA=    78 NBB=    36.
 A-vector RMS=  7.4701468D-05 Max=  1.1227561D-03 conv= 1.00D-05.
 RLE energy=       -0.9905638467
 DE(Corr)= -0.99069578     E(CORR)=     -139.01795142     Delta=-2.38D-04
 NORM(A)=   0.11159767D+01
 Iteration Nr.   9
 **********************
 DD1Dir will call FoFMem   1 times, MxPair=       348
 NAB=   117 NAA=    78 NBB=    36.
 A-vector RMS=  3.6153203D-05 Max=  5.7724941D-04 conv= 1.00D-05.
 RLE energy=       -0.9906776278
 DE(Corr)= -0.99059313     E(CORR)=     -139.01784876     Delta= 1.03D-04
 NORM(A)=   0.11164418D+01
 Iteration Nr.  10
 **********************
 DD1Dir will call FoFMem   1 times, MxPair=       348
 NAB=   117 NAA=    78 NBB=    36.
 A-vector RMS=  1.7081427D-05 Max=  2.2208445D-04 conv= 1.00D-05.
 RLE energy=       -0.9906764618
 DE(Corr)= -0.99066877     E(CORR)=     -139.01792441     Delta=-7.56D-05
 NORM(A)=   0.11165413D+01
 Iteration Nr.  11
 **********************
 DD1Dir will call FoFMem   1 times, MxPair=       348
 NAB=   117 NAA=    78 NBB=    36.
 A-vector RMS=  9.2354056D-06 Max=  1.0527790D-04 conv= 1.00D-05.
 RLE energy=       -0.9906901487
 DE(Corr)= -0.99067684     E(CORR)=     -139.01793247     Delta=-8.06D-06
 NORM(A)=   0.11165910D+01
 Iteration Nr.  12
 **********************
 DD1Dir will call FoFMem   1 times, MxPair=       348
 NAB=   117 NAA=    78 NBB=    36.
 A-vector RMS=  4.8971031D-06 Max=  4.9032742D-05 conv= 1.00D-05.
 RLE energy=       -0.9906932088
 DE(Corr)= -0.99068482     E(CORR)=     -139.01794046     Delta=-7.99D-06
 NORM(A)=   0.11165679D+01
 Iteration Nr.  13
 **********************
 DD1Dir will call FoFMem   1 times, MxPair=       348
 NAB=   117 NAA=    78 NBB=    36.
 A-vector RMS=  1.5294346D-06 Max=  1.4107262D-05 conv= 1.00D-05.
 RLE energy=       -0.9906699135
 DE(Corr)= -0.99067209     E(CORR)=     -139.01792773     Delta= 1.27D-05
 NORM(A)=   0.11165457D+01
 Iteration Nr.  14
 **********************
 DD1Dir will call FoFMem   1 times, MxPair=       348
 NAB=   117 NAA=    78 NBB=    36.
 A-vector RMS=  8.5207529D-07 Max=  9.7198739D-06 conv= 1.00D-05.
 RLE energy=       -0.9906712776
 DE(Corr)= -0.99067346     E(CORR)=     -139.01792910     Delta=-1.37D-06
 NORM(A)=   0.11165357D+01
 Iteration Nr.  15
 **********************
 DD1Dir will call FoFMem   1 times, MxPair=       348
 NAB=   117 NAA=    78 NBB=    36.
 A-vector RMS=  3.0525448D-07 Max=  4.2474624D-06 conv= 1.00D-05.
 RLE energy=       -0.9906682868
 DE(Corr)= -0.99066814     E(CORR)=     -139.01792377     Delta= 5.32D-06
 NORM(A)=   0.11165329D+01
 Iteration Nr.  16
 **********************
 DD1Dir will call FoFMem   1 times, MxPair=       348
 NAB=   117 NAA=    78 NBB=    36.
 A-vector RMS=  1.7216505D-07 Max=  2.9169462D-06 conv= 1.00D-05.
 RLE energy=       -0.9906681810
 DE(Corr)= -0.99066843     E(CORR)=     -139.01792406     Delta=-2.89D-07
 NORM(A)=   0.11165330D+01
 Iteration Nr.  17
 **********************
 DD1Dir will call FoFMem   1 times, MxPair=       348
 NAB=   117 NAA=    78 NBB=    36.
 A-vector RMS=  8.9889314D-08 Max=  2.3117242D-06 conv= 1.00D-05.
 RLE energy=       -0.9906683194
 DE(Corr)= -0.99066827     E(CORR)=     -139.01792391     Delta= 1.57D-07
 NORM(A)=   0.11165336D+01
 Iteration Nr.  18
 **********************
 DD1Dir will call FoFMem   1 times, MxPair=       348
 NAB=   117 NAA=    78 NBB=    36.
 A-vector RMS=  6.5668440D-08 Max=  1.4247595D-06 conv= 1.00D-05.
 RLE energy=       -0.9906683607
 DE(Corr)= -0.99066829     E(CORR)=     -139.01792392     Delta=-1.61D-08
 NORM(A)=   0.11165345D+01
 CI/CC converged in   18 iterations to DelEn=-1.61D-08 Conv= 1.00D-07 ErrA1= 6.57D-08 Conv= 1.00D-05
 Wavefunction amplitudes converged. E(Corr)=     -139.01792392    
 Largest amplitude= 6.82D-02
 Time for triples=    39780.38 seconds.
 T4(CCSD)= -0.50894822D-01
 T5(CCSD)=  0.82368146D-02
 CCSD(T)= -0.13906058193D+03
 Discarding MO integrals.
 Leave Link  913 at Wed Apr 18 05:30:52 2018, MaxMem= 10737418240 cpu:           53225.4 elap:            1669.1
 (Enter /home1/apps/gaussian/16rA.03/g16/l601.exe)
 Copying SCF densities to generalized density rwf, IOpCl= 0 IROHF=1.

 **********************************************************************

            Population analysis using the SCF density.

 **********************************************************************

 Orbital symmetries:
       Occupied  (SG) (SG) (PI) (PI) (SG) (PI) (PI) (SG) (DLTA)
                 (DLTA) (SG) (PI) (PI)
       Virtual   (SG) (PI) (PI) (SG) (SG) (PI) (PI) (DLTA) (DLTA)
                 (PI) (PI) (SG) (SG) (SG) (PI) (PI) (SG) (PI) (PI)
                 (SG) (DLTA) (DLTA) (PI) (PI) (SG) (SG) (SG) (DLTA)
                 (DLTA) (PI) (PI) (SG) (?A) (?A) (?A) (?A) (PI)
                 (PI) (SG) (?B) (?B) (SG) (PI) (PI) (?B) (?B) (SG)
                 (SG) (PI) (PI) (SG) (PHI) (PHI) (DLTA) (DLTA)
                 (SG) (PI) (PI) (DLTA) (DLTA) (SG) (PI) (PI) (?A)
                 (?A) (?A) (?A) (SG) (DLTA) (DLTA) (SG) (PI) (PI)
                 (DLTA) (DLTA) (?C) (?C) (?C) (PHI) (PHI) (PI)
                 (PI) (SG) (PI) (PI) (DLTA) (DLTA) (SG) (SG) (PI)
                 (PI) (SG) (PHI) (PHI) (SG) (DLTA) (DLTA) (SG)
                 (DLTA) (DLTA) (PI) (PI) (SG) (PI) (PI) (?D) (?D)
                 (DLTA) (DLTA) (?D) (?D) (DLTA) (DLTA) (?D) (?D)
                 (SG) (PI) (PI) (SG) (?E) (?E) (PHI) (PHI) (DLTA)
                 (DLTA) (PI) (PI) (SG) (SG) (SG) (PI) (PI) (SG)
                 (DLTA) (DLTA) (SG) (PI) (PI) (SG) (PI) (PI) (PHI)
                 (PHI) (DLTA) (DLTA) (SG) (PI) (PI) (SG) (?E) (?E)
                 (?A) (?A) (DLTA) (DLTA) (?A) (?A) (SG) (SG) (DLTA)
                 (DLTA) (PI) (PI) (SG) (SG) (PI) (PI) (SG) (DLTA)
                 (DLTA) (PI) (PI) (SG) (PI) (PI) (SG) (SG) (DLTA)
                 (DLTA) (PI) (PI) (SG) (PI) (PI) (SG) (SG) (SG)
                 (DLTA) (DLTA) (PI) (PI) (SG) (PI) (PI) (SG) (SG)
                 (PI) (PI) (SG) (SG) (SG) (PI) (PI) (SG) (PI) (PI)
                 (SG) (SG) (SG) (DLTA) (DLTA) (PI) (PI) (PI) (PI)
                 (SG) (SG) (SG) (PI) (PI) (SG) (SG) (SG) (PI) (PI)
                 (SG) (SG) (PI) (PI) (SG) (SG) (SG) (PI) (PI) (SG)
                 (SG) (SG) (SG) (PI) (PI) (SG) (SG) (SG) (SG) (SG)
 Unable to determine electronic state:  partially filled degenerate orbitals.
 Alpha  occ. eigenvalues --   -4.41881  -3.00549  -2.91180  -2.91180  -1.32206
 Alpha  occ. eigenvalues --   -0.80532  -0.80532  -0.67085  -0.61041  -0.56767
 Alpha  occ. eigenvalues --   -0.41785  -0.41785  -0.29139
 Alpha virt. eigenvalues --    0.02371   0.02687   0.02687   0.03065   0.07445
 Alpha virt. eigenvalues --    0.08612   0.08612   0.09961   0.09992   0.10191
 Alpha virt. eigenvalues --    0.10191   0.11547   0.12091   0.18010   0.26607
 Alpha virt. eigenvalues --    0.26607   0.26962   0.27406   0.27406   0.33537
 Alpha virt. eigenvalues --    0.34566   0.34934   0.37896   0.37896   0.42066
 Alpha virt. eigenvalues --    0.47827   0.67940   0.71858   0.71990   0.79043
 Alpha virt. eigenvalues --    0.79043   0.88982   0.95141   0.95141   0.95761
 Alpha virt. eigenvalues --    0.95761   1.02071   1.02071   1.02700   1.09092
 Alpha virt. eigenvalues --    1.09808   1.14023   1.17761   1.17761   1.20509
 Alpha virt. eigenvalues --    1.21465   1.24980   1.55931   1.66086   1.66086
 Alpha virt. eigenvalues --    1.91091   2.10978   2.10978   2.12021   2.12240
 Alpha virt. eigenvalues --    2.29028   2.32065   2.32065   2.45817   2.46129
 Alpha virt. eigenvalues --    2.59353   2.72771   2.72771   2.85557   2.85557
 Alpha virt. eigenvalues --    2.94580   2.94580   2.95463   3.07819   3.09164
 Alpha virt. eigenvalues --    3.14808   3.23657   3.23657   3.34388   3.36808
 Alpha virt. eigenvalues --    3.46988   3.46990   3.50477   3.65896   3.65896
 Alpha virt. eigenvalues --    3.75611   3.75611   4.02270   4.09923   4.09923
 Alpha virt. eigenvalues --    4.24446   4.25415   4.74676   4.99688   5.24101
 Alpha virt. eigenvalues --    5.24101   6.01547   6.46994   6.46994   6.62445
 Alpha virt. eigenvalues --    6.73225   6.73459   6.76792   7.04585   7.04702
 Alpha virt. eigenvalues --    7.37261   7.37261   7.54441   7.56258   7.56258
 Alpha virt. eigenvalues --    7.64380   7.64380   7.70463   7.73369   7.78423
 Alpha virt. eigenvalues --    7.78423   7.81598   7.84428   8.00820   8.00820
 Alpha virt. eigenvalues --    8.48520   8.81321   8.81321   8.96838   9.92974
 Alpha virt. eigenvalues --    9.92981   9.97098   9.97098  10.20144  10.22376
 Alpha virt. eigenvalues --   10.47772  10.47772  10.63104  11.58201  14.02930
 Alpha virt. eigenvalues --   15.12746  15.12746  15.35544  15.50427  15.53905
 Alpha virt. eigenvalues --   15.76899  15.77105  15.77105  16.83876  18.91967
 Alpha virt. eigenvalues --   18.91967  20.51031  20.51031  20.55126  20.58025
 Alpha virt. eigenvalues --   20.88723  20.91440  20.91440  21.76411  26.10448
 Alpha virt. eigenvalues --   26.10448  26.11227  26.11253  26.21091  26.23861
 Alpha virt. eigenvalues --   26.30957  26.30957  26.62940  28.66395  28.68904
 Alpha virt. eigenvalues --   28.72747  28.90812  28.90812  28.92988  38.32561
 Alpha virt. eigenvalues --   38.50800  38.50800  41.35827  43.65141  43.65144
 Alpha virt. eigenvalues --   43.79925  43.79925  44.65667  45.78776  45.78776
 Alpha virt. eigenvalues --   47.07483  52.28900  52.30461  52.34049  52.51012
 Alpha virt. eigenvalues --   52.51012  58.27569  74.09909  74.09909  74.56048
 Alpha virt. eigenvalues --   77.86356 115.40893 115.67521 115.69705 115.81550
 Alpha virt. eigenvalues --  115.81550 116.97755 119.13288 119.13288 120.06612
 Alpha virt. eigenvalues --  136.85195 141.03597 141.03597 144.83561 210.70499
 Alpha virt. eigenvalues --  257.62000 268.58171 268.58171 272.04790 286.39651
 Alpha virt. eigenvalues --  286.39651 287.28888 374.82163 400.50888 400.62787
 Alpha virt. eigenvalues --  400.63337 400.73487 400.73487 523.17970 523.17970
 Alpha virt. eigenvalues --  526.49946 555.14875 706.931791066.888641066.88864
 Alpha virt. eigenvalues -- 1069.959521413.114831529.657402333.634602333.63460
 Alpha virt. eigenvalues -- 2336.392223001.545195634.821595634.821595637.20292
 Alpha virt. eigenvalues -- 5659.811856786.73716******************************
 Alpha virt. eigenvalues -- **************************************************
 Alpha virt. eigenvalues -- **************************************************
     Molecular Orbital Coefficients:
                           5         6         7         8         9
                           O         O         O         O         O
     Eigenvalues --    -1.32206  -0.80532  -0.80532  -0.67085  -0.61041
   1 1   Fe 1S          0.00000   0.00000   0.00000   0.00000   0.00000
   2        2S         -0.00000   0.00000   0.00000  -0.00000   0.00000
   3        3S          0.00000   0.00000   0.00000   0.00000   0.00000
   4        4S         -0.00000   0.00000   0.00000  -0.00000   0.00000
   5        5S          0.00000   0.00000   0.00000   0.00000   0.00000
   6        6S         -0.00001   0.00000   0.00000  -0.00000   0.00000
   7        7S          0.00002   0.00000   0.00000   0.00001   0.00000
   8        8S         -0.00007   0.00000   0.00000  -0.00005   0.00000
   9        9S          0.00023   0.00000   0.00000   0.00014   0.00000
  10       10S         -0.00067   0.00000   0.00000  -0.00043   0.00000
  11       11S          0.00212   0.00000   0.00000   0.00132   0.00000
  12       12S         -0.00756   0.00000   0.00000  -0.00467   0.00000
  13       13S         -0.00097   0.00000   0.00000   0.00066   0.00000
  14       14S          0.09220   0.00000   0.00000   0.04813   0.00000
  15       15S          0.01201   0.00000   0.00000  -0.00020   0.00000
  16       16S         -0.23209   0.00000   0.00000  -0.17575   0.00000
  17       17S         -0.14875   0.00000   0.00000  -0.11505   0.00000
  18       18S         -0.01066   0.00000   0.00000   0.02324   0.00000
  19       19S         -0.00033   0.00000   0.00000  -0.02000   0.00000
  20       20S         -0.00711   0.00000   0.00000   0.01182   0.00000
  21       21S         -0.04024   0.00000   0.00000  -0.01199   0.00000
  22       22S          0.09694   0.00000   0.00000   0.11070   0.00000
  23       23S          0.00149   0.00000   0.00000  -0.00118   0.00000
  24       24PX         0.00000   0.00000  -0.00000   0.00000   0.00000
  25       24PY         0.00000  -0.00000   0.00000   0.00000   0.00000
  26       24PZ         0.00000   0.00000   0.00000  -0.00000   0.00000
  27       25PX         0.00000   0.00000   0.00000   0.00000   0.00000
  28       25PY         0.00000   0.00000   0.00000   0.00000   0.00000
  29       25PZ        -0.00000   0.00000   0.00000   0.00000   0.00000
  30       26PX         0.00000   0.00000  -0.00000   0.00000   0.00000
  31       26PY         0.00000  -0.00000   0.00000   0.00000   0.00000
  32       26PZ         0.00000   0.00000   0.00000  -0.00000   0.00000
  33       27PX         0.00000   0.00000   0.00001   0.00000   0.00000
  34       27PY         0.00000   0.00001   0.00000   0.00000   0.00000
  35       27PZ        -0.00001   0.00000   0.00000   0.00001   0.00000
  36       28PX         0.00000   0.00000  -0.00003   0.00000   0.00000
  37       28PY         0.00000  -0.00003   0.00000   0.00000   0.00000
  38       28PZ         0.00005   0.00000   0.00000  -0.00003   0.00000
  39       29PX         0.00000   0.00000   0.00011   0.00000   0.00000
  40       29PY         0.00000   0.00011   0.00000   0.00000   0.00000
  41       29PZ        -0.00020   0.00000   0.00000   0.00008   0.00000
  42       30PX         0.00000   0.00000  -0.00053   0.00000   0.00000
  43       30PY         0.00000  -0.00053   0.00000   0.00000   0.00000
  44       30PZ         0.00103   0.00000   0.00000  -0.00006   0.00000
  45       31PX         0.00000   0.00000   0.00092   0.00000   0.00000
  46       31PY         0.00000   0.00092   0.00000   0.00000   0.00000
  47       31PZ        -0.00152   0.00000   0.00000   0.00109   0.00000
  48       32PX         0.00000   0.00000   0.01202   0.00000   0.00000
  49       32PY         0.00000   0.01202   0.00000   0.00000   0.00000
  50       32PZ        -0.02856   0.00000   0.00000  -0.02203   0.00000
  51       33PX         0.00000   0.00000  -0.00026   0.00000   0.00000
  52       33PY         0.00000  -0.00026   0.00000   0.00000   0.00000
  53       33PZ        -0.03053   0.00000   0.00000  -0.11716   0.00000
  54       34PX         0.00000   0.00000  -0.05164   0.00000   0.00000
  55       34PY         0.00000  -0.05164   0.00000   0.00000   0.00000
  56       34PZ         0.12370   0.00000   0.00000   0.09157   0.00000
  57       35PX         0.00000   0.00000  -0.04820   0.00000   0.00000
  58       35PY         0.00000  -0.04820   0.00000   0.00000   0.00000
  59       35PZ         0.15671   0.00000   0.00000   0.17743   0.00000
  60       36PX         0.00000   0.00000  -0.04382   0.00000   0.00000
  61       36PY         0.00000  -0.04382   0.00000   0.00000   0.00000
  62       36PZ         0.10848   0.00000   0.00000   0.06340   0.00000
  63       37PX         0.00000   0.00000   0.01985   0.00000   0.00000
  64       37PY         0.00000   0.01985   0.00000   0.00000   0.00000
  65       37PZ         0.00643   0.00000   0.00000  -0.01872   0.00000
  66       38PX         0.00000   0.00000   0.03058   0.00000   0.00000
  67       38PY         0.00000   0.03058   0.00000   0.00000   0.00000
  68       38PZ        -0.00007   0.00000   0.00000   0.01479   0.00000
  69       39PX         0.00000   0.00000   0.00671   0.00000   0.00000
  70       39PY         0.00000   0.00671   0.00000   0.00000   0.00000
  71       39PZ         0.00211   0.00000   0.00000   0.00222   0.00000
  72       40PX         0.00000   0.00000  -0.00521   0.00000   0.00000
  73       40PY         0.00000  -0.00521   0.00000   0.00000   0.00000
  74       40PZ         0.03912   0.00000   0.00000   0.11446   0.00000
  75       41PX         0.00000   0.00000  -0.02543   0.00000   0.00000
  76       41PY         0.00000  -0.02543   0.00000   0.00000   0.00000
  77       41PZ        -0.01193   0.00000   0.00000  -0.12819   0.00000
  78       42PX         0.00000   0.00000  -0.00138   0.00000   0.00000
  79       42PY         0.00000  -0.00138   0.00000   0.00000   0.00000
  80       42PZ        -0.00034   0.00000   0.00000  -0.00098   0.00000
  81       43D 0        0.00006   0.00000   0.00000   0.00014   0.00000
  82       43D+1        0.00000   0.00000  -0.00008   0.00000   0.00000
  83       43D-1        0.00000  -0.00008   0.00000   0.00000   0.00000
  84       43D+2       -0.00000   0.00000   0.00000   0.00000   0.00000
  85       43D-2        0.00000   0.00000   0.00000   0.00000   0.00025
  86       44D 0        0.00660   0.00000   0.00000   0.01571   0.00000
  87       44D+1        0.00000   0.00000  -0.00844   0.00000   0.00000
  88       44D-1        0.00000  -0.00844   0.00000   0.00000   0.00000
  89       44D+2        0.00000   0.00000   0.00000   0.00000   0.00000
  90       44D-2        0.00000   0.00000   0.00000   0.00000   0.02646
  91       45D 0        0.02530   0.00000   0.00000   0.06022   0.00000
  92       45D+1        0.00000   0.00000  -0.03246   0.00000   0.00000
  93       45D-1        0.00000  -0.03246   0.00000   0.00000   0.00000
  94       45D+2        0.00000   0.00000   0.00000   0.00000   0.00000
  95       45D-2        0.00000   0.00000   0.00000   0.00000   0.10202
  96       46D 0        0.04616   0.00000   0.00000   0.11358   0.00000
  97       46D+1        0.00000   0.00000  -0.05933   0.00000   0.00000
  98       46D-1        0.00000  -0.05933   0.00000   0.00000   0.00000
  99       46D+2        0.00000   0.00000   0.00000  -0.00000   0.00000
 100       46D-2        0.00000   0.00000   0.00000   0.00000   0.19768
 101       47D 0        0.24555   0.00000   0.00000   0.57455   0.00000
 102       47D+1        0.00000   0.00000  -0.19963   0.00000   0.00000
 103       47D-1        0.00000  -0.19963   0.00000   0.00000   0.00000
 104       47D+2        0.00000   0.00000   0.00000   0.00000   0.00000
 105       47D-2        0.00000   0.00000   0.00000   0.00000   0.49604
 106       48D 0        0.08830   0.00000   0.00000   0.21471   0.00000
 107       48D+1        0.00000   0.00000  -0.13033   0.00000   0.00000
 108       48D-1        0.00000  -0.13033   0.00000   0.00000   0.00000
 109       48D+2        0.00000   0.00000   0.00000   0.00000   0.00000
 110       48D-2        0.00000   0.00000   0.00000   0.00000   0.36343
 111       49D 0        0.05135   0.00000   0.00000   0.14787   0.00000
 112       49D+1        0.00000   0.00000  -0.08015   0.00000   0.00000
 113       49D-1        0.00000  -0.08015   0.00000   0.00000   0.00000
 114       49D+2        0.00000   0.00000   0.00000   0.00000   0.00000
 115       49D-2        0.00000   0.00000   0.00000   0.00000   0.23401
 116       50D 0        0.00082   0.00000   0.00000   0.01549   0.00000
 117       50D+1        0.00000   0.00000  -0.00201   0.00000   0.00000
 118       50D-1        0.00000  -0.00201   0.00000   0.00000   0.00000
 119       50D+2       -0.00000   0.00000   0.00000  -0.00000   0.00000
 120       50D-2        0.00000   0.00000   0.00000   0.00000   0.05239
 121       51D 0        0.01548   0.00000   0.00000   0.03333   0.00000
 122       51D+1        0.00000   0.00000  -0.01915   0.00000   0.00000
 123       51D-1        0.00000  -0.01915   0.00000   0.00000   0.00000
 124       51D+2        0.00000   0.00000   0.00000   0.00000   0.00000
 125       51D-2        0.00000   0.00000   0.00000   0.00000   0.04570
 126       52D 0       -0.15341   0.00000   0.00000  -0.35587   0.00000
 127       52D+1        0.00000   0.00000   0.08595   0.00000   0.00000
 128       52D-1        0.00000   0.08595   0.00000   0.00000   0.00000
 129       52D+2       -0.00000   0.00000   0.00000  -0.00000   0.00000
 130       52D-2        0.00000   0.00000   0.00000   0.00000  -0.14489
 131       53D 0        0.00017   0.00000   0.00000  -0.00083   0.00000
 132       53D+1        0.00000   0.00000  -0.00163   0.00000   0.00000
 133       53D-1        0.00000  -0.00163   0.00000   0.00000   0.00000
 134       53D+2        0.00000   0.00000   0.00000   0.00000   0.00000
 135       53D-2        0.00000   0.00000   0.00000   0.00000  -0.00263
 136       54F 0       -0.00092   0.00000   0.00000  -0.00127   0.00000
 137       54F+1        0.00000   0.00000   0.00120   0.00000   0.00000
 138       54F-1        0.00000   0.00120   0.00000   0.00000   0.00000
 139       54F+2       -0.00000   0.00000   0.00000  -0.00000   0.00000
 140       54F-2        0.00000   0.00000   0.00000   0.00000  -0.00087
 141       54F+3        0.00000   0.00000   0.00012   0.00000   0.00000
 142       54F-3        0.00000  -0.00012   0.00000   0.00000   0.00000
 143       55F 0       -0.00675   0.00000   0.00000  -0.01221   0.00000
 144       55F+1        0.00000   0.00000   0.00779   0.00000   0.00000
 145       55F-1        0.00000   0.00779   0.00000   0.00000   0.00000
 146       55F+2       -0.00000   0.00000   0.00000  -0.00000   0.00000
 147       55F-2        0.00000   0.00000   0.00000   0.00000  -0.00261
 148       55F+3        0.00000   0.00000   0.00014   0.00000   0.00000
 149       55F-3        0.00000  -0.00014   0.00000   0.00000   0.00000
 150       56F 0       -0.01061   0.00000   0.00000  -0.01831   0.00000
 151       56F+1        0.00000   0.00000   0.01979   0.00000   0.00000
 152       56F-1        0.00000   0.01979   0.00000   0.00000   0.00000
 153       56F+2       -0.00000   0.00000   0.00000  -0.00000   0.00000
 154       56F-2        0.00000   0.00000   0.00000   0.00000  -0.00439
 155       56F+3        0.00000   0.00000   0.00007   0.00000   0.00000
 156       56F-3        0.00000  -0.00007   0.00000   0.00000   0.00000
 157       57F 0       -0.00875   0.00000   0.00000  -0.01157   0.00000
 158       57F+1        0.00000   0.00000   0.01136   0.00000   0.00000
 159       57F-1        0.00000   0.01136   0.00000   0.00000   0.00000
 160       57F+2       -0.00000   0.00000   0.00000   0.00000   0.00000
 161       57F-2        0.00000   0.00000   0.00000   0.00000   0.00140
 162       57F+3        0.00000   0.00000  -0.00014   0.00000   0.00000
 163       57F-3        0.00000   0.00014   0.00000   0.00000   0.00000
 164       58G 0        0.00024   0.00000   0.00000   0.00050   0.00000
 165       58G+1        0.00000   0.00000  -0.00015   0.00000   0.00000
 166       58G-1        0.00000  -0.00015   0.00000   0.00000   0.00000
 167       58G+2       -0.00000   0.00000   0.00000  -0.00000   0.00000
 168       58G-2        0.00000   0.00000   0.00000   0.00000   0.00056
 169       58G+3        0.00000   0.00000   0.00003   0.00000   0.00000
 170       58G-3        0.00000  -0.00003   0.00000   0.00000   0.00000
 171       58G+4        0.00004   0.00000   0.00000   0.00008   0.00000
 172       58G-4        0.00000   0.00000   0.00000   0.00000   0.00000
 173       59G 0        0.00256   0.00000   0.00000   0.00581   0.00000
 174       59G+1        0.00000   0.00000  -0.00412   0.00000   0.00000
 175       59G-1        0.00000  -0.00412   0.00000   0.00000   0.00000
 176       59G+2        0.00000   0.00000   0.00000   0.00000   0.00000
 177       59G-2        0.00000   0.00000   0.00000   0.00000   0.00186
 178       59G+3        0.00000   0.00000   0.00008   0.00000   0.00000
 179       59G-3        0.00000  -0.00008   0.00000   0.00000   0.00000
 180       59G+4        0.00006   0.00000   0.00000   0.00015   0.00000
 181       59G-4        0.00000   0.00000   0.00000   0.00000  -0.00000
 182       60G 0        0.00247   0.00000   0.00000   0.00611   0.00000
 183       60G+1        0.00000   0.00000  -0.00490   0.00000   0.00000
 184       60G-1        0.00000  -0.00490   0.00000   0.00000   0.00000
 185       60G+2       -0.00000   0.00000   0.00000  -0.00000   0.00000
 186       60G-2        0.00000   0.00000   0.00000   0.00000   0.00247
 187       60G+3        0.00000   0.00000   0.00015   0.00000   0.00000
 188       60G-3        0.00000  -0.00015   0.00000   0.00000   0.00000
 189       60G+4        0.00020   0.00000   0.00000   0.00040   0.00000
 190       60G-4        0.00000   0.00000   0.00000   0.00000  -0.00000
 191 2   O  1S         -0.00000   0.00000   0.00000  -0.00000   0.00000
 192        2S          0.00001   0.00000   0.00000   0.00000   0.00000
 193        3S         -0.00005   0.00000   0.00000  -0.00000   0.00000
 194        4S          0.00033   0.00000   0.00000   0.00001   0.00000
 195        5S         -0.00344   0.00000   0.00000   0.00000   0.00000
 196        6S         -0.05263   0.00000   0.00000  -0.00418   0.00000
 197        7S         -0.16866   0.00000   0.00000   0.00307   0.00000
 198        8S          0.55618   0.00000   0.00000  -0.12417   0.00000
 199        9S          0.15187   0.00000   0.00000  -0.01411   0.00000
 200       10S          0.36484   0.00000   0.00000  -0.23724   0.00000
 201       11S          0.00297   0.00000   0.00000   0.02485   0.00000
 202       12S          0.04992   0.00000   0.00000   0.00024   0.00000
 203       13S          0.03195   0.00000   0.00000  -0.03618   0.00000
 204       14PX         0.00000   0.00000   0.00754   0.00000   0.00000
 205       14PY         0.00000   0.00754   0.00000   0.00000   0.00000
 206       14PZ         0.00062   0.00000   0.00000   0.00633   0.00000
 207       15PX         0.00000   0.00000   0.07964   0.00000   0.00000
 208       15PY         0.00000   0.07964   0.00000   0.00000   0.00000
 209       15PZ         0.00732   0.00000   0.00000   0.07066   0.00000
 210       16PX         0.00000   0.00000   0.25935   0.00000   0.00000
 211       16PY         0.00000   0.25935   0.00000   0.00000   0.00000
 212       16PZ         0.02430   0.00000   0.00000   0.24237   0.00000
 213       17PX         0.00000   0.00000   0.41603   0.00000   0.00000
 214       17PY         0.00000   0.41603   0.00000   0.00000   0.00000
 215       17PZ         0.05515   0.00000   0.00000   0.35572   0.00000
 216       18PX         0.00000   0.00000   0.27051   0.00000   0.00000
 217       18PY         0.00000   0.27051   0.00000   0.00000   0.00000
 218       18PZ         0.04862   0.00000   0.00000   0.18617   0.00000
 219       19PX         0.00000   0.00000   0.00499   0.00000   0.00000
 220       19PY         0.00000   0.00499   0.00000   0.00000   0.00000
 221       19PZ         0.00088   0.00000   0.00000   0.00599   0.00000
 222       20PX         0.00000   0.00000  -0.00197   0.00000   0.00000
[...]
  43       30PY         0.00048   0.00024   0.00024   0.00000
  44       30PZ         0.00049   0.00024   0.00024   0.00000
  45       31PX        -0.00237  -0.00120  -0.00117  -0.00003
  46       31PY        -0.00237  -0.00120  -0.00117  -0.00003
  47       31PZ        -0.00246  -0.00123  -0.00123  -0.00000
  48       32PX        -0.04877  -0.02452  -0.02425  -0.00026
  49       32PY        -0.04877  -0.02452  -0.02425  -0.00026
  50       32PZ        -0.04754  -0.02380  -0.02374  -0.00006
  51       33PX         0.09303   0.04769   0.04534   0.00235
  52       33PY         0.09303   0.04769   0.04534   0.00235
  53       33PZ         0.11985   0.05979   0.06006  -0.00027
  54       34PX         0.55998   0.28133   0.27866   0.00267
  55       34PY         0.55998   0.28133   0.27866   0.00267
  56       34PZ         0.54505   0.27276   0.27229   0.00047
  57       35PX         0.48696   0.24347   0.24349  -0.00003
  58       35PY         0.48696   0.24347   0.24349  -0.00003
  59       35PZ         0.46585   0.23301   0.23284   0.00017
  60       36PX         0.48840   0.24251   0.24589  -0.00338
  61       36PY         0.48840   0.24251   0.24589  -0.00338
  62       36PZ         0.45196   0.22557   0.22639  -0.00082
  63       37PX         0.08205   0.05634   0.02572   0.03062
  64       37PY         0.08205   0.05634   0.02572   0.03062
  65       37PZ         0.03717   0.02151   0.01566   0.00585
  66       38PX         0.06292   0.05361   0.00930   0.04431
  67       38PY         0.06292   0.05361   0.00930   0.04431
  68       38PZ         0.05545   0.05432   0.00113   0.05319
  69       39PX         0.00151   0.00011   0.00140  -0.00129
  70       39PY         0.00151   0.00011   0.00140  -0.00129
  71       39PZ         0.02132   0.02144  -0.00012   0.02156
  72       40PX        -0.04865  -0.02522  -0.02343  -0.00179
  73       40PY        -0.04865  -0.02522  -0.02343  -0.00179
  74       40PZ        -0.07225  -0.03599  -0.03627   0.00028
  75       41PX         0.43643   0.21940   0.21703   0.00237
  76       41PY         0.43643   0.21940   0.21703   0.00237
  77       41PZ         0.46467   0.23235   0.23232   0.00003
  78       42PX        -0.00012   0.00001  -0.00012   0.00013
  79       42PY        -0.00012   0.00001  -0.00012   0.00013
  80       42PZ        -0.00039  -0.00032  -0.00006  -0.00026
  81       43D 0        0.00001   0.00000   0.00000   0.00000
  82       43D+1        0.00001   0.00001   0.00000   0.00001
  83       43D-1        0.00001   0.00001   0.00000   0.00001
  84       43D+2        0.00001   0.00001   0.00000   0.00001
  85       43D-2        0.00002   0.00001   0.00001   0.00000
  86       44D 0        0.00423   0.00222   0.00202   0.00020
  87       44D+1        0.00542   0.00492   0.00050   0.00442
  88       44D-1        0.00542   0.00492   0.00050   0.00442
  89       44D+2        0.00495   0.00495  -0.00000   0.00495
  90       44D-2        0.00962   0.00481   0.00481   0.00000
  91       45D 0        0.03820   0.02001   0.01818   0.00183
  92       45D+1        0.04871   0.04418   0.00452   0.03966
  93       45D-1        0.04871   0.04418   0.00452   0.03966
  94       45D+2        0.04429   0.04429   0.00000   0.04429
  95       45D-2        0.08603   0.04301   0.04301   0.00000
  96       46D 0        0.12210   0.06386   0.05823   0.00563
  97       46D+1        0.14296   0.12870   0.01426   0.11444
  98       46D-1        0.14296   0.12870   0.01426   0.11444
  99       46D+2        0.14005   0.14005   0.00000   0.14005
 100       46D-2        0.27401   0.13701   0.13701   0.00000
 101       47D 0        0.86580   0.44419   0.42161   0.02259
 102       47D+1        0.68470   0.61327   0.07143   0.54183
 103       47D-1        0.68470   0.61327   0.07143   0.54183
 104       47D+2        0.45858   0.45858   0.00000   0.45858
 105       47D-2        0.86899   0.43450   0.43450   0.00000
 106       48D 0        0.36400   0.18942   0.17458   0.01484
 107       48D+1        0.35984   0.29429   0.06555   0.22875
 108       48D-1        0.35984   0.29429   0.06555   0.22875
 109       48D+2        0.31176   0.31176  -0.00000   0.31176
 110       48D-2        0.62401   0.31200   0.31200   0.00000
 111       49D 0        0.13523   0.07329   0.06194   0.01134
 112       49D+1        0.15622   0.10776   0.04846   0.05929
 113       49D-1        0.15622   0.10776   0.04846   0.05929
 114       49D+2        0.13258   0.13258  -0.00000   0.13258
 115       49D-2        0.28902   0.14451   0.14451   0.00000
 116       50D 0        0.00199   0.00388  -0.00189   0.00576
 117       50D+1        0.00286   0.00210   0.00076   0.00133
 118       50D-1        0.00286   0.00210   0.00076   0.00133
 119       50D+2        0.01096   0.01096   0.00000   0.01096
 120       50D-2        0.02933   0.01466   0.01466   0.00000
 121       51D 0        0.03864   0.02021   0.01843   0.00179
 122       51D+1        0.05426   0.04933   0.00493   0.04440
 123       51D-1        0.05426   0.04933   0.00493   0.04440
 124       51D+2        0.03563   0.03563   0.00000   0.03563
 125       51D-2        0.06583   0.03292   0.03292   0.00000
 126       52D 0       -0.53314  -0.27113  -0.26201  -0.00912
 127       52D+1       -0.33178  -0.30079  -0.03099  -0.26980
 128       52D-1       -0.33178  -0.30079  -0.03099  -0.26980
 129       52D+2       -0.14126  -0.14126  -0.00000  -0.14126
 130       52D-2       -0.25305  -0.12652  -0.12652   0.00000
 131       53D 0        0.00047   0.00039   0.00008   0.00030
 132       53D+1        0.00032   0.00012   0.00020  -0.00008
 133       53D-1        0.00032   0.00012   0.00020  -0.00008
 134       53D+2       -0.00018  -0.00018   0.00000  -0.00018
 135       53D-2       -0.00042  -0.00021  -0.00021   0.00000
 136       54F 0        0.00008   0.00004   0.00004   0.00000
 137       54F+1        0.00004   0.00002   0.00002  -0.00000
 138       54F-1        0.00004   0.00002   0.00002  -0.00000
 139       54F+2        0.00000   0.00000  -0.00000   0.00000
 140       54F-2        0.00001   0.00000   0.00000   0.00000
 141       54F+3        0.00001   0.00000   0.00000   0.00000
 142       54F-3        0.00001   0.00000   0.00000   0.00000
 143       55F 0        0.00276   0.00139   0.00138   0.00001
 144       55F+1        0.00104   0.00050   0.00055  -0.00005
 145       55F-1        0.00104   0.00050   0.00055  -0.00005
 146       55F+2        0.00002   0.00002  -0.00000   0.00002
 147       55F-2        0.00003   0.00002   0.00002   0.00000
 148       55F+3        0.00003   0.00001   0.00001   0.00000
 149       55F-3        0.00003   0.00001   0.00001   0.00000
 150       56F 0        0.00863   0.00432   0.00430   0.00002
 151       56F+1        0.01180   0.00629   0.00551   0.00078
 152       56F-1        0.01180   0.00629   0.00551   0.00078
 153       56F+2        0.00001   0.00001  -0.00000   0.00001
 154       56F-2        0.00009   0.00005   0.00005   0.00000
 155       56F+3        0.00003   0.00002   0.00002   0.00000
 156       56F-3        0.00003   0.00002   0.00002   0.00000
 157       57F 0       -0.00017  -0.00055   0.00037  -0.00092
 158       57F+1        0.01272   0.00820   0.00451   0.00369
 159       57F-1        0.01272   0.00820   0.00451   0.00369
 160       57F+2       -0.00002  -0.00002   0.00000  -0.00002
 161       57F-2       -0.00002  -0.00001  -0.00001   0.00000
 162       57F+3        0.00000   0.00000   0.00000   0.00000
 163       57F-3        0.00000   0.00000   0.00000   0.00000
 164       58G 0        0.00001   0.00001   0.00001   0.00000
 165       58G+1        0.00000   0.00000   0.00000   0.00000
 166       58G-1        0.00000   0.00000   0.00000   0.00000
 167       58G+2        0.00000   0.00000  -0.00000   0.00000
 168       58G-2        0.00000   0.00000   0.00000   0.00000
 169       58G+3        0.00000   0.00000   0.00000   0.00000
 170       58G-3        0.00000   0.00000   0.00000   0.00000
 171       58G+4        0.00000   0.00000   0.00000  -0.00000
 172       58G-4       -0.00000  -0.00000  -0.00000   0.00000
 173       59G 0        0.00083   0.00042   0.00042  -0.00000
 174       59G+1        0.00043   0.00020   0.00023  -0.00003
 175       59G-1        0.00043   0.00020   0.00023  -0.00003
 176       59G+2        0.00002   0.00002   0.00000   0.00002
 177       59G-2        0.00002   0.00001   0.00001   0.00000
 178       59G+3        0.00000   0.00000   0.00000   0.00000
 179       59G-3        0.00000   0.00000   0.00000   0.00000
 180       59G+4        0.00000   0.00000   0.00000   0.00000
 181       59G-4       -0.00000  -0.00000  -0.00000   0.00000
 182       60G 0        0.00116   0.00059   0.00057   0.00002
 183       60G+1        0.00256   0.00134   0.00122   0.00012
 184       60G-1        0.00256   0.00134   0.00122   0.00012
 185       60G+2        0.00003   0.00003   0.00000   0.00003
 186       60G-2        0.00005   0.00002   0.00002   0.00000
 187       60G+3        0.00000   0.00000   0.00000   0.00000
 188       60G-3        0.00000   0.00000   0.00000   0.00000
 189       60G+4        0.00000   0.00000   0.00000   0.00000
 190       60G-4        0.00000   0.00000   0.00000   0.00000
 191 2   O  1S         -0.00000  -0.00000  -0.00000  -0.00000
 192        2S          0.00000   0.00000   0.00000   0.00000
 193        3S         -0.00000  -0.00000  -0.00000  -0.00000
 194        4S          0.00001   0.00000   0.00000   0.00000
 195        5S         -0.00025  -0.00013  -0.00013  -0.00000
 196        6S         -0.01205  -0.00605  -0.00600  -0.00005
 197        7S         -0.10755  -0.05398  -0.05357  -0.00041
 198        8S          1.08874   0.54531   0.54342   0.00189
 199        9S          0.23201   0.11641   0.11559   0.00082
 200       10S          0.73469   0.36008   0.37461  -0.01454
 201       11S          0.00138   0.00072   0.00066   0.00007
 202       12S          0.00890   0.00447   0.00443   0.00003
 203       13S          0.01346  -0.01815   0.03161  -0.04975
 204       14PX         0.00191   0.00103   0.00087   0.00016
 205       14PY         0.00191   0.00103   0.00087   0.00016
 206       14PZ         0.00143   0.00073   0.00070   0.00004
 207       15PX         0.06508   0.03508   0.03001   0.00507
 208       15PY         0.06508   0.03508   0.03001   0.00507
 209       15PZ         0.05238   0.02677   0.02561   0.00116
 210       16PX         0.38881   0.20763   0.18118   0.02645
 211       16PY         0.38881   0.20763   0.18118   0.02645
 212       16PZ         0.33596   0.17120   0.16476   0.00645
 213       17PX         0.78665   0.41573   0.37092   0.04481
 214       17PY         0.78665   0.41573   0.37092   0.04481
 215       17PZ         0.54668   0.28096   0.26571   0.01525
 216       18PX         0.44131   0.24841   0.19290   0.05551
 217       18PY         0.44131   0.24841   0.19290   0.05551
 218       18PZ         0.15853   0.09295   0.06558   0.02737
 219       19PX         0.00246   0.00129   0.00117   0.00012
 220       19PY         0.00246   0.00129   0.00117   0.00012
 221       19PZ         0.00284   0.00144   0.00140   0.00003
 222       20PX        -0.00030  -0.00016  -0.00014  -0.00003
 223       20PY        -0.00030  -0.00016  -0.00014  -0.00003
 224       20PZ        -0.00022  -0.00011  -0.00011  -0.00001
 225       21PX         0.03105   0.02461   0.00644   0.01817
 226       21PY         0.03105   0.02461   0.00644   0.01817
 227       21PZ         0.00937   0.00696   0.00241   0.00455
 228       22D 0        0.00524   0.00271   0.00253   0.00018
 229       22D+1        0.00264   0.00169   0.00096   0.00073
 230       22D-1        0.00264   0.00169   0.00096   0.00073
 231       22D+2        0.00013   0.00013  -0.00000   0.00013
 232       22D-2        0.00031   0.00015   0.00015   0.00000
 233       23D 0        0.00748   0.00419   0.00329   0.00089
 234       23D+1        0.01377   0.00860   0.00517   0.00343
 235       23D-1        0.01377   0.00860   0.00517   0.00343
 236       23D+2        0.00146   0.00146  -0.00000   0.00146
 237       23D-2        0.00344   0.00172   0.00172   0.00000
 238       24D 0        0.00002   0.00001   0.00001   0.00000
 239       24D+1        0.00001   0.00001   0.00000   0.00000
 240       24D-1        0.00001   0.00001   0.00000   0.00000
 241       24D+2        0.00000   0.00000   0.00000   0.00000
 242       24D-2        0.00000   0.00000   0.00000   0.00000
 243       25D 0       -0.00297  -0.00150  -0.00147  -0.00003
 244       25D+1        0.00010   0.00002   0.00008  -0.00006
 245       25D-1        0.00010   0.00002   0.00008  -0.00006
 246       25D+2        0.00046   0.00046  -0.00000   0.00046
 247       25D-2        0.00146   0.00073   0.00073   0.00000
 248       26F 0        0.00303   0.00158   0.00145   0.00013
 249       26F+1        0.00221   0.00147   0.00074   0.00072
 250       26F-1        0.00221   0.00147   0.00074   0.00072
 251       26F+2        0.00027   0.00027  -0.00000   0.00027
 252       26F-2        0.00059   0.00029   0.00029   0.00000
 253       26F+3        0.00000   0.00000   0.00000  -0.00000
 254       26F-3        0.00000   0.00000   0.00000  -0.00000
 255       27F 0       -0.00103  -0.00051  -0.00052   0.00002
 256       27F+1        0.00028   0.00037  -0.00009   0.00046
 257       27F-1        0.00028   0.00037  -0.00009   0.00046
 258       27F+2        0.00023   0.00023   0.00000   0.00023
 259       27F-2        0.00063   0.00032   0.00032   0.00000
 260       27F+3        0.00000   0.00000   0.00000   0.00000
 261       27F-3        0.00000   0.00000   0.00000   0.00000
          Condensed to atoms (all electrons):
               1          2
     1  Fe  15.392815   0.048136
     2  O    0.048136   6.510913
          Atomic-Atomic Spin Densities.
               1          2
     1  Fe   3.893259  -0.201023
     2  O   -0.201023   0.508786
 Mulliken charges and spin densities:
               1          2
     1  Fe   0.559049   3.692236
     2  O   -0.559049   0.307764
 Sum of Mulliken charges =  -0.00000   4.00000
 Mulliken charges and spin densities with hydrogens summed into heavy atoms:
               1          2
     1  Fe   0.559049   3.692236
     2  O   -0.559049   0.307764
 Electronic spatial extent (au):  <R**2>=             67.6301
 Charge=             -0.0000 electrons
 Dipole moment (field-independent basis, Debye):
    X=              0.0000    Y=              0.0000    Z=              1.4838  Tot=              1.4838
 Quadrupole moment (field-independent basis, Debye-Ang):
   XX=            -19.5979   YY=            -19.5979   ZZ=            -21.3743
   XY=              0.0000   XZ=              0.0000   YZ=              0.0000
 Traceless Quadrupole moment (field-independent basis, Debye-Ang):
   XX=              0.5921   YY=              0.5921   ZZ=             -1.1843
   XY=              0.0000   XZ=              0.0000   YZ=              0.0000
 Octapole moment (field-independent basis, Debye-Ang**2):
  XXX=              0.0000  YYY=              0.0000  ZZZ=              0.1248  XYY=              0.0000
  XXY=              0.0000  XXZ=             -0.4540  XZZ=              0.0000  YZZ=              0.0000
  YYZ=             -0.4540  XYZ=              0.0000
 Hexadecapole moment (field-independent basis, Debye-Ang**3):
 XXXX=            -27.4421 YYYY=            -27.4421 ZZZZ=            -65.7939 XXXY=              0.0000
 XXXZ=              0.0000 YYYX=              0.0000 YYYZ=              0.0000 ZZZX=              0.0000
 ZZZY=              0.0000 XXYY=             -9.3563 XXZZ=            -16.1931 YYZZ=            -16.1931
 XXYZ=              0.0000 YYXZ=              0.0000 ZZXY=              0.0000
 N-N= 4.233417687360D+01 E-N=-4.110692229028D+02  KE= 8.517385385239D+01
 Symmetry A1   KE= 3.175977188328D+01
 Symmetry A2   KE= 1.378833470259D+01
 Symmetry B1   KE= 1.981287363358D+01
 Symmetry B2   KE= 1.981287363282D+01
 Symmetry A1   SP= 2.000000000000D+00
 Symmetry A2   SP= 0.000000000000D+00
 Symmetry B1   SP= 1.000000000000D+00
 Symmetry B2   SP= 1.000000000000D+00
 Orbital energies and kinetic energies (alpha):
                                 1                 2
   5         O                -1.322063          1.864644
   6         O                -0.805322          2.762020
   7         O                -0.805322          2.762020
   8         O                -0.670846          4.278973
   9         O                -0.610411          6.894167
  10         O                -0.567674          7.080913
  11         O                -0.417852          0.771100
  12         O                -0.417852          6.612932
  13         O                -0.291390          6.612932
  14         V                 0.023709          0.081971
  15         V                 0.026866          0.075601
  16         V                 0.026866          0.075601
  17         V                 0.030645          0.039875
  18         V                 0.074452          0.296469
 Total kinetic energy from orbitals= 1.062517298304D+02
                          Isotropic Fermi Contact Couplings
        Atom                 a.u.       MegaHertz       Gauss      10(-4) cm-1
     1  Fe(57)             0.00009       0.00313       0.00112       0.00105
     2  O(17)              0.00008      -0.01199      -0.00428      -0.00400
 --------------------------------------------------------
       Center         ----  Spin Dipole Couplings  ----
                      3XX-RR        3YY-RR        3ZZ-RR
 --------------------------------------------------------
     1   Atom       -0.029237     -0.029237      0.058474
     2   Atom       -0.020637     -0.020637      0.041274
 --------------------------------------------------------
                        XY            XZ            YZ
 --------------------------------------------------------
     1   Atom        0.000000      0.000000      0.000000
     2   Atom        0.000000      0.000000      0.000000
 --------------------------------------------------------


 ---------------------------------------------------------------------------------
              Anisotropic Spin Dipole Couplings in Principal Axis System
 ---------------------------------------------------------------------------------

       Atom             a.u.   MegaHertz   Gauss  10(-4) cm-1        Axes

              Baa    -0.0292    -0.506    -0.181    -0.169 -0.0000  1.0000  0.0000
     1 Fe(57) Bbb    -0.0292    -0.506    -0.181    -0.169  1.0000  0.0000  0.0000
              Bcc     0.0585     1.012     0.361     0.338  0.0000  0.0000  1.0000
 
              Baa    -0.0206     1.493     0.533     0.498  1.0000  0.0000  0.0000
     2 O(17)  Bbb    -0.0206     1.493     0.533     0.498 -0.0000  1.0000  0.0000
              Bcc     0.0413    -2.987    -1.066    -0.996  0.0000  0.0000  1.0000
 

 ---------------------------------------------------------------------------------

 No NMR shielding tensors so no spin-rotation constants.
 Leave Link  601 at Wed Apr 18 05:30:56 2018, MaxMem= 10737418240 cpu:             112.4 elap:               3.7
 (Enter /home1/apps/gaussian/16rA.03/g16/l9999.exe)
 1\1\GINC-C416-113\SP\ROCCSD(T)-Full\Gen\Fe1O1(5)\GWANG18\18-Apr-2018\0
 \\#P ROCCSD(T)=(MaxCyc=150, Full)/Gen SCF=(maxcycle=400, vshift=200) P
 seudo=Read Integral(NoXCTest) Pop=Regular MaxDisk=500GB\\FeO\\0,5\Fe,0
 ,0.,0.,0.\O,0,0.,0.,1.2\\Version=ES64L-G16RevA.03\HF=-138.0272556\MP2=
 -139.0743058\MP3=-138.969308\PUHF=-138.0272556\PMP2-0=-139.0743058\MP4
 SDQ=-139.0440438\CCSD=-139.0179239\CCSD(T)=-139.0605819\RMSD=3.546e-09
 \PG=C*V [C*(O1Fe1)]\\@


 AND ALL THIS SCIENCE I DON'T UNDERSTAND
 IT'S JUST MY JOB FIVE DAYS A WEEK

                           -- ELTON JOHN, "ROCKET MAN"
 Job cpu time:       0 days 16 hours  8 minutes 27.6 seconds.
 Elapsed time:       0 days  0 hours 30 minutes 28.3 seconds.
 File lengths (MBytes):  RWF=   4606 Int=      0 D2E=      0 Chk=      8 Scr=      1
 Normal termination of Gaussian 16 at Wed Apr 18 05:30:57 2018.
