 Entering Gaussian System, Link 0=g16
 Initial command:
 /home1/apps/gaussian/16rA.03/g16/l1.exe "/tmp/Gau-123206.inp" -scrdir="/tmp/"
 Entering Link 1 = /home1/apps/gaussian/16rA.03/g16/l1.exe PID=    123207.
  
 Copyright (c) 1988,1990,1992,1993,1995,1998,2003,2009,2016,
            Gaussian, Inc.  All Rights Reserved.
  
 This is part of the Gaussian(R) 16 program.  It is based on
 the Gaussian(R) 09 system (copyright 2009, Gaussian, Inc.),
 the Gaussian(R) 03 system (copyright 2003, Gaussian, Inc.),
 the Gaussian(R) 98 system (copyright 1998, Gaussian, Inc.),
 the Gaussian(R) 94 system (copyright 1995, Gaussian, Inc.),
 the Gaussian 92(TM) system (copyright 1992, Gaussian, Inc.),
 the Gaussian 90(TM) system (copyright 1990, Gaussian, Inc.),
 the Gaussian 88(TM) system (copyright 1988, Gaussian, Inc.),
 the Gaussian 86(TM) system (copyright 1986, Carnegie Mellon
 University), and the Gaussian 82(TM) system (copyright 1983,
 Carnegie Mellon University). Gaussian is a federally registered
 trademark of Gaussian, Inc.
  
 This software contains proprietary and confidential information,
 including trade secrets, belonging to Gaussian, Inc.
  
 This software is provided under written license and may be
 used, copied, transmitted, or stored only in accord with that
 written license.
  
 The following legend is applicable only to US Government
 contracts under FAR:
  
                    RESTRICTED RIGHTS LEGEND
  
 Use, reproduction and disclosure by the US Government is
 subject to restrictions as set forth in subparagraphs (a)
 and (c) of the Commercial Computer Software - Restricted
 Rights clause in FAR 52.227-19.
  
 Gaussian, Inc.
 340 Quinnipiac St., Bldg. 40, Wallingford CT 06492
  
  
 ---------------------------------------------------------------
 Warning -- This program may not be used in any manner that
 competes with the business of Gaussian, Inc. or will provide
 assistance to any competitor of Gaussian, Inc.  The licensee
 of this program is prohibited from giving any competitor of
 Gaussian, Inc. access to this program.  By using this program,
 the user acknowledges that Gaussian, Inc. is engaged in the
 business of creating and licensing software in the field of
 computational chemistry and represents and warrants to the
 licensee that it is not a competitor of Gaussian, Inc. and that
 it will not use this program in any manner prohibited above.
 ---------------------------------------------------------------
  

 Cite this work as:
 Gaussian 16, Revision A.03,
 M. J. Frisch, G. W. Trucks, H. B. Schlegel, G. E. Scuseria, 
 M. A. Robb, J. R. Cheeseman, G. Scalmani, V. Barone, 
 G. A. Petersson, H. Nakatsuji, X. Li, M. Caricato, A. V. Marenich, 
 J. Bloino, B. G. Janesko, R. Gomperts, B. Mennucci, H. P. Hratchian, 
 J. V. Ortiz, A. F. Izmaylov, J. L. Sonnenberg, D. Williams-Young, 
 F. Ding, F. Lipparini, F. Egidi, J. Goings, B. Peng, A. Petrone, 
 T. Henderson, D. Ranasinghe, V. G. Zakrzewski, J. Gao, N. Rega, 
 G. Zheng, W. Liang, M. Hada, M. Ehara, K. Toyota, R. Fukuda, 
 J. Hasegawa, M. Ishida, T. Nakajima, Y. Honda, O. Kitao, H. Nakai, 
 T. Vreven, K. Throssell, J. A. Montgomery, Jr., J. E. Peralta, 
 F. Ogliaro, M. J. Bearpark, J. J. Heyd, E. N. Brothers, K. N. Kudin, 
 V. N. Staroverov, T. A. Keith, R. Kobayashi, J. Normand, 
 K. Raghavachari, A. P. Rendell, J. C. Burant, S. S. Iyengar, 
 J. Tomasi, M. Cossi, J. M. Millam, M. Klene, C. Adamo, R. Cammi, 
 J. W. Ochterski, R. L. Martin, K. Morokuma, O. Farkas, 
 J. B. Foresman, and D. J. Fox, Gaussian, Inc., Wallingford CT, 2016.
 
 ******************************************
 Gaussian 16:  ES64L-G16RevA.03 25-Dec-2016
                15-Feb-2018 
 ******************************************
 %mem=64GB
 %cpu=0-32
 SetSPE:  set environment variable "MP_BIND" = "yes"
 SetSPE:  set environment variable "MP_BLIST" = "0,1,2,3,4,5,6,7,8,9,10,11,12,13,14,15,16,17,18,19,20,21,22,23,24,25,26,27,28,29,30,31,32"
 Will use up to   33 processors via shared memory.
 %chk=Sc
 ----------------------------------------------------------------------
 #P ROCCSD(T)=(maxcyc=150, Full)/Gen 5d 7f SCF=(maxcycles=300) Integral
 (DKHSO) MaxDisk=500GB Pop=Regular Guess=Read
 ----------------------------------------------------------------------
 1/38=1,172=1/1;
 2/12=2,17=6,18=5,40=1/2;
 3/5=7,8=11,11=2,25=1,30=1,91=5,116=101/1,2,3;
 4/5=1/1;
 5/5=2,7=300,38=6/2;
 8/5=-1,6=4,9=120000,10=90/1,4;
 9/5=7,6=150,14=2/13;
 6//1;
 99/5=1,9=1/99;
 Leave Link    1 at Thu Feb 15 18:39:28 2018, MaxMem=  8589934592 cpu:               1.5 elap:               0.1
 (Enter /home1/apps/gaussian/16rA.03/g16/l101.exe)
 --
 Sc
 --
 Symbolic Z-matrix:
 Charge =  0 Multiplicity = 2
 Sc                    0.        0.        0. 
 
 ITRead=  0
 MicOpt= -1
 NAtoms=      1 NQM=        1 NQMF=       0 NMMI=      0 NMMIF=      0
                NMic=       0 NMicF=      0.
                    Isotopes and Nuclear Properties:
 (Nuclear quadrupole moments (NQMom) in fm**2, nuclear magnetic moments (NMagM)
  in nuclear magnetons)

  Atom         1
 IAtWgt=          45
 AtmWgt=  44.9559136
 NucSpn=           7
 AtZEff=  -0.0000000
 NQMom=  -22.0000000
 NMagM=    4.7564830
 AtZNuc=  21.0000000
 Leave Link  101 at Thu Feb 15 18:39:28 2018, MaxMem=  8589934592 cpu:               2.8 elap:               0.1
 (Enter /home1/apps/gaussian/16rA.03/g16/l202.exe)
                          Input orientation:                          
 ---------------------------------------------------------------------
 Center     Atomic      Atomic             Coordinates (Angstroms)
 Number     Number       Type             X           Y           Z
 ---------------------------------------------------------------------
      1         21           0        0.000000    0.000000    0.000000
 ---------------------------------------------------------------------
 Stoichiometry    Sc(2)
 Framework group  OH[O(Sc)]
 Deg. of freedom     0
 Full point group                 OH      NOp  48
 Largest Abelian subgroup         D2H     NOp   8
 Largest concise Abelian subgroup C1      NOp   1
                         Standard orientation:                         
 ---------------------------------------------------------------------
 Center     Atomic      Atomic             Coordinates (Angstroms)
 Number     Number       Type             X           Y           Z
 ---------------------------------------------------------------------
      1         21           0        0.000000    0.000000    0.000000
 ---------------------------------------------------------------------
 Leave Link  202 at Thu Feb 15 18:39:28 2018, MaxMem=  8589934592 cpu:               1.0 elap:               0.1
 (Enter /home1/apps/gaussian/16rA.03/g16/l301.exe)
 General basis read from cards:  (5D, 7F)
 Centers:       1
 S 1 1.00
     Exponent=  1.1949500000D+08 Coefficients=  1.0000000000D+00
 S 1 1.00
     Exponent=  2.1499200000D+07 Coefficients=  1.0000000000D+00
 S 1 1.00
     Exponent=  4.8070300000D+06 Coefficients=  1.0000000000D+00
 S 1 1.00
     Exponent=  1.2844000000D+06 Coefficients=  1.0000000000D+00
 S 1 1.00
     Exponent=  3.9659500000D+05 Coefficients=  1.0000000000D+00
 S 1 1.00
     Exponent=  1.3757500000D+05 Coefficients=  1.0000000000D+00
 S 1 1.00
     Exponent=  5.2366800000D+04 Coefficients=  1.0000000000D+00
 S 1 1.00
     Exponent=  2.1454900000D+04 Coefficients=  1.0000000000D+00
 S 1 1.00
     Exponent=  9.3160600000D+03 Coefficients=  1.0000000000D+00
 S 1 1.00
     Exponent=  4.2354000000D+03 Coefficients=  1.0000000000D+00
 S 1 1.00
     Exponent=  1.9974400000D+03 Coefficients=  1.0000000000D+00
 S 1 1.00
     Exponent=  9.7043000000D+02 Coefficients=  1.0000000000D+00
 S 1 1.00
     Exponent=  4.8327100000D+02 Coefficients=  1.0000000000D+00
 S 1 1.00
     Exponent=  2.4580600000D+02 Coefficients=  1.0000000000D+00
 S 1 1.00
     Exponent=  1.2736000000D+02 Coefficients=  1.0000000000D+00
 S 1 1.00
     Exponent=  6.7078800000D+01 Coefficients=  1.0000000000D+00
 S 1 1.00
     Exponent=  3.5837100000D+01 Coefficients=  1.0000000000D+00
 S 1 1.00
     Exponent=  1.9371300000D+01 Coefficients=  1.0000000000D+00
 S 1 1.00
     Exponent=  1.0557100000D+01 Coefficients=  1.0000000000D+00
 S 1 1.00
     Exponent=  5.7724900000D+00 Coefficients=  1.0000000000D+00
 S 1 1.00
     Exponent=  3.1454000000D+00 Coefficients=  1.0000000000D+00
 S 1 1.00
     Exponent=  1.6924900000D+00 Coefficients=  1.0000000000D+00
 S 1 1.00
     Exponent=  8.8864900000D-01 Coefficients=  1.0000000000D+00
 S 1 1.00
     Exponent=  4.7109300000D-01 Coefficients=  1.0000000000D+00
 S 1 1.00
     Exponent=  2.4928600000D-01 Coefficients=  1.0000000000D+00
 S 1 1.00
     Exponent=  9.9988000000D-02 Coefficients=  1.0000000000D+00
 S 1 1.00
     Exponent=  4.6369000000D-02 Coefficients=  1.0000000000D+00
 S 1 1.00
     Exponent=  2.1606000000D-02 Coefficients=  1.0000000000D+00
 S 1 1.00
     Exponent=  4.3955000000D+00 Coefficients=  1.0000000000D+00
 S 1 1.00
     Exponent=  1.1564000000D+00 Coefficients=  1.0000000000D+00
 S 1 1.00
     Exponent=  1.0070000000D-02 Coefficients=  1.0000000000D+00
 P 1 1.00
     Exponent=  5.5070500000D+04 Coefficients=  1.0000000000D+00
 P 1 1.00
     Exponent=  1.3741700000D+04 Coefficients=  1.0000000000D+00
 P 1 1.00
     Exponent=  4.3654000000D+03 Coefficients=  1.0000000000D+00
 P 1 1.00
     Exponent=  1.6422600000D+03 Coefficients=  1.0000000000D+00
 P 1 1.00
     Exponent=  6.9406600000D+02 Coefficients=  1.0000000000D+00
 P 1 1.00
     Exponent=  3.1774200000D+02 Coefficients=  1.0000000000D+00
 P 1 1.00
     Exponent=  1.5389900000D+02 Coefficients=  1.0000000000D+00
 P 1 1.00
     Exponent=  7.7766500000D+01 Coefficients=  1.0000000000D+00
 P 1 1.00
     Exponent=  4.0673600000D+01 Coefficients=  1.0000000000D+00
 P 1 1.00
     Exponent=  2.1906100000D+01 Coefficients=  1.0000000000D+00
 P 1 1.00
     Exponent=  1.2079500000D+01 Coefficients=  1.0000000000D+00
 P 1 1.00
     Exponent=  6.7534900000D+00 Coefficients=  1.0000000000D+00
 P 1 1.00
     Exponent=  3.7632100000D+00 Coefficients=  1.0000000000D+00
 P 1 1.00
     Exponent=  2.0497300000D+00 Coefficients=  1.0000000000D+00
 P 1 1.00
     Exponent=  1.0864500000D+00 Coefficients=  1.0000000000D+00
 P 1 1.00
     Exponent=  5.6408700000D-01 Coefficients=  1.0000000000D+00
 P 1 1.00
     Exponent=  2.8102000000D-01 Coefficients=  1.0000000000D+00
 P 1 1.00
     Exponent=  1.2143200000D-01 Coefficients=  1.0000000000D+00
 P 1 1.00
     Exponent=  5.3345000000D-02 Coefficients=  1.0000000000D+00
 P 1 1.00
     Exponent=  2.3143000000D-02 Coefficients=  1.0000000000D+00
 P 1 1.00
     Exponent=  5.1300000000D+00 Coefficients=  1.0000000000D+00
 P 1 1.00
     Exponent=  1.2315000000D+00 Coefficients=  1.0000000000D+00
 P 1 1.00
     Exponent=  1.0040000000D-02 Coefficients=  1.0000000000D+00
 D 1 1.00
     Exponent=  2.0684900000D+02 Coefficients=  1.0000000000D+00
 D 1 1.00
     Exponent=  6.0997700000D+01 Coefficients=  1.0000000000D+00
 D 1 1.00
     Exponent=  2.3308500000D+01 Coefficients=  1.0000000000D+00
 D 1 1.00
     Exponent=  9.9288100000D+00 Coefficients=  1.0000000000D+00
 D 1 1.00
     Exponent=  4.4867000000D+00 Coefficients=  1.0000000000D+00
 D 1 1.00
     Exponent=  2.1263200000D+00 Coefficients=  1.0000000000D+00
 D 1 1.00
     Exponent=  1.0200800000D+00 Coefficients=  1.0000000000D+00
 D 1 1.00
     Exponent=  4.8537300000D-01 Coefficients=  1.0000000000D+00
 D 1 1.00
     Exponent=  2.2719800000D-01 Coefficients=  1.0000000000D+00
 D 1 1.00
     Exponent=  1.0420400000D-01 Coefficients=  1.0000000000D+00
 D 1 1.00
     Exponent=  4.6835000000D-02 Coefficients=  1.0000000000D+00
 D 1 1.00
     Exponent=  2.0259000000D-02 Coefficients=  1.0000000000D+00
 D 1 1.00
     Exponent=  2.6491000000D+00 Coefficients=  1.0000000000D+00
 D 1 1.00
     Exponent=  1.4102000000D+00 Coefficients=  1.0000000000D+00
 D 1 1.00
     Exponent=  8.7600000000D-03 Coefficients=  1.0000000000D+00
 F 1 1.00
     Exponent=  3.5989000000D+00 Coefficients=  1.0000000000D+00
 F 1 1.00
     Exponent=  1.5145000000D+00 Coefficients=  1.0000000000D+00
 F 1 1.00
     Exponent=  6.3730000000D-01 Coefficients=  1.0000000000D+00
 F 1 1.00
     Exponent=  2.6820000000D-01 Coefficients=  1.0000000000D+00
 F 1 1.00
     Exponent=  8.0900000000D-02 Coefficients=  1.0000000000D+00
 F 1 1.00
     Exponent=  2.4400000000D-02 Coefficients=  1.0000000000D+00
 G 1 1.00
     Exponent=  3.1618000000D+00 Coefficients=  1.0000000000D+00
 G 1 1.00
     Exponent=  1.3736000000D+00 Coefficients=  1.0000000000D+00
 G 1 1.00
     Exponent=  5.9680000000D-01 Coefficients=  1.0000000000D+00
 G 1 1.00
     Exponent=  1.7110000000D-01 Coefficients=  1.0000000000D+00
 G 1 1.00
     Exponent=  4.9050000000D-02 Coefficients=  1.0000000000D+00
 H 1 1.00
     Exponent=  2.9441000000D+00 Coefficients=  1.0000000000D+00
 H 1 1.00
     Exponent=  1.1635000000D+00 Coefficients=  1.0000000000D+00
 H 1 1.00
     Exponent=  3.2900000000D-01 Coefficients=  1.0000000000D+00
 H 1 1.00
     Exponent=  9.3030000000D-02 Coefficients=  1.0000000000D+00
 I 1 1.00
     Exponent=  3.1150000000D+00 Coefficients=  1.0000000000D+00
 I 1 1.00
     Exponent=  1.1682000000D+00 Coefficients=  1.0000000000D+00
 I 1 1.00
     Exponent=  4.3810000000D-01 Coefficients=  1.0000000000D+00
 ****
 Ernie: Thresh=  0.10000D-02 Tol=  0.10000D-05 Strict=F.
 There are   136 symmetry adapted cartesian basis functions of AG  symmetry.
 There are    48 symmetry adapted cartesian basis functions of B1G symmetry.
 There are    48 symmetry adapted cartesian basis functions of B2G symmetry.
 There are    48 symmetry adapted cartesian basis functions of B3G symmetry.
 There are    18 symmetry adapted cartesian basis functions of AU  symmetry.
 There are    65 symmetry adapted cartesian basis functions of B1U symmetry.
 There are    65 symmetry adapted cartesian basis functions of B2U symmetry.
 There are    65 symmetry adapted cartesian basis functions of B3U symmetry.
 There are    88 symmetry adapted basis functions of AG  symmetry.
 There are    34 symmetry adapted basis functions of B1G symmetry.
 There are    34 symmetry adapted basis functions of B2G symmetry.
 There are    34 symmetry adapted basis functions of B3G symmetry.
 There are    14 symmetry adapted basis functions of AU  symmetry.
 There are    47 symmetry adapted basis functions of B1U symmetry.
 There are    47 symmetry adapted basis functions of B2U symmetry.
 There are    47 symmetry adapted basis functions of B3U symmetry.
   345 basis functions,   493 primitive gaussians,   493 cartesian basis functions
    11 alpha electrons       10 beta electrons
       nuclear repulsion energy         0.0000000000 Hartrees.
 IExCor=    0 DFT=F Ex=HF Corr=None ExCW=0 ScaHFX=  1.000000
 ScaDFX=  1.000000  1.000000  1.000000  1.000000 ScalE2=  1.000000  1.000000
 IRadAn=      5 IRanWt=     -1 IRanGd=            0 ICorTp=0 IEmpDi=  4
 NAtoms=    1 NActive=    1 NUniq=    1 SFac= 1.00D+00 NAtFMM=   60 NAOKFM=F Big=F
 Integral buffers will be    131072 words long.
 Raffenetti 2 integral format.
 Two-electron integral symmetry is turned on.
 FoFCou: FMM=F IPFlag=           0 FMFlag=           0 FMFlg1=           0
         NFxFlg=           0 DoJE=F BraDBF=T KetDBF=T FulRan=T
         wScrn=  0.000000 ICntrl=       600 IOpCl=  3 I1Cent=           6 NGrid=           0
         NMat0=    1 NMatS0=      1 NMatT0=    0 NMatD0=    1 NMtDS0=    0 NMtDT0=    0
 Symmetry not used in FoFCou.
 Finite nuclear repulsion energy         0.0000000000.
 Leave Link  301 at Thu Feb 15 18:39:28 2018, MaxMem=  8589934592 cpu:               5.7 elap:               0.2
 (Enter /home1/apps/gaussian/16rA.03/g16/l302.exe)
 Using DK4 one-electron Hamiltonian with SO, DoBoet=T.
 NPDir=0 NMtPBC=     1 NCelOv=     1 NCel=       1 NClECP=     1 NCelD=      1
         NCelK=      1 NCelE2=     1 NClLst=     1 CellRange=     0.0.
 One-electron integrals computed using PRISM.
 One-electron integral symmetry used in STVInt
 FoFCou: FMM=F IPFlag=           0 FMFlag=      100000 FMFlg1=           0
         NFxFlg=           0 DoJE=T BraDBF=F KetDBF=T FulRan=T
         wScrn=  0.000000 ICntrl=       500 IOpCl=  0 I1Cent=           4 NGrid=           0
         NMat0=    1 NMatS0=      1 NMatT0=    0 NMatD0=    1 NMtDS0=    0 NMtDT0=    0
 Symmetry not used in FoFCou.
 UnConB:  Uncontracting AO basis from    345 functions to    345 functions (excluding duplicates).
 RelInt: Using uncontracted basis, NUnBas=   345 NBsUse=   345 0.100E-13 EigKep=  2.21D-07 EigRej= -1.00D+00
 NBasis=   345 RedAO= T EigKep=  1.09D-06  NBF=    88    34    34    34    14    47    47    47
 NBsUse=   344 1.00D-06 EigRej=  2.21D-07 NBFU=    87    34    34    34    14    47    47    47
 Leave Link  302 at Thu Feb 15 18:39:35 2018, MaxMem=  8589934592 cpu:             176.7 elap:               6.6
 (Enter /home1/apps/gaussian/16rA.03/g16/l303.exe)
 DipDrv:  MaxL=1.
 Leave Link  303 at Thu Feb 15 18:39:35 2018, MaxMem=  8589934592 cpu:               2.1 elap:               0.1
 (Enter /home1/apps/gaussian/16rA.03/g16/l401.exe)
 Initial guess from the checkpoint file:  "Sc.chk"
 B after Tr=     0.000000    0.000000    0.000000
         Rot=    1.000000    0.000000    0.000000    0.000000 Ang=   0.00 deg.
 Guess basis will be translated and rotated to current coordinates.
 JPrj=2 DoOrth=T DoCkMO=T.
 Initial guess orbital symmetries:
       Occupied  (A1G) (A1G) (T1U) (T1U) (T1U) (A1G) (T1U) (T1U)
                 (T1U) (?A) (?B)
       Virtual   (?C) (?C) (?C) (?A) (EG) (?B) (?B) (EG) (?B) (?C)
                 (?C) (?C) (?A) (?B) (?B) (?A) (?B) (?A) (?D) (?D)
                 (?D) (?D) (A2U) (?D) (?D) (?A) (?B) (?B) (?C)
                 (?A) (?C) (?C) (?B) (?A) (?B) (?B) (?A) (?A) (?B)
                 (?B) (?A) (?B) (?B) (?B) (?B) (?A) (?A) (?C) (?C)
                 (?C) (A2U) (?C) (?C) (?C) (?C) (?C) (?C) (?B)
                 (?A) (?B) (?B) (?A) (?E) (?E) (?E) (?E) (EU) (?E)
                 (?E) (EU) (?E) (?E) (?E) (?A) (?B) (?B) (?A) (?B)
                 (?B) (?B) (?A) (?B) (?A) (?C) (?C) (A2U) (?C)
                 (?C) (?C) (?C) (?C) (?C) (?C) (?B) (?A) (?B) (?B)
                 (?A) (?F) (?F) (?F) (?F) (EU) (?F) (?F) (EU) (?F)
                 (?F) (?F) (?F) (?B) (?B) (?B) (?F) (?F) (?F) (?F)
                 (A2U) (?F) (?F) (?F) (?F) (?F) (?F) (?F) (?F)
                 (?B) (?B) (?F) (?B) (?B) (?B) (?B) (?F) (?F) (?B)
                 (?B) (?F) (?B) (?B) (?B) (?B) (?F) (?B) (?B) (?F)
                 (?B) (T2G) (T2G) (T2G) (T2G) (T2G) (?F) (?F) (?F)
                 (T2G) (?F) (?F) (?F) (A2U) (?F) (?F) (?F) (?F)
                 (?F) (?F) (?F) (EU) (?F) (?F) (EU) (?F) (?F) (?F)
                 (T2G) (?F) (?F) (T2G) (?F) (?F) (?F) (?F) (T2G)
                 (?F) (?F) (?F) (?F) (?F) (?F) (?F) (?F) (?F) (?F)
                 (?F) (?F) (?F) (EG) (T2G) (T2G) (EG) (T2G) (T1U)
                 (T1U) (T1U) (A1G) (?D) (?D) (?D) (?D) (A2U) (?D)
                 (?D) (?F) (?F) (?F) (?F) (?F) (?F) (?F) (?F) (?F)
                 (?F) (?F) (?F) (?F) (?F) (?F) (?F) (?F) (?F) (EU)
                 (?F) (?F) (EU) (?F) (?F) (?F) (T1U) (T1U) (T1U)
                 (?F) (?F) (?F) (?F) (?F) (?F) (?F) (?F) (?F) (?F)
                 (?F) (?F) (?F) (A1G) (EG) (T2G) (T2G) (EG) (T2G)
                 (T1U) (T1U) (T1U) (A1G) (EG) (T2G) (T2G) (EG)
                 (T2G) (T1U) (T1U) (T1U) (A1G) (EG) (T2G) (T2G)
                 (EG) (T2G) (T1U) (T1U) (T1U) (T1U) (T1U) (T1U)
                 (A1G) (EG) (T2G) (T2G) (EG) (T2G) (T1U) (T1U)
                 (T1U) (A1G) (T1U) (T1U) (T1U) (EG) (T2G) (T2G)
                 (EG) (T2G) (A1G) (T1U) (T1U) (T1U) (A1G) (T1U)
                 (T1U) (T1U) (A1G) (T1U) (T1U) (T1U) (A1G) (A1G)
                 (T1U) (T1U) (T1U) (A1G) (T1U) (T1U) (T1U) (A1G)
                 (T1U) (T1U) (T1U) (A1G) (A1G) (A1G) (A1G) (A1G)
                 (A1G) (A1G)
 Leave Link  401 at Thu Feb 15 18:39:35 2018, MaxMem=  8589934592 cpu:              10.6 elap:               0.4
 (Enter /home1/apps/gaussian/16rA.03/g16/l502.exe)
 Keep R1 and R2 ints in memory in symmetry-blocked form, NReq=2160455697.
 FoFCou: FMM=F IPFlag=           0 FMFlag=           0 FMFlg1=           0
         NFxFlg=           0 DoJE=F BraDBF=F KetDBF=F FulRan=T
         wScrn=  0.000000 ICntrl=       600 IOpCl=  0 I1Cent=           0 NGrid=           0
         NMat0=    1 NMatS0=  59685 NMatT0=    0 NMatD0=    1 NMtDS0=    0 NMtDT0=    0
 Petite list used in FoFCou.
 Restricted open shell SCF:
 Using DIIS extrapolation, IDIIS=  1040.
 NGot=  8589934592 LenX=  8137910022 LenY=  8137666480
 Requested convergence on RMS density matrix=1.00D-08 within 300 cycles.
 Requested convergence on MAX density matrix=1.00D-06.
 Requested convergence on             energy=1.00D-06.
 No special actions if energy rises.
 An orbital has undefined symmetry, so N**3 symmetry is turned off.

 Cycle   1  Pass 1  IDiag  1:
 Density matrix breaks symmetry, PCut= 1.00D-07
 Density matrix has no symmetry -- integrals replicated.
 E= -763.289845597845    
 DIIS: error= 1.46D-07 at cycle   1 NSaved=   1.
 NSaved= 1 IEnMin= 1 EnMin= -763.289845597845     IErMin= 1 ErrMin= 1.46D-07
 ErrMax= 1.46D-07  0.00D+00 EMaxC= 1.00D-01 BMatC= 5.82D-13 BMatP= 5.82D-13
 IDIUse=1 WtCom= 1.00D+00 WtEn= 0.00D+00
 Coeff-Com:  0.100D+01
 Coeff:      0.100D+01
 Gap=     0.044 Goal=   None    Shift=    0.000
 RMSDP=3.48D-08 MaxDP=5.56D-06              OVMax= 1.30D-05

 Cycle   2  Pass 1  IDiag  1:
 Density matrix breaks symmetry, PCut= 1.00D-07
 Density matrix has no symmetry -- integrals replicated.
 E= -763.289845597813     Delta-E=        0.000000000032 Rises=F Damp=F
 DIIS: error= 5.97D-07 at cycle   2 NSaved=   2.
 NSaved= 2 IEnMin= 1 EnMin= -763.289845597845     IErMin= 1 ErrMin= 1.46D-07
 ErrMax= 5.97D-07  0.00D+00 EMaxC= 1.00D-01 BMatC= 9.83D-12 BMatP= 5.82D-13
 IDIUse=1 WtCom= 1.00D+00 WtEn= 0.00D+00
 Coeff-Com:  0.805D+00 0.195D+00
 Coeff:      0.805D+00 0.195D+00
 Gap=     0.044 Goal=   None    Shift=    0.000
 RMSDP=2.83D-08 MaxDP=4.51D-06 DE= 3.16D-11 OVMax= 1.05D-05

 Cycle   3  Pass 1  IDiag  1:
 Density matrix breaks symmetry, PCut= 1.00D-07
 Density matrix has no symmetry -- integrals replicated.
 E= -763.289845597845     Delta-E=       -0.000000000032 Rises=F Damp=F
 DIIS: error= 1.15D-08 at cycle   3 NSaved=   3.
 NSaved= 3 IEnMin= 3 EnMin= -763.289845597845     IErMin= 3 ErrMin= 1.15D-08
 ErrMax= 1.15D-08  0.00D+00 EMaxC= 1.00D-01 BMatC= 6.16D-15 BMatP= 5.82D-13
 IDIUse=1 WtCom= 1.00D+00 WtEn= 0.00D+00
 Coeff-Com:  0.489D+00 0.120D+00 0.392D+00
 Coeff:      0.489D+00 0.120D+00 0.392D+00
 Gap=     0.044 Goal=   None    Shift=    0.000
 RMSDP=1.37D-09 MaxDP=9.13D-08 DE=-3.23D-11 OVMax= 4.91D-07

 Density matrix breaks symmetry, PCut= 1.00D-07
 Density matrix has no symmetry -- integrals replicated.
 SCF Done:  E(ROHF) =  -763.289845598     A.U. after    3 cycles
            NFock=  3  Conv=0.14D-08     -V/T= 1.9724
 <Sx>= 0.0000 <Sy>= 0.0000 <Sz>= 0.5000 <S**2>= 0.7500 S= 0.5000
 <L.S>=  0.00000000000    
 KE= 7.849736486269D+02 PE=-1.829895813100D+03 EE= 2.816323188755D+02
 Annihilation of the first spin contaminant:
 S**2 before annihilation     0.7500,   after     0.7500
 Leave Link  502 at Thu Feb 15 18:40:09 2018, MaxMem=  8589934592 cpu:            1037.1 elap:              33.7
 (Enter /home1/apps/gaussian/16rA.03/g16/l801.exe)
 Windowed orbitals will be sorted by symmetry type.
 An orbital has undefined symmetry, so N**3 symmetry is turned off.
 Density matrix breaks symmetry, PCut= 1.00D-07
 Density matrix has no symmetry -- integrals replicated.
 GenMOA:  NOpAll= 48 NOp2=8 NOpUse=  1 JSym2X=2
 FoFJK:  IHMeth= 1 ICntrl=       0 DoSepK=F KAlg= 0 I1Cent=           0 FoldK=F
 IRaf=         0 NMat=       1 IRICut=       1 DoRegI=T DoRafI=F ISym2E= 2 IDoP0=0 IntGTp=1.
 FoFCou: FMM=F IPFlag=           0 FMFlag=      100000 FMFlg1=           0
         NFxFlg=           0 DoJE=F BraDBF=F KetDBF=F FulRan=T
         wScrn=  0.000000 ICntrl=         0 IOpCl=  1 I1Cent=           0 NGrid=           0
         NMat0=    1 NMatS0=      1 NMatT0=    0 NMatD0=    1 NMtDS0=    0 NMtDT0=    0
 Integrals replicated using symmetry in FoFCou.
 <Sx>= 0.0000 <Sy>= 0.0000 <Sz>= 0.5000 <S**2>= 0.7500 S= 0.5000
 Range of M.O.s used for correlation:     1   344
 NBasis=   345 NAE=    11 NBE=    10 NFC=     0 NFV=     0
 NROrb=    344 NOA=    11 NOB=    10 NVA=   333 NVB=   334

 **** Warning!!: The largest alpha MO coefficient is  0.26586178D+03


 **** Warning!!: The largest beta MO coefficient is  0.26586138D+03

 Singles contribution to E2=   -0.2314270824D-02
 Leave Link  801 at Thu Feb 15 18:40:45 2018, MaxMem=  8589934592 cpu:            1184.2 elap:              36.0
 (Enter /home1/apps/gaussian/16rA.03/g16/l804.exe)
 Open-shell transformation, MDV=  8589934592 ITran=4 ISComp=1.
 Unit  1 TFree=       3575039 TCopy=       2825175.
 Semi-Direct transformation.
 ModeAB=           2 MOrb=            11 LenV=    8586222257
 LASXX=    219144178 LTotXX=   219144178 LenRXX=   219144178
 LTotAB=   221278860 MaxLAS=   460781464 LenRXY=   460781464
 NonZer=   472371856 LenScr=   711336960 LnRSAI=           0
 LnScr1=           0 LExtra=    20719484 Total=   1411982086
 MaxDsk= 67108864000 SrtSym=           F ITran=            4
 DoSDTr:  NPSUse= 33
 JobTyp=1 Pass  1:  I=   1 to  11.
 (rs|ai) integrals will be sorted in core.
 Complete sort for first half transformation.
 First half transformation complete.
 Begin second half transformation for I=  10.
 Begin second half transformation for I=  10.
 Complete sort for second half transformation.
 Second half transformation complete.
 ModeAB=           2 MOrb=            10 LenV=    8586222257
 LASXX=    199550170 LTotXX=   199550170 LenRXX=   418892240
 LTotAB=   188799345 MaxLAS=   418892240 LenRXY=   188799345
 NonZer=   429428960 LenScr=   646670336 LnRSAI=           0
 LnScr1=           0 LExtra=   700645126 Total=   1955007047
 MaxDsk= 67108864000 SrtSym=           F ITran=            4
 DoSDTr:  NPSUse= 33
 JobTyp=2 Pass  1:  I=   1 to  10.
 (rs|ai) integrals will be sorted in core.
 Complete sort for first half transformation.
 First half transformation complete.
 Begin second half transformation for I=  10.
 Begin second half transformation for I=  10.
 Complete sort for second half transformation.
 Second half transformation complete.
 SymMOI:  orbitals are not symmetric.
 Spin components of T(2) and E(2):
     alpha-alpha T2 =       0.1251397041D-01 E2=     -0.1069945405D+00
     alpha-beta  T2 =       0.8241042994D-01 E2=     -0.5561909911D+00
     beta-beta   T2 =       0.9553488913D-02 E2=     -0.9318012776D-01
 ANorm=    0.1051346656D+01
 E2 =    -0.7586799302D+00 EUMP2 =    -0.76404852552800D+03
 (S**2,0)=  0.75000D+00           (S**2,1)=  0.75000D+00
 E(PUHF)=      -0.76328984560D+03        E(PMP2)=      -0.76404852553D+03
 Leave Link  804 at Thu Feb 15 18:45:24 2018, MaxMem=  8589934592 cpu:            9185.8 elap:             279.0
 (Enter /home1/apps/gaussian/16rA.03/g16/l913.exe)
 CIDS:  MDV=  8589934592.
 IFCWin=0 IBDFC=1 NFBD=     0     0 NFCmp=     0     0 NFFFC=     0     0
 Using original routines for 1st iteration.
 Using DD4UQ or CC4UQ for 2nd and later iterations.
 Keep R2 and R3 ints in memory in symmetry-blocked form, NReq=2160483900.
 FoFCou: FMM=F IPFlag=           0 FMFlag=           0 FMFlg1=           0
         NFxFlg=           0 DoJE=F BraDBF=F KetDBF=F FulRan=T
         wScrn=  0.000000 ICntrl=       600 IOpCl=  0 I1Cent=           0 NGrid=           0
         NMat0=    1 NMatS0=  59685 NMatT0=    0 NMatD0=    1 NMtDS0=    0 NMtDT0=    0
 Petite list used in FoFCou.
 CIDS: In Core Option IDoMem=           1.
 CCSD(T)
 =======
 Iterations= 150 Convergence= 0.100D-06
 Produce multiple copies of IABC intergrals
 Iteration Nr.   1
 **********************
 DD1Dir will call FoFMem   1 times, MxPair=       320
 NAB=   110 NAA=    55 NBB=    45.
 DD1Dir will call FoFMem   1 times, MxPair=       320
 NAB=   110 NAA=    55 NBB=    45.
 MP4(R+Q)=  0.20475870D-01
 Maximum subspace dimension=  5
 A-vector RMS=  6.7697980D-05 Max=  4.6814426D-03 conv= 1.00D-05.
 RLE energy=       -0.7484720499
 E3=       -0.10157678D-01        EROMP3=      -0.76405868321D+03
 E4(SDQ)=   0.41095570D-03        ROMP4(SDQ)=  -0.76405827225D+03
 VARIATIONAL ENERGIES WITH THE FIRST-ORDER WAVEFUNCTION:
 DE(Corr)= -0.74833198     E(Corr)=     -764.03817758    
 NORM(A)=   0.10463035D+01
 Iteration Nr.   2
 **********************
 DD1Dir will call FoFMem   1 times, MxPair=       320
 NAB=   110 NAA=    55 NBB=    45.
 A-vector RMS=  1.6105418D-03 Max=  3.3124955D-02 conv= 1.00D-05.
 RLE energy=       -0.7516862889
 DE(Corr)= -0.75825096     E(CORR)=     -764.04809655     Delta=-9.92D-03
 NORM(A)=   0.10490190D+01
 Iteration Nr.   3
 **********************
 DD1Dir will call FoFMem   1 times, MxPair=       320
 NAB=   110 NAA=    55 NBB=    45.
 A-vector RMS=  1.1894912D-03 Max=  2.4837011D-02 conv= 1.00D-05.
 RLE energy=       -0.7592708595
 DE(Corr)= -0.76093134     E(CORR)=     -764.05077694     Delta=-2.68D-03
 NORM(A)=   0.10552531D+01
 Iteration Nr.   4
 **********************
 DD1Dir will call FoFMem   1 times, MxPair=       320
 NAB=   110 NAA=    55 NBB=    45.
 A-vector RMS=  8.4226205D-04 Max=  1.7318554D-02 conv= 1.00D-05.
 RLE energy=       -0.7710827669
 DE(Corr)= -0.76355302     E(CORR)=     -764.05339862     Delta=-2.62D-03
 NORM(A)=   0.10733085D+01
 Iteration Nr.   5
 **********************
 DD1Dir will call FoFMem   1 times, MxPair=       320
 NAB=   110 NAA=    55 NBB=    45.
 A-vector RMS=  2.2523634D-04 Max=  4.4475634D-03 conv= 1.00D-05.
 RLE energy=       -0.7688567888
 DE(Corr)= -0.76989698     E(CORR)=     -764.05974257     Delta=-6.34D-03
 NORM(A)=   0.10703178D+01
 Iteration Nr.   6
 **********************
 DD1Dir will call FoFMem   1 times, MxPair=       320
 NAB=   110 NAA=    55 NBB=    45.
 A-vector RMS=  5.0967235D-05 Max=  1.3177913D-03 conv= 1.00D-05.
 RLE energy=       -0.7686572353
 DE(Corr)= -0.76873699     E(CORR)=     -764.05858258     Delta= 1.16D-03
 NORM(A)=   0.10702579D+01
 Iteration Nr.   7
 **********************
 DD1Dir will call FoFMem   1 times, MxPair=       320
 NAB=   110 NAA=    55 NBB=    45.
 A-vector RMS=  3.2392912D-05 Max=  8.2671993D-04 conv= 1.00D-05.
 RLE energy=       -0.7686384315
 DE(Corr)= -0.76863965     E(CORR)=     -764.05848525     Delta= 9.73D-05
 NORM(A)=   0.10703920D+01
 Iteration Nr.   8
 **********************
 DD1Dir will call FoFMem   1 times, MxPair=       320
 NAB=   110 NAA=    55 NBB=    45.
 A-vector RMS=  2.0467115D-05 Max=  5.2612232D-04 conv= 1.00D-05.
 RLE energy=       -0.7686553640
 DE(Corr)= -0.76865521     E(CORR)=     -764.05850081     Delta=-1.56D-05
 NORM(A)=   0.10703959D+01
 Iteration Nr.   9
 **********************
 DD1Dir will call FoFMem   1 times, MxPair=       320
 NAB=   110 NAA=    55 NBB=    45.
 A-vector RMS=  9.0304462D-06 Max=  2.1354574D-04 conv= 1.00D-05.
 RLE energy=       -0.7686462728
 DE(Corr)= -0.76864679     E(CORR)=     -764.05849239     Delta= 8.42D-06
 NORM(A)=   0.10704175D+01
 Iteration Nr.  10
 **********************
 DD1Dir will call FoFMem   1 times, MxPair=       320
 NAB=   110 NAA=    55 NBB=    45.
 A-vector RMS=  5.3913284D-06 Max=  1.2381459D-04 conv= 1.00D-05.
 RLE energy=       -0.7686403817
 DE(Corr)= -0.76864864     E(CORR)=     -764.05849424     Delta=-1.85D-06
 NORM(A)=   0.10704515D+01
 Iteration Nr.  11
 **********************
 DD1Dir will call FoFMem   1 times, MxPair=       320
 NAB=   110 NAA=    55 NBB=    45.
 A-vector RMS=  2.7227316D-06 Max=  6.3929775D-05 conv= 1.00D-05.
 RLE energy=       -0.7686506431
 DE(Corr)= -0.76864759     E(CORR)=     -764.05849318     Delta= 1.06D-06
 NORM(A)=   0.10705005D+01
 Iteration Nr.  12
 **********************
 DD1Dir will call FoFMem   1 times, MxPair=       320
 NAB=   110 NAA=    55 NBB=    45.
 A-vector RMS=  1.0204218D-06 Max=  2.5349780D-05 conv= 1.00D-05.
 RLE energy=       -0.7686543800
 DE(Corr)= -0.76865298     E(CORR)=     -764.05849858     Delta=-5.40D-06
 NORM(A)=   0.10705101D+01
 Iteration Nr.  13
 **********************
 DD1Dir will call FoFMem   1 times, MxPair=       320
 NAB=   110 NAA=    55 NBB=    45.
 A-vector RMS=  6.5425563D-07 Max=  1.3629363D-05 conv= 1.00D-05.
 RLE energy=       -0.7686537694
 DE(Corr)= -0.76865343     E(CORR)=     -764.05849902     Delta=-4.42D-07
 NORM(A)=   0.10705086D+01
 Iteration Nr.  14
 **********************
 DD1Dir will call FoFMem   1 times, MxPair=       320
 NAB=   110 NAA=    55 NBB=    45.
 A-vector RMS=  4.0385501D-07 Max=  7.5726602D-06 conv= 1.00D-05.
 RLE energy=       -0.7686534661
 DE(Corr)= -0.76865373     E(CORR)=     -764.05849933     Delta=-3.06D-07
 NORM(A)=   0.10705056D+01
 Iteration Nr.  15
 **********************
 DD1Dir will call FoFMem   1 times, MxPair=       320
 NAB=   110 NAA=    55 NBB=    45.
 A-vector RMS=  2.5323611D-07 Max=  6.1535215D-06 conv= 1.00D-05.
 RLE energy=       -0.7686529305
 DE(Corr)= -0.76865322     E(CORR)=     -764.05849882     Delta= 5.09D-07
 NORM(A)=   0.10705039D+01
 Iteration Nr.  16
 **********************
 DD1Dir will call FoFMem   1 times, MxPair=       320
 NAB=   110 NAA=    55 NBB=    45.
 A-vector RMS=  2.0200081D-07 Max=  5.5286347D-06 conv= 1.00D-05.
 RLE energy=       -0.7686528103
 DE(Corr)= -0.76865303     E(CORR)=     -764.05849863     Delta= 1.92D-07
 NORM(A)=   0.10705032D+01
 Iteration Nr.  17
 **********************
 DD1Dir will call FoFMem   1 times, MxPair=       320
 NAB=   110 NAA=    55 NBB=    45.
 A-vector RMS=  7.8502060D-08 Max=  1.7914331D-06 conv= 1.00D-05.
 RLE energy=       -0.7686529444
 DE(Corr)= -0.76865295     E(CORR)=     -764.05849855     Delta= 7.83D-08
 NORM(A)=   0.10705034D+01
 CI/CC converged in   17 iterations to DelEn= 7.83D-08 Conv= 1.00D-07 ErrA1= 7.85D-08 Conv= 1.00D-05
 Wavefunction amplitudes converged. E(Corr)=     -764.05849855    
 Largest amplitude= 5.56D-02
 Time for triples=    54882.23 seconds.
 T4(CCSD)= -0.16781360D-01
 T5(CCSD)=  0.33373665D-03
 CCSD(T)= -0.76407494617D+03
 Discarding MO integrals.
 Leave Link  913 at Thu Feb 15 19:25:22 2018, MaxMem=  8589934592 cpu:           78914.7 elap:            2398.2
 (Enter /home1/apps/gaussian/16rA.03/g16/l601.exe)
 Copying SCF densities to generalized density rwf, IOpCl= 0 IROHF=1.
 SCF density gives NOpUse=  1 NOpAll= 48.
 Marking SCF density as not fully symmetric.

 **********************************************************************

            Population analysis using the SCF density.

 **********************************************************************

 Orbital symmetries:
       Occupied  (A1G) (A1G) (T1U) (T1U) (T1U) (A1G) (T1U) (T1U)
                 (T1U) (?A) (?B)
       Virtual   (?C) (?C) (?C) (?A) (EG) (?B) (?B) (EG) (?B) (?C)
                 (?C) (?C) (?A) (?B) (?B) (?A) (?B) (?A) (?D) (?D)
                 (?D) (?D) (A2U) (?D) (?D) (?A) (?B) (?B) (?C)
                 (?A) (?C) (?C) (?B) (?A) (?B) (?B) (?A) (?A) (?B)
                 (?B) (?A) (?B) (?B) (?B) (?B) (?A) (?A) (?C) (?C)
                 (?C) (A2U) (?C) (?C) (?C) (?C) (?C) (?C) (?B)
                 (?A) (?B) (?B) (?A) (?E) (?E) (?E) (?E) (EU) (?E)
                 (?E) (EU) (?E) (?E) (?E) (?A) (?F) (?F) (?A) (?F)
                 (?F) (?F) (?A) (?F) (?A) (?C) (?C) (A2U) (?C)
                 (?C) (?C) (?C) (?C) (?C) (?C) (?B) (?A) (?B) (?B)
                 (?A) (?F) (?F) (?F) (?F) (EU) (?F) (?F) (EU) (?F)
                 (?F) (?F) (?F) (?B) (?B) (?B) (?F) (?F) (?F) (?F)
                 (A2U) (?F) (?F) (?F) (?F) (?F) (?F) (?F) (?F)
                 (?B) (?B) (?F) (?B) (?B) (?B) (?B) (?F) (?F) (?B)
                 (?B) (?F) (?B) (?B) (?B) (?B) (?F) (?B) (?B) (?F)
                 (?B) (T2G) (T2G) (T2G) (T2G) (T2G) (?F) (?F) (?F)
                 (T2G) (?F) (?F) (?F) (A2U) (?F) (?F) (?F) (?F)
                 (?F) (?F) (?F) (EU) (?F) (?F) (EU) (?F) (?F) (?F)
                 (T2G) (?F) (?F) (T2G) (?F) (?F) (?F) (?F) (T2G)
                 (?F) (?F) (?F) (?F) (?F) (?F) (?F) (?F) (?F) (?F)
                 (?F) (?F) (?F) (EG) (T2G) (T2G) (EG) (T2G) (T1U)
                 (T1U) (T1U) (A1G) (?D) (?D) (?D) (?D) (A2U) (?D)
                 (?D) (?F) (?F) (?F) (?F) (?F) (?F) (?F) (?F) (?F)
                 (?F) (?F) (?F) (?F) (?F) (?F) (?F) (?F) (?F) (EU)
                 (?F) (?F) (EU) (?F) (?F) (?F) (T1U) (T1U) (T1U)
                 (?F) (?F) (?F) (?F) (?F) (?F) (?F) (?F) (?F) (?F)
                 (?F) (?F) (?F) (A1G) (EG) (T2G) (T2G) (EG) (T2G)
                 (T1U) (T1U) (T1U) (A1G) (EG) (T2G) (T2G) (EG)
                 (T2G) (T1U) (T1U) (T1U) (A1G) (EG) (T2G) (T2G)
                 (EG) (T2G) (T1U) (T1U) (T1U) (T1U) (T1U) (T1U)
                 (A1G) (EG) (T2G) (T2G) (EG) (T2G) (T1U) (T1U)
                 (T1U) (A1G) (T1U) (T1U) (T1U) (EG) (T2G) (T2G)
                 (EG) (T2G) (A1G) (T1U) (T1U) (T1U) (A1G) (T1U)
                 (T1U) (T1U) (A1G) (T1U) (T1U) (T1U) (A1G) (A1G)
                 (T1U) (T1U) (T1U) (A1G) (T1U) (T1U) (T1U) (A1G)
                 (T1U) (T1U) (T1U) (A1G) (A1G) (A1G) (A1G) (A1G)
                 (A1G) (A1G)
 Unable to determine electronic state:  an orbital has unidentified symmetry.
 Alpha  occ. eigenvalues -- -166.82354 -19.26664 -15.69101 -15.68925 -15.68925
 Alpha  occ. eigenvalues --   -2.61754  -1.61970  -1.61970  -1.58598  -0.33963
 Alpha  occ. eigenvalues --   -0.21574
 Alpha virt. eigenvalues --    0.01181   0.01271   0.01271   0.02000   0.02626
 Alpha virt. eigenvalues --    0.02629   0.02629   0.02635   0.02651   0.04266
 Alpha virt. eigenvalues --    0.04386   0.04386   0.07425   0.07500   0.07500
 Alpha virt. eigenvalues --    0.07661   0.08150   0.10186   0.10446   0.10448
 Alpha virt. eigenvalues --    0.10448   0.10454   0.10457   0.10469   0.10469
 Alpha virt. eigenvalues --    0.12722   0.13184   0.13184   0.14412   0.14458
 Alpha virt. eigenvalues --    0.14586   0.14586   0.20236   0.23873   0.24214
 Alpha virt. eigenvalues --    0.24214   0.25318   0.25965   0.25967   0.25967
 Alpha virt. eigenvalues --    0.25971   0.25985   0.25998   0.25998   0.26026
 Alpha virt. eigenvalues --    0.26027   0.33314   0.35313   0.35313   0.35319
 Alpha virt. eigenvalues --    0.35354   0.35431   0.35431   0.35464   0.41758
 Alpha virt. eigenvalues --    0.42008   0.42008   0.48117   0.51851   0.52148
 Alpha virt. eigenvalues --    0.52148   0.53066   0.58267   0.58269   0.58269
 Alpha virt. eigenvalues --    0.58271   0.58310   0.58324   0.58324   0.58359
 Alpha virt. eigenvalues --    0.58363   0.58420   0.58420   0.89436   0.89459
 Alpha virt. eigenvalues --    0.89459   0.89529   0.89530   0.89648   0.89648
 Alpha virt. eigenvalues --    0.89808   0.89813   0.95814   1.01093   1.01093
 Alpha virt. eigenvalues --    1.01275   1.01957   1.02262   1.02262   1.02566
 Alpha virt. eigenvalues --    1.11074   1.11136   1.11802   1.11802   1.14205
 Alpha virt. eigenvalues --    1.14555   1.14555   1.15632   2.01738   2.01761
 Alpha virt. eigenvalues --    2.01761   2.01799   2.01966   2.02079   2.02079
 Alpha virt. eigenvalues --    2.02324   2.02336   2.02697   2.02697   2.41885
 Alpha virt. eigenvalues --    2.43394   2.43933   2.43933   2.45253   2.47807
 Alpha virt. eigenvalues --    2.48759   2.48759   2.48989   2.50111   2.50747
 Alpha virt. eigenvalues --    2.50747   2.51310   2.65898   2.67208   2.67208
 Alpha virt. eigenvalues --    2.79970   2.80030   2.80030   2.80135   2.80393
 Alpha virt. eigenvalues --    2.80618   2.80618   2.81001   2.81023   2.99748
 Alpha virt. eigenvalues --    2.99754   2.99754   2.99761   3.00066   3.00131
 Alpha virt. eigenvalues --    3.00131   3.00289   3.00345   3.00618   3.00618
 Alpha virt. eigenvalues --    3.01045   3.01045   4.84468   4.84742   4.84971
 Alpha virt. eigenvalues --    4.84971   4.86453   5.58765   5.60791   5.60791
 Alpha virt. eigenvalues --    5.66068   5.88559   5.88568   5.88568   5.88926
 Alpha virt. eigenvalues --    5.89929   5.89929   5.90268   6.67122   6.67193
 Alpha virt. eigenvalues --    6.67193   6.67318   6.67689   6.68011   6.68011
 Alpha virt. eigenvalues --    6.68670   6.68694   6.69636   6.69636   6.99318
 Alpha virt. eigenvalues --    6.99443   6.99443   6.99744   6.99915   7.00454
 Alpha virt. eigenvalues --    7.00454   7.01276   7.01283   8.35726   8.35744
 Alpha virt. eigenvalues --    8.35744   8.35765   8.36459   8.36619   8.36619
 Alpha virt. eigenvalues --    8.37008   8.37129   8.37780   8.37780   8.38773
 Alpha virt. eigenvalues --    8.38774   8.90782   8.91307   8.91307   8.92581
 Alpha virt. eigenvalues --    8.92881  10.58334  10.60963  10.60963  11.69011
 Alpha virt. eigenvalues --   14.01942  14.02146  14.02146  14.02547  14.03103
 Alpha virt. eigenvalues --   14.03761  14.03761  15.45909  15.46453  15.46453
 Alpha virt. eigenvalues --   15.48095  15.48757  16.44715  16.44870  16.44870
 Alpha virt. eigenvalues --   16.45278  16.45417  16.46161  16.46161  16.47334
 Alpha virt. eigenvalues --   16.47337  17.81023  17.81109  17.81109  17.81250
 Alpha virt. eigenvalues --   17.81831  17.82236  17.82236  17.83105  17.83147
 Alpha virt. eigenvalues --   17.84417  17.84417  18.88313  18.91351  18.91351
 Alpha virt. eigenvalues --   22.20089  22.20115  22.20115  22.20145  22.21081
 Alpha virt. eigenvalues --   22.21301  22.21301  22.21831  22.21993  22.22878
 Alpha virt. eigenvalues --   22.22878  22.24220  22.24222  22.79180  25.94661
 Alpha virt. eigenvalues --   25.95206  25.95206  25.96859  25.98017  32.58208
 Alpha virt. eigenvalues --   32.61405  32.61405  44.05920  45.12232  45.12724
 Alpha virt. eigenvalues --   45.12724  45.14216  45.15322  55.10794  55.13841
 Alpha virt. eigenvalues --   55.13841  87.54706  90.47585  90.47939  90.47939
 Alpha virt. eigenvalues --   90.49006  90.49683  94.01107  94.03659  94.03659
 Alpha virt. eigenvalues --  166.96958 166.98797 166.98797 178.60634 221.03132
 Alpha virt. eigenvalues --  221.03320 221.03320 221.03883 221.04158 312.00853
 Alpha virt. eigenvalues --  312.02007 312.02007 367.51768 609.60543 609.61193
 Alpha virt. eigenvalues --  609.61193 700.96281 700.96347 700.96347 700.96545
 Alpha virt. eigenvalues --  700.96609 752.962271234.183551234.186911234.18691
 Alpha virt. eigenvalues -- 1525.051282571.220972571.222572571.222573036.12507
 Alpha virt. eigenvalues -- 5481.708675481.709375481.709375898.90468**********
 Alpha virt. eigenvalues -- **************************************************
 Alpha virt. eigenvalues -- **************************************************
 Alpha virt. eigenvalues -- **************************************************
 Alpha virt. eigenvalues -- ******************************
     Molecular Orbital Coefficients:
                           6         7         8         9        10
                       (A1G)--O  (T1U)--O  (T1U)--O  (T1U)--O      O
     Eigenvalues --    -2.61754  -1.61970  -1.61970  -1.58598  -0.33963
   1 1   Sc 1S          0.00000   0.00000  -0.00000   0.00000  -0.00000
   2        2S          0.00000  -0.00000  -0.00000   0.00000  -0.00000
   3        3S          0.00000  -0.00000  -0.00000   0.00000  -0.00000
   4        4S          0.00001  -0.00000  -0.00000   0.00000  -0.00000
   5        5S          0.00003  -0.00000  -0.00000   0.00000  -0.00001
   6        6S          0.00006  -0.00000  -0.00000   0.00000  -0.00001
   7        7S          0.00012  -0.00000  -0.00000   0.00000  -0.00003
   8        8S          0.00025  -0.00000  -0.00000   0.00000  -0.00006
   9        9S          0.00055  -0.00000  -0.00000   0.00000  -0.00013
  10       10S          0.00122  -0.00000  -0.00000   0.00000  -0.00029
  11       11S          0.00271  -0.00000  -0.00000   0.00000  -0.00064
  12       12S          0.00602  -0.00000  -0.00000   0.00000  -0.00143
  13       13S          0.01249  -0.00000  -0.00000   0.00000  -0.00298
  14       14S          0.02482  -0.00000  -0.00000   0.00000  -0.00591
  15       15S          0.04206  -0.00000  -0.00000   0.00000  -0.01007
  16       16S          0.05995  -0.00000  -0.00000   0.00000  -0.01434
  17       17S          0.04209   0.00000  -0.00000   0.00000  -0.01027
  18       18S         -0.02539  -0.00000   0.00000  -0.00000   0.00644
  19       19S         -0.20652   0.00000   0.00000   0.00000   0.05087
  20       20S         -0.25173   0.00000   0.00000  -0.00000   0.07025
  21       21S         -0.06962   0.00000   0.00000  -0.00000   0.02136
  22       22S          0.07381   0.00000   0.00000  -0.00000  -0.02633
  23       23S          0.42761   0.00000  -0.00000  -0.00000  -0.13452
  24       24S          0.43391  -0.00000  -0.00000   0.00000  -0.27136
  25       25S          0.06135  -0.00000   0.00000  -0.00000  -0.08219
  26       26S          0.00652   0.00000   0.00000  -0.00000   0.38260
  27       27S         -0.00331  -0.00000   0.00000   0.00000   0.61620
  28       28S          0.00148  -0.00000   0.00000  -0.00000   0.20079
  29       29S         -0.19141  -0.00000  -0.00000   0.00000   0.04474
  30       30S          0.24364  -0.00000  -0.00000   0.00000  -0.08530
  31       31S         -0.00041   0.00000  -0.00000   0.00000   0.00097
  32       32PX         0.00000   0.00000   0.00000  -0.00000   0.00000
  33       32PY        -0.00000  -0.00000   0.00000  -0.00000   0.00000
  34       32PZ        -0.00000   0.00000  -0.00000  -0.00000  -0.00000
  35       33PX         0.00000   0.00000   0.00001  -0.00001  -0.00000
  36       33PY        -0.00000  -0.00002   0.00000  -0.00000   0.00000
  37       33PZ        -0.00000   0.00000  -0.00001  -0.00001   0.00000
  38       34PX         0.00000   0.00000   0.00004  -0.00005   0.00000
  39       34PY        -0.00000  -0.00007   0.00000  -0.00000   0.00000
  40       34PZ        -0.00000   0.00000  -0.00005  -0.00004  -0.00000
  41       35PX         0.00000   0.00000   0.00016  -0.00019   0.00000
  42       35PY        -0.00000  -0.00025   0.00000  -0.00000   0.00000
  43       35PZ        -0.00000   0.00000  -0.00019  -0.00016   0.00000
  44       36PX         0.00000   0.00000   0.00058  -0.00069   0.00000
  45       36PY        -0.00000  -0.00090   0.00000  -0.00000  -0.00000
  46       36PZ        -0.00000   0.00000  -0.00069  -0.00058   0.00000
  47       37PX         0.00000   0.00000   0.00187  -0.00221   0.00000
  48       37PY        -0.00000  -0.00289   0.00000  -0.00000   0.00000
  49       37PZ        -0.00000   0.00000  -0.00221  -0.00187   0.00000
  50       38PX         0.00000   0.00000   0.00541  -0.00638   0.00000
  51       38PY        -0.00000  -0.00838   0.00000  -0.00000  -0.00000
  52       38PZ        -0.00000   0.00000  -0.00638  -0.00541   0.00000
  53       39PX         0.00000   0.00000   0.01384  -0.01635   0.00000
  54       39PY        -0.00000  -0.02145   0.00000  -0.00000   0.00000
  55       39PZ        -0.00000   0.00000  -0.01635  -0.01384   0.00000
  56       40PX         0.00000   0.00000   0.03020  -0.03566   0.00000
  57       40PY        -0.00000  -0.04679   0.00000  -0.00000   0.00000
  58       40PZ        -0.00000   0.00000  -0.03566  -0.03020   0.00000
  59       41PX         0.00000   0.00000   0.05262  -0.06213   0.00000
  60       41PY        -0.00000  -0.08151   0.00000  -0.00000   0.00000
  61       41PZ        -0.00000   0.00000  -0.06213  -0.05262   0.00000
  62       42PX         0.00000   0.00000   0.07290  -0.08608   0.00000
  63       42PY        -0.00000  -0.11294   0.00000  -0.00000  -0.00000
  64       42PZ        -0.00000   0.00000  -0.08608  -0.07290   0.00000
  65       43PX         0.00000   0.00000   0.07002  -0.08269   0.00000
  66       43PY        -0.00000  -0.10854   0.00000  -0.00000   0.00000
  67       43PZ        -0.00000   0.00000  -0.08269  -0.07002   0.00000
  68       44PX         0.00000   0.00000  -0.00176   0.00208  -0.00000
  69       44PY         0.00000   0.00243   0.00000   0.00000   0.00000
  70       44PZ         0.00000   0.00000   0.00208   0.00176   0.00000
  71       45PX        -0.00000  -0.00000  -0.14031   0.16569  -0.00000
  72       45PY         0.00000   0.21724  -0.00000   0.00000  -0.00000
  73       45PZ         0.00000  -0.00000   0.16569   0.14031  -0.00000
  74       46PX        -0.00000  -0.00000  -0.24982   0.29501   0.00000
  75       46PY         0.00000   0.38915  -0.00000   0.00000  -0.00000
  76       46PZ         0.00000  -0.00000   0.29501   0.24982  -0.00000
  77       47PX        -0.00000  -0.00000  -0.23587   0.27853  -0.00000
  78       47PY         0.00000   0.36635  -0.00000   0.00000   0.00000
  79       47PZ         0.00000  -0.00000   0.27853   0.23587  -0.00000
  80       48PX        -0.00000  -0.00000  -0.09138   0.10791  -0.00000
  81       48PY         0.00000   0.13736  -0.00000   0.00000  -0.00000
  82       48PZ         0.00000  -0.00000   0.10791   0.09138  -0.00000
  83       49PX        -0.00000  -0.00000  -0.00874   0.01032   0.00000
  84       49PY         0.00000   0.01200  -0.00000   0.00000  -0.00000
  85       49PZ        -0.00000  -0.00000   0.01032   0.00874  -0.00000
  86       50PX        -0.00000  -0.00000  -0.00039   0.00046   0.00000
  87       50PY         0.00000   0.00074  -0.00000   0.00000  -0.00000
  88       50PZ        -0.00000  -0.00000   0.00046   0.00039   0.00000
  89       51PX        -0.00000  -0.00000  -0.00011   0.00013  -0.00000
  90       51PY         0.00000   0.00011  -0.00000   0.00000  -0.00000
  91       51PZ        -0.00000  -0.00000   0.00013   0.00011   0.00000
  92       52PX        -0.00000  -0.00000   0.00175  -0.00207   0.00000
  93       52PY         0.00000  -0.00287   0.00000  -0.00000  -0.00000
  94       52PZ         0.00000  -0.00000  -0.00207  -0.00175   0.00000
  95       53PX         0.00000   0.00000  -0.00722   0.00853  -0.00000
  96       53PY        -0.00000   0.01134  -0.00000   0.00000   0.00000
  97       53PZ        -0.00000   0.00000   0.00853   0.00722  -0.00000
  98       54PX        -0.00000  -0.00000   0.00002  -0.00002   0.00000
  99       54PY         0.00000  -0.00001  -0.00000   0.00000  -0.00000
 100       54PZ        -0.00000  -0.00000  -0.00002  -0.00002   0.00000
 101       55D 0       -0.00000  -0.00000   0.00000  -0.00000  -0.00000
 102       55D+1       -0.00000  -0.00000   0.00000   0.00000  -0.00000
 103       55D-1       -0.00000  -0.00000   0.00000  -0.00000  -0.00000
 104       55D+2       -0.00000   0.00000   0.00000   0.00000  -0.00000
 105       55D-2       -0.00000  -0.00000  -0.00000   0.00000  -0.00000
 106       56D 0       -0.00001  -0.00000   0.00000  -0.00000  -0.00001
 107       56D+1       -0.00000  -0.00000   0.00000   0.00000  -0.00000
 108       56D-1       -0.00000  -0.00000   0.00000  -0.00000  -0.00000
 109       56D+2       -0.00001   0.00000   0.00000   0.00000  -0.00002
 110       56D-2       -0.00000  -0.00000  -0.00000   0.00000  -0.00000
 111       57D 0       -0.00004  -0.00000   0.00000  -0.00000  -0.00005
 112       57D+1       -0.00000  -0.00000   0.00000   0.00000  -0.00000
 113       57D-1       -0.00000  -0.00000   0.00000  -0.00000  -0.00000
 114       57D+2       -0.00007   0.00000   0.00000   0.00000  -0.00009
 115       57D-2       -0.00000  -0.00000  -0.00000   0.00000  -0.00000
 116       58D 0       -0.00008  -0.00000   0.00000  -0.00000  -0.00019
 117       58D+1       -0.00000  -0.00000   0.00000   0.00000  -0.00000
 118       58D-1       -0.00000  -0.00000   0.00000  -0.00000  -0.00000
 119       58D+2       -0.00014   0.00000   0.00000   0.00000  -0.00033
 120       58D-2       -0.00000  -0.00000  -0.00000   0.00000  -0.00000
 121       59D 0       -0.00027  -0.00000   0.00000  -0.00000  -0.00046
 122       59D+1       -0.00000  -0.00000   0.00000  -0.00000  -0.00000
 123       59D-1       -0.00000  -0.00000   0.00000  -0.00000  -0.00000
 124       59D+2       -0.00046   0.00000   0.00000   0.00000  -0.00080
 125       59D-2       -0.00000  -0.00000  -0.00000   0.00000  -0.00000
 126       60D 0       -0.00126  -0.00000   0.00000  -0.00000  -0.00055
 127       60D+1       -0.00000  -0.00000   0.00000  -0.00000  -0.00000
 128       60D-1       -0.00000  -0.00000   0.00000  -0.00000  -0.00000
 129       60D+2       -0.00219   0.00000   0.00000   0.00000  -0.00096
 130       60D-2       -0.00000  -0.00000   0.00000   0.00000  -0.00000
 131       61D 0       -0.00196  -0.00000   0.00000  -0.00000  -0.00072
 132       61D+1       -0.00000  -0.00000   0.00000  -0.00000  -0.00000
 133       61D-1       -0.00000  -0.00000   0.00000  -0.00000  -0.00000
 134       61D+2       -0.00339  -0.00000   0.00000   0.00000  -0.00126
 135       61D-2       -0.00000  -0.00000   0.00000   0.00000  -0.00000
 136       62D 0       -0.00049  -0.00000   0.00000  -0.00000  -0.00236
 137       62D+1       -0.00000  -0.00000   0.00000   0.00000  -0.00000
 138       62D-1        0.00000  -0.00000   0.00000  -0.00000  -0.00000
 139       62D+2       -0.00084  -0.00000   0.00000   0.00000  -0.00408
 140       62D-2        0.00000   0.00000  -0.00000   0.00000  -0.00000
 141       63D 0        0.00017  -0.00000   0.00000  -0.00000  -0.00548
 142       63D+1       -0.00000  -0.00000   0.00000  -0.00000  -0.00000
 143       63D-1        0.00000  -0.00000   0.00000  -0.00000  -0.00000
 144       63D+2        0.00030  -0.00000   0.00000  -0.00000  -0.00950
 145       63D-2        0.00000   0.00000  -0.00000   0.00000   0.00000
 146       64D 0       -0.00002  -0.00000   0.00000  -0.00000  -0.00602
 147       64D+1       -0.00000  -0.00000   0.00000   0.00000  -0.00000
 148       64D-1        0.00000  -0.00000   0.00000  -0.00000  -0.00000
 149       64D+2       -0.00003  -0.00000   0.00000  -0.00000  -0.01043
 150       64D-2        0.00000   0.00000  -0.00000   0.00000   0.00000
 151       65D 0        0.00001  -0.00000   0.00000  -0.00000  -0.00293
 152       65D+1        0.00000  -0.00000   0.00000  -0.00000  -0.00000
 153       65D-1        0.00000  -0.00000   0.00000  -0.00000  -0.00000
 154       65D+2        0.00002  -0.00000   0.00000  -0.00000  -0.00508
 155       65D-2        0.00000   0.00000   0.00000   0.00000   0.00000
 156       66D 0       -0.00001  -0.00000   0.00000  -0.00000  -0.00031
 157       66D+1        0.00000  -0.00000   0.00000  -0.00000  -0.00000
 158       66D-1        0.00000  -0.00000   0.00000  -0.00000  -0.00000
 159       66D+2       -0.00001  -0.00000   0.00000  -0.00000  -0.00053
 160       66D-2        0.00000   0.00000   0.00000   0.00000   0.00000
 161       67D 0        0.00004   0.00000  -0.00000  -0.00000  -0.00009
 162       67D+1        0.00000  -0.00000  -0.00000   0.00000  -0.00000
 163       67D-1       -0.00000  -0.00000  -0.00000  -0.00000   0.00000
 164       67D+2        0.00007  -0.00000   0.00000   0.00000  -0.00015
 165       67D-2       -0.00000  -0.00000  -0.00000  -0.00000   0.00000
 166       68D 0       -0.00002  -0.00000  -0.00000  -0.00000  -0.00018
 167       68D+1       -0.00000  -0.00000  -0.00000   0.00000  -0.00000
 168       68D-1       -0.00000  -0.00000   0.00000  -0.00000  -0.00000
 169       68D+2       -0.00004  -0.00000   0.00000   0.00000  -0.00032
 170       68D-2       -0.00000  -0.00000  -0.00000  -0.00000   0.00000
 171       69D 0        0.00000  -0.00000   0.00000  -0.00000   0.00001
 172       69D+1        0.00000  -0.00000   0.00000  -0.00000  -0.00000
 173       69D-1        0.00000  -0.00000   0.00000  -0.00000   0.00000
 174       69D+2        0.00000  -0.00000   0.00000  -0.00000   0.00001
 175       69D-2        0.00000   0.00000   0.00000   0.00000  -0.00000
 176       70F 0       -0.00000   0.00000  -0.00071  -0.00060  -0.00000
 177       70F+1        0.00000  -0.00000  -0.00061   0.00072   0.00000
 178       70F-1       -0.00000  -0.00035  -0.00000  -0.00000   0.00000
 179       70F+2       -0.00000   0.00000   0.00036   0.00031  -0.00000
 180       70F-2        0.00000  -0.00000  -0.00000   0.00000  -0.00000
 181       70F+3       -0.00000   0.00000   0.00029  -0.00034  -0.00000
 182       70F-3       -0.00000  -0.00045   0.00000  -0.00000   0.00000
 183       71F 0       -0.00000   0.00000  -0.00210  -0.00178  -0.00000
 184       71F+1        0.00000  -0.00000  -0.00115   0.00136   0.00000
 185       71F-1       -0.00000  -0.00164  -0.00000  -0.00000  -0.00000
 186       71F+2       -0.00000   0.00000   0.00009   0.00007  -0.00000
 187       71F-2        0.00000  -0.00000  -0.00000   0.00000  -0.00000
 188       71F+3       -0.00000   0.00000   0.00136  -0.00161  -0.00000
 189       71F-3       -0.00000  -0.00212   0.00000  -0.00000   0.00000
 190       72F 0       -0.00000   0.00000  -0.00294  -0.00249  -0.00000
 191       72F+1        0.00000  -0.00000  -0.00238   0.00281   0.00000
 192       72F-1       -0.00000  -0.00157  -0.00000  -0.00000   0.00000
 193       72F+2       -0.00000   0.00000   0.00127   0.00108   0.00000
 194       72F-2        0.00000  -0.00000  -0.00000   0.00000  -0.00000
 195       72F+3       -0.00000   0.00000   0.00131  -0.00154  -0.00000
 196       72F-3       -0.00000  -0.00202   0.00000  -0.00000   0.00000
 197       73F 0       -0.00000   0.00000  -0.00142  -0.00120  -0.00000
 198       73F+1       -0.00000  -0.00000  -0.00173   0.00204   0.00000
 199       73F-1       -0.00000  -0.00023  -0.00000  -0.00000   0.00000
 200       73F+2       -0.00000  -0.00000   0.00148   0.00125   0.00000
 201       73F-2       -0.00000  -0.00000  -0.00000   0.00000  -0.00000
 202       73F+3       -0.00000   0.00000   0.00019  -0.00022  -0.00000
 203       73F-3       -0.00000  -0.00029   0.00000  -0.00000   0.00000
 204       74F 0       -0.00000  -0.00000  -0.00020  -0.00017  -0.00000
 205       74F+1        0.00000  -0.00000  -0.00024   0.00028   0.00000
 206       74F-1       -0.00000  -0.00003  -0.00000  -0.00000   0.00000
 207       74F+2       -0.00000  -0.00000   0.00020   0.00017   0.00000
 208       74F-2       -0.00000  -0.00000   0.00000  -0.00000  -0.00000
 209       74F+3       -0.00000  -0.00000   0.00003  -0.00003  -0.00000
 210       74F-3       -0.00000  -0.00004  -0.00000  -0.00000   0.00000
 211       75F 0       -0.00000  -0.00000   0.00003   0.00002   0.00000
 212       75F+1        0.00000   0.00000   0.00003  -0.00004   0.00000
 213       75F-1       -0.00000   0.00000  -0.00000  -0.00000   0.00000
 214       75F+2       -0.00000  -0.00000  -0.00003  -0.00002   0.00000
 215       75F-2       -0.00000  -0.00000   0.00000   0.00000   0.00000
 216       75F+3       -0.00000  -0.00000  -0.00000   0.00000  -0.00000
 217       75F-3       -0.00000   0.00001  -0.00000  -0.00000   0.00000
 218       76G 0       -0.00013   0.00000  -0.00000   0.00000  -0.00001
 219       76G+1        0.00000   0.00000  -0.00000   0.00000   0.00000
 220       76G-1       -0.00000  -0.00000  -0.00000  -0.00000  -0.00000
 221       76G+2        0.00015   0.00000  -0.00000  -0.00000   0.00002
 222       76G-2       -0.00000  -0.00000  -0.00000   0.00000   0.00000
 223       76G+3        0.00000   0.00000  -0.00000  -0.00000   0.00000
 224       76G-3        0.00000  -0.00000  -0.00000  -0.00000  -0.00000
 225       76G+4        0.00000   0.00000  -0.00000  -0.00000   0.00001
 226       76G-4        0.00000   0.00000  -0.00000   0.00000   0.00000
 227       77G 0       -0.00016   0.00000   0.00000   0.00000  -0.00017
 228       77G+1        0.00000  -0.00000   0.00000  -0.00000   0.00000
 229       77G-1       -0.00000   0.00000  -0.00000   0.00000   0.00000
 230       77G+2        0.00019   0.00000  -0.00000  -0.00000   0.00020
 231       77G-2       -0.00000   0.00000   0.00000   0.00000  -0.00000
 232       77G+3        0.00000  -0.00000   0.00000  -0.00000   0.00000
 233       77G-3        0.00000  -0.00000  -0.00000   0.00000   0.00000
 234       77G+4        0.00001   0.00000  -0.00000  -0.00000   0.00001
 235       77G-4       -0.00000   0.00000   0.00000  -0.00000   0.00000
 236       78G 0       -0.00065   0.00000   0.00000  -0.00000  -0.00002
 237       78G+1        0.00000  -0.00000   0.00000   0.00000   0.00000
 238       78G-1       -0.00000   0.00000  -0.00000  -0.00000   0.00000
 239       78G+2        0.00073   0.00000  -0.00000  -0.00000   0.00010
 240       78G-2       -0.00000   0.00000   0.00000   0.00000  -0.00000
 241       78G+3        0.00000  -0.00000  -0.00000  -0.00000   0.00000
 242       78G-3        0.00000  -0.00000  -0.00000   0.00000   0.00000
 243       78G+4        0.00000   0.00000   0.00000   0.00000   0.00006
 244       78G-4       -0.00000  -0.00000   0.00000  -0.00000  -0.00000
 245       79G 0       -0.00017   0.00000  -0.00000  -0.00000   0.00019
 246       79G+1        0.00000   0.00000   0.00000  -0.00000  -0.00000
 247       79G-1       -0.00000  -0.00000  -0.00000   0.00000   0.00000
 248       79G+2        0.00019  -0.00000   0.00000  -0.00000  -0.00010
 249       79G-2       -0.00000  -0.00000  -0.00000  -0.00000  -0.00000
 250       79G+3        0.00000   0.00000  -0.00000  -0.00000   0.00000
 251       79G-3        0.00000  -0.00000   0.00000  -0.00000   0.00000
 252       79G+4        0.00000   0.00000   0.00000  -0.00000   0.00009
 253       79G-4       -0.00000  -0.00000  -0.00000  -0.00000  -0.00000
 254       80G 0        0.00002  -0.00000  -0.00000   0.00000   0.00002
 255       80G+1       -0.00000   0.00000   0.00000   0.00000  -0.00000
 256       80G-1        0.00000  -0.00000  -0.00000  -0.00000   0.00000
 257       80G+2       -0.00002  -0.00000   0.00000   0.00000  -0.00001
 258       80G-2        0.00000   0.00000  -0.00000  -0.00000   0.00000
 259       80G+3       -0.00000   0.00000  -0.00000  -0.00000   0.00000
 260       80G-3       -0.00000   0.00000   0.00000  -0.00000  -0.00000
 261       80G+4       -0.00000  -0.00000   0.00000   0.00000   0.00001
 262       80G-4       -0.00000  -0.00000  -0.00000  -0.00000  -0.00000
 263       81H 0        0.00000  -0.00000   0.00009   0.00008  -0.00000
 264       81H+1       -0.00000  -0.00000  -0.00009   0.00010  -0.00000
 265       81H-1        0.00000   0.00005   0.00000   0.00000  -0.00000
 266       81H+2       -0.00000   0.00000  -0.00009  -0.00008   0.00000
 267       81H-2       -0.00000  -0.00000  -0.00000   0.00000  -0.00000
 268       81H+3        0.00000   0.00000   0.00006  -0.00007   0.00000
 269       81H-3       -0.00000  -0.00010  -0.00000  -0.00000   0.00000
 270       81H+4        0.00000   0.00000  -0.00000  -0.00000   0.00000
 271       81H-4        0.00000  -0.00000   0.00000  -0.00000   0.00000
 272       81H+5        0.00000  -0.00000  -0.00000   0.00000  -0.00000
 273       81H-5        0.00000   0.00000  -0.00000  -0.00000  -0.00000
 274       82H 0        0.00000  -0.00000   0.00012   0.00010  -0.00000
 275       82H+1       -0.00000  -0.00000  -0.00011   0.00013  -0.00000
 276       82H-1       -0.00000   0.00006   0.00000   0.00000   0.00000
 277       82H+2        0.00000   0.00000  -0.00012  -0.00010   0.00000
 278       82H-2       -0.00000  -0.00000  -0.00000   0.00000   0.00000
 279       82H+3       -0.00000   0.00000   0.00008  -0.00010  -0.00000
 280       82H-3        0.00000  -0.00012  -0.00000  -0.00000  -0.00000
 281       82H+4        0.00000   0.00000  -0.00000  -0.00000   0.00000
 282       82H-4       -0.00000  -0.00000   0.00000  -0.00000  -0.00000
 283       82H+5        0.00000  -0.00000  -0.00000   0.00000   0.00000
 284       82H-5        0.00000   0.00001  -0.00000   0.00000   0.00000
 285       83H 0       -0.00000   0.00000  -0.00007  -0.00006  -0.00000
 286       83H+1        0.00000   0.00000   0.00007  -0.00008   0.00000
 287       83H-1       -0.00000  -0.00003  -0.00000  -0.00000  -0.00000
 288       83H+2        0.00000  -0.00000   0.00007   0.00006   0.00000
 289       83H-2        0.00000   0.00000   0.00000  -0.00000  -0.00000
 290       83H+3       -0.00000  -0.00000  -0.00005   0.00006  -0.00000
 291       83H-3        0.00000   0.00008   0.00000   0.00000   0.00000
 292       83H+4        0.00000  -0.00000  -0.00000  -0.00000   0.00000
 293       83H-4       -0.00000   0.00000  -0.00000   0.00000  -0.00000
 294       83H+5        0.00000  -0.00000  -0.00000   0.00000   0.00000
 295       83H-5        0.00000   0.00000  -0.00000   0.00000  -0.00000
 296       84H 0       -0.00000   0.00000  -0.00000  -0.00000   0.00000
 297       84H+1        0.00000   0.00000   0.00000  -0.00000   0.00000
 298       84H-1        0.00000  -0.00000  -0.00000  -0.00000  -0.00000
 299       84H+2        0.00000  -0.00000   0.00000   0.00000  -0.00000
 300       84H-2        0.00000   0.00000  -0.00000  -0.00000  -0.00000
 301       84H+3       -0.00000  -0.00000  -0.00000   0.00000  -0.00000
 302       84H-3       -0.00000   0.00000   0.00000   0.00000   0.00000
 303       84H+4        0.00000  -0.00000   0.00000   0.00000   0.00000
 304       84H-4       -0.00000  -0.00000  -0.00000  -0.00000  -0.00000
 305       84H+5       -0.00000   0.00000   0.00000  -0.00000   0.00000
 306       84H-5       -0.00000  -0.00000   0.00000   0.00000  -0.00000
 307       85I 0       -0.00000  -0.00000  -0.00000  -0.00000  -0.00000
 308       85I+1       -0.00000  -0.00000   0.00000  -0.00000  -0.00000
 309       85I-1       -0.00000  -0.00000   0.00000  -0.00000  -0.00000
 310       85I+2       -0.00000   0.00000   0.00000   0.00000  -0.00000
 311       85I-2       -0.00000  -0.00000  -0.00000   0.00000  -0.00000
 312       85I+3        0.00000   0.00000   0.00000   0.00000   0.00000
 313       85I-3        0.00000   0.00000  -0.00000   0.00000   0.00000
 314       85I+4        0.00000   0.00000  -0.00000  -0.00000   0.00000
 315       85I-4        0.00000   0.00000   0.00000  -0.00000   0.00000
 316       85I+5        0.00000  -0.00000   0.00000  -0.00000   0.00000
 317       85I-5        0.00000  -0.00000  -0.00000   0.00000   0.00000
 318       85I+6       -0.00000   0.00000  -0.00000   0.00000  -0.00000
 319       85I-6        0.00000   0.00000   0.00000  -0.00000  -0.00000
 320       86I 0       -0.00000  -0.00000  -0.00000  -0.00000  -0.00000
 321       86I+1       -0.00000  -0.00000   0.00000   0.00000  -0.00000
 322       86I-1        0.00000  -0.00000   0.00000   0.00000  -0.00000
 323       86I+2       -0.00000   0.00000   0.00000   0.00000  -0.00000
 324       86I-2        0.00000  -0.00000  -0.00000  -0.00000  -0.00000
 325       86I+3        0.00000   0.00000   0.00000  -0.00000   0.00000
 326       86I-3       -0.00000   0.00000  -0.00000  -0.00000   0.00000
 327       86I+4        0.00000   0.00000  -0.00000   0.00000   0.00000
 328       86I-4       -0.00000   0.00000   0.00000   0.00000   0.00000
 329       86I+5        0.00000  -0.00000   0.00000   0.00000   0.00000
 330       86I-5        0.00000  -0.00000  -0.00000   0.00000   0.00000
 331       86I+6       -0.00000  -0.00000   0.00000  -0.00000  -0.00000
 332       86I-6        0.00000  -0.00000  -0.00000   0.00000   0.00000
 333       87I 0        0.00000   0.00000   0.00000  -0.00000  -0.00000
 334       87I+1        0.00000  -0.00000   0.00000  -0.00000  -0.00000
 335       87I-1        0.00000  -0.00000   0.00000  -0.00000  -0.00000
 336       87I+2       -0.00000  -0.00000  -0.00000   0.00000  -0.00000
 337       87I-2        0.00000   0.00000  -0.00000  -0.00000   0.00000
 338       87I+3       -0.00000   0.00000  -0.00000  -0.00000   0.00000
 339       87I-3       -0.00000   0.00000  -0.00000   0.00000   0.00000
 340       87I+4       -0.00000  -0.00000   0.00000   0.00000   0.00001
 341       87I-4       -0.00000  -0.00000  -0.00000   0.00000  -0.00000
 342       87I+5       -0.00000   0.00000  -0.00000   0.00000   0.00000
 343       87I-5       -0.00000   0.00000   0.00000  -0.00000   0.00000
 344       87I+6       -0.00000  -0.00000  -0.00000   0.00000  -0.00000
 345       87I-6        0.00000  -0.00000  -0.00000   0.00000   0.00000
                          11        12        13        14        15
                           O         V         V         V         V
     Eigenvalues --    -0.21574   0.01181   0.01271   0.01271   0.02000
   1 1   Sc 1S         -0.00000   0.00000  -0.00000   0.00000  -0.00000
   2        2S         -0.00000   0.00000  -0.00000   0.00000  -0.00000
   3        3S         -0.00000   0.00000  -0.00000   0.00000  -0.00000
   4        4S         -0.00000   0.00000  -0.00000   0.00000  -0.00000
   5        5S         -0.00000   0.00000  -0.00000   0.00000  -0.00000
   6        6S         -0.00000   0.00000  -0.00000   0.00000  -0.00000
   7        7S         -0.00000   0.00000  -0.00000   0.00000  -0.00001
   8        8S         -0.00000   0.00000  -0.00000   0.00000  -0.00001
   9        9S         -0.00000   0.00000  -0.00000   0.00000  -0.00002
  10       10S         -0.00000   0.00000  -0.00000   0.00000  -0.00008
  11       11S         -0.00000   0.00000  -0.00000   0.00000  -0.00009
  12       12S         -0.00000   0.00000  -0.00000   0.00000  -0.00042
  13       13S          0.00000   0.00000  -0.00000   0.00000  -0.00033
  14       14S         -0.00000   0.00000  -0.00000   0.00000  -0.00194
  15       15S          0.00000   0.00000  -0.00000   0.00000  -0.00046
  16       16S         -0.00000   0.00000  -0.00000   0.00000  -0.00682
  17       17S          0.00000  -0.00000  -0.00000  -0.00000   0.00660
  18       18S         -0.00000   0.00000  -0.00000   0.00000  -0.01923
  19       19S          0.00000  -0.00000   0.00000  -0.00000   0.06477
  20       20S         -0.00000   0.00000  -0.00000   0.00000  -0.23353
  21       21S          0.00000   0.00000  -0.00000   0.00000  -0.23644
  22       22S         -0.00000   0.00000  -0.00000   0.00000  -0.04973
  23       23S         -0.00000   0.00000  -0.00000   0.00000  -0.71865
  24       24S         -0.00000  -0.00000  -0.00000  -0.00000   0.42237
  25       25S          0.00000   0.00000  -0.00000   0.00000  -0.49218
  26       26S          0.00000  -0.00000   0.00000  -0.00000   0.82497
  27       27S         -0.00000   0.00000   0.00000   0.00000  -1.40786
  28       28S         -0.00000  -0.00000   0.00000  -0.00000   3.02047
  29       29S          0.00000  -0.00000   0.00000  -0.00000   0.40839
  30       30S          0.00000  -0.00000   0.00000  -0.00000   0.53036
  31       31S          0.00000   0.00000  -0.00000   0.00000  -2.69359
  32       32PX         0.00000   0.00000  -0.00000   0.00000   0.00000
  33       32PY         0.00000   0.00000  -0.00000  -0.00000   0.00000
  34       32PZ        -0.00000   0.00000   0.00000   0.00000  -0.00000
  35       33PX         0.00000   0.00000  -0.00000   0.00000   0.00000
  36       33PY         0.00000   0.00000  -0.00000  -0.00000   0.00000
  37       33PZ        -0.00000   0.00000   0.00000   0.00000  -0.00000
  38       34PX         0.00000   0.00000  -0.00000   0.00000   0.00000
  39       34PY         0.00000   0.00001  -0.00000  -0.00000   0.00000
  40       34PZ        -0.00000   0.00000   0.00000   0.00000  -0.00000
  41       35PX         0.00000   0.00000  -0.00001   0.00001   0.00000
  42       35PY         0.00000   0.00002  -0.00000  -0.00000   0.00000
  43       35PZ        -0.00000   0.00000   0.00001   0.00001  -0.00000
  44       36PX         0.00000   0.00000  -0.00005   0.00006   0.00000
  45       36PY         0.00000   0.00008  -0.00000  -0.00000   0.00000
  46       36PZ        -0.00000   0.00000   0.00006   0.00005  -0.00000
  47       37PX         0.00000   0.00000  -0.00013   0.00015   0.00000
  48       37PY         0.00000   0.00022  -0.00000  -0.00000   0.00000
  49       37PZ        -0.00000   0.00000   0.00015   0.00013  -0.00000
  50       38PX         0.00000   0.00000  -0.00046   0.00056   0.00000
  51       38PY         0.00000   0.00078  -0.00000  -0.00000   0.00000
  52       38PZ        -0.00000   0.00000   0.00056   0.00046  -0.00000
  53       39PX         0.00000   0.00000  -0.00091   0.00112   0.00000
  54       39PY         0.00000   0.00162  -0.00000  -0.00000   0.00000
  55       39PZ        -0.00000   0.00000   0.00112   0.00091  -0.00000
  56       40PX         0.00000   0.00000  -0.00268   0.00331   0.00000
  57       40PY         0.00000   0.00454  -0.00000  -0.00000   0.00000
  58       40PZ        -0.00000   0.00000   0.00331   0.00268  -0.00000
  59       41PX         0.00000   0.00000  -0.00281   0.00347  -0.00000
  60       41PY         0.00000   0.00523  -0.00000  -0.00000   0.00000
  61       41PZ        -0.00000   0.00000   0.00347   0.00281  -0.00000
  62       42PX        -0.00000   0.00000  -0.00963   0.01188   0.00000
  63       42PY         0.00000   0.01550  -0.00000  -0.00000   0.00000
  64       42PZ         0.00000   0.00000   0.01188   0.00963  -0.00000
  65       43PX         0.00000  -0.00000   0.02056  -0.02538  -0.00000
  66       43PY        -0.00000  -0.02800   0.00000   0.00000  -0.00000
  67       43PZ        -0.00000  -0.00000  -0.02538  -0.02056  -0.00000
  68       44PX         0.00000  -0.00000   0.05296  -0.06537  -0.00000
  69       44PY        -0.00000  -0.07636   0.00000   0.00000  -0.00000
  70       44PZ        -0.00000  -0.00000  -0.06537  -0.05296  -0.00000
  71       45PX        -0.00000   0.00000  -0.04901   0.06049   0.00000
  72       45PY         0.00000   0.06697  -0.00000  -0.00000   0.00000
  73       45PZ         0.00000   0.00000   0.06049   0.04901   0.00000
  74       46PX        -0.00000   0.00000  -0.24050   0.29687   0.00000
  75       46PY         0.00000   0.34000  -0.00000  -0.00000   0.00000
  76       46PZ         0.00000   0.00000   0.29687   0.24050   0.00000
  77       47PX         0.00000  -0.00000   0.08330  -0.10282  -0.00000
  78       47PY        -0.00000  -0.12816   0.00000   0.00000  -0.00000
  79       47PZ        -0.00000  -0.00000  -0.10282  -0.08330  -0.00000
  80       48PX        -0.00000   0.00000  -0.03954   0.04881   0.00000
  81       48PY         0.00000   0.05443  -0.00000  -0.00000   0.00000
  82       48PZ         0.00000   0.00000   0.04881   0.03954   0.00000
  83       49PX         0.00000  -0.00000   0.02786  -0.03439  -0.00000
  84       49PY        -0.00000  -0.02330   0.00000   0.00000  -0.00000
  85       49PZ        -0.00000  -0.00000  -0.03439  -0.02786  -0.00000
  86       50PX        -0.00000   0.00000  -0.23499   0.29007   0.00000
  87       50PY         0.00000   0.37233  -0.00000  -0.00000   0.00000
  88       50PZ         0.00000   0.00000   0.29007   0.23499   0.00000
  89       51PX         0.00000  -0.00000   0.18175  -0.22435  -0.00000
  90       51PY        -0.00000  -0.21985   0.00000   0.00000  -0.00000
  91       51PZ        -0.00000  -0.00000  -0.22434  -0.18175  -0.00000
  92       52PX        -0.00000   0.00000  -0.05563   0.06867   0.00000
  93       52PY         0.00000   0.08011  -0.00000  -0.00000   0.00000
  94       52PZ         0.00000   0.00000   0.06867   0.05563   0.00000
  95       53PX         0.00000  -0.00000   0.27035  -0.33371  -0.00000
  96       53PY        -0.00000  -0.38975   0.00000   0.00000  -0.00000
  97       53PZ        -0.00000  -0.00000  -0.33371  -0.27035  -0.00000
  98       54PX        -0.00000   0.00000  -0.66270   0.81803   0.00000
  99       54PY         0.00000   0.98614  -0.00000  -0.00000   0.00000
 100       54PZ         0.00000   0.00000   0.81803   0.66270   0.00000
 101       55D 0        0.00000  -0.00000   0.00000  -0.00000  -0.00000
 102       55D+1        0.00027  -0.00000  -0.00000  -0.00000   0.00000
 103       55D-1       -0.00000   0.00000   0.00000  -0.00000  -0.00000
 104       55D+2        0.00000   0.00000  -0.00000   0.00000  -0.00000
 105       55D-2        0.00000   0.00000  -0.00000   0.00000  -0.00000
 106       56D 0        0.00000  -0.00000   0.00000  -0.00000  -0.00000
 107       56D+1        0.00243  -0.00000  -0.00000  -0.00000   0.00000
 108       56D-1       -0.00000   0.00000   0.00000  -0.00000  -0.00000
 109       56D+2        0.00000   0.00000  -0.00000   0.00000  -0.00001
 110       56D-2        0.00000   0.00000  -0.00000   0.00000  -0.00000
 111       57D 0        0.00000  -0.00000   0.00000  -0.00000  -0.00002
 112       57D+1        0.01205  -0.00000  -0.00000  -0.00000   0.00000
 113       57D-1       -0.00000   0.00000   0.00000  -0.00000  -0.00000
 114       57D+2        0.00000   0.00000  -0.00000   0.00000  -0.00004
 115       57D-2        0.00000   0.00000  -0.00000   0.00000  -0.00000
 116       58D 0        0.00000  -0.00000   0.00000  -0.00000  -0.00007
 117       58D+1        0.03972  -0.00000  -0.00000  -0.00000   0.00000
 118       58D-1       -0.00000   0.00000   0.00000  -0.00000  -0.00000
 119       58D+2        0.00000   0.00000  -0.00000   0.00000  -0.00012
 120       58D-2        0.00000   0.00000  -0.00000   0.00000  -0.00000
 121       59D 0        0.00000  -0.00000   0.00000  -0.00000  -0.00018
 122       59D+1        0.10248  -0.00000  -0.00000  -0.00000   0.00000
 123       59D-1       -0.00000   0.00000   0.00000  -0.00000  -0.00000
 124       59D+2        0.00000   0.00000  -0.00000   0.00000  -0.00032
 125       59D-2        0.00000   0.00000  -0.00000   0.00000  -0.00000
 126       60D 0        0.00000  -0.00000   0.00000  -0.00000  -0.00039
 127       60D+1        0.19568  -0.00000  -0.00000   0.00000  -0.00000
 128       60D-1       -0.00000   0.00000   0.00000   0.00000  -0.00000
 129       60D+2        0.00000   0.00000  -0.00000   0.00000  -0.00067
 130       60D-2        0.00000  -0.00000  -0.00000   0.00000   0.00000
 131       61D 0        0.00000  -0.00000   0.00000  -0.00000  -0.00044
 132       61D+1        0.28105  -0.00000  -0.00000   0.00000  -0.00000
 133       61D-1       -0.00000   0.00000   0.00000   0.00000  -0.00000
 134       61D+2        0.00000   0.00000  -0.00000   0.00000  -0.00076
 135       61D-2        0.00000  -0.00000  -0.00000   0.00000   0.00000
 136       62D 0        0.00000  -0.00000   0.00000  -0.00000  -0.00071
 137       62D+1        0.31636  -0.00000  -0.00000  -0.00000   0.00000
 138       62D-1       -0.00000   0.00000   0.00000  -0.00000  -0.00000
 139       62D+2        0.00000   0.00000  -0.00000   0.00000  -0.00123
 140       62D-2        0.00000  -0.00000  -0.00000   0.00000  -0.00000
 141       63D 0        0.00000  -0.00000   0.00000  -0.00000  -0.00141
 142       63D+1        0.25980  -0.00000  -0.00000   0.00000  -0.00000
 143       63D-1       -0.00000   0.00000   0.00000   0.00000  -0.00000
 144       63D+2        0.00000   0.00000  -0.00000   0.00000  -0.00244
 145       63D-2        0.00000  -0.00000  -0.00000   0.00000   0.00000
 146       64D 0        0.00000  -0.00000   0.00000  -0.00000  -0.00156
 147       64D+1        0.12963  -0.00000  -0.00000  -0.00000   0.00000
 148       64D-1       -0.00000   0.00000   0.00000  -0.00000  -0.00000
 149       64D+2        0.00000   0.00000  -0.00000   0.00000  -0.00270
 150       64D-2        0.00000  -0.00000  -0.00000  -0.00000  -0.00000
 151       65D 0        0.00000  -0.00000   0.00000  -0.00000  -0.00083
 152       65D+1        0.02449   0.00000   0.00000   0.00000  -0.00000
 153       65D-1        0.00000   0.00000   0.00000   0.00000  -0.00000
 154       65D+2        0.00000   0.00000  -0.00000   0.00000  -0.00144
 155       65D-2        0.00000  -0.00000  -0.00000  -0.00000   0.00000
 156       66D 0        0.00000  -0.00000   0.00000  -0.00000  -0.00070
 157       66D+1        0.00007   0.00000  -0.00000  -0.00000   0.00000
 158       66D-1        0.00000   0.00000  -0.00000  -0.00000   0.00000
 159       66D+2       -0.00000   0.00000  -0.00000   0.00000  -0.00121
 160       66D-2       -0.00000  -0.00000  -0.00000  -0.00000  -0.00000
 161       67D 0        0.00000   0.00000   0.00000   0.00000   0.00006
 162       67D+1        0.00154  -0.00000  -0.00000  -0.00000   0.00000
 163       67D-1       -0.00000   0.00000  -0.00000  -0.00000   0.00000
 164       67D+2       -0.00000   0.00000   0.00000   0.00000   0.00010
 165       67D-2       -0.00000   0.00000   0.00000   0.00000  -0.00000
 166       68D 0        0.00000   0.00000   0.00000   0.00000   0.00007
[...]
 114       57D+2        0.00000   0.00000   0.00000   0.00000
 115       57D-2        0.00000   0.00000   0.00000   0.00000
 116       58D 0        0.00000   0.00000   0.00000   0.00000
 117       58D+1        0.01056   0.01056   0.00000   0.01056
 118       58D-1        0.00000   0.00000   0.00000   0.00000
 119       58D+2        0.00000   0.00000   0.00000   0.00000
 120       58D-2        0.00000   0.00000   0.00000   0.00000
 121       59D 0        0.00000   0.00000   0.00000   0.00000
 122       59D+1        0.04879   0.04879   0.00000   0.04879
 123       59D-1        0.00000   0.00000   0.00000   0.00000
 124       59D+2        0.00001   0.00001   0.00001   0.00000
 125       59D-2        0.00000   0.00000   0.00000   0.00000
 126       60D 0        0.00001   0.00001   0.00001   0.00000
 127       60D+1        0.13669   0.13669   0.00000   0.13669
 128       60D-1        0.00000   0.00000   0.00000   0.00000
 129       60D+2        0.00004   0.00002   0.00002   0.00000
 130       60D-2        0.00000   0.00000   0.00000   0.00000
 131       61D 0        0.00002   0.00001   0.00001   0.00000
 132       61D+1        0.24251   0.24251   0.00000   0.24251
 133       61D-1        0.00000   0.00000   0.00000   0.00000
 134       61D+2        0.00007   0.00003   0.00003   0.00000
 135       61D-2        0.00000   0.00000   0.00000   0.00000
 136       62D 0        0.00005   0.00003   0.00003   0.00000
 137       62D+1        0.28356   0.28356   0.00000   0.28356
 138       62D-1        0.00000   0.00000   0.00000   0.00000
 139       62D+2        0.00015   0.00008   0.00008   0.00000
 140       62D-2        0.00000   0.00000   0.00000   0.00000
 141       63D 0        0.00015   0.00007   0.00007   0.00000
 142       63D+1        0.19933   0.19933   0.00000   0.19933
 143       63D-1        0.00000   0.00000   0.00000   0.00000
 144       63D+2        0.00044   0.00022   0.00022   0.00000
 145       63D-2        0.00000   0.00000   0.00000   0.00000
 146       64D 0        0.00016   0.00008   0.00008   0.00000
 147       64D+1        0.06801   0.06801   0.00000   0.06801
 148       64D-1        0.00000   0.00000   0.00000   0.00000
 149       64D+2        0.00049   0.00025   0.00025   0.00000
 150       64D-2        0.00000   0.00000   0.00000   0.00000
 151       65D 0        0.00006   0.00003   0.00003   0.00000
 152       65D+1        0.00681   0.00681   0.00000   0.00681
 153       65D-1        0.00000   0.00000   0.00000  -0.00000
 154       65D+2        0.00018   0.00009   0.00009   0.00000
 155       65D-2        0.00000   0.00000   0.00000   0.00000
 156       66D 0        0.00000   0.00000   0.00000   0.00000
 157       66D+1        0.00001   0.00001   0.00000   0.00001
 158       66D-1        0.00000   0.00000   0.00000  -0.00000
 159       66D+2        0.00001   0.00000   0.00000  -0.00000
 160       66D-2       -0.00000  -0.00000   0.00000  -0.00000
 161       67D 0        0.00000   0.00000   0.00000   0.00000
 162       67D+1        0.00097   0.00097  -0.00000   0.00097
 163       67D-1        0.00000   0.00000   0.00000   0.00000
 164       67D+2        0.00000   0.00000   0.00000  -0.00000
 165       67D-2       -0.00000  -0.00000  -0.00000  -0.00000
 166       68D 0        0.00000   0.00000   0.00000   0.00000
 167       68D+1        0.00122   0.00122   0.00000   0.00122
 168       68D-1        0.00000   0.00000   0.00000   0.00000
 169       68D+2        0.00001   0.00000   0.00000  -0.00000
 170       68D-2       -0.00000  -0.00000   0.00000  -0.00000
 171       69D 0       -0.00000  -0.00000  -0.00000  -0.00000
 172       69D+1        0.00000   0.00000   0.00000   0.00000
 173       69D-1        0.00000   0.00000   0.00000   0.00000
 174       69D+2       -0.00000  -0.00000  -0.00000  -0.00000
 175       69D-2       -0.00000  -0.00000  -0.00000   0.00000
 176       70F 0        0.00001   0.00000   0.00000   0.00000
 177       70F+1        0.00001   0.00000   0.00000   0.00000
 178       70F-1        0.00000   0.00000   0.00000   0.00000
 179       70F+2        0.00000   0.00000   0.00000   0.00000
 180       70F-2        0.00000   0.00000   0.00000   0.00000
 181       70F+3        0.00000   0.00000   0.00000   0.00000
 182       70F-3        0.00000   0.00000   0.00000   0.00000
 183       71F 0        0.00004   0.00002   0.00002   0.00000
 184       71F+1        0.00002   0.00001   0.00001   0.00000
 185       71F-1        0.00001   0.00000   0.00000   0.00000
 186       71F+2        0.00000   0.00000   0.00000   0.00000
 187       71F-2        0.00000   0.00000   0.00000   0.00000
 188       71F+3        0.00002   0.00001   0.00001   0.00000
 189       71F-3        0.00002   0.00001   0.00001   0.00000
 190       72F 0        0.00006   0.00003   0.00003   0.00000
 191       72F+1        0.00005   0.00003   0.00003   0.00000
 192       72F-1        0.00001   0.00000   0.00000   0.00000
 193       72F+2        0.00001   0.00001   0.00001   0.00000
 194       72F-2        0.00000   0.00000   0.00000   0.00000
 195       72F+3        0.00002   0.00001   0.00001   0.00000
 196       72F-3        0.00002   0.00001   0.00001   0.00000
 197       73F 0        0.00002   0.00001   0.00001   0.00000
 198       73F+1        0.00003   0.00002   0.00002   0.00000
 199       73F-1        0.00000   0.00000   0.00000   0.00000
 200       73F+2        0.00001   0.00001   0.00001   0.00000
 201       73F-2        0.00000   0.00000   0.00000   0.00000
 202       73F+3        0.00000   0.00000   0.00000   0.00000
 203       73F-3        0.00000   0.00000   0.00000   0.00000
 204       74F 0        0.00000   0.00000   0.00000   0.00000
 205       74F+1        0.00000   0.00000   0.00000   0.00000
 206       74F-1        0.00000   0.00000   0.00000   0.00000
 207       74F+2        0.00000   0.00000   0.00000   0.00000
 208       74F-2        0.00000   0.00000   0.00000   0.00000
 209       74F+3        0.00000   0.00000   0.00000   0.00000
 210       74F-3        0.00000   0.00000   0.00000   0.00000
 211       75F 0       -0.00000  -0.00000  -0.00000   0.00000
 212       75F+1       -0.00000  -0.00000  -0.00000   0.00000
 213       75F-1       -0.00000  -0.00000  -0.00000   0.00000
 214       75F+2       -0.00000  -0.00000  -0.00000   0.00000
 215       75F-2        0.00000   0.00000   0.00000   0.00000
 216       75F+3       -0.00000  -0.00000  -0.00000   0.00000
 217       75F-3       -0.00000  -0.00000  -0.00000   0.00000
 218       76G 0        0.00000   0.00000   0.00000   0.00000
 219       76G+1        0.00000   0.00000   0.00000   0.00000
 220       76G-1        0.00000   0.00000   0.00000   0.00000
 221       76G+2        0.00000   0.00000   0.00000   0.00000
 222       76G-2        0.00000   0.00000   0.00000   0.00000
 223       76G+3        0.00000   0.00000   0.00000   0.00000
 224       76G-3        0.00000   0.00000   0.00000   0.00000
 225       76G+4        0.00000   0.00000   0.00000   0.00000
 226       76G-4        0.00000   0.00000   0.00000   0.00000
 227       77G 0        0.00000   0.00000   0.00000   0.00000
 228       77G+1        0.00000   0.00000   0.00000   0.00000
 229       77G-1        0.00000   0.00000   0.00000   0.00000
 230       77G+2        0.00000   0.00000   0.00000   0.00000
 231       77G-2        0.00000   0.00000   0.00000   0.00000
 232       77G+3        0.00000   0.00000   0.00000   0.00000
 233       77G-3        0.00000   0.00000   0.00000   0.00000
 234       77G+4        0.00000   0.00000   0.00000   0.00000
 235       77G-4        0.00000   0.00000   0.00000   0.00000
 236       78G 0        0.00000   0.00000   0.00000   0.00000
 237       78G+1        0.00000   0.00000   0.00000   0.00000
 238       78G-1        0.00000   0.00000   0.00000   0.00000
 239       78G+2        0.00000   0.00000   0.00000   0.00000
 240       78G-2        0.00000   0.00000   0.00000   0.00000
 241       78G+3        0.00000   0.00000   0.00000   0.00000
 242       78G-3        0.00000   0.00000   0.00000   0.00000
 243       78G+4        0.00000   0.00000   0.00000   0.00000
 244       78G-4        0.00000   0.00000   0.00000   0.00000
 245       79G 0        0.00000   0.00000   0.00000   0.00000
 246       79G+1        0.00000   0.00000   0.00000   0.00000
 247       79G-1        0.00000   0.00000   0.00000   0.00000
 248       79G+2        0.00000   0.00000   0.00000   0.00000
 249       79G-2        0.00000   0.00000   0.00000   0.00000
 250       79G+3        0.00000   0.00000   0.00000   0.00000
 251       79G-3        0.00000   0.00000   0.00000   0.00000
 252       79G+4        0.00000   0.00000   0.00000   0.00000
 253       79G-4        0.00000   0.00000   0.00000   0.00000
 254       80G 0        0.00000   0.00000   0.00000   0.00000
 255       80G+1        0.00000   0.00000  -0.00000   0.00000
 256       80G-1        0.00000   0.00000   0.00000   0.00000
 257       80G+2       -0.00000  -0.00000  -0.00000  -0.00000
 258       80G-2       -0.00000  -0.00000   0.00000  -0.00000
 259       80G+3        0.00000   0.00000   0.00000   0.00000
 260       80G-3       -0.00000   0.00000  -0.00000   0.00000
 261       80G+4        0.00000   0.00000   0.00000   0.00000
 262       80G-4        0.00000   0.00000   0.00000  -0.00000
 263       81H 0        0.00000   0.00000   0.00000   0.00000
 264       81H+1        0.00000   0.00000   0.00000   0.00000
 265       81H-1        0.00000   0.00000   0.00000   0.00000
 266       81H+2        0.00000   0.00000   0.00000   0.00000
 267       81H-2        0.00000   0.00000   0.00000   0.00000
 268       81H+3        0.00000   0.00000   0.00000   0.00000
 269       81H-3        0.00000   0.00000   0.00000   0.00000
 270       81H+4        0.00000   0.00000   0.00000   0.00000
 271       81H-4        0.00000   0.00000   0.00000  -0.00000
 272       81H+5        0.00000   0.00000   0.00000   0.00000
 273       81H-5        0.00000   0.00000   0.00000  -0.00000
 274       82H 0        0.00000   0.00000   0.00000   0.00000
 275       82H+1        0.00000   0.00000   0.00000  -0.00000
 276       82H-1        0.00000   0.00000   0.00000   0.00000
 277       82H+2        0.00000   0.00000   0.00000   0.00000
 278       82H-2        0.00000   0.00000   0.00000   0.00000
 279       82H+3        0.00000   0.00000   0.00000   0.00000
 280       82H-3        0.00000   0.00000   0.00000   0.00000
 281       82H+4        0.00000   0.00000   0.00000   0.00000
 282       82H-4        0.00000   0.00000   0.00000   0.00000
 283       82H+5        0.00000   0.00000   0.00000   0.00000
 284       82H-5        0.00000   0.00000   0.00000  -0.00000
 285       83H 0        0.00000   0.00000   0.00000   0.00000
 286       83H+1        0.00000   0.00000   0.00000   0.00000
 287       83H-1        0.00000   0.00000   0.00000   0.00000
 288       83H+2        0.00000   0.00000   0.00000  -0.00000
 289       83H-2        0.00000   0.00000   0.00000   0.00000
 290       83H+3        0.00000   0.00000   0.00000   0.00000
 291       83H-3        0.00000   0.00000   0.00000   0.00000
 292       83H+4        0.00000   0.00000   0.00000   0.00000
 293       83H-4        0.00000   0.00000   0.00000  -0.00000
 294       83H+5        0.00000   0.00000   0.00000   0.00000
 295       83H-5        0.00000   0.00000   0.00000   0.00000
 296       84H 0        0.00000   0.00000   0.00000   0.00000
 297       84H+1        0.00000   0.00000   0.00000   0.00000
 298       84H-1        0.00000   0.00000   0.00000   0.00000
 299       84H+2        0.00000   0.00000   0.00000   0.00000
 300       84H-2        0.00000   0.00000   0.00000  -0.00000
 301       84H+3        0.00000   0.00000   0.00000   0.00000
 302       84H-3        0.00000   0.00000   0.00000   0.00000
 303       84H+4        0.00000   0.00000   0.00000   0.00000
 304       84H-4        0.00000   0.00000   0.00000   0.00000
 305       84H+5       -0.00000  -0.00000  -0.00000   0.00000
 306       84H-5       -0.00000  -0.00000  -0.00000   0.00000
 307       85I 0        0.00000   0.00000   0.00000   0.00000
 308       85I+1        0.00000   0.00000   0.00000   0.00000
 309       85I-1        0.00000   0.00000   0.00000   0.00000
 310       85I+2        0.00000   0.00000   0.00000   0.00000
 311       85I-2        0.00000   0.00000   0.00000   0.00000
 312       85I+3        0.00000   0.00000   0.00000   0.00000
 313       85I-3        0.00000   0.00000   0.00000   0.00000
 314       85I+4        0.00000   0.00000   0.00000   0.00000
 315       85I-4        0.00000   0.00000   0.00000   0.00000
 316       85I+5        0.00000   0.00000   0.00000   0.00000
 317       85I-5        0.00000   0.00000   0.00000   0.00000
 318       85I+6        0.00000   0.00000   0.00000   0.00000
 319       85I-6        0.00000   0.00000   0.00000   0.00000
 320       86I 0        0.00000   0.00000   0.00000   0.00000
 321       86I+1        0.00000   0.00000   0.00000   0.00000
 322       86I-1        0.00000   0.00000   0.00000   0.00000
 323       86I+2        0.00000   0.00000   0.00000   0.00000
 324       86I-2        0.00000   0.00000   0.00000   0.00000
 325       86I+3        0.00000   0.00000   0.00000   0.00000
 326       86I-3        0.00000   0.00000   0.00000   0.00000
 327       86I+4        0.00000   0.00000   0.00000   0.00000
 328       86I-4        0.00000   0.00000  -0.00000   0.00000
 329       86I+5        0.00000   0.00000   0.00000   0.00000
 330       86I-5        0.00000   0.00000   0.00000   0.00000
 331       86I+6        0.00000   0.00000   0.00000   0.00000
 332       86I-6        0.00000   0.00000   0.00000   0.00000
 333       87I 0        0.00000   0.00000   0.00000   0.00000
 334       87I+1        0.00000   0.00000   0.00000   0.00000
 335       87I-1        0.00000   0.00000   0.00000   0.00000
 336       87I+2        0.00000   0.00000   0.00000   0.00000
 337       87I-2        0.00000   0.00000   0.00000   0.00000
 338       87I+3        0.00000   0.00000   0.00000   0.00000
 339       87I-3        0.00000   0.00000   0.00000   0.00000
 340       87I+4        0.00000   0.00000   0.00000   0.00000
 341       87I-4        0.00000   0.00000   0.00000   0.00000
 342       87I+5        0.00000   0.00000   0.00000   0.00000
 343       87I-5        0.00000   0.00000   0.00000   0.00000
 344       87I+6        0.00000   0.00000   0.00000   0.00000
 345       87I-6        0.00000   0.00000   0.00000   0.00000
          Condensed to atoms (all electrons):
               1
     1  Sc  21.000000
          Atomic-Atomic Spin Densities.
               1
     1  Sc   1.000000
 Mulliken charges and spin densities:
               1          2
     1  Sc  -0.000000   1.000000
 Sum of Mulliken charges =  -0.00000   1.00000
 Mulliken charges and spin densities with hydrogens summed into heavy atoms:
               1          2
     1  Sc  -0.000000   1.000000
 Electronic spatial extent (au):  <R**2>=             52.7700
 Charge=             -0.0000 electrons
 Dipole moment (field-independent basis, Debye):
    X=              0.0000    Y=              0.0000    Z=             -0.0000  Tot=              0.0000
 Quadrupole moment (field-independent basis, Debye-Ang):
   XX=            -23.7625   YY=            -23.4526   ZZ=            -23.7625
   XY=             -0.0000   XZ=             -0.0000   YZ=              0.0000
 Traceless Quadrupole moment (field-independent basis, Debye-Ang):
   XX=             -0.1033   YY=              0.2066   ZZ=             -0.1033
   XY=             -0.0000   XZ=             -0.0000   YZ=              0.0000
 Octapole moment (field-independent basis, Debye-Ang**2):
  XXX=             -0.0000  YYY=              0.0000  ZZZ=             -0.0000  XYY=             -0.0000
  XXY=              0.0000  XXZ=             -0.0000  XZZ=             -0.0000  YZZ=              0.0000
  YYZ=             -0.0000  XYZ=             -0.0000
 Hexadecapole moment (field-independent basis, Debye-Ang**3):
 XXXX=            -83.8182 YYYY=            -88.3382 ZZZZ=            -83.8182 XXXY=             -0.0000
 XXXZ=              0.0000 YYYX=             -0.0000 YYYZ=              0.0000 ZZZX=             -0.0000
 ZZZY=              0.0000 XXYY=            -28.6768 XXZZ=            -28.7513 YYZZ=            -28.6768
 XXYZ=              0.0000 YYXZ=              0.0000 ZZXY=             -0.0000
 N-N= 0.000000000000D+00 E-N=-1.829895813299D+03  KE= 7.849736486269D+02
 Orbital energies and kinetic energies (alpha):
                                 1                 2
   6         (A1G)--O         -2.617536          7.176508
   7         (T1U)--O         -1.619699          5.894977
   8         (T1U)--O         -1.619699          5.874592
   9         (T1U)--O         -1.585978          5.874592
  10         O                -0.339632          0.575647
  11         O                -0.215745          3.041705
  12         V                 0.011811          0.081533
  13         V                 0.012715          0.070695
  14         V                 0.012715          0.070695
  15         V                 0.019999          0.046380
  16         (EG)--V           0.026263          0.028014
 Total kinetic energy from orbitals= 7.880153532436D+02
 FoFCou: FMM=F IPFlag=           0 FMFlag=           0 FMFlg1=           0
         NFxFlg=           0 DoJE=F BraDBF=T KetDBF=F FulRan=T
         wScrn=  0.000000 ICntrl=   2000500 IOpCl=  0 I1Cent=           5 NGrid=           0
         NMat0=    1 NMatS0=      1 NMatT0=    0 NMatD0=    1 NMtDS0=    0 NMtDT0=    0
 Symmetry not used in FoFCou.
                          Isotropic Fermi Contact Couplings
        Atom                 a.u.       MegaHertz       Gauss      10(-4) cm-1
     1  Sc(45)            -0.00000      -0.00000      -0.00000      -0.00000
 --------------------------------------------------------
       Center         ----  Spin Dipole Couplings  ----
                      3XX-RR        3YY-RR        3ZZ-RR
 --------------------------------------------------------
     1   Atom        0.403024     -0.806048      0.403024
 --------------------------------------------------------
                        XY            XZ            YZ
 --------------------------------------------------------
     1   Atom       -0.000000      0.000000      0.000000
 --------------------------------------------------------


 ---------------------------------------------------------------------------------
              Anisotropic Spin Dipole Couplings in Principal Axis System
 ---------------------------------------------------------------------------------

       Atom             a.u.   MegaHertz   Gauss  10(-4) cm-1        Axes

              Baa    -0.8060  -104.636   -37.337   -34.903  0.0000  1.0000 -0.0000
     1 Sc(45) Bbb     0.4030    52.318    18.668    17.451  0.7071 -0.0000 -0.7071
              Bcc     0.4030    52.318    18.668    17.451  0.7071  0.0000  0.7071
 

 ---------------------------------------------------------------------------------

 No NMR shielding tensors so no spin-rotation constants.
 Leave Link  601 at Thu Feb 15 19:25:26 2018, MaxMem=  8589934592 cpu:             105.5 elap:               3.3
 (Enter /home1/apps/gaussian/16rA.03/g16/l9999.exe)
 1\1\GINC-C506-011\SP\ROCCSD(T)-Full\Gen\Sc1(2)\AANNABE\15-Feb-2018\0\\
 #P ROCCSD(T)=(maxcyc=150, Full)/Gen 5d 7f SCF=(maxcycles=300) Integral
 (DKHSO) MaxDisk=500GB Pop=Regular Guess=Read\\Sc\\0,2\Sc,0,0.,0.,0.\\V
 ersion=ES64L-G16RevA.03\HF=-763.2898456\MP2=-764.0485255\MP3=-764.0586
 832\PUHF=-763.2898456\PMP2-0=-764.0485255\MP4SDQ=-764.0582723\CCSD=-76
 4.0584986\CCSD(T)=-764.0749462\RMSD=1.368e-09\PG=OH [O(Sc1)]\\@


 UNLESS WE CHANGE DIRECTIONS, WE WILL WIND UP WHERE WE ARE HEADED.
     -- CONFUCIUS
 Job cpu time:       1 days  1 hours 10 minutes 30.8 seconds.
 Elapsed time:       0 days  0 hours 45 minutes 57.8 seconds.
 File lengths (MBytes):  RWF=  50843 Int=      0 D2E=      0 Chk=     13 Scr=      1
 Normal termination of Gaussian 16 at Thu Feb 15 19:25:31 2018.
