 Entering Gaussian System, Link 0=g16
 Initial command:
 /home1/apps/gaussian/16rA.03/g16/l1.exe "/tmp/Gau-81010.inp" -scrdir="/tmp/"
 Entering Link 1 = /home1/apps/gaussian/16rA.03/g16/l1.exe PID=     81012.
  
 Copyright (c) 1988,1990,1992,1993,1995,1998,2003,2009,2016,
            Gaussian, Inc.  All Rights Reserved.
  
 This is part of the Gaussian(R) 16 program.  It is based on
 the Gaussian(R) 09 system (copyright 2009, Gaussian, Inc.),
 the Gaussian(R) 03 system (copyright 2003, Gaussian, Inc.),
 the Gaussian(R) 98 system (copyright 1998, Gaussian, Inc.),
 the Gaussian(R) 94 system (copyright 1995, Gaussian, Inc.),
 the Gaussian 92(TM) system (copyright 1992, Gaussian, Inc.),
 the Gaussian 90(TM) system (copyright 1990, Gaussian, Inc.),
 the Gaussian 88(TM) system (copyright 1988, Gaussian, Inc.),
 the Gaussian 86(TM) system (copyright 1986, Carnegie Mellon
 University), and the Gaussian 82(TM) system (copyright 1983,
 Carnegie Mellon University). Gaussian is a federally registered
 trademark of Gaussian, Inc.
  
 This software contains proprietary and confidential information,
 including trade secrets, belonging to Gaussian, Inc.
  
 This software is provided under written license and may be
 used, copied, transmitted, or stored only in accord with that
 written license.
  
 The following legend is applicable only to US Government
 contracts under FAR:
  
                    RESTRICTED RIGHTS LEGEND
  
 Use, reproduction and disclosure by the US Government is
 subject to restrictions as set forth in subparagraphs (a)
 and (c) of the Commercial Computer Software - Restricted
 Rights clause in FAR 52.227-19.
  
 Gaussian, Inc.
 340 Quinnipiac St., Bldg. 40, Wallingford CT 06492
  
  
 ---------------------------------------------------------------
 Warning -- This program may not be used in any manner that
 competes with the business of Gaussian, Inc. or will provide
 assistance to any competitor of Gaussian, Inc.  The licensee
 of this program is prohibited from giving any competitor of
 Gaussian, Inc. access to this program.  By using this program,
 the user acknowledges that Gaussian, Inc. is engaged in the
 business of creating and licensing software in the field of
 computational chemistry and represents and warrants to the
 licensee that it is not a competitor of Gaussian, Inc. and that
 it will not use this program in any manner prohibited above.
 ---------------------------------------------------------------
  

 Cite this work as:
 Gaussian 16, Revision A.03,
 M. J. Frisch, G. W. Trucks, H. B. Schlegel, G. E. Scuseria, 
 M. A. Robb, J. R. Cheeseman, G. Scalmani, V. Barone, 
 G. A. Petersson, H. Nakatsuji, X. Li, M. Caricato, A. V. Marenich, 
 J. Bloino, B. G. Janesko, R. Gomperts, B. Mennucci, H. P. Hratchian, 
 J. V. Ortiz, A. F. Izmaylov, J. L. Sonnenberg, D. Williams-Young, 
 F. Ding, F. Lipparini, F. Egidi, J. Goings, B. Peng, A. Petrone, 
 T. Henderson, D. Ranasinghe, V. G. Zakrzewski, J. Gao, N. Rega, 
 G. Zheng, W. Liang, M. Hada, M. Ehara, K. Toyota, R. Fukuda, 
 J. Hasegawa, M. Ishida, T. Nakajima, Y. Honda, O. Kitao, H. Nakai, 
 T. Vreven, K. Throssell, J. A. Montgomery, Jr., J. E. Peralta, 
 F. Ogliaro, M. J. Bearpark, J. J. Heyd, E. N. Brothers, K. N. Kudin, 
 V. N. Staroverov, T. A. Keith, R. Kobayashi, J. Normand, 
 K. Raghavachari, A. P. Rendell, J. C. Burant, S. S. Iyengar, 
 J. Tomasi, M. Cossi, J. M. Millam, M. Klene, C. Adamo, R. Cammi, 
 J. W. Ochterski, R. L. Martin, K. Morokuma, O. Farkas, 
 J. B. Foresman, and D. J. Fox, Gaussian, Inc., Wallingford CT, 2016.
 
 ******************************************
 Gaussian 16:  ES64L-G16RevA.03 25-Dec-2016
                12-Mar-2018 
 ******************************************
 %MEM=80GB
 %CPU=0-15
 SetSPE:  set environment variable "MP_BIND" = "yes"
 SetSPE:  set environment variable "MP_BLIST" = "0,1,2,3,4,5,6,7,8,9,10,11,12,13,14,15"
 Will use up to   16 processors via shared memory.
 %RWF=/scratch/04843/aannabe/gaussian/
 %Int=/scratch/04843/aannabe/gaussian/
 %D2E=/scratch/04843/aannabe/gaussian/
 %NoSave
 %CHK=CrO
 ----------------------------------------------------------------------
 #P ROCCSD(T)=(maxcyc=150, Full, SaveAmplitudes, ReadAmplitudes)/Gen 5d
  7f SCF=(maxcycles=300) Integral(NoXCTest) MaxDisk=500GB Pop=Regular P
 seudo=Read Guess=Read IOp(5/15=2)
 ----------------------------------------------------------------------
 1/38=1,172=1/1;
 2/12=2,17=6,18=5,40=1/2;
 3/5=7,8=11,11=2,16=1,17=8,25=1,30=1,47=8,116=101/1,2,3;
 4/5=1/1;
 5/5=2,7=300,15=2,38=6/2;
 8/5=-1,6=4,9=120000,10=90,24=1/1,4;
 9/5=7,6=150,14=2,77=1/13;
 6//1;
 99/5=1,9=1/99;
 Leave Link    1 at Mon Mar 12 14:08:33 2018, MaxMem= 10737418240 cpu:               4.6 elap:               0.3
 (Enter /home1/apps/gaussian/16rA.03/g16/l101.exe)
 ---
 CrO
 ---
 Symbolic Z-matrix:
 Charge =  0 Multiplicity = 5
 Cr                    0.        0.        0. 
 O                     0.        0.        1.4 
 
 ITRead=  0  0
 MicOpt= -1 -1
 NAtoms=      2 NQM=        2 NQMF=       0 NMMI=      0 NMMIF=      0
                NMic=       0 NMicF=      0.
                    Isotopes and Nuclear Properties:
 (Nuclear quadrupole moments (NQMom) in fm**2, nuclear magnetic moments (NMagM)
  in nuclear magnetons)

  Atom         1           2
 IAtWgt=          52          16
 AtmWgt=  51.9405097  15.9949146
 NucSpn=           0           0
 AtZEff=  -0.0000000  -0.0000000
 NQMom=    0.0000000   0.0000000
 NMagM=    0.0000000   0.0000000
 AtZNuc=  24.0000000   8.0000000
 Leave Link  101 at Mon Mar 12 14:08:34 2018, MaxMem= 10737418240 cpu:               1.5 elap:               0.1
 (Enter /home1/apps/gaussian/16rA.03/g16/l202.exe)
                          Input orientation:                          
 ---------------------------------------------------------------------
 Center     Atomic      Atomic             Coordinates (Angstroms)
 Number     Number       Type             X           Y           Z
 ---------------------------------------------------------------------
      1         24           0        0.000000    0.000000    0.000000
      2          8           0        0.000000    0.000000    1.400000
 ---------------------------------------------------------------------
 Stoichiometry    CrO(5)
 Framework group  C*V[C*(OCr)]
 Deg. of freedom     1
 Full point group                 C*V     NOp   4
 Largest Abelian subgroup         C2V     NOp   4
 Largest concise Abelian subgroup C1      NOp   1
                         Standard orientation:                         
 ---------------------------------------------------------------------
 Center     Atomic      Atomic             Coordinates (Angstroms)
 Number     Number       Type             X           Y           Z
 ---------------------------------------------------------------------
      1         24           0        0.000000    0.000000    0.350000
      2          8           0        0.000000    0.000000   -1.050000
 ---------------------------------------------------------------------
 Rotational constants (GHZ):           0.0000000          21.0847903          21.0847903
 Leave Link  202 at Mon Mar 12 14:08:34 2018, MaxMem= 10737418240 cpu:               0.4 elap:               0.1
 (Enter /home1/apps/gaussian/16rA.03/g16/l301.exe)
 General basis read from cards:  (5D, 7F)
 Centers:       1
 S 1 1.00
     Exponent=  6.1771940000D+06 Coefficients=  1.0000000000D+00
 S 1 1.00
     Exponent=  9.2492950000D+05 Coefficients=  1.0000000000D+00
 S 1 1.00
     Exponent=  2.1048650000D+05 Coefficients=  1.0000000000D+00
 S 1 1.00
     Exponent=  5.9620050000D+04 Coefficients=  1.0000000000D+00
 S 1 1.00
     Exponent=  1.9450760000D+04 Coefficients=  1.0000000000D+00
 S 1 1.00
     Exponent=  7.0220560000D+03 Coefficients=  1.0000000000D+00
 S 1 1.00
     Exponent=  2.7387630000D+03 Coefficients=  1.0000000000D+00
 S 1 1.00
     Exponent=  1.1358140000D+03 Coefficients=  1.0000000000D+00
 S 1 1.00
     Exponent=  4.9509230000D+02 Coefficients=  1.0000000000D+00
 S 1 1.00
     Exponent=  2.2474870000D+02 Coefficients=  1.0000000000D+00
 S 1 1.00
     Exponent=  1.0538360000D+02 Coefficients=  1.0000000000D+00
 S 1 1.00
     Exponent=  5.0193590000D+01 Coefficients=  1.0000000000D+00
 S 1 1.00
     Exponent=  2.2249570000D+01 Coefficients=  1.0000000000D+00
 S 1 1.00
     Exponent=  1.0982650000D+01 Coefficients=  1.0000000000D+00
 S 1 1.00
     Exponent=  5.3836650000D+00 Coefficients=  1.0000000000D+00
 S 1 1.00
     Exponent=  2.3436850000D+00 Coefficients=  1.0000000000D+00
 S 1 1.00
     Exponent=  1.1052020000D+00 Coefficients=  1.0000000000D+00
 S 1 1.00
     Exponent=  4.8784800000D-01 Coefficients=  1.0000000000D+00
 S 1 1.00
     Exponent=  8.9599000000D-02 Coefficients=  1.0000000000D+00
 S 1 1.00
     Exponent=  3.3423000000D-02 Coefficients=  1.0000000000D+00
 S 1 1.00
     Exponent=  4.8281000000D+00 Coefficients=  1.0000000000D+00
 S 1 1.00
     Exponent=  1.1499000000D+00 Coefficients=  1.0000000000D+00
 S 1 1.00
     Exponent=  1.2470000000D-02 Coefficients=  1.0000000000D+00
 P 1 1.00
     Exponent=  1.4454200000D+04 Coefficients=  1.0000000000D+00
 P 1 1.00
     Exponent=  3.4216760000D+03 Coefficients=  1.0000000000D+00
 P 1 1.00
     Exponent=  1.1113870000D+03 Coefficients=  1.0000000000D+00
 P 1 1.00
     Exponent=  4.2519180000D+02 Coefficients=  1.0000000000D+00
 P 1 1.00
     Exponent=  1.8026230000D+02 Coefficients=  1.0000000000D+00
 P 1 1.00
     Exponent=  8.2061170000D+01 Coefficients=  1.0000000000D+00
 P 1 1.00
     Exponent=  3.9297260000D+01 Coefficients=  1.0000000000D+00
 P 1 1.00
     Exponent=  1.9419590000D+01 Coefficients=  1.0000000000D+00
 P 1 1.00
     Exponent=  9.8288990000D+00 Coefficients=  1.0000000000D+00
 P 1 1.00
     Exponent=  5.0168100000D+00 Coefficients=  1.0000000000D+00
 P 1 1.00
     Exponent=  2.4870910000D+00 Coefficients=  1.0000000000D+00
 P 1 1.00
     Exponent=  1.1987800000D+00 Coefficients=  1.0000000000D+00
 P 1 1.00
     Exponent=  5.5869500000D-01 Coefficients=  1.0000000000D+00
 P 1 1.00
     Exponent=  2.0936600000D-01 Coefficients=  1.0000000000D+00
 P 1 1.00
     Exponent=  8.4722000000D-02 Coefficients=  1.0000000000D+00
 P 1 1.00
     Exponent=  3.3278000000D-02 Coefficients=  1.0000000000D+00
 P 1 1.00
     Exponent=  5.2718000000D+00 Coefficients=  1.0000000000D+00
 P 1 1.00
     Exponent=  1.2083000000D+00 Coefficients=  1.0000000000D+00
 P 1 1.00
     Exponent=  1.3070000000D-02 Coefficients=  1.0000000000D+00
 D 1 1.00
     Exponent=  8.9474500000D+01 Coefficients=  1.0000000000D+00
 D 1 1.00
     Exponent=  2.6336800000D+01 Coefficients=  1.0000000000D+00
 D 1 1.00
     Exponent=  9.5342900000D+00 Coefficients=  1.0000000000D+00
 D 1 1.00
     Exponent=  3.8211800000D+00 Coefficients=  1.0000000000D+00
 D 1 1.00
     Exponent=  1.5716900000D+00 Coefficients=  1.0000000000D+00
 D 1 1.00
     Exponent=  6.2642200000D-01 Coefficients=  1.0000000000D+00
 D 1 1.00
     Exponent=  2.3305500000D-01 Coefficients=  1.0000000000D+00
 D 1 1.00
     Exponent=  7.6303000000D-02 Coefficients=  1.0000000000D+00
 D 1 1.00
     Exponent=  3.4093000000D+00 Coefficients=  1.0000000000D+00
 D 1 1.00
     Exponent=  1.5874000000D+00 Coefficients=  1.0000000000D+00
 D 1 1.00
     Exponent=  2.4980000000D-02 Coefficients=  1.0000000000D+00
 F 1 1.00
     Exponent=  4.3629000000D+00 Coefficients=  1.0000000000D+00
 F 1 1.00
     Exponent=  1.5864000000D+00 Coefficients=  1.0000000000D+00
 F 1 1.00
     Exponent=  5.2310000000D-01 Coefficients=  1.0000000000D+00
 F 1 1.00
     Exponent=  1.7249000000D-01 Coefficients=  1.0000000000D+00
 G 1 1.00
     Exponent=  4.0406000000D+00 Coefficients=  1.0000000000D+00
 G 1 1.00
     Exponent=  1.4199000000D+00 Coefficients=  1.0000000000D+00
 G 1 1.00
     Exponent=  4.9896000000D-01 Coefficients=  1.0000000000D+00
 ****
 Centers:       2
 S 1 1.00
     Exponent=  1.5330000000D+04 Coefficients=  1.0000000000D+00
 S 1 1.00
     Exponent=  2.2990000000D+03 Coefficients=  1.0000000000D+00
 S 1 1.00
     Exponent=  5.2240000000D+02 Coefficients=  1.0000000000D+00
 S 1 1.00
     Exponent=  1.4730000000D+02 Coefficients=  1.0000000000D+00
 S 1 1.00
     Exponent=  4.7550000000D+01 Coefficients=  1.0000000000D+00
 S 1 1.00
     Exponent=  1.6760000000D+01 Coefficients=  1.0000000000D+00
 S 1 1.00
     Exponent=  6.2070000000D+00 Coefficients=  1.0000000000D+00
 S 1 1.00
     Exponent=  6.8820000000D-01 Coefficients=  1.0000000000D+00
 S 1 1.00
     Exponent=  1.7520000000D+00 Coefficients=  1.0000000000D+00
 S 1 1.00
     Exponent=  2.3840000000D-01 Coefficients=  1.0000000000D+00
 S 1 1.00
     Exponent=  7.8450000000D+00 Coefficients=  1.0000000000D+00
 S 1 1.00
     Exponent=  2.1032000000D+01 Coefficients=  1.0000000000D+00
 S 1 1.00
     Exponent=  7.3760000000D-02 Coefficients=  1.0000000000D+00
 P 1 1.00
     Exponent=  3.4460000000D+01 Coefficients=  1.0000000000D+00
 P 1 1.00
     Exponent=  7.7490000000D+00 Coefficients=  1.0000000000D+00
 P 1 1.00
     Exponent=  2.2800000000D+00 Coefficients=  1.0000000000D+00
 P 1 1.00
     Exponent=  7.1560000000D-01 Coefficients=  1.0000000000D+00
 P 1 1.00
     Exponent=  2.1400000000D-01 Coefficients=  1.0000000000D+00
 P 1 1.00
     Exponent=  1.5159000000D+01 Coefficients=  1.0000000000D+00
 P 1 1.00
     Exponent=  5.7437000000D+01 Coefficients=  1.0000000000D+00
 P 1 1.00
     Exponent=  5.9740000000D-02 Coefficients=  1.0000000000D+00
 D 1 1.00
     Exponent=  2.3140000000D+00 Coefficients=  1.0000000000D+00
 D 1 1.00
     Exponent=  6.4500000000D-01 Coefficients=  1.0000000000D+00
 D 1 1.00
     Exponent=  1.5858000000D+01 Coefficients=  1.0000000000D+00
 D 1 1.00
     Exponent=  2.1400000000D-01 Coefficients=  1.0000000000D+00
 F 1 1.00
     Exponent=  1.4280000000D+00 Coefficients=  1.0000000000D+00
 F 1 1.00
     Exponent=  5.0000000000D-01 Coefficients=  1.0000000000D+00
 ****
 ======================================================================================================
                                       Pseudopotential Parameters
 ======================================================================================================
  Center     Atomic      Valence      Angular      Power
  Number     Number     Electrons     Momentum     of R      Exponent        Coefficient   SO-Coeffient
 ======================================================================================================
    1         24           14
                                      D and up 
                                                     1        2.9433766       14.00000000    0.00000000
                                                     3        3.4075035       41.20727267    0.00000000
                                                     2        3.3358711      -55.51413840    0.00000000
                                      S - D
                                                     2        9.1423178      103.26274052    0.00000000
                                      P - D
                                                     2        7.2122077       45.80124572    0.00000000
    2          8            6
                                      P and up 
                                                     1       12.3099700        6.00000000    0.00000000
                                                     3       14.7696200       73.85984000    0.00000000
                                                     2       13.7141900      -47.87600000    0.00000000
                                      S - P
                                                     2       13.6551200       85.86406000    0.00000000
 ======================================================================================================
 Ernie: Thresh=  0.10000D-02 Tol=  0.10000D-05 Strict=F.
 There are   144 symmetry adapted cartesian basis functions of A1  symmetry.
 There are    30 symmetry adapted cartesian basis functions of A2  symmetry.
 There are    69 symmetry adapted cartesian basis functions of B1  symmetry.
 There are    69 symmetry adapted cartesian basis functions of B2  symmetry.
 There are   114 symmetry adapted basis functions of A1  symmetry.
 There are    27 symmetry adapted basis functions of A2  symmetry.
 There are    60 symmetry adapted basis functions of B1  symmetry.
 There are    60 symmetry adapted basis functions of B2  symmetry.
   261 basis functions,   312 primitive gaussians,   312 cartesian basis functions
    12 alpha electrons        8 beta electrons
       nuclear repulsion energy        31.7506326552 Hartrees.
 IExCor=    0 DFT=F Ex=HF Corr=None ExCW=0 ScaHFX=  1.000000
 ScaDFX=  1.000000  1.000000  1.000000  1.000000 ScalE2=  1.000000  1.000000
 IRadAn=      5 IRanWt=     -1 IRanGd=            0 ICorTp=0 IEmpDi=  4
 NAtoms=    2 NActive=    2 NUniq=    2 SFac= 1.00D+00 NAtFMM=   60 NAOKFM=F Big=F
 Integral buffers will be    131072 words long.
 Raffenetti 2 integral format.
 Two-electron integral symmetry is turned on.
 Leave Link  301 at Mon Mar 12 14:08:35 2018, MaxMem= 10737418240 cpu:               3.9 elap:               0.3
 (Enter /home1/apps/gaussian/16rA.03/g16/l302.exe)
 NPDir=0 NMtPBC=     1 NCelOv=     1 NCel=       1 NClECP=     1 NCelD=      1
         NCelK=      1 NCelE2=     1 NClLst=     1 CellRange=     0.0.
 One-electron integrals computed using PRISM.
 One-electron integral symmetry used in STVInt
   4 Symmetry operations used in ECPInt.
 ECPInt:  NShTT=    3828 NPrTT=    3828 LenC2=    3578 LenP2D=    3577.
 LDataN:  DoStor=T MaxTD1= 8 Len=  415
 NBasis=   261 RedAO= T EigKep=  1.76D-06  NBF=   114    27    60    60
 NBsUse=   252 1.00D-06 EigRej=  4.92D-07 NBFU=   110    26    58    58
 Leave Link  302 at Mon Mar 12 14:08:36 2018, MaxMem= 10737418240 cpu:              15.2 elap:               1.0
 (Enter /home1/apps/gaussian/16rA.03/g16/l303.exe)
 DipDrv:  MaxL=1.
 Leave Link  303 at Mon Mar 12 14:08:36 2018, MaxMem= 10737418240 cpu:               1.1 elap:               0.1
 (Enter /home1/apps/gaussian/16rA.03/g16/l401.exe)
 Initial guess from the checkpoint file:  "CrO.chk"
 B after Tr=     0.000000    0.000000    0.000000
         Rot=    1.000000    0.000000    0.000000    0.000000 Ang=   0.00 deg.
 Guess basis will be translated and rotated to current coordinates.
 JPrj=2 DoOrth=T DoCkMO=T.
 Initial guess orbital symmetries:
       Occupied  (SG) (SG) (PI) (PI) (SG) (SG) (?A) (?A) (?B) (?B)
                 (?B) (?A)
       Virtual   (?B) (?A) (?A) (SG) (?B) (?A) (?A) (?B) (?B) (?A)
                 (?B) (?A) (SG) (?A) (?B) (?A) (?A) (?B) (?B) (?B)
                 (?A) (?A) (?B) (?A) (?A) (SG) (SG) (DLTA) (DLTA)
                 (PHI) (PHI) (?A) (SG) (?A) (?A) (?A) (?C) (?C)
                 (?C) (?C) (?A) (?A) (?C) (?C) (?A) (?A) (SG) (SG)
                 (PI) (PI) (SG) (DLTA) (DLTA) (?D) (?D) (?D) (?D)
                 (SG) (PHI) (PHI) (SG) (?E) (?E) (?F) (?F) (?E)
                 (?G) (?G) (?F) (?F) (DLTA) (DLTA) (PHI) (PHI)
                 (?H) (?A) (?A) (?H) (?H) (?H) (PI) (PI) (DLTA)
                 (DLTA) (SG) (SG) (?A) (?A) (?A) (?A) (SG) (PHI)
                 (PHI) (DLTA) (DLTA) (SG) (?A) (?A) (SG) (SG) (PI)
                 (PI) (?D) (?D) (?I) (?D) (?I) (?I) (?D) (?G) (?G)
                 (PHI) (PHI) (?J) (?J) (?J) (DLTA) (DLTA) (PI)
                 (PI) (PI) (PI) (?J) (?J) (?J) (?A) (?A) (SG) (SG)
                 (?D) (?D) (DLTA) (DLTA) (?D) (?D) (SG) (PI) (PI)
                 (SG) (PI) (PI) (SG) (SG) (?K) (?K) (PI) (PI) (?K)
                 (SG) (?D) (?D) (?L) (?L) (?L) (?L) (?D) (?D) (?L)
                 (PI) (PI) (SG) (DLTA) (DLTA) (PI) (PI) (SG) (SG)
                 (SG) (DLTA) (DLTA) (PI) (PI) (SG) (PI) (PI) (SG)
                 (PI) (PI) (SG) (SG) (SG) (DLTA) (DLTA) (PI) (PI)
                 (SG) (PI) (PI) (PI) (PI) (SG) (SG) (SG) (SG) (PI)
                 (PI) (SG) (SG) (SG) (PI) (PI) (SG) (DLTA) (DLTA)
                 (PI) (PI) (SG) (PI) (PI) (SG) (SG) (SG) (PI) (PI)
                 (SG) (SG) (SG) (PI) (PI) (SG) (SG) (SG) (PI) (PI)
                 (SG) (SG) (SG) (PI) (PI) (SG) (SG) (SG) (PI) (PI)
                 (SG) (SG) (SG) (SG) (SG) (SG)
 Leave Link  401 at Mon Mar 12 14:08:37 2018, MaxMem= 10737418240 cpu:               6.5 elap:               0.5
 (Enter /home1/apps/gaussian/16rA.03/g16/l502.exe)
 Keep R1 and R2 ints in memory in symmetry-blocked form, NReq=734602573.
 FoFCou: FMM=F IPFlag=           8 FMFlag=           0 FMFlg1=           0
         NFxFlg=           0 DoJE=F BraDBF=F KetDBF=F FulRan=T
         wScrn=  0.000000 ICntrl=       600 IOpCl=  0 I1Cent=           0 NGrid=           0
         NMat0=    1 NMatS0=  34191 NMatT0=    0 NMatD0=    1 NMtDS0=    0 NMtDT0=    0
 Petite list used in FoFCou.
 Restricted open shell SCF:
 Using DIIS extrapolation, IDIIS=  1040.
 NGot= 10737418240 LenX= 10437151885 LenY= 10437054100
 Requested convergence on RMS density matrix=1.00D-08 within 300 cycles.
 Requested convergence on MAX density matrix=1.00D-06.
 Requested convergence on             energy=1.00D-06.
 No special actions if energy rises.

 Cycle   1  Pass 1  IDiag  1:
 E= -101.334472382098    
 DIIS: error= 4.70D-01 at cycle   1 NSaved=   1.
 NSaved= 1 IEnMin= 1 EnMin= -101.334472382098     IErMin= 1 ErrMin= 4.70D-01
 ErrMax= 4.70D-01  0.00D+00 EMaxC= 1.00D-01 BMatC= 2.04D+01 BMatP= 2.04D+01
 IDIUse=3 WtCom= 0.00D+00 WtEn= 1.00D+00
 Coeff-Com:  0.100D+01
 Coeff-En:   0.100D+01
 Coeff:      0.100D+01
 Gap=     0.067 Goal=   None    Shift=    0.000
 GapD=    0.067 DampG=0.500 DampE=0.125 DampFc=0.1250 IDamp=-1.
 Damping current iteration by 1.25D-01
 RMSDP=1.53D-02 MaxDP=1.91D+00              OVMax= 5.46D-02

 Cycle   2  Pass 1  IDiag  1:
 E= -101.410033917860     Delta-E=       -0.075561535762 Rises=F Damp=T
 DIIS: error= 4.07D-01 at cycle   2 NSaved=   2.
 NSaved= 2 IEnMin= 2 EnMin= -101.410033917860     IErMin= 2 ErrMin= 4.07D-01
 ErrMax= 4.07D-01  0.00D+00 EMaxC= 1.00D-01 BMatC= 1.56D+01 BMatP= 2.04D+01
 IDIUse=3 WtCom= 0.00D+00 WtEn= 1.00D+00
 Coeff-Com: -0.682D+01 0.782D+01
 Coeff-En:   0.000D+00 0.100D+01
 Coeff:      0.000D+00 0.100D+01
 Gap=     0.072 Goal=   None    Shift=    0.000
 RMSDP=1.34D-02 MaxDP=1.66D+00 DE=-7.56D-02 OVMax= 7.30D-02

 Cycle   3  Pass 1  IDiag  1:
 E= -101.951553875534     Delta-E=       -0.541519957674 Rises=F Damp=F
 DIIS: error= 1.45D-02 at cycle   3 NSaved=   3.
 NSaved= 3 IEnMin= 3 EnMin= -101.951553875534     IErMin= 3 ErrMin= 1.45D-02
 ErrMax= 1.45D-02  0.00D+00 EMaxC= 1.00D-01 BMatC= 1.76D-02 BMatP= 1.56D+01
 IDIUse=3 WtCom= 8.55D-01 WtEn= 1.45D-01
 Coeff-Com:  0.214D+00-0.263D+00 0.105D+01
 Coeff-En:   0.000D+00 0.000D+00 0.100D+01
 Coeff:      0.182D+00-0.225D+00 0.104D+01
 Gap=     0.048 Goal=   None    Shift=    0.000
 RMSDP=1.17D-03 MaxDP=9.30D-02 DE=-5.42D-01 OVMax= 3.28D-01

 Cycle   4  Pass 1  IDiag  1:
 E= -101.932276047985     Delta-E=        0.019277827549 Rises=F Damp=F
 DIIS: error= 1.46D-02 at cycle   4 NSaved=   4.
 NSaved= 4 IEnMin= 3 EnMin= -101.951553875534     IErMin= 3 ErrMin= 1.45D-02
 ErrMax= 1.46D-02  0.00D+00 EMaxC= 1.00D-01 BMatC= 2.33D-02 BMatP= 1.76D-02
 IDIUse=2 WtCom= 0.00D+00 WtEn= 1.00D+00
 Coeff-En:   0.000D+00 0.000D+00 0.641D+00 0.359D+00
 Coeff:      0.000D+00 0.000D+00 0.641D+00 0.359D+00
 Gap=     0.070 Goal=   None    Shift=    0.000
 RMSDP=1.35D-03 MaxDP=1.47D-01 DE= 1.93D-02 OVMax= 3.36D-01

 Cycle   5  Pass 1  IDiag  1:
 E= -101.956654188564     Delta-E=       -0.024378140580 Rises=F Damp=F
 DIIS: error= 4.82D-03 at cycle   5 NSaved=   5.
 NSaved= 5 IEnMin= 5 EnMin= -101.956654188564     IErMin= 5 ErrMin= 4.82D-03
 ErrMax= 4.82D-03  0.00D+00 EMaxC= 1.00D-01 BMatC= 3.05D-03 BMatP= 1.76D-02
 IDIUse=3 WtCom= 9.52D-01 WtEn= 4.82D-02
 Coeff-Com:  0.400D-01-0.495D-01 0.187D+00 0.241D+00 0.582D+00
 Coeff-En:   0.000D+00 0.000D+00 0.000D+00 0.347D+00 0.653D+00
 Coeff:      0.380D-01-0.472D-01 0.178D+00 0.246D+00 0.585D+00
 Gap=     0.079 Goal=   None    Shift=    0.000
 RMSDP=1.55D-03 MaxDP=1.23D-01 DE=-2.44D-02 OVMax= 1.84D-01

 Cycle   6  Pass 1  IDiag  1:
 E= -101.958658785433     Delta-E=       -0.002004596869 Rises=F Damp=F
 DIIS: error= 4.47D-03 at cycle   6 NSaved=   6.
 NSaved= 6 IEnMin= 6 EnMin= -101.958658785433     IErMin= 6 ErrMin= 4.47D-03
 ErrMax= 4.47D-03  0.00D+00 EMaxC= 1.00D-01 BMatC= 2.25D-03 BMatP= 3.05D-03
 IDIUse=3 WtCom= 9.55D-01 WtEn= 4.47D-02
 EnCoef did    14 forward-backward iterations
 Coeff-Com:  0.139D+00-0.158D+00-0.243D-01 0.513D-01 0.495D+00 0.498D+00
 Coeff-En:   0.000D+00 0.000D+00 0.000D+00 0.217D+00 0.542D+00 0.241D+00
 Coeff:      0.132D+00-0.151D+00-0.232D-01 0.588D-01 0.497D+00 0.486D+00
 Gap=     0.075 Goal=   None    Shift=    0.000
 RMSDP=1.03D-03 MaxDP=7.00D-02 DE=-2.00D-03 OVMax= 7.62D-02

 Cycle   7  Pass 1  IDiag  1:
 E= -101.963478445826     Delta-E=       -0.004819660393 Rises=F Damp=F
 DIIS: error= 1.58D-03 at cycle   7 NSaved=   7.
 NSaved= 7 IEnMin= 7 EnMin= -101.963478445826     IErMin= 7 ErrMin= 1.58D-03
 ErrMax= 1.58D-03  0.00D+00 EMaxC= 1.00D-01 BMatC= 2.28D-04 BMatP= 2.25D-03
 IDIUse=3 WtCom= 9.84D-01 WtEn= 1.58D-02
 Rare condition: small coef for last iteration: -0.222D-15
 Coeff-Com:  0.126D+00-0.144D+00-0.184D-01 0.423D-02 0.208D+00 0.268D+00
 Coeff-Com:  0.556D+00
 Coeff-En:   0.000D+00 0.000D+00 0.000D+00 0.113D+00 0.188D+00 0.154D+00
 Coeff-En:   0.544D+00
 Coeff:      0.126D+00-0.144D+00-0.184D-01 0.423D-02 0.208D+00 0.268D+00
 Coeff:      0.556D+00
 Gap=     0.071 Goal=   None    Shift=    0.000
 RMSDP=3.83D-04 MaxDP=3.22D-02 DE=-4.82D-03 OVMax= 3.50D-02

 Cycle   8  Pass 1  IDiag  1:
 E= -101.963573707734     Delta-E=       -0.000095261907 Rises=F Damp=F
 DIIS: error= 1.67D-03 at cycle   8 NSaved=   8.
 NSaved= 8 IEnMin= 8 EnMin= -101.963573707734     IErMin= 7 ErrMin= 1.58D-03
 ErrMax= 1.67D-03  0.00D+00 EMaxC= 1.00D-01 BMatC= 2.36D-04 BMatP= 2.28D-04
 IDIUse=3 WtCom= 9.84D-01 WtEn= 1.58D-02
 EnCoef did   100 forward-backward iterations
 Rare condition: small coef for last iteration:  0.000D+00
 Coeff-Com:  0.925D-01-0.105D+00 0.113D-01-0.769D-03-0.569D-02 0.462D-01
 Coeff-Com:  0.508D+00 0.454D+00
 Coeff-En:   0.000D+00 0.000D+00 0.000D+00 0.114D+00 0.128D+00 0.117D+00
 Coeff-En:   0.304D+00 0.336D+00
 Coeff:      0.925D-01-0.105D+00 0.113D-01-0.769D-03-0.569D-02 0.462D-01
 Coeff:      0.508D+00 0.454D+00
 Gap=     0.069 Goal=   None    Shift=    0.000
 RMSDP=3.19D-04 MaxDP=2.29D-02 DE=-9.53D-05 OVMax= 2.98D-02

 Cycle   9  Pass 1  IDiag  1:
 E= -101.964027638425     Delta-E=       -0.000453930691 Rises=F Damp=F
 DIIS: error= 6.13D-04 at cycle   9 NSaved=   9.
 NSaved= 9 IEnMin= 9 EnMin= -101.964027638425     IErMin= 9 ErrMin= 6.13D-04
 ErrMax= 6.13D-04  0.00D+00 EMaxC= 1.00D-01 BMatC= 6.93D-05 BMatP= 2.28D-04
 IDIUse=3 WtCom= 9.94D-01 WtEn= 6.13D-03
 EnCoef did   100 forward-backward iterations
 Rare condition: small coef for last iteration:  0.000D+00
 Coeff-Com:  0.498D-01-0.570D-01 0.313D-01-0.557D-03-0.131D+00-0.119D+00
 Coeff-Com:  0.102D+00 0.385D+00 0.739D+00
 Coeff-En:   0.000D+00 0.000D+00 0.000D+00 0.108D+00 0.916D-01 0.739D-01
 Coeff-En:   0.000D+00 0.219D+00 0.508D+00
 Coeff:      0.498D-01-0.570D-01 0.313D-01-0.557D-03-0.131D+00-0.119D+00
 Coeff:      0.102D+00 0.385D+00 0.739D+00
 Gap=     0.067 Goal=   None    Shift=    0.000
 RMSDP=2.23D-04 MaxDP=1.59D-02 DE=-4.54D-04 OVMax= 1.60D-02

 Cycle  10  Pass 1  IDiag  1:
 E= -101.964189740195     Delta-E=       -0.000162101770 Rises=F Damp=F
 DIIS: error= 3.61D-04 at cycle  10 NSaved=  10.
 NSaved=10 IEnMin=10 EnMin= -101.964189740195     IErMin=10 ErrMin= 3.61D-04
 ErrMax= 3.61D-04  0.00D+00 EMaxC= 1.00D-01 BMatC= 1.99D-05 BMatP= 6.93D-05
 IDIUse=3 WtCom= 9.96D-01 WtEn= 3.61D-03
 EnCoef did   100 forward-backward iterations
 Rare condition: small coef for last iteration:  0.000D+00
 Coeff-Com:  0.279D-01-0.319D-01 0.142D-01-0.181D-02-0.312D-01-0.312D-01
 Coeff-Com: -0.125D+00-0.104D-01 0.377D+00 0.812D+00
 Coeff-En:   0.000D+00 0.000D+00 0.000D+00 0.744D-01 0.333D-01 0.501D-01
 Coeff-En:   0.000D+00 0.000D+00 0.000D+00 0.842D+00
 Coeff:      0.279D-01-0.319D-01 0.142D-01-0.181D-02-0.312D-01-0.312D-01
 Coeff:     -0.125D+00-0.104D-01 0.377D+00 0.812D+00
 Gap=     0.068 Goal=   None    Shift=    0.000
 RMSDP=1.73D-04 MaxDP=1.59D-02 DE=-1.62D-04 OVMax= 1.05D-02

 Cycle  11  Pass 1  IDiag  1:
 E= -101.964226314782     Delta-E=       -0.000036574587 Rises=F Damp=F
 DIIS: error= 4.45D-04 at cycle  11 NSaved=  11.
 NSaved=11 IEnMin=11 EnMin= -101.964226314782     IErMin=10 ErrMin= 3.61D-04
 ErrMax= 4.45D-04  0.00D+00 EMaxC= 1.00D-01 BMatC= 1.33D-05 BMatP= 1.99D-05
 IDIUse=3 WtCom= 9.96D-01 WtEn= 3.61D-03
 EnCoef did   100 forward-backward iterations
 Rare condition: small coef for last iteration:  0.124D-17
 Coeff-Com:  0.106D-01-0.121D-01-0.291D-02-0.472D-02 0.492D-01 0.527D-01
 Coeff-Com: -0.123D+00-0.193D+00-0.573D-01 0.661D+00 0.620D+00
 Coeff-En:   0.000D+00 0.000D+00 0.000D+00 0.597D-01 0.000D+00 0.246D-01
 Coeff-En:   0.000D+00 0.000D+00 0.000D+00 0.268D+00 0.647D+00
 Coeff:      0.106D-01-0.121D-01-0.291D-02-0.472D-02 0.492D-01 0.527D-01
 Coeff:     -0.123D+00-0.193D+00-0.573D-01 0.661D+00 0.620D+00
 Gap=     0.069 Goal=   None    Shift=    0.000
 RMSDP=7.38D-05 MaxDP=5.79D-03 DE=-3.66D-05 OVMax= 6.58D-03

 Cycle  12  Pass 1  IDiag  1:
 E= -101.964256643498     Delta-E=       -0.000030328717 Rises=F Damp=F
 DIIS: error= 1.03D-04 at cycle  12 NSaved=  12.
 NSaved=12 IEnMin=12 EnMin= -101.964256643498     IErMin=12 ErrMin= 1.03D-04
 ErrMax= 1.03D-04  0.00D+00 EMaxC= 1.00D-01 BMatC= 1.52D-06 BMatP= 1.33D-05
 IDIUse=3 WtCom= 9.99D-01 WtEn= 1.03D-03
 EnCoef did   100 forward-backward iterations
 Coeff-Com:  0.240D-02-0.270D-02-0.347D-02 0.235D-03 0.213D-01 0.249D-01
 Coeff-Com: -0.214D-01-0.792D-01-0.101D+00 0.807D-01 0.241D+00 0.837D+00
 Coeff-En:   0.000D+00 0.000D+00 0.000D+00 0.215D+00 0.535D+00 0.241D+00
 Coeff-En:   0.000D+00 0.000D+00 0.000D+00 0.000D+00 0.686D-03 0.777D-02
 Coeff:      0.240D-02-0.269D-02-0.346D-02 0.457D-03 0.218D-01 0.252D-01
 Coeff:     -0.213D-01-0.791D-01-0.101D+00 0.806D-01 0.241D+00 0.836D+00
 Gap=     0.068 Goal=   None    Shift=    0.000
 RMSDP=6.52D-05 MaxDP=6.61D-03 DE=-3.03D-05 OVMax= 2.94D-03

 Cycle  13  Pass 1  IDiag  1:
 E= -101.964259121520     Delta-E=       -0.000002478022 Rises=F Damp=F
 DIIS: error= 1.23D-04 at cycle  13 NSaved=  13.
 NSaved=13 IEnMin=13 EnMin= -101.964259121520     IErMin=12 ErrMin= 1.03D-04
 ErrMax= 1.23D-04  0.00D+00 EMaxC= 1.00D-01 BMatC= 1.01D-06 BMatP= 1.52D-06
 IDIUse=3 WtCom= 9.99D-01 WtEn= 1.03D-03
 EnCoef did   100 forward-backward iterations
 Rare condition: small coef for last iteration:  0.110D-15
 Coeff-Com:  0.998D-03-0.111D-02-0.195D-02 0.160D-02 0.642D-02 0.738D-02
 Coeff-Com:  0.619D-02-0.216D-01-0.639D-01-0.608D-01 0.659D-01 0.615D+00
 Coeff-Com:  0.446D+00
 Coeff-En:   0.000D+00 0.000D+00 0.000D+00 0.638D-01 0.000D+00 0.000D+00
 Coeff-En:   0.000D+00 0.000D+00 0.000D+00 0.000D+00 0.000D+00 0.228D+00
 Coeff-En:   0.708D+00
 Coeff:      0.998D-03-0.111D-02-0.195D-02 0.160D-02 0.642D-02 0.738D-02
 Coeff:      0.619D-02-0.216D-01-0.639D-01-0.608D-01 0.659D-01 0.615D+00
 Coeff:      0.446D+00
 Gap=     0.068 Goal=   None    Shift=    0.000
 RMSDP=5.91D-05 MaxDP=5.88D-03 DE=-2.48D-06 OVMax= 2.62D-03

 Cycle  14  Pass 1  IDiag  1:
 E= -101.964260472673     Delta-E=       -0.000001351153 Rises=F Damp=F
 DIIS: error= 1.04D-04 at cycle  14 NSaved=  14.
 NSaved=14 IEnMin=14 EnMin= -101.964260472673     IErMin=12 ErrMin= 1.03D-04
 ErrMax= 1.04D-04  0.00D+00 EMaxC= 1.00D-01 BMatC= 4.44D-07 BMatP= 1.01D-06
 IDIUse=3 WtCom= 9.99D-01 WtEn= 1.03D-03
 EnCoef did   100 forward-backward iterations
 Rare condition: small coef for last iteration:  0.000D+00
 Coeff-Com:  0.498D-03-0.568D-03 0.166D-03 0.189D-02-0.454D-02-0.723D-02
 Coeff-Com:  0.166D-01 0.249D-01-0.579D-02-0.969D-01-0.696D-01 0.102D+00
 Coeff-Com:  0.437D+00 0.602D+00
 Coeff-En:   0.000D+00 0.000D+00 0.000D+00 0.619D-01 0.000D+00 0.000D+00
 Coeff-En:   0.000D+00 0.000D+00 0.000D+00 0.000D+00 0.000D+00 0.000D+00
 Coeff-En:   0.374D+00 0.564D+00
 Coeff:      0.498D-03-0.568D-03 0.166D-03 0.189D-02-0.454D-02-0.723D-02
 Coeff:      0.166D-01 0.249D-01-0.579D-02-0.969D-01-0.696D-01 0.102D+00
 Coeff:      0.437D+00 0.602D+00
 Gap=     0.068 Goal=   None    Shift=    0.000
 RMSDP=1.30D-05 MaxDP=8.78D-04 DE=-1.35D-06 OVMax= 1.33D-03

 Cycle  15  Pass 1  IDiag  1:
 E= -101.964261367841     Delta-E=       -0.000000895167 Rises=F Damp=F
 DIIS: error= 2.51D-05 at cycle  15 NSaved=  15.
 NSaved=15 IEnMin=15 EnMin= -101.964261367841     IErMin=15 ErrMin= 2.51D-05
 ErrMax= 2.51D-05  0.00D+00 EMaxC= 1.00D-01 BMatC= 5.26D-08 BMatP= 4.44D-07
 IDIUse=1 WtCom= 1.00D+00 WtEn= 0.00D+00
 Coeff-Com:  0.164D-03-0.191D-03 0.387D-03 0.805D-03-0.179D-02-0.473D-02
 Coeff-Com:  0.548D-02 0.166D-01 0.564D-02-0.339D-01-0.435D-01-0.687D-01
 Coeff-Com:  0.110D+00 0.298D+00 0.716D+00
 Coeff:      0.164D-03-0.191D-03 0.387D-03 0.805D-03-0.179D-02-0.473D-02
 Coeff:      0.548D-02 0.166D-01 0.564D-02-0.339D-01-0.435D-01-0.687D-01
 Coeff:      0.110D+00 0.298D+00 0.716D+00
 Gap=     0.068 Goal=   None    Shift=    0.000
 RMSDP=1.11D-05 MaxDP=1.20D-03 DE=-8.95D-07 OVMax= 4.59D-04

 Cycle  16  Pass 1  IDiag  1:
 E= -101.964261468362     Delta-E=       -0.000000100521 Rises=F Damp=F
 DIIS: error= 1.80D-05 at cycle  16 NSaved=  16.
 NSaved=16 IEnMin=16 EnMin= -101.964261468362     IErMin=16 ErrMin= 1.80D-05
 ErrMax= 1.80D-05  0.00D+00 EMaxC= 1.00D-01 BMatC= 1.94D-08 BMatP= 5.26D-08
 IDIUse=1 WtCom= 1.00D+00 WtEn= 0.00D+00
 Coeff-Com:  0.211D-03-0.243D-03 0.739D-04-0.108D-03 0.136D-02-0.136D-03
 Coeff-Com: -0.328D-02 0.111D-02 0.306D-02 0.157D-01 0.114D-02-0.787D-01
 Coeff-Com: -0.936D-01-0.397D-01 0.452D+00 0.741D+00
 Coeff:      0.211D-03-0.243D-03 0.739D-04-0.108D-03 0.136D-02-0.136D-03
 Coeff:     -0.328D-02 0.111D-02 0.306D-02 0.157D-01 0.114D-02-0.787D-01
 Coeff:     -0.936D-01-0.397D-01 0.452D+00 0.741D+00
 Gap=     0.068 Goal=   None    Shift=    0.000
 RMSDP=3.13D-06 MaxDP=2.79D-04 DE=-1.01D-07 OVMax= 2.24D-04

 Cycle  17  Pass 1  IDiag  1:
 E= -101.964261499234     Delta-E=       -0.000000030872 Rises=F Damp=F
 DIIS: error= 1.12D-05 at cycle  17 NSaved=  17.
 NSaved=17 IEnMin=17 EnMin= -101.964261499234     IErMin=17 ErrMin= 1.12D-05
 ErrMax= 1.12D-05  0.00D+00 EMaxC= 1.00D-01 BMatC= 5.37D-09 BMatP= 1.94D-08
 IDIUse=1 WtCom= 1.00D+00 WtEn= 0.00D+00
 Coeff-Com:  0.158D-03-0.181D-03-0.194D-04-0.132D-03 0.114D-02 0.676D-03
 Coeff-Com: -0.272D-02-0.198D-02 0.520D-03 0.154D-01 0.828D-02-0.424D-01
 Coeff-Com: -0.772D-01-0.704D-01 0.186D+00 0.474D+00 0.509D+00
 Coeff:      0.158D-03-0.181D-03-0.194D-04-0.132D-03 0.114D-02 0.676D-03
 Coeff:     -0.272D-02-0.198D-02 0.520D-03 0.154D-01 0.828D-02-0.424D-01
 Coeff:     -0.772D-01-0.704D-01 0.186D+00 0.474D+00 0.509D+00
 Gap=     0.068 Goal=   None    Shift=    0.000
 RMSDP=3.17D-06 MaxDP=3.12D-04 DE=-3.09D-08 OVMax= 1.04D-04

 Cycle  18  Pass 1  IDiag  1:
 E= -101.964261508463     Delta-E=       -0.000000009229 Rises=F Damp=F
 DIIS: error= 3.31D-06 at cycle  18 NSaved=  18.
 NSaved=18 IEnMin=18 EnMin= -101.964261508463     IErMin=18 ErrMin= 3.31D-06
 ErrMax= 3.31D-06  0.00D+00 EMaxC= 1.00D-01 BMatC= 1.24D-09 BMatP= 5.37D-09
 IDIUse=1 WtCom= 1.00D+00 WtEn= 0.00D+00
 Coeff-Com:  0.157D-03-0.180D-03-0.952D-06 0.312D-04 0.195D-03 0.321D-03
 Coeff-Com: -0.578D-03-0.140D-02-0.484D-03 0.483D-02 0.445D-02-0.842D-02
 Coeff-Com: -0.180D-01-0.221D-01 0.237D-02 0.628D-01 0.259D+00 0.717D+00
 Coeff:      0.157D-03-0.180D-03-0.952D-06 0.312D-04 0.195D-03 0.321D-03
 Coeff:     -0.578D-03-0.140D-02-0.484D-03 0.483D-02 0.445D-02-0.842D-02
 Coeff:     -0.180D-01-0.221D-01 0.237D-02 0.628D-01 0.259D+00 0.717D+00
 Gap=     0.068 Goal=   None    Shift=    0.000
 RMSDP=1.62D-06 MaxDP=1.60D-04 DE=-9.23D-09 OVMax= 5.42D-05

 Cycle  19  Pass 1  IDiag  1:
 E= -101.964261510180     Delta-E=       -0.000000001717 Rises=F Damp=F
 DIIS: error= 1.15D-06 at cycle  19 NSaved=  19.
 NSaved=19 IEnMin=19 EnMin= -101.964261510180     IErMin=19 ErrMin= 1.15D-06
 ErrMax= 1.15D-06  0.00D+00 EMaxC= 1.00D-01 BMatC= 1.70D-10 BMatP= 1.24D-09
 IDIUse=1 WtCom= 1.00D+00 WtEn= 0.00D+00
 Coeff-Com:  0.149D-03-0.170D-03 0.278D-04 0.374D-04-0.125D-03-0.124D-04
 Coeff-Com:  0.150D-03-0.256D-03-0.313D-03 0.136D-03 0.863D-03 0.149D-02
 Coeff-Com:  0.319D-02 0.109D-02-0.233D-01-0.509D-01 0.322D-01 0.351D+00
 Coeff-Com:  0.685D+00
 Coeff:      0.149D-03-0.170D-03 0.278D-04 0.374D-04-0.125D-03-0.124D-04
 Coeff:      0.150D-03-0.256D-03-0.313D-03 0.136D-03 0.863D-03 0.149D-02
 Coeff:      0.319D-02 0.109D-02-0.233D-01-0.509D-01 0.322D-01 0.351D+00
 Coeff:      0.685D+00
 Gap=     0.068 Goal=   None    Shift=    0.000
 RMSDP=5.08D-07 MaxDP=3.89D-05 DE=-1.72D-09 OVMax= 2.03D-05

 Cycle  20  Pass 1  IDiag  1:
 E= -101.964261510355     Delta-E=       -0.000000000175 Rises=F Damp=F
 DIIS: error= 1.25D-06 at cycle  20 NSaved=  20.
 NSaved=20 IEnMin=20 EnMin= -101.964261510355     IErMin=19 ErrMin= 1.15D-06
 ErrMax= 1.25D-06  0.00D+00 EMaxC= 1.00D-01 BMatC= 7.90D-11 BMatP= 1.70D-10
 IDIUse=1 WtCom= 1.00D+00 WtEn= 0.00D+00
 Coeff-Com:  0.139D-03-0.159D-03 0.285D-04 0.268D-05-0.576D-04-0.355D-04
 Coeff-Com:  0.931D-04 0.472D-04-0.148D-03-0.167D-03 0.494D-04 0.118D-02
 Coeff-Com:  0.232D-02 0.207D-02-0.814D-02-0.300D-01-0.191D-01 0.782D-01
 Coeff-Com:  0.373D+00 0.601D+00
 Coeff:      0.139D-03-0.159D-03 0.285D-04 0.268D-05-0.576D-04-0.355D-04
 Coeff:      0.931D-04 0.472D-04-0.148D-03-0.167D-03 0.494D-04 0.118D-02
 Coeff:      0.232D-02 0.207D-02-0.814D-02-0.300D-01-0.191D-01 0.782D-01
 Coeff:      0.373D+00 0.601D+00
 Gap=     0.068 Goal=   None    Shift=    0.000
 RMSDP=9.55D-08 MaxDP=6.51D-06 DE=-1.75D-10 OVMax= 1.31D-05

 Cycle  21  Pass 1  IDiag  1:
 E= -101.964261510449     Delta-E=       -0.000000000094 Rises=F Damp=F
 DIIS: error= 9.55D-07 at cycle  21 NSaved=  20.
 NSaved=20 IEnMin=20 EnMin= -101.964261510449     IErMin=20 ErrMin= 9.55D-07
 ErrMax= 9.55D-07  0.00D+00 EMaxC= 1.00D-01 BMatC= 4.15D-11 BMatP= 7.90D-11
 IDIUse=1 WtCom= 1.00D+00 WtEn= 0.00D+00
 Coeff-Com:  0.200D-06 0.117D-04-0.742D-05 0.344D-04-0.453D-04-0.443D-04
 Coeff-Com:  0.181D-03-0.905D-04-0.648D-03-0.744D-03-0.228D-03-0.581D-03
 Coeff-Com:  0.825D-03 0.124D-01 0.151D-01-0.276D-01-0.173D+00-0.236D+00
 Coeff-Com:  0.204D+00 0.121D+01
 Coeff:      0.200D-06 0.117D-04-0.742D-05 0.344D-04-0.453D-04-0.443D-04
 Coeff:      0.181D-03-0.905D-04-0.648D-03-0.744D-03-0.228D-03-0.581D-03
 Coeff:      0.825D-03 0.124D-01 0.151D-01-0.276D-01-0.173D+00-0.236D+00
 Coeff:      0.204D+00 0.121D+01
 Gap=     0.068 Goal=   None    Shift=    0.000
 RMSDP=1.50D-07 MaxDP=1.11D-05 DE=-9.43D-11 OVMax= 1.40D-05

 Cycle  22  Pass 1  IDiag  1:
 E= -101.964261510501     Delta-E=       -0.000000000052 Rises=F Damp=F
 DIIS: error= 4.93D-07 at cycle  22 NSaved=  20.
 NSaved=20 IEnMin=20 EnMin= -101.964261510501     IErMin=20 ErrMin= 4.93D-07
 ErrMax= 4.93D-07  0.00D+00 EMaxC= 1.00D-01 BMatC= 2.89D-11 BMatP= 4.15D-11
 IDIUse=1 WtCom= 1.00D+00 WtEn= 0.00D+00
 Coeff-Com:  0.526D-05 0.770D-05 0.700D-04 0.449D-04-0.234D-04 0.147D-05
 Coeff-Com: -0.584D-04-0.244D-03-0.309D-03 0.121D-04-0.541D-03-0.466D-03
 Coeff-Com:  0.504D-02 0.121D-01-0.300D-02-0.683D-01-0.172D+00-0.726D-01
 Coeff-Com:  0.773D+00 0.527D+00
 Coeff:      0.526D-05 0.770D-05 0.700D-04 0.449D-04-0.234D-04 0.147D-05
 Coeff:     -0.584D-04-0.244D-03-0.309D-03 0.121D-04-0.541D-03-0.466D-03
 Coeff:      0.504D-02 0.121D-01-0.300D-02-0.683D-01-0.172D+00-0.726D-01
 Coeff:      0.773D+00 0.527D+00
 Gap=     0.068 Goal=   None    Shift=    0.000
 RMSDP=8.80D-08 MaxDP=6.11D-06 DE=-5.22D-11 OVMax= 1.28D-05

 Cycle  23  Pass 1  IDiag  1:
 E= -101.964261510544     Delta-E=       -0.000000000043 Rises=F Damp=F
 DIIS: error= 2.94D-07 at cycle  23 NSaved=  20.
 NSaved=20 IEnMin=20 EnMin= -101.964261510544     IErMin=20 ErrMin= 2.94D-07
 ErrMax= 2.94D-07  0.00D+00 EMaxC= 1.00D-01 BMatC= 5.22D-12 BMatP= 2.89D-11
 IDIUse=1 WtCom= 1.00D+00 WtEn= 0.00D+00
 Coeff-Com: -0.250D-06 0.254D-04 0.238D-04-0.303D-04-0.206D-04 0.455D-04
 Coeff-Com:  0.256D-04-0.981D-04 0.264D-03-0.122D-03-0.603D-03-0.112D-02
 Coeff-Com:  0.155D-02 0.477D-03-0.236D-02-0.396D-01-0.960D-01 0.192D+00
 Coeff-Com:  0.250D+00 0.695D+00
 Coeff:     -0.250D-06 0.254D-04 0.238D-04-0.303D-04-0.206D-04 0.455D-04
 Coeff:      0.256D-04-0.981D-04 0.264D-03-0.122D-03-0.603D-03-0.112D-02
 Coeff:      0.155D-02 0.477D-03-0.236D-02-0.396D-01-0.960D-01 0.192D+00
 Coeff:      0.250D+00 0.695D+00
 Gap=     0.068 Goal=   None    Shift=    0.000
 RMSDP=5.03D-08 MaxDP=3.99D-06 DE=-4.26D-11 OVMax= 5.70D-06

 Cycle  24  Pass 1  IDiag  1:
 E= -101.964261510557     Delta-E=       -0.000000000014 Rises=F Damp=F
 DIIS: error= 7.75D-08 at cycle  24 NSaved=  20.
 NSaved=20 IEnMin=20 EnMin= -101.964261510557     IErMin=20 ErrMin= 7.75D-08
 ErrMax= 7.75D-08  0.00D+00 EMaxC= 1.00D-01 BMatC= 4.82D-13 BMatP= 5.22D-12
 IDIUse=1 WtCom= 1.00D+00 WtEn= 0.00D+00
 Coeff-Com:  0.277D-05 0.568D-05-0.212D-04-0.208D-04 0.330D-04 0.524D-04
 Coeff-Com:  0.170D-05 0.187D-03-0.829D-05-0.366D-03-0.158D-02-0.135D-02
 Coeff-Com:  0.595D-03 0.101D-01 0.765D-02-0.329D-01 0.896D-02 0.172D-01
 Coeff-Com:  0.259D+00 0.733D+00
 Coeff:      0.277D-05 0.568D-05-0.212D-04-0.208D-04 0.330D-04 0.524D-04
 Coeff:      0.170D-05 0.187D-03-0.829D-05-0.366D-03-0.158D-02-0.135D-02
 Coeff:      0.595D-03 0.101D-01 0.765D-02-0.329D-01 0.896D-02 0.172D-01
 Coeff:      0.259D+00 0.733D+00
 Gap=     0.068 Goal=   None    Shift=    0.000
 RMSDP=2.33D-08 MaxDP=1.88D-06 DE=-1.37D-11 OVMax= 1.26D-06

 Cycle  25  Pass 1  IDiag  1:
 E= -101.964261510558     Delta-E=       -0.000000000001 Rises=F Damp=F
 DIIS: error= 5.62D-08 at cycle  25 NSaved=  20.
 NSaved=20 IEnMin=20 EnMin= -101.964261510558     IErMin=20 ErrMin= 5.62D-08
 ErrMax= 5.62D-08  0.00D+00 EMaxC= 1.00D-01 BMatC= 1.88D-13 BMatP= 4.82D-13
 IDIUse=1 WtCom= 1.00D+00 WtEn= 0.00D+00
 Coeff-Com:  0.285D-05-0.110D-04-0.176D-04-0.116D-05 0.459D-04 0.456D-04
 Coeff-Com:  0.674D-04-0.404D-04-0.187D-03-0.709D-03-0.115D-02 0.436D-03
 Coeff-Com:  0.719D-02 0.172D-01 0.928D-02-0.398D-01-0.563D-01-0.194D-01
 Coeff-Com:  0.347D+00 0.737D+00
 Coeff:      0.285D-05-0.110D-04-0.176D-04-0.116D-05 0.459D-04 0.456D-04
 Coeff:      0.674D-04-0.404D-04-0.187D-03-0.709D-03-0.115D-02 0.436D-03
 Coeff:      0.719D-02 0.172D-01 0.928D-02-0.398D-01-0.563D-01-0.194D-01
 Coeff:      0.347D+00 0.737D+00
 Gap=     0.068 Goal=   None    Shift=    0.000
 RMSDP=1.07D-08 MaxDP=7.83D-07 DE=-7.39D-13 OVMax= 6.83D-07

 Cycle  26  Pass 1  IDiag  1:
 E= -101.964261510559     Delta-E=       -0.000000000001 Rises=F Damp=F
 DIIS: error= 2.89D-08 at cycle  26 NSaved=  20.
 NSaved=20 IEnMin=20 EnMin= -101.964261510559     IErMin=20 ErrMin= 2.89D-08
 ErrMax= 2.89D-08  0.00D+00 EMaxC= 1.00D-01 BMatC= 5.68D-14 BMatP= 1.88D-13
 IDIUse=1 WtCom= 1.00D+00 WtEn= 0.00D+00
 Coeff-Com:  0.345D-05-0.618D-06-0.208D-04-0.127D-04 0.182D-04 0.121D-04
 Coeff-Com:  0.257D-04 0.858D-04 0.294D-03-0.127D-03-0.292D-03-0.203D-02
 Coeff-Com:  0.236D-02 0.157D-01-0.895D-02-0.428D-01-0.121D+00-0.111D+00
 Coeff-Com:  0.414D+00 0.854D+00
 Coeff:      0.345D-05-0.618D-06-0.208D-04-0.127D-04 0.182D-04 0.121D-04
 Coeff:      0.257D-04 0.858D-04 0.294D-03-0.127D-03-0.292D-03-0.203D-02
 Coeff:      0.236D-02 0.157D-01-0.895D-02-0.428D-01-0.121D+00-0.111D+00
 Coeff:      0.414D+00 0.854D+00
 Gap=     0.068 Goal=   None    Shift=    0.000
 RMSDP=3.41D-09 MaxDP=2.36D-07 DE=-6.25D-13 OVMax= 4.31D-07

 SCF Done:  E(ROHF) =  -101.964261511     A.U. after   26 cycles
            NFock= 26  Conv=0.34D-08     -V/T= 2.8207
 <Sx>= 0.0000 <Sy>= 0.0000 <Sz>= 2.0000 <S**2>= 6.0000 S= 2.0000
 <L.S>=  0.00000000000    
 KE= 5.600255604818D+01 PE=-2.951184102895D+02 EE= 1.054009600755D+02
 Annihilation of the first spin contaminant:
 S**2 before annihilation     6.0000,   after     6.0000
 Leave Link  502 at Mon Mar 12 14:09:10 2018, MaxMem= 10737418240 cpu:             441.2 elap:              32.6
 (Enter /home1/apps/gaussian/16rA.03/g16/l801.exe)
 Windowed orbitals will be sorted by symmetry type.
 GenMOA:  NOpAll=  4 NOp2=4 NOpUse=  4 JSym2X=1
 FoFJK:  IHMeth= 1 ICntrl=       0 DoSepK=F KAlg= 0 I1Cent=           0 FoldK=F
 IRaf=         0 NMat=       1 IRICut=       1 DoRegI=T DoRafI=F ISym2E= 1 IDoP0=0 IntGTp=1.
 FoFCou: FMM=F IPFlag=           8 FMFlag=      100000 FMFlg1=           0
         NFxFlg=           0 DoJE=F BraDBF=F KetDBF=F FulRan=T
         wScrn=  0.000000 ICntrl=         0 IOpCl=  1 I1Cent=           0 NGrid=           0
         NMat0=    1 NMatS0=      1 NMatT0=    0 NMatD0=    1 NMtDS0=    0 NMtDT0=    0
 Petite list used in FoFCou.
 <Sx>= 0.0000 <Sy>= 0.0000 <Sz>= 2.0000 <S**2>= 6.0000 S= 2.0000
 Range of M.O.s used for correlation:     1   252
 NBasis=   261 NAE=    12 NBE=     8 NFC=     0 NFV=     0
 NROrb=    252 NOA=    12 NOB=     8 NVA=   240 NVB=   244

 **** Warning!!: The largest alpha MO coefficient is  0.28641027D+03


 **** Warning!!: The largest beta MO coefficient is  0.28637428D+03

 Singles contribution to E2=   -0.6276112324D-02
 Leave Link  801 at Mon Mar 12 14:09:18 2018, MaxMem= 10737418240 cpu:             101.9 elap:               6.5
 (Enter /home1/apps/gaussian/16rA.03/g16/l804.exe)
 Open-shell transformation, MDV= 10737418240 ITran=4 ISComp=2.
 Unit  1 TFree=       2062740 TCopy=       1526759.
 Semi-Direct transformation.
 ModeAB=           4 MOrb=            12 LenV=   10735414528
 LASXX=     23925662 LTotXX=    23925662 LenRXX=    48257580
 LTotAB=    24331918 MaxLAS=   146428128 LenRXY=           0
 NonZer=    72183242 LenScr=   109029376 LnRSAI=   146428128
 LnScr1=   220504064 LExtra=     9984485 Total=    534203633
 MaxDsk= 67108864000 SrtSym=           T ITran=            4
 DoSDTr:  NPSUse= 16
 JobTyp=1 Pass  1:  I=   1 to  12.
 (rs|ai) integrals will be sorted in core.
 Complete sort for first half transformation.
 First half transformation complete.
 Begin second half transformation for I=  10.
 Complete sort for second half transformation.
 Second half transformation complete.
 ModeAB=           4 MOrb=             8 LenV=   10735414528
 LASXX=     16191526 LTotXX=    16191526 LenRXX=    31103054
 LTotAB=    14911528 MaxLAS=    97618752 LenRXY=           0
 NonZer=    47294580 LenScr=    71709696 LnRSAI=    97618752
 LnScr1=   147184640 LExtra=    58242065 Total=    405858207
 MaxDsk= 67108864000 SrtSym=           T ITran=            4
 DoSDTr:  NPSUse= 16
 JobTyp=2 Pass  1:  I=   1 to   8.
 (rs|ai) integrals will be sorted in core.
 Complete sort for first half transformation.
 First half transformation complete.
 Complete sort for second half transformation.
 Second half transformation complete.
 Spin components of T(2) and E(2):
     alpha-alpha T2 =       0.4156432882D-01 E2=     -0.1711368703D+00
     alpha-beta  T2 =       0.1273125291D+00 E2=     -0.6162996090D+00
     beta-beta   T2 =       0.2493472856D-01 E2=     -0.9922443957D-01
 ANorm=    0.1094598587D+01
 E2 =    -0.8929370312D+00 EUMP2 =    -0.10285719854175D+03
 (S**2,0)=  0.60000D+01           (S**2,1)=  0.60000D+01
 E(PUHF)=      -0.10196426151D+03        E(PMP2)=      -0.10285719854D+03
 Leave Link  804 at Mon Mar 12 14:11:29 2018, MaxMem= 10737418240 cpu:            2081.5 elap:             130.3
 (Enter /home1/apps/gaussian/16rA.03/g16/l913.exe)
 CIDS:  MDV= 10737418240.
 IFCWin=0 IBDFC=1 NFBD=     0     0 NFCmp=     0     0 NFFFC=     0     0
 Using original routines for 1st iteration.
 Using DD4UQ or CC4UQ for 2nd and later iterations.
 Keep R2 and R3 ints in memory in symmetry-blocked form, NReq=734616993.
 FoFCou: FMM=F IPFlag=           8 FMFlag=           0 FMFlg1=           0
         NFxFlg=           0 DoJE=F BraDBF=F KetDBF=F FulRan=T
         wScrn=  0.000000 ICntrl=       600 IOpCl=  0 I1Cent=           0 NGrid=           0
         NMat0=    1 NMatS0=  34191 NMatT0=    0 NMatD0=    1 NMtDS0=    0 NMtDT0=    0
 Petite list used in FoFCou.
 CIDS: In Core Option IDoMem=           1.
 CCSD(T)
 =======
 Iterations= 150 Convergence= 0.100D-06
 Produce multiple copies of IABC intergrals
 Iteration Nr.   1
 **********************
 DD1Dir will call FoFMem   1 times, MxPair=       286
 NAB=    96 NAA=    66 NBB=    28.
 DD1Dir will call FoFMem   1 times, MxPair=       286
 NAB=    96 NAA=    66 NBB=    28.
 MP4(R+Q)= -0.38874205D-01
 Maximum subspace dimension=  5
 A-vector RMS=  4.2775013D-04 Max=  3.7140085D-03 conv= 1.00D-05.
 RLE energy=       -0.8740256793
 E3=        0.57608450D-01        EROMP3=      -0.10279959009D+03
 E4(SDQ)=  -0.53914801D-01        ROMP4(SDQ)=  -0.10285350489D+03
 VARIATIONAL ENERGIES WITH THE FIRST-ORDER WAVEFUNCTION:
 DE(Corr)= -0.87361088     E(Corr)=     -102.83787240    
 NORM(A)=   0.10882434D+01
 Iteration Nr.   2
 **********************
 DD1Dir will call FoFMem   1 times, MxPair=       286
 NAB=    96 NAA=    66 NBB=    28.
 A-vector RMS=  5.6777191D-03 Max=  6.3789017D-02 conv= 1.00D-05.
 RLE energy=       -0.8540503938
 DE(Corr)= -0.81300462     E(CORR)=     -102.77726613     Delta= 6.06D-02
 NORM(A)=   0.10833860D+01
 Iteration Nr.   3
 **********************
 DD1Dir will call FoFMem   1 times, MxPair=       286
 NAB=    96 NAA=    66 NBB=    28.
 A-vector RMS=  2.9833332D-03 Max=  3.4399912D-02 conv= 1.00D-05.
 RLE energy=       -0.8654579830
 DE(Corr)= -0.83502526     E(CORR)=     -102.79928677     Delta=-2.20D-02
 NORM(A)=   0.10882276D+01
 Iteration Nr.   4
 **********************
 DD1Dir will call FoFMem   1 times, MxPair=       286
 NAB=    96 NAA=    66 NBB=    28.
 A-vector RMS=  3.5509957D-03 Max=  4.2163677D-02 conv= 1.00D-05.
 RLE energy=       -0.8619577705
 DE(Corr)= -0.83460313     E(CORR)=     -102.79886464     Delta= 4.22D-04
 NORM(A)=   0.11126944D+01
 Iteration Nr.   5
 **********************
 DD1Dir will call FoFMem   1 times, MxPair=       286
 NAB=    96 NAA=    66 NBB=    28.
 A-vector RMS=  7.8025848D-04 Max=  7.7617349D-03 conv= 1.00D-05.
 RLE energy=       -0.8659256364
 DE(Corr)= -0.86818892     E(CORR)=     -102.83245043     Delta=-3.36D-02
 NORM(A)=   0.11253974D+01
 Iteration Nr.   6
 **********************
 DD1Dir will call FoFMem   1 times, MxPair=       286
 NAB=    96 NAA=    66 NBB=    28.
 A-vector RMS=  3.8617812D-04 Max=  3.2177560D-03 conv= 1.00D-05.
 RLE energy=       -0.8667669496
 DE(Corr)= -0.86983661     E(CORR)=     -102.83409812     Delta=-1.65D-03
 NORM(A)=   0.11251517D+01
 Iteration Nr.   7
 **********************
 DD1Dir will call FoFMem   1 times, MxPair=       286
 NAB=    96 NAA=    66 NBB=    28.
 A-vector RMS=  1.3389455D-04 Max=  1.9081230D-03 conv= 1.00D-05.
 RLE energy=       -0.8664795434
 DE(Corr)= -0.86635206     E(CORR)=     -102.83061357     Delta= 3.48D-03
 NORM(A)=   0.11265775D+01
 Iteration Nr.   8
 **********************
 DD1Dir will call FoFMem   1 times, MxPair=       286
 NAB=    96 NAA=    66 NBB=    28.
 A-vector RMS=  8.9072135D-05 Max=  1.1262874D-03 conv= 1.00D-05.
 RLE energy=       -0.8667182642
 DE(Corr)= -0.86680821     E(CORR)=     -102.83106972     Delta=-4.56D-04
 NORM(A)=   0.11274272D+01
 Iteration Nr.   9
 **********************
 DD1Dir will call FoFMem   1 times, MxPair=       286
 NAB=    96 NAA=    66 NBB=    28.
 A-vector RMS=  4.8656744D-05 Max=  4.5020974D-04 conv= 1.00D-05.
 RLE energy=       -0.8668389717
 DE(Corr)= -0.86666309     E(CORR)=     -102.83092460     Delta= 1.45D-04
 NORM(A)=   0.11278049D+01
 Iteration Nr.  10
 **********************
 DD1Dir will call FoFMem   1 times, MxPair=       286
 NAB=    96 NAA=    66 NBB=    28.
 A-vector RMS=  2.0761993D-05 Max=  3.3677695D-04 conv= 1.00D-05.
 RLE energy=       -0.8667753467
 DE(Corr)= -0.86672388     E(CORR)=     -102.83098539     Delta=-6.08D-05
 NORM(A)=   0.11278729D+01
 Iteration Nr.  11
 **********************
 DD1Dir will call FoFMem   1 times, MxPair=       286
 NAB=    96 NAA=    66 NBB=    28.
 A-vector RMS=  9.2135098D-06 Max=  1.0926851D-04 conv= 1.00D-05.
 RLE energy=       -0.8667886996
 DE(Corr)= -0.86678837     E(CORR)=     -102.83104988     Delta=-6.45D-05
 NORM(A)=   0.11278599D+01
 Iteration Nr.  12
 **********************
 DD1Dir will call FoFMem   1 times, MxPair=       286
 NAB=    96 NAA=    66 NBB=    28.
 A-vector RMS=  6.8161498D-06 Max=  8.5184595D-05 conv= 1.00D-05.
 RLE energy=       -0.8667679024
 DE(Corr)= -0.86675966     E(CORR)=     -102.83102117     Delta= 2.87D-05
 NORM(A)=   0.11278880D+01
 Iteration Nr.  13
 **********************
 DD1Dir will call FoFMem   1 times, MxPair=       286
 NAB=    96 NAA=    66 NBB=    28.
 A-vector RMS=  3.3449052D-06 Max=  3.7938288D-05 conv= 1.00D-05.
 RLE energy=       -0.8667812967
 DE(Corr)= -0.86678394     E(CORR)=     -102.83104545     Delta=-2.43D-05
 NORM(A)=   0.11278955D+01
 Iteration Nr.  14
 **********************
 DD1Dir will call FoFMem   1 times, MxPair=       286
 NAB=    96 NAA=    66 NBB=    28.
 A-vector RMS=  2.5699158D-06 Max=  3.0524325D-05 conv= 1.00D-05.
 RLE energy=       -0.8667750255
 DE(Corr)= -0.86677150     E(CORR)=     -102.83103301     Delta= 1.24D-05
 NORM(A)=   0.11279127D+01
 Iteration Nr.  15
 **********************
 DD1Dir will call FoFMem   1 times, MxPair=       286
 NAB=    96 NAA=    66 NBB=    28.
 A-vector RMS=  1.2587750D-06 Max=  1.4734005D-05 conv= 1.00D-05.
 RLE energy=       -0.8667819093
 DE(Corr)= -0.86678188     E(CORR)=     -102.83104339     Delta=-1.04D-05
 NORM(A)=   0.11279226D+01
 Iteration Nr.  16
 **********************
 DD1Dir will call FoFMem   1 times, MxPair=       286
 NAB=    96 NAA=    66 NBB=    28.
 A-vector RMS=  7.2804270D-07 Max=  8.4003836D-06 conv= 1.00D-05.
 RLE energy=       -0.8667806566
 DE(Corr)= -0.86677927     E(CORR)=     -102.83104078     Delta= 2.61D-06
 NORM(A)=   0.11279302D+01
 Iteration Nr.  17
 **********************
 DD1Dir will call FoFMem   1 times, MxPair=       286
 NAB=    96 NAA=    66 NBB=    28.
 A-vector RMS=  5.9388732D-07 Max=  1.0614303D-05 conv= 1.00D-05.
 RLE energy=       -0.8667821269
 DE(Corr)= -0.86678205     E(CORR)=     -102.83104356     Delta=-2.78D-06
 NORM(A)=   0.11279354D+01
 Iteration Nr.  18
 **********************
 DD1Dir will call FoFMem   1 times, MxPair=       286
 NAB=    96 NAA=    66 NBB=    28.
 A-vector RMS=  3.3215341D-07 Max=  4.1533816D-06 conv= 1.00D-05.
 RLE energy=       -0.8667826564
 DE(Corr)= -0.86678217     E(CORR)=     -102.83104368     Delta=-1.19D-07
 NORM(A)=   0.11279377D+01
 Iteration Nr.  19
 **********************
 DD1Dir will call FoFMem   1 times, MxPair=       286
 NAB=    96 NAA=    66 NBB=    28.
 A-vector RMS=  2.0034503D-07 Max=  3.2116963D-06 conv= 1.00D-05.
 RLE energy=       -0.8667820591
 DE(Corr)= -0.86678212     E(CORR)=     -102.83104363     Delta= 5.46D-08
 NORM(A)=   0.11279393D+01
 CI/CC converged in   19 iterations to DelEn= 5.46D-08 Conv= 1.00D-07 ErrA1= 2.00D-07 Conv= 1.00D-05
 Wavefunction amplitudes converged. E(Corr)=     -102.83104363    
 Dominant configurations:
 ***********************
 Spin Case        I    J    A    B          Value
    AA            9        26            0.105357D+00
 Largest amplitude= 1.05D-01
 Time for triples=    13525.35 seconds.
 T4(CCSD)= -0.57006537D-01
 T5(CCSD)=  0.11677755D-01
 CCSD(T)= -0.10287637241D+03
 Discarding MO integrals.
 Leave Link  913 at Mon Mar 12 14:31:49 2018, MaxMem= 10737418240 cpu:           19490.0 elap:            1219.5
 (Enter /home1/apps/gaussian/16rA.03/g16/l601.exe)
 Copying SCF densities to generalized density rwf, IOpCl= 0 IROHF=1.

 **********************************************************************

            Population analysis using the SCF density.

 **********************************************************************

 Orbital symmetries:
       Occupied  (SG) (SG) (PI) (PI) (SG) (?A) (SG) (?A) (?B) (?B)
                 (?B) (?A)
       Virtual   (?A) (SG) (?A) (SG) (?A) (?B) (?A) (?B) (?B) (?A)
                 (?A) (?B) (?B) (?A) (?B) (?A) (?A) (?B) (?A) (?B)
                 (?B) (?A) (?B) (?A) (?A) (SG) (?B) (DLTA) (DLTA)
                 (PHI) (PHI) (?A) (?A) (SG) (?A) (?A) (?C) (?C)
                 (?C) (?D) (PI) (PI) (?D) (?D) (?A) (?A) (?D) (SG)
                 (PI) (PI) (SG) (DLTA) (DLTA) (?E) (?E) (?E) (?E)
                 (PHI) (PHI) (SG) (?D) (?D) (?D) (?D) (PI) (PI)
                 (?F) (?F) (PI) (PI) (DLTA) (DLTA) (PHI) (PHI)
                 (?D) (?D) (?D) (PI) (PI) (?D) (PI) (PI) (DLTA)
                 (DLTA) (SG) (PI) (PI) (SG) (PI) (PI) (SG) (PHI)
                 (PHI) (DLTA) (DLTA) (SG) (PI) (PI) (SG) (PI) (PI)
                 (?G) (?G) (?G) (?E) (?E) (?E) (?E) (SG) (?F) (?F)
                 (PHI) (PHI) (DLTA) (DLTA) (?H) (?H) (?H) (SG)
                 (PI) (PI) (PI) (PI) (DLTA) (DLTA) (PI) (PI) (SG)
                 (SG) (PHI) (PHI) (DLTA) (DLTA) (PI) (PI) (SG)
                 (PI) (PI) (PI) (SG) (PI) (SG) (SG) (SG) (DLTA)
                 (DLTA) (PI) (PI) (?I) (?I) (?E) (?E) (?I) (?I)
                 (SG) (?E) (?E) (?I) (PI) (PI) (SG) (SG) (SG) (DLTA)
                 (DLTA) (PI) (PI) (SG) (DLTA) (DLTA) (PI) (PI)
                 (SG) (PI) (PI) (SG) (PI) (PI) (SG) (SG) (SG) (DLTA)
                 (DLTA) (PI) (PI) (SG) (PI) (PI) (SG) (PI) (PI)
                 (SG) (SG) (SG) (PI) (PI) (SG) (SG) (SG) (PI) (PI)
                 (SG) (DLTA) (DLTA) (PI) (PI) (SG) (PI) (PI) (SG)
                 (SG) (SG) (PI) (PI) (SG) (SG) (SG) (PI) (PI) (SG)
                 (SG) (SG) (PI) (PI) (SG) (SG) (SG) (PI) (PI) (SG)
                 (SG) (SG) (PI) (PI) (SG) (SG) (SG) (SG) (SG) (SG)
 Unable to determine electronic state:  an orbital has unidentified symmetry.
 Alpha  occ. eigenvalues --   -3.69006  -2.46487  -2.42244  -2.41431  -1.23883
 Alpha  occ. eigenvalues --   -0.65147  -0.56997  -0.53704  -0.53384  -0.51949
 Alpha  occ. eigenvalues --   -0.38644  -0.28722
 Alpha virt. eigenvalues --    0.01017   0.01874   0.02189   0.03048   0.04862
 Alpha virt. eigenvalues --    0.05810   0.06776   0.07667   0.07674   0.07968
 Alpha virt. eigenvalues --    0.08507   0.09163   0.12548   0.15812   0.17658
 Alpha virt. eigenvalues --    0.21780   0.24261   0.25767   0.25979   0.26599
 Alpha virt. eigenvalues --    0.26625   0.27652   0.30038   0.31038   0.31361
 Alpha virt. eigenvalues --    0.36875   0.53649   0.61835   0.61843   0.62702
 Alpha virt. eigenvalues --    0.62703   0.67478   0.67661   0.68549   0.72350
 Alpha virt. eigenvalues --    0.73605   0.74145   0.83269   0.83328   0.89084
 Alpha virt. eigenvalues --    0.90321   0.90744   0.96050   0.96082   1.02574
 Alpha virt. eigenvalues --    1.04739   1.09075   1.33536   1.38460   1.39528
 Alpha virt. eigenvalues --    1.49469   1.82554   1.82570   1.91022   1.91035
 Alpha virt. eigenvalues --    1.93972   1.95381   2.03624   2.03625   2.10030
 Alpha virt. eigenvalues --    2.22384   2.24489   2.24678   2.24865   2.24947
 Alpha virt. eigenvalues --    2.25399   2.28942   2.28942   2.33549   2.33694
 Alpha virt. eigenvalues --    2.44439   2.44441   2.55758   2.55758   2.66366
 Alpha virt. eigenvalues --    2.77807   2.77867   2.81138   2.83755   2.93649
 Alpha virt. eigenvalues --    2.99848   3.00159   3.15758   3.15761   3.20730
 Alpha virt. eigenvalues --    3.50138   3.50508   3.58906   4.63290   4.63961
 Alpha virt. eigenvalues --    4.64730   5.30093   5.30096   5.42236   5.42243
 Alpha virt. eigenvalues --    5.53411   5.64448   5.66603   5.97209   6.29425
 Alpha virt. eigenvalues --    6.30552   6.43827   6.46294   6.46295   6.46997
 Alpha virt. eigenvalues --    6.47646   6.53040   6.53040   6.64544   6.87606
 Alpha virt. eigenvalues --    6.87606   6.93773   6.93773   7.15580   7.15580
 Alpha virt. eigenvalues --    7.19532   7.21598   7.21651   7.53583   7.55588
 Alpha virt. eigenvalues --    7.55884   7.77522   7.77586   7.78954   7.79106
 Alpha virt. eigenvalues --    8.21497   8.22003   8.78710   9.16851  14.13323
 Alpha virt. eigenvalues --   14.13326  14.19876  14.19896  14.34557  14.35366
 Alpha virt. eigenvalues --   14.64664  14.86461  14.88300  15.12698  15.13372
 Alpha virt. eigenvalues --   15.14271  15.59041  16.85741  17.48449  17.91928
 Alpha virt. eigenvalues --   17.91964  18.11852  18.12795  18.42644  18.42644
 Alpha virt. eigenvalues --   18.43433  18.43434  18.49647  18.49660  18.60259
 Alpha virt. eigenvalues --   18.64386  18.65314  18.94920  30.07972  30.10461
 Alpha virt. eigenvalues --   30.30695  35.86623  38.32208  38.71886  38.71887
 Alpha virt. eigenvalues --   38.87528  38.89565  39.36623  43.72167  43.72169
 Alpha virt. eigenvalues --   43.87079  43.87557  44.05462  45.72370  45.73298
 Alpha virt. eigenvalues --   46.72158  56.25612  56.28127  56.48122  68.47050
 Alpha virt. eigenvalues --   74.66766 102.94132 102.94151 103.04271 103.05883
 Alpha virt. eigenvalues --  103.09213 104.63646 104.65712 105.01593 119.06678
 Alpha virt. eigenvalues --  119.07479 119.86075 123.93896 136.90283 200.14047
 Alpha virt. eigenvalues --  200.15580 200.30366 230.92233 257.64408 286.34523
 Alpha virt. eigenvalues --  286.35018 287.11694 359.07514 359.07518 359.16394
 Alpha virt. eigenvalues --  359.16977 359.32304 398.35505 398.36446 398.51631
 Alpha virt. eigenvalues --  448.76224 555.14172 833.04523 833.05025 833.19313
 Alpha virt. eigenvalues --  905.974741529.663721859.169681859.172031859.30374
 Alpha virt. eigenvalues -- 1901.924904166.929774545.075154545.076104545.19504
 Alpha virt. eigenvalues -- 5659.814629581.47931******************************
 Alpha virt. eigenvalues -- **************************************************
 Alpha virt. eigenvalues -- **************************************************
     Molecular Orbital Coefficients:
                           4         5         6         7         8
                           O         O         O         O         O
     Eigenvalues --    -2.41431  -1.23883  -0.65147  -0.56997  -0.53704
   1 1   Cr 1S          0.00000  -0.00000   0.00000  -0.00000   0.00000
   2        2S          0.00000   0.00000   0.00000   0.00000   0.00000
   3        3S          0.00000  -0.00000   0.00000  -0.00000   0.00000
   4        4S          0.00000   0.00000   0.00000   0.00000   0.00000
   5        5S          0.00000  -0.00000   0.00000  -0.00000   0.00000
   6        6S          0.00000   0.00000   0.00000   0.00000   0.00000
   7        7S          0.00000  -0.00001   0.00000  -0.00001   0.00000
   8        8S          0.00000   0.00003   0.00000   0.00003   0.00000
   9        9S          0.00000  -0.00009   0.00000  -0.00010   0.00000
  10       10S          0.00000   0.00025   0.00000   0.00029   0.00000
  11       11S          0.00000  -0.00065   0.00000  -0.00076   0.00000
  12       12S          0.00000   0.00167   0.00000   0.00192   0.00000
  13       13S          0.00000  -0.00519   0.00000  -0.00605   0.00000
  14       14S          0.00000  -0.00682   0.00000  -0.00071   0.00000
  15       15S          0.00000   0.21111   0.00000   0.13009   0.00000
  16       16S          0.00000  -0.03338   0.00000  -0.04555   0.00000
  17       17S          0.00000  -0.13143   0.00000  -0.09765   0.00000
  18       18S          0.00000  -0.05608   0.00000  -0.07681   0.00000
  19       19S          0.00000  -0.01652   0.00000   0.05699   0.00000
  20       20S          0.00000  -0.00668   0.00000   0.00919   0.00000
  21       21S          0.00000  -0.14962   0.00000  -0.07076   0.00000
  22       22S          0.00000  -0.00538   0.00000  -0.01994   0.00000
  23       23S          0.00000   0.00088   0.00000   0.00132   0.00000
  24       24PX        -0.00000   0.00000   0.00000   0.00000   0.00000
  25       24PY         0.00000   0.00000   0.00000   0.00000   0.00000
  26       24PZ         0.00000  -0.00000   0.00000  -0.00000   0.00000
  27       25PX         0.00000   0.00000  -0.00000   0.00000   0.00000
  28       25PY         0.00000   0.00000   0.00000   0.00000  -0.00000
  29       25PZ         0.00000   0.00000   0.00000   0.00000   0.00000
  30       26PX        -0.00001   0.00000   0.00000   0.00000   0.00000
  31       26PY         0.00000   0.00000   0.00000   0.00000   0.00000
  32       26PZ         0.00000  -0.00000   0.00000  -0.00000   0.00000
  33       27PX         0.00003   0.00000  -0.00000   0.00000   0.00000
  34       27PY         0.00000   0.00000   0.00000   0.00000  -0.00000
  35       27PZ         0.00000   0.00001   0.00000   0.00002   0.00000
  36       28PX        -0.00011   0.00000   0.00001   0.00000   0.00000
  37       28PY         0.00000   0.00000   0.00000   0.00000   0.00001
  38       28PZ         0.00000  -0.00004   0.00000  -0.00006   0.00000
  39       29PX         0.00038   0.00000  -0.00004   0.00000   0.00000
  40       29PY         0.00000   0.00000   0.00000   0.00000  -0.00004
  41       29PZ         0.00000   0.00014   0.00000   0.00022   0.00000
  42       30PX        -0.00135   0.00000   0.00015   0.00000   0.00000
  43       30PY         0.00000   0.00000   0.00000   0.00000   0.00013
  44       30PZ         0.00000  -0.00050   0.00000  -0.00072   0.00000
  45       31PX         0.00685   0.00000  -0.00080   0.00000   0.00000
  46       31PY         0.00000   0.00000   0.00000   0.00000  -0.00074
  47       31PZ         0.00000   0.00237   0.00000   0.00278   0.00000
  48       32PX        -0.04425   0.00000   0.00565   0.00000   0.00000
  49       32PY         0.00000   0.00000   0.00000   0.00000   0.00541
  50       32PZ         0.00000  -0.01514   0.00000  -0.01501   0.00000
  51       33PX         0.52555   0.00000  -0.07035   0.00000   0.00000
  52       33PY         0.00000   0.00000   0.00000   0.00000  -0.07383
  53       33PZ         0.00000   0.11752   0.00000  -0.08235   0.00000
  54       34PX         0.31594   0.00000  -0.03920   0.00000   0.00000
  55       34PY         0.00000   0.00000   0.00000   0.00000  -0.03826
  56       34PZ         0.00000   0.10164   0.00000   0.07825   0.00000
  57       35PX         0.32010   0.00000  -0.04622   0.00000   0.00000
  58       35PY         0.00000   0.00000   0.00000   0.00000  -0.04718
  59       35PZ         0.00000   0.08779   0.00000   0.01851   0.00000
  60       36PX         0.26210   0.00000  -0.02929   0.00000   0.00000
  61       36PY         0.00000   0.00000   0.00000   0.00000  -0.02396
  62       36PZ         0.00000   0.07468   0.00000   0.05264   0.00000
  63       37PX         0.03574   0.00000   0.01511   0.00000   0.00000
  64       37PY         0.00000   0.00000   0.00000   0.00000   0.01783
  65       37PZ         0.00000   0.01594   0.00000   0.00285   0.00000
  66       38PX        -0.00301   0.00000   0.03224   0.00000   0.00000
  67       38PY         0.00000   0.00000   0.00000   0.00000   0.01984
  68       38PZ         0.00000   0.00507   0.00000  -0.00443   0.00000
  69       39PX         0.00194   0.00000  -0.00135   0.00000   0.00000
  70       39PY         0.00000   0.00000   0.00000   0.00000  -0.00187
  71       39PZ         0.00000   0.00349   0.00000   0.00237   0.00000
  72       40PX        -0.47773   0.00000   0.06229   0.00000   0.00000
  73       40PY         0.00000   0.00000   0.00000   0.00000   0.06563
  74       40PZ         0.00000  -0.10223   0.00000   0.08704   0.00000
  75       41PX         0.13874   0.00000  -0.02213   0.00000   0.00000
  76       41PY         0.00000   0.00000   0.00000   0.00000  -0.02180
  77       41PZ         0.00000   0.05465   0.00000   0.05030   0.00000
  78       42PX        -0.00056   0.00000  -0.00021   0.00000   0.00000
  79       42PY         0.00000   0.00000   0.00000   0.00000  -0.00054
  80       42PZ         0.00000  -0.00080   0.00000  -0.00106   0.00000
  81       43D 0        0.00000   0.00003   0.00000   0.00008   0.00000
  82       43D+1       -0.00000   0.00000  -0.00005   0.00000   0.00000
  83       43D-1        0.00000   0.00000   0.00000   0.00000  -0.00006
  84       43D+2        0.00000   0.00000   0.00000   0.00000   0.00000
  85       43D-2        0.00000   0.00000   0.00000   0.00000   0.00000
  86       44D 0        0.00000  -0.00023   0.00000  -0.00057   0.00000
  87       44D+1        0.00001   0.00000   0.00039   0.00000   0.00000
  88       44D-1        0.00000   0.00000   0.00000   0.00000   0.00047
  89       44D+2        0.00000  -0.00000   0.00000  -0.00002   0.00000
  90       44D-2        0.00000   0.00000   0.00000   0.00000   0.00000
  91       45D 0        0.00000   0.01002   0.00000   0.02776   0.00000
  92       45D+1       -0.00058   0.00000  -0.01502   0.00000   0.00000
  93       45D-1        0.00000   0.00000   0.00000   0.00000  -0.01830
  94       45D+2        0.00000   0.00022   0.00000   0.00068   0.00000
  95       45D-2        0.00000   0.00000   0.00000   0.00000   0.00000
  96       46D 0        0.00000   0.07645   0.00000   0.22406   0.00000
  97       46D+1       -0.00639   0.00000  -0.09994   0.00000   0.00000
  98       46D-1        0.00000   0.00000   0.00000   0.00000  -0.12368
  99       46D+2        0.00000   0.00164   0.00000   0.00469   0.00000
 100       46D-2        0.00000   0.00000   0.00000   0.00000   0.00000
 101       47D 0        0.00000   0.05201   0.00000   0.10091   0.00000
 102       47D+1        0.00884   0.00000  -0.05117   0.00000   0.00000
 103       47D-1        0.00000   0.00000   0.00000   0.00000  -0.06317
 104       47D+2        0.00000   0.00090   0.00000   0.00242   0.00000
 105       47D-2        0.00000   0.00000   0.00000   0.00000   0.00000
 106       48D 0        0.00000   0.06707   0.00000   0.17714   0.00000
 107       48D+1        0.00385   0.00000  -0.10576   0.00000   0.00000
 108       48D-1        0.00000   0.00000   0.00000   0.00000  -0.13383
 109       48D+2        0.00000   0.00061   0.00000   0.00262   0.00000
 110       48D-2        0.00000   0.00000   0.00000   0.00000   0.00000
 111       49D 0        0.00000   0.02369   0.00000   0.11183   0.00000
 112       49D+1        0.00498   0.00000  -0.04993   0.00000   0.00000
 113       49D-1        0.00000   0.00000   0.00000   0.00000  -0.08040
 114       49D+2        0.00000   0.00014   0.00000  -0.00158   0.00000
 115       49D-2        0.00000   0.00000   0.00000   0.00000   0.00000
 116       50D 0        0.00000  -0.00239   0.00000   0.01347   0.00000
 117       50D+1        0.00058   0.00000   0.00196   0.00000   0.00000
 118       50D-1        0.00000   0.00000   0.00000   0.00000  -0.00970
 119       50D+2        0.00000   0.00025   0.00000  -0.00167   0.00000
 120       50D-2        0.00000   0.00000   0.00000   0.00000   0.00000
 121       51D 0        0.00000  -0.03317   0.00000  -0.10441   0.00000
 122       51D+1        0.00350   0.00000   0.03468   0.00000   0.00000
 123       51D-1        0.00000   0.00000   0.00000   0.00000   0.04399
 124       51D+2        0.00000  -0.00056   0.00000  -0.00162   0.00000
 125       51D-2        0.00000   0.00000   0.00000   0.00000   0.00000
 126       52D 0        0.00000   0.01383   0.00000   0.08582   0.00000
 127       52D+1       -0.01303   0.00000  -0.03804   0.00000   0.00000
 128       52D-1        0.00000   0.00000   0.00000   0.00000  -0.04740
 129       52D+2        0.00000   0.00073   0.00000   0.00194   0.00000
 130       52D-2        0.00000   0.00000   0.00000   0.00000   0.00000
 131       53D 0        0.00000   0.00052   0.00000   0.00032   0.00000
 132       53D+1        0.00007   0.00000   0.00131   0.00000   0.00000
 133       53D-1        0.00000   0.00000   0.00000   0.00000   0.00077
 134       53D+2        0.00000  -0.00000   0.00000   0.00012   0.00000
 135       53D-2        0.00000   0.00000   0.00000   0.00000   0.00000
 136       54F 0        0.00000  -0.00116   0.00000  -0.00197   0.00000
 137       54F+1        0.00179   0.00000   0.00147   0.00000   0.00000
 138       54F-1        0.00000   0.00000   0.00000   0.00000   0.00188
 139       54F+2        0.00000   0.00024   0.00000   0.00012   0.00000
 140       54F-2        0.00000   0.00000   0.00000   0.00000   0.00000
 141       54F+3       -0.00084   0.00000   0.00010   0.00000   0.00000
 142       54F-3        0.00000   0.00000   0.00000   0.00000   0.00010
 143       55F 0        0.00000  -0.00590   0.00000  -0.01019   0.00000
 144       55F+1        0.00364   0.00000   0.00658   0.00000   0.00000
 145       55F-1        0.00000   0.00000   0.00000   0.00000   0.00794
 146       55F+2        0.00000   0.00067   0.00000   0.00046   0.00000
 147       55F-2        0.00000   0.00000   0.00000   0.00000   0.00000
 148       55F+3       -0.00178   0.00000   0.00019   0.00000   0.00000
 149       55F-3        0.00000   0.00000   0.00000   0.00000   0.00019
 150       56F 0        0.00000  -0.00948   0.00000  -0.01068   0.00000
 151       56F+1        0.00103   0.00000   0.01942   0.00000   0.00000
 152       56F-1        0.00000   0.00000   0.00000   0.00000   0.02229
 153       56F+2        0.00000   0.00162   0.00000   0.00107   0.00000
 154       56F-2        0.00000   0.00000   0.00000   0.00000   0.00000
 155       56F+3       -0.00088   0.00000  -0.00031   0.00000   0.00000
 156       56F-3        0.00000   0.00000   0.00000   0.00000  -0.00031
 157       57F 0        0.00000  -0.00309   0.00000  -0.01115   0.00000
 158       57F+1       -0.00032   0.00000   0.00055   0.00000   0.00000
 159       57F-1        0.00000   0.00000   0.00000   0.00000   0.00138
 160       57F+2        0.00000   0.00041   0.00000   0.00042   0.00000
 161       57F-2        0.00000   0.00000   0.00000   0.00000   0.00000
 162       57F+3        0.00007   0.00000  -0.00049   0.00000   0.00000
 163       57F-3        0.00000   0.00000   0.00000   0.00000  -0.00050
 164       58G 0        0.00000   0.00030   0.00000   0.00042   0.00000
 165       58G+1       -0.00012   0.00000  -0.00030   0.00000   0.00000
 166       58G-1        0.00000   0.00000   0.00000   0.00000  -0.00022
 167       58G+2        0.00000  -0.00002   0.00000  -0.00012   0.00000
 168       58G-2        0.00000   0.00000   0.00000   0.00000   0.00000
 169       58G+3        0.00007   0.00000   0.00006   0.00000   0.00000
 170       58G-3        0.00000   0.00000   0.00000   0.00000   0.00008
 171       58G+4        0.00000  -0.00000   0.00000  -0.00001   0.00000
 172       58G-4        0.00000   0.00000   0.00000   0.00000   0.00000
 173       59G 0        0.00000   0.00188   0.00000   0.00456   0.00000
 174       59G+1       -0.00044   0.00000  -0.00342   0.00000   0.00000
 175       59G-1        0.00000   0.00000   0.00000   0.00000  -0.00356
 176       59G+2        0.00000  -0.00036   0.00000  -0.00048   0.00000
 177       59G-2        0.00000   0.00000   0.00000   0.00000   0.00000
 178       59G+3       -0.00012   0.00000   0.00026   0.00000   0.00000
 179       59G-3        0.00000   0.00000   0.00000   0.00000   0.00030
 180       59G+4        0.00000  -0.00000   0.00000  -0.00001   0.00000
 181       59G-4        0.00000   0.00000   0.00000   0.00000   0.00000
 182       60G 0        0.00000   0.00114   0.00000   0.00049   0.00000
 183       60G+1        0.00026   0.00000  -0.00400   0.00000   0.00000
 184       60G-1        0.00000   0.00000   0.00000   0.00000  -0.00398
 185       60G+2        0.00000  -0.00044   0.00000  -0.00051   0.00000
 186       60G-2        0.00000   0.00000   0.00000   0.00000   0.00000
 187       60G+3        0.00002   0.00000   0.00048   0.00000   0.00000
 188       60G-3        0.00000   0.00000   0.00000   0.00000   0.00056
 189       60G+4        0.00000   0.00000   0.00000   0.00001   0.00000
 190       60G-4        0.00000   0.00000   0.00000   0.00000   0.00000
 191 2   O  1S          0.00000  -0.00000   0.00000   0.00000   0.00000
 192        2S          0.00000   0.00001   0.00000  -0.00000   0.00000
 193        3S          0.00000  -0.00005   0.00000   0.00001   0.00000
 194        4S          0.00000   0.00031   0.00000  -0.00005   0.00000
 195        5S          0.00000  -0.00323   0.00000   0.00053   0.00000
 196        6S          0.00000  -0.04797   0.00000   0.00858   0.00000
 197        7S          0.00000  -0.15917   0.00000   0.02771   0.00000
 198        8S          0.00000   0.55291   0.00000  -0.07689   0.00000
 199        9S          0.00000   0.14933   0.00000  -0.03077   0.00000
 200       10S          0.00000   0.38758   0.00000  -0.17442   0.00000
 201       11S          0.00000  -0.00536   0.00000  -0.00239   0.00000
 202       12S          0.00000   0.04675   0.00000  -0.00787   0.00000
 203       13S          0.00000   0.04777   0.00000  -0.06485   0.00000
 204       14PX         0.00020   0.00000   0.00776   0.00000   0.00000
 205       14PY         0.00000   0.00000   0.00000   0.00000   0.00739
 206       14PZ         0.00000   0.00069   0.00000   0.00731   0.00000
 207       15PX         0.00224   0.00000   0.08048   0.00000   0.00000
 208       15PY         0.00000   0.00000   0.00000   0.00000   0.07657
 209       15PZ         0.00000   0.00677   0.00000   0.07765   0.00000
 210       16PX         0.00732   0.00000   0.25790   0.00000   0.00000
 211       16PY         0.00000   0.00000   0.00000   0.00000   0.24510
 212       16PZ         0.00000   0.01866   0.00000   0.25246   0.00000
 213       17PX         0.01214   0.00000   0.41670   0.00000   0.00000
 214       17PY         0.00000   0.00000   0.00000   0.00000   0.39891
 215       17PZ         0.00000   0.04586   0.00000   0.40590   0.00000
 216       18PX         0.00483   0.00000   0.33286   0.00000   0.00000
 217       18PY         0.00000   0.00000   0.00000   0.00000   0.31497
 218       18PZ         0.00000   0.05067   0.00000   0.26655   0.00000
 219       19PX         0.00019   0.00000   0.00446   0.00000   0.00000
 220       19PY         0.00000   0.00000   0.00000   0.00000   0.00426
 221       19PZ         0.00000   0.00028   0.00000   0.00496   0.00000
 222       20PX        -0.00005   0.00000  -0.00205   0.00000   0.00000
 223       20PY         0.00000   0.00000   0.00000   0.00000  -0.00195
 224       20PZ         0.00000  -0.00019   0.00000  -0.00190   0.00000
 225       21PX         0.00054   0.00000   0.04654   0.00000   0.00000
 226       21PY         0.00000   0.00000   0.00000   0.00000   0.03432
 227       21PZ         0.00000   0.00605   0.00000   0.02409   0.00000
 228       22D 0        0.00000   0.00202   0.00000   0.00970   0.00000
 229       22D+1        0.00158   0.00000   0.00703   0.00000   0.00000
 230       22D-1        0.00000   0.00000   0.00000   0.00000   0.00843
 231       22D+2        0.00000   0.00011   0.00000  -0.00023   0.00000
 232       22D-2        0.00000   0.00000   0.00000   0.00000   0.00000
 233       23D 0        0.00000   0.01225   0.00000   0.03126   0.00000
 234       23D+1        0.00373   0.00000   0.02700   0.00000   0.00000
 235       23D-1        0.00000   0.00000   0.00000   0.00000   0.03209
 236       23D+2        0.00000  -0.00011   0.00000  -0.00065   0.00000
 237       23D-2        0.00000   0.00000   0.00000   0.00000   0.00000
 238       24D 0        0.00000   0.00005   0.00000   0.00036   0.00000
 239       24D+1        0.00006   0.00000   0.00031   0.00000   0.00000
 240       24D-1        0.00000   0.00000   0.00000   0.00000   0.00038
 241       24D+2        0.00000   0.00003   0.00000  -0.00002   0.00000
 242       24D-2        0.00000   0.00000   0.00000   0.00000   0.00000
 243       25D 0        0.00000   0.01091   0.00000   0.01787   0.00000
 244       25D+1       -0.00017   0.00000   0.02346   0.00000   0.00000
 245       25D-1        0.00000   0.00000   0.00000   0.00000   0.02668
 246       25D+2        0.00000   0.00067   0.00000  -0.00058   0.00000
 247       25D-2        0.00000   0.00000   0.00000   0.00000   0.00000
 248       26F 0        0.00000   0.00179   0.00000   0.00611   0.00000
 249       26F+1        0.00144   0.00000   0.00480   0.00000   0.00000
 250       26F-1        0.00000   0.00000   0.00000   0.00000   0.00515
 251       26F+2        0.00000  -0.00018   0.00000  -0.00045   0.00000
 252       26F-2        0.00000   0.00000   0.00000   0.00000   0.00000
 253       26F+3       -0.00002   0.00000  -0.00043   0.00000   0.00000
[...]
  47       31PZ         0.00234   0.00118   0.00116   0.00001
  48       32PX        -0.03208  -0.01613  -0.01595  -0.00018
  49       32PY        -0.03186  -0.01593  -0.01593   0.00000
  50       32PZ        -0.03153  -0.01584  -0.01569  -0.00015
  51       33PX         0.66466   0.33603   0.32864   0.00739
  52       33PY         0.65867   0.32933   0.32933   0.00000
  53       33PZ         0.72028   0.36045   0.35983   0.00062
  54       34PX         0.56452   0.28368   0.28084   0.00284
  55       34PY         0.56228   0.28114   0.28114   0.00000
  56       34PZ         0.56001   0.28079   0.27922   0.00157
  57       35PX         0.63778   0.31970   0.31808   0.00162
  58       35PY         0.63787   0.31894   0.31894   0.00000
  59       35PZ         0.65267   0.32661   0.32607   0.00054
  60       36PX         0.44306   0.22094   0.22212  -0.00117
  61       36PY         0.44447   0.22223   0.22223   0.00000
  62       36PZ         0.40062   0.19911   0.20151  -0.00241
  63       37PX         0.07708   0.05479   0.02229   0.03250
  64       37PY         0.04223   0.02112   0.02112   0.00000
  65       37PZ         0.06189   0.05072   0.01117   0.03955
  66       38PX         0.05444   0.04493   0.00951   0.03542
  67       38PY         0.00930   0.00465   0.00465   0.00000
  68       38PZ         0.06596   0.07332  -0.00737   0.08069
  69       39PX        -0.00102  -0.00091  -0.00010  -0.00081
  70       39PY        -0.00033  -0.00017  -0.00017   0.00000
  71       39PZ         0.02369   0.02395  -0.00026   0.02421
  72       40PX        -0.58391  -0.29523  -0.28868  -0.00654
  73       40PY        -0.57915  -0.28958  -0.28958   0.00000
  74       40PZ        -0.63519  -0.31780  -0.31739  -0.00041
  75       41PX         0.27654   0.13855   0.13799   0.00055
  76       41PY         0.27699   0.13850   0.13850   0.00000
  77       41PZ         0.27799   0.13916   0.13883   0.00032
  78       42PX         0.00011   0.00015  -0.00004   0.00019
  79       42PY        -0.00012  -0.00006  -0.00006   0.00000
  80       42PZ        -0.00137  -0.00132  -0.00005  -0.00127
  81       43D 0        0.00000   0.00000   0.00000   0.00000
  82       43D+1        0.00001   0.00001   0.00000   0.00000
  83       43D-1        0.00000   0.00000   0.00000   0.00000
  84       43D+2        0.00001   0.00001   0.00000   0.00001
  85       43D-2        0.00001   0.00001   0.00000   0.00001
  86       44D 0       -0.00010  -0.00006  -0.00004  -0.00001
  87       44D+1       -0.00022  -0.00020  -0.00001  -0.00019
  88       44D-1       -0.00004  -0.00002  -0.00002   0.00000
  89       44D+2       -0.00021  -0.00021  -0.00000  -0.00021
  90       44D-2       -0.00021  -0.00021  -0.00000  -0.00021
  91       45D 0        0.01361   0.00763   0.00598   0.00165
  92       45D+1        0.02592   0.02442   0.00150   0.02292
  93       45D-1        0.00448   0.00224   0.00224   0.00000
  94       45D+2        0.02473   0.02472   0.00001   0.02472
  95       45D-2        0.02499   0.02499   0.00000   0.02499
  96       46D 0        0.19877   0.11001   0.08876   0.02125
  97       46D+1        0.32621   0.30759   0.01862   0.28897
  98       46D-1        0.05643   0.02821   0.02821   0.00000
  99       46D+2        0.30501   0.30494   0.00006   0.30488
 100       46D-2        0.30817   0.30817   0.00000   0.30817
 101       47D 0        0.13072   0.07032   0.06039   0.00993
 102       47D+1        0.20108   0.18671   0.01437   0.17234
 103       47D-1        0.04291   0.02146   0.02146   0.00000
 104       47D+2        0.19054   0.19050   0.00004   0.19046
 105       47D-2        0.19250   0.19250   0.00000   0.19250
 106       48D 0        0.27549   0.15036   0.12514   0.02522
 107       48D+1        0.33765   0.29219   0.04546   0.24673
 108       48D-1        0.13182   0.06591   0.06591   0.00000
 109       48D+2        0.30877   0.30874   0.00003   0.30871
 110       48D-2        0.31191   0.31191   0.00000   0.31191
 111       49D 0        0.09133   0.05787   0.03346   0.02442
 112       49D+1        0.13481   0.10716   0.02766   0.07950
 113       49D-1        0.09603   0.04801   0.04801   0.00000
 114       49D+2        0.12686   0.12686   0.00001   0.12685
 115       49D-2        0.12794   0.12794   0.00000   0.12794
 116       50D 0       -0.00121   0.00171  -0.00292   0.00462
 117       50D+1        0.00256   0.00326  -0.00070   0.00396
 118       50D-1        0.00723   0.00362   0.00362   0.00000
 119       50D+2        0.00825   0.00825   0.00000   0.00824
 120       50D-2        0.00817   0.00817   0.00000   0.00817
 121       51D 0       -0.09607  -0.05252  -0.04355  -0.00897
 122       51D+1       -0.13603  -0.12917  -0.00687  -0.12230
 123       51D-1       -0.02130  -0.01065  -0.01065   0.00000
 124       51D+2       -0.12397  -0.12395  -0.00002  -0.12393
 125       51D-2       -0.12527  -0.12527  -0.00000  -0.12527
 126       52D 0        0.10862   0.06138   0.04725   0.01413
 127       52D+1        0.16036   0.14964   0.01072   0.13892
 128       52D-1        0.03223   0.01612   0.01612   0.00000
 129       52D+2        0.14896   0.14893   0.00003   0.14889
 130       52D-2        0.15049   0.15049   0.00000   0.15049
 131       53D 0        0.00007   0.00004   0.00002   0.00002
 132       53D+1       -0.00026  -0.00011  -0.00015   0.00004
 133       53D-1       -0.00018  -0.00009  -0.00009   0.00000
 134       53D+2       -0.00011  -0.00011  -0.00000  -0.00011
 135       53D-2       -0.00011  -0.00011  -0.00000  -0.00011
 136       54F 0        0.00012   0.00006   0.00006   0.00000
 137       54F+1        0.00005   0.00003   0.00003  -0.00000
 138       54F-1        0.00006   0.00003   0.00003   0.00000
 139       54F+2        0.00000   0.00000   0.00000   0.00000
 140       54F-2        0.00000   0.00000   0.00000   0.00000
 141       54F+3        0.00000   0.00000   0.00000   0.00000
 142       54F-3        0.00000   0.00000   0.00000   0.00000
 143       55F 0        0.00251   0.00126   0.00125   0.00001
 144       55F+1        0.00096   0.00048   0.00048   0.00000
 145       55F-1        0.00113   0.00056   0.00056   0.00000
 146       55F+2        0.00001   0.00001   0.00000   0.00000
 147       55F-2       -0.00000  -0.00000   0.00000  -0.00000
 148       55F+3        0.00001   0.00000   0.00000   0.00000
 149       55F-3        0.00001   0.00000   0.00000   0.00000
 150       56F 0        0.00718   0.00359   0.00358   0.00001
 151       56F+1        0.01394   0.00802   0.00592   0.00210
 152       56F-1        0.01325   0.00662   0.00662   0.00000
 153       56F+2        0.00007   0.00007   0.00001   0.00006
 154       56F-2        0.00003   0.00003   0.00000   0.00003
 155       56F+3        0.00000   0.00000   0.00000   0.00000
 156       56F-3        0.00000   0.00000   0.00000   0.00000
 157       57F 0       -0.00344  -0.00185  -0.00159  -0.00026
 158       57F+1        0.00216   0.00195   0.00021   0.00174
 159       57F-1        0.00100   0.00050   0.00050   0.00000
 160       57F+2        0.00008   0.00008   0.00000   0.00008
 161       57F-2        0.00005   0.00005   0.00000   0.00005
 162       57F+3        0.00000   0.00000   0.00000   0.00000
 163       57F-3        0.00000   0.00000   0.00000   0.00000
 164       58G 0        0.00001   0.00001   0.00001   0.00000
 165       58G+1        0.00000   0.00000   0.00000  -0.00000
 166       58G-1        0.00000   0.00000   0.00000   0.00000
 167       58G+2        0.00000   0.00000   0.00000   0.00000
 168       58G-2        0.00000   0.00000   0.00000   0.00000
 169       58G+3        0.00000   0.00000   0.00000   0.00000
 170       58G-3        0.00000   0.00000   0.00000   0.00000
 171       58G+4        0.00000   0.00000   0.00000   0.00000
 172       58G-4        0.00000   0.00000   0.00000   0.00000
 173       59G 0        0.00079   0.00040   0.00039   0.00001
 174       59G+1        0.00042   0.00020   0.00022  -0.00002
 175       59G-1        0.00045   0.00023   0.00023   0.00000
 176       59G+2        0.00000   0.00000   0.00000   0.00000
 177       59G-2        0.00000   0.00000   0.00000   0.00000
 178       59G+3        0.00000   0.00000   0.00000   0.00000
 179       59G-3        0.00000   0.00000   0.00000   0.00000
 180       59G+4        0.00000   0.00000   0.00000   0.00000
 181       59G-4        0.00000   0.00000   0.00000   0.00000
 182       60G 0        0.00051   0.00027   0.00024   0.00003
 183       60G+1        0.00278   0.00161   0.00117   0.00044
 184       60G-1        0.00223   0.00112   0.00112   0.00000
 185       60G+2        0.00000   0.00000   0.00000  -0.00000
 186       60G-2       -0.00000  -0.00000   0.00000  -0.00000
 187       60G+3        0.00000   0.00000   0.00000   0.00000
 188       60G-3        0.00000   0.00000   0.00000   0.00000
 189       60G+4        0.00000   0.00000   0.00000   0.00000
 190       60G-4        0.00000   0.00000   0.00000   0.00000
 191 2   O  1S         -0.00000  -0.00000  -0.00000  -0.00000
 192        2S          0.00000   0.00000   0.00000   0.00000
 193        3S         -0.00000  -0.00000  -0.00000  -0.00000
 194        4S          0.00001   0.00000   0.00000   0.00000
 195        5S         -0.00023  -0.00012  -0.00012  -0.00000
 196        6S         -0.01090  -0.00546  -0.00544  -0.00002
 197        7S         -0.10004  -0.05011  -0.04993  -0.00019
 198        8S          1.08319   0.54246   0.54073   0.00173
 199        9S          0.22515   0.11278   0.11237   0.00041
 200       10S          0.75665   0.38086   0.37579   0.00507
 201       11S         -0.00225  -0.00114  -0.00111  -0.00003
 202       12S          0.00823   0.00412   0.00411   0.00002
 203       13S          0.12431   0.07871   0.04560   0.03311
 204       14PX         0.00189   0.00099   0.00090   0.00010
 205       14PY         0.00163   0.00081   0.00081   0.00000
 206       14PZ         0.00170   0.00085   0.00084   0.00001
 207       15PX         0.06357   0.03337   0.03020   0.00316
 208       15PY         0.05501   0.02751   0.02751   0.00000
 209       15PZ         0.05882   0.02957   0.02926   0.00031
 210       16PX         0.37522   0.19629   0.17893   0.01736
 211       16PY         0.32782   0.16391   0.16391   0.00000
 212       16PZ         0.35464   0.17811   0.17653   0.00158
 213       17PX         0.77362   0.40004   0.37358   0.02646
 214       17PY         0.70005   0.35003   0.35003   0.00000
 215       17PZ         0.69921   0.35149   0.34772   0.00377
 216       18PX         0.54270   0.28605   0.25665   0.02940
 217       18PY         0.47916   0.23958   0.23958   0.00000
 218       18PZ         0.30623   0.16916   0.13707   0.03209
 219       19PX         0.00219   0.00114   0.00104   0.00010
 220       19PY         0.00190   0.00095   0.00095   0.00000
 221       19PZ         0.00234   0.00117   0.00117   0.00000
 222       20PX        -0.00030  -0.00016  -0.00014  -0.00002
 223       20PY        -0.00026  -0.00013  -0.00013   0.00000
 224       20PZ        -0.00027  -0.00014  -0.00013  -0.00000
 225       21PX         0.05054   0.03230   0.01823   0.01407
 226       21PY         0.02540   0.01270   0.01270   0.00000
 227       21PZ         0.03053   0.02474   0.00579   0.01895
 228       22D 0        0.00184   0.00096   0.00088   0.00009
 229       22D+1        0.00090   0.00057   0.00033   0.00025
 230       22D-1        0.00094   0.00047   0.00047   0.00000
 231       22D+2        0.00004   0.00004   0.00000   0.00004
 232       22D-2        0.00004   0.00004   0.00000   0.00004
 233       23D 0        0.01052   0.00548   0.00504   0.00045
 234       23D+1        0.00975   0.00617   0.00359   0.00258
 235       23D-1        0.01071   0.00536   0.00536   0.00000
 236       23D+2        0.00070   0.00070   0.00000   0.00070
 237       23D-2        0.00070   0.00070   0.00000   0.00070
 238       24D 0        0.00001   0.00000   0.00000   0.00000
 239       24D+1        0.00000   0.00000   0.00000   0.00000
 240       24D-1        0.00000   0.00000   0.00000   0.00000
 241       24D+2        0.00000   0.00000   0.00000   0.00000
 242       24D-2        0.00000   0.00000   0.00000   0.00000
 243       25D 0       -0.00330  -0.00151  -0.00180   0.00029
 244       25D+1        0.00217   0.00048   0.00170  -0.00122
 245       25D-1        0.00554   0.00277   0.00277   0.00000
 246       25D+2        0.00025   0.00025   0.00000   0.00025
 247       25D-2        0.00023   0.00023   0.00000   0.00023
 248       26F 0        0.00137   0.00073   0.00064   0.00009
 249       26F+1        0.00083   0.00058   0.00026   0.00032
 250       26F-1        0.00064   0.00032   0.00032   0.00000
 251       26F+2        0.00009   0.00009   0.00000   0.00009
 252       26F-2        0.00009   0.00009   0.00000   0.00009
 253       26F+3        0.00000   0.00000   0.00000   0.00000
 254       26F-3        0.00000   0.00000   0.00000   0.00000
 255       27F 0        0.00066   0.00035   0.00032   0.00003
 256       27F+1        0.00108   0.00078   0.00030   0.00047
 257       27F-1        0.00114   0.00057   0.00057   0.00000
 258       27F+2        0.00030   0.00030   0.00000   0.00030
 259       27F-2        0.00029   0.00029   0.00000   0.00029
 260       27F+3        0.00000   0.00000   0.00000   0.00000
 261       27F-3        0.00000   0.00000   0.00000   0.00000
          Condensed to atoms (all electrons):
               1          2
     1  Cr  12.814649   0.200352
     2  O    0.200352   6.784647
          Atomic-Atomic Spin Densities.
               1          2
     1  Cr   3.792258   0.014223
     2  O    0.014223   0.179296
 Mulliken charges and spin densities:
               1          2
     1  Cr   0.984999   3.806481
     2  O   -0.984999   0.193519
 Sum of Mulliken charges =  -0.00000   4.00000
 Mulliken charges and spin densities with hydrogens summed into heavy atoms:
               1          2
     1  Cr   0.984999   3.806481
     2  O   -0.984999   0.193519
 Electronic spatial extent (au):  <R**2>=             77.9513
 Charge=             -0.0000 electrons
 Dipole moment (field-independent basis, Debye):
    X=              0.0000    Y=              0.0000    Z=              3.1003  Tot=              3.1003
 Quadrupole moment (field-independent basis, Debye-Ang):
   XX=            -20.9553   YY=            -19.6534   ZZ=            -24.2277
   XY=              0.0000   XZ=              0.0000   YZ=              0.0000
 Traceless Quadrupole moment (field-independent basis, Debye-Ang):
   XX=              0.6568   YY=              1.9587   ZZ=             -2.6155
   XY=              0.0000   XZ=              0.0000   YZ=              0.0000
 Octapole moment (field-independent basis, Debye-Ang**2):
  XXX=              0.0000  YYY=              0.0000  ZZZ=              1.1728  XYY=              0.0000
  XXY=              0.0000  XXZ=             -0.9472  XZZ=              0.0000  YZZ=              0.0000
  YYZ=             -0.3202  XYZ=              0.0000
 Hexadecapole moment (field-independent basis, Debye-Ang**3):
 XXXX=            -33.3644 YYYY=            -29.2877 ZZZZ=            -93.5578 XXXY=              0.0000
 XXXZ=              0.0000 YYYX=              0.0000 YYYZ=              0.0000 ZZZX=              0.0000
 ZZZY=              0.0000 XXYY=            -10.4410 XXZZ=            -22.0573 YYZZ=            -20.1360
 XXYZ=              0.0000 YYXZ=              0.0000 ZZXY=              0.0000
 N-N= 3.175063265520D+01 E-N=-2.951184107407D+02  KE= 5.600255604818D+01
 Symmetry A1   KE= 2.418282570403D+01
 Symmetry A2   KE= 5.062750168158D+00
 Symmetry B1   KE= 1.578077659865D+01
 Symmetry B2   KE= 1.097620357600D+01
 Symmetry A1   SP= 2.000000000000D+00
 Symmetry A2   SP= 1.000000000000D+00
 Symmetry B1   SP= 1.000000000000D+00
 Symmetry B2   SP= 0.000000000000D+00
 Orbital energies and kinetic energies (alpha):
                                 1                 2
   4         O                -2.414307          3.181881
   5         O                -1.238834          1.365707
   6         O                -0.651466          2.269689
   7         O                -0.569972          3.117349
   8         O                -0.537043          2.301148
   9         O                -0.533844          2.073384
  10         O                -0.519490          5.062750
  11         O                -0.386445          3.648726
  12         O                -0.287221          4.877637
  13         V                 0.010175          0.121481
  14         V                 0.018743          0.092268
  15         V                 0.021894          0.077189
  16         V                 0.030478          0.038869
  17         V                 0.048625          0.343032
 Total kinetic energy from orbitals= 7.166505259459D+01
                          Isotropic Fermi Contact Couplings
        Atom                 a.u.       MegaHertz       Gauss      10(-4) cm-1
     1  Cr(53)             0.00043      -0.02743      -0.00979      -0.00915
     2  O(17)              0.00005      -0.00832      -0.00297      -0.00277
 --------------------------------------------------------
       Center         ----  Spin Dipole Couplings  ----
                      3XX-RR        3YY-RR        3ZZ-RR
 --------------------------------------------------------
     1   Atom        1.778429      0.049908     -1.828337
     2   Atom        0.137926     -0.265370      0.127445
 --------------------------------------------------------
                        XY            XZ            YZ
 --------------------------------------------------------
     1   Atom        0.000000      0.000000      0.000000
     2   Atom        0.000000      0.000000      0.000000
 --------------------------------------------------------


 ---------------------------------------------------------------------------------
              Anisotropic Spin Dipole Couplings in Principal Axis System
 ---------------------------------------------------------------------------------

       Atom             a.u.   MegaHertz   Gauss  10(-4) cm-1        Axes

              Baa    -1.8283    55.251    19.715    18.430  0.0000  0.0000  1.0000
     1 Cr(53) Bbb     0.0499    -1.508    -0.538    -0.503 -0.0000  1.0000  0.0000
              Bcc     1.7784   -53.743   -19.177   -17.927  1.0000  0.0000  0.0000
 
              Baa    -0.2654    19.202     6.852     6.405 -0.0000  1.0000  0.0000
     2 O(17)  Bbb     0.1274    -9.222    -3.291    -3.076  0.0000  0.0000  1.0000
              Bcc     0.1379    -9.980    -3.561    -3.329  1.0000  0.0000  0.0000
 

 ---------------------------------------------------------------------------------

 No NMR shielding tensors so no spin-rotation constants.
 Leave Link  601 at Mon Mar 12 14:31:53 2018, MaxMem= 10737418240 cpu:              53.4 elap:               3.5
 (Enter /home1/apps/gaussian/16rA.03/g16/l9999.exe)

 Test job not archived.
 1\1\GINC-C403-102\SP\ROCCSD(T)-Full\Gen\Cr1O1(5)\AANNABE\12-Mar-2018\0
 \\#P ROCCSD(T)=(maxcyc=150, Full, SaveAmplitudes, ReadAmplitudes)/Gen 
 5d 7f SCF=(maxcycles=300) Integral(NoXCTest) MaxDisk=500GB Pop=Regular
  Pseudo=Read Guess=Read IOp(5/15=2)\\CrO\\0,5\Cr,0,0.,0.,0.\O,0,0.,0.,
 1.4\\Version=ES64L-G16RevA.03\HF=-101.9642615\MP2=-102.8571985\MP3=-10
 2.7995901\PUHF=-101.9642615\PMP2-0=-102.8571985\MP4SDQ=-102.8535049\CC
 SD=-102.8310436\CCSD(T)=-102.8763724\RMSD=3.415e-09\PG=C*V [C*(O1Cr1)]
 \\@


 SCIENCE IS A VERY HUMAN FORM OF KNOWLEDGE.
 WE ARE ALWAYS AT THE BRINK OF THE KNOWN,
 WE ALWAYS FEEL FORWARD FOR WHAT IS HOPED.
 EVERY JUDGEMENT IN SCIENCE STANDS ON THE EDGE OF ERROR, AND IS PERSONAL.
 SCIENCE IS A TRIBUTE TO WHAT WE CAN KNOW ALTHOUGH WE ARE FALLIBLE.

                     -- J. BRONOWSKI
 Job cpu time:       0 days  6 hours 10 minutes  6.7 seconds.
 Elapsed time:       0 days  0 hours 23 minutes 15.0 seconds.
 File lengths (MBytes):  RWF=   4080 Int=      0 D2E=      0 Chk=     24 Scr=      1
 Normal termination of Gaussian 16 at Mon Mar 12 14:31:53 2018.
