 Entering Gaussian System, Link 0=g16
 Initial command:
 /home1/apps/gaussian/16rA.03/g16/l1.exe "/tmp/Gau-32096.inp" -scrdir="/tmp/"
 Entering Link 1 = /home1/apps/gaussian/16rA.03/g16/l1.exe PID=     32097.
  
 Copyright (c) 1988,1990,1992,1993,1995,1998,2003,2009,2016,
            Gaussian, Inc.  All Rights Reserved.
  
 This is part of the Gaussian(R) 16 program.  It is based on
 the Gaussian(R) 09 system (copyright 2009, Gaussian, Inc.),
 the Gaussian(R) 03 system (copyright 2003, Gaussian, Inc.),
 the Gaussian(R) 98 system (copyright 1998, Gaussian, Inc.),
 the Gaussian(R) 94 system (copyright 1995, Gaussian, Inc.),
 the Gaussian 92(TM) system (copyright 1992, Gaussian, Inc.),
 the Gaussian 90(TM) system (copyright 1990, Gaussian, Inc.),
 the Gaussian 88(TM) system (copyright 1988, Gaussian, Inc.),
 the Gaussian 86(TM) system (copyright 1986, Carnegie Mellon
 University), and the Gaussian 82(TM) system (copyright 1983,
 Carnegie Mellon University). Gaussian is a federally registered
 trademark of Gaussian, Inc.
  
 This software contains proprietary and confidential information,
 including trade secrets, belonging to Gaussian, Inc.
  
 This software is provided under written license and may be
 used, copied, transmitted, or stored only in accord with that
 written license.
  
 The following legend is applicable only to US Government
 contracts under FAR:
  
                    RESTRICTED RIGHTS LEGEND
  
 Use, reproduction and disclosure by the US Government is
 subject to restrictions as set forth in subparagraphs (a)
 and (c) of the Commercial Computer Software - Restricted
 Rights clause in FAR 52.227-19.
  
 Gaussian, Inc.
 340 Quinnipiac St., Bldg. 40, Wallingford CT 06492
  
  
 ---------------------------------------------------------------
 Warning -- This program may not be used in any manner that
 competes with the business of Gaussian, Inc. or will provide
 assistance to any competitor of Gaussian, Inc.  The licensee
 of this program is prohibited from giving any competitor of
 Gaussian, Inc. access to this program.  By using this program,
 the user acknowledges that Gaussian, Inc. is engaged in the
 business of creating and licensing software in the field of
 computational chemistry and represents and warrants to the
 licensee that it is not a competitor of Gaussian, Inc. and that
 it will not use this program in any manner prohibited above.
 ---------------------------------------------------------------
  

 Cite this work as:
 Gaussian 16, Revision A.03,
 M. J. Frisch, G. W. Trucks, H. B. Schlegel, G. E. Scuseria, 
 M. A. Robb, J. R. Cheeseman, G. Scalmani, V. Barone, 
 G. A. Petersson, H. Nakatsuji, X. Li, M. Caricato, A. V. Marenich, 
 J. Bloino, B. G. Janesko, R. Gomperts, B. Mennucci, H. P. Hratchian, 
 J. V. Ortiz, A. F. Izmaylov, J. L. Sonnenberg, D. Williams-Young, 
 F. Ding, F. Lipparini, F. Egidi, J. Goings, B. Peng, A. Petrone, 
 T. Henderson, D. Ranasinghe, V. G. Zakrzewski, J. Gao, N. Rega, 
 G. Zheng, W. Liang, M. Hada, M. Ehara, K. Toyota, R. Fukuda, 
 J. Hasegawa, M. Ishida, T. Nakajima, Y. Honda, O. Kitao, H. Nakai, 
 T. Vreven, K. Throssell, J. A. Montgomery, Jr., J. E. Peralta, 
 F. Ogliaro, M. J. Bearpark, J. J. Heyd, E. N. Brothers, K. N. Kudin, 
 V. N. Staroverov, T. A. Keith, R. Kobayashi, J. Normand, 
 K. Raghavachari, A. P. Rendell, J. C. Burant, S. S. Iyengar, 
 J. Tomasi, M. Cossi, J. M. Millam, M. Klene, C. Adamo, R. Cammi, 
 J. W. Ochterski, R. L. Martin, K. Morokuma, O. Farkas, 
 J. B. Foresman, and D. J. Fox, Gaussian, Inc., Wallingford CT, 2016.
 
 ******************************************
 Gaussian 16:  ES64L-G16RevA.03 25-Dec-2016
                10-Mar-2018 
 ******************************************
 %MEM=80GB
 %CPU=0-15
 SetSPE:  set environment variable "MP_BIND" = "yes"
 SetSPE:  set environment variable "MP_BLIST" = "0,1,2,3,4,5,6,7,8,9,10,11,12,13,14,15"
 Will use up to   16 processors via shared memory.
 %RWF=/scratch/04843/aannabe/gaussian/
 %Int=/scratch/04843/aannabe/gaussian/
 %D2E=/scratch/04843/aannabe/gaussian/
 %NoSave
 %CHK=CrO
 ----------------------------------------------------------------------
 #P ROCCSD(T)=(maxcyc=150, Full, SaveAmplitudes, ReadAmplitudes)/Gen 5d
  7f SCF=(maxcycles=300) Integral(NoXCTest) MaxDisk=500GB Pop=Regular P
 seudo=Read Guess=Read IOp(5/15=2)
 ----------------------------------------------------------------------
 1/38=1,172=1/1;
 2/12=2,17=6,18=5,40=1/2;
 3/5=7,8=11,11=2,16=1,17=8,25=1,30=1,47=8,116=101/1,2,3;
 4/5=1/1;
 5/5=2,7=300,15=2,38=6/2;
 8/5=-1,6=4,9=120000,10=90,24=1/1,4;
 9/5=7,6=150,14=2,77=1/13;
 6//1;
 99/5=1,9=1/99;
 Leave Link    1 at Sat Mar 10 05:27:23 2018, MaxMem= 10737418240 cpu:               4.8 elap:               0.3
 (Enter /home1/apps/gaussian/16rA.03/g16/l101.exe)
 ---
 CrO
 ---
 Symbolic Z-matrix:
 Charge =  0 Multiplicity = 5
 Cr                    0.        0.        0. 
 O                     0.        0.        1.5 
 
 ITRead=  0  0
 MicOpt= -1 -1
 NAtoms=      2 NQM=        2 NQMF=       0 NMMI=      0 NMMIF=      0
                NMic=       0 NMicF=      0.
                    Isotopes and Nuclear Properties:
 (Nuclear quadrupole moments (NQMom) in fm**2, nuclear magnetic moments (NMagM)
  in nuclear magnetons)

  Atom         1           2
 IAtWgt=          52          16
 AtmWgt=  51.9405097  15.9949146
 NucSpn=           0           0
 AtZEff=  -0.0000000  -0.0000000
 NQMom=    0.0000000   0.0000000
 NMagM=    0.0000000   0.0000000
 AtZNuc=  24.0000000   8.0000000
 Leave Link  101 at Sat Mar 10 05:27:24 2018, MaxMem= 10737418240 cpu:               1.5 elap:               0.1
 (Enter /home1/apps/gaussian/16rA.03/g16/l202.exe)
                          Input orientation:                          
 ---------------------------------------------------------------------
 Center     Atomic      Atomic             Coordinates (Angstroms)
 Number     Number       Type             X           Y           Z
 ---------------------------------------------------------------------
      1         24           0        0.000000    0.000000    0.000000
      2          8           0        0.000000    0.000000    1.500000
 ---------------------------------------------------------------------
 Stoichiometry    CrO(5)
 Framework group  C*V[C*(OCr)]
 Deg. of freedom     1
 Full point group                 C*V     NOp   4
 Largest Abelian subgroup         C2V     NOp   4
 Largest concise Abelian subgroup C1      NOp   1
                         Standard orientation:                         
 ---------------------------------------------------------------------
 Center     Atomic      Atomic             Coordinates (Angstroms)
 Number     Number       Type             X           Y           Z
 ---------------------------------------------------------------------
      1         24           0        0.000000    0.000000    0.375000
      2          8           0        0.000000    0.000000   -1.125000
 ---------------------------------------------------------------------
 Rotational constants (GHZ):           0.0000000          18.3671951          18.3671951
 Leave Link  202 at Sat Mar 10 05:27:24 2018, MaxMem= 10737418240 cpu:               0.5 elap:               0.1
 (Enter /home1/apps/gaussian/16rA.03/g16/l301.exe)
 General basis read from cards:  (5D, 7F)
 Centers:       1
 S 1 1.00
     Exponent=  6.1771940000D+06 Coefficients=  1.0000000000D+00
 S 1 1.00
     Exponent=  9.2492950000D+05 Coefficients=  1.0000000000D+00
 S 1 1.00
     Exponent=  2.1048650000D+05 Coefficients=  1.0000000000D+00
 S 1 1.00
     Exponent=  5.9620050000D+04 Coefficients=  1.0000000000D+00
 S 1 1.00
     Exponent=  1.9450760000D+04 Coefficients=  1.0000000000D+00
 S 1 1.00
     Exponent=  7.0220560000D+03 Coefficients=  1.0000000000D+00
 S 1 1.00
     Exponent=  2.7387630000D+03 Coefficients=  1.0000000000D+00
 S 1 1.00
     Exponent=  1.1358140000D+03 Coefficients=  1.0000000000D+00
 S 1 1.00
     Exponent=  4.9509230000D+02 Coefficients=  1.0000000000D+00
 S 1 1.00
     Exponent=  2.2474870000D+02 Coefficients=  1.0000000000D+00
 S 1 1.00
     Exponent=  1.0538360000D+02 Coefficients=  1.0000000000D+00
 S 1 1.00
     Exponent=  5.0193590000D+01 Coefficients=  1.0000000000D+00
 S 1 1.00
     Exponent=  2.2249570000D+01 Coefficients=  1.0000000000D+00
 S 1 1.00
     Exponent=  1.0982650000D+01 Coefficients=  1.0000000000D+00
 S 1 1.00
     Exponent=  5.3836650000D+00 Coefficients=  1.0000000000D+00
 S 1 1.00
     Exponent=  2.3436850000D+00 Coefficients=  1.0000000000D+00
 S 1 1.00
     Exponent=  1.1052020000D+00 Coefficients=  1.0000000000D+00
 S 1 1.00
     Exponent=  4.8784800000D-01 Coefficients=  1.0000000000D+00
 S 1 1.00
     Exponent=  8.9599000000D-02 Coefficients=  1.0000000000D+00
 S 1 1.00
     Exponent=  3.3423000000D-02 Coefficients=  1.0000000000D+00
 S 1 1.00
     Exponent=  4.8281000000D+00 Coefficients=  1.0000000000D+00
 S 1 1.00
     Exponent=  1.1499000000D+00 Coefficients=  1.0000000000D+00
 S 1 1.00
     Exponent=  1.2470000000D-02 Coefficients=  1.0000000000D+00
 P 1 1.00
     Exponent=  1.4454200000D+04 Coefficients=  1.0000000000D+00
 P 1 1.00
     Exponent=  3.4216760000D+03 Coefficients=  1.0000000000D+00
 P 1 1.00
     Exponent=  1.1113870000D+03 Coefficients=  1.0000000000D+00
 P 1 1.00
     Exponent=  4.2519180000D+02 Coefficients=  1.0000000000D+00
 P 1 1.00
     Exponent=  1.8026230000D+02 Coefficients=  1.0000000000D+00
 P 1 1.00
     Exponent=  8.2061170000D+01 Coefficients=  1.0000000000D+00
 P 1 1.00
     Exponent=  3.9297260000D+01 Coefficients=  1.0000000000D+00
 P 1 1.00
     Exponent=  1.9419590000D+01 Coefficients=  1.0000000000D+00
 P 1 1.00
     Exponent=  9.8288990000D+00 Coefficients=  1.0000000000D+00
 P 1 1.00
     Exponent=  5.0168100000D+00 Coefficients=  1.0000000000D+00
 P 1 1.00
     Exponent=  2.4870910000D+00 Coefficients=  1.0000000000D+00
 P 1 1.00
     Exponent=  1.1987800000D+00 Coefficients=  1.0000000000D+00
 P 1 1.00
     Exponent=  5.5869500000D-01 Coefficients=  1.0000000000D+00
 P 1 1.00
     Exponent=  2.0936600000D-01 Coefficients=  1.0000000000D+00
 P 1 1.00
     Exponent=  8.4722000000D-02 Coefficients=  1.0000000000D+00
 P 1 1.00
     Exponent=  3.3278000000D-02 Coefficients=  1.0000000000D+00
 P 1 1.00
     Exponent=  5.2718000000D+00 Coefficients=  1.0000000000D+00
 P 1 1.00
     Exponent=  1.2083000000D+00 Coefficients=  1.0000000000D+00
 P 1 1.00
     Exponent=  1.3070000000D-02 Coefficients=  1.0000000000D+00
 D 1 1.00
     Exponent=  8.9474500000D+01 Coefficients=  1.0000000000D+00
 D 1 1.00
     Exponent=  2.6336800000D+01 Coefficients=  1.0000000000D+00
 D 1 1.00
     Exponent=  9.5342900000D+00 Coefficients=  1.0000000000D+00
 D 1 1.00
     Exponent=  3.8211800000D+00 Coefficients=  1.0000000000D+00
 D 1 1.00
     Exponent=  1.5716900000D+00 Coefficients=  1.0000000000D+00
 D 1 1.00
     Exponent=  6.2642200000D-01 Coefficients=  1.0000000000D+00
 D 1 1.00
     Exponent=  2.3305500000D-01 Coefficients=  1.0000000000D+00
 D 1 1.00
     Exponent=  7.6303000000D-02 Coefficients=  1.0000000000D+00
 D 1 1.00
     Exponent=  3.4093000000D+00 Coefficients=  1.0000000000D+00
 D 1 1.00
     Exponent=  1.5874000000D+00 Coefficients=  1.0000000000D+00
 D 1 1.00
     Exponent=  2.4980000000D-02 Coefficients=  1.0000000000D+00
 F 1 1.00
     Exponent=  4.3629000000D+00 Coefficients=  1.0000000000D+00
 F 1 1.00
     Exponent=  1.5864000000D+00 Coefficients=  1.0000000000D+00
 F 1 1.00
     Exponent=  5.2310000000D-01 Coefficients=  1.0000000000D+00
 F 1 1.00
     Exponent=  1.7249000000D-01 Coefficients=  1.0000000000D+00
 G 1 1.00
     Exponent=  4.0406000000D+00 Coefficients=  1.0000000000D+00
 G 1 1.00
     Exponent=  1.4199000000D+00 Coefficients=  1.0000000000D+00
 G 1 1.00
     Exponent=  4.9896000000D-01 Coefficients=  1.0000000000D+00
 ****
 Centers:       2
 S 1 1.00
     Exponent=  1.5330000000D+04 Coefficients=  1.0000000000D+00
 S 1 1.00
     Exponent=  2.2990000000D+03 Coefficients=  1.0000000000D+00
 S 1 1.00
     Exponent=  5.2240000000D+02 Coefficients=  1.0000000000D+00
 S 1 1.00
     Exponent=  1.4730000000D+02 Coefficients=  1.0000000000D+00
 S 1 1.00
     Exponent=  4.7550000000D+01 Coefficients=  1.0000000000D+00
 S 1 1.00
     Exponent=  1.6760000000D+01 Coefficients=  1.0000000000D+00
 S 1 1.00
     Exponent=  6.2070000000D+00 Coefficients=  1.0000000000D+00
 S 1 1.00
     Exponent=  6.8820000000D-01 Coefficients=  1.0000000000D+00
 S 1 1.00
     Exponent=  1.7520000000D+00 Coefficients=  1.0000000000D+00
 S 1 1.00
     Exponent=  2.3840000000D-01 Coefficients=  1.0000000000D+00
 S 1 1.00
     Exponent=  7.8450000000D+00 Coefficients=  1.0000000000D+00
 S 1 1.00
     Exponent=  2.1032000000D+01 Coefficients=  1.0000000000D+00
 S 1 1.00
     Exponent=  7.3760000000D-02 Coefficients=  1.0000000000D+00
 P 1 1.00
     Exponent=  3.4460000000D+01 Coefficients=  1.0000000000D+00
 P 1 1.00
     Exponent=  7.7490000000D+00 Coefficients=  1.0000000000D+00
 P 1 1.00
     Exponent=  2.2800000000D+00 Coefficients=  1.0000000000D+00
 P 1 1.00
     Exponent=  7.1560000000D-01 Coefficients=  1.0000000000D+00
 P 1 1.00
     Exponent=  2.1400000000D-01 Coefficients=  1.0000000000D+00
 P 1 1.00
     Exponent=  1.5159000000D+01 Coefficients=  1.0000000000D+00
 P 1 1.00
     Exponent=  5.7437000000D+01 Coefficients=  1.0000000000D+00
 P 1 1.00
     Exponent=  5.9740000000D-02 Coefficients=  1.0000000000D+00
 D 1 1.00
     Exponent=  2.3140000000D+00 Coefficients=  1.0000000000D+00
 D 1 1.00
     Exponent=  6.4500000000D-01 Coefficients=  1.0000000000D+00
 D 1 1.00
     Exponent=  1.5858000000D+01 Coefficients=  1.0000000000D+00
 D 1 1.00
     Exponent=  2.1400000000D-01 Coefficients=  1.0000000000D+00
 F 1 1.00
     Exponent=  1.4280000000D+00 Coefficients=  1.0000000000D+00
 F 1 1.00
     Exponent=  5.0000000000D-01 Coefficients=  1.0000000000D+00
 ****
 ======================================================================================================
                                       Pseudopotential Parameters
 ======================================================================================================
  Center     Atomic      Valence      Angular      Power
  Number     Number     Electrons     Momentum     of R      Exponent        Coefficient   SO-Coeffient
 ======================================================================================================
    1         24           14
                                      D and up 
                                                     1       18.9608692       14.00000000    0.00000000
                                                     3       19.2685642      265.45216919    0.00000000
                                                     2       18.0153842     -128.16784351    0.00000000
                                                     2        4.5700133       -0.77003812    0.00000000
                                      S - D
                                                     2       16.4903486      219.81621107    0.00000000
                                                     2        7.5667485       28.10747145    0.00000000
                                      P - D
                                                     2       16.3628681      143.81708416    0.00000000
                                                     2        7.8017945       20.57648136    0.00000000
    2          8            6
                                      P and up 
                                                     1       12.3099700        6.00000000    0.00000000
                                                     3       14.7696200       73.85984000    0.00000000
                                                     2       13.7141900      -47.87600000    0.00000000
                                      S - P
                                                     2       13.6551200       85.86406000    0.00000000
 ======================================================================================================
 Ernie: Thresh=  0.10000D-02 Tol=  0.10000D-05 Strict=F.
 There are   144 symmetry adapted cartesian basis functions of A1  symmetry.
 There are    30 symmetry adapted cartesian basis functions of A2  symmetry.
 There are    69 symmetry adapted cartesian basis functions of B1  symmetry.
 There are    69 symmetry adapted cartesian basis functions of B2  symmetry.
 There are   114 symmetry adapted basis functions of A1  symmetry.
 There are    27 symmetry adapted basis functions of A2  symmetry.
 There are    60 symmetry adapted basis functions of B1  symmetry.
 There are    60 symmetry adapted basis functions of B2  symmetry.
   261 basis functions,   312 primitive gaussians,   312 cartesian basis functions
    12 alpha electrons        8 beta electrons
       nuclear repulsion energy        29.6339238115 Hartrees.
 IExCor=    0 DFT=F Ex=HF Corr=None ExCW=0 ScaHFX=  1.000000
 ScaDFX=  1.000000  1.000000  1.000000  1.000000 ScalE2=  1.000000  1.000000
 IRadAn=      5 IRanWt=     -1 IRanGd=            0 ICorTp=0 IEmpDi=  4
 NAtoms=    2 NActive=    2 NUniq=    2 SFac= 1.00D+00 NAtFMM=   60 NAOKFM=F Big=F
 Integral buffers will be    131072 words long.
 Raffenetti 2 integral format.
 Two-electron integral symmetry is turned on.
 Leave Link  301 at Sat Mar 10 05:27:25 2018, MaxMem= 10737418240 cpu:               4.0 elap:               0.3
 (Enter /home1/apps/gaussian/16rA.03/g16/l302.exe)
 NPDir=0 NMtPBC=     1 NCelOv=     1 NCel=       1 NClECP=     1 NCelD=      1
         NCelK=      1 NCelE2=     1 NClLst=     1 CellRange=     0.0.
 One-electron integrals computed using PRISM.
 One-electron integral symmetry used in STVInt
   4 Symmetry operations used in ECPInt.
 ECPInt:  NShTT=    3828 NPrTT=    3828 LenC2=    3556 LenP2D=    3555.
 LDataN:  DoStor=T MaxTD1= 8 Len=  415
 NBasis=   261 RedAO= T EigKep=  1.77D-06  NBF=   114    27    60    60
 NBsUse=   252 1.00D-06 EigRej=  4.93D-07 NBFU=   110    26    58    58
 Leave Link  302 at Sat Mar 10 05:27:26 2018, MaxMem= 10737418240 cpu:              16.0 elap:               1.0
 (Enter /home1/apps/gaussian/16rA.03/g16/l303.exe)
 DipDrv:  MaxL=1.
 Leave Link  303 at Sat Mar 10 05:27:27 2018, MaxMem= 10737418240 cpu:               1.1 elap:               0.1
 (Enter /home1/apps/gaussian/16rA.03/g16/l401.exe)
 Initial guess from the checkpoint file:  "CrO.chk"
 B after Tr=     0.000000    0.000000    0.000000
         Rot=    1.000000    0.000000    0.000000    0.000000 Ang=   0.00 deg.
 Guess basis will be translated and rotated to current coordinates.
 JPrj=2 DoOrth=T DoCkMO=T.
 Initial guess orbital symmetries:
       Occupied  (SG) (SG) (PI) (PI) (SG) (SG) (?A) (?A) (?B) (?B)
                 (?B) (?A)
       Virtual   (?B) (?A) (?A) (SG) (?B) (?A) (?A) (?B) (?B) (?A)
                 (?B) (?A) (SG) (?A) (?B) (?A) (?A) (?B) (?B) (?B)
                 (?A) (?A) (?B) (?A) (?A) (SG) (SG) (DLTA) (DLTA)
                 (PHI) (PHI) (?A) (SG) (?A) (?A) (?A) (?C) (?C)
                 (?C) (?C) (?A) (?A) (?C) (?C) (?A) (?A) (SG) (SG)
                 (?A) (?A) (SG) (DLTA) (DLTA) (?D) (?D) (?D) (?D)
                 (SG) (PHI) (PHI) (SG) (?E) (?E) (?F) (?F) (?E)
                 (?G) (?G) (?F) (?F) (DLTA) (DLTA) (PHI) (PHI)
                 (?H) (PI) (PI) (?H) (?H) (?H) (PI) (PI) (DLTA)
                 (DLTA) (SG) (SG) (?A) (?A) (PI) (PI) (SG) (PHI)
                 (PHI) (DLTA) (DLTA) (SG) (PI) (PI) (SG) (SG) (PI)
                 (PI) (?D) (?D) (?I) (?D) (?I) (?I) (?D) (?G) (?G)
                 (PHI) (PHI) (?J) (?J) (?J) (DLTA) (DLTA) (PI)
                 (PI) (PI) (PI) (?J) (?J) (?J) (PI) (PI) (SG) (SG)
                 (?D) (?D) (DLTA) (DLTA) (?D) (?D) (SG) (PI) (PI)
                 (SG) (PI) (PI) (SG) (SG) (?K) (?K) (PI) (PI) (?K)
                 (SG) (?D) (?D) (?L) (?L) (?L) (?L) (?D) (?D) (?L)
                 (PI) (PI) (SG) (DLTA) (DLTA) (PI) (PI) (SG) (SG)
                 (SG) (DLTA) (DLTA) (PI) (PI) (SG) (PI) (PI) (SG)
                 (PI) (PI) (SG) (SG) (SG) (DLTA) (DLTA) (PI) (PI)
                 (SG) (PI) (PI) (PI) (PI) (SG) (SG) (SG) (SG) (PI)
                 (PI) (SG) (SG) (SG) (PI) (PI) (SG) (DLTA) (DLTA)
                 (PI) (PI) (SG) (PI) (PI) (SG) (SG) (SG) (PI) (PI)
                 (SG) (SG) (SG) (PI) (PI) (SG) (SG) (SG) (PI) (PI)
                 (SG) (SG) (SG) (PI) (PI) (SG) (SG) (SG) (PI) (PI)
                 (SG) (SG) (SG) (SG) (SG) (SG)
 Leave Link  401 at Sat Mar 10 05:27:28 2018, MaxMem= 10737418240 cpu:               6.6 elap:               0.5
 (Enter /home1/apps/gaussian/16rA.03/g16/l502.exe)
 Keep R1 and R2 ints in memory in symmetry-blocked form, NReq=734602573.
 FoFCou: FMM=F IPFlag=           8 FMFlag=           0 FMFlg1=           0
         NFxFlg=           0 DoJE=F BraDBF=F KetDBF=F FulRan=T
         wScrn=  0.000000 ICntrl=       600 IOpCl=  0 I1Cent=           0 NGrid=           0
         NMat0=    1 NMatS0=  34191 NMatT0=    0 NMatD0=    1 NMtDS0=    0 NMtDT0=    0
 Petite list used in FoFCou.
 Restricted open shell SCF:
 Using DIIS extrapolation, IDIIS=  1040.
 NGot= 10737418240 LenX= 10437151885 LenY= 10437054100
 Requested convergence on RMS density matrix=1.00D-08 within 300 cycles.
 Requested convergence on MAX density matrix=1.00D-06.
 Requested convergence on             energy=1.00D-06.
 No special actions if energy rises.

 Cycle   1  Pass 1  IDiag  1:
 E= -101.807030567562    
 DIIS: error= 3.39D-02 at cycle   1 NSaved=   1.
 NSaved= 1 IEnMin= 1 EnMin= -101.807030567562     IErMin= 1 ErrMin= 3.39D-02
 ErrMax= 3.39D-02  0.00D+00 EMaxC= 1.00D-01 BMatC= 6.51D-02 BMatP= 6.51D-02
 IDIUse=3 WtCom= 6.61D-01 WtEn= 3.39D-01
 Coeff-Com:  0.100D+01
 Coeff-En:   0.100D+01
 Coeff:      0.100D+01
 Gap=     0.085 Goal=   None    Shift=    0.000
 GapD=    0.085 DampG=0.500 DampE=0.250 DampFc=0.1250 IDamp=-1.
 Damping current iteration by 1.25D-01
 RMSDP=6.51D-04 MaxDP=3.29D-02              OVMax= 3.85D-02

 Cycle   2  Pass 1  IDiag  1:
 E= -101.807606607490     Delta-E=       -0.000576039928 Rises=F Damp=T
 DIIS: error= 2.98D-02 at cycle   2 NSaved=   2.
 NSaved= 2 IEnMin= 2 EnMin= -101.807606607490     IErMin= 2 ErrMin= 2.98D-02
 ErrMax= 2.98D-02  0.00D+00 EMaxC= 1.00D-01 BMatC= 4.97D-02 BMatP= 6.51D-02
 IDIUse=3 WtCom= 7.02D-01 WtEn= 2.98D-01
 Coeff-Com: -0.498D+01 0.598D+01
 Coeff-En:   0.000D+00 0.100D+01
 Coeff:     -0.350D+01 0.450D+01
 Gap=     0.079 Goal=   None    Shift=    0.000
 RMSDP=1.01D-03 MaxDP=8.56D-02 DE=-5.76D-04 OVMax= 3.99D-01

 Cycle   3  Pass 1  IDiag  1:
 E= -101.746945770826     Delta-E=        0.060660836664 Rises=F Damp=F
 DIIS: error= 2.83D-02 at cycle   3 NSaved=   3.
 NSaved= 3 IEnMin= 2 EnMin= -101.807606607490     IErMin= 3 ErrMin= 2.83D-02
 ErrMax= 2.83D-02  0.00D+00 EMaxC= 1.00D-01 BMatC= 2.17D-02 BMatP= 4.97D-02
 IDIUse=3 WtCom= 7.17D-01 WtEn= 2.83D-01
 Coeff-Com: -0.340D+01 0.392D+01 0.475D+00
 Coeff-En:   0.000D+00 0.898D+00 0.102D+00
 Coeff:     -0.244D+01 0.307D+01 0.369D+00
 Gap=     0.086 Goal=   None    Shift=    0.000
 RMSDP=8.09D-04 MaxDP=7.94D-02 DE= 6.07D-02 OVMax= 3.23D-01

 Cycle   4  Pass 1  IDiag  1:
 E= -101.802556096768     Delta-E=       -0.055610325943 Rises=F Damp=F
 DIIS: error= 8.59D-03 at cycle   4 NSaved=   4.
 NSaved= 4 IEnMin= 2 EnMin= -101.807606607490     IErMin= 4 ErrMin= 8.59D-03
 ErrMax= 8.59D-03  0.00D+00 EMaxC= 1.00D-01 BMatC= 5.05D-03 BMatP= 2.17D-02
 IDIUse=3 WtCom= 9.14D-01 WtEn= 8.59D-02
 EnCoef did     2 forward-backward iterations
 Coeff-Com: -0.248D+01 0.284D+01 0.232D+00 0.410D+00
 Coeff-En:   0.000D+00 0.803D+00 0.845D-01 0.112D+00
 Coeff:     -0.227D+01 0.267D+01 0.219D+00 0.384D+00
 Gap=     0.083 Goal=   None    Shift=    0.000
 RMSDP=5.27D-04 MaxDP=5.91D-02 DE=-5.56D-02 OVMax= 1.06D-01

 Cycle   5  Pass 1  IDiag  1:
 E= -101.805172372099     Delta-E=       -0.002616275331 Rises=F Damp=F
 DIIS: error= 9.91D-03 at cycle   5 NSaved=   5.
 NSaved= 5 IEnMin= 2 EnMin= -101.807606607490     IErMin= 4 ErrMin= 8.59D-03
 ErrMax= 9.91D-03  0.00D+00 EMaxC= 1.00D-01 BMatC= 2.61D-03 BMatP= 5.05D-03
 IDIUse=3 WtCom= 9.01D-01 WtEn= 9.91D-02
 EnCoef did     2 forward-backward iterations
 Coeff-Com: -0.189D+01 0.216D+01 0.416D-01 0.185D+00 0.505D+00
 Coeff-En:   0.000D+00 0.607D+00 0.000D+00 0.787D-01 0.314D+00
 Coeff:     -0.171D+01 0.201D+01 0.374D-01 0.175D+00 0.486D+00
 Gap=     0.074 Goal=   None    Shift=    0.000
 RMSDP=4.56D-04 MaxDP=4.09D-02 DE=-2.62D-03 OVMax= 7.26D-02

 Cycle   6  Pass 1  IDiag  1:
 E= -101.809332570411     Delta-E=       -0.004160198312 Rises=F Damp=F
 DIIS: error= 6.22D-03 at cycle   6 NSaved=   6.
 NSaved= 6 IEnMin= 6 EnMin= -101.809332570411     IErMin= 6 ErrMin= 6.22D-03
 ErrMax= 6.22D-03  0.00D+00 EMaxC= 1.00D-01 BMatC= 1.27D-03 BMatP= 2.61D-03
 IDIUse=3 WtCom= 9.38D-01 WtEn= 6.22D-02
 EnCoef did     1 forward-backward iterations
 Coeff-Com: -0.155D+01 0.176D+01 0.743D-02 0.356D-01 0.343D+00 0.396D+00
 Coeff-En:   0.000D+00 0.229D+00 0.000D+00 0.000D+00 0.885D-03 0.770D+00
 Coeff:     -0.145D+01 0.167D+01 0.697D-02 0.334D-01 0.322D+00 0.419D+00
 Gap=     0.074 Goal=   None    Shift=    0.000
 RMSDP=2.67D-04 MaxDP=2.19D-02 DE=-4.16D-03 OVMax= 3.21D-02

 Cycle   7  Pass 1  IDiag  1:
 E= -101.810955121200     Delta-E=       -0.001622550789 Rises=F Damp=F
 DIIS: error= 5.41D-03 at cycle   7 NSaved=   7.
 NSaved= 7 IEnMin= 7 EnMin= -101.810955121200     IErMin= 7 ErrMin= 5.41D-03
 ErrMax= 5.41D-03  0.00D+00 EMaxC= 1.00D-01 BMatC= 8.65D-04 BMatP= 1.27D-03
 IDIUse=3 WtCom= 9.46D-01 WtEn= 5.41D-02
 Coeff-Com: -0.127D+01 0.145D+01 0.229D-01-0.236D-02-0.266D-02 0.196D+00
 Coeff-Com:  0.608D+00
 Coeff-En:   0.000D+00 0.000D+00 0.000D+00 0.000D+00 0.000D+00 0.000D+00
 Coeff-En:   0.100D+01
 Coeff:     -0.120D+01 0.137D+01 0.216D-01-0.223D-02-0.252D-02 0.186D+00
 Coeff:      0.629D+00
 Gap=     0.075 Goal=   None    Shift=    0.000
 RMSDP=1.41D-04 MaxDP=1.14D-02 DE=-1.62D-03 OVMax= 2.25D-02

 Cycle   8  Pass 1  IDiag  1:
 E= -101.812184285102     Delta-E=       -0.001229163902 Rises=F Damp=F
 DIIS: error= 4.29D-03 at cycle   8 NSaved=   8.
 NSaved= 8 IEnMin= 8 EnMin= -101.812184285102     IErMin= 8 ErrMin= 4.29D-03
 ErrMax= 4.29D-03  0.00D+00 EMaxC= 1.00D-01 BMatC= 5.80D-04 BMatP= 8.65D-04
 IDIUse=3 WtCom= 9.57D-01 WtEn= 4.29D-02
 Coeff-Com: -0.115D+01 0.131D+01 0.305D-01-0.537D-03-0.774D-01 0.558D-01
 Coeff-Com:  0.511D+00 0.319D+00
 Coeff-En:   0.000D+00 0.000D+00 0.000D+00 0.000D+00 0.000D+00 0.000D+00
 Coeff-En:   0.000D+00 0.100D+01
 Coeff:     -0.110D+01 0.125D+01 0.292D-01-0.514D-03-0.741D-01 0.534D-01
 Coeff:      0.489D+00 0.349D+00
 Gap=     0.075 Goal=   None    Shift=    0.000
 RMSDP=1.07D-04 MaxDP=9.53D-03 DE=-1.23D-03 OVMax= 1.37D-02

 Cycle   9  Pass 1  IDiag  1:
 E= -101.812605978197     Delta-E=       -0.000421693095 Rises=F Damp=F
 DIIS: error= 4.06D-03 at cycle   9 NSaved=   9.
 NSaved= 9 IEnMin= 9 EnMin= -101.812605978197     IErMin= 9 ErrMin= 4.06D-03
 ErrMax= 4.06D-03  0.00D+00 EMaxC= 1.00D-01 BMatC= 4.95D-04 BMatP= 5.80D-04
 IDIUse=3 WtCom= 9.59D-01 WtEn= 4.06D-02
 Coeff-Com: -0.890D+00 0.102D+01 0.296D-01 0.215D-01-0.250D-01-0.121D+00
 Coeff-Com: -0.362D+00 0.246D+00 0.108D+01
 Coeff-En:   0.000D+00 0.000D+00 0.000D+00 0.000D+00 0.000D+00 0.000D+00
 Coeff-En:   0.000D+00 0.000D+00 0.100D+01
 Coeff:     -0.854D+00 0.974D+00 0.284D-01 0.206D-01-0.240D-01-0.116D+00
 Coeff:     -0.347D+00 0.236D+00 0.108D+01
 Gap=     0.077 Goal=   None    Shift=    0.000
 RMSDP=1.11D-04 MaxDP=1.16D-02 DE=-4.22D-04 OVMax= 2.04D-02

 Cycle  10  Pass 1  IDiag  1:
 E= -101.813583852060     Delta-E=       -0.000977873863 Rises=F Damp=F
 DIIS: error= 3.29D-03 at cycle  10 NSaved=  10.
 NSaved=10 IEnMin=10 EnMin= -101.813583852060     IErMin=10 ErrMin= 3.29D-03
 ErrMax= 3.29D-03  0.00D+00 EMaxC= 1.00D-01 BMatC= 3.23D-04 BMatP= 4.95D-04
 IDIUse=3 WtCom= 9.67D-01 WtEn= 3.29D-02
 Coeff-Com: -0.472D+00 0.539D+00 0.114D-01 0.459D-01 0.113D+00-0.149D+00
 Coeff-Com: -0.116D+01-0.390D+00 0.113D+01 0.134D+01
 Coeff-En:   0.000D+00 0.000D+00 0.000D+00 0.000D+00 0.000D+00 0.000D+00
 Coeff-En:   0.000D+00 0.000D+00 0.000D+00 0.100D+01
 Coeff:     -0.457D+00 0.521D+00 0.110D-01 0.444D-01 0.110D+00-0.144D+00
 Coeff:     -0.113D+01-0.378D+00 0.109D+01 0.133D+01
 Gap=     0.080 Goal=   None    Shift=    0.000
 RMSDP=1.60D-04 MaxDP=8.62D-03 DE=-9.78D-04 OVMax= 3.14D-02

 Cycle  11  Pass 1  IDiag  1:
 E= -101.814837488003     Delta-E=       -0.001253635943 Rises=F Damp=F
 DIIS: error= 1.58D-03 at cycle  11 NSaved=  11.
 NSaved=11 IEnMin=11 EnMin= -101.814837488003     IErMin=11 ErrMin= 1.58D-03
 ErrMax= 1.58D-03  0.00D+00 EMaxC= 1.00D-01 BMatC= 9.87D-05 BMatP= 3.23D-04
 IDIUse=3 WtCom= 9.84D-01 WtEn= 1.58D-02
 Coeff-Com: -0.985D-01 0.113D+00 0.493D-04 0.437D-01 0.866D-01-0.439D-01
 Coeff-Com: -0.511D+00-0.537D+00-0.344D+00 0.126D+01 0.103D+01
 Coeff-En:   0.000D+00 0.000D+00 0.000D+00 0.000D+00 0.000D+00 0.000D+00
 Coeff-En:   0.000D+00 0.000D+00 0.000D+00 0.000D+00 0.100D+01
 Coeff:     -0.970D-01 0.111D+00 0.486D-04 0.430D-01 0.853D-01-0.432D-01
 Coeff:     -0.503D+00-0.528D+00-0.339D+00 0.124D+01 0.103D+01
 Gap=     0.084 Goal=   None    Shift=    0.000
 RMSDP=1.52D-04 MaxDP=8.68D-03 DE=-1.25D-03 OVMax= 3.18D-02

 Cycle  12  Pass 1  IDiag  1:
 E= -101.815377550104     Delta-E=       -0.000540062101 Rises=F Damp=F
 DIIS: error= 4.46D-04 at cycle  12 NSaved=  12.
 NSaved=12 IEnMin=12 EnMin= -101.815377550104     IErMin=12 ErrMin= 4.46D-04
 ErrMax= 4.46D-04  0.00D+00 EMaxC= 1.00D-01 BMatC= 9.34D-06 BMatP= 9.87D-05
 IDIUse=3 WtCom= 9.96D-01 WtEn= 4.46D-03
 Coeff-Com: -0.593D-01 0.677D-01 0.251D-02 0.149D-01-0.368D-01-0.212D-01
 Coeff-Com:  0.210D+00-0.245D-02-0.527D+00 0.993D-01 0.511D+00 0.741D+00
 Coeff-En:   0.000D+00 0.000D+00 0.000D+00 0.000D+00 0.000D+00 0.000D+00
 Coeff-En:   0.000D+00 0.000D+00 0.000D+00 0.000D+00 0.000D+00 0.100D+01
 Coeff:     -0.590D-01 0.674D-01 0.250D-02 0.148D-01-0.366D-01-0.211D-01
 Coeff:      0.210D+00-0.244D-02-0.525D+00 0.989D-01 0.508D+00 0.742D+00
 Gap=     0.085 Goal=   None    Shift=    0.000
 RMSDP=7.45D-05 MaxDP=9.17D-03 DE=-5.40D-04 OVMax= 6.02D-03

 Cycle  13  Pass 1  IDiag  1:
 E= -101.815405762212     Delta-E=       -0.000028212109 Rises=F Damp=F
 DIIS: error= 2.87D-04 at cycle  13 NSaved=  13.
 NSaved=13 IEnMin=13 EnMin= -101.815405762212     IErMin=13 ErrMin= 2.87D-04
 ErrMax= 2.87D-04  0.00D+00 EMaxC= 1.00D-01 BMatC= 4.17D-06 BMatP= 9.34D-06
 IDIUse=3 WtCom= 9.97D-01 WtEn= 2.87D-03
 Coeff-Com: -0.353D-01 0.403D-01-0.223D-02-0.520D-02-0.305D-01 0.183D-01
 Coeff-Com:  0.226D+00 0.120D+00-0.180D+00-0.287D+00-0.410D-01 0.339D+00
 Coeff-Com:  0.838D+00
 Coeff-En:   0.000D+00 0.000D+00 0.000D+00 0.000D+00 0.000D+00 0.000D+00
 Coeff-En:   0.000D+00 0.000D+00 0.000D+00 0.000D+00 0.000D+00 0.000D+00
 Coeff-En:   0.100D+01
 Coeff:     -0.352D-01 0.402D-01-0.222D-02-0.519D-02-0.304D-01 0.182D-01
 Coeff:      0.226D+00 0.119D+00-0.180D+00-0.286D+00-0.409D-01 0.338D+00
 Coeff:      0.838D+00
 Gap=     0.085 Goal=   None    Shift=    0.000
 RMSDP=3.11D-05 MaxDP=2.76D-03 DE=-2.82D-05 OVMax= 4.98D-03

 Cycle  14  Pass 1  IDiag  1:
 E= -101.815420523330     Delta-E=       -0.000014761117 Rises=F Damp=F
 DIIS: error= 9.85D-05 at cycle  14 NSaved=  14.
 NSaved=14 IEnMin=14 EnMin= -101.815420523330     IErMin=14 ErrMin= 9.85D-05
 ErrMax= 9.85D-05  0.00D+00 EMaxC= 1.00D-01 BMatC= 1.01D-06 BMatP= 4.17D-06
 IDIUse=1 WtCom= 1.00D+00 WtEn= 0.00D+00
 Coeff-Com: -0.765D-02 0.872D-02-0.151D-02-0.239D-02-0.218D-02 0.120D-01
 Coeff-Com:  0.711D-01 0.489D-01-0.211D-01-0.156D+00-0.120D+00 0.665D-02
 Coeff-Com:  0.544D+00 0.619D+00
 Coeff:     -0.765D-02 0.872D-02-0.151D-02-0.239D-02-0.218D-02 0.120D-01
 Coeff:      0.711D-01 0.489D-01-0.211D-01-0.156D+00-0.120D+00 0.665D-02
 Coeff:      0.544D+00 0.619D+00
 Gap=     0.085 Goal=   None    Shift=    0.000
 RMSDP=3.05D-05 MaxDP=2.07D-03 DE=-1.48D-05 OVMax= 3.45D-03

 Cycle  15  Pass 1  IDiag  1:
 E= -101.815424207731     Delta-E=       -0.000003684401 Rises=F Damp=F
 DIIS: error= 7.80D-05 at cycle  15 NSaved=  15.
 NSaved=15 IEnMin=15 EnMin= -101.815424207731     IErMin=15 ErrMin= 7.80D-05
 ErrMax= 7.80D-05  0.00D+00 EMaxC= 1.00D-01 BMatC= 3.85D-07 BMatP= 1.01D-06
 IDIUse=1 WtCom= 1.00D+00 WtEn= 0.00D+00
 Coeff-Com:  0.390D-02-0.444D-02-0.340D-03 0.552D-03 0.508D-02 0.169D-02
 Coeff-Com:  0.375D-02 0.749D-02 0.104D-01-0.430D-01-0.678D-01-0.680D-01
 Coeff-Com:  0.214D+00 0.490D+00 0.447D+00
 Coeff:      0.390D-02-0.444D-02-0.340D-03 0.552D-03 0.508D-02 0.169D-02
 Coeff:      0.375D-02 0.749D-02 0.104D-01-0.430D-01-0.678D-01-0.680D-01
 Coeff:      0.214D+00 0.490D+00 0.447D+00
 Gap=     0.086 Goal=   None    Shift=    0.000
 RMSDP=1.85D-05 MaxDP=1.71D-03 DE=-3.68D-06 OVMax= 1.60D-03

 Cycle  16  Pass 1  IDiag  1:
 E= -101.815424924182     Delta-E=       -0.000000716451 Rises=F Damp=F
 DIIS: error= 2.93D-05 at cycle  16 NSaved=  16.
 NSaved=16 IEnMin=16 EnMin= -101.815424924182     IErMin=16 ErrMin= 2.93D-05
 ErrMax= 2.93D-05  0.00D+00 EMaxC= 1.00D-01 BMatC= 5.75D-08 BMatP= 3.85D-07
 IDIUse=1 WtCom= 1.00D+00 WtEn= 0.00D+00
 Coeff-Com:  0.533D-02-0.607D-02-0.207D-03 0.266D-03 0.328D-02-0.717D-03
 Coeff-Com: -0.109D-01-0.422D-02 0.124D-01 0.335D-02-0.196D-01-0.405D-01
 Coeff-Com:  0.263D-01 0.179D+00 0.301D+00 0.551D+00
 Coeff:      0.533D-02-0.607D-02-0.207D-03 0.266D-03 0.328D-02-0.717D-03
 Coeff:     -0.109D-01-0.422D-02 0.124D-01 0.335D-02-0.196D-01-0.405D-01
 Coeff:      0.263D-01 0.179D+00 0.301D+00 0.551D+00
 Gap=     0.086 Goal=   None    Shift=    0.000
 RMSDP=9.34D-06 MaxDP=7.92D-04 DE=-7.16D-07 OVMax= 4.16D-04

 Cycle  17  Pass 1  IDiag  1:
 E= -101.815424992727     Delta-E=       -0.000000068545 Rises=F Damp=F
 DIIS: error= 1.99D-05 at cycle  17 NSaved=  17.
 NSaved=17 IEnMin=17 EnMin= -101.815424992727     IErMin=17 ErrMin= 1.99D-05
 ErrMax= 1.99D-05  0.00D+00 EMaxC= 1.00D-01 BMatC= 1.92D-08 BMatP= 5.75D-08
 IDIUse=1 WtCom= 1.00D+00 WtEn= 0.00D+00
 Coeff-Com:  0.350D-02-0.399D-02-0.124D-03 0.305D-05 0.153D-02-0.697D-03
 Coeff-Com: -0.985D-02-0.470D-02 0.855D-02 0.127D-01 0.685D-03-0.121D-01
 Coeff-Com: -0.230D-01 0.162D-01 0.101D+00 0.348D+00 0.562D+00
 Coeff:      0.350D-02-0.399D-02-0.124D-03 0.305D-05 0.153D-02-0.697D-03
 Coeff:     -0.985D-02-0.470D-02 0.855D-02 0.127D-01 0.685D-03-0.121D-01
 Coeff:     -0.230D-01 0.162D-01 0.101D+00 0.348D+00 0.562D+00
 Gap=     0.086 Goal=   None    Shift=    0.000
 RMSDP=1.90D-06 MaxDP=1.50D-04 DE=-6.85D-08 OVMax= 2.06D-04

 Cycle  18  Pass 1  IDiag  1:
 E= -101.815425039267     Delta-E=       -0.000000046539 Rises=F Damp=F
 DIIS: error= 1.49D-05 at cycle  18 NSaved=  18.
 NSaved=18 IEnMin=18 EnMin= -101.815425039267     IErMin=18 ErrMin= 1.49D-05
 ErrMax= 1.49D-05  0.00D+00 EMaxC= 1.00D-01 BMatC= 8.06D-09 BMatP= 1.92D-08
 IDIUse=1 WtCom= 1.00D+00 WtEn= 0.00D+00
 Coeff-Com:  0.207D-02-0.236D-02 0.115D-03 0.193D-03-0.316D-03-0.124D-02
 Coeff-Com: -0.303D-02-0.481D-03 0.282D-02 0.664D-02 0.614D-02 0.355D-02
 Coeff-Com: -0.243D-01-0.408D-01-0.239D-01 0.494D-01 0.314D+00 0.711D+00
 Coeff:      0.207D-02-0.236D-02 0.115D-03 0.193D-03-0.316D-03-0.124D-02
 Coeff:     -0.303D-02-0.481D-03 0.282D-02 0.664D-02 0.614D-02 0.355D-02
 Coeff:     -0.243D-01-0.408D-01-0.239D-01 0.494D-01 0.314D+00 0.711D+00
 Gap=     0.086 Goal=   None    Shift=    0.000
 RMSDP=1.44D-06 MaxDP=1.54D-04 DE=-4.65D-08 OVMax= 1.20D-04

 Cycle  19  Pass 1  IDiag  1:
 E= -101.815425059737     Delta-E=       -0.000000020470 Rises=F Damp=F
 DIIS: error= 6.42D-06 at cycle  19 NSaved=  19.
 NSaved=19 IEnMin=19 EnMin= -101.815425059737     IErMin=19 ErrMin= 6.42D-06
 ErrMax= 6.42D-06  0.00D+00 EMaxC= 1.00D-01 BMatC= 1.90D-09 BMatP= 8.06D-09
 IDIUse=1 WtCom= 1.00D+00 WtEn= 0.00D+00
 Coeff-Com:  0.176D-02-0.201D-02 0.769D-04 0.170D-03-0.787D-03-0.597D-03
 Coeff-Com:  0.121D-02 0.127D-02-0.626D-03-0.277D-03 0.327D-02 0.487D-02
 Coeff-Com: -0.960D-02-0.242D-01-0.328D-01-0.536D-01 0.261D-01 0.330D+00
 Coeff-Com:  0.755D+00
 Coeff:      0.176D-02-0.201D-02 0.769D-04 0.170D-03-0.787D-03-0.597D-03
 Coeff:      0.121D-02 0.127D-02-0.626D-03-0.277D-03 0.327D-02 0.487D-02
 Coeff:     -0.960D-02-0.242D-01-0.328D-01-0.536D-01 0.261D-01 0.330D+00
 Coeff:      0.755D+00
 Gap=     0.086 Goal=   None    Shift=    0.000
 RMSDP=7.04D-07 MaxDP=6.05D-05 DE=-2.05D-08 OVMax= 4.58D-05

 Cycle  20  Pass 1  IDiag  1:
 E= -101.815425062685     Delta-E=       -0.000000002949 Rises=F Damp=F
 DIIS: error= 6.10D-06 at cycle  20 NSaved=  20.
 NSaved=20 IEnMin=20 EnMin= -101.815425062685     IErMin=20 ErrMin= 6.10D-06
 ErrMax= 6.10D-06  0.00D+00 EMaxC= 1.00D-01 BMatC= 1.30D-09 BMatP= 1.90D-09
 IDIUse=1 WtCom= 1.00D+00 WtEn= 0.00D+00
 Coeff-Com:  0.892D-03-0.102D-02 0.277D-05-0.716D-04-0.812D-03 0.969D-04
 Coeff-Com:  0.320D-02 0.236D-02-0.753D-03-0.531D-02-0.166D-02 0.312D-02
 Coeff-Com:  0.513D-02 0.291D-02-0.491D-02-0.305D-01-0.860D-01-0.192D+00
 Coeff-Com: -0.451D-01 0.135D+01
 Coeff:      0.892D-03-0.102D-02 0.277D-05-0.716D-04-0.812D-03 0.969D-04
 Coeff:      0.320D-02 0.236D-02-0.753D-03-0.531D-02-0.166D-02 0.312D-02
 Coeff:      0.513D-02 0.291D-02-0.491D-02-0.305D-01-0.860D-01-0.192D+00
 Coeff:     -0.451D-01 0.135D+01
 Gap=     0.086 Goal=   None    Shift=    0.000
 RMSDP=5.02D-07 MaxDP=4.00D-05 DE=-2.95D-09 OVMax= 4.50D-05

 Cycle  21  Pass 1  IDiag  1:
 E= -101.815425067290     Delta-E=       -0.000000004605 Rises=F Damp=F
 DIIS: error= 3.55D-06 at cycle  21 NSaved=  20.
 NSaved=20 IEnMin=20 EnMin= -101.815425067290     IErMin=20 ErrMin= 3.55D-06
 ErrMax= 3.55D-06  0.00D+00 EMaxC= 1.00D-01 BMatC= 5.17D-10 BMatP= 1.30D-09
 IDIUse=1 WtCom= 1.00D+00 WtEn= 0.00D+00
 Coeff-Com:  0.424D-03-0.485D-03-0.374D-04-0.225D-03 0.716D-04 0.132D-02
 Coeff-Com:  0.122D-02-0.121D-03-0.301D-02-0.178D-02 0.123D-02 0.589D-02
 Coeff-Com:  0.671D-02 0.577D-02 0.342D-02-0.389D-01-0.210D+00-0.353D+00
 Coeff-Com:  0.778D+00 0.803D+00
 Coeff:      0.424D-03-0.485D-03-0.374D-04-0.225D-03 0.716D-04 0.132D-02
 Coeff:      0.122D-02-0.121D-03-0.301D-02-0.178D-02 0.123D-02 0.589D-02
 Coeff:      0.671D-02 0.577D-02 0.342D-02-0.389D-01-0.210D+00-0.353D+00
 Coeff:      0.778D+00 0.803D+00
 Gap=     0.086 Goal=   None    Shift=    0.000
 RMSDP=2.70D-07 MaxDP=2.53D-05 DE=-4.60D-09 OVMax= 3.62D-05

 Cycle  22  Pass 1  IDiag  1:
 E= -101.815425068932     Delta-E=       -0.000000001642 Rises=F Damp=F
 DIIS: error= 1.66D-06 at cycle  22 NSaved=  20.
 NSaved=20 IEnMin=20 EnMin= -101.815425068932     IErMin=20 ErrMin= 1.66D-06
 ErrMax= 1.66D-06  0.00D+00 EMaxC= 1.00D-01 BMatC= 9.39D-11 BMatP= 5.17D-10
 IDIUse=1 WtCom= 1.00D+00 WtEn= 0.00D+00
 Coeff-Com:  0.683D-04-0.783D-04 0.154D-03 0.346D-04-0.364D-03 0.134D-05
 Coeff-Com:  0.429D-03-0.452D-04-0.760D-03-0.143D-03 0.192D-02 0.173D-02
 Coeff-Com:  0.390D-02 0.136D-01 0.146D-01-0.460D-01-0.203D+00-0.573D-01
 Coeff-Com:  0.446D+00 0.825D+00
 Coeff:      0.683D-04-0.783D-04 0.154D-03 0.346D-04-0.364D-03 0.134D-05
 Coeff:      0.429D-03-0.452D-04-0.760D-03-0.143D-03 0.192D-02 0.173D-02
 Coeff:      0.390D-02 0.136D-01 0.146D-01-0.460D-01-0.203D+00-0.573D-01
 Coeff:      0.446D+00 0.825D+00
 Gap=     0.086 Goal=   None    Shift=    0.000
 RMSDP=1.56D-07 MaxDP=1.89D-05 DE=-1.64D-09 OVMax= 2.00D-05

 Cycle  23  Pass 1  IDiag  1:
 E= -101.815425069319     Delta-E=       -0.000000000388 Rises=F Damp=F
 DIIS: error= 3.73D-07 at cycle  23 NSaved=  20.
 NSaved=20 IEnMin=20 EnMin= -101.815425069319     IErMin=20 ErrMin= 3.73D-07
 ErrMax= 3.73D-07  0.00D+00 EMaxC= 1.00D-01 BMatC= 1.47D-11 BMatP= 9.39D-11
 IDIUse=1 WtCom= 1.00D+00 WtEn= 0.00D+00
 Coeff-Com:  0.243D-04-0.279D-04-0.182D-04-0.224D-04 0.382D-04 0.541D-04
 Coeff-Com:  0.133D-03-0.847D-04 0.204D-03 0.205D-04-0.163D-02-0.124D-02
 Coeff-Com:  0.273D-02 0.155D-01 0.323D-01-0.518D-02-0.202D+00 0.153D-01
 Coeff-Com:  0.465D+00 0.679D+00
 Coeff:      0.243D-04-0.279D-04-0.182D-04-0.224D-04 0.382D-04 0.541D-04
 Coeff:      0.133D-03-0.847D-04 0.204D-03 0.205D-04-0.163D-02-0.124D-02
 Coeff:      0.273D-02 0.155D-01 0.323D-01-0.518D-02-0.202D+00 0.153D-01
 Coeff:      0.465D+00 0.679D+00
 Gap=     0.086 Goal=   None    Shift=    0.000
 RMSDP=9.55D-08 MaxDP=9.40D-06 DE=-3.88D-10 OVMax= 8.12D-06

 Cycle  24  Pass 1  IDiag  1:
 E= -101.815425069349     Delta-E=       -0.000000000030 Rises=F Damp=F
 DIIS: error= 1.99D-07 at cycle  24 NSaved=  20.
 NSaved=20 IEnMin=20 EnMin= -101.815425069349     IErMin=20 ErrMin= 1.99D-07
 ErrMax= 1.99D-07  0.00D+00 EMaxC= 1.00D-01 BMatC= 5.97D-12 BMatP= 1.47D-11
 IDIUse=1 WtCom= 1.00D+00 WtEn= 0.00D+00
 Coeff-Com:  0.901D-07-0.184D-04-0.942D-04-0.282D-04 0.140D-03 0.215D-03
 Coeff-Com: -0.511D-04-0.153D-03-0.563D-03-0.119D-02-0.502D-03 0.274D-02
 Coeff-Com:  0.141D-01 0.360D-01 0.274D-01-0.159D+00-0.931D-01 0.131D+00
 Coeff-Com:  0.467D+00 0.577D+00
 Coeff:      0.901D-07-0.184D-04-0.942D-04-0.282D-04 0.140D-03 0.215D-03
 Coeff:     -0.511D-04-0.153D-03-0.563D-03-0.119D-02-0.502D-03 0.274D-02
 Coeff:      0.141D-01 0.360D-01 0.274D-01-0.159D+00-0.931D-01 0.131D+00
 Coeff:      0.467D+00 0.577D+00
 Gap=     0.086 Goal=   None    Shift=    0.000
 RMSDP=6.88D-08 MaxDP=5.85D-06 DE=-3.01D-11 OVMax= 3.82D-06

 Cycle  25  Pass 1  IDiag  1:
 E= -101.815425069361     Delta-E=       -0.000000000012 Rises=F Damp=F
 DIIS: error= 8.55D-08 at cycle  25 NSaved=  20.
 NSaved=20 IEnMin=20 EnMin= -101.815425069361     IErMin=20 ErrMin= 8.55D-08
 ErrMax= 8.55D-08  0.00D+00 EMaxC= 1.00D-01 BMatC= 7.85D-13 BMatP= 5.97D-12
 IDIUse=1 WtCom= 1.00D+00 WtEn= 0.00D+00
 Coeff-Com: -0.557D-07 0.904D-05 0.134D-04-0.248D-04-0.383D-04-0.214D-04
 Coeff-Com: -0.241D-04 0.558D-04 0.812D-04-0.343D-04-0.372D-03-0.924D-03
 Coeff-Com: -0.186D-02 0.140D-01 0.162D-01-0.565D-01-0.966D-01-0.203D-01
 Coeff-Com:  0.162D+00 0.984D+00
 Coeff:     -0.557D-07 0.904D-05 0.134D-04-0.248D-04-0.383D-04-0.214D-04
 Coeff:     -0.241D-04 0.558D-04 0.812D-04-0.343D-04-0.372D-03-0.924D-03
 Coeff:     -0.186D-02 0.140D-01 0.162D-01-0.565D-01-0.966D-01-0.203D-01
 Coeff:      0.162D+00 0.984D+00
 Gap=     0.086 Goal=   None    Shift=    0.000
 RMSDP=1.67D-08 MaxDP=1.51D-06 DE=-1.19D-11 OVMax= 2.15D-06

 Cycle  26  Pass 1  IDiag  1:
 E= -101.815425069363     Delta-E=       -0.000000000002 Rises=F Damp=F
 DIIS: error= 4.83D-08 at cycle  26 NSaved=  20.
 NSaved=20 IEnMin=20 EnMin= -101.815425069363     IErMin=20 ErrMin= 4.83D-08
 ErrMax= 4.83D-08  0.00D+00 EMaxC= 1.00D-01 BMatC= 2.04D-13 BMatP= 7.85D-13
 IDIUse=1 WtCom= 1.00D+00 WtEn= 0.00D+00
 Coeff-Com:  0.125D-04 0.133D-04-0.421D-04-0.362D-04 0.361D-04 0.829D-04
 Coeff-Com:  0.951D-04 0.763D-04-0.267D-03-0.157D-02-0.394D-02-0.630D-02
 Coeff-Com:  0.875D-02 0.417D-01-0.117D-01-0.765D-01-0.107D+00-0.546D-01
 Coeff-Com:  0.435D+00 0.776D+00
 Coeff:      0.125D-04 0.133D-04-0.421D-04-0.362D-04 0.361D-04 0.829D-04
 Coeff:      0.951D-04 0.763D-04-0.267D-03-0.157D-02-0.394D-02-0.630D-02
 Coeff:      0.875D-02 0.417D-01-0.117D-01-0.765D-01-0.107D+00-0.546D-01
 Coeff:      0.435D+00 0.776D+00
 Gap=     0.086 Goal=   None    Shift=    0.000
 RMSDP=7.06D-09 MaxDP=5.75D-07 DE=-1.51D-12 OVMax= 7.79D-07

 SCF Done:  E(ROHF) =  -101.815425069     A.U. after   26 cycles
            NFock= 26  Conv=0.71D-08     -V/T= 2.8058
 <Sx>= 0.0000 <Sy>= 0.0000 <Sz>= 2.0000 <S**2>= 6.0000 S= 2.0000
 <L.S>=  0.00000000000    
 KE= 5.638257656131D+01 PE=-2.907400670867D+02 EE= 1.029081416445D+02
 Annihilation of the first spin contaminant:
 S**2 before annihilation     6.0000,   after     6.0000
 Leave Link  502 at Sat Mar 10 05:28:00 2018, MaxMem= 10737418240 cpu:             440.5 elap:              32.5
 (Enter /home1/apps/gaussian/16rA.03/g16/l801.exe)
 Windowed orbitals will be sorted by symmetry type.
 GenMOA:  NOpAll=  4 NOp2=4 NOpUse=  4 JSym2X=1
 FoFJK:  IHMeth= 1 ICntrl=       0 DoSepK=F KAlg= 0 I1Cent=           0 FoldK=F
 IRaf=         0 NMat=       1 IRICut=       1 DoRegI=T DoRafI=F ISym2E= 1 IDoP0=0 IntGTp=1.
 FoFCou: FMM=F IPFlag=           8 FMFlag=      100000 FMFlg1=           0
         NFxFlg=           0 DoJE=F BraDBF=F KetDBF=F FulRan=T
         wScrn=  0.000000 ICntrl=         0 IOpCl=  1 I1Cent=           0 NGrid=           0
         NMat0=    1 NMatS0=      1 NMatT0=    0 NMatD0=    1 NMtDS0=    0 NMtDT0=    0
 Petite list used in FoFCou.
 <Sx>= 0.0000 <Sy>= 0.0000 <Sz>= 2.0000 <S**2>= 6.0000 S= 2.0000
 Range of M.O.s used for correlation:     1   252
 NBasis=   261 NAE=    12 NBE=     8 NFC=     0 NFV=     0
 NROrb=    252 NOA=    12 NOB=     8 NVA=   240 NVB=   244

 **** Warning!!: The largest alpha MO coefficient is  0.28734143D+03


 **** Warning!!: The largest beta MO coefficient is  0.28729086D+03

 Singles contribution to E2=   -0.6446932435D-02
 Leave Link  801 at Sat Mar 10 05:28:07 2018, MaxMem= 10737418240 cpu:             101.1 elap:               6.4
 (Enter /home1/apps/gaussian/16rA.03/g16/l804.exe)
 Open-shell transformation, MDV= 10737418240 ITran=4 ISComp=2.
 Unit  1 TFree=       2062728 TCopy=        899126.
 Semi-Direct transformation.
 ModeAB=           4 MOrb=            12 LenV=   10735415388
 LASXX=     23925662 LTotXX=    23925662 LenRXX=    48257580
 LTotAB=    24331918 MaxLAS=   146180160 LenRXY=           0
 NonZer=    72183242 LenScr=   109029376 LnRSAI=   146180160
 LnScr1=   220130304 LExtra=     9984497 Total=    533581917
 MaxDsk= 67108864000 SrtSym=           T ITran=            4
 DoSDTr:  NPSUse= 16
 JobTyp=1 Pass  1:  I=   1 to  12.
 (rs|ai) integrals will be sorted in core.
 Complete sort for first half transformation.
 First half transformation complete.
 Begin second half transformation for I=  10.
 Complete sort for second half transformation.
 Second half transformation complete.
 ModeAB=           4 MOrb=             8 LenV=   10735415388
 LASXX=     16191526 LTotXX=    16191526 LenRXX=    31103054
 LTotAB=    14911528 MaxLAS=    97453440 LenRXY=           0
 NonZer=    47294580 LenScr=    71709696 LnRSAI=    97453440
 LnScr1=   146939392 LExtra=    58242077 Total=    405447659
 MaxDsk= 67108864000 SrtSym=           T ITran=            4
 DoSDTr:  NPSUse= 16
 JobTyp=2 Pass  1:  I=   1 to   8.
 (rs|ai) integrals will be sorted in core.
 Complete sort for first half transformation.
 First half transformation complete.
 Complete sort for second half transformation.
 Second half transformation complete.
 Spin components of T(2) and E(2):
     alpha-alpha T2 =       0.4273291771D-01 E2=     -0.1691229083D+00
     alpha-beta  T2 =       0.1325646843D+00 E2=     -0.6032178954D+00
     beta-beta   T2 =       0.2598705574D-01 E2=     -0.9626426354D-01
 ANorm=    0.1098311078D+01
 E2 =    -0.8750519996D+00 EUMP2 =    -0.10269047706899D+03
 (S**2,0)=  0.60000D+01           (S**2,1)=  0.60000D+01
 E(PUHF)=      -0.10181542507D+03        E(PMP2)=      -0.10269047707D+03
 Leave Link  804 at Sat Mar 10 05:30:18 2018, MaxMem= 10737418240 cpu:            2078.3 elap:             130.2
 (Enter /home1/apps/gaussian/16rA.03/g16/l913.exe)
 CIDS:  MDV= 10737418240.
 IFCWin=0 IBDFC=1 NFBD=     0     0 NFCmp=     0     0 NFFFC=     0     0
 Using original routines for 1st iteration.
 Using DD4UQ or CC4UQ for 2nd and later iterations.
 Keep R2 and R3 ints in memory in symmetry-blocked form, NReq=734616993.
 FoFCou: FMM=F IPFlag=           8 FMFlag=           0 FMFlg1=           0
         NFxFlg=           0 DoJE=F BraDBF=F KetDBF=F FulRan=T
         wScrn=  0.000000 ICntrl=       600 IOpCl=  0 I1Cent=           0 NGrid=           0
         NMat0=    1 NMatS0=  34191 NMatT0=    0 NMatD0=    1 NMtDS0=    0 NMtDT0=    0
 Petite list used in FoFCou.
 CIDS: In Core Option IDoMem=           1.
 CCSD(T)
 =======
 Iterations= 150 Convergence= 0.100D-06
 Produce multiple copies of IABC intergrals
 Iteration Nr.   1
 **********************
 DD1Dir will call FoFMem   1 times, MxPair=       286
 NAB=    96 NAA=    66 NBB=    28.
 DD1Dir will call FoFMem   1 times, MxPair=       286
 NAB=    96 NAA=    66 NBB=    28.
 MP4(R+Q)= -0.41037392D-01
 Maximum subspace dimension=  5
 A-vector RMS=  5.2596273D-04 Max=  4.8441847D-03 conv= 1.00D-05.
 RLE energy=       -0.8553798190
 E3=        0.60447303D-01        EROMP3=      -0.10263002977D+03
 E4(SDQ)=  -0.64527818D-01        ROMP4(SDQ)=  -0.10269455758D+03
 VARIATIONAL ENERGIES WITH THE FIRST-ORDER WAVEFUNCTION:
 DE(Corr)= -0.85492065     E(Corr)=     -102.67034572    
 NORM(A)=   0.10908705D+01
 Iteration Nr.   2
 **********************
 DD1Dir will call FoFMem   1 times, MxPair=       286
 NAB=    96 NAA=    66 NBB=    28.
 A-vector RMS=  6.6323254D-03 Max=  8.4118376D-02 conv= 1.00D-05.
 RLE energy=       -0.8297687703
 DE(Corr)= -0.79003036     E(CORR)=     -102.60545543     Delta= 6.49D-02
 NORM(A)=   0.10857088D+01
 Iteration Nr.   3
 **********************
 DD1Dir will call FoFMem   1 times, MxPair=       286
 NAB=    96 NAA=    66 NBB=    28.
 A-vector RMS=  2.6168106D-03 Max=  3.4737934D-02 conv= 1.00D-05.
 RLE energy=       -0.8480045983
 DE(Corr)= -0.82154778     E(CORR)=     -102.63697285     Delta=-3.15D-02
 NORM(A)=   0.10911176D+01
 Iteration Nr.   4
 **********************
 DD1Dir will call FoFMem   1 times, MxPair=       286
 NAB=    96 NAA=    66 NBB=    28.
 A-vector RMS=  4.4167370D-03 Max=  5.9080191D-02 conv= 1.00D-05.
 RLE energy=       -0.8453436440
 DE(Corr)= -0.81168298     E(CORR)=     -102.62710805     Delta= 9.86D-03
 NORM(A)=   0.11190508D+01
 Iteration Nr.   5
 **********************
 DD1Dir will call FoFMem   1 times, MxPair=       286
 NAB=    96 NAA=    66 NBB=    28.
 A-vector RMS=  6.8258793D-04 Max=  8.0988225D-03 conv= 1.00D-05.
 RLE energy=       -0.8488937520
 DE(Corr)= -0.84811727     E(CORR)=     -102.66354234     Delta=-3.64D-02
 NORM(A)=   0.11369193D+01
 Iteration Nr.   6
 **********************
 DD1Dir will call FoFMem   1 times, MxPair=       286
 NAB=    96 NAA=    66 NBB=    28.
 A-vector RMS=  4.4525411D-04 Max=  4.4914248D-03 conv= 1.00D-05.
 RLE energy=       -0.8502231489
 DE(Corr)= -0.85279760     E(CORR)=     -102.66822267     Delta=-4.68D-03
 NORM(A)=   0.11380776D+01
 Iteration Nr.   7
 **********************
 DD1Dir will call FoFMem   1 times, MxPair=       286
 NAB=    96 NAA=    66 NBB=    28.
 A-vector RMS=  1.6920311D-04 Max=  2.1745652D-03 conv= 1.00D-05.
 RLE energy=       -0.8499016902
 DE(Corr)= -0.84952563     E(CORR)=     -102.66495070     Delta= 3.27D-03
 NORM(A)=   0.11399588D+01
 Iteration Nr.   8
 **********************
 DD1Dir will call FoFMem   1 times, MxPair=       286
 NAB=    96 NAA=    66 NBB=    28.
 A-vector RMS=  1.2418251D-04 Max=  1.1763077D-03 conv= 1.00D-05.
 RLE energy=       -0.8501558369
 DE(Corr)= -0.85022410     E(CORR)=     -102.66564916     Delta=-6.98D-04
 NORM(A)=   0.11411071D+01
 Iteration Nr.   9
 **********************
 DD1Dir will call FoFMem   1 times, MxPair=       286
 NAB=    96 NAA=    66 NBB=    28.
 A-vector RMS=  7.1678814D-05 Max=  7.8016736D-04 conv= 1.00D-05.
 RLE energy=       -0.8503798457
 DE(Corr)= -0.85014944     E(CORR)=     -102.66557451     Delta= 7.47D-05
 NORM(A)=   0.11416061D+01
 Iteration Nr.  10
 **********************
 DD1Dir will call FoFMem   1 times, MxPair=       286
 NAB=    96 NAA=    66 NBB=    28.
 A-vector RMS=  3.1924786D-05 Max=  4.9900475D-04 conv= 1.00D-05.
 RLE energy=       -0.8502848985
 DE(Corr)= -0.85018104     E(CORR)=     -102.66560611     Delta=-3.16D-05
 NORM(A)=   0.11417294D+01
 Iteration Nr.  11
 **********************
 DD1Dir will call FoFMem   1 times, MxPair=       286
 NAB=    96 NAA=    66 NBB=    28.
 A-vector RMS=  1.7250571D-05 Max=  2.5386361D-04 conv= 1.00D-05.
 RLE energy=       -0.8503057452
 DE(Corr)= -0.85032003     E(CORR)=     -102.66574510     Delta=-1.39D-04
 NORM(A)=   0.11416914D+01
 Iteration Nr.  12
 **********************
 DD1Dir will call FoFMem   1 times, MxPair=       286
 NAB=    96 NAA=    66 NBB=    28.
 A-vector RMS=  1.1500821D-05 Max=  1.3459653D-04 conv= 1.00D-05.
 RLE energy=       -0.8502852288
 DE(Corr)= -0.85026263     E(CORR)=     -102.66568770     Delta= 5.74D-05
 NORM(A)=   0.11417555D+01
 Iteration Nr.  13
 **********************
 DD1Dir will call FoFMem   1 times, MxPair=       286
 NAB=    96 NAA=    66 NBB=    28.
 A-vector RMS=  5.5605845D-06 Max=  4.9957907D-05 conv= 1.00D-05.
 RLE energy=       -0.8503045445
 DE(Corr)= -0.85030887     E(CORR)=     -102.66573394     Delta=-4.62D-05
 NORM(A)=   0.11417668D+01
 Iteration Nr.  14
 **********************
 DD1Dir will call FoFMem   1 times, MxPair=       286
 NAB=    96 NAA=    66 NBB=    28.
 A-vector RMS=  4.0517489D-06 Max=  5.9824994D-05 conv= 1.00D-05.
 RLE energy=       -0.8502954181
 DE(Corr)= -0.85029050     E(CORR)=     -102.66571557     Delta= 1.84D-05
 NORM(A)=   0.11417997D+01
 Iteration Nr.  15
 **********************
 DD1Dir will call FoFMem   1 times, MxPair=       286
 NAB=    96 NAA=    66 NBB=    28.
 A-vector RMS=  1.9315839D-06 Max=  2.4580567D-05 conv= 1.00D-05.
 RLE energy=       -0.8503092810
 DE(Corr)= -0.85030910     E(CORR)=     -102.66573417     Delta=-1.86D-05
 NORM(A)=   0.11418157D+01
 Iteration Nr.  16
 **********************
 DD1Dir will call FoFMem   1 times, MxPair=       286
 NAB=    96 NAA=    66 NBB=    28.
 A-vector RMS=  1.3832477D-06 Max=  1.8748855D-05 conv= 1.00D-05.
 RLE energy=       -0.8503053412
 DE(Corr)= -0.85030266     E(CORR)=     -102.66572773     Delta= 6.44D-06
 NORM(A)=   0.11418284D+01
 Iteration Nr.  17
 **********************
 DD1Dir will call FoFMem   1 times, MxPair=       286
 NAB=    96 NAA=    66 NBB=    28.
 A-vector RMS=  9.8569154D-07 Max=  1.2287431D-05 conv= 1.00D-05.
 RLE energy=       -0.8503085702
 DE(Corr)= -0.85030862     E(CORR)=     -102.66573369     Delta=-5.96D-06
 NORM(A)=   0.11418364D+01
 Iteration Nr.  18
 **********************
 DD1Dir will call FoFMem   1 times, MxPair=       286
 NAB=    96 NAA=    66 NBB=    28.
 A-vector RMS=  5.7089393D-07 Max=  7.4827581D-06 conv= 1.00D-05.
 RLE energy=       -0.8503089126
 DE(Corr)= -0.85030805     E(CORR)=     -102.66573312     Delta= 5.72D-07
 NORM(A)=   0.11418402D+01
 Iteration Nr.  19
 **********************
 DD1Dir will call FoFMem   1 times, MxPair=       286
 NAB=    96 NAA=    66 NBB=    28.
 A-vector RMS=  3.8070420D-07 Max=  3.9237495D-06 conv= 1.00D-05.
 RLE energy=       -0.8503085155
 DE(Corr)= -0.85030845     E(CORR)=     -102.66573352     Delta=-4.00D-07
 NORM(A)=   0.11418424D+01
 Iteration Nr.  20
 **********************
 DD1Dir will call FoFMem   1 times, MxPair=       286
 NAB=    96 NAA=    66 NBB=    28.
 A-vector RMS=  2.7438502D-07 Max=  4.2485681D-06 conv= 1.00D-05.
 RLE energy=       -0.8503092160
 DE(Corr)= -0.85030915     E(CORR)=     -102.66573422     Delta=-7.05D-07
 NORM(A)=   0.11418439D+01
 Iteration Nr.  21
 **********************
 DD1Dir will call FoFMem   1 times, MxPair=       286
 NAB=    96 NAA=    66 NBB=    28.
 A-vector RMS=  1.5279376D-07 Max=  1.5414399D-06 conv= 1.00D-05.
 RLE energy=       -0.8503089693
 DE(Corr)= -0.85030893     E(CORR)=     -102.66573400     Delta= 2.22D-07
 NORM(A)=   0.11418448D+01
 Iteration Nr.  22
 **********************
 DD1Dir will call FoFMem   1 times, MxPair=       286
 NAB=    96 NAA=    66 NBB=    28.
 A-vector RMS=  1.0456641D-07 Max=  1.0382923D-06 conv= 1.00D-05.
 RLE energy=       -0.8503093488
 DE(Corr)= -0.85030936     E(CORR)=     -102.66573443     Delta=-4.35D-07
 NORM(A)=   0.11418453D+01
 Iteration Nr.  23
 **********************
 DD1Dir will call FoFMem   1 times, MxPair=       286
 NAB=    96 NAA=    66 NBB=    28.
 A-vector RMS=  7.2005565D-08 Max=  9.5247607D-07 conv= 1.00D-05.
 RLE energy=       -0.8503092036
 DE(Corr)= -0.85030915     E(CORR)=     -102.66573422     Delta= 2.18D-07
 NORM(A)=   0.11418457D+01
 Iteration Nr.  24
 **********************
 DD1Dir will call FoFMem   1 times, MxPair=       286
 NAB=    96 NAA=    66 NBB=    28.
 A-vector RMS=  4.9148391D-08 Max=  4.7129829D-07 conv= 1.00D-05.
 RLE energy=       -0.8503094004
 DE(Corr)= -0.85030939     E(CORR)=     -102.66573446     Delta=-2.44D-07
 NORM(A)=   0.11418458D+01
 Iteration Nr.  25
 **********************
 DD1Dir will call FoFMem   1 times, MxPair=       286
 NAB=    96 NAA=    66 NBB=    28.
 A-vector RMS=  3.1049603D-08 Max=  3.4191250D-07 conv= 1.00D-05.
 RLE energy=       -0.8503092871
 DE(Corr)= -0.85030924     E(CORR)=     -102.66573431     Delta= 1.48D-07
 NORM(A)=   0.11418460D+01
 Iteration Nr.  26
 **********************
 DD1Dir will call FoFMem   1 times, MxPair=       286
 NAB=    96 NAA=    66 NBB=    28.
 A-vector RMS=  2.2495979D-08 Max=  3.1174000D-07 conv= 1.00D-05.
 RLE energy=       -0.8503093928
 DE(Corr)= -0.85030939     E(CORR)=     -102.66573446     Delta=-1.44D-07
 NORM(A)=   0.11418460D+01
 Iteration Nr.  27
 **********************
 DD1Dir will call FoFMem   1 times, MxPair=       286
 NAB=    96 NAA=    66 NBB=    28.
 A-vector RMS=  1.6570919D-08 Max=  2.0436972D-07 conv= 1.00D-05.
 RLE energy=       -0.8503093321
 DE(Corr)= -0.85030930     E(CORR)=     -102.66573437     Delta= 8.21D-08
 NORM(A)=   0.11418461D+01
 CI/CC converged in   27 iterations to DelEn= 8.21D-08 Conv= 1.00D-07 ErrA1= 1.66D-08 Conv= 1.00D-05
 Wavefunction amplitudes converged. E(Corr)=     -102.66573437    
 Dominant configurations:
 ***********************
 Spin Case        I    J    A    B          Value
    AA           10        26            0.146612D+00
 Largest amplitude= 1.47D-01
 Time for triples=    13616.31 seconds.
 T4(CCSD)= -0.63747543D-01
 T5(CCSD)=  0.16224360D-01
 CCSD(T)= -0.10271325756D+03
 Discarding MO integrals.
 Leave Link  913 at Sat Mar 10 05:52:58 2018, MaxMem= 10737418240 cpu:           21737.8 elap:            1360.2
 (Enter /home1/apps/gaussian/16rA.03/g16/l601.exe)
 Copying SCF densities to generalized density rwf, IOpCl= 0 IROHF=1.

 **********************************************************************

            Population analysis using the SCF density.

 **********************************************************************

 Orbital symmetries:
       Occupied  (SG) (SG) (PI) (PI) (SG) (SG) (?A) (?A) (?B) (?B)
                 (?B) (?A)
       Virtual   (?A) (?B) (?A) (SG) (?A) (?B) (?A) (?B) (?B) (?A)
                 (?A) (?B) (?B) (?A) (?B) (?A) (?A) (?B) (?A) (?B)
                 (?B) (?A) (?B) (?A) (?A) (SG) (?B) (DLTA) (DLTA)
                 (PHI) (PHI) (?A) (SG) (?A) (?A) (?A) (?C) (?C)
                 (?C) (?C) (?A) (?A) (?C) (?C) (?A) (?A) (?C) (SG)
                 (PI) (PI) (SG) (DLTA) (DLTA) (?D) (?D) (?D) (?D)
                 (PHI) (PHI) (SG) (SG) (?E) (?E) (?F) (?E) (?F)
                 (?G) (?G) (?F) (?F) (DLTA) (DLTA) (PHI) (PHI)
                 (?H) (PI) (PI) (?H) (?H) (?H) (PI) (PI) (DLTA)
                 (DLTA) (SG) (SG) (PI) (PI) (PI) (PI) (SG) (PHI)
                 (PHI) (DLTA) (DLTA) (SG) (PI) (PI) (SG) (SG) (PI)
                 (PI) (?D) (?D) (?D) (?D) (?I) (?I) (?I) (?G) (?G)
                 (PHI) (PHI) (?J) (?J) (?J) (DLTA) (DLTA) (?F)
                 (?F) (?J) (?J) (?F) (?F) (SG) (PI) (PI) (SG) (SG)
                 (?D) (?D) (DLTA) (DLTA) (?D) (?D) (SG) (PI) (PI)
                 (SG) (PI) (PI) (SG) (?H) (?H) (?H) (PI) (PI) (?H)
                 (SG) (?K) (?K) (?D) (?D) (?K) (?K) (?D) (?D) (SG)
                 (PI) (PI) (SG) (DLTA) (DLTA) (PI) (PI) (SG) (SG)
                 (SG) (DLTA) (DLTA) (PI) (PI) (SG) (PI) (PI) (SG)
                 (PI) (PI) (SG) (SG) (SG) (DLTA) (DLTA) (PI) (PI)
                 (SG) (PI) (PI) (PI) (PI) (SG) (SG) (SG) (SG) (PI)
                 (PI) (SG) (SG) (SG) (PI) (PI) (SG) (DLTA) (DLTA)
                 (PI) (PI) (SG) (PI) (PI) (SG) (SG) (SG) (PI) (PI)
                 (SG) (SG) (SG) (PI) (PI) (SG) (SG) (SG) (PI) (PI)
                 (SG) (SG) (SG) (PI) (PI) (SG) (SG) (SG) (PI) (PI)
                 (SG) (SG) (SG) (SG) (SG) (SG)
 Unable to determine electronic state:  an orbital has unidentified symmetry.
 Alpha  occ. eigenvalues --   -3.75638  -2.52240  -2.48220  -2.45487  -1.21415
 Alpha  occ. eigenvalues --   -0.63471  -0.57545  -0.56027  -0.50582  -0.48197
 Alpha  occ. eigenvalues --   -0.39755  -0.30033
 Alpha virt. eigenvalues --    0.00742   0.01200   0.01920   0.03177   0.04618
 Alpha virt. eigenvalues --    0.04914   0.06336   0.07612   0.07622   0.08012
 Alpha virt. eigenvalues --    0.08438   0.08577   0.12836   0.14388   0.16716
 Alpha virt. eigenvalues --    0.21128   0.23316   0.25758   0.26379   0.26396
 Alpha virt. eigenvalues --    0.26771   0.27504   0.28874   0.30813   0.31275
 Alpha virt. eigenvalues --    0.37458   0.51615   0.61673   0.61679   0.62350
 Alpha virt. eigenvalues --    0.62351   0.67668   0.67935   0.68057   0.71556
 Alpha virt. eigenvalues --    0.72799   0.73469   0.83275   0.83348   0.87748
 Alpha virt. eigenvalues --    0.90785   0.91610   0.95076   0.95130   1.01901
 Alpha virt. eigenvalues --    1.04474   1.09523   1.33573   1.38789   1.39696
 Alpha virt. eigenvalues --    1.52304   1.82793   1.82813   1.89765   1.89881
 Alpha virt. eigenvalues --    1.90824   1.92092   2.03882   2.03882   2.05207
 Alpha virt. eigenvalues --    2.15085   2.23212   2.23217   2.25720   2.26333
 Alpha virt. eigenvalues --    2.26370   2.28042   2.28042   2.31991   2.32059
 Alpha virt. eigenvalues --    2.42236   2.42237   2.51955   2.51955   2.64529
 Alpha virt. eigenvalues --    2.74295   2.74965   2.75032   2.76997   2.87926
 Alpha virt. eigenvalues --    2.97468   2.98288   3.06177   3.06185   3.27317
 Alpha virt. eigenvalues --    3.40932   3.53587   3.54105   4.42028   4.42676
 Alpha virt. eigenvalues --    4.72214   5.27920   5.27923   5.38501   5.38526
 Alpha virt. eigenvalues --    5.61117   5.69573   5.72043   5.82628   6.41438
 Alpha virt. eigenvalues --    6.46802   6.47457   6.52297   6.53674   6.56707
 Alpha virt. eigenvalues --    6.56707   6.58100   6.58282   6.58448   6.80827
 Alpha virt. eigenvalues --    6.80827   6.85958   6.85958   7.03229   7.04959
 Alpha virt. eigenvalues --    7.04996   7.16039   7.16041   7.39399   7.39503
 Alpha virt. eigenvalues --    7.40357   7.40800   7.44444   7.44708   7.59952
 Alpha virt. eigenvalues --    7.92214   7.92560   8.27459   8.94274  14.55428
 Alpha virt. eigenvalues --   14.55432  14.60553  14.60582  14.72692  14.73451
 Alpha virt. eigenvalues --   14.84598  15.02216  15.02662  15.54015  15.80294
 Alpha virt. eigenvalues --   15.82416  15.94124  16.74648  16.74722  16.94282
 Alpha virt. eigenvalues --   16.95077  16.95668  17.12906  17.82080  18.73204
 Alpha virt. eigenvalues --   18.73204  18.73803  18.73803  18.79669  18.79672
 Alpha virt. eigenvalues --   18.86624  18.87425  19.27394  33.00073  33.02549
 Alpha virt. eigenvalues --   33.14711  35.01546  35.01572  35.16058  35.17897
 Alpha virt. eigenvalues --   35.45501  38.39266  39.25030  43.73149  43.73153
 Alpha virt. eigenvalues --   43.87298  43.87864  43.98801  45.63154  45.64232
 Alpha virt. eigenvalues --   46.61799  63.51113  63.53578  63.70120  74.58583
 Alpha virt. eigenvalues --   83.17413  86.89688  86.89700  87.00767  87.02390
 Alpha virt. eigenvalues --   87.27305 118.96626 118.97847 119.06778 119.08496
 Alpha virt. eigenvalues --  119.18667 119.82160 136.81395 154.04220 222.95311
 Alpha virt. eigenvalues --  222.96782 223.10590 257.56415 269.64402 286.28452
 Alpha virt. eigenvalues --  286.29020 287.02635 316.05639 316.05645 316.13292
 Alpha virt. eigenvalues --  316.13963 316.28535 429.52140 429.53100 429.67363
 Alpha virt. eigenvalues --  496.62180 555.05845 870.86370 870.86914 871.00854
 Alpha virt. eigenvalues --  962.634541529.585721901.041951901.044591901.17481
 Alpha virt. eigenvalues -- 1965.063254234.001134588.899964588.901064589.01835
 Alpha virt. eigenvalues -- 5659.745479650.63405******************************
 Alpha virt. eigenvalues -- **************************************************
 Alpha virt. eigenvalues -- **************************************************
     Molecular Orbital Coefficients:
                           4         5         6         7         8
                           O         O         O         O         O
     Eigenvalues --    -2.45487  -1.21415  -0.63471  -0.57545  -0.56027
   1 1   Cr 1S          0.00000  -0.00000  -0.00000   0.00000   0.00000
   2        2S          0.00000   0.00000   0.00000   0.00000   0.00000
   3        3S          0.00000  -0.00000  -0.00000   0.00000   0.00000
   4        4S          0.00000   0.00000   0.00000   0.00000   0.00000
   5        5S          0.00000  -0.00000  -0.00000   0.00000   0.00000
   6        6S          0.00000   0.00000   0.00000   0.00000   0.00000
   7        7S          0.00000  -0.00001  -0.00001   0.00000   0.00000
   8        8S          0.00000   0.00003   0.00003   0.00000   0.00000
   9        9S          0.00000  -0.00008  -0.00008   0.00000   0.00000
  10       10S          0.00000   0.00023   0.00024   0.00000   0.00000
  11       11S          0.00000  -0.00065  -0.00070   0.00000   0.00000
  12       12S          0.00000   0.00208   0.00222   0.00000   0.00000
  13       13S          0.00000  -0.00974  -0.01044   0.00000   0.00000
  14       14S          0.00000   0.00945   0.01039   0.00000   0.00000
  15       15S          0.00000   0.11829   0.13011   0.00000   0.00000
  16       16S          0.00000  -0.02792  -0.02780   0.00000   0.00000
  17       17S          0.00000  -0.09890  -0.11380   0.00000   0.00000
  18       18S          0.00000  -0.03801  -0.05526   0.00000   0.00000
  19       19S          0.00000  -0.01781   0.07669   0.00000   0.00000
  20       20S          0.00000  -0.00825   0.01074   0.00000   0.00000
  21       21S          0.00000  -0.07146  -0.08103   0.00000   0.00000
  22       22S          0.00000  -0.02479  -0.03222   0.00000   0.00000
  23       23S          0.00000   0.00124   0.00170   0.00000   0.00000
  24       24PX         0.00000   0.00000   0.00000  -0.00000   0.00000
  25       24PY         0.00000   0.00000   0.00000   0.00000  -0.00000
  26       24PZ         0.00000   0.00000   0.00000   0.00000   0.00000
  27       25PX        -0.00000   0.00000   0.00000   0.00000   0.00000
  28       25PY         0.00000   0.00000   0.00000   0.00000   0.00000
  29       25PZ         0.00000  -0.00000  -0.00000   0.00000   0.00000
  30       26PX         0.00001   0.00000   0.00000  -0.00000   0.00000
  31       26PY         0.00000   0.00000   0.00000   0.00000  -0.00000
  32       26PZ         0.00000   0.00000   0.00000   0.00000   0.00000
  33       27PX        -0.00006   0.00000   0.00000   0.00001   0.00000
  34       27PY         0.00000   0.00000   0.00000   0.00000   0.00001
  35       27PZ         0.00000  -0.00002  -0.00000   0.00000   0.00000
  36       28PX         0.00025   0.00000   0.00000  -0.00003   0.00000
  37       28PY         0.00000   0.00000   0.00000   0.00000  -0.00003
  38       28PZ         0.00000   0.00006   0.00002   0.00000   0.00000
  39       29PX        -0.00088   0.00000   0.00000   0.00012   0.00000
  40       29PY         0.00000   0.00000   0.00000   0.00000   0.00012
  41       29PZ         0.00000  -0.00021  -0.00008   0.00000   0.00000
  42       30PX         0.00298   0.00000   0.00000  -0.00040   0.00000
  43       30PY         0.00000   0.00000   0.00000   0.00000  -0.00041
  44       30PZ         0.00000   0.00072   0.00028   0.00000   0.00000
  45       31PX         0.00561   0.00000   0.00000  -0.00025   0.00000
  46       31PY         0.00000   0.00000   0.00000   0.00000  -0.00019
  47       31PZ         0.00000   0.00121   0.00126   0.00000   0.00000
  48       32PX        -0.11489   0.00000   0.00000   0.01086   0.00000
  49       32PY         0.00000   0.00000   0.00000   0.00000   0.01050
  50       32PZ         0.00000  -0.02701  -0.01916   0.00000   0.00000
  51       33PX        -0.02294   0.00000   0.00000  -0.02484   0.00000
  52       33PY         0.00000   0.00000   0.00000   0.00000  -0.03155
  53       33PZ         0.00000  -0.00348  -0.04956   0.00000   0.00000
  54       34PX         0.34960   0.00000   0.00000  -0.03415   0.00000
  55       34PY         0.00000   0.00000   0.00000   0.00000  -0.03314
  56       34PZ         0.00000   0.08563   0.05987   0.00000   0.00000
  57       35PX         0.22305   0.00000   0.00000  -0.03372   0.00000
  58       35PY         0.00000   0.00000   0.00000   0.00000  -0.03560
  59       35PZ         0.00000   0.05684   0.02764   0.00000   0.00000
  60       36PX         0.26688   0.00000   0.00000  -0.02622   0.00000
  61       36PY         0.00000   0.00000   0.00000   0.00000  -0.02178
  62       36PZ         0.00000   0.05398   0.02831   0.00000   0.00000
  63       37PX         0.03266   0.00000   0.00000   0.02418   0.00000
  64       37PY         0.00000   0.00000   0.00000   0.00000   0.02774
  65       37PZ         0.00000   0.01644   0.01286   0.00000   0.00000
  66       38PX        -0.00221   0.00000   0.00000   0.03927   0.00000
  67       38PY         0.00000   0.00000   0.00000   0.00000   0.03068
  68       38PZ         0.00000   0.00771  -0.00301   0.00000   0.00000
  69       39PX         0.00141   0.00000   0.00000  -0.00191   0.00000
  70       39PY         0.00000   0.00000   0.00000   0.00000  -0.00185
  71       39PZ         0.00000   0.00420   0.00509   0.00000   0.00000
  72       40PX         0.06237   0.00000   0.00000   0.01892   0.00000
  73       40PY         0.00000   0.00000   0.00000   0.00000   0.02540
  74       40PZ         0.00000   0.01372   0.05544   0.00000   0.00000
  75       41PX         0.24512   0.00000   0.00000  -0.02613   0.00000
  76       41PY         0.00000   0.00000   0.00000   0.00000  -0.02552
  77       41PZ         0.00000   0.06292   0.04854   0.00000   0.00000
  78       42PX        -0.00040   0.00000   0.00000  -0.00017   0.00000
  79       42PY         0.00000   0.00000   0.00000   0.00000  -0.00049
  80       42PZ         0.00000  -0.00092  -0.00161   0.00000   0.00000
  81       43D 0        0.00000   0.00001   0.00002   0.00000   0.00000
  82       43D+1       -0.00000   0.00000   0.00000  -0.00002   0.00000
  83       43D-1        0.00000   0.00000   0.00000   0.00000  -0.00002
  84       43D+2        0.00000  -0.00000   0.00000   0.00000   0.00000
  85       43D-2        0.00000   0.00000   0.00000   0.00000   0.00000
  86       44D 0        0.00000   0.00274   0.00844   0.00000   0.00000
  87       44D+1       -0.00007   0.00000   0.00000  -0.00426   0.00000
  88       44D-1        0.00000   0.00000   0.00000   0.00000  -0.00563
  89       44D+2        0.00000   0.00005   0.00012   0.00000   0.00000
  90       44D-2        0.00000   0.00000   0.00000   0.00000   0.00000
  91       45D 0        0.00000   0.01329   0.04094   0.00000   0.00000
  92       45D+1       -0.00035   0.00000   0.00000  -0.02137   0.00000
  93       45D-1        0.00000   0.00000   0.00000   0.00000  -0.02810
  94       45D+2        0.00000   0.00021   0.00060   0.00000   0.00000
  95       45D-2        0.00000   0.00000   0.00000   0.00000   0.00000
  96       46D 0        0.00000   0.03395   0.10513   0.00000   0.00000
  97       46D+1       -0.00068   0.00000   0.00000  -0.04329   0.00000
  98       46D-1        0.00000   0.00000   0.00000   0.00000  -0.05896
  99       46D+2        0.00000   0.00065   0.00146   0.00000   0.00000
 100       46D-2        0.00000   0.00000   0.00000   0.00000   0.00000
 101       47D 0        0.00000   0.03102   0.08321   0.00000   0.00000
 102       47D+1       -0.00154   0.00000   0.00000  -0.04011   0.00000
 103       47D-1        0.00000   0.00000   0.00000   0.00000  -0.05396
 104       47D+2        0.00000   0.00055   0.00124   0.00000   0.00000
 105       47D-2        0.00000   0.00000   0.00000   0.00000   0.00000
 106       48D 0        0.00000   0.06259   0.17925   0.00000   0.00000
 107       48D+1        0.00541   0.00000   0.00000  -0.09862   0.00000
 108       48D-1        0.00000   0.00000   0.00000   0.00000  -0.13396
 109       48D+2        0.00000   0.00002   0.00052   0.00000   0.00000
 110       48D-2        0.00000   0.00000   0.00000   0.00000   0.00000
 111       49D 0        0.00000   0.01775   0.10015   0.00000   0.00000
 112       49D+1        0.00425   0.00000   0.00000  -0.05219   0.00000
 113       49D-1        0.00000   0.00000   0.00000   0.00000  -0.08883
 114       49D+2        0.00000  -0.00043  -0.00353   0.00000   0.00000
 115       49D-2        0.00000   0.00000   0.00000   0.00000   0.00000
 116       50D 0        0.00000  -0.00273   0.01402   0.00000   0.00000
 117       50D+1        0.00033   0.00000   0.00000  -0.00362   0.00000
 118       50D-1        0.00000   0.00000   0.00000   0.00000  -0.01810
 119       50D+2        0.00000   0.00013  -0.00215   0.00000   0.00000
 120       50D-2        0.00000   0.00000   0.00000   0.00000   0.00000
 121       51D 0        0.00000  -0.00160  -0.00429   0.00000   0.00000
 122       51D+1       -0.00097   0.00000   0.00000  -0.01018   0.00000
 123       51D-1        0.00000   0.00000   0.00000   0.00000  -0.01131
 124       51D+2        0.00000  -0.00005   0.00016   0.00000   0.00000
 125       51D-2        0.00000   0.00000   0.00000   0.00000   0.00000
 126       52D 0        0.00000   0.02154   0.07607   0.00000   0.00000
 127       52D+1        0.00068   0.00000   0.00000  -0.03641   0.00000
 128       52D-1        0.00000   0.00000   0.00000   0.00000  -0.04880
 129       52D+2        0.00000   0.00049   0.00114   0.00000   0.00000
 130       52D-2        0.00000   0.00000   0.00000   0.00000   0.00000
 131       53D 0        0.00000   0.00032  -0.00006   0.00000   0.00000
 132       53D+1        0.00006   0.00000   0.00000   0.00243   0.00000
 133       53D-1        0.00000   0.00000   0.00000   0.00000   0.00217
 134       53D+2        0.00000   0.00000   0.00016   0.00000   0.00000
 135       53D-2        0.00000   0.00000   0.00000   0.00000   0.00000
 136       54F 0        0.00000  -0.00065  -0.00131   0.00000   0.00000
 137       54F+1        0.00171   0.00000   0.00000   0.00094   0.00000
 138       54F-1        0.00000   0.00000   0.00000   0.00000   0.00128
 139       54F+2        0.00000   0.00019   0.00012   0.00000   0.00000
 140       54F-2        0.00000   0.00000   0.00000   0.00000   0.00000
 141       54F+3       -0.00076   0.00000   0.00000   0.00008   0.00000
 142       54F-3        0.00000   0.00000   0.00000   0.00000   0.00008
 143       55F 0        0.00000  -0.00515  -0.00767   0.00000   0.00000
 144       55F+1        0.00343   0.00000   0.00000   0.00479   0.00000
 145       55F-1        0.00000   0.00000   0.00000   0.00000   0.00591
 146       55F+2        0.00000   0.00057   0.00046   0.00000   0.00000
 147       55F-2        0.00000   0.00000   0.00000   0.00000   0.00000
 148       55F+3       -0.00184   0.00000   0.00000   0.00017   0.00000
 149       55F-3        0.00000   0.00000   0.00000   0.00000   0.00016
 150       56F 0        0.00000  -0.00945  -0.01211   0.00000   0.00000
 151       56F+1        0.00127   0.00000   0.00000   0.01850   0.00000
 152       56F-1        0.00000   0.00000   0.00000   0.00000   0.02121
 153       56F+2        0.00000   0.00156   0.00119   0.00000   0.00000
 154       56F-2        0.00000   0.00000   0.00000   0.00000   0.00000
 155       56F+3       -0.00085   0.00000   0.00000  -0.00030   0.00000
 156       56F-3        0.00000   0.00000   0.00000   0.00000  -0.00031
 157       57F 0        0.00000  -0.00183  -0.00746   0.00000   0.00000
 158       57F+1       -0.00020   0.00000   0.00000   0.00193   0.00000
 159       57F-1        0.00000   0.00000   0.00000   0.00000   0.00259
 160       57F+2        0.00000   0.00043   0.00045   0.00000   0.00000
 161       57F-2        0.00000   0.00000   0.00000   0.00000   0.00000
 162       57F+3        0.00006   0.00000   0.00000  -0.00051   0.00000
 163       57F-3        0.00000   0.00000   0.00000   0.00000  -0.00055
 164       58G 0        0.00000   0.00020   0.00032   0.00000   0.00000
 165       58G+1       -0.00009   0.00000   0.00000  -0.00023   0.00000
 166       58G-1        0.00000   0.00000   0.00000   0.00000  -0.00017
 167       58G+2        0.00000  -0.00001  -0.00009   0.00000   0.00000
 168       58G-2        0.00000   0.00000   0.00000   0.00000   0.00000
 169       58G+3        0.00006   0.00000   0.00000   0.00005   0.00000
 170       58G-3        0.00000   0.00000   0.00000   0.00000   0.00007
 171       58G+4        0.00000  -0.00000  -0.00000   0.00000   0.00000
 172       58G-4        0.00000   0.00000   0.00000   0.00000   0.00000
 173       59G 0        0.00000   0.00166   0.00327   0.00000   0.00000
 174       59G+1       -0.00012   0.00000   0.00000  -0.00258   0.00000
 175       59G-1        0.00000   0.00000   0.00000   0.00000  -0.00269
 176       59G+2        0.00000  -0.00030  -0.00044   0.00000   0.00000
 177       59G-2        0.00000   0.00000   0.00000   0.00000   0.00000
 178       59G+3       -0.00011   0.00000   0.00000   0.00022   0.00000
 179       59G-3        0.00000   0.00000   0.00000   0.00000   0.00027
 180       59G+4        0.00000  -0.00000  -0.00000   0.00000   0.00000
 181       59G-4        0.00000   0.00000   0.00000   0.00000   0.00000
 182       60G 0        0.00000   0.00158   0.00182   0.00000   0.00000
 183       60G+1        0.00003   0.00000   0.00000  -0.00503   0.00000
 184       60G-1        0.00000   0.00000   0.00000   0.00000  -0.00517
 185       60G+2        0.00000  -0.00047  -0.00055   0.00000   0.00000
 186       60G-2        0.00000   0.00000   0.00000   0.00000   0.00000
 187       60G+3        0.00001   0.00000   0.00000   0.00047   0.00000
 188       60G-3        0.00000   0.00000   0.00000   0.00000   0.00056
 189       60G+4        0.00000   0.00000   0.00002   0.00000   0.00000
 190       60G-4        0.00000   0.00000   0.00000   0.00000   0.00000
 191 2   O  1S          0.00000  -0.00000   0.00000   0.00000   0.00000
 192        2S          0.00000   0.00001  -0.00000   0.00000   0.00000
 193        3S          0.00000  -0.00005   0.00001   0.00000   0.00000
 194        4S          0.00000   0.00031  -0.00006   0.00000   0.00000
 195        5S          0.00000  -0.00326   0.00064   0.00000   0.00000
 196        6S          0.00000  -0.04847   0.01059   0.00000   0.00000
 197        7S          0.00000  -0.16037   0.03222   0.00000   0.00000
 198        8S          0.00000   0.54712  -0.09550   0.00000   0.00000
 199        9S          0.00000   0.15225  -0.03231   0.00000   0.00000
 200       10S          0.00000   0.39619  -0.14317   0.00000   0.00000
 201       11S          0.00000  -0.00439  -0.00414   0.00000   0.00000
 202       12S          0.00000   0.04709  -0.00947   0.00000   0.00000
 203       13S          0.00000   0.05480  -0.05683   0.00000   0.00000
 204       14PX         0.00014   0.00000   0.00000   0.00777   0.00000
 205       14PY         0.00000   0.00000   0.00000   0.00000   0.00730
 206       14PZ         0.00000   0.00079   0.00742   0.00000   0.00000
 207       15PX         0.00148   0.00000   0.00000   0.08055   0.00000
 208       15PY         0.00000   0.00000   0.00000   0.00000   0.07557
 209       15PZ         0.00000   0.00742   0.07760   0.00000   0.00000
 210       16PX         0.00473   0.00000   0.00000   0.25823   0.00000
 211       16PY         0.00000   0.00000   0.00000   0.00000   0.24203
 212       16PZ         0.00000   0.02036   0.24979   0.00000   0.00000
 213       17PX         0.00799   0.00000   0.00000   0.41428   0.00000
 214       17PY         0.00000   0.00000   0.00000   0.00000   0.39138
 215       17PZ         0.00000   0.04599   0.39984   0.00000   0.00000
 216       18PX         0.00323   0.00000   0.00000   0.34038   0.00000
 217       18PY         0.00000   0.00000   0.00000   0.00000   0.32083
 218       18PZ         0.00000   0.05746   0.28929   0.00000   0.00000
 219       19PX         0.00011   0.00000   0.00000   0.00443   0.00000
 220       19PY         0.00000   0.00000   0.00000   0.00000   0.00418
 221       19PZ         0.00000   0.00020   0.00453   0.00000   0.00000
 222       20PX        -0.00004   0.00000   0.00000  -0.00205   0.00000
 223       20PY         0.00000   0.00000   0.00000   0.00000  -0.00193
[...]
  44       30PZ         0.00030   0.00015   0.00015   0.00000
  45       31PX         0.00149   0.00075   0.00075   0.00000
  46       31PY         0.00150   0.00075   0.00075   0.00000
  47       31PZ         0.00145   0.00073   0.00072   0.00000
  48       32PX        -0.07233  -0.03633  -0.03600  -0.00034
  49       32PY        -0.07198  -0.03599  -0.03599   0.00000
  50       32PZ        -0.07260  -0.03640  -0.03620  -0.00020
  51       33PX        -0.02242  -0.01039  -0.01203   0.00163
  52       33PY        -0.02235  -0.01118  -0.01118   0.00000
  53       33PZ         0.01525   0.00752   0.00774  -0.00022
  54       34PX         0.61126   0.30679   0.30447   0.00232
  55       34PY         0.60962   0.30481   0.30481   0.00000
  56       34PZ         0.61275   0.30704   0.30571   0.00132
  57       35PX         0.44485   0.22293   0.22192   0.00102
  58       35PY         0.44577   0.22289   0.22289   0.00000
  59       35PZ         0.46502   0.23272   0.23230   0.00042
  60       36PX         0.45581   0.22746   0.22835  -0.00088
  61       36PY         0.45619   0.22809   0.22809   0.00000
  62       36PZ         0.43340   0.21566   0.21774  -0.00207
  63       37PX         0.06871   0.04553   0.02319   0.02234
  64       37PY         0.04464   0.02232   0.02232   0.00000
  65       37PZ         0.05474   0.04652   0.00822   0.03831
  66       38PX         0.04674   0.03454   0.01220   0.02234
  67       38PY         0.01682   0.00841   0.00841   0.00000
  68       38PZ         0.05344   0.06059  -0.00715   0.06773
  69       39PX        -0.00143  -0.00114  -0.00029  -0.00085
  70       39PY        -0.00047  -0.00024  -0.00024   0.00000
  71       39PZ         0.02040   0.02040   0.00000   0.02040
  72       40PX         0.06667   0.03271   0.03395  -0.00124
  73       40PY         0.06583   0.03292   0.03292   0.00000
  74       40PZ         0.03165   0.01600   0.01565   0.00036
  75       41PX         0.48776   0.24426   0.24349   0.00077
  76       41PY         0.48797   0.24398   0.24398   0.00000
  77       41PZ         0.47934   0.23987   0.23947   0.00040
  78       42PX         0.00006   0.00009  -0.00003   0.00012
  79       42PY        -0.00011  -0.00006  -0.00006   0.00000
  80       42PZ        -0.00137  -0.00128  -0.00008  -0.00120
  81       43D 0        0.00000   0.00000   0.00000   0.00000
  82       43D+1        0.00000   0.00000   0.00000   0.00000
  83       43D-1        0.00000   0.00000   0.00000   0.00000
  84       43D+2        0.00000   0.00000   0.00000   0.00000
  85       43D-2        0.00000   0.00000   0.00000   0.00000
  86       44D 0        0.00176   0.00107   0.00069   0.00039
  87       44D+1        0.00371   0.00355   0.00016   0.00338
  88       44D-1        0.00056   0.00028   0.00028   0.00000
  89       44D+2        0.00345   0.00345   0.00000   0.00345
  90       44D-2        0.00351   0.00351   0.00000   0.00351
  91       45D 0        0.02108   0.01287   0.00822   0.00465
  92       45D+1        0.04417   0.04218   0.00199   0.04018
  93       45D-1        0.00693   0.00347   0.00347   0.00000
  94       45D+2        0.04121   0.04121   0.00000   0.04121
  95       45D-2        0.04184   0.04184   0.00000   0.04184
  96       46D 0        0.09269   0.05557   0.03713   0.01844
  97       46D+1        0.17938   0.17222   0.00716   0.16505
  98       46D-1        0.02577   0.01288   0.01288   0.00000
  99       46D+2        0.16682   0.16680   0.00002   0.16679
 100       46D-2        0.16935   0.16935   0.00000   0.16935
 101       47D 0        0.10325   0.06012   0.04313   0.01700
 102       47D+1        0.18343   0.17350   0.00993   0.16356
 103       47D-1        0.03467   0.01733   0.01733   0.00000
 104       47D+2        0.17158   0.17156   0.00002   0.17154
 105       47D-2        0.17414   0.17414   0.00000   0.17414
 106       48D 0        0.27737   0.16034   0.11703   0.04331
 107       48D+1        0.34529   0.30787   0.03741   0.27046
 108       48D-1        0.12280   0.06140   0.06140   0.00000
 109       48D+2        0.31602   0.31600   0.00002   0.31598
 110       48D-2        0.32062   0.32062   0.00000   0.32062
 111       49D 0        0.09698   0.06555   0.03142   0.03413
 112       49D+1        0.13465   0.10716   0.02749   0.07967
 113       49D-1        0.10352   0.05176   0.05176   0.00000
 114       49D+2        0.12012   0.12010   0.00002   0.12008
 115       49D-2        0.12147   0.12147   0.00000   0.12147
 116       50D 0       -0.00142   0.00173  -0.00315   0.00488
 117       50D+1        0.00598   0.00463   0.00135   0.00328
 118       50D-1        0.01428   0.00714   0.00714   0.00000
 119       50D+2        0.00753   0.00752   0.00001   0.00751
 120       50D-2        0.00741   0.00741   0.00000   0.00741
 121       51D 0       -0.00200  -0.00036  -0.00164   0.00128
 122       51D+1        0.00405   0.00226   0.00179   0.00048
 123       51D-1        0.00523   0.00261   0.00261   0.00000
 124       51D+2        0.00402   0.00401   0.00001   0.00401
 125       51D-2        0.00408   0.00408   0.00000   0.00408
 126       52D 0        0.09781   0.05947   0.03834   0.02113
 127       52D+1        0.16603   0.15704   0.00898   0.14806
 128       52D-1        0.03124   0.01562   0.01562   0.00000
 129       52D+2        0.15445   0.15443   0.00002   0.15441
 130       52D-2        0.15675   0.15675   0.00000   0.15675
 131       53D 0        0.00016   0.00012   0.00004   0.00008
 132       53D+1       -0.00059  -0.00029  -0.00031   0.00002
 133       53D-1       -0.00057  -0.00029  -0.00029   0.00000
 134       53D+2       -0.00013  -0.00013  -0.00000  -0.00013
 135       53D-2       -0.00013  -0.00013  -0.00000  -0.00013
 136       54F 0        0.00006   0.00003   0.00003   0.00000
 137       54F+1        0.00003   0.00001   0.00002  -0.00000
 138       54F-1        0.00003   0.00002   0.00002   0.00000
 139       54F+2        0.00000   0.00000   0.00000   0.00000
 140       54F-2       -0.00000  -0.00000   0.00000  -0.00000
 141       54F+3        0.00000   0.00000   0.00000   0.00000
 142       54F-3        0.00000   0.00000   0.00000   0.00000
 143       55F 0        0.00156   0.00079   0.00077   0.00001
 144       55F+1        0.00059   0.00031   0.00028   0.00004
 145       55F-1        0.00065   0.00033   0.00033   0.00000
 146       55F+2        0.00001   0.00001   0.00001   0.00000
 147       55F-2       -0.00000  -0.00000   0.00000  -0.00000
 148       55F+3        0.00001   0.00000   0.00000   0.00000
 149       55F-3        0.00001   0.00000   0.00000   0.00000
 150       56F 0        0.00759   0.00381   0.00378   0.00003
 151       56F+1        0.01159   0.00665   0.00494   0.00172
 152       56F-1        0.01097   0.00548   0.00548   0.00000
 153       56F+2        0.00012   0.00011   0.00001   0.00011
 154       56F-2        0.00008   0.00008   0.00000   0.00008
 155       56F+3        0.00000   0.00000   0.00000   0.00000
 156       56F-3        0.00000   0.00000   0.00000   0.00000
 157       57F 0       -0.00220  -0.00121  -0.00099  -0.00022
 158       57F+1        0.00334   0.00257   0.00077   0.00180
 159       57F-1        0.00194   0.00097   0.00097   0.00000
 160       57F+2        0.00012   0.00012   0.00000   0.00012
 161       57F-2        0.00009   0.00009   0.00000   0.00009
 162       57F+3        0.00000   0.00000   0.00000   0.00000
 163       57F-3        0.00000   0.00000   0.00000   0.00000
 164       58G 0        0.00001   0.00000   0.00000   0.00000
 165       58G+1        0.00000   0.00000   0.00000  -0.00000
 166       58G-1        0.00000   0.00000   0.00000   0.00000
 167       58G+2        0.00000   0.00000   0.00000   0.00000
 168       58G-2        0.00000   0.00000   0.00000   0.00000
 169       58G+3        0.00000   0.00000   0.00000   0.00000
 170       58G-3        0.00000   0.00000   0.00000   0.00000
 171       58G+4        0.00000   0.00000   0.00000   0.00000
 172       58G-4        0.00000   0.00000   0.00000   0.00000
 173       59G 0        0.00048   0.00024   0.00023   0.00001
 174       59G+1        0.00024   0.00012   0.00012  -0.00001
 175       59G-1        0.00025   0.00013   0.00013   0.00000
 176       59G+2        0.00000   0.00000   0.00000   0.00000
 177       59G-2        0.00000   0.00000   0.00000   0.00000
 178       59G+3        0.00000   0.00000   0.00000   0.00000
 179       59G-3        0.00000   0.00000   0.00000   0.00000
 180       59G+4        0.00000   0.00000  -0.00000   0.00000
 181       59G-4        0.00000   0.00000  -0.00000   0.00000
 182       60G 0        0.00082   0.00043   0.00039   0.00003
 183       60G+1        0.00295   0.00161   0.00135   0.00026
 184       60G-1        0.00263   0.00131   0.00131   0.00000
 185       60G+2        0.00000   0.00000   0.00000  -0.00000
 186       60G-2       -0.00000  -0.00000   0.00000  -0.00000
 187       60G+3        0.00000   0.00000   0.00000   0.00000
 188       60G-3        0.00000   0.00000   0.00000   0.00000
 189       60G+4        0.00000   0.00000   0.00000   0.00000
 190       60G-4        0.00000   0.00000   0.00000   0.00000
 191 2   O  1S         -0.00000  -0.00000  -0.00000  -0.00000
 192        2S          0.00000   0.00000   0.00000   0.00000
 193        3S         -0.00000  -0.00000  -0.00000  -0.00000
 194        4S          0.00001   0.00000   0.00000   0.00000
 195        5S         -0.00023  -0.00012  -0.00012  -0.00000
 196        6S         -0.01089  -0.00545  -0.00544  -0.00000
 197        7S         -0.09971  -0.04990  -0.04981  -0.00009
 198        8S          1.07273   0.53708   0.53565   0.00143
 199        9S          0.22744   0.11384   0.11360   0.00025
 200       10S          0.76067   0.38338   0.37729   0.00608
 201       11S         -0.00183  -0.00094  -0.00089  -0.00005
 202       12S          0.00821   0.00411   0.00410   0.00001
 203       13S          0.11767   0.07423   0.04344   0.03079
 204       14PX         0.00188   0.00098   0.00090   0.00009
 205       14PY         0.00158   0.00079   0.00079   0.00000
 206       14PZ         0.00170   0.00085   0.00085   0.00001
 207       15PX         0.06323   0.03307   0.03016   0.00290
 208       15PY         0.05346   0.02673   0.02673   0.00000
 209       15PZ         0.05783   0.02904   0.02879   0.00025
 210       16PX         0.37293   0.19452   0.17841   0.01612
 211       16PY         0.31845   0.15922   0.15922   0.00000
 212       16PZ         0.34549   0.17337   0.17212   0.00125
 213       17PX         0.76565   0.39542   0.37023   0.02519
 214       17PY         0.67886   0.33943   0.33943   0.00000
 215       17PZ         0.69903   0.35092   0.34810   0.00282
 216       18PX         0.55752   0.28930   0.26822   0.02108
 217       18PY         0.50018   0.25009   0.25009   0.00000
 218       18PZ         0.36356   0.19762   0.16594   0.03168
 219       19PX         0.00216   0.00113   0.00103   0.00009
 220       19PY         0.00184   0.00092   0.00092   0.00000
 221       19PZ         0.00209   0.00105   0.00104   0.00000
 222       20PX        -0.00030  -0.00016  -0.00014  -0.00001
 223       20PY        -0.00025  -0.00013  -0.00013   0.00000
 224       20PZ        -0.00027  -0.00014  -0.00013  -0.00000
 225       21PX         0.05376   0.03149   0.02227   0.00922
 226       21PY         0.03385   0.01692   0.01692   0.00000
 227       21PZ         0.03242   0.02459   0.00783   0.01675
 228       22D 0        0.00112   0.00059   0.00052   0.00007
 229       22D+1        0.00054   0.00033   0.00021   0.00013
 230       22D-1        0.00064   0.00032   0.00032   0.00000
 231       22D+2        0.00002   0.00002   0.00000   0.00002
 232       22D-2        0.00002   0.00002   0.00000   0.00002
 233       23D 0        0.00785   0.00403   0.00381   0.00022
 234       23D+1        0.00666   0.00398   0.00267   0.00131
 235       23D-1        0.00846   0.00423   0.00423   0.00000
 236       23D+2        0.00037   0.00037   0.00000   0.00037
 237       23D-2        0.00037   0.00037   0.00000   0.00037
 238       24D 0        0.00000   0.00000   0.00000   0.00000
 239       24D+1        0.00000   0.00000   0.00000   0.00000
 240       24D-1        0.00000   0.00000   0.00000   0.00000
 241       24D+2        0.00000   0.00000   0.00000   0.00000
 242       24D-2        0.00000   0.00000   0.00000   0.00000
 243       25D 0       -0.00431  -0.00175  -0.00256   0.00081
 244       25D+1        0.00259   0.00052   0.00207  -0.00156
 245       25D-1        0.00680   0.00340   0.00340   0.00000
 246       25D+2        0.00022   0.00022   0.00000   0.00022
 247       25D-2        0.00020   0.00020   0.00000   0.00020
 248       26F 0        0.00086   0.00047   0.00039   0.00007
 249       26F+1        0.00044   0.00030   0.00014   0.00016
 250       26F-1        0.00037   0.00018   0.00018   0.00000
 251       26F+2        0.00004   0.00004   0.00000   0.00004
 252       26F-2        0.00004   0.00004   0.00000   0.00004
 253       26F+3        0.00000   0.00000   0.00000   0.00000
 254       26F-3        0.00000   0.00000   0.00000   0.00000
 255       27F 0       -0.00005  -0.00010   0.00005  -0.00015
 256       27F+1        0.00066   0.00037   0.00029   0.00008
 257       27F-1        0.00116   0.00058   0.00058   0.00000
 258       27F+2        0.00018   0.00018   0.00000   0.00018
 259       27F-2        0.00017   0.00017   0.00000   0.00017
 260       27F+3        0.00000   0.00000   0.00000   0.00000
 261       27F-3        0.00000   0.00000   0.00000   0.00000
          Condensed to atoms (all electrons):
               1          2
     1  Cr  12.764838   0.219067
     2  O    0.219067   6.797028
          Atomic-Atomic Spin Densities.
               1          2
     1  Cr   3.822015   0.009370
     2  O    0.009370   0.159245
 Mulliken charges and spin densities:
               1          2
     1  Cr   1.016095   3.831385
     2  O   -1.016095   0.168615
 Sum of Mulliken charges =   0.00000   4.00000
 Mulliken charges and spin densities with hydrogens summed into heavy atoms:
               1          2
     1  Cr   1.016095   3.831385
     2  O   -1.016095   0.168615
 Electronic spatial extent (au):  <R**2>=             82.5378
 Charge=              0.0000 electrons
 Dipole moment (field-independent basis, Debye):
    X=              0.0000    Y=              0.0000    Z=              4.4193  Tot=              4.4193
 Quadrupole moment (field-independent basis, Debye-Ang):
   XX=            -20.8545   YY=            -19.7487   ZZ=            -24.4824
   XY=              0.0000   XZ=              0.0000   YZ=              0.0000
 Traceless Quadrupole moment (field-independent basis, Debye-Ang):
   XX=              0.8407   YY=              1.9465   ZZ=             -2.7872
   XY=              0.0000   XZ=              0.0000   YZ=              0.0000
 Octapole moment (field-independent basis, Debye-Ang**2):
  XXX=              0.0000  YYY=              0.0000  ZZZ=              5.6059  XYY=              0.0000
  XXY=              0.0000  XXZ=              0.1983  XZZ=              0.0000  YZZ=              0.0000
  YYZ=              0.7459  XYZ=              0.0000
 Hexadecapole moment (field-independent basis, Debye-Ang**3):
 XXXX=            -31.4864 YYYY=            -28.2699 ZZZZ=            -99.8487 XXXY=              0.0000
 XXXZ=              0.0000 YYYX=              0.0000 YYYZ=              0.0000 ZZZX=              0.0000
 ZZZY=              0.0000 XXYY=             -9.9589 XXZZ=            -22.6473 YYZZ=            -20.9072
 XXYZ=              0.0000 YYXZ=              0.0000 ZZXY=              0.0000
 N-N= 2.963392381152D+01 E-N=-2.907400651106D+02  KE= 5.638257656131D+01
 Symmetry A1   KE= 2.433051483801D+01
 Symmetry A2   KE= 5.362964648586D+00
 Symmetry B1   KE= 1.596785901386D+01
 Symmetry B2   KE= 1.072123806097D+01
 Symmetry A1   SP= 2.000000000000D+00
 Symmetry A2   SP= 1.000000000000D+00
 Symmetry B1   SP= 1.000000000000D+00
 Symmetry B2   SP= 0.000000000000D+00
 Orbital energies and kinetic energies (alpha):
                                 1                 2
   4         O                -2.454871          3.131759
   5         O                -1.214155          1.195953
   6         O                -0.634708          2.938513
   7         O                -0.575449          2.192706
   8         O                -0.560270          2.223856
   9         O                -0.505820          4.202387
  10         O                -0.481975          5.362965
  11         O                -0.397550          2.056322
  12         O                -0.300326          5.318930
  13         V                 0.007417          0.156952
  14         V                 0.011999          0.151964
  15         V                 0.019203          0.080735
  16         V                 0.031773          0.044615
  17         V                 0.046179          0.403760
 Total kinetic energy from orbitals= 7.332318057221D+01
                          Isotropic Fermi Contact Couplings
        Atom                 a.u.       MegaHertz       Gauss      10(-4) cm-1
     1  Cr(53)             0.00005      -0.00319      -0.00114      -0.00106
     2  O(17)              0.00004      -0.00576      -0.00206      -0.00192
 --------------------------------------------------------
       Center         ----  Spin Dipole Couplings  ----
                      3XX-RR        3YY-RR        3ZZ-RR
 --------------------------------------------------------
     1   Atom        2.053029      0.062721     -2.115750
     2   Atom        0.132024     -0.237356      0.105333
 --------------------------------------------------------
                        XY            XZ            YZ
 --------------------------------------------------------
     1   Atom        0.000000      0.000000      0.000000
     2   Atom        0.000000      0.000000      0.000000
 --------------------------------------------------------


 ---------------------------------------------------------------------------------
              Anisotropic Spin Dipole Couplings in Principal Axis System
 ---------------------------------------------------------------------------------

       Atom             a.u.   MegaHertz   Gauss  10(-4) cm-1        Axes

              Baa    -2.1157    63.936    22.814    21.327  0.0000  0.0000  1.0000
     1 Cr(53) Bbb     0.0627    -1.895    -0.676    -0.632 -0.0000  1.0000  0.0000
              Bcc     2.0530   -62.041   -22.138   -20.695  1.0000  0.0000  0.0000
 
              Baa    -0.2374    17.175     6.128     5.729 -0.0000  1.0000  0.0000
     2 O(17)  Bbb     0.1053    -7.622    -2.720    -2.542  0.0000  0.0000  1.0000
              Bcc     0.1320    -9.553    -3.409    -3.187  1.0000  0.0000  0.0000
 

 ---------------------------------------------------------------------------------

 No NMR shielding tensors so no spin-rotation constants.
 Leave Link  601 at Sat Mar 10 05:53:02 2018, MaxMem= 10737418240 cpu:              53.4 elap:               3.5
 (Enter /home1/apps/gaussian/16rA.03/g16/l9999.exe)

 Test job not archived.
 1\1\GINC-C405-041\SP\ROCCSD(T)-Full\Gen\Cr1O1(5)\AANNABE\10-Mar-2018\0
 \\#P ROCCSD(T)=(maxcyc=150, Full, SaveAmplitudes, ReadAmplitudes)/Gen 
 5d 7f SCF=(maxcycles=300) Integral(NoXCTest) MaxDisk=500GB Pop=Regular
  Pseudo=Read Guess=Read IOp(5/15=2)\\CrO\\0,5\Cr,0,0.,0.,0.\O,0,0.,0.,
 1.5\\Version=ES64L-G16RevA.03\HF=-101.8154251\MP2=-102.6904771\MP3=-10
 2.6300298\PUHF=-101.8154251\PMP2-0=-102.6904771\MP4SDQ=-102.6945576\CC
 SD=-102.6657344\CCSD(T)=-102.7132576\RMSD=7.062e-09\PG=C*V [C*(O1Cr1)]
 \\@


 WHEN ALL ELSE FAILS, LOOK AT THE SCHRODINGER EQUATION.
     -- RUSSELL T. PACK, APRIL 1978
 Job cpu time:       0 days  6 hours 47 minutes 30.5 seconds.
 Elapsed time:       0 days  0 hours 25 minutes 35.4 seconds.
 File lengths (MBytes):  RWF=   4076 Int=      0 D2E=      0 Chk=     24 Scr=      1
 Normal termination of Gaussian 16 at Sat Mar 10 05:53:02 2018.
