 Entering Gaussian System, Link 0=g16
 Initial command:
 /home1/apps/gaussian/16rA.03/g16/l1.exe "/tmp/Gau-84563.inp" -scrdir="/tmp/"
 Entering Link 1 = /home1/apps/gaussian/16rA.03/g16/l1.exe PID=     84564.
  
 Copyright (c) 1988,1990,1992,1993,1995,1998,2003,2009,2016,
            Gaussian, Inc.  All Rights Reserved.
  
 This is part of the Gaussian(R) 16 program.  It is based on
 the Gaussian(R) 09 system (copyright 2009, Gaussian, Inc.),
 the Gaussian(R) 03 system (copyright 2003, Gaussian, Inc.),
 the Gaussian(R) 98 system (copyright 1998, Gaussian, Inc.),
 the Gaussian(R) 94 system (copyright 1995, Gaussian, Inc.),
 the Gaussian 92(TM) system (copyright 1992, Gaussian, Inc.),
 the Gaussian 90(TM) system (copyright 1990, Gaussian, Inc.),
 the Gaussian 88(TM) system (copyright 1988, Gaussian, Inc.),
 the Gaussian 86(TM) system (copyright 1986, Carnegie Mellon
 University), and the Gaussian 82(TM) system (copyright 1983,
 Carnegie Mellon University). Gaussian is a federally registered
 trademark of Gaussian, Inc.
  
 This software contains proprietary and confidential information,
 including trade secrets, belonging to Gaussian, Inc.
  
 This software is provided under written license and may be
 used, copied, transmitted, or stored only in accord with that
 written license.
  
 The following legend is applicable only to US Government
 contracts under FAR:
  
                    RESTRICTED RIGHTS LEGEND
  
 Use, reproduction and disclosure by the US Government is
 subject to restrictions as set forth in subparagraphs (a)
 and (c) of the Commercial Computer Software - Restricted
 Rights clause in FAR 52.227-19.
  
 Gaussian, Inc.
 340 Quinnipiac St., Bldg. 40, Wallingford CT 06492
  
  
 ---------------------------------------------------------------
 Warning -- This program may not be used in any manner that
 competes with the business of Gaussian, Inc. or will provide
 assistance to any competitor of Gaussian, Inc.  The licensee
 of this program is prohibited from giving any competitor of
 Gaussian, Inc. access to this program.  By using this program,
 the user acknowledges that Gaussian, Inc. is engaged in the
 business of creating and licensing software in the field of
 computational chemistry and represents and warrants to the
 licensee that it is not a competitor of Gaussian, Inc. and that
 it will not use this program in any manner prohibited above.
 ---------------------------------------------------------------
  

 Cite this work as:
 Gaussian 16, Revision A.03,
 M. J. Frisch, G. W. Trucks, H. B. Schlegel, G. E. Scuseria, 
 M. A. Robb, J. R. Cheeseman, G. Scalmani, V. Barone, 
 G. A. Petersson, H. Nakatsuji, X. Li, M. Caricato, A. V. Marenich, 
 J. Bloino, B. G. Janesko, R. Gomperts, B. Mennucci, H. P. Hratchian, 
 J. V. Ortiz, A. F. Izmaylov, J. L. Sonnenberg, D. Williams-Young, 
 F. Ding, F. Lipparini, F. Egidi, J. Goings, B. Peng, A. Petrone, 
 T. Henderson, D. Ranasinghe, V. G. Zakrzewski, J. Gao, N. Rega, 
 G. Zheng, W. Liang, M. Hada, M. Ehara, K. Toyota, R. Fukuda, 
 J. Hasegawa, M. Ishida, T. Nakajima, Y. Honda, O. Kitao, H. Nakai, 
 T. Vreven, K. Throssell, J. A. Montgomery, Jr., J. E. Peralta, 
 F. Ogliaro, M. J. Bearpark, J. J. Heyd, E. N. Brothers, K. N. Kudin, 
 V. N. Staroverov, T. A. Keith, R. Kobayashi, J. Normand, 
 K. Raghavachari, A. P. Rendell, J. C. Burant, S. S. Iyengar, 
 J. Tomasi, M. Cossi, J. M. Millam, M. Klene, C. Adamo, R. Cammi, 
 J. W. Ochterski, R. L. Martin, K. Morokuma, O. Farkas, 
 J. B. Foresman, and D. J. Fox, Gaussian, Inc., Wallingford CT, 2016.
 
 ******************************************
 Gaussian 16:  ES64L-G16RevA.03 25-Dec-2016
                24-Mar-2018 
 ******************************************
 %mem=80GB
 %cpu=0-31
 SetSPE:  set environment variable "MP_BIND" = "yes"
 SetSPE:  set environment variable "MP_BLIST" = "0,1,2,3,4,5,6,7,8,9,10,11,12,13,14,15,16,17,18,19,20,21,22,23,24,25,26,27,28,29,30,31"
 Will use up to   32 processors via shared memory.
 %chk=tz.chk
 %rwf=/scratch/04843/gwang18/feh/
 ----------------------------------------------------------------------
 #P ROCCSD(T)=(MaxCyc=150, Full)/Gen SCF=(maxcycle=400, vshift=200) Pse
 udo=Read Integral(NoXCTest) Pop=Regular MaxDisk=500GB Guess=Read IOp(5
 /15=2)
 ----------------------------------------------------------------------
 1/38=1,172=1/1;
 2/12=2,17=6,18=5,40=1/2;
 3/5=7,11=2,16=1,17=8,25=1,30=1,47=8,116=101/1,2,3;
 4/5=1/1;
 5/5=2,7=400,10=200,15=2,38=6/2;
 8/5=-1,6=4,9=120000,10=90/1,4;
 9/5=7,6=150,14=2/13;
 6//1;
 99/5=1,9=1/99;
 Leave Link    1 at Sat Mar 24 00:24:32 2018, MaxMem= 10737418240 cpu:               9.7 elap:               0.3
 (Enter /home1/apps/gaussian/16rA.03/g16/l101.exe)
 ---
 FeH
 ---
 Symbolic Z-matrix:
 Charge =  0 Multiplicity = 4
 Fe                    0.        0.        0. 
 H                     0.        0.        1.5 
 
 ITRead=  0  0
 MicOpt= -1 -1
 NAtoms=      2 NQM=        2 NQMF=       0 NMMI=      0 NMMIF=      0
                NMic=       0 NMicF=      0.
                    Isotopes and Nuclear Properties:
 (Nuclear quadrupole moments (NQMom) in fm**2, nuclear magnetic moments (NMagM)
  in nuclear magnetons)

  Atom         1           2
 IAtWgt=          56           1
 AtmWgt=  55.9349393   1.0078250
 NucSpn=           0           1
 AtZEff=  -0.0000000  -0.0000000
 NQMom=    0.0000000   0.0000000
 NMagM=    0.0000000   2.7928460
 AtZNuc=  26.0000000   1.0000000
 Leave Link  101 at Sat Mar 24 00:24:32 2018, MaxMem= 10737418240 cpu:               3.6 elap:               0.2
 (Enter /home1/apps/gaussian/16rA.03/g16/l202.exe)
                          Input orientation:                          
 ---------------------------------------------------------------------
 Center     Atomic      Atomic             Coordinates (Angstroms)
 Number     Number       Type             X           Y           Z
 ---------------------------------------------------------------------
      1         26           0        0.000000    0.000000    0.000000
      2          1           0        0.000000    0.000000    1.500000
 ---------------------------------------------------------------------
 Stoichiometry    FeH(4)
 Framework group  C*V[C*(HFe)]
 Deg. of freedom     1
 Full point group                 C*V     NOp   4
 Largest Abelian subgroup         C2V     NOp   4
 Largest concise Abelian subgroup C1      NOp   1
                         Standard orientation:                         
 ---------------------------------------------------------------------
 Center     Atomic      Atomic             Coordinates (Angstroms)
 Number     Number       Type             X           Y           Z
 ---------------------------------------------------------------------
      1         26           0        0.000000    0.000000    0.055556
      2          1           0        0.000000    0.000000   -1.444444
 ---------------------------------------------------------------------
 Rotational constants (GHZ):           0.0000000         226.8845452         226.8845452
 Leave Link  202 at Sat Mar 24 00:24:32 2018, MaxMem= 10737418240 cpu:               0.8 elap:               0.1
 (Enter /home1/apps/gaussian/16rA.03/g16/l301.exe)
 General basis read from cards:  (5D, 7F)
 Centers:       1
 S 1 1.00
     Exponent=  4.3162650000D+06 Coefficients=  1.0000000000D+00
 S 1 1.00
     Exponent=  6.4634240000D+05 Coefficients=  1.0000000000D+00
 S 1 1.00
     Exponent=  1.4708970000D+05 Coefficients=  1.0000000000D+00
 S 1 1.00
     Exponent=  4.1661520000D+04 Coefficients=  1.0000000000D+00
 S 1 1.00
     Exponent=  1.3590770000D+04 Coefficients=  1.0000000000D+00
 S 1 1.00
     Exponent=  4.9057500000D+03 Coefficients=  1.0000000000D+00
 S 1 1.00
     Exponent=  1.9127460000D+03 Coefficients=  1.0000000000D+00
 S 1 1.00
     Exponent=  7.9260430000D+02 Coefficients=  1.0000000000D+00
 S 1 1.00
     Exponent=  3.4480650000D+02 Coefficients=  1.0000000000D+00
 S 1 1.00
     Exponent=  1.5589990000D+02 Coefficients=  1.0000000000D+00
 S 1 1.00
     Exponent=  7.2230910000D+01 Coefficients=  1.0000000000D+00
 S 1 1.00
     Exponent=  3.2725060000D+01 Coefficients=  1.0000000000D+00
 S 1 1.00
     Exponent=  1.5667620000D+01 Coefficients=  1.0000000000D+00
 S 1 1.00
     Exponent=  7.5034830000D+00 Coefficients=  1.0000000000D+00
 S 1 1.00
     Exponent=  3.3122230000D+00 Coefficients=  1.0000000000D+00
 S 1 1.00
     Exponent=  1.5584710000D+00 Coefficients=  1.0000000000D+00
 S 1 1.00
     Exponent=  6.8391400000D-01 Coefficients=  1.0000000000D+00
 S 1 1.00
     Exponent=  1.4675700000D-01 Coefficients=  1.0000000000D+00
 S 1 1.00
     Exponent=  7.0583000000D-02 Coefficients=  1.0000000000D+00
 S 1 1.00
     Exponent=  3.1449000000D-02 Coefficients=  1.0000000000D+00
 S 1 1.00
     Exponent=  4.6844000000D+00 Coefficients=  1.0000000000D+00
 S 1 1.00
     Exponent=  1.2204000000D+00 Coefficients=  1.0000000000D+00
 S 1 1.00
     Exponent=  1.4010000000D-02 Coefficients=  1.0000000000D+00
 P 1 1.00
     Exponent=  1.7745690000D+04 Coefficients=  1.0000000000D+00
 P 1 1.00
     Exponent=  4.2007210000D+03 Coefficients=  1.0000000000D+00
 P 1 1.00
     Exponent=  1.3644290000D+03 Coefficients=  1.0000000000D+00
 P 1 1.00
     Exponent=  5.2208060000D+02 Coefficients=  1.0000000000D+00
 P 1 1.00
     Exponent=  2.2145950000D+02 Coefficients=  1.0000000000D+00
 P 1 1.00
     Exponent=  1.0090960000D+02 Coefficients=  1.0000000000D+00
 P 1 1.00
     Exponent=  4.8401150000D+01 Coefficients=  1.0000000000D+00
 P 1 1.00
     Exponent=  2.3985360000D+01 Coefficients=  1.0000000000D+00
 P 1 1.00
     Exponent=  1.2182500000D+01 Coefficients=  1.0000000000D+00
 P 1 1.00
     Exponent=  6.2422980000D+00 Coefficients=  1.0000000000D+00
 P 1 1.00
     Exponent=  3.1109440000D+00 Coefficients=  1.0000000000D+00
 P 1 1.00
     Exponent=  1.5099580000D+00 Coefficients=  1.0000000000D+00
 P 1 1.00
     Exponent=  7.1084500000D-01 Coefficients=  1.0000000000D+00
 P 1 1.00
     Exponent=  2.7259800000D-01 Coefficients=  1.0000000000D+00
 P 1 1.00
     Exponent=  1.0397200000D-01 Coefficients=  1.0000000000D+00
 P 1 1.00
     Exponent=  3.8166000000D-02 Coefficients=  1.0000000000D+00
 P 1 1.00
     Exponent=  6.8788000000D+00 Coefficients=  1.0000000000D+00
 P 1 1.00
     Exponent=  1.5748000000D+00 Coefficients=  1.0000000000D+00
 P 1 1.00
     Exponent=  1.4010000000D-02 Coefficients=  1.0000000000D+00
 D 1 1.00
     Exponent=  1.1488400000D+02 Coefficients=  1.0000000000D+00
 D 1 1.00
     Exponent=  3.3887800000D+01 Coefficients=  1.0000000000D+00
 D 1 1.00
     Exponent=  1.2373000000D+01 Coefficients=  1.0000000000D+00
 D 1 1.00
     Exponent=  4.9992500000D+00 Coefficients=  1.0000000000D+00
 D 1 1.00
     Exponent=  2.0704300000D+00 Coefficients=  1.0000000000D+00
 D 1 1.00
     Exponent=  8.2818300000D-01 Coefficients=  1.0000000000D+00
 D 1 1.00
     Exponent=  3.0754700000D-01 Coefficients=  1.0000000000D+00
 D 1 1.00
     Exponent=  9.9455000000D-02 Coefficients=  1.0000000000D+00
 D 1 1.00
     Exponent=  4.5305000000D+00 Coefficients=  1.0000000000D+00
 D 1 1.00
     Exponent=  2.1205000000D+00 Coefficients=  1.0000000000D+00
 D 1 1.00
     Exponent=  3.2160000000D-02 Coefficients=  1.0000000000D+00
 F 1 1.00
     Exponent=  6.0066000000D+00 Coefficients=  1.0000000000D+00
 F 1 1.00
     Exponent=  2.2522000000D+00 Coefficients=  1.0000000000D+00
 F 1 1.00
     Exponent=  7.7580000000D-01 Coefficients=  1.0000000000D+00
 F 1 1.00
     Exponent=  2.6723000000D-01 Coefficients=  1.0000000000D+00
 G 1 1.00
     Exponent=  5.5068000000D+00 Coefficients=  1.0000000000D+00
 G 1 1.00
     Exponent=  2.0515000000D+00 Coefficients=  1.0000000000D+00
 G 1 1.00
     Exponent=  7.6426000000D-01 Coefficients=  1.0000000000D+00
 ****
 Centers:       2
 S 1 1.00
     Exponent=  3.3870000000D+01 Coefficients=  1.0000000000D+00
 S 1 1.00
     Exponent=  5.0950000000D+00 Coefficients=  1.0000000000D+00
 S 1 1.00
     Exponent=  1.1590000000D+00 Coefficients=  1.0000000000D+00
 S 1 1.00
     Exponent=  3.2580000000D-01 Coefficients=  1.0000000000D+00
 S 1 1.00
     Exponent=  1.0270000000D-01 Coefficients=  1.0000000000D+00
 S 1 1.00
     Exponent=  2.5260000000D-02 Coefficients=  1.0000000000D+00
 P 1 1.00
     Exponent=  1.4070000000D+00 Coefficients=  1.0000000000D+00
 P 1 1.00
     Exponent=  3.8800000000D-01 Coefficients=  1.0000000000D+00
 P 1 1.00
     Exponent=  1.0200000000D-01 Coefficients=  1.0000000000D+00
 D 1 1.00
     Exponent=  1.0570000000D+00 Coefficients=  1.0000000000D+00
 D 1 1.00
     Exponent=  2.4700000000D-01 Coefficients=  1.0000000000D+00
 ****
 ======================================================================================================
                                       Pseudopotential Parameters
 ======================================================================================================
  Center     Atomic      Valence      Angular      Power
  Number     Number     Electrons     Momentum     of R      Exponent        Coefficient   SO-Coeffient
 ======================================================================================================
    1         26           16
                                      D and up 
                                                     1       14.4907932       16.00000000    0.00000000
                                                     3       14.7508039      231.85269156    0.00000000
                                                     2       13.5133204     -125.71036365    0.00000000
                                                     2        8.1349995        1.26697878    0.00000000
                                      S - D
                                                     2       24.6419614      286.34993515    0.00000000
                                                     2        8.4088679       45.10829178    0.00000000
                                      P - D
                                                     2        8.2748563       28.52519211    0.00000000
                                                     2       23.8323272      181.13542019    0.00000000
    2          1            1
                                      P and up 
                                                     2       21.7769666      -10.85192405    0.00000000
                                                     1       21.2435951        1.00000000    0.00000000
                                                     3       21.2435951       21.24359508    0.00000000
                                      S - P
                                                     2        1.0000000        0.00000000    0.00000000
 ======================================================================================================
 Ernie: Thresh=  0.10000D-02 Tol=  0.10000D-05 Strict=F.
 There are   120 symmetry adapted cartesian basis functions of A1  symmetry.
 There are    26 symmetry adapted cartesian basis functions of A2  symmetry.
 There are    56 symmetry adapted cartesian basis functions of B1  symmetry.
 There are    56 symmetry adapted cartesian basis functions of B2  symmetry.
 There are    94 symmetry adapted basis functions of A1  symmetry.
 There are    23 symmetry adapted basis functions of A2  symmetry.
 There are    49 symmetry adapted basis functions of B1  symmetry.
 There are    49 symmetry adapted basis functions of B2  symmetry.
   215 basis functions,   258 primitive gaussians,   258 cartesian basis functions
    10 alpha electrons        7 beta electrons
       nuclear repulsion energy         5.6445569165 Hartrees.
 IExCor=    0 DFT=F Ex=HF Corr=None ExCW=0 ScaHFX=  1.000000
 ScaDFX=  1.000000  1.000000  1.000000  1.000000 ScalE2=  1.000000  1.000000
 IRadAn=      5 IRanWt=     -1 IRanGd=            0 ICorTp=0 IEmpDi=  4
 NAtoms=    2 NActive=    2 NUniq=    2 SFac= 1.00D+00 NAtFMM=   60 NAOKFM=F Big=F
 Integral buffers will be    131072 words long.
 Raffenetti 2 integral format.
 Two-electron integral symmetry is turned on.
 Leave Link  301 at Sat Mar 24 00:24:33 2018, MaxMem= 10737418240 cpu:               7.3 elap:               0.3
 (Enter /home1/apps/gaussian/16rA.03/g16/l302.exe)
 NPDir=0 NMtPBC=     1 NCelOv=     1 NCel=       1 NClECP=     1 NCelD=      1
         NCelK=      1 NCelE2=     1 NClLst=     1 CellRange=     0.0.
 One-electron integrals computed using PRISM.
 One-electron integral symmetry used in STVInt
   4 Symmetry operations used in ECPInt.
 ECPInt:  NShTT=    2556 NPrTT=    2556 LenC2=    2534 LenP2D=    2533.
 LDataN:  DoStor=T MaxTD1= 8 Len=  415
 NBasis=   215 RedAO= T EigKep=  2.37D-06  NBF=    94    23    49    49
 NBsUse=   212 1.00D-06 EigRej=  9.66D-07 NBFU=    93    23    48    48
 Leave Link  302 at Sat Mar 24 00:24:34 2018, MaxMem= 10737418240 cpu:              29.3 elap:               1.0
 (Enter /home1/apps/gaussian/16rA.03/g16/l303.exe)
 DipDrv:  MaxL=1.
 Leave Link  303 at Sat Mar 24 00:24:36 2018, MaxMem= 10737418240 cpu:               2.0 elap:               0.2
 (Enter /home1/apps/gaussian/16rA.03/g16/l401.exe)
 Initial guess from the checkpoint file:  "tz.chk"
 B after Tr=     0.000000    0.000000    0.000000
         Rot=    1.000000    0.000000    0.000000    0.000000 Ang=   0.00 deg.
 Guess basis will be translated and rotated to current coordinates.
 JPrj=2 DoOrth=T DoCkMO=T.
 Initial guess orbital symmetries:
       Occupied  (SG) (SG) (PI) (PI) (SG) (?A) (SG) (PI) (PI) (?A)
       Virtual   (SG) (PI) (PI) (SG) (SG) (PI) (PI) (SG) (DLTA)
                 (DLTA) (PI) (PI) (SG) (SG) (SG) (PI) (PI) (SG)
                 (PI) (PI) (?A) (?A) (SG) (PI) (PI) (SG) (SG) (SG)
                 (DLTA) (DLTA) (PI) (PI) (SG) (PHI) (PHI) (PI)
                 (PI) (SG) (PI) (PI) (?A) (?A) (PI) (PI) (SG) (?A)
                 (?A) (SG) (PI) (PI) (SG) (SG) (SG) (?B) (?B) (?B)
                 (?B) (DLTA) (?B) (?B) (DLTA) (SG) (SG) (PI) (PI)
                 (SG) (DLTA) (DLTA) (DLTA) (DLTA) (PHI) (PHI) (?C)
                 (?C) (PI) (PI) (DLTA) (DLTA) (SG) (PI) (PI) (PI)
                 (PI) (SG) (SG) (SG) (?D) (?D) (DLTA) (DLTA) (PI)
                 (PI) (SG) (DLTA) (DLTA) (?D) (?D) (PI) (PI) (SG)
                 (SG) (?D) (?D) (?E) (?E) (DLTA) (DLTA) (?D) (?D)
                 (?E) (SG) (SG) (DLTA) (DLTA) (PI) (PI) (SG) (PI)
                 (PI) (SG) (?D) (?D) (DLTA) (DLTA) (?D) (?D) (SG)
                 (?D) (?D) (?F) (?F) (DLTA) (DLTA) (?D) (?D) (?F)
                 (SG) (DLTA) (DLTA) (PI) (PI) (SG) (PI) (PI) (SG)
                 (DLTA) (DLTA) (PI) (PI) (SG) (SG) (SG) (PI) (PI)
                 (SG) (SG) (DLTA) (DLTA) (PI) (PI) (SG) (PI) (PI)
                 (SG) (SG) (PI) (PI) (SG) (SG) (DLTA) (DLTA) (PI)
                 (PI) (SG) (PI) (PI) (SG) (SG) (PI) (PI) (SG) (SG)
                 (PI) (PI) (SG) (SG) (PI) (PI) (SG) (SG) (PI) (PI)
                 (SG) (SG) (SG) (PI) (PI) (SG) (SG) (SG) (SG) (SG)
 Leave Link  401 at Sat Mar 24 00:24:36 2018, MaxMem= 10737418240 cpu:               9.8 elap:               0.4
 (Enter /home1/apps/gaussian/16rA.03/g16/l502.exe)
 Keep R1 and R2 ints in memory in symmetry-blocked form, NReq=338797193.
 FoFCou: FMM=F IPFlag=           8 FMFlag=           0 FMFlg1=           0
         NFxFlg=           0 DoJE=F BraDBF=F KetDBF=F FulRan=T
         wScrn=  0.000000 ICntrl=       600 IOpCl=  0 I1Cent=           0 NGrid=           0
         NMat0=    1 NMatS0=  23220 NMatT0=    0 NMatD0=    1 NMtDS0=    0 NMtDT0=    0
 Petite list used in FoFCou.
 Restricted open shell SCF:
 Using DIIS extrapolation, IDIIS=  1040.
 NGot= 10737418240 LenX= 10598929943 LenY= 10598862938
 Requested convergence on RMS density matrix=1.00D-08 within 400 cycles.
 Requested convergence on MAX density matrix=1.00D-06.
 Requested convergence on             energy=1.00D-06.
 Virtual orbitals will be shifted by   0.200 hartree.
 No special actions if energy rises.

 Cycle   1  Pass 1  IDiag  1:
 E= -123.289000091136    
 DIIS: error= 2.38D-08 at cycle   1 NSaved=   1.
 NSaved= 1 IEnMin= 1 EnMin= -123.289000091136     IErMin= 1 ErrMin= 2.38D-08
 ErrMax= 2.38D-08  0.00D+00 EMaxC= 1.00D-01 BMatC= 2.36D-14 BMatP= 2.36D-14
 IDIUse=1 WtCom= 1.00D+00 WtEn= 0.00D+00
 Coeff-Com:  0.100D+01
 Coeff:      0.100D+01
 Gap=     0.016 Goal=   None    Shift=    0.200
 RMSDP=3.94D-09 MaxDP=4.01D-07              OVMax= 5.85D-07

 SCF Done:  E(ROHF) =  -123.289000091     A.U. after    1 cycles
            NFock=  1  Conv=0.39D-08     -V/T= 2.6997
 <Sx>= 0.0000 <Sy>= 0.0000 <Sz>= 1.5000 <S**2>= 3.7500 S= 1.5000
 <L.S>=  0.00000000000    
 KE= 7.253690007486D+01 PE=-3.027111654689D+02 EE= 1.012407083865D+02
 Annihilation of the first spin contaminant:
 S**2 before annihilation     3.7500,   after     3.7500
 Leave Link  502 at Sat Mar 24 00:24:43 2018, MaxMem= 10737418240 cpu:             201.7 elap:               6.5
 (Enter /home1/apps/gaussian/16rA.03/g16/l801.exe)
 Windowed orbitals will be sorted by symmetry type.
 GenMOA:  NOpAll=  4 NOp2=4 NOpUse=  4 JSym2X=1
 FoFJK:  IHMeth= 1 ICntrl=       0 DoSepK=F KAlg= 0 I1Cent=           0 FoldK=F
 IRaf=         0 NMat=       1 IRICut=       1 DoRegI=T DoRafI=F ISym2E= 1 IDoP0=0 IntGTp=1.
 FoFCou: FMM=F IPFlag=           8 FMFlag=      100000 FMFlg1=           0
         NFxFlg=           0 DoJE=F BraDBF=F KetDBF=F FulRan=T
         wScrn=  0.000000 ICntrl=         0 IOpCl=  1 I1Cent=           0 NGrid=           0
         NMat0=    1 NMatS0=      1 NMatT0=    0 NMatD0=    1 NMtDS0=    0 NMtDT0=    0
 Petite list used in FoFCou.
 <Sx>= 0.0000 <Sy>= 0.0000 <Sz>= 1.5000 <S**2>= 3.7500 S= 1.5000
 Range of M.O.s used for correlation:     1   212
 NBasis=   215 NAE=    10 NBE=     7 NFC=     0 NFV=     0
 NROrb=    212 NOA=    10 NOB=     7 NVA=   202 NVB=   205

 **** Warning!!: The largest alpha MO coefficient is  0.24966262D+03


 **** Warning!!: The largest beta MO coefficient is  0.24952916D+03

 Singles contribution to E2=   -0.7258139950D-02
 Leave Link  801 at Sat Mar 24 00:24:47 2018, MaxMem= 10737418240 cpu:              98.2 elap:               3.1
 (Enter /home1/apps/gaussian/16rA.03/g16/l804.exe)
 Open-shell transformation, MDV= 10737418240 ITran=4 ISComp=2.
 Unit  1 TFree=       1395097 TCopy=       1089051.
 Semi-Direct transformation.
 ModeAB=           2 MOrb=            10 LenV=   10735935041
 LASXX=     11836819 LTotXX=    11836819 LenRXX=    11836819
 LTotAB=    12069633 MaxLAS=    70831320 LenRXY=    70831320
 NonZer=    72308960 LenScr=   109242880 LnRSAI=           0
 LnScr1=           0 LExtra=     5450651 Total=    197361670
 MaxDsk= 67108864000 SrtSym=           F ITran=            4
 DoSDTr:  NPSUse= 32
 JobTyp=1 Pass  1:  I=   1 to  10.
 (rs|ai) integrals will be sorted in core.
 Complete sort for first half transformation.
 First half transformation complete.
 Begin second half transformation for I=  10.
 Begin second half transformation for I=  10.
 Complete sort for second half transformation.
 Second half transformation complete.
 ModeAB=           2 MOrb=             7 LenV=   10735935041
 LASXX=      8371498 LTotXX=     8371498 LenRXX=    49581924
 LTotAB=     7741007 MaxLAS=    49581924 LenRXY=     7741007
 NonZer=    50616272 LenScr=    76690944 LnRSAI=           0
 LnScr1=           0 LExtra=    88118790 Total=    222132665
 MaxDsk= 67108864000 SrtSym=           F ITran=            4
 DoSDTr:  NPSUse= 32
 JobTyp=2 Pass  1:  I=   1 to   7.
 (rs|ai) integrals will be sorted in core.
 Complete sort for first half transformation.
 First half transformation complete.
 Complete sort for second half transformation.
 Second half transformation complete.
 Spin components of T(2) and E(2):
     alpha-alpha T2 =       0.2929072596D-01 E2=     -0.1631113956D+00
     alpha-beta  T2 =       0.9290633404D-01 E2=     -0.5350010355D+00
     beta-beta   T2 =       0.1132782078D-01 E2=     -0.6963003364D-01
 ANorm=    0.1066108391D+01
 E2 =    -0.7750006047D+00 EUMP2 =    -0.12406400069588D+03
 (S**2,0)=  0.37500D+01           (S**2,1)=  0.37500D+01
 E(PUHF)=      -0.12328900009D+03        E(PMP2)=      -0.12406400070D+03
 Leave Link  804 at Sat Mar 24 00:26:23 2018, MaxMem= 10737418240 cpu:            3083.1 elap:              96.4
 (Enter /home1/apps/gaussian/16rA.03/g16/l913.exe)
 CIDS:  MDV= 10737418240.
 IFCWin=0 IBDFC=1 NFBD=     0     0 NFCmp=     0     0 NFFFC=     0     0
 Using original routines for 1st iteration.
 Using DD4UQ or CC4UQ for 2nd and later iterations.
 Keep R2 and R3 ints in memory in symmetry-blocked form, NReq=338808259.
 FoFCou: FMM=F IPFlag=           8 FMFlag=           0 FMFlg1=           0
         NFxFlg=           0 DoJE=F BraDBF=F KetDBF=F FulRan=T
         wScrn=  0.000000 ICntrl=       600 IOpCl=  0 I1Cent=           0 NGrid=           0
         NMat0=    1 NMatS0=  23220 NMatT0=    0 NMatD0=    1 NMtDS0=    0 NMtDT0=    0
 Petite list used in FoFCou.
 CIDS: In Core Option IDoMem=           1.
 CCSD(T)
 =======
 Iterations= 150 Convergence= 0.100D-06
 Produce multiple copies of IABC intergrals
 Iteration Nr.   1
 **********************
 DD1Dir will call FoFMem   1 times, MxPair=       206
 NAB=    70 NAA=    45 NBB=    21.
 DD1Dir will call FoFMem   1 times, MxPair=       206
 NAB=    70 NAA=    45 NBB=    21.
 MP4(R+Q)= -0.51208099D-01
 Maximum subspace dimension=  5
 A-vector RMS=  5.3015056D-04 Max=  5.7972758D-03 conv= 1.00D-05.
 RLE energy=       -0.7676451750
 E3=        0.58274160D-01        EROMP3=      -0.12400572654D+03
 E4(SDQ)=  -0.39615517D-01        ROMP4(SDQ)=  -0.12404534205D+03
 VARIATIONAL ENERGIES WITH THE FIRST-ORDER WAVEFUNCTION:
 DE(Corr)= -0.76757325     E(Corr)=     -124.05657335    
 NORM(A)=   0.10621744D+01
 Iteration Nr.   2
 **********************
 DD1Dir will call FoFMem   1 times, MxPair=       206
 NAB=    70 NAA=    45 NBB=    21.
 A-vector RMS=  4.4520321D-03 Max=  4.0622644D-02 conv= 1.00D-05.
 RLE energy=       -0.7536605908
 DE(Corr)= -0.70729927     E(CORR)=     -123.99629936     Delta= 6.03D-02
 NORM(A)=   0.10597145D+01
 Iteration Nr.   3
 **********************
 DD1Dir will call FoFMem   1 times, MxPair=       206
 NAB=    70 NAA=    45 NBB=    21.
 A-vector RMS=  3.2019999D-03 Max=  3.1192699D-02 conv= 1.00D-05.
 RLE energy=       -0.7517558840
 DE(Corr)= -0.71623523     E(CORR)=     -124.00523533     Delta=-8.94D-03
 NORM(A)=   0.10627060D+01
 Iteration Nr.   4
 **********************
 DD1Dir will call FoFMem   1 times, MxPair=       206
 NAB=    70 NAA=    45 NBB=    21.
 A-vector RMS=  3.0105377D-03 Max=  3.3265959D-02 conv= 1.00D-05.
 RLE energy=       -0.7356987943
 DE(Corr)= -0.72224681     E(CORR)=     -124.01124690     Delta=-6.01D-03
 NORM(A)=   0.10872686D+01
 Iteration Nr.   5
 **********************
 DD1Dir will call FoFMem   1 times, MxPair=       206
 NAB=    70 NAA=    45 NBB=    21.
 A-vector RMS=  1.3140616D-03 Max=  1.0423990D-02 conv= 1.00D-05.
 RLE energy=       -0.7467150408
 DE(Corr)= -0.74949753     E(CORR)=     -124.03849762     Delta=-2.73D-02
 NORM(A)=   0.10883208D+01
 Iteration Nr.   6
 **********************
 DD1Dir will call FoFMem   1 times, MxPair=       206
 NAB=    70 NAA=    45 NBB=    21.
 A-vector RMS=  1.1935165D-03 Max=  2.2257344D-02 conv= 1.00D-05.
 RLE energy=       -0.7445954127
 DE(Corr)= -0.73896556     E(CORR)=     -124.02796565     Delta= 1.05D-02
 NORM(A)=   0.11173747D+01
 Iteration Nr.   7
 **********************
 DD1Dir will call FoFMem   1 times, MxPair=       206
 NAB=    70 NAA=    45 NBB=    21.
 A-vector RMS=  6.8735730D-04 Max=  1.0108373D-02 conv= 1.00D-05.
 RLE energy=       -0.7453313462
 DE(Corr)= -0.74485678     E(CORR)=     -124.03385687     Delta=-5.89D-03
 NORM(A)=   0.11397204D+01
 Iteration Nr.   8
 **********************
 DD1Dir will call FoFMem   1 times, MxPair=       206
 NAB=    70 NAA=    45 NBB=    21.
 A-vector RMS=  6.2739384D-04 Max=  1.0170083D-02 conv= 1.00D-05.
 RLE energy=       -0.7461562526
 DE(Corr)= -0.74605828     E(CORR)=     -124.03505837     Delta=-1.20D-03
 NORM(A)=   0.11595754D+01
 Iteration Nr.   9
 **********************
 DD1Dir will call FoFMem   1 times, MxPair=       206
 NAB=    70 NAA=    45 NBB=    21.
 A-vector RMS=  3.9749536D-04 Max=  5.5489458D-03 conv= 1.00D-05.
 RLE energy=       -0.7467742653
 DE(Corr)= -0.74576104     E(CORR)=     -124.03476113     Delta= 2.97D-04
 NORM(A)=   0.11729510D+01
 Iteration Nr.  10
 **********************
 DD1Dir will call FoFMem   1 times, MxPair=       206
 NAB=    70 NAA=    45 NBB=    21.
 A-vector RMS=  2.7588663D-04 Max=  3.9081195D-03 conv= 1.00D-05.
 RLE energy=       -0.7460335451
 DE(Corr)= -0.74653363     E(CORR)=     -124.03553372     Delta=-7.73D-04
 NORM(A)=   0.11734973D+01
 Iteration Nr.  11
 **********************
 DD1Dir will call FoFMem   1 times, MxPair=       206
 NAB=    70 NAA=    45 NBB=    21.
 A-vector RMS=  1.6744976D-04 Max=  2.6268358D-03 conv= 1.00D-05.
 RLE energy=       -0.7466580157
 DE(Corr)= -0.74646816     E(CORR)=     -124.03546825     Delta= 6.55D-05
 NORM(A)=   0.11763536D+01
 Iteration Nr.  12
 **********************
 DD1Dir will call FoFMem   1 times, MxPair=       206
 NAB=    70 NAA=    45 NBB=    21.
 A-vector RMS=  1.5113076D-04 Max=  1.5629122D-03 conv= 1.00D-05.
 RLE energy=       -0.7463440442
 DE(Corr)= -0.74630875     E(CORR)=     -124.03530884     Delta= 1.59D-04
 NORM(A)=   0.11795751D+01
 Iteration Nr.  13
 **********************
 DD1Dir will call FoFMem   1 times, MxPair=       206
 NAB=    70 NAA=    45 NBB=    21.
 A-vector RMS=  1.4490442D-04 Max=  2.4428332D-03 conv= 1.00D-05.
 RLE energy=       -0.7465389935
 DE(Corr)= -0.74671347     E(CORR)=     -124.03571356     Delta=-4.05D-04
 NORM(A)=   0.11797240D+01
 Iteration Nr.  14
 **********************
 DD1Dir will call FoFMem   1 times, MxPair=       206
 NAB=    70 NAA=    45 NBB=    21.
 A-vector RMS=  1.2320509D-04 Max=  1.7337249D-03 conv= 1.00D-05.
 RLE energy=       -0.7467853394
 DE(Corr)= -0.74662580     E(CORR)=     -124.03562589     Delta= 8.77D-05
 NORM(A)=   0.11814555D+01
 Iteration Nr.  15
 **********************
 DD1Dir will call FoFMem   1 times, MxPair=       206
 NAB=    70 NAA=    45 NBB=    21.
 A-vector RMS=  7.1260373D-05 Max=  7.6368941D-04 conv= 1.00D-05.
 RLE energy=       -0.7466902032
 DE(Corr)= -0.74663824     E(CORR)=     -124.03563833     Delta=-1.24D-05
 NORM(A)=   0.11823543D+01
 Iteration Nr.  16
 **********************
 DD1Dir will call FoFMem   1 times, MxPair=       206
 NAB=    70 NAA=    45 NBB=    21.
 A-vector RMS=  4.2305286D-05 Max=  4.8123289D-04 conv= 1.00D-05.
 RLE energy=       -0.7467906698
 DE(Corr)= -0.74682189     E(CORR)=     -124.03582198     Delta=-1.84D-04
 NORM(A)=   0.11825828D+01
 Iteration Nr.  17
 **********************
 DD1Dir will call FoFMem   1 times, MxPair=       206
 NAB=    70 NAA=    45 NBB=    21.
 A-vector RMS=  3.6500618D-05 Max=  4.7948409D-04 conv= 1.00D-05.
 RLE energy=       -0.7468240050
 DE(Corr)= -0.74678055     E(CORR)=     -124.03578064     Delta= 4.13D-05
 NORM(A)=   0.11830767D+01
 Iteration Nr.  18
 **********************
 DD1Dir will call FoFMem   1 times, MxPair=       206
 NAB=    70 NAA=    45 NBB=    21.
 A-vector RMS=  2.0912562D-05 Max=  2.9279367D-04 conv= 1.00D-05.
 RLE energy=       -0.7468071361
 DE(Corr)= -0.74680852     E(CORR)=     -124.03580861     Delta=-2.80D-05
 NORM(A)=   0.11834586D+01
 Iteration Nr.  19
 **********************
 DD1Dir will call FoFMem   1 times, MxPair=       206
 NAB=    70 NAA=    45 NBB=    21.
 A-vector RMS=  1.2586112D-05 Max=  1.2816095D-04 conv= 1.00D-05.
 RLE energy=       -0.7468415287
 DE(Corr)= -0.74685675     E(CORR)=     -124.03585684     Delta=-4.82D-05
 NORM(A)=   0.11836740D+01
 Iteration Nr.  20
 **********************
 DD1Dir will call FoFMem   1 times, MxPair=       206
 NAB=    70 NAA=    45 NBB=    21.
 A-vector RMS=  1.2356098D-05 Max=  2.0156401D-04 conv= 1.00D-05.
 RLE energy=       -0.7468622738
 DE(Corr)= -0.74684744     E(CORR)=     -124.03584753     Delta= 9.31D-06
 NORM(A)=   0.11839600D+01
 Iteration Nr.  21
 **********************
 DD1Dir will call FoFMem   1 times, MxPair=       206
 NAB=    70 NAA=    45 NBB=    21.
 A-vector RMS=  9.0650314D-06 Max=  1.1065920D-04 conv= 1.00D-05.
 RLE energy=       -0.7468557420
 DE(Corr)= -0.74685468     E(CORR)=     -124.03585477     Delta=-7.24D-06
 NORM(A)=   0.11841929D+01
 Iteration Nr.  22
 **********************
 DD1Dir will call FoFMem   1 times, MxPair=       206
 NAB=    70 NAA=    45 NBB=    21.
 A-vector RMS=  5.2334720D-06 Max=  5.0252539D-05 conv= 1.00D-05.
 RLE energy=       -0.7468736503
 DE(Corr)= -0.74687178     E(CORR)=     -124.03587187     Delta=-1.71D-05
 NORM(A)=   0.11843533D+01
 Iteration Nr.  23
 **********************
 DD1Dir will call FoFMem   1 times, MxPair=       206
 NAB=    70 NAA=    45 NBB=    21.
 A-vector RMS=  6.0185880D-06 Max=  8.1084941D-05 conv= 1.00D-05.
 RLE energy=       -0.7468731342
 DE(Corr)= -0.74686526     E(CORR)=     -124.03586535     Delta= 6.52D-06
 NORM(A)=   0.11844751D+01
 Iteration Nr.  24
 **********************
 DD1Dir will call FoFMem   1 times, MxPair=       206
 NAB=    70 NAA=    45 NBB=    21.
 A-vector RMS=  2.7150262D-06 Max=  3.3220253D-05 conv= 1.00D-05.
 RLE energy=       -0.7468702085
 DE(Corr)= -0.74687166     E(CORR)=     -124.03587176     Delta=-6.41D-06
 NORM(A)=   0.11845353D+01
 Iteration Nr.  25
 **********************
 DD1Dir will call FoFMem   1 times, MxPair=       206
 NAB=    70 NAA=    45 NBB=    21.
 A-vector RMS=  1.9851465D-06 Max=  2.5068500D-05 conv= 1.00D-05.
 RLE energy=       -0.7468737892
 DE(Corr)= -0.74687447     E(CORR)=     -124.03587456     Delta=-2.80D-06
 NORM(A)=   0.11845543D+01
 Iteration Nr.  26
 **********************
 DD1Dir will call FoFMem   1 times, MxPair=       206
 NAB=    70 NAA=    45 NBB=    21.
 A-vector RMS=  1.2558405D-06 Max=  2.1007894D-05 conv= 1.00D-05.
 RLE energy=       -0.7468733398
 DE(Corr)= -0.74687189     E(CORR)=     -124.03587198     Delta= 2.58D-06
 NORM(A)=   0.11845579D+01
 Iteration Nr.  27
 **********************
 DD1Dir will call FoFMem   1 times, MxPair=       206
 NAB=    70 NAA=    45 NBB=    21.
 A-vector RMS=  7.8083993D-07 Max=  7.5910020D-06 conv= 1.00D-05.
 RLE energy=       -0.7468717409
 DE(Corr)= -0.74687190     E(CORR)=     -124.03587199     Delta=-1.02D-08
 NORM(A)=   0.11845624D+01
 CI/CC converged in   27 iterations to DelEn=-1.02D-08 Conv= 1.00D-07 ErrA1= 7.81D-07 Conv= 1.00D-05
 Wavefunction amplitudes converged. E(Corr)=     -124.03587199    
 Dominant configurations:
 ***********************
 Spin Case        I    J    A    B          Value
    BB            5         8           -0.107199D+00
    BB            5        12           -0.102629D+00
    BB            7         8           -0.289989D+00
    BB            7        12           -0.280527D+00
    BB            7        21            0.158023D+00
 Largest amplitude= 2.90D-01
 Time for triples=    14599.87 seconds.
 T4(CCSD)= -0.38299058D-01
 T5(CCSD)=  0.96627656D-02
 CCSD(T)= -0.12406450828D+03
 Discarding MO integrals.
 Leave Link  913 at Sat Mar 24 00:38:00 2018, MaxMem= 10737418240 cpu:           22250.6 elap:             695.9
 (Enter /home1/apps/gaussian/16rA.03/g16/l601.exe)
 Copying SCF densities to generalized density rwf, IOpCl= 0 IROHF=1.

 **********************************************************************

            Population analysis using the SCF density.

 **********************************************************************

 Orbital symmetries:
       Occupied  (SG) (SG) (PI) (PI) (SG) (?A) (SG) (PI) (PI) (?A)
       Virtual   (SG) (PI) (PI) (SG) (SG) (PI) (PI) (SG) (DLTA)
                 (DLTA) (PI) (PI) (SG) (SG) (SG) (PI) (PI) (SG)
                 (PI) (PI) (?A) (?A) (SG) (PI) (PI) (SG) (SG) (SG)
                 (DLTA) (DLTA) (PI) (PI) (SG) (PHI) (PHI) (PI)
                 (PI) (SG) (PI) (PI) (?A) (?A) (PI) (PI) (SG) (?A)
                 (?A) (SG) (PI) (PI) (SG) (SG) (SG) (?B) (?B) (?B)
                 (?B) (DLTA) (?B) (?B) (DLTA) (SG) (SG) (PI) (PI)
                 (SG) (DLTA) (DLTA) (DLTA) (DLTA) (PHI) (PHI) (?C)
                 (?C) (PI) (PI) (DLTA) (DLTA) (SG) (PI) (PI) (PI)
                 (PI) (SG) (SG) (SG) (?D) (?D) (DLTA) (DLTA) (PI)
                 (PI) (SG) (DLTA) (DLTA) (?D) (?D) (PI) (PI) (SG)
                 (SG) (?D) (?D) (?E) (?E) (DLTA) (DLTA) (?D) (?D)
                 (?E) (SG) (SG) (DLTA) (DLTA) (PI) (PI) (SG) (PI)
                 (PI) (SG) (?D) (?D) (DLTA) (DLTA) (?D) (?D) (SG)
                 (?D) (?D) (?F) (?F) (DLTA) (DLTA) (?D) (?D) (?F)
                 (SG) (DLTA) (DLTA) (PI) (PI) (SG) (PI) (PI) (SG)
                 (DLTA) (DLTA) (PI) (PI) (SG) (SG) (SG) (PI) (PI)
                 (SG) (SG) (DLTA) (DLTA) (PI) (PI) (SG) (PI) (PI)
                 (SG) (SG) (PI) (PI) (SG) (SG) (DLTA) (DLTA) (PI)
                 (PI) (SG) (PI) (PI) (SG) (SG) (PI) (PI) (SG) (SG)
                 (PI) (PI) (SG) (SG) (PI) (PI) (SG) (SG) (PI) (PI)
                 (SG) (SG) (SG) (PI) (PI) (SG) (SG) (SG) (SG) (SG)
 Unable to determine electronic state:  an orbital has unidentified symmetry.
 Alpha  occ. eigenvalues --   -4.17842  -2.80027  -2.79167  -2.79167  -0.50852
 Alpha  occ. eigenvalues --   -0.50852  -0.49804  -0.46390  -0.44862  -0.31644
 Alpha virt. eigenvalues --   -0.00244   0.02452   0.02452   0.03136   0.04308
 Alpha virt. eigenvalues --    0.08419   0.08419   0.09609   0.10262   0.10300
 Alpha virt. eigenvalues --    0.10382   0.10382   0.10668   0.17091   0.24134
 Alpha virt. eigenvalues --    0.27548   0.27548   0.29716   0.35455   0.35455
 Alpha virt. eigenvalues --    0.37253   0.37698   0.38918   0.39045   0.39045
 Alpha virt. eigenvalues --    0.48368   0.62246   0.70126   0.87574   0.87710
 Alpha virt. eigenvalues --    0.91041   0.91041   0.96665   0.99721   0.99721
 Alpha virt. eigenvalues --    1.00567   1.00567   1.10800   1.13445   1.13445
 Alpha virt. eigenvalues --    1.14403   1.15080   1.16697   1.16697   1.18416
 Alpha virt. eigenvalues --    1.25105   1.26262   1.56766   1.78366   1.78366
 Alpha virt. eigenvalues --    1.96278   2.10203   2.70989   2.87991   2.87991
 Alpha virt. eigenvalues --    2.93051   2.93378   2.93378   2.94570   2.96040
 Alpha virt. eigenvalues --    2.96040   2.97251   3.25687   3.33179   3.33179
 Alpha virt. eigenvalues --    3.40061   3.40356   3.42653   3.50752   3.51843
 Alpha virt. eigenvalues --    3.52540   3.52540   3.54302   3.54307   3.81794
 Alpha virt. eigenvalues --    3.81794   4.11890   4.12138   4.15951   4.44469
 Alpha virt. eigenvalues --    4.44469   4.87785   4.87785   5.08446   5.51870
 Alpha virt. eigenvalues --    6.20402   7.72834   7.74469   7.74469   7.75688
 Alpha virt. eigenvalues --    7.83360   7.83360   7.87627   7.88478   7.91612
 Alpha virt. eigenvalues --    7.94617   7.94617   8.12090   8.12090   8.18865
 Alpha virt. eigenvalues --    8.88159  10.00839  10.00839  10.03941  10.03962
 Alpha virt. eigenvalues --   10.04872  10.07116  10.30851  10.30851  10.33844
 Alpha virt. eigenvalues --   10.80094  13.54760  15.82094  15.85590  15.88983
 Alpha virt. eigenvalues --   15.88983  16.03766  18.66481  18.66481  19.11996
 Alpha virt. eigenvalues --   20.39494  20.41583  20.41583  20.42350  20.49064
 Alpha virt. eigenvalues --   20.49064  20.84559  26.11719  26.11719  26.13537
 Alpha virt. eigenvalues --   26.14790  26.14841  26.16249  26.29070  26.29070
 Alpha virt. eigenvalues --   26.40902  28.00699  29.49352  29.53138  29.56155
 Alpha virt. eigenvalues --   29.56155  29.71864  38.28177  38.28177  38.87589
 Alpha virt. eigenvalues --   54.27045  54.30486  54.33626  54.33626  54.46568
 Alpha virt. eigenvalues --   57.02220  64.07178  74.64522  74.64522  75.39385
 Alpha virt. eigenvalues --  119.04520 124.60964 124.62861 124.66337 124.66337
 Alpha virt. eigenvalues --  124.75230 145.00081 145.00081 145.75198 227.26498
 Alpha virt. eigenvalues --  278.89239 278.89239 279.57824 401.50265 431.37711
 Alpha virt. eigenvalues --  431.38159 431.41146 431.41146 431.46901 540.97468
 Alpha virt. eigenvalues --  540.97468 541.62509 742.069901092.725911092.72591
 Alpha virt. eigenvalues -- 1093.329641458.485482366.578312366.578312367.12252
 Alpha virt. eigenvalues -- 3055.876895672.678335672.678335673.150796847.17179
 Alpha virt. eigenvalues -- **************************************************
 Alpha virt. eigenvalues -- **************************************************
 Alpha virt. eigenvalues -- ********************
     Molecular Orbital Coefficients:
                           3         4         5         6         7
                           O         O         O         O         O
     Eigenvalues --    -2.79167  -2.79167  -0.50852  -0.50852  -0.49804
   1 1   Fe 1S          0.00000   0.00000   0.00000   0.00000  -0.00000
   2        2S          0.00000   0.00000  -0.00000   0.00000   0.00000
   3        3S          0.00000   0.00000   0.00000   0.00000  -0.00000
   4        4S          0.00000   0.00000  -0.00000   0.00000   0.00000
   5        5S          0.00000   0.00000   0.00000   0.00000  -0.00000
   6        6S          0.00000   0.00000  -0.00000   0.00000   0.00000
   7        7S          0.00000   0.00000   0.00000   0.00000  -0.00001
   8        8S          0.00000   0.00000  -0.00001   0.00000   0.00003
   9        9S          0.00000   0.00000   0.00004   0.00000  -0.00009
  10       10S          0.00000   0.00000  -0.00014   0.00000   0.00029
  11       11S          0.00000   0.00000   0.00061   0.00000  -0.00128
  12       12S          0.00000   0.00000  -0.00392   0.00000   0.00837
  13       13S          0.00000   0.00000   0.00565   0.00000  -0.01189
  14       14S          0.00000   0.00000   0.02511   0.00000  -0.05803
  15       15S          0.00000   0.00000  -0.02520   0.00000   0.04251
  16       16S          0.00000   0.00000  -0.04235   0.00000   0.15221
  17       17S          0.00000   0.00000  -0.05282   0.00000   0.16180
  18       18S          0.00000   0.00000   0.02398   0.00000  -0.19520
  19       19S          0.00000   0.00000   0.03217   0.00000  -0.26417
  20       20S          0.00000   0.00000   0.00685   0.00000  -0.10716
  21       21S          0.00000   0.00000   0.01297   0.00000  -0.01768
  22       22S          0.00000   0.00000  -0.03471   0.00000   0.00586
  23       23S          0.00000   0.00000  -0.00737   0.00000   0.01350
  24       24PX         0.00000   0.00000   0.00000   0.00000   0.00000
  25       24PY         0.00000   0.00000   0.00000   0.00000   0.00000
  26       24PZ         0.00000   0.00000   0.00000   0.00000  -0.00000
  27       25PX        -0.00000   0.00000   0.00000   0.00000   0.00000
  28       25PY         0.00000  -0.00000   0.00000   0.00000   0.00000
  29       25PZ         0.00000   0.00000  -0.00000   0.00000   0.00000
  30       26PX         0.00002   0.00000   0.00000   0.00000   0.00000
  31       26PY         0.00000   0.00002   0.00000   0.00000   0.00000
  32       26PZ         0.00000   0.00000   0.00000   0.00000  -0.00000
  33       27PX        -0.00007   0.00000   0.00000   0.00000   0.00000
  34       27PY         0.00000  -0.00007   0.00000   0.00000   0.00000
  35       27PZ         0.00000   0.00000  -0.00001   0.00000   0.00000
  36       28PX         0.00028   0.00000   0.00000   0.00000   0.00000
  37       28PY         0.00000   0.00028   0.00000   0.00000   0.00000
  38       28PZ         0.00000   0.00000   0.00003   0.00000  -0.00002
  39       29PX        -0.00113   0.00000   0.00000   0.00000   0.00000
  40       29PY         0.00000  -0.00113   0.00000   0.00000   0.00000
  41       29PZ         0.00000   0.00000  -0.00011   0.00000   0.00007
  42       30PX         0.00591   0.00000   0.00000   0.00000   0.00000
  43       30PY         0.00000   0.00591   0.00000   0.00000   0.00000
  44       30PZ         0.00000   0.00000   0.00058   0.00000  -0.00039
  45       31PX        -0.02014   0.00000   0.00000   0.00000   0.00000
  46       31PY         0.00000  -0.02014   0.00000   0.00000   0.00000
  47       31PZ         0.00000   0.00000  -0.00202   0.00000   0.00136
  48       32PX        -0.06244   0.00000   0.00000   0.00000   0.00000
  49       32PY         0.00000  -0.06244   0.00000   0.00000   0.00000
  50       32PZ         0.00000   0.00000  -0.00501   0.00000   0.00489
  51       33PX         0.05520   0.00000   0.00000   0.00000   0.00000
  52       33PY         0.00000   0.05520   0.00000   0.00000   0.00000
  53       33PZ         0.00000   0.00000   0.01474   0.00000  -0.00201
  54       34PX         0.31998   0.00000   0.00000   0.00000   0.00000
  55       34PY         0.00000   0.31998   0.00000   0.00000   0.00000
  56       34PZ         0.00000   0.00000   0.02937   0.00000  -0.02461
  57       35PX         0.23329   0.00000   0.00000   0.00000   0.00000
  58       35PY         0.00000   0.23329   0.00000   0.00000   0.00000
  59       35PZ         0.00000   0.00000   0.04763   0.00000   0.00468
  60       36PX         0.28873   0.00000   0.00000   0.00000   0.00000
  61       36PY         0.00000   0.28873   0.00000   0.00000   0.00000
  62       36PZ         0.00000   0.00000   0.02416   0.00000  -0.02777
  63       37PX         0.04501   0.00000   0.00000   0.00000   0.00000
  64       37PY         0.00000   0.04501   0.00000   0.00000   0.00000
  65       37PZ         0.00000   0.00000  -0.02204   0.00000   0.03271
  66       38PX        -0.00204   0.00000   0.00000   0.00000   0.00000
  67       38PY         0.00000  -0.00204   0.00000   0.00000   0.00000
  68       38PZ         0.00000   0.00000  -0.04256   0.00000   0.01526
  69       39PX         0.00149   0.00000   0.00000   0.00000   0.00000
  70       39PY         0.00000   0.00149   0.00000   0.00000   0.00000
  71       39PZ         0.00000   0.00000  -0.01157   0.00000   0.00517
  72       40PX        -0.01635   0.00000   0.00000   0.00000   0.00000
  73       40PY         0.00000  -0.01635   0.00000   0.00000   0.00000
  74       40PZ         0.00000   0.00000  -0.00991   0.00000  -0.00134
  75       41PX         0.21949   0.00000   0.00000   0.00000   0.00000
  76       41PY         0.00000   0.21949   0.00000   0.00000   0.00000
  77       41PZ         0.00000   0.00000   0.00238   0.00000  -0.03947
  78       42PX        -0.00044   0.00000   0.00000   0.00000   0.00000
  79       42PY         0.00000  -0.00044   0.00000   0.00000   0.00000
  80       42PZ         0.00000   0.00000   0.00396   0.00000  -0.00278
  81       43D 0        0.00000   0.00000  -0.00025   0.00000  -0.00024
  82       43D+1       -0.00000   0.00000   0.00000   0.00000   0.00000
  83       43D-1        0.00000  -0.00000   0.00000   0.00000   0.00000
  84       43D+2        0.00000   0.00000  -0.00000   0.00000  -0.00000
  85       43D-2        0.00000   0.00000   0.00000  -0.00038   0.00000
  86       44D 0        0.00000   0.00000   0.00800   0.00000   0.00758
  87       44D+1        0.00006   0.00000   0.00000   0.00000   0.00000
  88       44D-1        0.00000   0.00006   0.00000   0.00000   0.00000
  89       44D+2        0.00000   0.00000   0.00000   0.00000   0.00000
  90       44D-2        0.00000   0.00000   0.00000   0.01224   0.00000
  91       45D 0        0.00000   0.00000   0.06688   0.00000   0.06352
  92       45D+1        0.00048   0.00000   0.00000   0.00000   0.00000
  93       45D-1        0.00000   0.00048   0.00000   0.00000   0.00000
  94       45D+2        0.00000   0.00000   0.00000   0.00000   0.00000
  95       45D-2        0.00000   0.00000   0.00000   0.10271   0.00000
  96       46D 0        0.00000   0.00000   0.12185   0.00000   0.11091
  97       46D+1        0.00144   0.00000   0.00000   0.00000   0.00000
  98       46D-1        0.00000   0.00144   0.00000   0.00000   0.00000
  99       46D+2        0.00000   0.00000   0.00000   0.00000   0.00000
 100       46D-2        0.00000   0.00000   0.00000   0.17815   0.00000
 101       47D 0        0.00000   0.00000   0.28821   0.00000   0.34881
 102       47D+1       -0.00201   0.00000   0.00000   0.00000   0.00000
 103       47D-1        0.00000  -0.00201   0.00000   0.00000   0.00000
 104       47D+2        0.00000   0.00000   0.00000   0.00000   0.00000
 105       47D-2        0.00000   0.00000   0.00000   0.57748   0.00000
 106       48D 0        0.00000   0.00000   0.24445   0.00000   0.22369
 107       48D+1        0.00418   0.00000   0.00000   0.00000   0.00000
 108       48D-1        0.00000   0.00418   0.00000   0.00000   0.00000
 109       48D+2        0.00000   0.00000   0.00000   0.00000   0.00000
 110       48D-2        0.00000   0.00000   0.00000   0.35394   0.00000
 111       49D 0        0.00000   0.00000   0.17927   0.00000   0.16621
 112       49D+1        0.00167   0.00000   0.00000   0.00000   0.00000
 113       49D-1        0.00000   0.00167   0.00000   0.00000   0.00000
 114       49D+2        0.00000   0.00000   0.00000   0.00000   0.00000
 115       49D-2        0.00000   0.00000   0.00000   0.25839   0.00000
 116       50D 0        0.00000   0.00000   0.05887   0.00000   0.07778
 117       50D+1       -0.00007   0.00000   0.00000   0.00000   0.00000
 118       50D-1        0.00000  -0.00007   0.00000   0.00000   0.00000
 119       50D+2        0.00000   0.00000   0.00000   0.00000   0.00000
 120       50D-2        0.00000   0.00000   0.00000   0.08166   0.00000
 121       51D 0        0.00000   0.00000   0.03358   0.00000   0.03787
 122       51D+1       -0.00043   0.00000   0.00000   0.00000   0.00000
 123       51D-1        0.00000  -0.00043   0.00000   0.00000   0.00000
 124       51D+2        0.00000   0.00000   0.00000   0.00000   0.00000
 125       51D-2        0.00000   0.00000   0.00000   0.06266   0.00000
 126       52D 0        0.00000   0.00000  -0.06575   0.00000  -0.13749
 127       52D+1        0.00393   0.00000   0.00000   0.00000   0.00000
 128       52D-1        0.00000   0.00393   0.00000   0.00000   0.00000
 129       52D+2        0.00000   0.00000  -0.00000   0.00000  -0.00000
 130       52D-2        0.00000   0.00000   0.00000  -0.23747   0.00000
 131       53D 0        0.00000   0.00000  -0.00092   0.00000   0.00379
 132       53D+1        0.00004   0.00000   0.00000   0.00000   0.00000
 133       53D-1        0.00000   0.00004   0.00000   0.00000   0.00000
 134       53D+2        0.00000   0.00000   0.00000   0.00000   0.00000
 135       53D-2        0.00000   0.00000   0.00000  -0.00195   0.00000
 136       54F 0        0.00000   0.00000  -0.00008   0.00000   0.00034
 137       54F+1       -0.00059   0.00000   0.00000   0.00000   0.00000
 138       54F-1        0.00000  -0.00059   0.00000   0.00000   0.00000
 139       54F+2        0.00000   0.00000   0.00000   0.00000  -0.00000
 140       54F-2        0.00000   0.00000   0.00000   0.00025   0.00000
 141       54F+3       -0.00119   0.00000   0.00000   0.00000   0.00000
 142       54F-3        0.00000   0.00119   0.00000   0.00000   0.00000
 143       55F 0        0.00000   0.00000  -0.00024   0.00000   0.00138
 144       55F+1       -0.00091   0.00000   0.00000   0.00000   0.00000
 145       55F-1        0.00000  -0.00091   0.00000   0.00000   0.00000
 146       55F+2        0.00000   0.00000   0.00000   0.00000  -0.00000
 147       55F-2        0.00000   0.00000   0.00000   0.00097   0.00000
 148       55F+3       -0.00260   0.00000   0.00000   0.00000   0.00000
 149       55F-3        0.00000   0.00260   0.00000   0.00000   0.00000
 150       56F 0        0.00000   0.00000  -0.00326   0.00000   0.00631
 151       56F+1       -0.00141   0.00000   0.00000   0.00000   0.00000
 152       56F-1        0.00000  -0.00141   0.00000   0.00000   0.00000
 153       56F+2        0.00000   0.00000   0.00000   0.00000  -0.00000
 154       56F-2        0.00000   0.00000   0.00000   0.00408   0.00000
 155       56F+3       -0.00324   0.00000   0.00000   0.00000   0.00000
 156       56F-3        0.00000   0.00324   0.00000   0.00000   0.00000
 157       57F 0        0.00000   0.00000   0.00464   0.00000   0.01290
 158       57F+1       -0.00089   0.00000   0.00000   0.00000   0.00000
 159       57F-1        0.00000  -0.00089   0.00000   0.00000   0.00000
 160       57F+2        0.00000   0.00000   0.00000   0.00000   0.00000
 161       57F-2        0.00000   0.00000   0.00000   0.00925   0.00000
 162       57F+3       -0.00091   0.00000   0.00000   0.00000   0.00000
 163       57F-3        0.00000   0.00091   0.00000   0.00000   0.00000
 164       58G 0        0.00000   0.00000   0.00007   0.00000   0.00004
 165       58G+1       -0.00003   0.00000   0.00000   0.00000   0.00000
 166       58G-1        0.00000  -0.00003   0.00000   0.00000   0.00000
 167       58G+2        0.00000   0.00000   0.00000   0.00000   0.00000
 168       58G-2        0.00000   0.00000   0.00000  -0.00009   0.00000
 169       58G+3       -0.00000   0.00000   0.00000   0.00000   0.00000
 170       58G-3        0.00000   0.00000   0.00000   0.00000   0.00000
 171       58G+4        0.00000   0.00000   0.00008   0.00000   0.00009
 172       58G-4        0.00000   0.00000   0.00000   0.00000   0.00000
 173       59G 0        0.00000   0.00000   0.00079   0.00000   0.00016
 174       59G+1        0.00004   0.00000   0.00000   0.00000   0.00000
 175       59G-1        0.00000   0.00004   0.00000   0.00000   0.00000
 176       59G+2        0.00000   0.00000   0.00000   0.00000   0.00000
 177       59G-2        0.00000   0.00000   0.00000   0.00002   0.00000
 178       59G+3       -0.00001   0.00000   0.00000   0.00000   0.00000
 179       59G-3        0.00000   0.00001   0.00000   0.00000   0.00000
 180       59G+4        0.00000   0.00000   0.00011   0.00000   0.00023
 181       59G-4        0.00000   0.00000   0.00000   0.00000   0.00000
 182       60G 0        0.00000   0.00000   0.00314   0.00000   0.00049
 183       60G+1       -0.00009   0.00000   0.00000   0.00000   0.00000
 184       60G-1        0.00000  -0.00009   0.00000   0.00000   0.00000
 185       60G+2        0.00000   0.00000   0.00000   0.00000   0.00000
 186       60G-2        0.00000   0.00000   0.00000   0.00049   0.00000
 187       60G+3       -0.00006   0.00000   0.00000   0.00000   0.00000
 188       60G-3        0.00000   0.00006   0.00000   0.00000   0.00000
 189       60G+4        0.00000   0.00000   0.00040   0.00000   0.00034
 190       60G-4        0.00000   0.00000   0.00000   0.00000   0.00000
 191 2   H  1S          0.00000   0.00000   0.00301   0.00000  -0.00157
 192        2S          0.00000   0.00000   0.03239   0.00000  -0.01713
 193        3S          0.00000   0.00000   0.12581   0.00000  -0.06631
 194        4S          0.00000   0.00000   0.28996   0.00000  -0.16243
 195        5S          0.00000   0.00000   0.19783   0.00000  -0.22962
 196        6S          0.00000   0.00000   0.02194   0.00000  -0.03963
 197        7PX         0.00029   0.00000   0.00000   0.00000   0.00000
 198        7PY         0.00000   0.00029   0.00000   0.00000   0.00000
 199        7PZ         0.00000   0.00000   0.00829   0.00000   0.00187
 200        8PX         0.00039   0.00000   0.00000   0.00000   0.00000
 201        8PY         0.00000   0.00039   0.00000   0.00000   0.00000
 202        8PZ         0.00000   0.00000   0.02550   0.00000  -0.00406
 203        9PX         0.00006   0.00000   0.00000   0.00000   0.00000
 204        9PY         0.00000   0.00006   0.00000   0.00000   0.00000
 205        9PZ         0.00000   0.00000   0.01466   0.00000  -0.00564
 206       10D 0        0.00000   0.00000   0.00315   0.00000   0.00102
 207       10D+1        0.00028   0.00000   0.00000   0.00000   0.00000
 208       10D-1        0.00000   0.00028   0.00000   0.00000   0.00000
 209       10D+2        0.00000   0.00000   0.00000   0.00000   0.00000
 210       10D-2        0.00000   0.00000   0.00000   0.00058   0.00000
 211       11D 0        0.00000   0.00000   0.00157   0.00000   0.00085
 212       11D+1       -0.00007   0.00000   0.00000   0.00000   0.00000
 213       11D-1        0.00000  -0.00007   0.00000   0.00000   0.00000
 214       11D+2        0.00000   0.00000   0.00000   0.00000   0.00000
 215       11D-2        0.00000   0.00000   0.00000   0.00009   0.00000
                           8         9        10        11        12
                           O         O         O         V         V
     Eigenvalues --    -0.46390  -0.44862  -0.31644  -0.00244   0.02452
   1 1   Fe 1S          0.00000   0.00000  -0.00000   0.00000   0.00000
   2        2S          0.00000   0.00000   0.00000  -0.00000   0.00000
   3        3S          0.00000   0.00000  -0.00000   0.00000   0.00000
   4        4S          0.00000   0.00000   0.00000  -0.00000   0.00000
   5        5S          0.00000   0.00000  -0.00000   0.00000   0.00000
   6        6S          0.00000   0.00000   0.00000  -0.00000   0.00000
   7        7S          0.00000   0.00000  -0.00000   0.00000   0.00000
   8        8S          0.00000   0.00000   0.00000  -0.00001   0.00000
   9        9S          0.00000   0.00000  -0.00000   0.00004   0.00000
  10       10S          0.00000   0.00000   0.00000  -0.00013   0.00000
  11       11S          0.00000   0.00000   0.00000   0.00045   0.00000
  12       12S          0.00000   0.00000  -0.00000  -0.00236   0.00000
  13       13S          0.00000   0.00000   0.00000   0.00429   0.00000
  14       14S          0.00000   0.00000   0.00000   0.00402   0.00000
  15       15S          0.00000   0.00000   0.00000  -0.04536   0.00000
  16       16S          0.00000   0.00000  -0.00000   0.04960   0.00000
  17       17S          0.00000   0.00000  -0.00000  -0.00155   0.00000
  18       18S          0.00000   0.00000   0.00000  -0.10905   0.00000
  19       19S          0.00000   0.00000  -0.00000   0.63517   0.00000
  20       20S          0.00000   0.00000   0.00000  -0.55266   0.00000
  21       21S          0.00000   0.00000  -0.00000   0.03233   0.00000
  22       22S          0.00000   0.00000   0.00000  -0.09243   0.00000
  23       23S          0.00000   0.00000  -0.00000   0.91738   0.00000
  24       24PX        -0.00000   0.00000   0.00000   0.00000  -0.00000
  25       24PY         0.00000  -0.00000   0.00000   0.00000   0.00000
  26       24PZ         0.00000   0.00000  -0.00000  -0.00000   0.00000
  27       25PX         0.00000   0.00000   0.00000   0.00000   0.00000
  28       25PY         0.00000   0.00000   0.00000   0.00000   0.00000
  29       25PZ         0.00000   0.00000   0.00000   0.00000   0.00000
  30       26PX        -0.00000   0.00000   0.00000   0.00000  -0.00000
  31       26PY         0.00000  -0.00000   0.00000   0.00000   0.00000
  32       26PZ         0.00000   0.00000  -0.00000  -0.00000   0.00000
  33       27PX         0.00000   0.00000   0.00000   0.00000   0.00002
  34       27PY         0.00000   0.00000   0.00000   0.00000   0.00000
  35       27PZ         0.00000   0.00000   0.00000   0.00000   0.00000
  36       28PX        -0.00001   0.00000   0.00000   0.00000  -0.00006
  37       28PY         0.00000  -0.00001   0.00000   0.00000   0.00000
  38       28PZ         0.00000   0.00000  -0.00000  -0.00001   0.00000
  39       29PX         0.00002   0.00000   0.00000   0.00000   0.00021
  40       29PY         0.00000   0.00002   0.00000   0.00000   0.00000
  41       29PZ         0.00000   0.00000   0.00000   0.00006   0.00000
  42       30PX        -0.00011   0.00000   0.00000   0.00000  -0.00075
  43       30PY         0.00000  -0.00011   0.00000   0.00000   0.00000
  44       30PZ         0.00000   0.00000  -0.00000  -0.00038   0.00000
  45       31PX         0.00040   0.00000   0.00000   0.00000   0.00248
  46       31PY         0.00000   0.00040   0.00000   0.00000   0.00000
  47       31PZ         0.00000   0.00000   0.00000   0.00135   0.00000
  48       32PX         0.00117   0.00000   0.00000   0.00000  -0.00423
  49       32PY         0.00000   0.00117   0.00000   0.00000   0.00000
  50       32PZ         0.00000   0.00000  -0.00000   0.00608   0.00000
  51       33PX        -0.00243   0.00000   0.00000   0.00000  -0.07180
  52       33PY         0.00000  -0.00243   0.00000   0.00000   0.00000
  53       33PZ         0.00000   0.00000  -0.00000   0.00557   0.00000
  54       34PX        -0.00639   0.00000   0.00000   0.00000   0.00034
  55       34PY         0.00000  -0.00639   0.00000   0.00000   0.00000
  56       34PZ         0.00000   0.00000  -0.00000  -0.02971   0.00000
  57       35PX         0.00179   0.00000   0.00000   0.00000  -0.05923
  58       35PY         0.00000   0.00179   0.00000   0.00000   0.00000
  59       35PZ         0.00000   0.00000  -0.00000  -0.01280   0.00000
  60       36PX        -0.00299   0.00000   0.00000   0.00000   0.00893
  61       36PY         0.00000  -0.00299   0.00000   0.00000   0.00000
  62       36PZ         0.00000   0.00000   0.00000  -0.03457   0.00000
  63       37PX         0.01804   0.00000   0.00000   0.00000  -0.02924
  64       37PY         0.00000   0.01804   0.00000   0.00000   0.00000
  65       37PZ         0.00000   0.00000  -0.00000   0.04211   0.00000
  66       38PX         0.00924   0.00000   0.00000   0.00000   0.15540
  67       38PY         0.00000   0.00924   0.00000   0.00000   0.00000
  68       38PZ         0.00000   0.00000   0.00000  -0.02842   0.00000
  69       39PX        -0.00160   0.00000   0.00000   0.00000  -0.25525
  70       39PY         0.00000  -0.00160   0.00000   0.00000   0.00000
  71       39PZ         0.00000   0.00000  -0.00000   0.13145   0.00000
  72       40PX         0.00138   0.00000   0.00000   0.00000   0.06726
  73       40PY         0.00000   0.00138   0.00000   0.00000   0.00000
  74       40PZ         0.00000   0.00000   0.00000  -0.00885   0.00000
  75       41PX        -0.01210   0.00000   0.00000   0.00000   0.02234
  76       41PY         0.00000  -0.01210   0.00000   0.00000   0.00000
  77       41PZ         0.00000   0.00000   0.00000  -0.02374   0.00000
  78       42PX         0.00049   0.00000   0.00000   0.00000   1.11147
  79       42PY         0.00000   0.00049   0.00000   0.00000   0.00000
  80       42PZ         0.00000   0.00000  -0.00000   0.50982   0.00000
  81       43D 0        0.00000   0.00000   0.00000  -0.00006   0.00000
  82       43D+1       -0.00039   0.00000   0.00000   0.00000   0.00001
  83       43D-1        0.00000  -0.00039   0.00000   0.00000   0.00000
  84       43D+2        0.00000   0.00000  -0.00039  -0.00000   0.00000
  85       43D-2        0.00000   0.00000   0.00000   0.00000   0.00000
  86       44D 0        0.00000   0.00000  -0.00000   0.00188   0.00000
  87       44D+1        0.01253   0.00000   0.00000   0.00000  -0.00019
  88       44D-1        0.00000   0.01253   0.00000   0.00000   0.00000
  89       44D+2        0.00000   0.00000   0.01257   0.00000   0.00000
  90       44D-2        0.00000   0.00000   0.00000   0.00000   0.00000
  91       45D 0        0.00000   0.00000  -0.00000   0.01592   0.00000
  92       45D+1        0.10498   0.00000   0.00000   0.00000  -0.00141
  93       45D-1        0.00000   0.10498   0.00000   0.00000   0.00000
  94       45D+2        0.00000   0.00000   0.10540   0.00000   0.00000
  95       45D-2        0.00000   0.00000   0.00000   0.00000   0.00000
  96       46D 0        0.00000   0.00000  -0.00000   0.02519   0.00000
  97       46D+1        0.18527   0.00000   0.00000   0.00000  -0.00727
  98       46D-1        0.00000   0.18527   0.00000   0.00000   0.00000
  99       46D+2        0.00000   0.00000   0.18440   0.00000   0.00000
 100       46D-2        0.00000   0.00000   0.00000   0.00000   0.00000
 101       47D 0        0.00000   0.00000  -0.00000   0.11511   0.00000
 102       47D+1        0.56104   0.00000   0.00000   0.00000   0.04822
 103       47D-1        0.00000   0.56104   0.00000   0.00000   0.00000
 104       47D+2        0.00000   0.00000   0.58130   0.00000   0.00000
 105       47D-2        0.00000   0.00000   0.00000   0.00000   0.00000
 106       48D 0        0.00000   0.00000  -0.00000   0.05483   0.00000
 107       48D+1        0.36078   0.00000   0.00000   0.00000  -0.00786
 108       48D-1        0.00000   0.36078   0.00000   0.00000   0.00000
 109       48D+2        0.00000   0.00000   0.36057   0.00000   0.00000
 110       48D-2        0.00000   0.00000   0.00000   0.00000   0.00000
 111       49D 0        0.00000   0.00000  -0.00000   0.04144   0.00000
 112       49D+1        0.23570   0.00000   0.00000   0.00000  -0.00008
 113       49D-1        0.00000   0.23570   0.00000   0.00000   0.00000
 114       49D+2        0.00000   0.00000   0.23623   0.00000   0.00000
 115       49D-2        0.00000   0.00000   0.00000   0.00000   0.00000
 116       50D 0        0.00000   0.00000  -0.00000   0.09842   0.00000
 117       50D+1        0.05724   0.00000   0.00000   0.00000   0.00907
 118       50D-1        0.00000   0.05724   0.00000   0.00000   0.00000
 119       50D+2        0.00000   0.00000   0.05543  -0.00000   0.00000
 120       50D-2        0.00000   0.00000   0.00000   0.00000   0.00000
 121       51D 0        0.00000   0.00000  -0.00000   0.01265   0.00000
 122       51D+1        0.06117   0.00000   0.00000   0.00000   0.00499
 123       51D-1        0.00000   0.06117   0.00000   0.00000   0.00000
 124       51D+2        0.00000   0.00000   0.06333   0.00000   0.00000
 125       51D-2        0.00000   0.00000   0.00000   0.00000   0.00000
 126       52D 0        0.00000   0.00000   0.00000  -0.06240   0.00000
 127       52D+1       -0.21019   0.00000   0.00000   0.00000  -0.05335
 128       52D-1        0.00000  -0.21019   0.00000   0.00000   0.00000
 129       52D+2        0.00000   0.00000  -0.22957  -0.00000   0.00000
 130       52D-2        0.00000   0.00000   0.00000   0.00000   0.00000
 131       53D 0        0.00000   0.00000  -0.00000   0.06908   0.00000
 132       53D+1       -0.00201   0.00000   0.00000   0.00000   0.14318
 133       53D-1        0.00000  -0.00201   0.00000   0.00000   0.00000
 134       53D+2        0.00000   0.00000  -0.00257  -0.00000   0.00000
 135       53D-2        0.00000   0.00000   0.00000   0.00000   0.00000
 136       54F 0        0.00000   0.00000   0.00000   0.00014   0.00000
 137       54F+1        0.00024   0.00000   0.00000   0.00000  -0.00001
 138       54F-1        0.00000   0.00024   0.00000   0.00000   0.00000
 139       54F+2        0.00000   0.00000   0.00018   0.00000   0.00000
 140       54F-2        0.00000   0.00000   0.00000   0.00000   0.00000
 141       54F+3       -0.00001   0.00000   0.00000   0.00000  -0.00000
 142       54F-3        0.00000   0.00001   0.00000   0.00000   0.00000
 143       55F 0        0.00000   0.00000   0.00000   0.00001   0.00000
 144       55F+1        0.00111   0.00000   0.00000   0.00000  -0.00027
 145       55F-1        0.00000   0.00111   0.00000   0.00000   0.00000
 146       55F+2        0.00000   0.00000   0.00083   0.00000   0.00000
 147       55F-2        0.00000   0.00000   0.00000   0.00000   0.00000
 148       55F+3       -0.00004   0.00000   0.00000   0.00000  -0.00005
 149       55F-3        0.00000   0.00004   0.00000   0.00000   0.00000
 150       56F 0        0.00000   0.00000  -0.00000   0.00257   0.00000
 151       56F+1        0.00478   0.00000   0.00000   0.00000  -0.00008
 152       56F-1        0.00000   0.00478   0.00000   0.00000   0.00000
 153       56F+2        0.00000   0.00000   0.00435   0.00000   0.00000
 154       56F-2        0.00000   0.00000   0.00000   0.00000   0.00000
 155       56F+3        0.00002   0.00000   0.00000   0.00000  -0.00012
 156       56F-3        0.00000  -0.00002   0.00000   0.00000   0.00000
 157       57F 0        0.00000   0.00000  -0.00000   0.00282   0.00000
 158       57F+1        0.00776   0.00000   0.00000   0.00000  -0.00092
 159       57F-1        0.00000   0.00776   0.00000   0.00000   0.00000
 160       57F+2        0.00000   0.00000   0.00814   0.00000   0.00000
 161       57F-2        0.00000   0.00000   0.00000   0.00000   0.00000
 162       57F+3        0.00001   0.00000   0.00000   0.00000  -0.00019
 163       57F-3        0.00000  -0.00001   0.00000   0.00000   0.00000
 164       58G 0        0.00000   0.00000   0.00000  -0.00001   0.00000
 165       58G+1       -0.00006   0.00000   0.00000   0.00000  -0.00001
 166       58G-1        0.00000  -0.00006   0.00000   0.00000   0.00000
 167       58G+2        0.00000   0.00000   0.00039   0.00000   0.00000
 168       58G-2        0.00000   0.00000   0.00000   0.00000   0.00000
 169       58G+3        0.00030   0.00000   0.00000   0.00000  -0.00000
 170       58G-3        0.00000  -0.00030   0.00000   0.00000   0.00000
 171       58G+4        0.00000   0.00000   0.00000  -0.00002   0.00000
 172       58G-4        0.00000   0.00000   0.00000   0.00000   0.00000
 173       59G 0        0.00000   0.00000   0.00000   0.00007   0.00000
 174       59G+1        0.00003   0.00000   0.00000   0.00000   0.00004
 175       59G-1        0.00000   0.00003   0.00000   0.00000   0.00000
 176       59G+2        0.00000   0.00000   0.00113   0.00000   0.00000
 177       59G-2        0.00000   0.00000   0.00000   0.00000   0.00000
 178       59G+3        0.00076   0.00000   0.00000   0.00000  -0.00000
 179       59G-3        0.00000  -0.00076   0.00000   0.00000   0.00000
 180       59G+4        0.00000   0.00000   0.00000  -0.00007   0.00000
 181       59G-4        0.00000   0.00000   0.00000   0.00000   0.00000
 182       60G 0        0.00000   0.00000   0.00000  -0.00045   0.00000
 183       60G+1        0.00184   0.00000   0.00000   0.00000  -0.00033
 184       60G-1        0.00000   0.00184   0.00000   0.00000   0.00000
 185       60G+2        0.00000   0.00000   0.00195   0.00000   0.00000
 186       60G-2        0.00000   0.00000   0.00000   0.00000   0.00000
 187       60G+3        0.00071   0.00000   0.00000   0.00000  -0.00001
 188       60G-3        0.00000  -0.00071   0.00000   0.00000   0.00000
 189       60G+4        0.00000   0.00000   0.00000   0.00007   0.00000
 190       60G-4        0.00000   0.00000   0.00000   0.00000   0.00000
 191 2   H  1S          0.00000   0.00000  -0.00000  -0.00069   0.00000
 192        2S          0.00000   0.00000  -0.00000  -0.00705   0.00000
 193        3S          0.00000   0.00000  -0.00000  -0.03065   0.00000
 194        4S          0.00000   0.00000  -0.00000  -0.05883   0.00000
 195        5S          0.00000   0.00000  -0.00000  -0.38656   0.00000
 196        6S          0.00000   0.00000   0.00000   0.04994   0.00000
 197        7PX        -0.00307   0.00000   0.00000   0.00000   0.00206
 198        7PY         0.00000  -0.00307   0.00000   0.00000   0.00000
 199        7PZ         0.00000   0.00000  -0.00000   0.00116   0.00000
 200        8PX        -0.00794   0.00000   0.00000   0.00000  -0.00233
 201        8PY         0.00000  -0.00794   0.00000   0.00000   0.00000
 202        8PZ         0.00000   0.00000  -0.00000   0.00413   0.00000
 203        9PX         0.00377   0.00000   0.00000   0.00000   0.04856
 204        9PY         0.00000   0.00377   0.00000   0.00000   0.00000
 205        9PZ         0.00000   0.00000  -0.00000  -0.06659   0.00000
 206       10D 0        0.00000   0.00000  -0.00000   0.00057   0.00000
 207       10D+1       -0.00189   0.00000   0.00000   0.00000   0.00033
 208       10D-1        0.00000  -0.00189   0.00000   0.00000   0.00000
 209       10D+2        0.00000   0.00000   0.00047  -0.00000   0.00000
 210       10D-2        0.00000   0.00000   0.00000   0.00000   0.00000
 211       11D 0        0.00000   0.00000  -0.00000   0.00362   0.00000
 212       11D+1        0.00078   0.00000   0.00000   0.00000   0.00222
 213       11D-1        0.00000   0.00078   0.00000   0.00000   0.00000
 214       11D+2        0.00000   0.00000   0.00062   0.00000   0.00000
 215       11D-2        0.00000   0.00000   0.00000   0.00000   0.00000
                          13        14        15
                           V         V         V
     Eigenvalues --     0.02452   0.03136   0.04308
   1 1   Fe 1S          0.00000  -0.00000  -0.00000
   2        2S          0.00000   0.00000   0.00000
   3        3S          0.00000  -0.00000  -0.00000
   4        4S          0.00000   0.00000   0.00000
   5        5S          0.00000  -0.00000  -0.00000
   6        6S          0.00000   0.00000   0.00000
   7        7S          0.00000  -0.00000  -0.00001
   8        8S          0.00000   0.00000   0.00004
   9        9S          0.00000  -0.00001  -0.00011
  10       10S          0.00000   0.00001   0.00028
  11       11S          0.00000   0.00005  -0.00052
  12       12S          0.00000  -0.00091  -0.00025
  13       13S          0.00000   0.00043  -0.00541
  14       14S          0.00000   0.01730   0.07467
  15       15S          0.00000   0.02441   0.20224
  16       16S          0.00000  -0.08951  -0.56795
  17       17S          0.00000  -0.03715  -0.27905
  18       18S          0.00000  -0.16174   0.46126
  19       19S          0.00000  -0.62922  -2.41459
  20       20S          0.00000  -1.66511   4.50021
  21       21S          0.00000  -0.02205  -0.16320
  22       22S          0.00000   0.06485   0.57418
  23       23S          0.00000  -3.47978  -0.74825
  24       24PX         0.00000   0.00000   0.00000
  25       24PY        -0.00000   0.00000   0.00000
  26       24PZ         0.00000   0.00000  -0.00000
  27       25PX         0.00000   0.00000   0.00000
  28       25PY         0.00000   0.00000   0.00000
  29       25PZ         0.00000  -0.00000   0.00000
  30       26PX         0.00000   0.00000   0.00000
  31       26PY        -0.00000   0.00000   0.00000
  32       26PZ         0.00000   0.00000  -0.00000
  33       27PX         0.00000   0.00000   0.00000
  34       27PY         0.00002   0.00000   0.00000
  35       27PZ         0.00000  -0.00001   0.00001
  36       28PX         0.00000   0.00000   0.00000
  37       28PY        -0.00006   0.00000   0.00000
  38       28PZ         0.00000   0.00002  -0.00004
  39       29PX         0.00000   0.00000   0.00000
  40       29PY         0.00021   0.00000   0.00000
  41       29PZ         0.00000  -0.00008   0.00014
  42       30PX         0.00000   0.00000   0.00000
  43       30PY        -0.00075   0.00000   0.00000
  44       30PZ         0.00000   0.00023  -0.00064
  45       31PX         0.00000   0.00000   0.00000
  46       31PY         0.00248   0.00000   0.00000
  47       31PZ         0.00000  -0.00075   0.00221
  48       32PX         0.00000   0.00000   0.00000
  49       32PY        -0.00423   0.00000   0.00000
  50       32PZ         0.00000   0.00330   0.00362
  51       33PX         0.00000   0.00000   0.00000
  52       33PY        -0.07180   0.00000   0.00000
  53       33PZ         0.00000   0.03409  -0.02760
  54       34PX         0.00000   0.00000   0.00000
  55       34PY         0.00034   0.00000   0.00000
  56       34PZ         0.00000  -0.00835  -0.02394
  57       35PX         0.00000   0.00000   0.00000
  58       35PY        -0.05923   0.00000   0.00000
  59       35PZ         0.00000   0.01119   0.01004
  60       36PX         0.00000   0.00000   0.00000
  61       36PY         0.00893   0.00000   0.00000
  62       36PZ         0.00000  -0.01837  -0.02599
  63       37PX         0.00000   0.00000   0.00000
  64       37PY        -0.02924   0.00000   0.00000
  65       37PZ         0.00000   0.07528  -0.01099
  66       38PX         0.00000   0.00000   0.00000
  67       38PY         0.15540   0.00000   0.00000
  68       38PZ         0.00000   0.31432   0.68094
  69       39PX         0.00000   0.00000   0.00000
  70       39PY        -0.25525   0.00000   0.00000
  71       39PZ         0.00000   0.93525   0.31265
  72       40PX         0.00000   0.00000   0.00000
  73       40PY         0.06726   0.00000   0.00000
  74       40PZ         0.00000  -0.03258   0.02220
  75       41PX         0.00000   0.00000   0.00000
  76       41PY         0.02234   0.00000   0.00000
  77       41PZ         0.00000  -0.00233  -0.05802
  78       42PX         0.00000   0.00000   0.00000
  79       42PY         1.11147   0.00000   0.00000
  80       42PZ         0.00000   1.86072  -1.53353
  81       43D 0        0.00000   0.00001  -0.00005
  82       43D+1        0.00000   0.00000   0.00000
  83       43D-1        0.00001   0.00000   0.00000
  84       43D+2        0.00000   0.00000   0.00000
  85       43D-2        0.00000   0.00000   0.00000
  86       44D 0        0.00000  -0.00027   0.00170
  87       44D+1        0.00000   0.00000   0.00000
  88       44D-1       -0.00019   0.00000   0.00000
  89       44D+2        0.00000  -0.00000  -0.00000
  90       44D-2        0.00000   0.00000   0.00000
  91       45D 0        0.00000  -0.00268   0.01416
  92       45D+1        0.00000   0.00000   0.00000
  93       45D-1       -0.00141   0.00000   0.00000
  94       45D+2        0.00000  -0.00000  -0.00000
  95       45D-2        0.00000   0.00000   0.00000
  96       46D 0        0.00000   0.00461   0.02726
  97       46D+1        0.00000   0.00000   0.00000
  98       46D-1       -0.00727   0.00000   0.00000
  99       46D+2        0.00000  -0.00000  -0.00000
 100       46D-2        0.00000   0.00000   0.00000
 101       47D 0        0.00000  -0.12906   0.05132
 102       47D+1        0.00000   0.00000   0.00000
 103       47D-1        0.04822   0.00000   0.00000
 104       47D+2        0.00000  -0.00000  -0.00000
 105       47D-2        0.00000   0.00000   0.00000
 106       48D 0        0.00000  -0.00172   0.05024
 107       48D+1        0.00000   0.00000   0.00000
 108       48D-1       -0.00786   0.00000   0.00000
 109       48D+2        0.00000  -0.00000  -0.00000
 110       48D-2        0.00000   0.00000   0.00000
 111       49D 0        0.00000  -0.04226   0.04696
 112       49D+1        0.00000   0.00000   0.00000
 113       49D-1       -0.00008   0.00000   0.00000
 114       49D+2        0.00000  -0.00000  -0.00000
 115       49D-2        0.00000   0.00000   0.00000
 116       50D 0        0.00000  -0.06836  -0.16582
 117       50D+1        0.00000   0.00000   0.00000
 118       50D-1        0.00907   0.00000   0.00000
 119       50D+2        0.00000  -0.00000  -0.00000
 120       50D-2        0.00000   0.00000   0.00000
 121       51D 0        0.00000  -0.01292   0.00542
 122       51D+1        0.00000   0.00000   0.00000
 123       51D-1        0.00499   0.00000   0.00000
 124       51D+2        0.00000  -0.00000  -0.00000
 125       51D-2        0.00000   0.00000   0.00000
 126       52D 0        0.00000   0.12070  -0.00374
 127       52D+1        0.00000   0.00000   0.00000
 128       52D-1       -0.05335   0.00000   0.00000
 129       52D+2        0.00000   0.00000   0.00000
 130       52D-2        0.00000   0.00000   0.00000
 131       53D 0        0.00000  -0.36287   0.28282
 132       53D+1        0.00000   0.00000   0.00000
 133       53D-1        0.14318   0.00000   0.00000
 134       53D+2        0.00000   0.00000  -0.00000
 135       53D-2        0.00000   0.00000   0.00000
 136       54F 0        0.00000   0.00006  -0.00020
 137       54F+1        0.00000   0.00000   0.00000
 138       54F-1       -0.00001   0.00000   0.00000
 139       54F+2        0.00000   0.00000  -0.00000
 140       54F-2        0.00000   0.00000   0.00000
 141       54F+3        0.00000   0.00000   0.00000
 142       54F-3        0.00000   0.00000   0.00000
 143       55F 0        0.00000  -0.00064   0.00135
 144       55F+1        0.00000   0.00000   0.00000
 145       55F-1       -0.00027   0.00000   0.00000
 146       55F+2        0.00000   0.00000  -0.00000
 147       55F-2        0.00000   0.00000   0.00000
 148       55F+3        0.00000   0.00000   0.00000
 149       55F-3        0.00005   0.00000   0.00000
 150       56F 0        0.00000   0.00136  -0.00353
 151       56F+1        0.00000   0.00000   0.00000
 152       56F-1       -0.00008   0.00000   0.00000
 153       56F+2        0.00000  -0.00000  -0.00000
[...]
 211       11D 0        0.00001
 212       11D+1        0.00000   0.00000
 213       11D-1        0.00000   0.00000   0.00000
 214       11D+2       -0.00000   0.00000   0.00000   0.00000
 215       11D-2        0.00000   0.00000   0.00000   0.00000   0.00000
     Gross orbital populations:
                         Total     Alpha     Beta      Spin
   1 1   Fe 1S         -0.00000  -0.00000  -0.00000   0.00000
   2        2S          0.00000   0.00000   0.00000  -0.00000
   3        3S         -0.00000  -0.00000  -0.00000  -0.00000
   4        4S          0.00000   0.00000   0.00000  -0.00000
   5        5S         -0.00000  -0.00000  -0.00000   0.00000
   6        6S          0.00000   0.00000   0.00000  -0.00000
   7        7S         -0.00000  -0.00000  -0.00000  -0.00000
   8        8S          0.00000   0.00000   0.00000  -0.00000
   9        9S         -0.00000  -0.00000  -0.00000  -0.00000
  10       10S          0.00002   0.00001   0.00001   0.00000
  11       11S         -0.00023  -0.00011  -0.00011  -0.00000
  12       12S          0.00496   0.00248   0.00248   0.00000
  13       13S         -0.02020  -0.01010  -0.01010  -0.00000
  14       14S         -0.22107  -0.11053  -0.11053  -0.00000
  15       15S          0.30991   0.15496   0.15496  -0.00000
  16       16S          1.24036   0.62018   0.62018   0.00000
  17       17S          0.72463   0.36232   0.36232  -0.00000
  18       18S          0.25509   0.12754   0.12754   0.00000
  19       19S          0.37863   0.18932   0.18932  -0.00000
  20       20S          0.14449   0.07224   0.07224  -0.00000
  21       21S         -0.14556  -0.07278  -0.07278   0.00000
  22       22S          0.08286   0.04143   0.04143  -0.00000
  23       23S         -0.01628  -0.00814  -0.00814   0.00000
  24       24PX         0.00000   0.00000   0.00000   0.00000
  25       24PY         0.00000   0.00000   0.00000   0.00000
  26       24PZ         0.00000   0.00000   0.00000   0.00000
  27       25PX        -0.00000  -0.00000  -0.00000  -0.00000
  28       25PY        -0.00000  -0.00000  -0.00000  -0.00000
  29       25PZ        -0.00000  -0.00000  -0.00000  -0.00000
  30       26PX         0.00000   0.00000   0.00000   0.00000
  31       26PY         0.00000   0.00000   0.00000   0.00000
  32       26PZ         0.00000   0.00000   0.00000   0.00000
  33       27PX        -0.00000  -0.00000  -0.00000  -0.00000
  34       27PY        -0.00000  -0.00000  -0.00000  -0.00000
  35       27PZ        -0.00000  -0.00000  -0.00000  -0.00000
  36       28PX         0.00000   0.00000   0.00000   0.00000
  37       28PY         0.00000   0.00000   0.00000   0.00000
  38       28PZ         0.00000   0.00000   0.00000   0.00000
  39       29PX        -0.00004  -0.00002  -0.00002  -0.00000
  40       29PY        -0.00004  -0.00002  -0.00002  -0.00000
  41       29PZ        -0.00004  -0.00002  -0.00002  -0.00000
  42       30PX         0.00064   0.00032   0.00032   0.00000
  43       30PY         0.00064   0.00032   0.00032   0.00000
  44       30PZ         0.00065   0.00033   0.00033   0.00000
  45       31PX        -0.00591  -0.00296  -0.00295  -0.00000
  46       31PY        -0.00591  -0.00296  -0.00295  -0.00000
  47       31PZ        -0.00600  -0.00300  -0.00300   0.00000
  48       32PX        -0.04107  -0.02054  -0.02053  -0.00001
  49       32PY        -0.04107  -0.02054  -0.02053  -0.00001
  50       32PZ        -0.04172  -0.02086  -0.02086  -0.00000
  51       33PX         0.06559   0.03281   0.03278   0.00002
  52       33PY         0.06559   0.03281   0.03278   0.00002
  53       33PZ         0.06572   0.03286   0.03286   0.00000
  54       34PX         0.55383   0.27695   0.27687   0.00008
  55       34PY         0.55383   0.27695   0.27687   0.00008
  56       34PZ         0.56118   0.28059   0.28059   0.00000
  57       35PX         0.46095   0.23047   0.23048  -0.00002
  58       35PY         0.46095   0.23047   0.23048  -0.00002
  59       35PZ         0.46767   0.23383   0.23383   0.00000
  60       36PX         0.50360   0.25180   0.25180  -0.00000
  61       36PY         0.50360   0.25180   0.25180  -0.00000
  62       36PZ         0.49637   0.24819   0.24819   0.00000
  63       37PX         0.04794   0.02411   0.02383   0.00029
  64       37PY         0.04794   0.02411   0.02383   0.00029
  65       37PZ         0.06798   0.03399   0.03399   0.00000
  66       38PX        -0.00080  -0.00031  -0.00048   0.00017
  67       38PY        -0.00080  -0.00031  -0.00048   0.00017
  68       38PZ         0.03539   0.01769   0.01769  -0.00000
  69       39PX         0.00023   0.00011   0.00012  -0.00002
  70       39PY         0.00023   0.00011   0.00012  -0.00002
  71       39PZ         0.00908   0.00454   0.00454   0.00000
  72       40PX        -0.01809  -0.00905  -0.00904  -0.00001
  73       40PY        -0.01809  -0.00905  -0.00904  -0.00001
  74       40PZ        -0.01763  -0.00882  -0.00882  -0.00000
  75       41PX         0.43350   0.21681   0.21669   0.00011
  76       41PY         0.43350   0.21681   0.21669   0.00011
  77       41PZ         0.43393   0.21697   0.21697   0.00000
  78       42PX        -0.00002  -0.00001  -0.00001   0.00000
  79       42PY        -0.00002  -0.00001  -0.00001   0.00000
  80       42PZ        -0.00164  -0.00082  -0.00082   0.00000
  81       43D 0       -0.00002  -0.00001  -0.00001  -0.00000
  82       43D+1       -0.00001  -0.00001  -0.00000  -0.00001
  83       43D-1       -0.00001  -0.00001  -0.00000  -0.00001
  84       43D+2       -0.00001  -0.00001  -0.00000  -0.00001
  85       43D-2       -0.00003  -0.00001  -0.00001  -0.00000
  86       44D 0        0.00329   0.00164   0.00164   0.00000
  87       44D+1        0.00212   0.00212   0.00000   0.00212
  88       44D-1        0.00212   0.00212   0.00000   0.00212
  89       44D+2        0.00214   0.00214   0.00000   0.00214
  90       44D-2        0.00405   0.00203   0.00203   0.00000
  91       45D 0        0.06766   0.03383   0.03383   0.00000
  92       45D+1        0.04366   0.04366   0.00000   0.04366
  93       45D-1        0.04366   0.04366   0.00000   0.04366
  94       45D+2        0.04398   0.04398   0.00000   0.04398
  95       45D-2        0.08338   0.04169   0.04169   0.00000
  96       46D 0        0.20283   0.10142   0.10142   0.00000
  97       46D+1        0.12839   0.12839   0.00001   0.12838
  98       46D-1        0.12839   0.12839   0.00001   0.12838
  99       46D+2        0.12813   0.12813   0.00000   0.12813
 100       46D-2        0.24135   0.12067   0.12067   0.00000
 101       47D 0        0.71244   0.35622   0.35622   0.00000
 102       47D+1        0.49180   0.49181  -0.00001   0.49183
 103       47D-1        0.49180   0.49181  -0.00001   0.49183
 104       47D+2        0.51057   0.51057   0.00000   0.51057
 105       47D-2        0.99658   0.49829   0.49829   0.00000
 106       48D 0        0.54694   0.27347   0.27347   0.00000
 107       48D+1        0.30965   0.30962   0.00003   0.30960
 108       48D-1        0.30965   0.30962   0.00003   0.30960
 109       48D+2        0.30940   0.30940   0.00000   0.30940
 110       48D-2        0.60924   0.30462   0.30462   0.00000
 111       49D 0        0.33209   0.16604   0.16604   0.00000
 112       49D+1        0.14590   0.14589   0.00001   0.14589
 113       49D-1        0.14590   0.14589   0.00001   0.14589
 114       49D+2        0.14549   0.14549   0.00000   0.14549
 115       49D-2        0.33366   0.16683   0.16683   0.00000
 116       50D 0        0.06271   0.03136   0.03136   0.00000
 117       50D+1        0.01624   0.01624  -0.00000   0.01624
 118       50D-1        0.01624   0.01624  -0.00000   0.01624
 119       50D+2        0.01555   0.01555   0.00000   0.01555
 120       50D-2        0.05196   0.02598   0.02598   0.00000
 121       51D 0        0.06462   0.03231   0.03231   0.00000
 122       51D+1        0.04406   0.04406  -0.00000   0.04407
 123       51D-1        0.04406   0.04406  -0.00000   0.04407
 124       51D+2        0.04575   0.04575   0.00000   0.04575
 125       51D-2        0.08829   0.04414   0.04414   0.00000
 126       52D 0       -0.22366  -0.11183  -0.11183  -0.00000
 127       52D+1       -0.18365  -0.18367   0.00002  -0.18370
 128       52D-1       -0.18365  -0.18367   0.00002  -0.18370
 129       52D+2       -0.20103  -0.20103  -0.00000  -0.20103
 130       52D-2       -0.40844  -0.20422  -0.20422  -0.00000
 131       53D 0       -0.00032  -0.00016  -0.00016   0.00000
 132       53D+1       -0.00017  -0.00017   0.00000  -0.00017
 133       53D-1       -0.00017  -0.00017   0.00000  -0.00017
 134       53D+2       -0.00021  -0.00021   0.00000  -0.00021
 135       53D-2       -0.00039  -0.00020  -0.00020  -0.00000
 136       54F 0        0.00001   0.00001   0.00001   0.00000
 137       54F+1        0.00000   0.00000   0.00000   0.00000
 138       54F-1        0.00000   0.00000   0.00000   0.00000
 139       54F+2        0.00000   0.00000   0.00000   0.00000
 140       54F-2        0.00000   0.00000   0.00000   0.00000
 141       54F+3        0.00001   0.00000   0.00000   0.00000
 142       54F-3        0.00001   0.00000   0.00000   0.00000
 143       55F 0        0.00007   0.00004   0.00004   0.00000
 144       55F+1        0.00001   0.00001   0.00000   0.00000
 145       55F-1        0.00001   0.00001   0.00000   0.00000
 146       55F+2        0.00000   0.00000   0.00000   0.00000
 147       55F-2        0.00001   0.00000   0.00000   0.00000
 148       55F+3        0.00003   0.00001   0.00001   0.00000
 149       55F-3        0.00003   0.00001   0.00001   0.00000
 150       56F 0        0.00109   0.00054   0.00054  -0.00000
 151       56F+1        0.00004   0.00004   0.00000   0.00004
 152       56F-1        0.00004   0.00004   0.00000   0.00004
 153       56F+2        0.00004   0.00004   0.00000   0.00004
 154       56F-2        0.00008   0.00004   0.00004   0.00000
 155       56F+3        0.00003   0.00002   0.00002   0.00000
 156       56F-3        0.00003   0.00002   0.00002   0.00000
 157       57F 0        0.00148   0.00074   0.00074  -0.00000
 158       57F+1        0.00005   0.00005   0.00000   0.00005
 159       57F-1        0.00005   0.00005   0.00000   0.00005
 160       57F+2        0.00008   0.00008   0.00000   0.00008
 161       57F-2        0.00021   0.00011   0.00011   0.00000
 162       57F+3        0.00001   0.00000   0.00000   0.00000
 163       57F-3        0.00001   0.00000   0.00000   0.00000
 164       58G 0        0.00000   0.00000   0.00000   0.00000
 165       58G+1       -0.00000  -0.00000   0.00000  -0.00000
 166       58G-1       -0.00000  -0.00000   0.00000  -0.00000
 167       58G+2        0.00000   0.00000   0.00000   0.00000
 168       58G-2        0.00000   0.00000   0.00000   0.00000
 169       58G+3        0.00000   0.00000   0.00000   0.00000
 170       58G-3        0.00000   0.00000   0.00000   0.00000
 171       58G+4        0.00000   0.00000   0.00000   0.00000
 172       58G-4        0.00000   0.00000   0.00000   0.00000
 173       59G 0        0.00001   0.00001   0.00001   0.00000
 174       59G+1        0.00000   0.00000  -0.00000   0.00000
 175       59G-1        0.00000   0.00000  -0.00000   0.00000
 176       59G+2        0.00000   0.00000   0.00000   0.00000
 177       59G-2        0.00000   0.00000   0.00000   0.00000
 178       59G+3        0.00000   0.00000   0.00000   0.00000
 179       59G-3        0.00000   0.00000   0.00000   0.00000
 180       59G+4        0.00000   0.00000   0.00000   0.00000
 181       59G-4        0.00000   0.00000   0.00000   0.00000
 182       60G 0        0.00031   0.00015   0.00015  -0.00000
 183       60G+1        0.00001   0.00001   0.00000   0.00001
 184       60G-1        0.00001   0.00001   0.00000   0.00001
 185       60G+2        0.00001   0.00001   0.00000   0.00001
 186       60G-2        0.00000   0.00000   0.00000   0.00000
 187       60G+3        0.00000   0.00000   0.00000   0.00000
 188       60G-3        0.00000   0.00000   0.00000   0.00000
 189       60G+4        0.00000   0.00000   0.00000   0.00000
 190       60G-4        0.00000   0.00000   0.00000   0.00000
 191 2   H  1S          0.00071   0.00036   0.00036   0.00000
 192        2S          0.02446   0.01223   0.01223   0.00000
 193        3S          0.18849   0.09425   0.09425   0.00000
 194        4S          0.58830   0.29415   0.29415   0.00000
 195        5S          0.54405   0.27203   0.27203   0.00000
 196        6S          0.06083   0.03042   0.03042  -0.00000
 197        7PX         0.00022   0.00022   0.00000   0.00021
 198        7PY         0.00022   0.00022   0.00000   0.00021
 199        7PZ         0.00225   0.00113   0.00113   0.00000
 200        8PX         0.00165   0.00163   0.00003   0.00160
 201        8PY         0.00165   0.00163   0.00003   0.00160
 202        8PZ         0.00779   0.00389   0.00389   0.00000
 203        9PX        -0.00048  -0.00049   0.00001  -0.00049
 204        9PY        -0.00048  -0.00049   0.00001  -0.00049
 205        9PZ         0.00139   0.00070   0.00070  -0.00000
 206       10D 0        0.00083   0.00042   0.00042   0.00000
 207       10D+1        0.00024   0.00023   0.00001   0.00022
 208       10D-1        0.00024   0.00023   0.00001   0.00022
 209       10D+2        0.00001   0.00001   0.00000   0.00001
 210       10D-2        0.00004   0.00002   0.00002   0.00000
 211       11D 0        0.00077   0.00039   0.00039  -0.00000
 212       11D+1       -0.00019  -0.00018  -0.00002  -0.00016
 213       11D-1       -0.00019  -0.00018  -0.00002  -0.00016
 214       11D+2        0.00009   0.00009   0.00000   0.00009
 215       11D-2        0.00003   0.00001   0.00001   0.00000
          Condensed to atoms (all electrons):
               1          2
     1  Fe  15.215364   0.361690
     2  H    0.361690   1.061256
          Atomic-Atomic Spin Densities.
               1          2
     1  Fe   2.994416   0.002712
     2  H    0.002712   0.000161
 Mulliken charges and spin densities:
               1          2
     1  Fe   0.422946   2.997127
     2  H   -0.422946   0.002873
 Sum of Mulliken charges =  -0.00000   3.00000
 Mulliken charges and spin densities with hydrogens summed into heavy atoms:
               1          2
     1  Fe  -0.000000   3.000000
 Electronic spatial extent (au):  <R**2>=             43.7322
 Charge=             -0.0000 electrons
 Dipole moment (field-independent basis, Debye):
    X=              0.0000    Y=              0.0000    Z=              4.1377  Tot=              4.1377
 Quadrupole moment (field-independent basis, Debye-Ang):
   XX=            -15.8280   YY=            -15.8280   ZZ=            -16.9066
   XY=              0.0000   XZ=              0.0000   YZ=              0.0000
 Traceless Quadrupole moment (field-independent basis, Debye-Ang):
   XX=              0.3595   YY=              0.3595   ZZ=             -0.7191
   XY=              0.0000   XZ=              0.0000   YZ=              0.0000
 Octapole moment (field-independent basis, Debye-Ang**2):
  XXX=              0.0000  YYY=              0.0000  ZZZ=             15.1493  XYY=              0.0000
  XXY=              0.0000  XXZ=              3.7386  XZZ=              0.0000  YZZ=              0.0000
  YYZ=              3.7386  XYZ=              0.0000
 Hexadecapole moment (field-independent basis, Debye-Ang**3):
 XXXX=            -25.2190 YYYY=            -25.2190 ZZZZ=            -48.8272 XXXY=              0.0000
 XXXZ=              0.0000 YYYX=              0.0000 YYYZ=              0.0000 ZZZX=              0.0000
 ZZZY=              0.0000 XXYY=             -8.7341 XXZZ=            -11.7103 YYZZ=            -11.7103
 XXYZ=              0.0000 YYXZ=              0.0000 ZZXY=              0.0000
 N-N= 5.644556916480D+00 E-N=-3.027111655465D+02  KE= 7.253690007486D+01
 Symmetry A1   KE= 3.067385574539D+01
 Symmetry A2   KE= 1.289293860581D+01
 Symmetry B1   KE= 1.448505286496D+01
 Symmetry B2   KE= 1.448505285915D+01
 Symmetry A1   SP= 1.000000000000D+00
 Symmetry A2   SP= 2.282006668312D-16
 Symmetry B1   SP= 1.000000000000D+00
 Symmetry B2   SP= 1.000000000000D+00
 Orbital energies and kinetic energies (alpha):
                                 1                 2
   3         O                -2.791671          3.878453
   4         O                -2.791671          3.878453
   5         O                -0.508519          3.151172
   6         O                -0.508519          6.446469
   7         O                -0.498035          2.726968
   8         O                -0.463903          6.728146
   9         O                -0.448618          6.728146
  10         O                -0.316439          6.763086
  11         V                -0.002444          0.245245
  12         V                 0.024516          0.043955
  13         V                 0.024516          0.043955
  14         V                 0.031360          0.035727
  15         V                 0.043081          0.277158
 Total kinetic energy from orbitals= 9.275627774840D+01
                          Isotropic Fermi Contact Couplings
        Atom                 a.u.       MegaHertz       Gauss      10(-4) cm-1
     1  Fe(57)             0.00000       0.00000       0.00000       0.00000
     2  H(1)               0.00000       0.00000       0.00000       0.00000
 --------------------------------------------------------
       Center         ----  Spin Dipole Couplings  ----
                      3XX-RR        3YY-RR        3ZZ-RR
 --------------------------------------------------------
     1   Atom        0.005502      0.005502     -0.011004
     2   Atom       -0.113125     -0.113125      0.226249
 --------------------------------------------------------
                        XY            XZ            YZ
 --------------------------------------------------------
     1   Atom        0.000000      0.000000      0.000000
     2   Atom        0.000000      0.000000      0.000000
 --------------------------------------------------------


 ---------------------------------------------------------------------------------
              Anisotropic Spin Dipole Couplings in Principal Axis System
 ---------------------------------------------------------------------------------

       Atom             a.u.   MegaHertz   Gauss  10(-4) cm-1        Axes

              Baa    -0.0110    -0.191    -0.068    -0.064  0.0000  0.0000  1.0000
     1 Fe(57) Bbb     0.0055     0.095     0.034     0.032 -0.0000  1.0000  0.0000
              Bcc     0.0055     0.095     0.034     0.032  1.0000  0.0000  0.0000
 
              Baa    -0.1131   -60.358   -21.537   -20.133 -0.0000  1.0000  0.0000
     2 H(1)   Bbb    -0.1131   -60.358   -21.537   -20.133  1.0000  0.0000  0.0000
              Bcc     0.2262   120.716    43.074    40.266  0.0000  0.0000  1.0000
 

 ---------------------------------------------------------------------------------

 No NMR shielding tensors so no spin-rotation constants.
 Leave Link  601 at Sat Mar 24 00:38:03 2018, MaxMem= 10737418240 cpu:              89.1 elap:               2.9
 (Enter /home1/apps/gaussian/16rA.03/g16/l9999.exe)

 Test job not archived.
 1\1\GINC-C427-004\SP\ROCCSD(T)-Full\Gen\Fe1H1(4)\GWANG18\24-Mar-2018\0
 \\#P ROCCSD(T)=(MaxCyc=150, Full)/Gen SCF=(maxcycle=400, vshift=200) P
 seudo=Read Integral(NoXCTest) Pop=Regular MaxDisk=500GB Guess=Read IOp
 (5/15=2)\\FeH\\0,4\Fe,0,0.,0.,0.\H,0,0.,0.,1.5\\Version=ES64L-G16RevA.
 03\HF=-123.2890001\MP2=-124.0640007\MP3=-124.0057265\PUHF=-123.2890001
 \PMP2-0=-124.0640007\MP4SDQ=-124.0453421\CCSD=-124.035872\CCSD(T)=-124
 .0645083\RMSD=3.937e-09\PG=C*V [C*(H1Fe1)]\\@


 PICNIC:  A SNACK IN THE GRASS.
 Job cpu time:       0 days  7 hours  9 minutes 50.9 seconds.
 Elapsed time:       0 days  0 hours 13 minutes 27.3 seconds.
 File lengths (MBytes):  RWF=   2673 Int=      0 D2E=      0 Chk=      6 Scr=      1
 Normal termination of Gaussian 16 at Sat Mar 24 00:38:04 2018.
