
 Primary working directories    : /tmp/cmelton
 Secondary working directories  : /tmp/cmelton
 Wavefunction directory         : /remote/cmelton/wfu/
 Main file repository           : /tmp/cmelton/

 SHA1      : 4c1979699e6aeda0524d0210415ba82a958648b0
 NAME      : 2012.1.39
 ARCHNAME  : Linux/x86_64
 FC        : /projects/sems/install/rhel6-x86_64/sems/compiler/intel/16.0.1/base/bin/ifort
 FCVERSION : 16.0.1
 BLASLIB   : -L/projects/sems/install/rhel6-x86_64/sems/compiler/intel/16.0.1/base/compilers_and_libraries_2016.1.150/linux/mkl/lib/intel64 -lmkl_intel_ilp64 -lmkl_sequential -lmkl_core
 id        : sandiacon

 Nodes           nprocs
 breve.sandia.gov    1

 Using customized tuning parameters: mindgm=7; mindgv=16; mindgc=1; mindgr=1; noblas=0; minvec=7
 default implementation of scratch files=df  

 ***,Calculation for Be atom, singlet and triplet
 memory,512,m
 geometry={
 1
 Fe
 Fe  0.0 0.0 0.0
 }
 
 basis={
 ECP,Fe,10,3,0;
 1; 2,1.000000,0.000000;
 2; 2,20.930000,253.749588; 2,9.445000,37.922845;
 2; 2,21.760000,161.036812; 2,9.178000,27.651298;
 2; 2,25.900000,-24.431276; 2,8.835000,-1.434251;
 Including file /remote/cmelton/data/corrECP/Fe/stu87/basis/aug-cc-pwCVQZ-dk.basis
 }
 
 Including file /remote/cmelton/data/corrECP/Fe/stu87/basis/states.proc
 Including file /remote/cmelton/data/corrECP/Fe/stu87/basis/aug-cc-pwCVTZ-dk.basis
 Including file /remote/cmelton/data/corrECP/Fe/stu87/basis/aug-cc-pwCVQZ-dk.basis
 
 do i=1,14
 if (i.eq.1) then
     Is2d6
 else if (i.eq.2) then
     Is1d7
 else if (i.eq.3) then
     Id8
 else if (i.eq.4) then
     IIs1d6
 else if (i.eq.5) then
     IId7
 else if (i.eq.6) then
     IX
 else if (i.eq.7) then
     XV
 else if (i.eq.8) then
     As2d7
 else if (i.eq.9) then
     IIId6
 else if (i.eq.10) then
     IVd5
 else if (i.eq.11) then
     Vd4
 else if (i.eq.12) then
     VId3
 else if (i.eq.13) then
     VIId2
 else if (i.eq.14) then
     VIIId1
 endif
     scf(i)=energy
     _CC_NORM_MAX=2.0
     {rccsd(t),maxit=100;core}
     ccsd(i)=energy
 enddo
 
 table,scf,ccsd
 save
 type,csv

 Variables initialized (782), CPU time= 0.01 sec
 Commands  initialized (547), CPU time= 0.00 sec, 517 directives.
 Default parameters read. Elapsed time= 0.07 sec

 Checking input...
 Passed
1


                                         ***  PROGRAM SYSTEM MOLPRO  ***
                         Copyright, University College Cardiff Consultants Limited, 2008

                                    Version 2012.1 linked Aug  2 2016 14:07:26


 **********************************************************************************************************************************
 LABEL *   Calculation for Be atom, singlet and triplet                                  
 Linux-3.10.0-693.11.6.el7.x86_64/breve.sandia.gov(x86_64) 64 bit serial version         DATE: 15-Jan-18          TIME: 12:24:47  
 **********************************************************************************************************************************

 SHA1:             4c1979699e6aeda0524d0210415ba82a958648b0
 **********************************************************************************************************************************

Geometry recognized as XYZ


 Variable memory set to  512000000 words,  buffer space   230000 words

 SETTING BASIS          =    USERDEF

 DO I                   =         1.00000000   

 Running procedure=IS2D6


 Recomputing integrals since basis changed


 Using spherical harmonics


1PROGRAM * SEWARD (Integral evaluation for generally contracted gaussian basis sets)     Author: Roland Lindh, 1990

 Geometry written to block  1 of record 700

 Orientation using atomic masses  
 Molecule type: Atom
 Symmetry elements: X,Y,Z
 Rotational constants:       0.0000000      0.0000000      0.0000000 GHz  (calculated with average atomic masses)

 Point group  D2h 



 ATOMIC COORDINATES

 NR  ATOM    CHARGE       X              Y              Z

   1  FE     16.00    0.000000000    0.000000000    0.000000000

 NUCLEAR CHARGE:                   16
 NUMBER OF PRIMITIVE AOS:         345
 NUMBER OF SYMMETRY AOS:          262
 NUMBER OF CONTRACTIONS:          262   (  65Ag  +  40B3u +  40B2u +  22B1g +  40B1u +  22B2g +  22B3g +  11Au  )
 NUMBER OF CORE ORBITALS:           4   (   1Ag  +   1B3u +   1B2u +   0B1g +   1B1u +   0B2g +   0B3g +   0Au  )
 NUMBER OF VALENCE ORBITALS:        6   (   3Ag  +   0B3u +   0B2u +   1B1g +   0B1u +   1B2g +   1B3g +   0Au  )


 NUCLEAR REPULSION ENERGY    0.00000000

 EXTRA SYMMETRY OF AOS IN SYMMETRY 1:   1 1 1 1 1 1 1 1 1 1   1 1 1 1 1 1 1 1 1 1   1 1 1 1 1 2 3 2 3 2   3 2 3 2 3 2 3 2 3 2
                                        3 2 3 2 3 2 3 2 3 2   3 2 3 4 5 6 4 5 6 4   5 6 4 5 6
 EXTRA SYMMETRY OF AOS IN SYMMETRY 2:   1 1 1 1 1 1 1 1 1 1   1 1 1 1 1 1 1 1 1 1   1 2 3 2 3 2 3 2 3 2   3 4 5 6 4 5 6 4 5 6
 EXTRA SYMMETRY OF AOS IN SYMMETRY 3:   1 1 1 1 1 1 1 1 1 1   1 1 1 1 1 1 1 1 1 1   1 2 3 2 3 2 3 2 3 2   3 4 5 6 4 5 6 4 5 6
 EXTRA SYMMETRY OF AOS IN SYMMETRY 4:   1 1 1 1 1 1 1 1 1 1   1 1 1 1 2 3 2 3 2 3   2 3
 EXTRA SYMMETRY OF AOS IN SYMMETRY 5:   1 1 1 1 1 1 1 1 1 1   1 1 1 1 1 1 1 1 1 1   1 2 3 2 3 2 3 2 3 2   3 4 5 6 4 5 6 4 5 6
 EXTRA SYMMETRY OF AOS IN SYMMETRY 6:   1 1 1 1 1 1 1 1 1 1   1 1 1 1 2 3 2 3 2 3   2 3
 EXTRA SYMMETRY OF AOS IN SYMMETRY 7:   1 1 1 1 1 1 1 1 1 1   1 1 1 1 2 3 2 3 2 3   2 3
 EXTRA SYMMETRY OF AOS IN SYMMETRY 8:   1 1 1 1 1 2 3 2 3 2   3

 Eigenvalues of metric

         1 0.506E-06 0.182E-04 0.197E-04 0.197E-04 0.292E-03 0.775E-03 0.775E-03 0.824E-03
         2 0.207E-06 0.176E-05 0.513E-03 0.199E-02 0.524E-02 0.119E-01 0.228E-01 0.380E-01
         3 0.207E-06 0.176E-05 0.513E-03 0.199E-02 0.524E-02 0.119E-01 0.228E-01 0.380E-01
         4 0.197E-04 0.775E-03 0.996E-02 0.352E-01 0.718E-01 0.146E+00 0.190E+00 0.190E+00
         5 0.207E-06 0.176E-05 0.513E-03 0.199E-02 0.524E-02 0.119E-01 0.228E-01 0.380E-01
         6 0.197E-04 0.775E-03 0.996E-02 0.352E-01 0.718E-01 0.146E+00 0.190E+00 0.190E+00
         7 0.197E-04 0.775E-03 0.996E-02 0.352E-01 0.718E-01 0.146E+00 0.190E+00 0.190E+00
         8 0.119E+00 0.317E+00 0.317E+00 0.364E+00 0.788E+00 0.913E+00 0.913E+00 0.148E+01


 Contracted 2-electron integrals neglected if value below      1.0D-13
 AO integral compression algorithm  1   Integral accuracy      1.0D-13

     460.063 MB (compressed) written to integral file ( 47.2%)


 NUMBER OF SORTED TWO-ELECTRON INTEGRALS:   76744857.     BUFFER LENGTH:  32768
 NUMBER OF SEGMENTS:   5  SEGMENT LENGTH:   15998535      RECORD LENGTH: 524288

 Memory used in sort:      16.56 MW

 SORT1 READ   121794176. AND WROTE    46080396. INTEGRALS IN    135 RECORDS. CPU TIME:     2.60 SEC, REAL TIME:     3.05 SEC
 SORT2 READ    46080396. AND WROTE    76744857. INTEGRALS IN   1755 RECORDS. CPU TIME:     1.07 SEC, REAL TIME:     1.38 SEC

 FILE SIZES:   FILE 1:   469.2 MBYTE,  FILE 4:   566.3 MBYTE,   TOTAL:   1035.5 MBYTE

 OPERATOR DM      FOR CENTER  0  COORDINATES:    0.000000    0.000000    0.000000


 **********************************************************************************************************************************
 DATASETS  * FILE   NREC   LENGTH (MB)   RECORD NAMES
              1      20      269.78       500      610      700      900      950      970     1000      129      960     1100   
                                          VAR    BASINP    GEOM    SYMINP    ZMAT    AOBASIS   BASIS     P2S    ABASIS      S 
                                         1400     1410     1420     1200     1210     1080     1600     1650     1300     1700   
                                           T        V       ECP      H0       H01     AOSYM     SMH    MOLCAS    ERIS     OPER   

 PROGRAMS   *        TOTAL       INT
 CPU TIMES  *        30.28     30.11
 REAL TIME  *        32.02 SEC
 DISK USED  *         1.04 GB      
 **********************************************************************************************************************************

1PROGRAM * RHF-SCF (OPEN SHELL)       Authors: W. Meyer, H.-J. Werner


 NUMBER OF ELECTRONS:      10+    6-    SPACE SYMMETRY=1    SPIN SYMMETRY: Quintet 
 CONVERGENCE THRESHOLDS:    1.00E-05 (Density)    1.00E-07 (Energy)
 MAX. NUMBER OF ITERATIONS:       60
 INTERPOLATION TYPE:            DIIS
 INTERPOLATION STEPS:              2 (START)      1 (STEP)
 LEVEL SHIFTS:                 -0.30 (CLOSED)  0.00 (OPEN) 


 Singly occupied orbitals:      4.1       1.4       1.6       1.7
 
 Extra symmetries of mos in symmetry 1:   1   1   3
 Orbital guess generated from atomic densities. Full valence occupancy:    4   1   1   1   1   1   1   0


 Molecular orbital dump at record        4202.2

 ITERATION    DDIFF          GRAD             ENERGY        2-EL.EN.            DIPOLE MOMENTS         DIIS   ORB.
    1      0.000D+00      0.000D+00      -123.02828858    181.079272    0.00000    0.00000    0.00000    0    start
    2      0.000D+00      0.161D-01      -123.09341902    190.132081    0.00000    0.00000    0.00000    1    diag,B
    3      0.882D-02      0.139D-01      -123.11809272    187.590292    0.00000    0.00000    0.00000    2    diag,B
    4      0.367D-02      0.279D-02      -123.11954374    187.172880    0.00000    0.00000    0.00000    3    diag,B
    5      0.253D-02      0.379D-03      -123.11964741    187.116447    0.00000    0.00000    0.00000    4    diag,B
    6      0.607D-03      0.881D-04      -123.11966551    187.083622    0.00000    0.00000    0.00000    5    diag,B
    7      0.223D-03      0.333D-04      -123.11966953    187.071921    0.00000    0.00000    0.00000    6    fixocc
    8      0.138D-03      0.138D-04      -123.11967045    187.069577    0.00000    0.00000    0.00000    7    diag,B
    9      0.913D-04      0.589D-05      -123.11967064    187.069446    0.00000    0.00000    0.00000    8    diag,B
   10      0.131D-04      0.335D-05      -123.11967072    187.069910    0.00000    0.00000    0.00000    9    orth
   11      0.207D-04      0.223D-05      -123.11967075    187.070017    0.00000    0.00000    0.00000    9    diag,B
   12      0.171D-05      0.215D-05      -123.11967084    187.070029    0.00000    0.00000    0.00000    0    orth

 Final alpha occupancy:   4   1   1   1   1   1   1   0
 Final beta  occupancy:   3   1   1   0   1   0   0   0

 !RHF STATE 1.1 Energy               -123.119670840209
 Nuclear energy                         0.00000000
 One-electron energy                 -216.65468555
 Two-electron energy                   93.53501471
 Virial quotient                       -1.69340330
 !RHF STATE 1.1 Dipole moment           0.00000000     0.00000000     0.00000000
 Dipole moment /Debye                   0.00000000     0.00000000     0.00000000

 ELECTRON ORBITALS
 =================


   Orb  Occ    Energy  Couls-En    Coefficients

                                   1 1s      1 1s      1 1s      1 1s      1 1s      1 1s      1 1s      1 1s      1 1s      1 1s   
                                   1 1s      1 1s      1 1s      1 1s      1 1s      1 1s      1 1s      1 1s      1 1s      1 1s   
                                   1 1s      1 1s      1 1s      1 1s      1 1s      1 3d0     1 3d2+    1 3d0     1 3d2+    1 3d0  
                                   1 3d2+    1 3d0     1 3d2+    1 3d0     1 3d2+    1 3d0     1 3d2+    1 3d0     1 3d2+    1 3d0  
                                   1 3d2+    1 3d0     1 3d2+    1 3d0     1 3d2+    1 3d0     1 3d2+    1 3d0     1 3d2+    1 3d0  
                                   1 3d2+    1 3d0     1 3d2+    1 5g0     1 5g4+    1 5g2+    1 5g0     1 5g4+    1 5g2+    1 5g0  
                                   1 5g4+    1 5g2+    1 5g0     1 5g4+    1 5g2+ 

   1.1   2    -4.3238  -21.7110  0.000000  0.000000  0.000000  0.000001  0.000001  0.000010  0.000003  0.000092 -0.000024  0.000665
                                -0.000706  0.004232 -0.014016  0.096697 -0.152377 -0.774608  0.230201  0.635485  0.301946  0.008046
                                -0.003075  0.001180  0.434512  0.094760 -0.000290 -0.000000  0.000000 -0.000003  0.000003 -0.000012
                                 0.000027 -0.000096  0.000096 -0.000314  0.000206  0.000382  0.000486  0.000692  0.000682 -0.001631
                                 0.000302 -0.001687  0.000079 -0.000395  0.000034 -0.000024 -0.000001  0.000066  0.000032  0.000205
                                 0.000052  0.000002  0.000001  0.000030  0.000175  0.000018  0.000043  0.000257  0.000027  0.000100
                                 0.000647  0.000066  0.000019  0.000154  0.000015

   2.1   2    -0.2627   -5.8975 -0.000000 -0.000000 -0.000000 -0.000000 -0.000000 -0.000002 -0.000001 -0.000022  0.000004 -0.000160
                                 0.000158 -0.001004  0.003310 -0.023787  0.041142  0.172589 -0.082860 -0.266003 -0.200575  0.357667
                                 0.575608  0.229669 -0.085035  0.026122 -0.000872  0.000001 -0.000000  0.000006 -0.000004  0.000050
                                -0.000032  0.000210 -0.000122  0.000469 -0.000279  0.000396 -0.000525  0.000618 -0.000706  0.002652
                                -0.000404  0.006767  0.000435  0.008051  0.000949  0.003451  0.000466  0.000085 -0.000022  0.000190
                                -0.000011  0.000058  0.000009  0.000001 -0.000002 -0.000001  0.000029  0.000129  0.000012  0.000031
                                 0.000041  0.000006  0.000017 -0.000194 -0.000011

   3.1   2    -0.5462  -13.1137 -0.000000 -0.000000 -0.000000 -0.000000 -0.000000 -0.000000 -0.000000 -0.000000  0.000000 -0.000001
                                 0.000001 -0.000006  0.000019 -0.000127  0.000181  0.001149 -0.000225 -0.000769 -0.000514 -0.000015
                                 0.000027 -0.000004 -0.000684 -0.000229  0.000002  0.000014  0.000183  0.000140  0.001833  0.001167
                                 0.015243  0.004549  0.059440  0.010351  0.135244  0.017403  0.227418  0.023481  0.306872  0.023039
                                 0.301027  0.016089  0.210008  0.006167  0.080263  0.000496  0.006402  0.000965  0.012613  0.001024
                                 0.013381 -0.000005 -0.000058  0.000039  0.000058  0.000254  0.000118  0.000173  0.000756  0.000172
                                 0.000258  0.001100  0.000073  0.000115  0.000460

   4.1   +    -0.7057  -13.5615  0.000000  0.000000  0.000000  0.000000  0.000000  0.000000  0.000000  0.000001 -0.000000  0.000004
                                -0.000005  0.000025 -0.000080  0.000579 -0.001238 -0.000037  0.004009  0.009709  0.000625 -0.005309
                                -0.004913 -0.002501 -0.002183 -0.005269  0.000106  0.000189 -0.000014  0.001893 -0.000145  0.015740
                                -0.001204  0.061331 -0.004693  0.139758 -0.010693  0.236667 -0.018103  0.320349 -0.024507  0.304041
                                -0.023280  0.185454 -0.014219  0.051845 -0.003982  0.001546 -0.000124  0.013221 -0.001012  0.014158
                                -0.001083  0.000210 -0.000016  0.000644  0.000322  0.000011  0.001821  0.000977  0.000027  0.002552
                                 0.001150  0.000058  0.000988  0.000214  0.000041

   5.1   0     0.0270   -1.6910  0.000000 -0.000000  0.000000 -0.000000  0.000000 -0.000001  0.000005 -0.000009  0.000043 -0.000086
                                 0.000292 -0.000582  0.001154 -0.000617  0.015579 -0.528925 -0.251007 -0.503612  0.188861 -0.419566
                                 0.827548 -2.332927  0.576583  0.650421  2.367609  0.000000  0.000000  0.000004  0.000001  0.000032
                                 0.000006  0.000126  0.000024  0.000255  0.000047  0.000341  0.000051  0.000617  0.000110  0.000022
                                 0.000039 -0.001641 -0.000233 -0.001594 -0.000213 -0.001293 -0.000212  0.000123  0.000027  0.000266
                                 0.000059  0.001986  0.000500 -0.000003 -0.000027 -0.000002 -0.000005 -0.000045 -0.000004  0.000024
                                 0.000152  0.000015  0.000029  0.000235  0.000021

   6.1   0     0.0677   -1.6830  0.000000  0.000000  0.000000  0.000000 -0.000000  0.000000 -0.000000  0.000000 -0.000000  0.000001
                                -0.000002  0.000006 -0.000018  0.000100 -0.000210  0.000836  0.001029  0.002383  0.000250 -0.000379
                                -0.002745  0.001087 -0.001332 -0.001863 -0.001975 -0.000011  0.000001 -0.000001  0.000000 -0.000641
                                 0.000062 -0.000157  0.000021 -0.019712  0.001856 -0.132409  0.012395 -0.064007  0.006013  0.033735
                                -0.003117 -0.065391  0.006139  0.136641 -0.012737 -0.339329  0.031729  0.052349 -0.004889  0.126068
                                -0.011776  1.178590 -0.110105 -0.000018 -0.000009 -0.000000 -0.000035 -0.000022  0.000000 -0.000077
                                -0.000027 -0.000001  0.000179  0.000050  0.000006

                                   1 2px     1 2px     1 2px     1 2px     1 2px     1 2px     1 2px     1 2px     1 2px     1 2px  
                                   1 2px     1 2px     1 2px     1 2px     1 2px     1 2px     1 2px     1 2px     1 2px     1 2px  
                                   1 2px     1 4f1+    1 4f3+    1 4f1+    1 4f3+    1 4f1+    1 4f3+    1 4f1+    1 4f3+    1 4f1+ 
                                   1 4f3+    1 6h1+    1 6h3+    1 6h5+    1 6h1+    1 6h3+    1 6h5+    1 6h1+    1 6h3+    1 6h5+ 


   1.2   2    -2.7587  -18.4462  0.000000  0.000001  0.000001  0.000022  0.000019  0.000275  0.000004  0.001982  0.008436 -0.073510
                                -0.118645  0.208113  0.487549  0.376993  0.161373  0.015222 -0.001087  0.000709  0.074995 -0.083340
                                -0.000202  0.000167  0.000836  0.001129  0.001831  0.001146  0.003459 -0.000055  0.002092 -0.000045
                                 0.000059 -0.000010  0.000008 -0.000104 -0.000016  0.000016 -0.000178  0.000008 -0.000002  0.000075

   2.2   0     0.0196   -2.1678  0.000000 -0.000000  0.000001 -0.000006  0.000014 -0.000069  0.000160 -0.000627  0.001123 -0.002805
                                -0.171808  0.036433  0.665573 -0.085769  0.032335 -0.002698  0.279067 -0.205543  0.161451 -0.692494
                                 1.034293 -0.000027  0.000014 -0.000152  0.000077 -0.000025  0.000044  0.000670 -0.000078  0.001733
                                 0.000082  0.000002 -0.000002  0.000024  0.000004 -0.000003  0.000041 -0.000014  0.000010 -0.000168

   3.2   0     0.0631   -2.7891 -0.000000  0.000000 -0.000003  0.000009 -0.000045  0.000112 -0.000449  0.001141 -0.005541  0.030169
                                 0.516855 -0.170144 -2.018215  0.101285 -0.131444  0.285441 -0.206415  1.642049 -0.475714  1.962768
                                -1.318707 -0.000049  0.000025 -0.000265  0.000135 -0.000044  0.000073  0.001252 -0.000164  0.002970
                                 0.000129  0.000004 -0.000003  0.000043  0.000007 -0.000005  0.000072 -0.000026  0.000018 -0.000299

                                   1 2py     1 2py     1 2py     1 2py     1 2py     1 2py     1 2py     1 2py     1 2py     1 2py  
                                   1 2py     1 2py     1 2py     1 2py     1 2py     1 2py     1 2py     1 2py     1 2py     1 2py  
                                   1 2py     1 4f1-    1 4f3-    1 4f1-    1 4f3-    1 4f1-    1 4f3-    1 4f1-    1 4f3-    1 4f1- 
                                   1 4f3-    1 6h1-    1 6h3-    1 6h5-    1 6h1-    1 6h3-    1 6h5-    1 6h1-    1 6h3-    1 6h5- 


   1.3   2    -2.7573  -18.4432  0.000000  0.000001  0.000001  0.000022  0.000019  0.000275  0.000004  0.001982  0.008433 -0.073528
                                -0.118956  0.208240  0.488637  0.376640  0.161897  0.015483 -0.001103  0.000722  0.075360 -0.084731
                                -0.000206  0.000065 -0.000794  0.000995 -0.001465  0.000782 -0.003112 -0.000365 -0.002157 -0.000059
                                -0.000079 -0.000018 -0.000025 -0.000105 -0.000030 -0.000043 -0.000180  0.000013  0.000013  0.000072

   2.3   0     0.0199   -2.1457  0.000000 -0.000000  0.000001 -0.000006  0.000014 -0.000070  0.000163 -0.000631  0.001159 -0.003031
                                -0.174507  0.037515  0.676046 -0.085737  0.032898 -0.005704  0.277763 -0.215799  0.163902 -0.702217
                                 1.044256 -0.000032 -0.000024 -0.000177 -0.000131 -0.000034 -0.000053  0.000737  0.000312  0.001911
                                 0.000594  0.000004  0.000005  0.000024  0.000007  0.000009  0.000040 -0.000025 -0.000034 -0.000163

   3.3   0     0.0638   -2.7927 -0.000000  0.000000 -0.000003  0.000009 -0.000046  0.000113 -0.000452  0.001152 -0.005568  0.030273
                                 0.520373 -0.171008 -2.031954  0.102819 -0.132593  0.284824 -0.211826  1.650654 -0.479005  1.976827
                                -1.313603 -0.000058 -0.000042 -0.000314 -0.000232 -0.000062 -0.000092  0.001410  0.000617  0.003339
                                 0.001046  0.000007  0.000009  0.000042  0.000012  0.000016  0.000072 -0.000045 -0.000063 -0.000295

                                   1 3d2-    1 3d2-    1 3d2-    1 3d2-    1 3d2-    1 3d2-    1 3d2-    1 3d2-    1 3d2-    1 3d2- 
                                   1 3d2-    1 3d2-    1 3d2-    1 3d2-    1 5g2-    1 5g4-    1 5g2-    1 5g4-    1 5g2-    1 5g4- 
                                   1 5g2-    1 5g4- 

   1.4   +    -0.6633  -13.4605  0.000188  0.001886  0.015681  0.061107  0.139184  0.235382  0.318471  0.304472  0.191612  0.057812
                                 0.002302  0.013116  0.014033  0.000180  0.000383  0.000114  0.001081  0.000329  0.001558  0.000465
                                 0.000659  0.000185

   2.4   0     0.0679   -1.6803 -0.000011 -0.000002 -0.000656 -0.000194 -0.019971 -0.133739 -0.064756  0.033804 -0.066392  0.136829
                                -0.344287  0.052822  0.127203  1.185686 -0.000011 -0.000003 -0.000021 -0.000007 -0.000049 -0.000015
                                 0.000106  0.000031

   3.4   0     0.2169   -2.6009 -0.000006 -0.000367 -0.001181 -0.011582  0.031217  0.349413  0.130549 -0.160805  0.180335 -0.388945
                                 1.610717 -0.158807 -0.380167 -0.820876 -0.000053 -0.000016 -0.000100 -0.000031 -0.000217 -0.000065
                                 0.000595  0.000174

                                   1 2pz     1 2pz     1 2pz     1 2pz     1 2pz     1 2pz     1 2pz     1 2pz     1 2pz     1 2pz  
                                   1 2pz     1 2pz     1 2pz     1 2pz     1 2pz     1 2pz     1 2pz     1 2pz     1 2pz     1 2pz  
                                   1 2pz     1 4f0     1 4f2+    1 4f0     1 4f2+    1 4f0     1 4f2+    1 4f0     1 4f2+    1 4f0  
                                   1 4f2+    1 6h2+    1 6h4+    1 6h0     1 6h2+    1 6h4+    1 6h0     1 6h2+    1 6h4+    1 6h0  


   1.5   2    -2.7646  -18.4611  0.000000  0.000001  0.000001  0.000022  0.000019  0.000275  0.000004  0.001981  0.008454 -0.073428
                                -0.117258  0.207505  0.482731  0.378678  0.158744  0.014033 -0.000970  0.000646  0.073312 -0.076954
                                -0.000182  0.000409  0.000106  0.001848  0.000330  0.002260  0.000500  0.000434  0.000205 -0.000040
                                -0.000001 -0.000010 -0.000066 -0.000018 -0.000016 -0.000113 -0.000028  0.000008  0.000048  0.000016

   2.5   0     0.0182   -2.2919  0.000000 -0.000000  0.000001 -0.000005  0.000013 -0.000068  0.000149 -0.000610  0.000932 -0.001586
                                -0.157759  0.030689  0.611056 -0.086240  0.029597  0.013891  0.286553 -0.151682  0.148718 -0.642159
                                 0.979884 -0.000034 -0.000002 -0.000192 -0.000013 -0.000016  0.000002  0.000942  0.000091  0.002374
                                 0.000276  0.000003  0.000017  0.000005  0.000004  0.000029  0.000008 -0.000018 -0.000121 -0.000031

   3.5   0     0.0599   -2.7614 -0.000000  0.000000 -0.000003  0.000008 -0.000044  0.000106 -0.000433  0.001086 -0.005406  0.029660
                                 0.499691 -0.165912 -1.951099  0.093825 -0.125503  0.288767 -0.181147  1.597619 -0.459660  1.894083
                                -1.345981 -0.000056 -0.000004 -0.000303 -0.000020 -0.000027  0.000003  0.001583  0.000153  0.003678
                                 0.000425  0.000004  0.000028  0.000008  0.000007  0.000045  0.000012 -0.000029 -0.000194 -0.000050

                                   1 3d1+    1 3d1+    1 3d1+    1 3d1+    1 3d1+    1 3d1+    1 3d1+    1 3d1+    1 3d1+    1 3d1+ 
                                   1 3d1+    1 3d1+    1 3d1+    1 3d1+    1 5g1+    1 5g3+    1 5g1+    1 5g3+    1 5g1+    1 5g3+ 
                                   1 5g1+    1 5g3+ 

   1.6   +    -0.6974  -13.5424  0.000189  0.001896  0.015766  0.061435  0.139983  0.236976  0.320743  0.304882  0.187122  0.053110
                                 0.001701  0.013234  0.014169  0.000207  0.000579 -0.000153  0.001642 -0.000480  0.002294 -0.000519
                                 0.000886 -0.000042

   2.6   0     0.0677   -1.6825 -0.000011 -0.000002 -0.000646 -0.000166 -0.019832 -0.133121 -0.064377  0.033862 -0.065790  0.137172
                                -0.341387  0.052617  0.126714  1.184052 -0.000016  0.000004 -0.000032  0.000011 -0.000069  0.000011
                                 0.000157 -0.000012

   3.6   0     0.2155   -2.6063 -0.000005 -0.000362 -0.001159 -0.011428  0.030987  0.346088  0.129448 -0.158782  0.180216 -0.380021
                                 1.604673 -0.157236 -0.376428 -0.821333 -0.000078  0.000019 -0.000150  0.000054 -0.000305  0.000048
                                 0.000874 -0.000080

                                   1 3d1-    1 3d1-    1 3d1-    1 3d1-    1 3d1-    1 3d1-    1 3d1-    1 3d1-    1 3d1-    1 3d1- 
                                   1 3d1-    1 3d1-    1 3d1-    1 3d1-    1 5g1-    1 5g3-    1 5g1-    1 5g3-    1 5g1-    1 5g3- 
                                   1 5g1-    1 5g3- 

   1.7   +    -0.6919  -13.5296  0.000189  0.001894  0.015754  0.061386  0.139864  0.236738  0.320398  0.304811  0.187810  0.053828
                                 0.001788  0.013216  0.014148  0.000203  0.000661  0.000260  0.001881  0.000778  0.002620  0.000974
                                 0.001003  0.000254

   2.7   0     0.0677   -1.6821 -0.000011 -0.000002 -0.000648 -0.000170 -0.019855 -0.133235 -0.064441  0.033864 -0.065891  0.137130
                                -0.341930  0.052658  0.126812  1.184355 -0.000019 -0.000007 -0.000037 -0.000017 -0.000079 -0.000026
                                 0.000176  0.000049

   3.7   0     0.2157   -2.6053 -0.000005 -0.000363 -0.001162 -0.011451  0.031037  0.346689  0.129664 -0.159110  0.180277 -0.381540
                                 1.605696 -0.157512 -0.377086 -0.821222 -0.000089 -0.000034 -0.000173 -0.000078 -0.000349 -0.000116
                                 0.000984  0.000283

                                   1 4f2-    1 4f2-    1 4f2-    1 4f2-    1 4f2-    1 6h4-    1 6h2-    1 6h4-    1 6h2-    1 6h4- 
                                   1 6h2- 

   1.8   0     0.5884   -3.1440  0.003948 -0.011240  0.047278 -0.117071  1.053567  0.000003  0.000020 -0.000008 -0.000047  0.000078
                                 0.000479

   2.8   0     1.7662   -3.7308 -0.005949  0.069153 -0.068419  1.202311 -0.550710  0.000016  0.000102 -0.000010 -0.000037  0.000474
                                 0.002931

 HOMO      1.4    -0.663325 =     -18.0500eV
 LUMO      2.5     0.018190 =       0.4950eV
 LUMO-HOMO         0.681515 =      18.5450eV


 **********************************************************************************************************************************
 DATASETS  * FILE   NREC   LENGTH (MB)   RECORD NAMES
              1      20      269.78       500      610      700      900      950      970     1000      129      960     1100   
                                          VAR    BASINP    GEOM    SYMINP    ZMAT    AOBASIS   BASIS     P2S    ABASIS      S 
                                         1400     1410     1420     1200     1210     1080     1600     1650     1300     1700   
                                           T        V       ECP      H0       H01     AOSYM     SMH    MOLCAS    ERIS     OPER   

              2       5        5.68       200      700     1000      520     4202   
                                        OPTIONS   GEOM     BASIS   MCVARS     RHF  

 PROGRAMS   *        TOTAL       RHF       INT
 CPU TIMES  *        32.58      2.30     30.11
 REAL TIME  *        34.62 SEC
 DISK USED  *         1.04 GB      
 **********************************************************************************************************************************

1PROGRAM * POP (Mulliken population analysis)

 
 Density matrix read from record         4202.2  Type=RHF/CHARGE (state 1.1)
 
 Population analysis by basis function type

 Unique atom        s        p        d        f        g    Total    Charge
   1  FE      3.99947  5.99980  6.00045  0.00020  0.00009 16.00000  + 0.00000


 **********************************************************************************************************************************
 DATASETS  * FILE   NREC   LENGTH (MB)   RECORD NAMES
              1      20      269.78       500      610      700      900      950      970     1000      129      960     1100   
                                          VAR    BASINP    GEOM    SYMINP    ZMAT    AOBASIS   BASIS     P2S    ABASIS      S 
                                         1400     1410     1420     1200     1210     1080     1600     1650     1300     1700   
                                           T        V       ECP      H0       H01     AOSYM     SMH    MOLCAS    ERIS     OPER   

              2       5        5.68       200      700     1000      520     4202   
                                        OPTIONS   GEOM     BASIS   MCVARS     RHF  

 PROGRAMS   *        TOTAL       POP       RHF       INT
 CPU TIMES  *        32.58      0.00      2.30     30.11
 REAL TIME  *        34.64 SEC
 DISK USED  *         1.04 GB      
 **********************************************************************************************************************************

1PROGRAM * MULTI (Direct Multiconfiguration SCF)       Authors: P.J. Knowles, H.-J. Werner (1984)     S.T. Elbert (1988)


 Number of closed-shell orbitals:   5 (   2   1   1   0   1   0   0   0 )
 Number of active  orbitals:        5 (   2   0   0   1   0   1   1   0 )
 Number of external orbitals:     252 (  61  39  39  21  39  21  21  11 )

 State symmetry 1

 Number of electrons:     6    Spin symmetry=Quintet   Space symmetry=1
 Number of states:        2
 Number of CSFs:          2   (2 determinants, 5 intermediate states)

 State symmetry 2

 Number of electrons:     6    Spin symmetry=Quintet   Space symmetry=4
 Number of states:        1
 Number of CSFs:          1   (1 determinants, 5 intermediate states)

 State symmetry 3

 Number of electrons:     6    Spin symmetry=Quintet   Space symmetry=6
 Number of states:        1
 Number of CSFs:          1   (1 determinants, 5 intermediate states)

 State symmetry 4

 Number of electrons:     6    Spin symmetry=Quintet   Space symmetry=7
 Number of states:        1
 Number of CSFs:          1   (1 determinants, 5 intermediate states)

 Molecular orbitals read from record     4202.2  Type=RHF/CANONICAL (state 1.1)
 *** IN SYMMETRY 1 ORBITAL  1 SYMMETRY CONTAMINATION OF 0.328D-02 HAS BEEN REMOVED
 *** IN SYMMETRY 1 ORBITAL  2 SYMMETRY CONTAMINATION OF 0.131D-01 HAS BEEN REMOVED
 *** IN SYMMETRY 1 ORBITAL  3 SYMMETRY CONTAMINATION OF 0.758D-01 HAS BEEN REMOVED
 *** IN SYMMETRY 1 ORBITAL  4 SYMMETRY CONTAMINATION OF 0.993D-01 HAS BEEN REMOVED

 EXTRA SYMMETRY OF MOS IN SYMMETRY 1:   1 1 3 2 1 2 3 1 2 3   1 2 3 2 3 4 6 5 1 2   3 4 6 5 1 2 3 4 6 1   1 2 3 2 3 1 4 6 5 2
                                        3 1 2 3 1 1 2 3 1 2   3 1 1 2 3 1 1 1 1 1   1 1 1 1 5
 *** IN SYMMETRY 2 ORBITAL  1 SYMMETRY CONTAMINATION OF 0.692D-02 HAS BEEN REMOVED
 EXTRA SYMMETRY OF MOS IN SYMMETRY 2:   1 1 1 1 2 3 1 2 3 1   2 3 1 4 5 6 1 2 3 4   5 6 1 2 3 4 5 6 1 1   1 1 1 1 1 1 1 1 1 1
 *** IN SYMMETRY 3 ORBITAL  1 SYMMETRY CONTAMINATION OF 0.638D-02 HAS BEEN REMOVED
 EXTRA SYMMETRY OF MOS IN SYMMETRY 3:   1 1 1 1 2 3 1 2 3 1   2 3 1 4 5 6 1 2 3 4   5 6 1 2 3 4 5 6 1 1   1 1 1 1 1 1 1 1 1 1
 *** IN SYMMETRY 4 ORBITAL  1 SYMMETRY CONTAMINATION OF 0.351D-02 HAS BEEN REMOVED
 EXTRA SYMMETRY OF MOS IN SYMMETRY 4:   1 1 1 1 1 2 3 1 2 3   1 2 3 1 1 2 3 1 1 1   1 1
 *** IN SYMMETRY 5 ORBITAL  1 SYMMETRY CONTAMINATION OF 0.403D-02 HAS BEEN REMOVED
 EXTRA SYMMETRY OF MOS IN SYMMETRY 5:   1 1 1 1 2 3 1 2 3 1   2 3 1 6 4 5 1 2 3 6   4 5 1 2 3 6 4 5 1 1   1 1 1 1 1 1 1 1 1 1
 *** IN SYMMETRY 6 ORBITAL  1 SYMMETRY CONTAMINATION OF 0.486D-02 HAS BEEN REMOVED
 EXTRA SYMMETRY OF MOS IN SYMMETRY 6:   1 1 1 1 1 2 3 1 2 3   1 2 3 1 1 2 3 1 1 1   1 1
 *** IN SYMMETRY 7 ORBITAL  1 SYMMETRY CONTAMINATION OF 0.620D-02 HAS BEEN REMOVED
 EXTRA SYMMETRY OF MOS IN SYMMETRY 7:   1 1 1 1 1 2 3 1 2 3   1 2 3 1 1 2 3 1 1 1   1 1
 EXTRA SYMMETRY OF MOS IN SYMMETRY 8:   1 1 1 3 2 1 3 2 1 3   2

 Wavefunction dump at record             5202.2

 Convergence thresholds  0.10E-01 (gradient)  0.10E-05 (energy)  0.10E-02 (step length)

 Weight factors for state symmetry  1:    0.20000   0.20000
 Weight factors for state symmetry  2:    0.20000
 Weight factors for state symmetry  3:    0.20000
 Weight factors for state symmetry  4:    0.20000

 Number of orbital rotations:      428   (     4 Core/Active    239 Core/Virtual   0 Active/Active    185 Active/Virtual)
 Total number of variables:        435


 ITER. MIC  NCI  NEG     ENERGY(VAR)     ENERGY(PROJ)   ENERGY CHANGE     GRAD(0)  GRAD(ORB)   GRAD(CI)     STEP       TIME

   1   48   16    0    -123.11198820    -123.11473924   -0.00275104    7.32067483 0.00000000 0.00000000  0.47D-01      0.76
   2   20   20    0    -123.08962537    -123.11456259   -0.02493723   *********** 0.00000496 0.00000000  0.68D-03      1.51
   3   35   24    0    -123.11456259    -123.11456259    0.00000000    0.00000498 0.00000000 0.00000000  0.17D-06      2.28

 ** WVFN ****  CONVERGENCE REACHED, FINAL GRADIENT:  0.38D-10



 Results for state 1.1
 =====================

 !MCSCF STATE 1.1 Energy             -123.114562590984
 Nuclear energy                         0.00000000
 Kinetic energy                        72.70237825
 One electron energy                 -216.66856382
 Two electron energy                   93.55400123
 Virial ratio                           2.69340489

 !MCSCF STATE 1.1 Dipole moment         0.00000000     0.00000000     0.00000000
 Dipole moment /Debye                   0.00000000     0.00000000     0.00000000

 Results for state 2.1
 =====================

 !MCSCF STATE 2.1 Energy             -123.114562590984
 Nuclear energy                         0.00000000
 Kinetic energy                        72.70237825
 One electron energy                 -216.66856382
 Two electron energy                   93.55400123
 Virial ratio                           2.69340489

 !MCSCF STATE 2.1 Dipole moment         0.00000000     0.00000000     0.00000000
 Dipole moment /Debye                   0.00000000     0.00000000     0.00000000



 Results for state 1.4
 =====================

 !MCSCF STATE 1.4 Energy             -123.114562590984
 Nuclear energy                         0.00000000
 Kinetic energy                        72.70237825
 One electron energy                 -216.66856382
 Two electron energy                   93.55400123
 Virial ratio                           2.69340489

 !MCSCF STATE 1.4 Dipole moment         0.00000000     0.00000000     0.00000000
 Dipole moment /Debye                   0.00000000     0.00000000     0.00000000



 Results for state 1.6
 =====================

 !MCSCF STATE 1.6 Energy             -123.114562590984
 Nuclear energy                         0.00000000
 Kinetic energy                        72.70237825
 One electron energy                 -216.66856382
 Two electron energy                   93.55400123
 Virial ratio                           2.69340489

 !MCSCF STATE 1.6 Dipole moment         0.00000000     0.00000000     0.00000000
 Dipole moment /Debye                   0.00000000     0.00000000     0.00000000



 Results for state 1.7
 =====================

 !MCSCF STATE 1.7 Energy             -123.114562590984
 Nuclear energy                         0.00000000
 Kinetic energy                        72.70237825
 One electron energy                 -216.66856382
 Two electron energy                   93.55400123
 Virial ratio                           2.69340489

 !MCSCF STATE 1.7 Dipole moment         0.00000000     0.00000000     0.00000000
 Dipole moment /Debye                   0.00000000     0.00000000     0.00000000

 State-averaged charge density matrix saved on record  5202.2 (density set 1)


 NATURAL ORBITALS (state averaged)
 =================================

   Orb     Occ        Energy       Coefficients

                                   1 1s      1 1s      1 1s      1 1s      1 1s      1 1s      1 1s      1 1s      1 1s      1 1s   
                                   1 1s      1 1s      1 1s      1 1s      1 1s      1 1s      1 1s      1 1s      1 1s      1 1s   
                                   1 1s      1 1s      1 1s      1 1s      1 1s      1 3d0     1 3d2+    1 3d0     1 3d2+    1 3d0  
                                   1 3d2+    1 3d0     1 3d2+    1 3d0     1 3d2+    1 3d0     1 3d2+    1 3d0     1 3d2+    1 3d0  
                                   1 3d2+    1 3d0     1 3d2+    1 3d0     1 3d2+    1 3d0     1 3d2+    1 3d0     1 3d2+    1 3d0  
                                   1 3d2+    1 3d0     1 3d2+    1 5g0     1 5g4+    1 5g2+    1 5g0     1 5g4+    1 5g2+    1 5g0  
                                   1 5g4+    1 5g2+    1 5g0     1 5g4+    1 5g2+ 

   1.1  2.00000    -4.323072     0.000000  0.000000  0.000000  0.000001  0.000001  0.000010  0.000003  0.000092 -0.000024  0.000665
                                -0.000706  0.004232 -0.014015  0.096696 -0.152372 -0.774769  0.230153  0.635269  0.302060  0.008023
                                -0.003123  0.001168  0.434691  0.094932 -0.000291  0.000000  0.000000  0.000000  0.000000  0.000000
                                 0.000000  0.000000  0.000000  0.000000  0.000000  0.000000  0.000000  0.000000  0.000000  0.000000
                                 0.000000  0.000000  0.000000  0.000000  0.000000  0.000000  0.000000  0.000000  0.000000  0.000000
                                 0.000000  0.000000  0.000000  0.000000  0.000000  0.000000  0.000000  0.000000  0.000000  0.000000
                                 0.000000  0.000000  0.000000  0.000000  0.000000

   2.1  2.00000    -0.262401    -0.000000 -0.000000 -0.000000 -0.000000 -0.000000 -0.000002 -0.000001 -0.000022  0.000004 -0.000160
                                 0.000157 -0.001002  0.003304 -0.023753  0.041056  0.173352 -0.082246 -0.264352 -0.200780  0.356477
                                 0.576046  0.230432 -0.086015  0.024645 -0.000822  0.000000  0.000000  0.000000  0.000000  0.000000
                                 0.000000  0.000000  0.000000  0.000000  0.000000  0.000000  0.000000  0.000000  0.000000  0.000000
                                 0.000000  0.000000  0.000000  0.000000  0.000000  0.000000  0.000000  0.000000  0.000000  0.000000
                                 0.000000  0.000000  0.000000  0.000000  0.000000  0.000000  0.000000  0.000000  0.000000  0.000000
                                 0.000000  0.000000  0.000000  0.000000  0.000000

   3.1  1.20000    -0.247739     0.000000  0.000000  0.000000  0.000000  0.000000  0.000000  0.000000  0.000000  0.000000  0.000000
                                 0.000000  0.000000  0.000000  0.000000  0.000000  0.000000  0.000000  0.000000  0.000000  0.000000
                                 0.000000  0.000000  0.000000  0.000000  0.000000  0.000187  0.000000  0.001875  0.000000  0.015596
                                 0.000000  0.060788  0.000000  0.138424  0.000000  0.233698  0.000000  0.315999  0.000000  0.304190
                                 0.000000  0.196170  0.000000  0.062306  0.000000  0.002915  0.000000  0.013039  0.000000  0.013937
                                 0.000000  0.000151  0.000000  0.000000  0.000000  0.000000  0.000000  0.000000  0.000000  0.000000
                                 0.000000  0.000000  0.000000  0.000000  0.000000

   4.1  1.20000    -0.247739     0.000000  0.000000  0.000000  0.000000  0.000000  0.000000  0.000000  0.000000  0.000000  0.000000
                                 0.000000  0.000000  0.000000  0.000000  0.000000  0.000000  0.000000  0.000000  0.000000  0.000000
                                 0.000000  0.000000  0.000000  0.000000  0.000000  0.000000  0.000187  0.000000  0.001875  0.000000
                                 0.015596  0.000000  0.060788  0.000000  0.138424  0.000000  0.233698  0.000000  0.315999  0.000000
                                 0.304190  0.000000  0.196170  0.000000  0.062306  0.000000  0.002915  0.000000  0.013039  0.000000
                                 0.013937  0.000000  0.000151  0.000000  0.000000  0.000000  0.000000  0.000000  0.000000  0.000000
                                 0.000000  0.000000  0.000000  0.000000  0.000000

                                   1 2px     1 2px     1 2px     1 2px     1 2px     1 2px     1 2px     1 2px     1 2px     1 2px  
                                   1 2px     1 2px     1 2px     1 2px     1 2px     1 2px     1 2px     1 2px     1 2px     1 2px  
                                   1 2px     1 4f1+    1 4f3+    1 4f1+    1 4f3+    1 4f1+    1 4f3+    1 4f1+    1 4f3+    1 4f1+ 
                                   1 4f3+    1 6h1+    1 6h3+    1 6h5+    1 6h1+    1 6h3+    1 6h5+    1 6h1+    1 6h3+    1 6h5+ 


   1.2  2.00000    -2.759295     0.000000  0.000001  0.000001  0.000022  0.000019  0.000275  0.000004  0.001981  0.008442 -0.073490
                                -0.118318  0.207965  0.486332  0.377407  0.160749  0.014918 -0.001062  0.000694  0.074585 -0.081725
                                -0.000197  0.000000  0.000000  0.000000  0.000000  0.000000  0.000000  0.000000  0.000000  0.000000
                                 0.000000  0.000000  0.000000  0.000000  0.000000  0.000000  0.000000  0.000000  0.000000  0.000000

                                   1 2py     1 2py     1 2py     1 2py     1 2py     1 2py     1 2py     1 2py     1 2py     1 2py  
                                   1 2py     1 2py     1 2py     1 2py     1 2py     1 2py     1 2py     1 2py     1 2py     1 2py  
                                   1 2py     1 4f1-    1 4f3-    1 4f1-    1 4f3-    1 4f1-    1 4f3-    1 4f1-    1 4f3-    1 4f1- 
                                   1 4f3-    1 6h1-    1 6h3-    1 6h5-    1 6h1-    1 6h3-    1 6h5-    1 6h1-    1 6h3-    1 6h5- 


   1.3  2.00000    -2.759295     0.000000  0.000001  0.000001  0.000022  0.000019  0.000275  0.000004  0.001981  0.008442 -0.073490
                                -0.118318  0.207965  0.486332  0.377407  0.160749  0.014918 -0.001062  0.000694  0.074585 -0.081725
                                -0.000197  0.000000  0.000000  0.000000  0.000000  0.000000  0.000000  0.000000  0.000000  0.000000
                                 0.000000  0.000000  0.000000  0.000000  0.000000  0.000000  0.000000  0.000000  0.000000  0.000000

                                   1 3d2-    1 3d2-    1 3d2-    1 3d2-    1 3d2-    1 3d2-    1 3d2-    1 3d2-    1 3d2-    1 3d2- 
                                   1 3d2-    1 3d2-    1 3d2-    1 3d2-    1 5g2-    1 5g4-    1 5g2-    1 5g4-    1 5g2-    1 5g4- 
                                   1 5g2-    1 5g4- 

   1.4  1.20000    -0.247739     0.000187  0.001875  0.015596  0.060788  0.138424  0.233698  0.315999  0.304190  0.196170  0.062306
                                 0.002915  0.013039  0.013937  0.000151  0.000000  0.000000  0.000000  0.000000  0.000000  0.000000
                                 0.000000  0.000000

                                   1 2pz     1 2pz     1 2pz     1 2pz     1 2pz     1 2pz     1 2pz     1 2pz     1 2pz     1 2pz  
                                   1 2pz     1 2pz     1 2pz     1 2pz     1 2pz     1 2pz     1 2pz     1 2pz     1 2pz     1 2pz  
                                   1 2pz     1 4f0     1 4f2+    1 4f0     1 4f2+    1 4f0     1 4f2+    1 4f0     1 4f2+    1 4f0  
                                   1 4f2+    1 6h2+    1 6h4+    1 6h0     1 6h2+    1 6h4+    1 6h0     1 6h2+    1 6h4+    1 6h0  


   1.5  2.00000    -2.759295     0.000000  0.000001  0.000001  0.000022  0.000019  0.000275  0.000004  0.001981  0.008442 -0.073490
                                -0.118318  0.207965  0.486332  0.377407  0.160749  0.014918 -0.001062  0.000694  0.074585 -0.081725
                                -0.000197  0.000000  0.000000  0.000000  0.000000  0.000000  0.000000  0.000000  0.000000  0.000000
                                 0.000000  0.000000  0.000000  0.000000  0.000000  0.000000  0.000000  0.000000  0.000000  0.000000

                                   1 3d1+    1 3d1+    1 3d1+    1 3d1+    1 3d1+    1 3d1+    1 3d1+    1 3d1+    1 3d1+    1 3d1+ 
                                   1 3d1+    1 3d1+    1 3d1+    1 3d1+    1 5g1+    1 5g3+    1 5g1+    1 5g3+    1 5g1+    1 5g3+ 
                                   1 5g1+    1 5g3+ 

   1.6  1.20000    -0.247739     0.000187  0.001875  0.015596  0.060788  0.138424  0.233698  0.315999  0.304190  0.196170  0.062306
                                 0.002915  0.013039  0.013937  0.000151  0.000000  0.000000  0.000000  0.000000  0.000000  0.000000
                                 0.000000  0.000000

                                   1 3d1-    1 3d1-    1 3d1-    1 3d1-    1 3d1-    1 3d1-    1 3d1-    1 3d1-    1 3d1-    1 3d1- 
                                   1 3d1-    1 3d1-    1 3d1-    1 3d1-    1 5g1-    1 5g3-    1 5g1-    1 5g3-    1 5g1-    1 5g3- 
                                   1 5g1-    1 5g3- 

   1.7  1.20000    -0.247739     0.000187  0.001875  0.015596  0.060788  0.138424  0.233698  0.315999  0.304190  0.196170  0.062306
                                 0.002915  0.013039  0.013937  0.000151  0.000000  0.000000  0.000000  0.000000  0.000000  0.000000
                                 0.000000  0.000000
 

 EXTRA SYMMETRY OF MOS IN SYMMETRY 1:   1 1 2 3 1 3 2 1 3 2   1 2 3 2 3 6 5 4 1 3   2 4 5 6 1 2 3 4 6 5   1 3 2 2 3 1 4 6 5 2
                                        3 1 3 2 1 1 2 3 1 3   2 1 1 3 2 1 1 1 1 1   1 1 1 1 1
 EXTRA SYMMETRY OF MOS IN SYMMETRY 2:   1 1 1 1 3 2 1 3 2 1   3 2 1 5 6 4 1 2 3 5   4 6 1 2 3 6 5 4 1 1   1 1 1 1 1 1 1 1 1 1
 EXTRA SYMMETRY OF MOS IN SYMMETRY 3:   1 1 1 1 2 3 1 2 3 1   3 2 1 6 5 4 1 2 3 5   4 6 1 3 2 4 5 6 1 1   1 1 1 1 1 1 1 1 1 1
 EXTRA SYMMETRY OF MOS IN SYMMETRY 4:   1 1 1 1 1 2 3 1 3 2   1 2 3 1 1 3 2 1 1 1   1 1
 EXTRA SYMMETRY OF MOS IN SYMMETRY 5:   1 1 1 1 2 3 1 3 2 1   2 3 1 6 5 4 1 2 3 6   5 4 1 2 3 4 5 6 1 1   1 1 1 1 1 1 1 1 1 1
 EXTRA SYMMETRY OF MOS IN SYMMETRY 6:   1 1 1 1 1 3 2 1 3 2   1 3 2 1 1 2 3 1 1 1   1 1
 EXTRA SYMMETRY OF MOS IN SYMMETRY 7:   1 1 1 1 1 2 3 1 3 2   1 3 2 1 1 2 3 1 1 1   1 1
 EXTRA SYMMETRY OF MOS IN SYMMETRY 8:   1 1 1 2 3 1 2 3 1 2   3

 Natural orbital dump (state averaged) at molpro section  5202.2    (Orbital set 2)


 CI vector for state symmetry 1
 ==============================

 a2 a a a          0.0000000   1.0000000
 2a a a a          1.0000000   0.0000000

 TOTAL ENERGIES                      -123.11456259  -123.11456259

 CI vector for state symmetry 2
 ==============================

 aa 2 a a          1.0000000

 TOTAL ENERGIES                      -123.11456259

 CI vector for state symmetry 3
 ==============================

 aa a 2 a          1.0000000

 TOTAL ENERGIES                      -123.11456259

 CI vector for state symmetry 4
 ==============================

 aa a a 2          1.0000000

 TOTAL ENERGIES                      -123.11456259



 **********************************************************************************************************************************
 DATASETS  * FILE   NREC   LENGTH (MB)   RECORD NAMES
              1      21      275.96       500      610      700      900      950      970     1000      129      960     1100   
                                          VAR    BASINP    GEOM    SYMINP    ZMAT    AOBASIS   BASIS     P2S    ABASIS      S 
                                         1400     1410     1420     1200     1210     1080     1600     1650     1300     1700   
                                           T        V       ECP      H0       H01     AOSYM     SMH    MOLCAS    ERIS     OPER   
                                         1380   
                                         JKOP   

              2       6        8.52       200      700     1000      520     4202     5202   
                                        OPTIONS   GEOM     BASIS   MCVARS     RHF     MCSCF   

 PROGRAMS   *        TOTAL     MULTI       POP       RHF       INT
 CPU TIMES  *        35.65      3.07      0.00      2.30     30.11
 REAL TIME  *        38.27 SEC
 DISK USED  *         1.04 GB      
 **********************************************************************************************************************************

1PROGRAM * RHF-SCF (OPEN SHELL)       Authors: W. Meyer, H.-J. Werner


 NUMBER OF ELECTRONS:      10+    6-    SPACE SYMMETRY=1    SPIN SYMMETRY: Quintet 
 CONVERGENCE THRESHOLDS:    1.00E-05 (Density)    1.00E-07 (Energy)
 MAX. NUMBER OF ITERATIONS:        0
 INTERPOLATION TYPE:            DIIS
 INTERPOLATION STEPS:              2 (START)      1 (STEP)
 LEVEL SHIFTS:                 -0.30 (CLOSED)  0.00 (OPEN) 


 Singly occupied orbitals:      4.1       1.4       1.6       1.7
 Molecular orbitals read from record     5202.2  Type=MCSCF/NATURAL  

 Molecular orbital dump at record        2101.2

 ITERATION    DDIFF          GRAD             ENERGY        2-EL.EN.            DIPOLE MOMENTS         DIIS   ORB.
    1      0.000D+00      0.000D+00      -123.11456259    187.108002    0.00000    0.00000    0.00000    0    start

 Final alpha occupancy:   4   1   1   1   1   1   1   0
 Final beta  occupancy:   3   1   1   0   1   0   0   0

 !RHF STATE 1.1 Energy               -123.114562590984
 Nuclear energy                         0.00000000
 One-electron energy                 -216.66856382
 Two-electron energy                   93.55400123
 Virial quotient                       -1.69340489
 !RHF STATE 1.1 Dipole moment           0.00000000     0.00000000     0.00000000
 Dipole moment /Debye                   0.00000000     0.00000000     0.00000000

 Orbital energies:

         1.1          2.1          3.1          4.1          5.1          6.1
     -4.323072    -0.262401    -0.247739    -0.247739     0.027577     0.067944

         1.2          2.2          3.2
     -2.759295     0.020225     0.065194

         1.3          2.3          3.3
     -2.759295     0.020225     0.065194

         1.4          2.4          3.4
     -0.247739     0.067944     0.219361

         1.5          2.5          3.5
     -2.759295     0.020225     0.065194

         1.6          2.6          3.6
     -0.247739     0.067944     0.219361

         1.7          2.7          3.7
     -0.247739     0.067944     0.219361

         1.8          2.8
      0.591332     1.800580

 HOMO      4.1    -0.247739 =      -6.7413eV
 LUMO      2.2     0.020225 =       0.5504eV
 LUMO-HOMO         0.267964 =       7.2917eV


 **********************************************************************************************************************************
 DATASETS  * FILE   NREC   LENGTH (MB)   RECORD NAMES
              1      21      275.96       500      610      700      900      950      970     1000      129      960     1100   
                                          VAR    BASINP    GEOM    SYMINP    ZMAT    AOBASIS   BASIS     P2S    ABASIS      S 
                                         1400     1410     1420     1200     1210     1080     1600     1650     1300     1700   
                                           T        V       ECP      H0       H01     AOSYM     SMH    MOLCAS    ERIS     OPER   
                                         1380   
                                         JKOP   

              2       7       11.63       200      700     1000      520     4202     5202     2101   
                                        OPTIONS   GEOM     BASIS   MCVARS     RHF     MCSCF     RHF  

 PROGRAMS   *        TOTAL       RHF     MULTI       POP       RHF       INT
 CPU TIMES  *        35.83      0.18      3.07      0.00      2.30     30.11
 REAL TIME  *        38.50 SEC
 DISK USED  *         1.04 GB      
 **********************************************************************************************************************************
 SETTING SCF(1)         =      -123.11456259  AU                              
 SETTING _CC_NORM_MAX   =         2.00000000                                  


1PROGRAM * CCSD (Restricted open-shell coupled cluster)     Authors: C. Hampel, H.-J. Werner, 1991, M. Deegan, P.J. Knowles, 1992


 Convergence thresholds:  THRVAR = 1.00D-08  THRDEN = 1.00D-06

 CCSD(T)     terms to be evaluated (factor= 1.000)


 Number of closed-shell orbitals:   6 (   3   1   1   0   1   0   0   0 )
 Number of active  orbitals:        4 (   1   0   0   1   0   1   1   0 )
 Number of external orbitals:     252 (  61  39  39  21  39  21  21  11 )

 Memory could be reduced to 37.59 Mwords without degradation in triples

 Number of N-1 electron functions:              16
 Number of N-2 electron functions:             120
 Number of singly external CSFs:               734
 Number of doubly external CSFs:            789063
 Total number of CSFs:                      789797

 Molecular orbitals read from record     2101.2  Type=RHF/CANONICAL (state 1.1)

 Integral transformation finished. Total CPU:   1.06 sec, npass=  1  Memory used:   7.13 MW

 Starting RMP2 calculation

 Wavefunction is spin-projected

 ITER.      SQ.NORM     CORR.ENERGY   TOTAL ENERGY   ENERGY CHANGE        DEN1      VAR(S)    VAR(P)  DIIS     TIME
   1      1.10459493    -0.68970817  -123.80427076    -0.68970817    -0.00150590  0.21D-04  0.90D-03  1  1     1.11
   2      1.10700114    -0.69131774  -123.80588033    -0.00160957    -0.00002085  0.34D-06  0.21D-04  2  2     1.14
   3      1.10738662    -0.69146550  -123.80602809    -0.00014776    -0.00000015  0.76D-08  0.13D-06  3  3     1.18
   4      1.10741028    -0.69147187  -123.80603446    -0.00000637    -0.00000000  0.24D-09  0.10D-08  4  4     1.23
   5      1.10741032    -0.69147174  -123.80603434     0.00000012    -0.00000000  0.12D-10  0.15D-10  5  5     1.27

 Norm of t1 vector:      0.05622784      S-energy:    -0.00868185      T1 diagnostic:  0.00736164
 Norm of t2 vector:      0.32287575      P-energy:    -0.68278989
                                         Alpha-Beta:  -0.47119982
                                         Alpha-Alpha: -0.15645853
                                         Beta-Beta:   -0.05513154

 Spin contamination <S**2-Sz**2-Sz>     0.00000000
  Reference energy                   -123.114562590984
  RHF-RMP2 correlation energy          -0.691471744890
 !RHF-RMP2 energy                    -123.806034335873
 (NB above energy spin projected)

 Starting RCCSD calculation

 ITER.      SQ.NORM     CORR.ENERGY   TOTAL ENERGY   ENERGY CHANGE        DEN1      VAR(S)    VAR(P)  DIIS     TIME
   1      1.10645932    -0.66838068  -123.78294327    -0.66838068    -0.01277475  0.38D-02  0.27D-02  1  1     3.08
   2      1.12158412    -0.67966242  -123.79422501    -0.01128174    -0.00164444  0.64D-03  0.70D-03  2  2     4.88
   3      1.13319457    -0.68270531  -123.79726790    -0.00304289    -0.00027217  0.19D-03  0.89D-04  3  3     6.67
   4      1.14024718    -0.68437754  -123.79894013    -0.00167223    -0.00002398  0.11D-04  0.81D-05  4  4     8.46
   5      1.14203682    -0.68465189  -123.79921448    -0.00027435    -0.00000256  0.16D-05  0.86D-06  5  5    10.25
   6      1.14244507    -0.68470166  -123.79926425    -0.00004976    -0.00000027  0.92D-07  0.13D-06  6  6    12.05
   7      1.14250301    -0.68470804  -123.79927064    -0.00000639    -0.00000004  0.20D-07  0.15D-07  6  2    13.88
   8      1.14250395    -0.68470665  -123.79926924     0.00000140    -0.00000000  0.10D-08  0.19D-08  6  1    15.69
   9      1.14249731    -0.68470562  -123.79926821     0.00000103    -0.00000000  0.19D-09  0.29D-09  6  3    17.52
  10      1.14249427    -0.68470524  -123.79926783     0.00000038    -0.00000000  0.12D-10  0.47D-10  6  5    19.37

 Norm of t1 vector:      0.14587026      S-energy:    -0.01096545      T1 diagnostic:  0.02337268
                                                                       D1 diagnostic:  0.07213455
 Norm of t2 vector:      0.34816109      P-energy:    -0.67373979
                                         Alpha-Beta:  -0.48066365
                                         Alpha-Alpha: -0.14065474
                                         Beta-Beta:   -0.05242141

 Singles amplitudes (print threshold =  0.500E-01):

         I         SYM. A    A   T(IA) [Alpha-Alpha]

         2         1         5     -0.06785562
         2         1         8      0.05175783
 
         I         SYM. A    A   T(IA) [Beta-Beta]

         3         1         9      0.06023424

 Doubles amplitudes (print threshold =  0.500E-01):

         I         J         SYM. A    SYM. B    A         B      T(IJ, AB) [Alpha-Beta]

         2         2         2         2         2         2     -0.05401441
         2         2         3         3         2         2     -0.05401441
         2         2         5         5         2         2     -0.05018915

 Spin contamination <S**2-Sz**2-Sz>     0.00000000

 Memory could be reduced to 41.04 Mwords without degradation in triples
 

  Correlated core orbitals:             1.1       1.2       1.3       1.5
  Orbital energies:                    -4.5079   -3.0098   -3.0098   -2.9305
 
  RCCSD core-core energy               -0.168939536614
  RCCSD core-valence energy            -0.309137945712
  RCCSD valence correlation energy     -0.206627758392
 

 RESULTS
 =======

  Reference energy                   -123.114562590984
  RCCSD singles energy                 -0.010965448232
  RCCSD pair energy                    -0.673739792487
  RCCSD correlation energy             -0.684705240718
  Triples (T) contribution             -0.021253934371
  Total correlation energy             -0.705959175089
 
  RHF-RCCSD energy                   -123.799267831702
  RHF-RCCSD[T] energy                -123.821475856048
  RHF-RCCSD-T energy                 -123.820334871724
 !RHF-RCCSD(T) energy                -123.820521766073

 Program statistics:

 Available memory in ccsd:               511999000
 Min. memory needed in ccsd:               2477926
 Max. memory used in ccsd:                 3430812
 Max. memory used in cckext:               2612165 (10 integral passes)
 Max. memory used in cckint:               7131266 ( 1 integral passes)



 **********************************************************************************************************************************
 DATASETS  * FILE   NREC   LENGTH (MB)   RECORD NAMES
              1      21      275.96       500      610      700      900      950      970     1000      129      960     1100   
                                          VAR    BASINP    GEOM    SYMINP    ZMAT    AOBASIS   BASIS     P2S    ABASIS      S 
                                         1400     1410     1420     1200     1210     1080     1600     1650     1300     1700   
                                           T        V       ECP      H0       H01     AOSYM     SMH    MOLCAS    ERIS     OPER   
                                         1380   
                                         JKOP   

              2       7       11.63       200      700     1000      520     4202     5202     2101   
                                        OPTIONS   GEOM     BASIS   MCVARS     RHF     MCSCF     RHF  

 PROGRAMS   *        TOTAL  RCCSD(T)       RHF     MULTI       POP       RHF       INT
 CPU TIMES  *        94.42     58.58      0.18      3.07      0.00      2.30     30.11
 REAL TIME  *       100.43 SEC
 DISK USED  *         1.04 GB      
 **********************************************************************************************************************************
 SETTING CCSD(1)        =      -123.82052177  AU                              

 DO I                   =         2.00000000   

 Running procedure=IS1D7

1PROGRAM * RHF-SCF (OPEN SHELL)       Authors: W. Meyer, H.-J. Werner


 NUMBER OF ELECTRONS:      10+    6-    SPACE SYMMETRY=6    SPIN SYMMETRY: Quintet 
 CONVERGENCE THRESHOLDS:    1.00E-05 (Density)    1.00E-07 (Energy)
 MAX. NUMBER OF ITERATIONS:       60
 INTERPOLATION TYPE:            DIIS
 INTERPOLATION STEPS:              2 (START)      1 (STEP)
 LEVEL SHIFTS:                 -0.30 (CLOSED)  0.00 (OPEN) 


 Singly occupied orbitals:      3.1       4.1       1.4       1.7
 
 Extra symmetries of mos in symmetry 1:   1   3   2   1
 Orbital guess generated from atomic densities. Full valence occupancy:    4   1   1   1   1   1   1   0


 Molecular orbital dump at record        4202.2

 ITERATION    DDIFF          GRAD             ENERGY        2-EL.EN.            DIPOLE MOMENTS         DIIS   ORB.
    1      0.000D+00      0.000D+00      -123.02106110    194.254650    0.00000    0.00000    0.00000    0    start
    2      0.000D+00      0.735D-02      -123.03099738    191.902693    0.00000    0.00000    0.00000    1    diag,B
    3      0.614D-02      0.308D-02      -123.03365663    193.192098    0.00000    0.00000    0.00000    2    diag,B
    4      0.682D-03      0.181D-02      -123.03481447    192.796985    0.00000    0.00000    0.00000    3    diag,B
    5      0.410D-03      0.592D-03      -123.03587224    192.694463    0.00000    0.00000    0.00000    4    diag,B
    6      0.308D-03      0.432D-03      -123.03699917    192.665694    0.00000    0.00000    0.00000    5    diag,B
    7      0.201D-03      0.397D-03      -123.03991830    192.673779    0.00000    0.00000    0.00000    6    fixocc
    8      0.481D-03      0.297D-03      -123.04143266    192.690472    0.00000    0.00000    0.00000    7    diag,B
    9      0.378D-03      0.197D-03      -123.04241804    192.694420    0.00000    0.00000    0.00000    8    diag,B
   10      0.542D-03      0.199D-03      -123.04242044    192.696510    0.00000    0.00000    0.00000    9    orth
   11      0.117D-04      0.156D-03      -123.04246149    192.701806    0.00000    0.00000    0.00000    9    diag,B
   12      0.120D-03      0.287D-04      -123.04246196    192.703986    0.00000    0.00000    0.00000    9    diag,B
   13      0.168D-04      0.174D-04      -123.04246206    192.703579    0.00000    0.00000    0.00000    9    diag,B
   14      0.712D-05      0.182D-05      -123.04246206    192.703810    0.00000    0.00000    0.00000    0    orth

 Final alpha occupancy:   4   1   1   1   1   1   1   0
 Final beta  occupancy:   2   1   1   0   1   1   0   0

 !RHF STATE 1.6 Energy               -123.042462063101
 Nuclear energy                         0.00000000
 One-electron energy                 -219.39436728
 Two-electron energy                   96.35190521
 Virial quotient                       -1.66204352
 !RHF STATE 1.6 Dipole moment           0.00000000     0.00000000     0.00000000
 Dipole moment /Debye                   0.00000000     0.00000000     0.00000000

 ELECTRON ORBITALS
 =================


   Orb  Occ    Energy  Couls-En    Coefficients

                                   1 1s      1 1s      1 1s      1 1s      1 1s      1 1s      1 1s      1 1s      1 1s      1 1s   
                                   1 1s      1 1s      1 1s      1 1s      1 1s      1 1s      1 1s      1 1s      1 1s      1 1s   
                                   1 1s      1 1s      1 1s      1 1s      1 1s      1 3d0     1 3d2+    1 3d0     1 3d2+    1 3d0  
                                   1 3d2+    1 3d0     1 3d2+    1 3d0     1 3d2+    1 3d0     1 3d2+    1 3d0     1 3d2+    1 3d0  
                                   1 3d2+    1 3d0     1 3d2+    1 3d0     1 3d2+    1 3d0     1 3d2+    1 3d0     1 3d2+    1 3d0  
                                   1 3d2+    1 3d0     1 3d2+    1 5g0     1 5g4+    1 5g2+    1 5g0     1 5g4+    1 5g2+    1 5g0  
                                   1 5g4+    1 5g2+    1 5g0     1 5g4+    1 5g2+ 

   1.1   2    -4.1147  -21.4688  0.000000  0.000000  0.000000  0.000001  0.000001  0.000009  0.000003  0.000091 -0.000021  0.000653
                                -0.000682  0.004154 -0.013803  0.095587 -0.149519 -0.797980  0.212453  0.591552  0.319826  0.012884
                                -0.005171  0.002600  0.464594  0.129531 -0.000615 -0.000000 -0.000000 -0.000000 -0.000000 -0.000000
                                -0.000000 -0.000000 -0.000000 -0.000000 -0.000000 -0.000000 -0.000000 -0.000000 -0.000001 -0.000000
                                -0.000000  0.000000  0.000000 -0.000000 -0.000000 -0.000000 -0.000000  0.000000  0.000000  0.000000
                                 0.000000 -0.000000  0.000000 -0.000048  0.000121  0.000214 -0.000069  0.000174  0.000306 -0.000188
                                 0.000477  0.000842 -0.000062  0.000156  0.000276

   2.1   2    -0.3640  -12.4832 -0.000000 -0.000000 -0.000000 -0.000000 -0.000000 -0.000000 -0.000000 -0.000000  0.000000 -0.000000
                                 0.000000 -0.000000  0.000000 -0.000002  0.000003  0.000010 -0.000007 -0.000022 -0.000013  0.000031
                                 0.000037  0.000009 -0.000004  0.000005 -0.000001  0.000087  0.000150  0.000868  0.001504  0.007220
                                 0.012505  0.028145  0.048748  0.064006  0.110861  0.107721  0.186577  0.145918  0.252737  0.146560
                                 0.253850  0.115828  0.200620  0.063816  0.110533  0.012739  0.022066  0.006041  0.010463  0.006533
                                 0.011315 -0.000391 -0.000686 -0.000086 -0.000061  0.000015 -0.000178 -0.000126  0.000032 -0.000392
                                -0.000278  0.000070 -0.000550 -0.000391  0.000098

   3.1   +    -0.4552  -12.8039 -0.000000  0.000000 -0.000000  0.000000 -0.000000  0.000000 -0.000000  0.000000 -0.000000  0.000000
                                -0.000000  0.000000 -0.000000  0.000000 -0.000000  0.000001  0.000001  0.000002 -0.000001  0.000000
                                 0.000000 -0.000001 -0.000001 -0.000002  0.000000  0.000154 -0.000089  0.001540 -0.000889  0.012810
                                -0.007396  0.049893 -0.028806  0.113649 -0.065615  0.192638 -0.111219  0.260729 -0.150532  0.257102
                                -0.148438  0.192150 -0.110938  0.091030 -0.052557  0.012311 -0.007109  0.010526 -0.006078  0.011127
                                -0.006424 -0.000422  0.000243 -0.000106  0.000125 -0.000095 -0.000339  0.000401 -0.000303 -0.000481
                                 0.000569 -0.000430 -0.000199  0.000236 -0.000178

   4.1   +    -0.2355   -5.5623 -0.000000 -0.000000 -0.000000 -0.000000 -0.000000 -0.000002 -0.000002 -0.000018 -0.000003 -0.000129
                                 0.000099 -0.000804  0.002761 -0.020898  0.033867  0.231387 -0.033290 -0.133046 -0.205430  0.225670
                                 0.601724  0.306426 -0.161649 -0.091123  0.010628 -0.000000 -0.000000 -0.000000 -0.000000 -0.000000
                                -0.000001 -0.000002 -0.000003 -0.000004 -0.000007 -0.000007 -0.000011 -0.000009 -0.000015 -0.000009
                                -0.000016 -0.000008 -0.000013 -0.000004 -0.000010 -0.000003 -0.000006 -0.000000 -0.000001 -0.000000
                                -0.000001 -0.000001 -0.000000 -0.000029  0.000074  0.000131 -0.000052  0.000131  0.000231  0.000145
                                -0.000367 -0.000647  0.000423 -0.001071 -0.001890

   5.1   0     0.0291   -1.6737  0.000000 -0.000000  0.000000 -0.000000  0.000000 -0.000001  0.000005 -0.000011  0.000049 -0.000104
                                 0.000337 -0.000699  0.001436 -0.001645  0.019371 -0.593444 -0.289299 -0.592643  0.210626 -0.402482
                                 0.878245 -2.506568  0.651202  0.745155  2.440002  0.000000  0.000000  0.000000  0.000000  0.000000
                                 0.000000  0.000000  0.000000  0.000000  0.000000  0.000000  0.000001  0.000001  0.000001  0.000001
                                 0.000001  0.000001  0.000001  0.000001  0.000001 -0.000000 -0.000000  0.000000  0.000000  0.000000
                                 0.000000  0.000002  0.000005  0.000007 -0.000018 -0.000032  0.000013 -0.000033 -0.000058 -0.000040
                                 0.000101  0.000178 -0.000102  0.000257  0.000454

   6.1   0     0.0677   -1.6829 -0.000000 -0.000000  0.000000 -0.000000  0.000000 -0.000000  0.000000 -0.000000  0.000000 -0.000000
                                 0.000000 -0.000000  0.000000 -0.000000  0.000000 -0.000001 -0.000000 -0.000001  0.000000 -0.000000
                                 0.000002 -0.000003  0.000001  0.000001  0.000002 -0.000011  0.000006 -0.000019  0.000011 -0.000709
                                 0.000409 -0.000718  0.000415 -0.018519  0.010692 -0.117694  0.067953 -0.058837  0.033970  0.026042
                                -0.015037 -0.060942  0.035186  0.113325 -0.065432 -0.298082  0.172106  0.045539 -0.026294  0.109763
                                -0.063375  1.027409 -0.593205  0.000004 -0.000005  0.000004  0.000012 -0.000014  0.000011  0.000020
                                -0.000024  0.000018 -0.000016  0.000019 -0.000014

                                   1 2px     1 2px     1 2px     1 2px     1 2px     1 2px     1 2px     1 2px     1 2px     1 2px  
                                   1 2px     1 2px     1 2px     1 2px     1 2px     1 2px     1 2px     1 2px     1 2px     1 2px  
                                   1 2px     1 4f1+    1 4f3+    1 4f1+    1 4f3+    1 4f1+    1 4f3+    1 4f1+    1 4f3+    1 4f1+ 
                                   1 4f3+    1 6h1+    1 6h3+    1 6h5+    1 6h1+    1 6h3+    1 6h5+    1 6h1+    1 6h3+    1 6h5+ 


   1.2   2    -2.5673  -18.2066  0.000000  0.000001  0.000001  0.000022  0.000019  0.000269  0.000012  0.001936  0.008445 -0.073123
                                -0.125819  0.208083  0.506224  0.371368  0.173365  0.019472 -0.001754  0.001013  0.081862 -0.107890
                                -0.000296  0.000872  0.000375  0.001773  0.000762  0.003633  0.001563  0.002715  0.001168  0.000264
                                 0.000114  0.000069 -0.000087 -0.000072  0.000131 -0.000164 -0.000138 -0.000050  0.000075  0.000047

   2.2   0     0.0198   -2.0627  0.000000 -0.000000  0.000001 -0.000005  0.000015 -0.000067  0.000163 -0.000610  0.001242 -0.003820
                                -0.175869  0.039930  0.679838 -0.079836  0.031218 -0.028095  0.262689 -0.220640  0.164878 -0.701387
                                 1.062163  0.000016  0.000007  0.000088  0.000038  0.000053  0.000023 -0.000226 -0.000097 -0.000386
                                -0.000166 -0.000012  0.000015  0.000013 -0.000031  0.000039  0.000032  0.000112 -0.000141 -0.000118

   3.2   0     0.0671   -2.6726 -0.000000  0.000000 -0.000003  0.000010 -0.000049  0.000128 -0.000487  0.001292 -0.005811  0.030795
                                 0.557605 -0.178540 -2.177232  0.123868 -0.145274  0.259245 -0.270017  1.745329 -0.513973  2.128696
                                -1.327038  0.000030  0.000013  0.000161  0.000069  0.000095  0.000041 -0.000475 -0.000204 -0.000744
                                -0.000319 -0.000023  0.000029  0.000023 -0.000056  0.000071  0.000058  0.000211 -0.000265 -0.000221

                                   1 2py     1 2py     1 2py     1 2py     1 2py     1 2py     1 2py     1 2py     1 2py     1 2py  
                                   1 2py     1 2py     1 2py     1 2py     1 2py     1 2py     1 2py     1 2py     1 2py     1 2py  
                                   1 2py     1 4f1-    1 4f3-    1 4f1-    1 4f3-    1 4f1-    1 4f3-    1 4f1-    1 4f3-    1 4f1- 
                                   1 4f3-    1 6h1-    1 6h3-    1 6h5-    1 6h1-    1 6h3-    1 6h5-    1 6h1-    1 6h3-    1 6h5- 


   1.3   2    -2.5673  -18.2066  0.000000  0.000001  0.000001  0.000022  0.000019  0.000269  0.000012  0.001936  0.008445 -0.073123
                                -0.125817  0.208083  0.506220  0.371369  0.173363  0.019471 -0.001754  0.001013  0.081861 -0.107885
                                -0.000296 -0.000581 -0.000751 -0.001182 -0.001525 -0.002422 -0.003127 -0.001810 -0.002336 -0.000176
                                -0.000227 -0.000022 -0.000111 -0.000070 -0.000040 -0.000210 -0.000133  0.000025  0.000079  0.000060

   2.3   0     0.0198   -2.0627  0.000000 -0.000000  0.000001 -0.000005  0.000015 -0.000067  0.000163 -0.000610  0.001242 -0.003819
                                -0.175861  0.039928  0.679809 -0.079835  0.031215 -0.028090  0.262692 -0.220611  0.164871 -0.701359
                                 1.062137 -0.000011 -0.000014 -0.000059 -0.000076 -0.000036 -0.000046  0.000150  0.000194  0.000256
                                 0.000330  0.000004  0.000019  0.000012  0.000010  0.000049  0.000031 -0.000035 -0.000180 -0.000114

   3.3   0     0.0671   -2.6726 -0.000000  0.000000 -0.000003  0.000010 -0.000049  0.000128 -0.000487  0.001292 -0.005811  0.030795
                                 0.557599 -0.178538 -2.177212  0.123866 -0.145273  0.259244 -0.270005  1.745314 -0.513968  2.128676
                                -1.327055 -0.000020 -0.000026 -0.000107 -0.000139 -0.000063 -0.000082  0.000316  0.000408  0.000494
                                 0.000637  0.000007  0.000036  0.000023  0.000018  0.000089  0.000057 -0.000065 -0.000337 -0.000214

                                   1 3d2-    1 3d2-    1 3d2-    1 3d2-    1 3d2-    1 3d2-    1 3d2-    1 3d2-    1 3d2-    1 3d2- 
                                   1 3d2-    1 3d2-    1 3d2-    1 3d2-    1 5g2-    1 5g4-    1 5g2-    1 5g4-    1 5g2-    1 5g4- 
                                   1 5g2-    1 5g4- 

   1.4   +    -0.4552  -12.8041  0.000178  0.001778  0.014792  0.057613  0.131234  0.222444  0.301071  0.296879  0.221867  0.105092
                                 0.014206  0.012155  0.012848 -0.000487 -0.000142  0.000125 -0.000455  0.000401 -0.000645  0.000568
                                -0.000268  0.000236

   2.4   0     0.0677   -1.6829 -0.000013 -0.000022 -0.000818 -0.000829 -0.021383 -0.135901 -0.067937  0.030074 -0.070368  0.130860
                                -0.344197  0.052585  0.126745  1.186363  0.000006 -0.000005  0.000016 -0.000014  0.000027 -0.000024
                                -0.000021  0.000019

   3.4   0     0.2202   -2.6140 -0.000010 -0.000422 -0.001580 -0.013358  0.029022  0.354830  0.126914 -0.174612  0.170162 -0.431919
                                 1.640581 -0.164099 -0.392265 -0.828256  0.000024 -0.000021  0.000063 -0.000056  0.000107 -0.000095
                                -0.000142  0.000125

                                   1 2pz     1 2pz     1 2pz     1 2pz     1 2pz     1 2pz     1 2pz     1 2pz     1 2pz     1 2pz  
                                   1 2pz     1 2pz     1 2pz     1 2pz     1 2pz     1 2pz     1 2pz     1 2pz     1 2pz     1 2pz  
                                   1 2pz     1 4f0     1 4f2+    1 4f0     1 4f2+    1 4f0     1 4f2+    1 4f0     1 4f2+    1 4f0  
                                   1 4f2+    1 6h2+    1 6h4+    1 6h0     1 6h2+    1 6h4+    1 6h0     1 6h2+    1 6h4+    1 6h0  


   1.5   2    -2.5673  -18.2066  0.000000  0.000001  0.000001  0.000022  0.000019  0.000269  0.000012  0.001936  0.008445 -0.073123
                                -0.125819  0.208083  0.506224  0.371368  0.173364  0.019472 -0.001755  0.001013  0.081862 -0.107890
                                -0.000296 -0.000238  0.000919 -0.000483  0.001868 -0.000989  0.003830 -0.000739  0.002861 -0.000072
                                 0.000278 -0.000122 -0.000044  0.000028 -0.000232 -0.000083  0.000053  0.000089  0.000040 -0.000030

   2.5   0     0.0198   -2.0627  0.000000 -0.000000  0.000001 -0.000005  0.000015 -0.000067  0.000163 -0.000610  0.001242 -0.003820
                                -0.175869  0.039930  0.679837 -0.079836  0.031217 -0.028095  0.262689 -0.220640  0.164877 -0.701385
                                 1.062162 -0.000004  0.000017 -0.000024  0.000093 -0.000014  0.000056  0.000062 -0.000238  0.000106
                                -0.000407  0.000021  0.000008 -0.000005  0.000054  0.000020 -0.000013 -0.000198 -0.000071  0.000046

   3.5   0     0.0671   -2.6726 -0.000000  0.000000 -0.000003  0.000010 -0.000049  0.000128 -0.000487  0.001292 -0.005811  0.030795
                                 0.557604 -0.178540 -2.177231  0.123867 -0.145274  0.259245 -0.270015  1.745326 -0.513972  2.128694
                                -1.327038 -0.000008  0.000031 -0.000044  0.000170 -0.000026  0.000100  0.000130 -0.000501  0.000203
                                -0.000784  0.000040  0.000015 -0.000010  0.000099  0.000036 -0.000023 -0.000372 -0.000134  0.000086

                                   1 3d1+    1 3d1+    1 3d1+    1 3d1+    1 3d1+    1 3d1+    1 3d1+    1 3d1+    1 3d1+    1 3d1+ 
                                   1 3d1+    1 3d1+    1 3d1+    1 3d1+    1 5g1+    1 5g3+    1 5g1+    1 5g3+    1 5g1+    1 5g3+ 
                                   1 5g1+    1 5g3+ 

   1.6   2    -0.3641  -12.4835  0.000173  0.001737  0.014440  0.056291  0.128016  0.215447  0.291844  0.293127  0.231653  0.127614
                                 0.025427  0.012082  0.013068 -0.000808  0.000038  0.000099  0.000078  0.000206  0.000171  0.000454
                                 0.000241  0.000637

   2.6   0     0.0679   -1.6851 -0.000014 -0.000036 -0.000935 -0.001274 -0.022476 -0.138137 -0.070485  0.027785 -0.072965  0.129091
                                -0.347970  0.052710  0.127160  1.188427  0.000006  0.000017  0.000017  0.000045  0.000028  0.000073
                                -0.000018 -0.000048

   3.6   0     0.2221   -2.6507 -0.000013 -0.000460 -0.001863 -0.014561  0.027090  0.355685  0.123350 -0.182714  0.165832 -0.447234
                                 1.648487 -0.166499 -0.397692 -0.827756  0.000024  0.000065  0.000063  0.000168  0.000106  0.000281
                                -0.000127 -0.000336

                                   1 3d1-    1 3d1-    1 3d1-    1 3d1-    1 3d1-    1 3d1-    1 3d1-    1 3d1-    1 3d1-    1 3d1- 
                                   1 3d1-    1 3d1-    1 3d1-    1 3d1-    1 5g1-    1 5g3-    1 5g1-    1 5g3-    1 5g1-    1 5g3- 
                                   1 5g1-    1 5g3- 

   1.7   +    -0.4552  -12.8041  0.000178  0.001778  0.014792  0.057613  0.131233  0.222444  0.301070  0.296879  0.221868  0.105094
                                 0.014207  0.012155  0.012848 -0.000487  0.000167 -0.000089  0.000536 -0.000284  0.000760 -0.000402
                                 0.000315 -0.000167

[...]
                                 0.000076  0.000000  0.000000  0.000000  0.000000  0.000000  0.000000  0.000000  0.000000  0.000000
                                 0.000000  0.000000  0.000000  0.000000  0.000000  0.000000  0.000000  0.000000  0.000000  0.000000

                                   1 2py     1 2py     1 2py     1 2py     1 2py     1 2py     1 2py     1 2py     1 2py     1 2py  
                                   1 2py     1 2py     1 2py     1 2py     1 2py     1 2py     1 2py     1 2py     1 2py     1 2py  
                                   1 2py     1 4f1-    1 4f3-    1 4f1-    1 4f3-    1 4f1-    1 4f3-    1 4f1-    1 4f3-    1 4f1- 
                                   1 4f3-    1 6h1-    1 6h3-    1 6h5-    1 6h1-    1 6h3-    1 6h5-    1 6h1-    1 6h3-    1 6h5- 


   1.3  2.00000    -7.606461     0.000000  0.000001  0.000001  0.000025  0.000023  0.000314  0.000017  0.002282  0.009724 -0.086379
                                -0.155662  0.262283  0.721319  0.340308  0.043507 -0.001488  0.000599 -0.000251  0.105554 -0.222864
                                 0.000076  0.000000  0.000000  0.000000  0.000000  0.000000  0.000000  0.000000  0.000000  0.000000
                                 0.000000  0.000000  0.000000  0.000000  0.000000  0.000000  0.000000  0.000000  0.000000  0.000000

                                   1 3d2-    1 3d2-    1 3d2-    1 3d2-    1 3d2-    1 3d2-    1 3d2-    1 3d2-    1 3d2-    1 3d2- 
                                   1 3d2-    1 3d2-    1 3d2-    1 3d2-    1 5g2-    1 5g4-    1 5g2-    1 5g4-    1 5g2-    1 5g4- 
                                   1 5g2-    1 5g4- 

   1.4  0.20000    -4.587812     0.000260  0.002584  0.021714  0.084341  0.199637  0.356551  0.397779  0.183070  0.008825  0.000807
                                -0.000413  0.002687 -0.012837  0.000139  0.000000  0.000000  0.000000  0.000000  0.000000  0.000000
                                 0.000000  0.000000

                                   1 2pz     1 2pz     1 2pz     1 2pz     1 2pz     1 2pz     1 2pz     1 2pz     1 2pz     1 2pz  
                                   1 2pz     1 2pz     1 2pz     1 2pz     1 2pz     1 2pz     1 2pz     1 2pz     1 2pz     1 2pz  
                                   1 2pz     1 4f0     1 4f2+    1 4f0     1 4f2+    1 4f0     1 4f2+    1 4f0     1 4f2+    1 4f0  
                                   1 4f2+    1 6h2+    1 6h4+    1 6h0     1 6h2+    1 6h4+    1 6h0     1 6h2+    1 6h4+    1 6h0  


   1.5  2.00000    -7.606461     0.000000  0.000001  0.000001  0.000025  0.000023  0.000314  0.000017  0.002282  0.009724 -0.086379
                                -0.155662  0.262283  0.721319  0.340308  0.043507 -0.001488  0.000599 -0.000251  0.105554 -0.222864
                                 0.000076  0.000000  0.000000  0.000000  0.000000  0.000000  0.000000  0.000000  0.000000  0.000000
                                 0.000000  0.000000  0.000000  0.000000  0.000000  0.000000  0.000000  0.000000  0.000000  0.000000

                                   1 3d1+    1 3d1+    1 3d1+    1 3d1+    1 3d1+    1 3d1+    1 3d1+    1 3d1+    1 3d1+    1 3d1+ 
                                   1 3d1+    1 3d1+    1 3d1+    1 3d1+    1 5g1+    1 5g3+    1 5g1+    1 5g3+    1 5g1+    1 5g3+ 
                                   1 5g1+    1 5g3+ 

   1.6  0.20000    -4.587812     0.000260  0.002584  0.021714  0.084341  0.199637  0.356551  0.397779  0.183070  0.008825  0.000807
                                -0.000413  0.002687 -0.012837  0.000139  0.000000  0.000000  0.000000  0.000000  0.000000  0.000000
                                 0.000000  0.000000

                                   1 3d1-    1 3d1-    1 3d1-    1 3d1-    1 3d1-    1 3d1-    1 3d1-    1 3d1-    1 3d1-    1 3d1- 
                                   1 3d1-    1 3d1-    1 3d1-    1 3d1-    1 5g1-    1 5g3-    1 5g1-    1 5g3-    1 5g1-    1 5g3- 
                                   1 5g1-    1 5g3- 

   1.7  0.20000    -4.587812     0.000260  0.002584  0.021714  0.084341  0.199637  0.356551  0.397779  0.183070  0.008825  0.000807
                                -0.000413  0.002687 -0.012837  0.000139  0.000000  0.000000  0.000000  0.000000  0.000000  0.000000
                                 0.000000  0.000000

 Total charge:   7.000000000000
 

 EXTRA SYMMETRY OF MOS IN SYMMETRY 1:   1 2 3 1 3 2 1 2 3 1   2 3 5 6 4 1 3 2 1 2   3 5 6 4 1 2 3 5 4 6   1 2 3 2 3 1 4 6 5 2
                                        3 1 3 2 1 1 3 2 1 3   2 1 1 3 2 1 1 1 1 1   1 1 1 1 1
 EXTRA SYMMETRY OF MOS IN SYMMETRY 2:   1 1 3 2 1 3 2 1 1 1   3 2 1 6 5 4 1 2 3 6   5 4 1 2 3 4 5 6 1 1   1 1 1 1 1 1 1 1 1 1
 EXTRA SYMMETRY OF MOS IN SYMMETRY 3:   1 1 3 2 1 3 2 1 1 1   2 3 1 6 5 4 1 2 3 6   5 4 1 2 3 4 5 6 1 1   1 1 1 1 1 1 1 1 1 1
 EXTRA SYMMETRY OF MOS IN SYMMETRY 4:   1 1 1 1 3 2 1 1 3 2   1 3 2 1 1 2 3 1 1 1   1 1
 EXTRA SYMMETRY OF MOS IN SYMMETRY 5:   1 1 3 2 1 3 2 1 1 1   3 2 1 5 6 4 1 2 3 5   6 4 1 2 3 6 4 5 1 1   1 1 1 1 1 1 1 1 1 1
 EXTRA SYMMETRY OF MOS IN SYMMETRY 6:   1 1 1 1 3 2 1 1 3 2   1 3 2 1 1 2 3 1 1 1   1 1
 EXTRA SYMMETRY OF MOS IN SYMMETRY 7:   1 1 1 1 3 2 1 1 3 2   1 3 2 1 1 2 3 1 1 1   1 1
 EXTRA SYMMETRY OF MOS IN SYMMETRY 8:   1 1 1 2 3 1 2 3 1 3   2

 Natural orbital dump (state averaged) at molpro section  5202.2    (Orbital set 2)


 CI vector for state symmetry 1
 ==============================

 0a 0 0 0         -0.0039785   0.9999921
 a0 0 0 0          0.9999921   0.0039785

 TOTAL ENERGIES                      -108.27711832  -108.27711832

 CI vector for state symmetry 2
 ==============================

 00 a 0 0          1.0000000

 TOTAL ENERGIES                      -108.27711832

 CI vector for state symmetry 3
 ==============================

 00 0 a 0          1.0000000

 TOTAL ENERGIES                      -108.27711832

 CI vector for state symmetry 4
 ==============================

 00 0 0 a          1.0000000

 TOTAL ENERGIES                      -108.27711832



 **********************************************************************************************************************************
 DATASETS  * FILE   NREC   LENGTH (MB)   RECORD NAMES
              1      21      275.96       500      610      700      900      950      970     1000      129      960     1100   
                                          VAR    BASINP    GEOM    SYMINP    ZMAT    AOBASIS   BASIS     P2S    ABASIS      S 
                                         1400     1410     1420     1200     1210     1080     1600     1650     1300     1700   
                                           T        V       ECP      H0       H01     AOSYM     SMH    MOLCAS    ERIS     OPER   
                                         1380   
                                         JKOP   

              2      20       47.00       200      700     1000      520     4202     5202     2101     5202(1)  2103     2105   
                                        OPTIONS   GEOM     BASIS   MCVARS     RHF     MCSCF     RHF     MCSCF     RHF      RHF  
                                         2107     2109     2110     2111     2113     2116     2118     2120     2122     2124   
                                          RHF      RHF      RHF      RHF      RHF      RHF      RHF      RHF      RHF      RHF  

 PROGRAMS   *        TOTAL     MULTI       POP       RHF  RCCSD(T)       RHF     MULTI       POP       RHF  RCCSD(T)       RHF
 CPU TIMES  *       606.69      2.20      0.00      2.68     17.91      0.18      2.99      0.00      1.45     20.90      0.19
 REAL TIME  *       652.11 SEC
 DISK USED  *         1.04 GB      
 **********************************************************************************************************************************

1PROGRAM * RHF-SCF (OPEN SHELL)       Authors: W. Meyer, H.-J. Werner


 NUMBER OF ELECTRONS:       5+    4-    SPACE SYMMETRY=1    SPIN SYMMETRY: Doublet 
 CONVERGENCE THRESHOLDS:    1.00E-05 (Density)    1.00E-07 (Energy)
 MAX. NUMBER OF ITERATIONS:        0
 INTERPOLATION TYPE:            DIIS
 INTERPOLATION STEPS:              2 (START)      1 (STEP)
 LEVEL SHIFTS:                 -0.30 (CLOSED)  0.00 (OPEN) 


 Singly occupied orbitals:      2.1
 Molecular orbitals read from record     5202.2  Type=MCSCF/NATURAL  

 Molecular orbital dump at record        2126.2

 ITERATION    DDIFF          GRAD             ENERGY        2-EL.EN.            DIPOLE MOMENTS         DIIS   ORB.
    1      0.000D+00      0.000D+00      -108.27711832     76.855578    0.00000    0.00000    0.00000    0    start

 Final alpha occupancy:   2   1   1   0   1   0   0   0
 Final beta  occupancy:   1   1   1   0   1   0   0   0

 !RHF STATE 1.1 Energy               -108.277118320029
 Nuclear energy                         0.00000000
 One-electron energy                 -146.70490709
 Two-electron energy                   38.42778877
 Virial quotient                       -2.43381666
 !RHF STATE 1.1 Dipole moment           0.00000000     0.00000000     0.00000000
 Dipole moment /Debye                   0.00000000     0.00000000     0.00000000

 Orbital energies:

         1.1          2.1          3.1          4.1
     -9.296124    -4.587812    -4.587812    -2.982744

         1.2          2.2          3.2
     -7.606461    -2.584898    -1.564348

         1.3          2.3          3.3
     -7.606461    -2.584898    -1.564348

         1.4          2.4
     -4.587812    -2.013065

         1.5          2.5          3.5
     -7.606461    -2.584898    -1.564348

         1.6          2.6
     -4.587812    -2.013065

         1.7          2.7
     -4.587812    -2.013065

         1.8          2.8
     -1.564348    -0.948806

 HOMO      2.1    -4.587812 =    -124.8407eV
 LUMO      3.1    -4.587812 =    -124.8407eV
 LUMO-HOMO        -0.000000 =      -0.0000eV


 **********************************************************************************************************************************
 DATASETS  * FILE   NREC   LENGTH (MB)   RECORD NAMES
              1      21      275.96       500      610      700      900      950      970     1000      129      960     1100   
                                          VAR    BASINP    GEOM    SYMINP    ZMAT    AOBASIS   BASIS     P2S    ABASIS      S 
                                         1400     1410     1420     1200     1210     1080     1600     1650     1300     1700   
                                           T        V       ECP      H0       H01     AOSYM     SMH    MOLCAS    ERIS     OPER   
                                         1380   
                                         JKOP   

              2      21       49.92       200      700     1000      520     4202     5202     2101     5202(1)  2103     2105   
                                        OPTIONS   GEOM     BASIS   MCVARS     RHF     MCSCF     RHF     MCSCF     RHF      RHF  
                                         2107     2109     2110     2111     2113     2116     2118     2120     2122     2124   
                                          RHF      RHF      RHF      RHF      RHF      RHF      RHF      RHF      RHF      RHF  
                                         2126   
                                          RHF  

 PROGRAMS   *        TOTAL       RHF     MULTI       POP       RHF  RCCSD(T)       RHF     MULTI       POP       RHF  RCCSD(T)
 CPU TIMES  *       606.88      0.18      2.20      0.00      2.68     17.91      0.18      2.99      0.00      1.45     20.90
 REAL TIME  *       652.34 SEC
 DISK USED  *         1.04 GB      
 **********************************************************************************************************************************
 SETTING SCF(14)        =      -108.27711832  AU                              
 SETTING _CC_NORM_MAX   =         2.00000000                                  


1PROGRAM * CCSD (Restricted open-shell coupled cluster)     Authors: C. Hampel, H.-J. Werner, 1991, M. Deegan, P.J. Knowles, 1992


 Convergence thresholds:  THRVAR = 1.00D-08  THRDEN = 1.00D-06

 CCSD(T)     terms to be evaluated (factor= 1.000)


 Number of closed-shell orbitals:   4 (   1   1   1   0   1   0   0   0 )
 Number of active  orbitals:        1 (   1   0   0   0   0   0   0   0 )
 Number of external orbitals:     257 (  63  39  39  22  39  22  22  11 )

 Memory could be reduced to 26.77 Mwords without degradation in triples

 Number of N-1 electron functions:               9
 Number of N-2 electron functions:              36
 Number of singly external CSFs:               426
 Number of doubly external CSFs:            251459
 Total number of CSFs:                      251885

 Molecular orbitals read from record     2126.2  Type=RHF/CANONICAL (state 1.1)

 Integral transformation finished. Total CPU:   0.80 sec, npass=  1  Memory used:   3.64 MW

 Starting RMP2 calculation

 Wavefunction is spin-projected

 ITER.      SQ.NORM     CORR.ENERGY   TOTAL ENERGY   ENERGY CHANGE        DEN1      VAR(S)    VAR(P)  DIIS     TIME
   1      1.04071182    -0.39625750  -108.67337582    -0.39625750    -0.00043239  0.49D-06  0.44D-04  1  1     0.81
   2      1.04084934    -0.39670779  -108.67382611    -0.00045029    -0.00000070  0.26D-09  0.83D-07  2  2     0.82
   3      1.04085145    -0.39671277  -108.67383109    -0.00000498    -0.00000000  0.11D-11  0.43D-10  3  3     0.83
   4      1.04085147    -0.39671280  -108.67383112    -0.00000003    -0.00000000  0.66D-15  0.12D-13  4  4     0.84

 Norm of t1 vector:      0.02768973      S-energy:    -0.00658447      T1 diagnostic:  0.00484852
 Norm of t2 vector:      0.20021176      P-energy:    -0.39012834
                                         Alpha-Beta:  -0.29807875
                                         Alpha-Alpha: -0.04841734
                                         Beta-Beta:   -0.04363225

 Spin contamination <S**2-Sz**2-Sz>     0.00000000
  Reference energy                   -108.277118320029
  RHF-RMP2 correlation energy          -0.396712803259
 !RHF-RMP2 energy                    -108.673831123288
 (NB above energy spin projected)

 Starting RCCSD calculation

 ITER.      SQ.NORM     CORR.ENERGY   TOTAL ENERGY   ENERGY CHANGE        DEN1      VAR(S)    VAR(P)  DIIS     TIME
   1      1.04572051    -0.41475481  -108.69187313    -0.41475481    -0.00473100  0.69D-04  0.43D-03  1  1     2.04
   2      1.04736244    -0.41964470  -108.69676302    -0.00488989    -0.00010696  0.73D-06  0.14D-04  2  2     3.25
   3      1.04759650    -0.42010729  -108.69722561    -0.00046259    -0.00000362  0.26D-07  0.45D-06  3  3     4.44
   4      1.04762651    -0.42015204  -108.69727036    -0.00004475    -0.00000006  0.46D-09  0.60D-08  4  4     5.64
   5      1.04762882    -0.42015596  -108.69727428    -0.00000392    -0.00000000  0.46D-11  0.95D-10  5  5     6.86
   6      1.04762877    -0.42015579  -108.69727411     0.00000018    -0.00000000  0.29D-12  0.35D-11  6  6     8.07

 Norm of t1 vector:      0.03107245      S-energy:    -0.00684959      T1 diagnostic:  0.00576802
                                                                       D1 diagnostic:  0.01342180
 Norm of t2 vector:      0.21601683      P-energy:    -0.41330620
                                         Alpha-Beta:  -0.32259147
                                         Alpha-Alpha: -0.04735411
                                         Beta-Beta:   -0.04336062

 Spin contamination <S**2-Sz**2-Sz>     0.00000000

 Memory could be reduced to 27.22 Mwords without degradation in triples
 

  Correlated core orbitals:             1.1       1.2       1.3       1.5
  Orbital energies:                    -9.3565   -7.6549   -7.6549   -7.7266
 
  RCCSD core-core energy               -0.345946315412
  RCCSD core-valence energy            -0.074209470302
  RCCSD valence correlation energy      0.000000000001
 

 RESULTS
 =======

  Reference energy                   -108.277118320029
  RCCSD singles energy                 -0.006849587630
  RCCSD pair energy                    -0.413306198083
  RCCSD correlation energy             -0.420155785713
  Triples (T) contribution             -0.008692629954
  Total correlation energy             -0.428848415667
 
  RHF-RCCSD energy                   -108.697274105742
  RHF-RCCSD[T] energy                -108.705940918026
  RHF-RCCSD-T energy                 -108.705915907314
 !RHF-RCCSD(T) energy                -108.705966735696

 Program statistics:

 Available memory in ccsd:               511999650
 Min. memory needed in ccsd:                963027
 Max. memory used in ccsd:                 1234689
 Max. memory used in cckext:               1055124 ( 6 integral passes)
 Max. memory used in cckint:               3638762 ( 1 integral passes)



 **********************************************************************************************************************************
 DATASETS  * FILE   NREC   LENGTH (MB)   RECORD NAMES
              1      21      275.96       500      610      700      900      950      970     1000      129      960     1100   
                                          VAR    BASINP    GEOM    SYMINP    ZMAT    AOBASIS   BASIS     P2S    ABASIS      S 
                                         1400     1410     1420     1200     1210     1080     1600     1650     1300     1700   
                                           T        V       ECP      H0       H01     AOSYM     SMH    MOLCAS    ERIS     OPER   
                                         1380   
                                         JKOP   

              2      21       49.92       200      700     1000      520     4202     5202     2101     5202(1)  2103     2105   
                                        OPTIONS   GEOM     BASIS   MCVARS     RHF     MCSCF     RHF     MCSCF     RHF      RHF  
                                         2107     2109     2110     2111     2113     2116     2118     2120     2122     2124   
                                          RHF      RHF      RHF      RHF      RHF      RHF      RHF      RHF      RHF      RHF  
                                         2126   
                                          RHF  

 PROGRAMS   *        TOTAL  RCCSD(T)       RHF     MULTI       POP       RHF  RCCSD(T)       RHF     MULTI       POP       RHF
 CPU TIMES  *       621.96     15.08      0.18      2.20      0.00      2.68     17.91      0.18      2.99      0.00      1.45
 REAL TIME  *       668.45 SEC
 DISK USED  *         1.04 GB      
 **********************************************************************************************************************************
 SETTING CCSD(14)       =      -108.70596674  AU                              
 Output type csv         
                                                                                                                                                                                                                                                                

        SCF,CCSD
   -123.11456259,   -123.82052177
   -123.03892483,   -123.78444144
   -122.82274423,   -123.66066690
   -122.88135998,   -123.53095699
   -122.80748231,   -123.51577703
   -102.70300244,   -103.11580597
    -34.53463100,    -34.63692806
   -123.02773252,   -123.81851309
   -122.31573963,   -122.93212338
   -121.27533559,   -121.80855991
   -119.28289263,   -119.78335455
   -116.53096766,   -116.99706286
   -112.88696316,   -113.32908076
   -108.27711832,   -108.70596674
                                                  

        RCCSD(T)        RHF-SCF         MULTI           RHF-SCF         RCCSD(T)        RHF-SCF         MULTI           RHF-SCF 
   -108.70596674   -108.27711832   -108.27711832   -108.27978150   -113.32908076   -112.88696316   -112.77745684   -112.89031989
 **********************************************************************************************************************************
 Variable memory released
