 Entering Gaussian System, Link 0=g16
 Initial command:
 /home1/apps/gaussian/16rA.03/g16/l1.exe "/tmp/Gau-445657.inp" -scrdir="/tmp/"
 Entering Link 1 = /home1/apps/gaussian/16rA.03/g16/l1.exe PID=    445658.
  
 Copyright (c) 1988,1990,1992,1993,1995,1998,2003,2009,2016,
            Gaussian, Inc.  All Rights Reserved.
  
 This is part of the Gaussian(R) 16 program.  It is based on
 the Gaussian(R) 09 system (copyright 2009, Gaussian, Inc.),
 the Gaussian(R) 03 system (copyright 2003, Gaussian, Inc.),
 the Gaussian(R) 98 system (copyright 1998, Gaussian, Inc.),
 the Gaussian(R) 94 system (copyright 1995, Gaussian, Inc.),
 the Gaussian 92(TM) system (copyright 1992, Gaussian, Inc.),
 the Gaussian 90(TM) system (copyright 1990, Gaussian, Inc.),
 the Gaussian 88(TM) system (copyright 1988, Gaussian, Inc.),
 the Gaussian 86(TM) system (copyright 1986, Carnegie Mellon
 University), and the Gaussian 82(TM) system (copyright 1983,
 Carnegie Mellon University). Gaussian is a federally registered
 trademark of Gaussian, Inc.
  
 This software contains proprietary and confidential information,
 including trade secrets, belonging to Gaussian, Inc.
  
 This software is provided under written license and may be
 used, copied, transmitted, or stored only in accord with that
 written license.
  
 The following legend is applicable only to US Government
 contracts under FAR:
  
                    RESTRICTED RIGHTS LEGEND
  
 Use, reproduction and disclosure by the US Government is
 subject to restrictions as set forth in subparagraphs (a)
 and (c) of the Commercial Computer Software - Restricted
 Rights clause in FAR 52.227-19.
  
 Gaussian, Inc.
 340 Quinnipiac St., Bldg. 40, Wallingford CT 06492
  
  
 ---------------------------------------------------------------
 Warning -- This program may not be used in any manner that
 competes with the business of Gaussian, Inc. or will provide
 assistance to any competitor of Gaussian, Inc.  The licensee
 of this program is prohibited from giving any competitor of
 Gaussian, Inc. access to this program.  By using this program,
 the user acknowledges that Gaussian, Inc. is engaged in the
 business of creating and licensing software in the field of
 computational chemistry and represents and warrants to the
 licensee that it is not a competitor of Gaussian, Inc. and that
 it will not use this program in any manner prohibited above.
 ---------------------------------------------------------------
  

 Cite this work as:
 Gaussian 16, Revision A.03,
 M. J. Frisch, G. W. Trucks, H. B. Schlegel, G. E. Scuseria, 
 M. A. Robb, J. R. Cheeseman, G. Scalmani, V. Barone, 
 G. A. Petersson, H. Nakatsuji, X. Li, M. Caricato, A. V. Marenich, 
 J. Bloino, B. G. Janesko, R. Gomperts, B. Mennucci, H. P. Hratchian, 
 J. V. Ortiz, A. F. Izmaylov, J. L. Sonnenberg, D. Williams-Young, 
 F. Ding, F. Lipparini, F. Egidi, J. Goings, B. Peng, A. Petrone, 
 T. Henderson, D. Ranasinghe, V. G. Zakrzewski, J. Gao, N. Rega, 
 G. Zheng, W. Liang, M. Hada, M. Ehara, K. Toyota, R. Fukuda, 
 J. Hasegawa, M. Ishida, T. Nakajima, Y. Honda, O. Kitao, H. Nakai, 
 T. Vreven, K. Throssell, J. A. Montgomery, Jr., J. E. Peralta, 
 F. Ogliaro, M. J. Bearpark, J. J. Heyd, E. N. Brothers, K. N. Kudin, 
 V. N. Staroverov, T. A. Keith, R. Kobayashi, J. Normand, 
 K. Raghavachari, A. P. Rendell, J. C. Burant, S. S. Iyengar, 
 J. Tomasi, M. Cossi, J. M. Millam, M. Klene, C. Adamo, R. Cammi, 
 J. W. Ochterski, R. L. Martin, K. Morokuma, O. Farkas, 
 J. B. Foresman, and D. J. Fox, Gaussian, Inc., Wallingford CT, 2016.
 
 ******************************************
 Gaussian 16:  ES64L-G16RevA.03 25-Dec-2016
                14-Mar-2018 
 ******************************************
 %MEM=160GB
 %CPU=0-31
 SetSPE:  set environment variable "MP_BIND" = "yes"
 SetSPE:  set environment variable "MP_BLIST" = "0,1,2,3,4,5,6,7,8,9,10,11,12,13,14,15,16,17,18,19,20,21,22,23,24,25,26,27,28,29,30,31"
 Will use up to   32 processors via shared memory.
 %RWF=/scratch/04843/aannabe/gaussian/
 %Int=/scratch/04843/aannabe/gaussian/
 %D2E=/scratch/04843/aannabe/gaussian/
 %NoSave
 %CHK=CrO
 ----------------------------------------------------------------------
 #P ROCCSD(T)=(maxcyc=150, Window=(7,0), SaveAmplitudes, ReadAmplitudes
 )/Gen 5d 7f SCF=(maxcycles=300) Integral(NoXCTest, DKHSO) MaxDisk=500G
 B Pop=Regular Guess=Read
 ----------------------------------------------------------------------
 1/38=1,172=1/1;
 2/12=2,17=6,18=5,40=1/2;
 3/5=7,8=11,11=2,25=1,30=1,47=8,91=5,116=101/1,2,3;
 4/5=1/1;
 5/5=2,7=300,38=6/2;
 8/5=-1,6=4,9=120000,10=91,24=1,37=7/1,4;
 9/5=7,6=150,14=2,77=1/13;
 6//1;
 99/5=1,9=1/99;
 Leave Link    1 at Wed Mar 14 14:21:55 2018, MaxMem= 21474836480 cpu:               1.8 elap:               0.1
 (Enter /home1/apps/gaussian/16rA.03/g16/l101.exe)
 ---
 CrO
 ---
 Symbolic Z-matrix:
 Charge =  0 Multiplicity = 5
 Cr                    0.        0.        0. 
 O                     0.        0.        1.2 
 
 ITRead=  0  0
 MicOpt= -1 -1
 NAtoms=      2 NQM=        2 NQMF=       0 NMMI=      0 NMMIF=      0
                NMic=       0 NMicF=      0.
                    Isotopes and Nuclear Properties:
 (Nuclear quadrupole moments (NQMom) in fm**2, nuclear magnetic moments (NMagM)
  in nuclear magnetons)

  Atom         1           2
 IAtWgt=          52          16
 AtmWgt=  51.9405097  15.9949146
 NucSpn=           0           0
 AtZEff=  -0.0000000  -0.0000000
 NQMom=    0.0000000   0.0000000
 NMagM=    0.0000000   0.0000000
 AtZNuc=  24.0000000   8.0000000
 Leave Link  101 at Wed Mar 14 14:21:55 2018, MaxMem= 21474836480 cpu:               2.7 elap:               0.1
 (Enter /home1/apps/gaussian/16rA.03/g16/l202.exe)
                          Input orientation:                          
 ---------------------------------------------------------------------
 Center     Atomic      Atomic             Coordinates (Angstroms)
 Number     Number       Type             X           Y           Z
 ---------------------------------------------------------------------
      1         24           0        0.000000    0.000000    0.000000
      2          8           0        0.000000    0.000000    1.200000
 ---------------------------------------------------------------------
 Stoichiometry    CrO(5)
 Framework group  C*V[C*(OCr)]
 Deg. of freedom     1
 Full point group                 C*V     NOp   4
 Largest Abelian subgroup         C2V     NOp   4
 Largest concise Abelian subgroup C1      NOp   1
                         Standard orientation:                         
 ---------------------------------------------------------------------
 Center     Atomic      Atomic             Coordinates (Angstroms)
 Number     Number       Type             X           Y           Z
 ---------------------------------------------------------------------
      1         24           0        0.000000    0.000000    0.300000
      2          8           0        0.000000    0.000000   -0.900000
 ---------------------------------------------------------------------
 Rotational constants (GHZ):           0.0000000          28.6987424          28.6987424
 Leave Link  202 at Wed Mar 14 14:21:55 2018, MaxMem= 21474836480 cpu:               0.5 elap:               0.0
 (Enter /home1/apps/gaussian/16rA.03/g16/l301.exe)
 General basis read from cards:  (5D, 7F)
 Centers:       1
 S 1 1.00
     Exponent=  1.1016640000D+07 Coefficients=  1.0000000000D+00
 S 1 1.00
     Exponent=  1.6494230000D+06 Coefficients=  1.0000000000D+00
 S 1 1.00
     Exponent=  3.7535890000D+05 Coefficients=  1.0000000000D+00
 S 1 1.00
     Exponent=  1.0632360000D+05 Coefficients=  1.0000000000D+00
 S 1 1.00
     Exponent=  3.4689760000D+04 Coefficients=  1.0000000000D+00
 S 1 1.00
     Exponent=  1.2524830000D+04 Coefficients=  1.0000000000D+00
 S 1 1.00
     Exponent=  4.8857520000D+03 Coefficients=  1.0000000000D+00
 S 1 1.00
     Exponent=  2.0269180000D+03 Coefficients=  1.0000000000D+00
 S 1 1.00
     Exponent=  8.8436450000D+02 Coefficients=  1.0000000000D+00
 S 1 1.00
     Exponent=  4.0231700000D+02 Coefficients=  1.0000000000D+00
 S 1 1.00
     Exponent=  1.8952710000D+02 Coefficients=  1.0000000000D+00
 S 1 1.00
     Exponent=  9.1860950000D+01 Coefficients=  1.0000000000D+00
 S 1 1.00
     Exponent=  4.5124760000D+01 Coefficients=  1.0000000000D+00
 S 1 1.00
     Exponent=  2.0625120000D+01 Coefficients=  1.0000000000D+00
 S 1 1.00
     Exponent=  1.0319730000D+01 Coefficients=  1.0000000000D+00
 S 1 1.00
     Exponent=  5.1577230000D+00 Coefficients=  1.0000000000D+00
 S 1 1.00
     Exponent=  2.3126280000D+00 Coefficients=  1.0000000000D+00
 S 1 1.00
     Exponent=  1.1030790000D+00 Coefficients=  1.0000000000D+00
 S 1 1.00
     Exponent=  4.9804200000D-01 Coefficients=  1.0000000000D+00
 S 1 1.00
     Exponent=  1.1824700000D-01 Coefficients=  1.0000000000D+00
 S 1 1.00
     Exponent=  5.7356000000D-02 Coefficients=  1.0000000000D+00
 S 1 1.00
     Exponent=  2.5760000000D-02 Coefficients=  1.0000000000D+00
 S 1 1.00
     Exponent=  4.7991000000D+00 Coefficients=  1.0000000000D+00
 S 1 1.00
     Exponent=  1.4287000000D+00 Coefficients=  1.0000000000D+00
 S 1 1.00
     Exponent=  1.1570000000D-02 Coefficients=  1.0000000000D+00
 P 1 1.00
     Exponent=  3.1539890000D+04 Coefficients=  1.0000000000D+00
 P 1 1.00
     Exponent=  7.4602340000D+03 Coefficients=  1.0000000000D+00
 P 1 1.00
     Exponent=  2.4226220000D+03 Coefficients=  1.0000000000D+00
 P 1 1.00
     Exponent=  9.2775470000D+02 Coefficients=  1.0000000000D+00
 P 1 1.00
     Exponent=  3.9480410000D+02 Coefficients=  1.0000000000D+00
 P 1 1.00
     Exponent=  1.8080270000D+02 Coefficients=  1.0000000000D+00
 P 1 1.00
     Exponent=  8.7423930000D+01 Coefficients=  1.0000000000D+00
 P 1 1.00
     Exponent=  4.4034270000D+01 Coefficients=  1.0000000000D+00
 P 1 1.00
     Exponent=  2.2777040000D+01 Coefficients=  1.0000000000D+00
 P 1 1.00
     Exponent=  1.2015470000D+01 Coefficients=  1.0000000000D+00
 P 1 1.00
     Exponent=  6.4117510000D+00 Coefficients=  1.0000000000D+00
 P 1 1.00
     Exponent=  3.3811360000D+00 Coefficients=  1.0000000000D+00
 P 1 1.00
     Exponent=  1.7470540000D+00 Coefficients=  1.0000000000D+00
 P 1 1.00
     Exponent=  8.8500400000D-01 Coefficients=  1.0000000000D+00
 P 1 1.00
     Exponent=  4.3302800000D-01 Coefficients=  1.0000000000D+00
 P 1 1.00
     Exponent=  1.7396200000D-01 Coefficients=  1.0000000000D+00
 P 1 1.00
     Exponent=  7.2823000000D-02 Coefficients=  1.0000000000D+00
 P 1 1.00
     Exponent=  2.9952000000D-02 Coefficients=  1.0000000000D+00
 P 1 1.00
     Exponent=  6.4552000000D+00 Coefficients=  1.0000000000D+00
 P 1 1.00
     Exponent=  1.6531000000D+00 Coefficients=  1.0000000000D+00
 P 1 1.00
     Exponent=  1.2320000000D-02 Coefficients=  1.0000000000D+00
 D 1 1.00
     Exponent=  2.8131200000D+02 Coefficients=  1.0000000000D+00
 D 1 1.00
     Exponent=  8.3188500000D+01 Coefficients=  1.0000000000D+00
 D 1 1.00
     Exponent=  3.1839600000D+01 Coefficients=  1.0000000000D+00
 D 1 1.00
     Exponent=  1.3602600000D+01 Coefficients=  1.0000000000D+00
 D 1 1.00
     Exponent=  6.1829800000D+00 Coefficients=  1.0000000000D+00
 D 1 1.00
     Exponent=  2.9227000000D+00 Coefficients=  1.0000000000D+00
 D 1 1.00
     Exponent=  1.3821600000D+00 Coefficients=  1.0000000000D+00
 D 1 1.00
     Exponent=  6.3946000000D-01 Coefficients=  1.0000000000D+00
 D 1 1.00
     Exponent=  2.8489800000D-01 Coefficients=  1.0000000000D+00
 D 1 1.00
     Exponent=  1.2004500000D-01 Coefficients=  1.0000000000D+00
 D 1 1.00
     Exponent=  4.6229000000D-02 Coefficients=  1.0000000000D+00
 D 1 1.00
     Exponent=  4.0848000000D+00 Coefficients=  1.0000000000D+00
 D 1 1.00
     Exponent=  2.1405000000D+00 Coefficients=  1.0000000000D+00
 D 1 1.00
     Exponent=  1.7800000000D-02 Coefficients=  1.0000000000D+00
 F 1 1.00
     Exponent=  5.6633000000D+00 Coefficients=  1.0000000000D+00
 F 1 1.00
     Exponent=  2.3365000000D+00 Coefficients=  1.0000000000D+00
 F 1 1.00
     Exponent=  9.6390000000D-01 Coefficients=  1.0000000000D+00
 F 1 1.00
     Exponent=  3.1420000000D-01 Coefficients=  1.0000000000D+00
 F 1 1.00
     Exponent=  1.0242000000D-01 Coefficients=  1.0000000000D+00
 G 1 1.00
     Exponent=  4.6690000000D+00 Coefficients=  1.0000000000D+00
 G 1 1.00
     Exponent=  1.9538000000D+00 Coefficients=  1.0000000000D+00
 G 1 1.00
     Exponent=  6.8480000000D-01 Coefficients=  1.0000000000D+00
 G 1 1.00
     Exponent=  2.4002000000D-01 Coefficients=  1.0000000000D+00
 H 1 1.00
     Exponent=  4.4133000000D+00 Coefficients=  1.0000000000D+00
 H 1 1.00
     Exponent=  1.6472000000D+00 Coefficients=  1.0000000000D+00
 H 1 1.00
     Exponent=  6.1479000000D-01 Coefficients=  1.0000000000D+00
 ****
 Centers:       2
 S 1 1.00
     Exponent=  6.1420000000D+04 Coefficients=  1.0000000000D+00
 S 1 1.00
     Exponent=  9.1990000000D+03 Coefficients=  1.0000000000D+00
 S 1 1.00
     Exponent=  2.0910000000D+03 Coefficients=  1.0000000000D+00
 S 1 1.00
     Exponent=  5.9090000000D+02 Coefficients=  1.0000000000D+00
 S 1 1.00
     Exponent=  1.9230000000D+02 Coefficients=  1.0000000000D+00
 S 1 1.00
     Exponent=  6.9320000000D+01 Coefficients=  1.0000000000D+00
 S 1 1.00
     Exponent=  2.6970000000D+01 Coefficients=  1.0000000000D+00
 S 1 1.00
     Exponent=  1.1100000000D+01 Coefficients=  1.0000000000D+00
 S 1 1.00
     Exponent=  4.6820000000D+00 Coefficients=  1.0000000000D+00
 S 1 1.00
     Exponent=  1.4280000000D+00 Coefficients=  1.0000000000D+00
 S 1 1.00
     Exponent=  5.5470000000D-01 Coefficients=  1.0000000000D+00
 S 1 1.00
     Exponent=  2.0670000000D-01 Coefficients=  1.0000000000D+00
 S 1 1.00
     Exponent=  1.2974000000D+01 Coefficients=  1.0000000000D+00
 S 1 1.00
     Exponent=  3.4900000000D+01 Coefficients=  1.0000000000D+00
 S 1 1.00
     Exponent=  9.3881000000D+01 Coefficients=  1.0000000000D+00
 S 1 1.00
     Exponent=  6.9590000000D-02 Coefficients=  1.0000000000D+00
 P 1 1.00
     Exponent=  6.3420000000D+01 Coefficients=  1.0000000000D+00
 P 1 1.00
     Exponent=  1.4660000000D+01 Coefficients=  1.0000000000D+00
 P 1 1.00
     Exponent=  4.4590000000D+00 Coefficients=  1.0000000000D+00
 P 1 1.00
     Exponent=  1.5310000000D+00 Coefficients=  1.0000000000D+00
 P 1 1.00
     Exponent=  5.3020000000D-01 Coefficients=  1.0000000000D+00
 P 1 1.00
     Exponent=  1.7500000000D-01 Coefficients=  1.0000000000D+00
 P 1 1.00
     Exponent=  1.4475000000D+01 Coefficients=  1.0000000000D+00
 P 1 1.00
     Exponent=  4.2730000000D+01 Coefficients=  1.0000000000D+00
 P 1 1.00
     Exponent=  1.2614000000D+02 Coefficients=  1.0000000000D+00
 P 1 1.00
     Exponent=  5.3480000000D-02 Coefficients=  1.0000000000D+00
 D 1 1.00
     Exponent=  3.7750000000D+00 Coefficients=  1.0000000000D+00
 D 1 1.00
     Exponent=  1.3000000000D+00 Coefficients=  1.0000000000D+00
 D 1 1.00
     Exponent=  4.4400000000D-01 Coefficients=  1.0000000000D+00
 D 1 1.00
     Exponent=  1.4927000000D+01 Coefficients=  1.0000000000D+00
 D 1 1.00
     Exponent=  5.7544000000D+01 Coefficients=  1.0000000000D+00
 D 1 1.00
     Exponent=  1.5400000000D-01 Coefficients=  1.0000000000D+00
 F 1 1.00
     Exponent=  2.6660000000D+00 Coefficients=  1.0000000000D+00
 F 1 1.00
     Exponent=  8.5900000000D-01 Coefficients=  1.0000000000D+00
 F 1 1.00
     Exponent=  2.6483000000D+01 Coefficients=  1.0000000000D+00
 F 1 1.00
     Exponent=  3.2400000000D-01 Coefficients=  1.0000000000D+00
 G 1 1.00
     Exponent=  1.8460000000D+00 Coefficients=  1.0000000000D+00
 G 1 1.00
     Exponent=  7.1400000000D-01 Coefficients=  1.0000000000D+00
 ****
 Ernie: Thresh=  0.10000D-02 Tol=  0.10000D-05 Strict=F.
 There are   213 symmetry adapted cartesian basis functions of A1  symmetry.
 There are    56 symmetry adapted cartesian basis functions of A2  symmetry.
 There are   114 symmetry adapted cartesian basis functions of B1  symmetry.
 There are   114 symmetry adapted cartesian basis functions of B2  symmetry.
 There are   157 symmetry adapted basis functions of A1  symmetry.
 There are    47 symmetry adapted basis functions of A2  symmetry.
 There are    90 symmetry adapted basis functions of B1  symmetry.
 There are    90 symmetry adapted basis functions of B2  symmetry.
   384 basis functions,   497 primitive gaussians,   497 cartesian basis functions
    18 alpha electrons       14 beta electrons
       nuclear repulsion energy        84.6683537472 Hartrees.
 IExCor=    0 DFT=F Ex=HF Corr=None ExCW=0 ScaHFX=  1.000000
 ScaDFX=  1.000000  1.000000  1.000000  1.000000 ScalE2=  1.000000  1.000000
 IRadAn=      5 IRanWt=     -1 IRanGd=            0 ICorTp=0 IEmpDi=  4
 NAtoms=    2 NActive=    2 NUniq=    2 SFac= 1.00D+00 NAtFMM=   60 NAOKFM=F Big=F
 Integral buffers will be    131072 words long.
 Raffenetti 2 integral format.
 Two-electron integral symmetry is turned on.
 FoFCou: FMM=F IPFlag=           8 FMFlag=           0 FMFlg1=           0
         NFxFlg=           0 DoJE=F BraDBF=T KetDBF=T FulRan=T
         wScrn=  0.000000 ICntrl=       600 IOpCl=  3 I1Cent=           6 NGrid=           0
         NMat0=    1 NMatS0=      2 NMatT0=    0 NMatD0=    1 NMtDS0=    0 NMtDT0=    0
 Symmetry not used in FoFCou.
 Finite nuclear repulsion energy        84.6683537472.
 Leave Link  301 at Wed Mar 14 14:21:56 2018, MaxMem= 21474836480 cpu:               5.0 elap:               0.2
 (Enter /home1/apps/gaussian/16rA.03/g16/l302.exe)
 Using DK4 one-electron Hamiltonian with SO, DoBoet=T.
 NPDir=0 NMtPBC=     1 NCelOv=     1 NCel=       1 NClECP=     1 NCelD=      1
         NCelK=      1 NCelE2=     1 NClLst=     1 CellRange=     0.0.
 One-electron integrals computed using PRISM.
 One-electron integral symmetry used in STVInt
 FoFCou: FMM=F IPFlag=           8 FMFlag=      100000 FMFlg1=           0
         NFxFlg=           0 DoJE=T BraDBF=F KetDBF=T FulRan=T
         wScrn=  0.000000 ICntrl=       500 IOpCl=  0 I1Cent=           4 NGrid=           0
         NMat0=    1 NMatS0=      1 NMatT0=    0 NMatD0=    1 NMtDS0=    0 NMtDT0=    0
 Symmetry not used in FoFCou.
 UnConB:  Uncontracting AO basis from    384 functions to    384 functions (excluding duplicates).
 RelInt: Using uncontracted basis, NUnBas=   384 NBsUse=   384 0.100E-13 EigKep=  5.23D-09 EigRej= -1.00D+00
 NBasis=   384 RedAO= T EigKep=  1.16D-06  NBF=   157    47    90    90
 NBsUse=   380 1.00D-06 EigRej=  3.27D-07 NBFU=   155    47    89    89
 Leave Link  302 at Wed Mar 14 14:22:00 2018, MaxMem= 21474836480 cpu:             131.8 elap:               4.8
 (Enter /home1/apps/gaussian/16rA.03/g16/l303.exe)
 DipDrv:  MaxL=1.
 Leave Link  303 at Wed Mar 14 14:22:01 2018, MaxMem= 21474836480 cpu:               1.5 elap:               0.1
 (Enter /home1/apps/gaussian/16rA.03/g16/l401.exe)
 Initial guess from the checkpoint file:  "CrO.chk"
 B after Tr=     0.000000    0.000000    0.000000
         Rot=    1.000000    0.000000    0.000000    0.000000 Ang=   0.00 deg.
 Guess basis will be translated and rotated to current coordinates.
 JPrj=2 DoOrth=T DoCkMO=T.
 Initial guess orbital symmetries:
       Occupied  (SG) (SG) (SG) (PI) (PI) (SG) (SG) (SG) (PI) (PI)
                 (SG) (PI) (PI) (SG) (?A) (?A) (?A) (?B)
       Virtual   (?B) (SG) (SG) (?B) (?B) (?C) (?B) (?B) (?C) (?C)
                 (SG) (?B) (?C) (?B) (SG) (?B) (?B) (SG) (?B) (?C)
                 (?C) (PI) (PI) (?C) (?B) (?C) (?C) (?C) (?C) (PHI)
                 (PHI) (?B) (?B) (?C) (?B) (?B) (?C) (?C) (?C)
                 (PI) (PI) (?C) (?D) (?D) (PI) (PI) (?D) (SG) (PI)
                 (PI) (SG) (DLTA) (DLTA) (PHI) (PHI) (?E) (?E)
                 (?E) (?E) (?F) (?F) (?F) (SG) (?G) (?G) (PI) (PI)
                 (?H) (PI) (PI) (?H) (?H) (PHI) (PHI) (?C) (?C)
                 (?C) (?C) (PI) (PI) (PI) (PI) (SG) (PI) (PI) (DLTA)
                 (DLTA) (SG) (SG) (PI) (PI) (?E) (?E) (DLTA) (DLTA)
                 (?E) (?E) (SG) (?I) (?I) (?I) (?E) (?E) (?E) (?E)
                 (SG) (PI) (PI) (SG) (?G) (?G) (PHI) (PHI) (?J)
                 (?J) (?J) (?J) (?J) (?K) (?K) (?K) (PI) (PI) (PI)
                 (PI) (PI) (PI) (SG) (SG) (PHI) (PHI) (DLTA) (DLTA)
                 (PI) (PI) (PI) (PI) (SG) (SG) (PI) (PI) (SG) (DLTA)
                 (DLTA) (SG) (PI) (PI) (SG) (?G) (?G) (PHI) (PHI)
                 (?L) (?L) (?L) (PI) (PI) (SG) (PI) (PI) (SG) (DLTA)
                 (DLTA) (PI) (PI) (SG) (SG) (SG) (PI) (PI) (DLTA)
                 (DLTA) (PI) (PI) (SG) (SG) (PI) (PI) (SG) (DLTA)
                 (DLTA) (PI) (PI) (SG) (SG) (SG) (PI) (PI) (SG)
                 (PI) (PI) (SG) (SG) (SG) (PI) (PI) (SG) (DLTA)
                 (DLTA) (PI) (PI) (SG) (PI) (PI) (SG) (SG) (SG)
                 (PI) (PI) (SG) (SG) (SG) (PI) (PI) (SG) (SG) (PI)
                 (PI) (SG) (SG) (SG) (PI) (PI) (SG) (SG) (SG) (PI)
                 (PI) (SG) (SG) (SG) (SG) (SG) (SG) (SG) (DLTA)
                 (SG) (SG) (DLTA) (SG) (SG) (DLTA) (SG) (SG) (DLTA)
                 (SG) (SG) (DLTA) (SG) (SG) (SG) (DLTA) (?G) (SG)
                 (DLTA) (?G) (SG) (SG) (DLTA) (SG) (DLTA) (SG)
                 (DLTA) (SG) (?G) (SG) (DLTA) (SG) (?G) (DLTA)
                 (DLTA) (SG) (SG) (SG) (DLTA) (DLTA) (?G) (SG)
                 (?G) (DLTA) (DLTA) (DLTA) (DLTA) (DLTA) (DLTA)
                 (?G) (DLTA) (?G) (DLTA) (DLTA) (DLTA) (?G) (DLTA)
                 (?G) (DLTA) (DLTA) (DLTA) (DLTA) (?G) (?G) (PI)
                 (PI) (PI) (PI) (PI) (PHI) (PI) (PI) (PI) (PI)
                 (PI) (PHI) (PI) (PI) (PHI) (PHI) (PI) (PI) (PI)
                 (?L) (PI) (PHI) (PI) (PI) (PHI) (PHI) (PI) (PHI)
                 (?L) (PHI) (?L) (PI) (PI) (PI) (PI) (PI) (PHI)
                 (PI) (PI) (PI) (PI) (PI) (PHI) (PI) (PI) (PHI)
                 (PHI) (PI) (PI) (PI) (?L) (PI) (PHI) (PI) (PI)
                 (PHI) (PHI) (PI) (PHI) (?L) (PHI) (?L)
 Leave Link  401 at Wed Mar 14 14:22:01 2018, MaxMem= 21474836480 cpu:               9.5 elap:               0.3
 (Enter /home1/apps/gaussian/16rA.03/g16/l502.exe)
 Keep R1 and R2 ints in memory in symmetry-blocked form, NReq=3425113631.
 FoFCou: FMM=F IPFlag=           8 FMFlag=           0 FMFlg1=           0
         NFxFlg=           0 DoJE=F BraDBF=F KetDBF=F FulRan=T
         wScrn=  0.000000 ICntrl=       600 IOpCl=  0 I1Cent=           0 NGrid=           0
         NMat0=    1 NMatS0=  73920 NMatT0=    0 NMatD0=    1 NMtDS0=    0 NMtDT0=    0
 Petite list used in FoFCou.
 Restricted open shell SCF:
 Using DIIS extrapolation, IDIIS=  1040.
 NGot= 21474836480 LenX= 20088504193 LenY= 20088256687
 Requested convergence on RMS density matrix=1.00D-08 within 300 cycles.
 Requested convergence on MAX density matrix=1.00D-06.
 Requested convergence on             energy=1.00D-06.
 No special actions if energy rises.

 Cycle   1  Pass 1  IDiag  1:
 E= -1124.24402059940    
 DIIS: error= 3.16D-01 at cycle   1 NSaved=   1.
 NSaved= 1 IEnMin= 1 EnMin= -1124.24402059940     IErMin= 1 ErrMin= 3.16D-01
 ErrMax= 3.16D-01  0.00D+00 EMaxC= 1.00D-01 BMatC= 1.37D+01 BMatP= 1.37D+01
 IDIUse=3 WtCom= 0.00D+00 WtEn= 1.00D+00
 Coeff-Com:  0.100D+01
 Coeff-En:   0.100D+01
 Coeff:      0.100D+01
 Fock symm off for IB=3 I1=   54 I=  256 J=  150 Cut=1.00D-07 Err=1.14D-07
 Fock matrix is not symmetric: symmetry in diagonalization turned off.
 Gap=     0.044 Goal=   None    Shift=    0.000
 GapD=    0.044 DampG=0.250 DampE=0.125 DampFc=0.1250 IDamp=-1.
 Damping current iteration by 1.25D-01
 RMSDP=4.74D-03 MaxDP=6.71D-01              OVMax= 1.00D+00

 Cycle   2  Pass 1  IDiag  1:
 E= -1124.24457683016     Delta-E=       -0.000556230763 Rises=F Damp=T
 DIIS: error= 2.77D-01 at cycle   2 NSaved=   2.
 NSaved= 2 IEnMin= 2 EnMin= -1124.24457683016     IErMin= 2 ErrMin= 2.77D-01
 ErrMax= 2.77D-01  0.00D+00 EMaxC= 1.00D-01 BMatC= 1.05D+01 BMatP= 1.37D+01
 IDIUse=3 WtCom= 0.00D+00 WtEn= 1.00D+00
 Coeff-Com: -0.700D+01 0.800D+01
 Coeff-En:   0.000D+00 0.100D+01
 Coeff:      0.000D+00 0.100D+01
 Gap=     0.033 Goal=   None    Shift=    0.000
 RMSDP=4.12D-03 MaxDP=5.89D-01 DE=-5.56D-04 OVMax= 1.67D-02

 Cycle   3  Pass 1  IDiag  1:
 Density matrix breaks symmetry, PCut= 1.00D-07
 Density matrix has no symmetry -- integrals replicated.
 E= -1124.24841831751     Delta-E=       -0.003841487342 Rises=F Damp=F
 DIIS: error= 9.17D-04 at cycle   3 NSaved=   3.
 NSaved= 3 IEnMin= 3 EnMin= -1124.24841831751     IErMin= 3 ErrMin= 9.17D-04
 ErrMax= 9.17D-04  0.00D+00 EMaxC= 1.00D-01 BMatC= 8.85D-05 BMatP= 1.05D+01
 IDIUse=3 WtCom= 9.91D-01 WtEn= 9.17D-03
 Coeff-Com: -0.143D+01 0.163D+01 0.796D+00
 Coeff-En:   0.000D+00 0.000D+00 0.100D+01
 Coeff:     -0.142D+01 0.162D+01 0.798D+00
 Gap=     0.033 Goal=   None    Shift=    0.000
 RMSDP=3.19D-04 MaxDP=7.61D-02 DE=-3.84D-03 OVMax= 4.24D-02

 Cycle   4  Pass 1  IDiag  1:
 Density matrix breaks symmetry, PCut= 1.00D-07
 Density matrix has no symmetry -- integrals replicated.
 E= -1124.24830440444     Delta-E=        0.000113913064 Rises=F Damp=F
 DIIS: error= 8.82D-04 at cycle   4 NSaved=   4.
 NSaved= 4 IEnMin= 3 EnMin= -1124.24841831751     IErMin= 4 ErrMin= 8.82D-04
 ErrMax= 8.82D-04  0.00D+00 EMaxC= 1.00D-01 BMatC= 9.88D-05 BMatP= 8.85D-05
 IDIUse=3 WtCom= 2.52D-01 WtEn= 7.48D-01
 Coeff-Com: -0.101D+01 0.115D+01 0.534D+00 0.322D+00
 Coeff-En:   0.000D+00 0.000D+00 0.556D+00 0.444D+00
 Coeff:     -0.253D+00 0.290D+00 0.550D+00 0.414D+00
 Gap=     0.033 Goal=   None    Shift=    0.000
 RMSDP=7.66D-04 MaxDP=2.37D-01 DE= 1.14D-04 OVMax= 6.09D-02

 Cycle   5  Pass 1  IDiag  1:
 Density matrix breaks symmetry, PCut= 1.00D-07
 Density matrix has no symmetry -- integrals replicated.
 E= -1124.24824866251     Delta-E=        0.000055741937 Rises=F Damp=F
 DIIS: error= 9.50D-04 at cycle   5 NSaved=   5.
 NSaved= 5 IEnMin= 3 EnMin= -1124.24841831751     IErMin= 4 ErrMin= 8.82D-04
 ErrMax= 9.50D-04  0.00D+00 EMaxC= 1.00D-01 BMatC= 1.12D-04 BMatP= 8.85D-05
 IDIUse=3 WtCom= 2.45D-01 WtEn= 7.55D-01
 EnCoef did     4 forward-backward iterations
 Coeff-Com: -0.555D+00 0.634D+00 0.365D+00 0.334D+00 0.222D+00
 Coeff-En:   0.000D+00 0.000D+00 0.189D+00 0.440D+00 0.371D+00
 Coeff:     -0.136D+00 0.155D+00 0.232D+00 0.414D+00 0.335D+00
 Gap=     0.033 Goal=   None    Shift=    0.000
 RMSDP=1.46D-04 MaxDP=2.03D-02 DE= 5.57D-05 OVMax= 3.61D-02

 Cycle   6  Pass 1  IDiag  1:
 Density matrix breaks symmetry, PCut= 1.00D-07
 Density matrix has no symmetry -- integrals replicated.
 E= -1124.24852088402     Delta-E=       -0.000272221515 Rises=F Damp=F
 DIIS: error= 5.91D-04 at cycle   6 NSaved=   6.
 NSaved= 6 IEnMin= 6 EnMin= -1124.24852088402     IErMin= 6 ErrMin= 5.91D-04
 ErrMax= 5.91D-04  0.00D+00 EMaxC= 1.00D-01 BMatC= 2.71D-05 BMatP= 8.85D-05
 IDIUse=3 WtCom= 9.94D-01 WtEn= 5.91D-03
 Rare condition: small coef for last iteration:  0.222D-15
 Coeff-Com: -0.188D+00 0.215D+00 0.369D-01 0.225D+00 0.263D+00 0.448D+00
 Coeff-En:   0.000D+00 0.000D+00 0.000D+00 0.277D+00 0.252D+00 0.471D+00
 Coeff:     -0.188D+00 0.215D+00 0.369D-01 0.225D+00 0.263D+00 0.448D+00
 Gap=     0.033 Goal=   None    Shift=    0.000
 RMSDP=1.90D-04 MaxDP=6.18D-02 DE=-2.72D-04 OVMax= 7.19D-03

 Cycle   7  Pass 1  IDiag  1:
 Density matrix breaks symmetry, PCut= 1.00D-07
 Density matrix has no symmetry -- integrals replicated.
 E= -1124.24857916078     Delta-E=       -0.000058276762 Rises=F Damp=F
 DIIS: error= 1.67D-04 at cycle   7 NSaved=   7.
 NSaved= 7 IEnMin= 7 EnMin= -1124.24857916078     IErMin= 7 ErrMin= 1.67D-04
 ErrMax= 1.67D-04  0.00D+00 EMaxC= 1.00D-01 BMatC= 1.75D-06 BMatP= 2.71D-05
 IDIUse=3 WtCom= 9.98D-01 WtEn= 1.67D-03
 EnCoef did   100 forward-backward iterations
 Rare condition: small coef for last iteration:  0.000D+00
 Coeff-Com: -0.159D+00 0.182D+00-0.443D-01 0.684D-01 0.953D-01 0.236D+00
 Coeff-Com:  0.622D+00
 Coeff-En:   0.000D+00 0.000D+00 0.950D-01 0.229D+00 0.145D+00 0.980D-01
 Coeff-En:   0.433D+00
 Coeff:     -0.159D+00 0.182D+00-0.443D-01 0.684D-01 0.953D-01 0.236D+00
 Coeff:      0.622D+00
 Gap=     0.033 Goal=   None    Shift=    0.000
 RMSDP=2.06D-05 MaxDP=6.16D-03 DE=-5.83D-05 OVMax= 1.29D-03

 Cycle   8  Pass 1  IDiag  1:
 Density matrix breaks symmetry, PCut= 1.00D-07
 Density matrix has no symmetry -- integrals replicated.
 E= -1124.24858063838     Delta-E=       -0.000001477599 Rises=F Damp=F
 DIIS: error= 8.34D-05 at cycle   8 NSaved=   8.
 NSaved= 8 IEnMin= 8 EnMin= -1124.24858063838     IErMin= 8 ErrMin= 8.34D-05
 ErrMax= 8.34D-05  0.00D+00 EMaxC= 1.00D-01 BMatC= 6.79D-07 BMatP= 1.75D-06
 IDIUse=1 WtCom= 1.00D+00 WtEn= 0.00D+00
 Coeff-Com: -0.156D+00 0.178D+00-0.375D-01 0.323D-01 0.418D-01 0.134D+00
 Coeff-Com:  0.418D+00 0.390D+00
 Coeff:     -0.156D+00 0.178D+00-0.375D-01 0.323D-01 0.418D-01 0.134D+00
 Coeff:      0.418D+00 0.390D+00
 Gap=     0.033 Goal=   None    Shift=    0.000
 RMSDP=1.25D-05 MaxDP=2.38D-03 DE=-1.48D-06 OVMax= 1.17D-03

 Cycle   9  Pass 1  IDiag  1:
 Density matrix breaks symmetry, PCut= 1.00D-07
 Density matrix has no symmetry -- integrals replicated.
 E= -1124.24858129459     Delta-E=       -0.000000656208 Rises=F Damp=F
 DIIS: error= 8.24D-05 at cycle   9 NSaved=   9.
 NSaved= 9 IEnMin= 9 EnMin= -1124.24858129459     IErMin= 9 ErrMin= 8.24D-05
 ErrMax= 8.24D-05  0.00D+00 EMaxC= 1.00D-01 BMatC= 4.66D-07 BMatP= 6.79D-07
 IDIUse=1 WtCom= 1.00D+00 WtEn= 0.00D+00
 Coeff-Com: -0.144D+00 0.164D+00-0.278D-01 0.622D-02 0.694D-02 0.529D-01
 Coeff-Com:  0.203D+00 0.361D+00 0.378D+00
 Coeff:     -0.144D+00 0.164D+00-0.278D-01 0.622D-02 0.694D-02 0.529D-01
 Coeff:      0.203D+00 0.361D+00 0.378D+00
 Gap=     0.033 Goal=   None    Shift=    0.000
 RMSDP=9.64D-06 MaxDP=2.62D-03 DE=-6.56D-07 OVMax= 7.02D-04

 Cycle  10  Pass 1  IDiag  1:
 Density matrix breaks symmetry, PCut= 1.00D-07
 Density matrix has no symmetry -- integrals replicated.
 E= -1124.24858162176     Delta-E=       -0.000000327167 Rises=F Damp=F
 DIIS: error= 7.37D-05 at cycle  10 NSaved=  10.
 NSaved=10 IEnMin=10 EnMin= -1124.24858162176     IErMin=10 ErrMin= 7.37D-05
 ErrMax= 7.37D-05  0.00D+00 EMaxC= 1.00D-01 BMatC= 3.17D-07 BMatP= 4.66D-07
 IDIUse=1 WtCom= 1.00D+00 WtEn= 0.00D+00
 Coeff-Com: -0.118D+00 0.135D+00-0.185D-01-0.123D-01-0.109D-01-0.495D-02
 Coeff-Com:  0.230D-01 0.181D+00 0.311D+00 0.515D+00
 Coeff:     -0.118D+00 0.135D+00-0.185D-01-0.123D-01-0.109D-01-0.495D-02
 Coeff:      0.230D-01 0.181D+00 0.311D+00 0.515D+00
 Gap=     0.033 Goal=   None    Shift=    0.000
 RMSDP=1.04D-05 MaxDP=3.37D-03 DE=-3.27D-07 OVMax= 2.68D-04

 Cycle  11  Pass 1  IDiag  1:
 Density matrix breaks symmetry, PCut= 1.00D-07
 Density matrix has no symmetry -- integrals replicated.
 E= -1124.24858177455     Delta-E=       -0.000000152792 Rises=F Damp=F
 DIIS: error= 6.02D-05 at cycle  11 NSaved=  11.
 NSaved=11 IEnMin=11 EnMin= -1124.24858177455     IErMin=11 ErrMin= 6.02D-05
 ErrMax= 6.02D-05  0.00D+00 EMaxC= 1.00D-01 BMatC= 2.15D-07 BMatP= 3.17D-07
 IDIUse=1 WtCom= 1.00D+00 WtEn= 0.00D+00
 Coeff-Com: -0.994D-01 0.114D+00-0.140D-01-0.170D-01-0.133D-01-0.208D-01
 Coeff-Com: -0.338D-01 0.761D-01 0.188D+00 0.442D+00 0.379D+00
 Coeff:     -0.994D-01 0.114D+00-0.140D-01-0.170D-01-0.133D-01-0.208D-01
 Coeff:     -0.338D-01 0.761D-01 0.188D+00 0.442D+00 0.379D+00
 Gap=     0.033 Goal=   None    Shift=    0.000
 RMSDP=7.04D-06 MaxDP=2.26D-03 DE=-1.53D-07 OVMax= 2.26D-04

 Cycle  12  Pass 1  IDiag  1:
 Density matrix breaks symmetry, PCut= 1.00D-07
 Density matrix has no symmetry -- integrals replicated.
 E= -1124.24858188987     Delta-E=       -0.000000115319 Rises=F Damp=F
 DIIS: error= 5.21D-05 at cycle  12 NSaved=  12.
 NSaved=12 IEnMin=12 EnMin= -1124.24858188987     IErMin=12 ErrMin= 5.21D-05
 ErrMax= 5.21D-05  0.00D+00 EMaxC= 1.00D-01 BMatC= 1.51D-07 BMatP= 2.15D-07
 IDIUse=1 WtCom= 1.00D+00 WtEn= 0.00D+00
 Coeff-Com: -0.774D-01 0.885D-01-0.110D-01-0.130D-01-0.774D-02-0.136D-01
 Coeff-Com: -0.229D-01 0.154D-01 0.474D-01 0.110D+00 0.185D+00 0.699D+00
 Coeff:     -0.774D-01 0.885D-01-0.110D-01-0.130D-01-0.774D-02-0.136D-01
 Coeff:     -0.229D-01 0.154D-01 0.474D-01 0.110D+00 0.185D+00 0.699D+00
 Gap=     0.033 Goal=   None    Shift=    0.000
 RMSDP=7.34D-06 MaxDP=2.39D-03 DE=-1.15D-07 OVMax= 9.79D-05

 Cycle  13  Pass 1  IDiag  1:
 Density matrix breaks symmetry, PCut= 1.00D-07
 Density matrix has no symmetry -- integrals replicated.
 E= -1124.24858198673     Delta-E=       -0.000000096863 Rises=F Damp=F
 DIIS: error= 4.05D-05 at cycle  13 NSaved=  13.
 NSaved=13 IEnMin=13 EnMin= -1124.24858198673     IErMin=13 ErrMin= 4.05D-05
 ErrMax= 4.05D-05  0.00D+00 EMaxC= 1.00D-01 BMatC= 9.27D-08 BMatP= 1.51D-07
 IDIUse=1 WtCom= 1.00D+00 WtEn= 0.00D+00
 Coeff-Com: -0.545D-01 0.622D-01-0.822D-02-0.605D-02-0.156D-02-0.472D-03
 Coeff-Com:  0.807D-02 0.680D-02-0.208D-01-0.139D+00-0.126D+00 0.493D+00
 Coeff-Com:  0.786D+00
 Coeff:     -0.545D-01 0.622D-01-0.822D-02-0.605D-02-0.156D-02-0.472D-03
 Coeff:      0.807D-02 0.680D-02-0.208D-01-0.139D+00-0.126D+00 0.493D+00
 Coeff:      0.786D+00
 Gap=     0.033 Goal=   None    Shift=    0.000
 RMSDP=8.00D-06 MaxDP=2.59D-03 DE=-9.69D-08 OVMax= 1.71D-04

 Cycle  14  Pass 1  IDiag  1:
 Density matrix breaks symmetry, PCut= 1.00D-07
 Density matrix has no symmetry -- integrals replicated.
 E= -1124.24858206103     Delta-E=       -0.000000074300 Rises=F Damp=F
 DIIS: error= 2.80D-05 at cycle  14 NSaved=  14.
 NSaved=14 IEnMin=14 EnMin= -1124.24858206103     IErMin=14 ErrMin= 2.80D-05
 ErrMax= 2.80D-05  0.00D+00 EMaxC= 1.00D-01 BMatC= 4.70D-08 BMatP= 9.27D-08
 IDIUse=1 WtCom= 1.00D+00 WtEn= 0.00D+00
 Coeff-Com: -0.305D-01 0.349D-01-0.527D-02 0.329D-03 0.228D-02 0.946D-02
 Coeff-Com:  0.335D-01 0.268D-01-0.144D-01-0.185D+00-0.329D+00-0.311D+00
 Coeff-Com:  0.116D+01 0.606D+00
 Coeff:     -0.305D-01 0.349D-01-0.527D-02 0.329D-03 0.228D-02 0.946D-02
 Coeff:      0.335D-01 0.268D-01-0.144D-01-0.185D+00-0.329D+00-0.311D+00
 Coeff:      0.116D+01 0.606D+00
 Gap=     0.033 Goal=   None    Shift=    0.000
 RMSDP=8.94D-06 MaxDP=2.86D-03 DE=-7.43D-08 OVMax= 1.47D-04

 Cycle  15  Pass 1  IDiag  1:
 Density matrix breaks symmetry, PCut= 1.00D-07
 Density matrix has no symmetry -- integrals replicated.
 E= -1124.24858211737     Delta-E=       -0.000000056335 Rises=F Damp=F
 DIIS: error= 1.56D-05 at cycle  15 NSaved=  15.
 NSaved=15 IEnMin=15 EnMin= -1124.24858211737     IErMin=15 ErrMin= 1.56D-05
 ErrMax= 1.56D-05  0.00D+00 EMaxC= 1.00D-01 BMatC= 1.44D-08 BMatP= 4.70D-08
 IDIUse=1 WtCom= 1.00D+00 WtEn= 0.00D+00
 Coeff-Com: -0.109D-01 0.124D-01-0.231D-02 0.184D-02 0.226D-02 0.802D-02
 Coeff-Com:  0.283D-01 0.177D-01-0.439D-02-0.766D-01-0.235D+00-0.676D+00
 Coeff-Com:  0.757D+00 0.563D+00 0.615D+00
 Coeff:     -0.109D-01 0.124D-01-0.231D-02 0.184D-02 0.226D-02 0.802D-02
 Coeff:      0.283D-01 0.177D-01-0.439D-02-0.766D-01-0.235D+00-0.676D+00
 Coeff:      0.757D+00 0.563D+00 0.615D+00
 Gap=     0.033 Goal=   None    Shift=    0.000
 RMSDP=7.61D-06 MaxDP=2.48D-03 DE=-5.63D-08 OVMax= 1.58D-04

 Cycle  16  Pass 1  IDiag  1:
 Density matrix breaks symmetry, PCut= 1.00D-07
 Density matrix has no symmetry -- integrals replicated.
 E= -1124.24858213639     Delta-E=       -0.000000019026 Rises=F Damp=F
 DIIS: error= 5.74D-06 at cycle  16 NSaved=  16.
 NSaved=16 IEnMin=16 EnMin= -1124.24858213639     IErMin=16 ErrMin= 5.74D-06
 ErrMax= 5.74D-06  0.00D+00 EMaxC= 1.00D-01 BMatC= 2.50D-09 BMatP= 1.44D-08
 IDIUse=1 WtCom= 1.00D+00 WtEn= 0.00D+00
 Coeff-Com: -0.417D-02 0.477D-02-0.118D-02 0.190D-02 0.187D-02 0.626D-02
 Coeff-Com:  0.223D-01 0.126D-01 0.561D-03-0.275D-01-0.168D+00-0.687D+00
 Coeff-Com:  0.526D+00 0.459D+00 0.633D+00 0.220D+00
 Coeff:     -0.417D-02 0.477D-02-0.118D-02 0.190D-02 0.187D-02 0.626D-02
 Coeff:      0.223D-01 0.126D-01 0.561D-03-0.275D-01-0.168D+00-0.687D+00
 Coeff:      0.526D+00 0.459D+00 0.633D+00 0.220D+00
 Gap=     0.033 Goal=   None    Shift=    0.000
 RMSDP=2.74D-06 MaxDP=8.43D-04 DE=-1.90D-08 OVMax= 1.20D-04

 Cycle  17  Pass 1  IDiag  1:
 Density matrix breaks symmetry, PCut= 1.00D-07
 Density matrix has no symmetry -- integrals replicated.
 E= -1124.24858214117     Delta-E=       -0.000000004784 Rises=F Damp=F
 DIIS: error= 2.33D-06 at cycle  17 NSaved=  17.
 NSaved=17 IEnMin=17 EnMin= -1124.24858214117     IErMin=17 ErrMin= 2.33D-06
 ErrMax= 2.33D-06  0.00D+00 EMaxC= 1.00D-01 BMatC= 3.45D-10 BMatP= 2.50D-09
 IDIUse=1 WtCom= 1.00D+00 WtEn= 0.00D+00
 Coeff-Com:  0.715D-03-0.817D-03 0.108D-03 0.306D-03 0.208D-03 0.407D-03
 Coeff-Com:  0.186D-02 0.453D-02 0.117D-01 0.420D-01 0.958D-02-0.185D+00
 Coeff-Com:  0.187D-01 0.339D-01-0.792D-01 0.184D+00 0.957D+00
 Coeff:      0.715D-03-0.817D-03 0.108D-03 0.306D-03 0.208D-03 0.407D-03
 Coeff:      0.186D-02 0.453D-02 0.117D-01 0.420D-01 0.958D-02-0.185D+00
 Coeff:      0.187D-01 0.339D-01-0.792D-01 0.184D+00 0.957D+00
 Gap=     0.033 Goal=   None    Shift=    0.000
 RMSDP=1.70D-06 MaxDP=5.67D-04 DE=-4.78D-09 OVMax= 3.58D-05

 Cycle  18  Pass 1  IDiag  1:
 Density matrix breaks symmetry, PCut= 1.00D-07
 Density matrix has no symmetry -- integrals replicated.
 E= -1124.24858214181     Delta-E=       -0.000000000633 Rises=F Damp=F
 DIIS: error= 4.56D-07 at cycle  18 NSaved=  18.
 NSaved=18 IEnMin=18 EnMin= -1124.24858214181     IErMin=18 ErrMin= 4.56D-07
 ErrMax= 4.56D-07  0.00D+00 EMaxC= 1.00D-01 BMatC= 3.39D-11 BMatP= 3.45D-10
 IDIUse=1 WtCom= 1.00D+00 WtEn= 0.00D+00
 Coeff-Com:  0.303D-02-0.346D-02 0.514D-03 0.207D-03 0.302D-03-0.216D-03
 Coeff-Com: -0.211D-02 0.149D-03 0.409D-02 0.184D-01 0.332D-01 0.665D-01
 Coeff-Com: -0.714D-01-0.806D-01-0.276D+00-0.497D-02 0.438D+00 0.874D+00
 Coeff:      0.303D-02-0.346D-02 0.514D-03 0.207D-03 0.302D-03-0.216D-03
 Coeff:     -0.211D-02 0.149D-03 0.409D-02 0.184D-01 0.332D-01 0.665D-01
 Coeff:     -0.714D-01-0.806D-01-0.276D+00-0.497D-02 0.438D+00 0.874D+00
 Gap=     0.033 Goal=   None    Shift=    0.000
 RMSDP=7.86D-07 MaxDP=2.47D-04 DE=-6.33D-10 OVMax= 3.70D-05

 Cycle  19  Pass 1  IDiag  1:
 Density matrix breaks symmetry, PCut= 1.00D-07
 Density matrix has no symmetry -- integrals replicated.
 E= -1124.24858214146     Delta-E=        0.000000000351 Rises=F Damp=F
 DIIS: error= 1.62D-06 at cycle  19 NSaved=  19.
 NSaved=19 IEnMin=18 EnMin= -1124.24858214181     IErMin=18 ErrMin= 4.56D-07
 ErrMax= 1.62D-06  0.00D+00 EMaxC= 1.00D-01 BMatC= 1.96D-10 BMatP= 3.39D-11
 IDIUse=1 WtCom= 1.00D+00 WtEn= 0.00D+00
 Coeff-Com:  0.345D-02-0.394D-02 0.568D-03 0.231D-03 0.365D-03-0.166D-03
 Coeff-Com: -0.237D-02-0.118D-02 0.479D-03 0.603D-02 0.304D-01 0.120D+00
 Coeff-Com: -0.736D-01-0.904D-01-0.263D+00-0.629D-01 0.160D+00 0.927D+00
 Coeff-Com:  0.249D+00
 Coeff:      0.345D-02-0.394D-02 0.568D-03 0.231D-03 0.365D-03-0.166D-03
 Coeff:     -0.237D-02-0.118D-02 0.479D-03 0.603D-02 0.304D-01 0.120D+00
 Coeff:     -0.736D-01-0.904D-01-0.263D+00-0.629D-01 0.160D+00 0.927D+00
 Coeff:      0.249D+00
 Gap=     0.033 Goal=   None    Shift=    0.000
 RMSDP=2.24D-07 MaxDP=4.88D-05 DE= 3.51D-10 OVMax= 3.77D-05

 Cycle  20  Pass 1  IDiag  1:
 Density matrix breaks symmetry, PCut= 1.00D-07
 Density matrix has no symmetry -- integrals replicated.
 E= -1124.24858214157     Delta-E=       -0.000000000111 Rises=F Damp=F
 DIIS: error= 1.78D-06 at cycle  20 NSaved=  20.
 NSaved=20 IEnMin=18 EnMin= -1124.24858214181     IErMin=18 ErrMin= 4.56D-07
 ErrMax= 1.78D-06  0.00D+00 EMaxC= 1.00D-01 BMatC= 1.87D-10 BMatP= 3.39D-11
 IDIUse=1 WtCom= 1.00D+00 WtEn= 0.00D+00
 Coeff-Com:  0.267D-02-0.305D-02 0.406D-03 0.267D-03 0.336D-03 0.152D-03
 Coeff-Com: -0.812D-03-0.141D-02-0.206D-02-0.347D-02 0.121D-01 0.758D-01
 Coeff-Com: -0.279D-01-0.400D-01-0.966D-01-0.590D-01-0.959D-01 0.464D+00
 Coeff-Com:  0.267D+00 0.508D+00
 Coeff:      0.267D-02-0.305D-02 0.406D-03 0.267D-03 0.336D-03 0.152D-03
 Coeff:     -0.812D-03-0.141D-02-0.206D-02-0.347D-02 0.121D-01 0.758D-01
 Coeff:     -0.279D-01-0.400D-01-0.966D-01-0.590D-01-0.959D-01 0.464D+00
 Coeff:      0.267D+00 0.508D+00
 Gap=     0.033 Goal=   None    Shift=    0.000
 RMSDP=2.51D-07 MaxDP=7.54D-05 DE=-1.11D-10 OVMax= 1.31D-05

 Cycle  21  Pass 1  IDiag  1:
 Density matrix breaks symmetry, PCut= 1.00D-07
 Density matrix has no symmetry -- integrals replicated.
 E= -1124.24858214170     Delta-E=       -0.000000000138 Rises=F Damp=F
 DIIS: error= 1.42D-06 at cycle  21 NSaved=  20.
 NSaved=20 IEnMin=17 EnMin= -1124.24858214181     IErMin=17 ErrMin= 4.56D-07
 ErrMax= 1.42D-06  0.00D+00 EMaxC= 1.00D-01 BMatC= 1.10D-10 BMatP= 3.39D-11
 IDIUse=1 WtCom= 1.00D+00 WtEn= 0.00D+00
 Coeff-Com:  0.495D-08-0.243D-04 0.115D-03 0.154D-03 0.373D-03 0.111D-02
 Coeff-Com:  0.586D-03-0.477D-03-0.429D-02-0.518D-02 0.332D-02 0.304D-01
 Coeff-Com:  0.192D-01 0.461D-01-0.233D-01-0.170D+00-0.114D-01 0.138D+00
 Coeff-Com:  0.485D+00 0.490D+00
 Coeff:      0.495D-08-0.243D-04 0.115D-03 0.154D-03 0.373D-03 0.111D-02
 Coeff:      0.586D-03-0.477D-03-0.429D-02-0.518D-02 0.332D-02 0.304D-01
 Coeff:      0.192D-01 0.461D-01-0.233D-01-0.170D+00-0.114D-01 0.138D+00
 Coeff:      0.485D+00 0.490D+00
 Gap=     0.033 Goal=   None    Shift=    0.000
 RMSDP=9.52D-07 MaxDP=3.08D-04 DE=-1.38D-10 OVMax= 1.21D-05

 Cycle  22  Pass 1  IDiag  1:
 Density matrix breaks symmetry, PCut= 1.00D-07
 Density matrix has no symmetry -- integrals replicated.
 E= -1124.24858214188     Delta-E=       -0.000000000178 Rises=F Damp=F
 DIIS: error= 8.67D-08 at cycle  22 NSaved=  20.
 NSaved=20 IEnMin=20 EnMin= -1124.24858214188     IErMin=20 ErrMin= 8.67D-08
 ErrMax= 8.67D-08  0.00D+00 EMaxC= 1.00D-01 BMatC= 1.44D-12 BMatP= 3.39D-11
 IDIUse=1 WtCom= 1.00D+00 WtEn= 0.00D+00
 Coeff-Com: -0.162D-04 0.888D-04 0.989D-04 0.268D-03 0.938D-03 0.221D-03
 Coeff-Com: -0.516D-03-0.240D-02-0.544D-02-0.143D-01 0.279D-01 0.223D-01
 Coeff-Com:  0.489D-01-0.837D-02-0.111D+00-0.884D-01 0.605D-01 0.293D+00
 Coeff-Com:  0.404D+00 0.372D+00
 Coeff:     -0.162D-04 0.888D-04 0.989D-04 0.268D-03 0.938D-03 0.221D-03
 Coeff:     -0.516D-03-0.240D-02-0.544D-02-0.143D-01 0.279D-01 0.223D-01
 Coeff:      0.489D-01-0.837D-02-0.111D+00-0.884D-01 0.605D-01 0.293D+00
 Coeff:      0.404D+00 0.372D+00
 Gap=     0.033 Goal=   None    Shift=    0.000
 RMSDP=7.26D-08 MaxDP=6.77D-06 DE=-1.78D-10 OVMax= 6.58D-06

 Cycle  23  Pass 1  IDiag  1:
 Density matrix breaks symmetry, PCut= 1.00D-07
 Density matrix has no symmetry -- integrals replicated.
 E= -1124.24858214188     Delta-E=       -0.000000000001 Rises=F Damp=F
 DIIS: error= 9.19D-08 at cycle  23 NSaved=  20.
 NSaved=20 IEnMin=20 EnMin= -1124.24858214188     IErMin=19 ErrMin= 8.67D-08
 ErrMax= 9.19D-08  0.00D+00 EMaxC= 1.00D-01 BMatC= 1.11D-12 BMatP= 1.44D-12
 IDIUse=1 WtCom= 1.00D+00 WtEn= 0.00D+00
 Coeff-Com:  0.158D-05 0.124D-04 0.287D-04 0.329D-03-0.144D-03-0.115D-03
 Coeff-Com:  0.100D-02-0.268D-02-0.233D-01 0.168D-01 0.169D-01 0.303D-01
 Coeff-Com:  0.443D-02-0.281D-01-0.115D+00-0.132D-01 0.649D-01 0.212D+00
 Coeff-Com:  0.459D+00 0.377D+00
 Coeff:      0.158D-05 0.124D-04 0.287D-04 0.329D-03-0.144D-03-0.115D-03
 Coeff:      0.100D-02-0.268D-02-0.233D-01 0.168D-01 0.169D-01 0.303D-01
 Coeff:      0.443D-02-0.281D-01-0.115D+00-0.132D-01 0.649D-01 0.212D+00
 Coeff:      0.459D+00 0.377D+00
 Gap=     0.033 Goal=   None    Shift=    0.000
 RMSDP=5.16D-08 MaxDP=4.28D-06 DE=-1.36D-12 OVMax= 4.21D-06

 Cycle  24  Pass 1  IDiag  1:
 Density matrix breaks symmetry, PCut= 1.00D-07
 Density matrix has no symmetry -- integrals replicated.
 E= -1124.24858214189     Delta-E=       -0.000000000002 Rises=F Damp=F
 DIIS: error= 3.13D-08 at cycle  24 NSaved=  20.
 NSaved=20 IEnMin=20 EnMin= -1124.24858214189     IErMin=20 ErrMin= 3.13D-08
 ErrMax= 3.13D-08  0.00D+00 EMaxC= 1.00D-01 BMatC= 2.02D-13 BMatP= 1.11D-12
 IDIUse=1 WtCom= 1.00D+00 WtEn= 0.00D+00
 Coeff-Com:  0.248D-05-0.662D-05 0.860D-04-0.263D-03-0.191D-03 0.119D-02
 Coeff-Com: -0.114D-02-0.169D-01 0.637D-02 0.652D-02 0.467D-03 0.803D-02
 Coeff-Com:  0.343D-01-0.609D-01-0.459D-01-0.996D-01-0.251D-01 0.207D+00
 Coeff-Com:  0.344D+00 0.642D+00
 Coeff:      0.248D-05-0.662D-05 0.860D-04-0.263D-03-0.191D-03 0.119D-02
 Coeff:     -0.114D-02-0.169D-01 0.637D-02 0.652D-02 0.467D-03 0.803D-02
 Coeff:      0.343D-01-0.609D-01-0.459D-01-0.996D-01-0.251D-01 0.207D+00
 Coeff:      0.344D+00 0.642D+00
 Gap=     0.033 Goal=   None    Shift=    0.000
 RMSDP=2.77D-08 MaxDP=3.38D-06 DE=-2.27D-12 OVMax= 1.02D-06

 Cycle  25  Pass 1  IDiag  1:
 Density matrix breaks symmetry, PCut= 1.00D-07
 Density matrix has no symmetry -- integrals replicated.
 E= -1124.24858214189     Delta-E=       -0.000000000003 Rises=F Damp=F
 DIIS: error= 1.29D-08 at cycle  25 NSaved=  20.
 NSaved=20 IEnMin=20 EnMin= -1124.24858214189     IErMin=20 ErrMin= 1.29D-08
 ErrMax= 1.29D-08  0.00D+00 EMaxC= 1.00D-01 BMatC= 3.65D-14 BMatP= 2.02D-13
 IDIUse=1 WtCom= 1.00D+00 WtEn= 0.00D+00
 Coeff-Com: -0.539D-06 0.310D-05 0.311D-04 0.182D-03 0.850D-03-0.169D-03
 Coeff-Com: -0.618D-02-0.124D-02-0.150D-03-0.640D-02 0.486D-02 0.315D-01
 Coeff-Com: -0.543D-02-0.245D-01-0.807D-01-0.893D-01-0.602D-01 0.418D-01
 Coeff-Com:  0.353D+00 0.842D+00
 Coeff:     -0.539D-06 0.310D-05 0.311D-04 0.182D-03 0.850D-03-0.169D-03
 Coeff:     -0.618D-02-0.124D-02-0.150D-03-0.640D-02 0.486D-02 0.315D-01
 Coeff:     -0.543D-02-0.245D-01-0.807D-01-0.893D-01-0.602D-01 0.418D-01
 Coeff:      0.353D+00 0.842D+00
 Gap=     0.033 Goal=   None    Shift=    0.000
 RMSDP=1.05D-08 MaxDP=2.44D-06 DE=-2.96D-12 OVMax= 4.65D-07

 Cycle  26  Pass 1  IDiag  1:
 Density matrix breaks symmetry, PCut= 1.00D-07
 Density matrix has no symmetry -- integrals replicated.
 E= -1124.24858214189     Delta-E=        0.000000000003 Rises=F Damp=F
 DIIS: error= 1.28D-08 at cycle  26 NSaved=  20.
 NSaved=20 IEnMin=19 EnMin= -1124.24858214189     IErMin=20 ErrMin= 1.28D-08
 ErrMax= 1.28D-08  0.00D+00 EMaxC= 1.00D-01 BMatC= 1.72D-14 BMatP= 3.65D-14
 IDIUse=1 WtCom= 1.00D+00 WtEn= 0.00D+00
 Coeff-Com: -0.170D-04 0.906D-04 0.192D-03 0.427D-03 0.163D-03-0.786D-03
 Coeff-Com: -0.226D-02-0.141D-02-0.446D-02 0.155D-02 0.141D-01 0.100D-01
 Coeff-Com: -0.601D-02-0.315D-01-0.564D-01-0.997D-01-0.623D-01 0.897D-01
 Coeff-Com:  0.616D+00 0.533D+00
 Coeff:     -0.170D-04 0.906D-04 0.192D-03 0.427D-03 0.163D-03-0.786D-03
 Coeff:     -0.226D-02-0.141D-02-0.446D-02 0.155D-02 0.141D-01 0.100D-01
 Coeff:     -0.601D-02-0.315D-01-0.564D-01-0.997D-01-0.623D-01 0.897D-01
 Coeff:      0.616D+00 0.533D+00
 Gap=     0.033 Goal=   None    Shift=    0.000
 RMSDP=2.70D-09 MaxDP=3.23D-07 DE= 2.96D-12 OVMax= 2.76D-07

 Density matrix breaks symmetry, PCut= 1.00D-07
 Density matrix has no symmetry -- integrals replicated.
 SCF Done:  E(ROHF) =  -1124.24858214     A.U. after   26 cycles
            NFock= 26  Conv=0.27D-08     -V/T= 1.9651
 <Sx>= 0.0000 <Sy>= 0.0000 <Sz>= 2.0000 <S**2>= 6.0000 S= 2.0000
 <L.S>=  0.00000000000    
 KE= 1.164963498240D+03 PE=-2.880075016886D+03 EE= 5.061945827567D+02
 Annihilation of the first spin contaminant:
 S**2 before annihilation     6.0000,   after     6.0000
 Leave Link  502 at Wed Mar 14 14:23:15 2018, MaxMem= 21474836480 cpu:             760.5 elap:              73.9
 (Enter /home1/apps/gaussian/16rA.03/g16/l801.exe)
 Windowed orbitals will be sorted by symmetry type.
 An orbital has undefined symmetry, so N**3 symmetry is turned off.
 Density matrix breaks symmetry, PCut= 1.00D-07
 Density matrix has no symmetry -- integrals replicated.
 GenMOA:  NOpAll=  4 NOp2=4 NOpUse=  1 JSym2X=2
 FoFJK:  IHMeth= 1 ICntrl=       0 DoSepK=F KAlg= 0 I1Cent=           0 FoldK=F
 IRaf=         0 NMat=       1 IRICut=       1 DoRegI=T DoRafI=F ISym2E= 2 IDoP0=0 IntGTp=1.
 FoFCou: FMM=F IPFlag=           8 FMFlag=      100000 FMFlg1=           0
         NFxFlg=           0 DoJE=F BraDBF=F KetDBF=F FulRan=T
         wScrn=  0.000000 ICntrl=         0 IOpCl=  1 I1Cent=           0 NGrid=           0
         NMat0=    1 NMatS0=      1 NMatT0=    0 NMatD0=    1 NMtDS0=    0 NMtDT0=    0
 Integrals replicated using symmetry in FoFCou.
 <Sx>= 0.0000 <Sy>= 0.0000 <Sz>= 2.0000 <S**2>= 6.0000 S= 2.0000
 Range of M.O.s used for correlation:     7   380
 NBasis=   384 NAE=    18 NBE=    14 NFC=     6 NFV=     0
 NROrb=    374 NOA=    12 NOB=     8 NVA=   362 NVB=   366

 **** Warning!!: The largest alpha MO coefficient is  0.32752355D+03


 **** Warning!!: The largest beta MO coefficient is  0.32734469D+03

 Singles contribution to E2=   -0.5050632028D-02
 Leave Link  801 at Wed Mar 14 14:23:30 2018, MaxMem= 21474836480 cpu:             472.2 elap:              14.8
 (Enter /home1/apps/gaussian/16rA.03/g16/l804.exe)
 Open-shell transformation, MDV= 21474836480 ITran=4 ISComp=1.
 Unit  1 TFree=       4468647 TCopy=       3430655.
 Semi-Direct transformation.
 ModeAB=           4 MOrb=            12 LenV=   21470638199
 LASXX=    307313061 LTotXX=   307313061 LenRXX=   617405811
 LTotAB=   310092750 MaxLAS=   551943216 LenRXY=           0
 NonZer=   924718872 LenScr=  1392518144 LnRSAI=   551943216
 LnScr1=   831162368 LExtra=    22450380 Total=   3415479919
 MaxDsk= 67108864000 SrtSym=           T ITran=            4
 DoSDTr:  NPSUse= 32
 JobTyp=1 Pass  1:  I=   1 to  12.
 (rs|ai) integrals will be sorted in core.
 Complete sort for first half transformation.
 First half transformation complete.
 Begin second half transformation for I=  10.
 Complete sort for second half transformation.
 Second half transformation complete.
 ModeAB=           4 MOrb=             8 LenV=   21470638199
 LASXX=    206101594 LTotXX=   206101594 LenRXX=   400845286
 LTotAB=   194743692 MaxLAS=   367962144 LenRXY=           0
 NonZer=   606946880 LenScr=   913990656 LnRSAI=   367962144
 LnScr1=   554107904 LExtra=   639856191 Total=   2876762181
 MaxDsk= 67108864000 SrtSym=           T ITran=            4
 DoSDTr:  NPSUse= 32
 JobTyp=2 Pass  1:  I=   1 to   8.
 (rs|ai) integrals will be sorted in core.
 Complete sort for first half transformation.
 First half transformation complete.
 Complete sort for second half transformation.
 Second half transformation complete.
 SymMOI:  orbitals are not symmetric.
 Spin components of T(2) and E(2):
     alpha-alpha T2 =       0.4332547794D-01 E2=     -0.1871832083D+00
     alpha-beta  T2 =       0.1114582303D+00 E2=     -0.6182438255D+00
     beta-beta   T2 =       0.2072276987D-01 E2=     -0.9791708371D-01
 ANorm=    0.1085681410D+01
 E2 =    -0.9083947495D+00 EUMP2 =    -0.11251569768914D+04
 (S**2,0)=  0.60000D+01           (S**2,1)=  0.60000D+01
 E(PUHF)=      -0.11242485821D+04        E(PMP2)=      -0.11251569769D+04
 Recovering and transforming amplitudes from chk file.
 B after Tr=     0.000000    0.000000    0.000000
         Rot=    1.000000    0.000000    0.000000    0.000000 Ang=   0.00 deg.
 Alpha occ  Sing. vals= 1.000000D+00 1.000000D+00 1.000000D+00 1.000000D+00 1.000000D+00 9.999998D-01 9.999993D-01 9.999989D-01 9.999989D-01 9.999987D-01
 Alpha occ  Sing. vals= 9.999946D-01 9.999908D-01 9.999907D-01 9.999858D-01 9.999853D-01 9.999706D-01 9.999509D-01 9.999489D-01
 Alpha occ  NOrbO=    18 NOrbN=    18 NSVal=    18 ThrEig=  0.900000.
 TrMax= 1.000000D+00 PrMax= 1.000000D+00 Trace(Pr)= 1.200000D+01
 B after Tr=     0.000000    0.000000    0.000000
         Rot=    1.000000    0.000000    0.000000    0.000000 Ang=   0.00 deg.
 Alpha virt Sing. vals= 1.000000D+00 1.000000D+00 1.000000D+00 1.000000D+00 1.000000D+00 1.000000D+00 1.000000D+00 1.000000D+00 1.000000D+00 1.000000D+00
 Alpha virt Sing. vals= 1.000000D+00 1.000000D+00 1.000000D+00 1.000000D+00 1.000000D+00 1.000000D+00 1.000000D+00 1.000000D+00 1.000000D+00 1.000000D+00
 Alpha virt Sing. vals= 1.000000D+00 9.999999D-01 9.999999D-01 9.999999D-01 9.999999D-01 9.999999D-01 9.999999D-01 9.999999D-01 9.999999D-01 9.999999D-01
 Alpha virt Sing. vals= 9.999998D-01 9.999998D-01 9.999997D-01 9.999996D-01 9.999996D-01 9.999996D-01 9.999996D-01 9.999995D-01 9.999995D-01 9.999992D-01
 Alpha virt Sing. vals= 9.999991D-01 9.999989D-01 9.999989D-01 9.999989D-01 9.999985D-01 9.999979D-01 9.999978D-01 9.999978D-01 9.999978D-01 9.999960D-01
 Alpha virt Sing. vals= 9.999958D-01 9.999948D-01 9.999939D-01 9.999937D-01 9.999934D-01 9.999913D-01 9.999894D-01 9.999874D-01 9.999853D-01 9.999849D-01
 Alpha virt Sing. vals= 9.999819D-01 9.999776D-01 9.999752D-01 9.999752D-01 9.999752D-01 9.999748D-01 9.999746D-01 9.999543D-01 9.999535D-01 9.999534D-01
 Alpha virt Sing. vals= 9.999485D-01 9.999484D-01 9.999441D-01 9.999250D-01 9.999250D-01 9.999221D-01 9.999055D-01 9.999030D-01 9.999030D-01 9.998593D-01
 Alpha virt Sing. vals= 9.998582D-01 9.998582D-01 9.998523D-01 9.998493D-01 9.998490D-01 9.998246D-01 9.998246D-01 9.998246D-01 9.998224D-01 9.998215D-01
 Alpha virt Sing. vals= 9.998215D-01 9.997993D-01 9.997941D-01 9.997940D-01 9.997936D-01 9.997927D-01 9.997927D-01 9.997746D-01 9.997745D-01 9.997555D-01
 Alpha virt Sing. vals= 9.997555D-01 9.997358D-01 9.997358D-01 9.996762D-01 9.996202D-01 9.996201D-01 9.996168D-01 9.996122D-01 9.996122D-01 9.995828D-01
 Alpha virt Sing. vals= 9.995692D-01 9.995649D-01 9.995649D-01 9.995218D-01 9.995215D-01 9.994661D-01 9.993916D-01 9.993916D-01 9.993802D-01 9.993802D-01
 Alpha virt Sing. vals= 9.993712D-01 9.993712D-01 9.993566D-01 9.993566D-01 9.993389D-01 9.992136D-01 9.990477D-01 9.989312D-01 9.989312D-01 9.988992D-01
 Alpha virt Sing. vals= 9.988984D-01 9.986667D-01 9.983024D-01 9.983024D-01 9.982592D-01 9.982479D-01 9.982479D-01 9.981274D-01 9.981272D-01 9.981272D-01
 Alpha virt Sing. vals= 9.980756D-01 9.980755D-01 9.977412D-01 9.976684D-01 9.976684D-01 9.974262D-01 9.974262D-01 9.973600D-01 9.973598D-01 9.971872D-01
 Alpha virt Sing. vals= 9.967975D-01 9.966889D-01 9.966889D-01 9.964238D-01 9.964238D-01 9.961725D-01 9.961725D-01 9.958407D-01 9.958407D-01 9.956860D-01
 Alpha virt Sing. vals= 9.956850D-01 9.956850D-01 9.954087D-01 9.943015D-01 9.939901D-01 9.939901D-01 9.939618D-01 9.939618D-01 9.933747D-01 9.923772D-01
 Alpha virt Sing. vals= 9.918346D-01 9.918345D-01 9.912840D-01 9.912291D-01 9.912290D-01 9.904232D-01 9.904232D-01 9.892750D-01 9.892750D-01 9.834529D-01
 Alpha virt Sing. vals= 9.834528D-01 9.832994D-01 9.818653D-01 9.818650D-01 9.815649D-01 9.815648D-01 9.812533D-01 9.812533D-01 9.802486D-01 9.800766D-01
 Alpha virt Sing. vals= 9.778913D-01 9.773102D-01 9.755853D-01 9.755853D-01 9.709124D-01 9.709124D-01 9.707830D-01 9.652843D-01 9.652840D-01 9.651751D-01
 Alpha virt Sing. vals= 9.627203D-01 9.627201D-01 9.568162D-01 9.557414D-01 9.557414D-01 9.538082D-01 9.538081D-01 9.429004D-01 9.399986D-01 9.399979D-01
 Alpha virt Sing. vals= 9.399979D-01 9.377517D-01 9.346446D-01 9.346442D-01 9.300842D-01 9.300842D-01 9.277783D-01 9.220332D-01 9.220332D-01 9.214246D-01
 Alpha virt Sing. vals= 9.214246D-01 9.202141D-01 9.202141D-01 8.938033D-01 8.938031D-01 8.923238D-01 8.536452D-01 8.536449D-01 8.496172D-01 8.496172D-01
 Alpha virt Sing. vals= 8.392273D-01 8.392271D-01 8.234675D-01 7.512468D-01
 Alpha virt NOrbO=   234 NOrbN=   362 NSVal=   223 ThrEig=  0.900000.
 TrMax= 9.985047D-01 PrMax= 9.996266D-01 Trace(Pr)= 2.230000D+02
 B after Tr=     0.000000    0.000000    0.000000
         Rot=    1.000000    0.000000    0.000000    0.000000 Ang=   0.00 deg.
 Beta  occ  Sing. vals= 1.000000D+00 1.000000D+00 1.000000D+00 1.000000D+00 1.000000D+00 9.999998D-01 9.999989D-01 9.999989D-01 9.999987D-01 9.999984D-01
 Beta  occ  Sing. vals= 9.999944D-01 9.999707D-01 9.999517D-01 9.999489D-01
 Beta  occ  NOrbO=    14 NOrbN=    14 NSVal=    14 ThrEig=  0.900000.
 TrMax= 1.000000D+00 PrMax= 1.000000D+00 Trace(Pr)= 8.000000D+00
 B after Tr=     0.000000    0.000000    0.000000
         Rot=    1.000000    0.000000    0.000000    0.000000 Ang=   0.00 deg.
 Beta  virt Sing. vals= 1.000000D+00 1.000000D+00 1.000000D+00 1.000000D+00 1.000000D+00 1.000000D+00 1.000000D+00 1.000000D+00 1.000000D+00 1.000000D+00
 Beta  virt Sing. vals= 1.000000D+00 1.000000D+00 1.000000D+00 1.000000D+00 1.000000D+00 1.000000D+00 1.000000D+00 1.000000D+00 1.000000D+00 1.000000D+00
 Beta  virt Sing. vals= 1.000000D+00 1.000000D+00 1.000000D+00 1.000000D+00 9.999999D-01 9.999999D-01 9.999999D-01 9.999999D-01 9.999999D-01 9.999999D-01
 Beta  virt Sing. vals= 9.999999D-01 9.999999D-01 9.999999D-01 9.999999D-01 9.999997D-01 9.999997D-01 9.999997D-01 9.999996D-01 9.999996D-01 9.999996D-01
 Beta  virt Sing. vals= 9.999996D-01 9.999994D-01 9.999994D-01 9.999992D-01 9.999991D-01 9.999989D-01 9.999989D-01 9.999989D-01 9.999985D-01 9.999979D-01
 Beta  virt Sing. vals= 9.999978D-01 9.999978D-01 9.999978D-01 9.999958D-01 9.999958D-01 9.999947D-01 9.999939D-01 9.999935D-01 9.999934D-01 9.999913D-01
 Beta  virt Sing. vals= 9.999895D-01 9.999874D-01 9.999854D-01 9.999853D-01 9.999818D-01 9.999775D-01 9.999751D-01 9.999748D-01 9.999748D-01 9.999746D-01
 Beta  virt Sing. vals= 9.999746D-01 9.999543D-01 9.999534D-01 9.999534D-01 9.999484D-01 9.999484D-01 9.999440D-01 9.999240D-01 9.999240D-01 9.999221D-01
 Beta  virt Sing. vals= 9.999055D-01 9.999030D-01 9.999030D-01 9.998593D-01 9.998582D-01 9.998582D-01 9.998522D-01 9.998490D-01 9.998489D-01 9.998246D-01
 Beta  virt Sing. vals= 9.998246D-01 9.998246D-01 9.998224D-01 9.998215D-01 9.998215D-01 9.997993D-01 9.997940D-01 9.997940D-01 9.997936D-01 9.997926D-01
 Beta  virt Sing. vals= 9.997926D-01 9.997746D-01 9.997745D-01 9.997555D-01 9.997555D-01 9.997358D-01 9.997358D-01 9.996762D-01 9.996201D-01 9.996201D-01
 Beta  virt Sing. vals= 9.996167D-01 9.996122D-01 9.996122D-01 9.995828D-01 9.995692D-01 9.995649D-01 9.995649D-01 9.995218D-01 9.995217D-01 9.994659D-01
 Beta  virt Sing. vals= 9.993916D-01 9.993916D-01 9.993802D-01 9.993802D-01 9.993712D-01 9.993712D-01 9.993566D-01 9.993566D-01 9.993389D-01 9.992131D-01
 Beta  virt Sing. vals= 9.990475D-01 9.989296D-01 9.989296D-01 9.988985D-01 9.988984D-01 9.986668D-01 9.983015D-01 9.983015D-01 9.982593D-01 9.982479D-01
 Beta  virt Sing. vals= 9.982479D-01 9.981276D-01 9.981272D-01 9.981272D-01 9.980755D-01 9.980753D-01 9.977412D-01 9.976684D-01 9.976683D-01 9.974260D-01
 Beta  virt Sing. vals= 9.974260D-01 9.973598D-01 9.973598D-01 9.971872D-01 9.967975D-01 9.966889D-01 9.966889D-01 9.964238D-01 9.964238D-01 9.961725D-01
 Beta  virt Sing. vals= 9.961725D-01 9.958406D-01 9.958406D-01 9.956860D-01 9.956850D-01 9.956850D-01 9.954087D-01 9.943015D-01 9.939900D-01 9.939900D-01
 Beta  virt Sing. vals= 9.939618D-01 9.939618D-01 9.933746D-01 9.923771D-01 9.918345D-01 9.918344D-01 9.912840D-01 9.912291D-01 9.912290D-01 9.904230D-01
 Beta  virt Sing. vals= 9.904230D-01 9.892751D-01 9.892750D-01 9.834528D-01 9.834527D-01 9.832995D-01 9.818648D-01 9.818648D-01 9.815650D-01 9.815649D-01
 Beta  virt Sing. vals= 9.812533D-01 9.812533D-01 9.802483D-01 9.800766D-01 9.778912D-01 9.773102D-01 9.755853D-01 9.755852D-01 9.709121D-01 9.709121D-01
 Beta  virt Sing. vals= 9.707828D-01 9.652845D-01 9.652843D-01 9.651750D-01 9.627203D-01 9.627203D-01 9.568162D-01 9.557416D-01 9.557416D-01 9.538078D-01
 Beta  virt Sing. vals= 9.538078D-01 9.429008D-01 9.399986D-01 9.399979D-01 9.399979D-01 9.377518D-01 9.346442D-01 9.346442D-01 9.300842D-01 9.300842D-01
 Beta  virt Sing. vals= 9.277783D-01 9.220330D-01 9.220330D-01 9.214246D-01 9.214246D-01 9.202141D-01 9.202141D-01 8.938033D-01 8.938031D-01 8.923236D-01
 Beta  virt Sing. vals= 8.536452D-01 8.536451D-01 8.496172D-01 8.496172D-01 8.392271D-01 8.392271D-01 8.234676D-01 7.512468D-01
 Beta  virt NOrbO=   238 NOrbN=   366 NSVal=   227 ThrEig=  0.900000.
 TrMax= 9.969235D-01 PrMax= 9.985577D-01 Trace(Pr)= 2.270000D+02
 Leave Link  804 at Wed Mar 14 14:28:26 2018, MaxMem= 21474836480 cpu:            9445.9 elap:             296.0
 (Enter /home1/apps/gaussian/16rA.03/g16/l913.exe)
 CIDS:  MDV= 21474836480.
 Frozen-core window:  NFC=   6 NFV=   0.
 IFCWin=0 IBDFC=1 NFBD=     0     0 NFCmp=     0     0 NFFFC=     0     0
 Amplitudes recovered.
 Using DD4UQ or CC4UQ for all iterations.
 Keep R2 and R3 ints in memory in symmetry-blocked form, NReq=3425138977.
 FoFCou: FMM=F IPFlag=           8 FMFlag=           0 FMFlg1=           0
         NFxFlg=           0 DoJE=F BraDBF=F KetDBF=F FulRan=T
         wScrn=  0.000000 ICntrl=       600 IOpCl=  0 I1Cent=           0 NGrid=           0
         NMat0=    1 NMatS0=  73920 NMatT0=    0 NMatD0=    1 NMtDS0=    0 NMtDT0=    0
 Petite list used in FoFCou.
 CIDS: In Core Option IDoMem=           1.
 CCSD(T)
 =======
 Iterations= 150 Convergence= 0.100D-06
 Produce multiple copies of IABC intergrals
 Iteration Nr.   1
 **********************
 DD1Dir will call FoFMem   1 times, MxPair=       286
 NAB=    96 NAA=    66 NBB=    28.
 Maximum subspace dimension=  5
 A-vector RMS=  1.4919235D-04 Max=  3.3912207D-03 conv= 1.00D-05.
 RLE energy=       -0.8652636406
 DE(Corr)= -0.86402993     E(Corr)=     -1125.1126121    
 NORM(A)=   0.10962826D+01
 Iteration Nr.   2
 **********************
 DD1Dir will call FoFMem   1 times, MxPair=       286
 NAB=    96 NAA=    66 NBB=    28.
 A-vector RMS=  9.3600466D-05 Max=  1.5783417D-03 conv= 1.00D-05.
 RLE energy=       -0.8633252084
 DE(Corr)= -0.86329040     E(CORR)=     -1125.1118725     Delta= 7.40D-04
 NORM(A)=   0.10963285D+01
 Iteration Nr.   3
 **********************
 DD1Dir will call FoFMem   1 times, MxPair=       286
 NAB=    96 NAA=    66 NBB=    28.
 A-vector RMS=  4.6866338D-05 Max=  8.6527379D-04 conv= 1.00D-05.
 RLE energy=       -0.8644132813
 DE(Corr)= -0.86471179     E(CORR)=     -1125.1132939     Delta=-1.42D-03
 NORM(A)=   0.10965518D+01
 Iteration Nr.   4
 **********************
 DD1Dir will call FoFMem   1 times, MxPair=       286
 NAB=    96 NAA=    66 NBB=    28.
 A-vector RMS=  2.4753949D-05 Max=  4.3058439D-04 conv= 1.00D-05.
 RLE energy=       -0.8644424992
 DE(Corr)= -0.86431293     E(CORR)=     -1125.1128951     Delta= 3.99D-04
 NORM(A)=   0.10966986D+01
 Iteration Nr.   5
 **********************
 DD1Dir will call FoFMem   1 times, MxPair=       286
 NAB=    96 NAA=    66 NBB=    28.
 A-vector RMS=  9.7677107D-06 Max=  1.8886014D-04 conv= 1.00D-05.
 RLE energy=       -0.8644486844
 DE(Corr)= -0.86443891     E(CORR)=     -1125.1130211     Delta=-1.26D-04
 NORM(A)=   0.10967472D+01
 Iteration Nr.   6
 **********************
 DD1Dir will call FoFMem   1 times, MxPair=       286
 NAB=    96 NAA=    66 NBB=    28.
 A-vector RMS=  4.0699326D-06 Max=  1.2275250D-04 conv= 1.00D-05.
 RLE energy=       -0.8644581071
 DE(Corr)= -0.86445670     E(CORR)=     -1125.1130388     Delta=-1.78D-05
 NORM(A)=   0.10967614D+01
 Iteration Nr.   7
 **********************
 DD1Dir will call FoFMem   1 times, MxPair=       286
 NAB=    96 NAA=    66 NBB=    28.
 A-vector RMS=  1.6295040D-06 Max=  2.8500930D-05 conv= 1.00D-05.
 RLE energy=       -0.8644605286
 DE(Corr)= -0.86445919     E(CORR)=     -1125.1130413     Delta=-2.49D-06
 NORM(A)=   0.10967522D+01
 Iteration Nr.   8
 **********************
 DD1Dir will call FoFMem   1 times, MxPair=       286
 NAB=    96 NAA=    66 NBB=    28.
 A-vector RMS=  8.3322252D-07 Max=  3.1289169D-05 conv= 1.00D-05.
 RLE energy=       -0.8644544032
 DE(Corr)= -0.86445658     E(CORR)=     -1125.1130387     Delta= 2.61D-06
 NORM(A)=   0.10967418D+01
 Iteration Nr.   9
 **********************
 DD1Dir will call FoFMem   1 times, MxPair=       286
 NAB=    96 NAA=    66 NBB=    28.
 A-vector RMS=  3.5021687D-07 Max=  6.8240780D-06 conv= 1.00D-05.
 RLE energy=       -0.8644557310
 DE(Corr)= -0.86445640     E(CORR)=     -1125.1130385     Delta= 1.71D-07
 NORM(A)=   0.10967369D+01
 Iteration Nr.  10
 **********************
 DD1Dir will call FoFMem   1 times, MxPair=       286
 NAB=    96 NAA=    66 NBB=    28.
 A-vector RMS=  2.1392956D-07 Max=  6.8326404D-06 conv= 1.00D-05.
 RLE energy=       -0.8644544038
 DE(Corr)= -0.86445486     E(CORR)=     -1125.1130370     Delta= 1.54D-06
 NORM(A)=   0.10967332D+01
 Iteration Nr.  11
 **********************
 DD1Dir will call FoFMem   1 times, MxPair=       286
 NAB=    96 NAA=    66 NBB=    28.
 A-vector RMS=  9.4240924D-08 Max=  1.8595786D-06 conv= 1.00D-05.
 RLE energy=       -0.8644546227
 DE(Corr)= -0.86445481     E(CORR)=     -1125.1130370     Delta= 4.81D-08
 NORM(A)=   0.10967322D+01
 CI/CC converged in   11 iterations to DelEn= 4.81D-08 Conv= 1.00D-07 ErrA1= 9.42D-08 Conv= 1.00D-05
 Wavefunction amplitudes converged. E(Corr)=     -1125.1130370    
 Largest amplitude= 8.05D-02
 Time for triples=    79449.49 seconds.
 T4(CCSD)= -0.45046294D-01
 T5(CCSD)=  0.55317143D-02
 CCSD(T)= -0.11251525515D+04
 Discarding MO integrals.
 Leave Link  913 at Wed Mar 14 15:19:56 2018, MaxMem= 21474836480 cpu:           98158.4 elap:            3090.1
 (Enter /home1/apps/gaussian/16rA.03/g16/l601.exe)
 Copying SCF densities to generalized density rwf, IOpCl= 0 IROHF=1.
 SCF density gives NOpUse=  1 NOpAll=  4.
 Marking SCF density as not fully symmetric.

 **********************************************************************

            Population analysis using the SCF density.

 **********************************************************************

 Orbital symmetries:
       Occupied  (SG) (SG) (SG) (PI) (PI) (SG) (SG) (SG) (PI) (PI)
                 (SG) (PI) (PI) (SG) (?A) (?A) (?A) (?B)
       Virtual   (?B) (SG) (SG) (?B) (?C) (?B) (?C) (?C) (?B) (?B)
                 (SG) (?B) (?D) (SG) (?B) (?B) (?D) (?D) (?B) (?D)
                 (?B) (?B) (SG) (?B) (SG) (?B) (?E) (?E) (?E) (PHI)
                 (PHI) (?B) (?B) (SG) (?B) (?F) (?F) (?B) (?F)
                 (?B) (?B) (?G) (?G) (?G) (?B) (?B) (SG) (SG) (PI)
                 (PI) (?H) (PHI) (PHI) (?I) (?I) (?H) (?H) (?B)
                 (?B) (?B) (?B) (?J) (?J) (?J) (?K) (?K) (?K) (?B)
                 (?B) (SG) (?L) (?L) (SG) (?L) (?L) (DLTA) (DLTA)
                 (PI) (PI) (SG) (PI) (PI) (SG) (PI) (PI) (DLTA)
                 (DLTA) (SG) (SG) (?L) (?L) (PI) (PI) (?L) (?L)
                 (?L) (PHI) (PHI) (SG) (?I) (?I) (?L) (?L) (?L)
                 (?L) (?I) (?I) (?L) (?L) (?L) (?L) (?L) (?L) (PHI)
                 (PHI) (?L) (PI) (SG) (PI) (DLTA) (DLTA) (?I) (?I)
                 (PI) (PI) (SG) (PHI) (PHI) (PI) (PI) (?L) (?L)
                 (?L) (PI) (PI) (SG) (PHI) (PHI) (DLTA) (DLTA)
                 (SG) (PI) (PI) (?L) (?L) (?L) (PI) (PI) (?L) (?L)
                 (?L) (SG) (PI) (PI) (SG) (PHI) (PHI) (PI) (?L)
                 (PI) (?L) (?L) (?L) (?L) (?L) (?L) (?L) (?L) (?L)
                 (?L) (SG) (?L) (?L) (?L) (?L) (?I) (?I) (?L) (?L)
                 (PI) (PI) (?L) (?L) (?L) (SG) (?I) (?I) (PI) (PI)
                 (PHI) (PHI) (SG) (DLTA) (DLTA) (SG) (PI) (PI)
                 (PHI) (PHI) (DLTA) (DLTA) (PI) (PI) (DLTA) (DLTA)
                 (SG) (DLTA) (DLTA) (PI) (PI) (SG) (SG) (PI) (PI)
                 (SG) (SG) (PI) (PI) (SG) (PHI) (PHI) (DLTA) (DLTA)
                 (PI) (PI) (DLTA) (DLTA) (SG) (PI) (PI) (?I) (?I)
                 (PHI) (PHI) (SG) (DLTA) (DLTA) (PI) (PI) (SG)
                 (?I) (?I) (?L) (?L) (PHI) (PHI) (?L) (?L) (PI)
                 (PI) (?L) (PI) (PI) (SG) (SG) (PI) (PI) (SG) (DLTA)
                 (DLTA) (PI) (PI) (SG) (SG) (DLTA) (DLTA) (PI)
                 (PI) (SG) (DLTA) (DLTA) (PI) (PI) (SG) (PI) (PI)
                 (PI) (PI) (SG) (SG) (SG) (SG) (PHI) (PHI) (DLTA)
                 (DLTA) (PI) (PI) (SG) (DLTA) (DLTA) (PI) (PI)
                 (SG) (PI) (PI) (SG) (PI) (PI) (SG) (SG) (SG) (DLTA)
                 (DLTA) (PI) (PI) (SG) (SG) (PI) (PI) (SG) (DLTA)
                 (DLTA) (PI) (PI) (SG) (PI) (PI) (SG) (SG) (SG)
                 (PI) (PI) (SG) (PI) (PI) (SG) (SG) (DLTA) (DLTA)
                 (PI) (PI) (SG) (SG) (PI) (PI) (SG) (SG) (SG) (PI)
                 (PI) (SG) (SG) (SG) (PI) (PI) (SG) (SG) (SG) (PI)
                 (PI) (SG) (SG) (PI) (PI) (SG) (SG) (SG) (SG) (SG)
                 (SG) (SG)
 Unable to determine electronic state:  an orbital has unidentified symmetry.
 Alpha  occ. eigenvalues -- -222.21295 -26.80200 -22.43635 -22.43490 -22.43036
 Alpha  occ. eigenvalues --  -20.63795  -3.68264  -2.47673  -2.42154  -2.38905
 Alpha  occ. eigenvalues --   -1.25144  -0.74840  -0.69011  -0.65525  -0.50339
 Alpha  occ. eigenvalues --   -0.50247  -0.29861  -0.26480
 Alpha virt. eigenvalues --    0.01398   0.02084   0.02567   0.02592   0.04854
 Alpha virt. eigenvalues --    0.05040   0.05466   0.05471   0.05511   0.05610
 Alpha virt. eigenvalues --    0.08643   0.08817   0.10293   0.13936   0.15003
 Alpha virt. eigenvalues --    0.16920   0.17272   0.17281   0.18088   0.19219
 Alpha virt. eigenvalues --    0.20302   0.21618   0.23160   0.23637   0.29391
 Alpha virt. eigenvalues --    0.29849   0.35242   0.38385   0.38387   0.39922
 Alpha virt. eigenvalues --    0.39925   0.45555   0.46373   0.46858   0.46930
 Alpha virt. eigenvalues --    0.46979   0.48220   0.48725   0.54179   0.60321
 Alpha virt. eigenvalues --    0.60703   0.62599   0.64282   0.64307   0.64919
 Alpha virt. eigenvalues --    0.65502   0.72237   0.75988   1.02905   1.03198
 Alpha virt. eigenvalues --    1.06512   1.16177   1.16177   1.16620   1.16620
 Alpha virt. eigenvalues --    1.18429   1.18434   1.21496   1.21527   1.22143
 Alpha virt. eigenvalues --    1.22150   1.22274   1.22465   1.23728   1.29280
 Alpha virt. eigenvalues --    1.29364   1.30553   1.31152   1.32716   1.45927
 Alpha virt. eigenvalues --    1.55374   1.55585   1.56413   1.63995   1.63996
 Alpha virt. eigenvalues --    1.64512   1.64517   1.68904   1.69919   1.73282
 Alpha virt. eigenvalues --    1.99773   1.99987   2.06944   2.22058   2.22205
 Alpha virt. eigenvalues --    2.25050   2.25052   2.31682   2.62418   2.93389
 Alpha virt. eigenvalues --    2.93389   2.98280   3.00403   3.09844   3.13761
 Alpha virt. eigenvalues --    3.13768   3.27688   3.27689   3.33457   3.35288
 Alpha virt. eigenvalues --    3.35288   3.40959   3.40959   3.41851   3.42282
 Alpha virt. eigenvalues --    3.47898   3.47898   3.53672   3.53672   3.55742
 Alpha virt. eigenvalues --    3.56115   3.59783   3.59784   3.75300   3.75300
 Alpha virt. eigenvalues --    3.77531   3.88292   3.88724   3.89217   4.00225
 Alpha virt. eigenvalues --    4.00235   4.06458   4.06459   4.06459   4.07725
 Alpha virt. eigenvalues --    4.14635   4.17538   4.17538   4.32004   4.32951
 Alpha virt. eigenvalues --    4.34892   4.41273   4.41301   4.59290   4.60001
 Alpha virt. eigenvalues --    4.84409   4.99097   4.99097   5.04952   5.04956
 Alpha virt. eigenvalues --    5.50302   5.82468   5.82484   5.82748   5.82985
 Alpha virt. eigenvalues --    5.85573   6.16689   6.16940   6.26114   6.28095
 Alpha virt. eigenvalues --    6.28672   6.55182   6.75184   6.75368   7.15646
 Alpha virt. eigenvalues --    8.52239   8.52239   8.91309   8.93017   8.93372
 Alpha virt. eigenvalues --    9.11443   9.11459   9.33583   9.33584   9.34327
 Alpha virt. eigenvalues --    9.34327   9.35522   9.35525   9.36276   9.36510
 Alpha virt. eigenvalues --    9.60149   9.75895   9.76783   9.79910   9.79914
 Alpha virt. eigenvalues --    9.95474   9.95474   9.98855   9.98855  10.14061
 Alpha virt. eigenvalues --   10.14532  10.16281  10.16340  10.21741  10.42610
 Alpha virt. eigenvalues --   10.66469  10.66469  10.74207  10.74819  11.18367
 Alpha virt. eigenvalues --   11.18367  11.34493  11.80040  11.80041  11.82596
 Alpha virt. eigenvalues --   11.92715  11.93431  11.95686  11.95686  12.01848
 Alpha virt. eigenvalues --   12.01854  12.19018  12.19580  12.46565  12.46567
 Alpha virt. eigenvalues --   12.79717  13.18242  13.18243  13.32208  13.32958
 Alpha virt. eigenvalues --   13.47779  13.97806  15.38032  15.38751  15.93711
 Alpha virt. eigenvalues --   16.05958  17.70354  17.72451  18.41854  21.13777
 Alpha virt. eigenvalues --   21.13777  21.35207  21.35217  21.47354  21.48868
 Alpha virt. eigenvalues --   21.63694  21.63695  21.94491  22.24421  22.25031
 Alpha virt. eigenvalues --   23.18523  23.18523  23.22986  23.22986  23.40447
 Alpha virt. eigenvalues --   23.45504  23.45504  24.30395  24.31620  24.89808
 Alpha virt. eigenvalues --   26.35614  26.35614  26.36369  26.36369  26.42306
 Alpha virt. eigenvalues --   26.42307  26.63604  26.63630  26.90366  26.92140
 Alpha virt. eigenvalues --   27.08531  27.91619  27.92215  29.74371  30.33177
 Alpha virt. eigenvalues --   34.25933  34.28219  34.76981  36.30861  36.30870
 Alpha virt. eigenvalues --   36.41985  36.44134  36.89520  37.26434  47.19543
 Alpha virt. eigenvalues --   47.19543  48.06082  48.06425  49.06388  62.92369
 Alpha virt. eigenvalues --   62.92379  63.02176  63.04358  63.40402  67.31907
 Alpha virt. eigenvalues --   67.32465  68.62677  68.64824  69.01693  69.07509
 Alpha virt. eigenvalues --   71.12140  79.73387 102.96188 102.96188 102.99842
 Alpha virt. eigenvalues --  102.99843 103.07213 103.07496 103.26483 124.38742
 Alpha virt. eigenvalues --  124.38749 124.47989 124.49583 124.82263 141.86829
 Alpha virt. eigenvalues --  141.88514 142.28452 146.78208 146.78673 148.23220
 Alpha virt. eigenvalues --  153.95952 177.93087 197.23022 197.23022 197.69013
 Alpha virt. eigenvalues --  197.69200 198.25383 280.59029 298.85170 298.86300
 Alpha virt. eigenvalues --  299.23563 300.75419 300.75422 300.83511 300.84334
 Alpha virt. eigenvalues --  301.09336 306.97829 306.98165 308.50750 438.99674
 Alpha virt. eigenvalues --  501.98588 630.70740 630.70935 632.06369 639.69382
 Alpha virt. eigenvalues --  639.70060 640.03897 913.63273 944.98785 944.98786
 Alpha virt. eigenvalues --  945.04293 945.04582 945.202201038.267631396.56409
 Alpha virt. eigenvalues -- 1396.567821396.861751892.887792362.721633120.06087
 Alpha virt. eigenvalues -- 3120.062743120.301854902.311725188.472547129.40217
 Alpha virt. eigenvalues -- 7129.402997129.57629******************************
 Alpha virt. eigenvalues -- **************************************************
 Alpha virt. eigenvalues -- **************************************************
 Alpha virt. eigenvalues -- ********************
     Molecular Orbital Coefficients:
                          10        11        12        13        14
                           O         O         O         O         O
     Eigenvalues --    -2.38905  -1.25144  -0.74840  -0.69011  -0.65525
   1 1   Cr 1S         -0.00000  -0.00000  -0.00000   0.00000  -0.00000
   2        2S         -0.00000  -0.00000  -0.00000  -0.00000  -0.00000
   3        3S         -0.00000  -0.00001  -0.00000   0.00000  -0.00001
   4        4S         -0.00000  -0.00002  -0.00000  -0.00000  -0.00001
   5        5S         -0.00000  -0.00005  -0.00000   0.00000  -0.00003
   6        6S         -0.00000  -0.00012  -0.00000  -0.00000  -0.00008
   7        7S         -0.00000  -0.00030  -0.00000   0.00000  -0.00020
   8        8S         -0.00000  -0.00075  -0.00000   0.00000  -0.00050
   9        9S         -0.00000  -0.00179  -0.00000   0.00000  -0.00119
  10       10S         -0.00000  -0.00401  -0.00000  -0.00000  -0.00267
  11       11S         -0.00000  -0.00759  -0.00000   0.00000  -0.00505
  12       12S         -0.00000  -0.01168  -0.00000  -0.00000  -0.00780
  13       13S         -0.00000  -0.00766  -0.00000  -0.00000  -0.00508
  14       14S          0.00000   0.01643   0.00000   0.00000   0.01096
  15       15S          0.00000   0.06545   0.00000  -0.00000   0.04474
  16       16S          0.00000   0.04978   0.00000   0.00000   0.03522
  17       17S         -0.00000  -0.06064  -0.00000   0.00000  -0.04054
  18       18S         -0.00000  -0.14135  -0.00000   0.00000  -0.04816
  19       19S          0.00000  -0.09385  -0.00000  -0.00000  -0.13435
  20       20S          0.00000  -0.03054  -0.00000  -0.00000   0.00254
  21       21S          0.00000  -0.02788  -0.00000   0.00000   0.06136
  22       22S          0.00000  -0.00189   0.00000   0.00000  -0.00250
  23       23S         -0.00000   0.01213  -0.00000  -0.00000   0.00676
  24       24S          0.00000  -0.01612   0.00000  -0.00000  -0.04991
  25       25S         -0.00000   0.00061  -0.00000  -0.00000   0.00191
  26       26PX        -0.00002  -0.00000   0.00000   0.00000  -0.00000
  27       26PY        -0.00000  -0.00000   0.00000   0.00000   0.00000
  28       26PZ         0.00000  -0.00001  -0.00000   0.00000  -0.00000
  29       27PX        -0.00006   0.00000   0.00001   0.00000   0.00000
  30       27PY        -0.00000   0.00000  -0.00000   0.00001  -0.00000
  31       27PZ        -0.00000  -0.00002   0.00000  -0.00000  -0.00001
  32       28PX        -0.00028  -0.00000   0.00005   0.00000  -0.00000
  33       28PY        -0.00000  -0.00000  -0.00000   0.00005   0.00000
  34       28PZ         0.00000  -0.00011  -0.00000   0.00000  -0.00006
  35       29PX        -0.00108   0.00000   0.00019   0.00000   0.00000
  36       29PY        -0.00000   0.00000  -0.00000   0.00018  -0.00000
  37       29PZ        -0.00000  -0.00042   0.00000  -0.00000  -0.00022
  38       30PX        -0.00382  -0.00000   0.00065   0.00000  -0.00000
  39       30PY        -0.00000  -0.00000  -0.00000   0.00064   0.00000
  40       30PZ         0.00000  -0.00146  -0.00000   0.00000  -0.00076
  41       31PX        -0.01177   0.00000   0.00203   0.00000   0.00000
  42       31PY        -0.00000   0.00000  -0.00000   0.00200  -0.00000
  43       31PZ        -0.00000  -0.00451   0.00000  -0.00000  -0.00237
  44       32PX        -0.03124  -0.00000   0.00535   0.00000  -0.00000
  45       32PY         0.00000   0.00000  -0.00000   0.00524   0.00000
  46       32PZ        -0.00000  -0.01197  -0.00000   0.00000  -0.00623
  47       33PX        -0.06798   0.00000   0.01179   0.00000   0.00000
  48       33PY        -0.00000   0.00000   0.00000   0.01160  -0.00000
  49       33PZ        -0.00000  -0.02616  -0.00000  -0.00000  -0.01380
  50       34PX        -0.11461  -0.00000   0.01963   0.00000  -0.00000
  51       34PY         0.00000   0.00000  -0.00000   0.01924   0.00000
  52       34PZ        -0.00000  -0.04403  -0.00000   0.00000  -0.02287
  53       35PX        -0.13759   0.00000   0.02438   0.00000   0.00000
  54       35PY        -0.00000   0.00000   0.00000   0.02406  -0.00000
  55       35PZ        -0.00000  -0.05345  -0.00000  -0.00000  -0.02877
  56       36PX        -0.03710   0.00000   0.01093   0.00000   0.00000
  57       36PY        -0.00000   0.00000   0.00000   0.01160  -0.00000
  58       36PZ        -0.00000  -0.01731  -0.00000  -0.00000  -0.02196
  59       37PX         0.19189   0.00000  -0.03413   0.00000   0.00000
  60       37PY        -0.00000   0.00000   0.00000  -0.03316  -0.00000
  61       37PZ        -0.00000   0.07938   0.00000  -0.00000   0.04072
  62       38PX         0.38657  -0.00000  -0.14204  -0.00000  -0.00000
  63       38PY         0.00000  -0.00000  -0.00000  -0.15286   0.00000
  64       38PZ         0.00000   0.19558   0.00000   0.00000   0.26576
  65       39PX         0.38085  -0.00000  -0.08367  -0.00000  -0.00000
  66       39PY         0.00000  -0.00000  -0.00000  -0.08349   0.00000
  67       39PZ         0.00000   0.16209   0.00000   0.00000   0.11230
  68       40PX         0.15446   0.00000  -0.03976   0.00000   0.00000
  69       40PY         0.00000  -0.00000   0.00000  -0.03411  -0.00000
  70       40PZ        -0.00000   0.07511  -0.00000  -0.00000   0.06306
  71       41PX         0.01312   0.00000  -0.02649  -0.00000   0.00000
  72       41PY         0.00000  -0.00000   0.00000  -0.03133  -0.00000
  73       41PZ        -0.00000   0.01907   0.00000   0.00000  -0.01687
  74       42PX         0.00035   0.00000  -0.00376   0.00000   0.00000
  75       42PY         0.00000   0.00000   0.00000  -0.02459  -0.00000
  76       42PZ        -0.00000   0.01820   0.00000  -0.00000  -0.02054
  77       43PX         0.00053  -0.00000  -0.00019  -0.00000   0.00000
  78       43PY        -0.00000   0.00000   0.00000  -0.00368  -0.00000
  79       43PZ         0.00000  -0.00037   0.00000   0.00000  -0.00444
  80       44PX        -0.01167  -0.00000  -0.00431  -0.00000  -0.00000
  81       44PY         0.00000  -0.00000  -0.00000  -0.00533   0.00000
  82       44PZ         0.00000  -0.00017   0.00000   0.00000   0.01468
  83       45PX         0.01570   0.00000   0.06609   0.00000   0.00000
  84       45PY        -0.00000   0.00000   0.00000   0.07795  -0.00000
  85       45PZ        -0.00000  -0.02575  -0.00000  -0.00000  -0.18349
  86       46PX        -0.00009  -0.00000  -0.00029   0.00000   0.00000
[...]
 170       62F-2        0.00003   0.00003   0.00000   0.00003
 171       62F+3        0.00000   0.00000   0.00000   0.00000
 172       62F-3        0.00000   0.00000   0.00000  -0.00000
 173       63F 0        0.01079   0.00540   0.00539   0.00001
 174       63F+1        0.00894   0.00447   0.00447   0.00001
 175       63F-1        0.00996   0.00498   0.00498  -0.00000
 176       63F+2        0.00010   0.00010   0.00000   0.00010
 177       63F-2        0.00007   0.00007   0.00000   0.00007
 178       63F+3        0.00001   0.00000   0.00000  -0.00000
 179       63F-3        0.00001   0.00000   0.00000   0.00000
 180       64F 0        0.00084   0.00035   0.00049  -0.00013
 181       64F+1        0.01619   0.00968   0.00650   0.00318
 182       64F-1        0.01451   0.00726   0.00726  -0.00000
 183       64F+2        0.00006   0.00006   0.00000   0.00006
 184       64F-2       -0.00002  -0.00002   0.00000  -0.00002
 185       64F+3        0.00000   0.00000   0.00000   0.00000
 186       64F-3        0.00000   0.00000   0.00000   0.00000
 187       65F 0       -0.00323  -0.00181  -0.00142  -0.00039
 188       65F+1       -0.00168  -0.00030  -0.00138   0.00108
 189       65F-1       -0.00282  -0.00141  -0.00141   0.00000
 190       65F+2        0.00003   0.00003   0.00000   0.00003
 191       65F-2       -0.00001  -0.00001   0.00000  -0.00001
 192       65F+3        0.00000   0.00000   0.00000   0.00000
 193       65F-3        0.00000   0.00000   0.00000   0.00000
 194       66G 0        0.00002   0.00001   0.00001   0.00000
 195       66G+1        0.00000   0.00000   0.00000  -0.00000
 196       66G-1        0.00000   0.00000   0.00000   0.00000
 197       66G+2        0.00000   0.00000   0.00000   0.00000
 198       66G-2        0.00000   0.00000   0.00000   0.00000
 199       66G+3        0.00000   0.00000   0.00000   0.00000
 200       66G-3        0.00000   0.00000   0.00000  -0.00000
 201       66G+4        0.00000   0.00000   0.00000   0.00000
 202       66G-4        0.00000   0.00000   0.00000   0.00000
 203       67G 0        0.00073   0.00037   0.00036   0.00000
 204       67G+1        0.00051   0.00025   0.00026  -0.00001
 205       67G-1        0.00053   0.00026   0.00026  -0.00000
 206       67G+2        0.00000   0.00000   0.00000   0.00000
 207       67G-2        0.00000   0.00000   0.00000   0.00000
 208       67G+3        0.00000   0.00000   0.00000   0.00000
 209       67G-3        0.00000   0.00000   0.00000  -0.00000
 210       67G+4        0.00000   0.00000   0.00000   0.00000
 211       67G-4        0.00000   0.00000   0.00000   0.00000
 212       68G 0        0.00127   0.00064   0.00062   0.00002
 213       68G+1        0.00394   0.00202   0.00191   0.00011
 214       68G-1        0.00380   0.00190   0.00190  -0.00000
 215       68G+2        0.00001   0.00001   0.00000   0.00001
 216       68G-2        0.00000   0.00000   0.00000   0.00000
 217       68G+3        0.00000   0.00000   0.00000   0.00000
 218       68G-3        0.00000   0.00000   0.00000  -0.00000
 219       68G+4        0.00000   0.00000   0.00000   0.00000
 220       68G-4        0.00000   0.00000   0.00000   0.00000
 221       69G 0       -0.00023  -0.00008  -0.00015   0.00008
 222       69G+1        0.00220   0.00140   0.00080   0.00059
 223       69G-1        0.00150   0.00075   0.00075  -0.00000
 224       69G+2       -0.00000  -0.00000   0.00000  -0.00000
 225       69G-2       -0.00001  -0.00001   0.00000  -0.00001
 226       69G+3        0.00000   0.00000   0.00000   0.00000
 227       69G-3        0.00000   0.00000   0.00000   0.00000
 228       69G+4        0.00000   0.00000   0.00000   0.00000
 229       69G-4        0.00000   0.00000   0.00000   0.00000
 230       70H 0        0.00001   0.00000   0.00000   0.00000
 231       70H+1        0.00000   0.00000   0.00000  -0.00000
 232       70H-1        0.00000   0.00000   0.00000   0.00000
 233       70H+2        0.00000   0.00000   0.00000   0.00000
 234       70H-2        0.00000   0.00000   0.00000   0.00000
 235       70H+3        0.00000   0.00000   0.00000  -0.00000
 236       70H-3        0.00000   0.00000   0.00000   0.00000
 237       70H+4       -0.00000  -0.00000   0.00000  -0.00000
 238       70H-4       -0.00000  -0.00000   0.00000  -0.00000
 239       70H+5        0.00000   0.00000   0.00000  -0.00000
 240       70H-5        0.00000   0.00000   0.00000  -0.00000
 241       71H 0        0.00018   0.00009   0.00009  -0.00000
 242       71H+1        0.00022   0.00010   0.00012  -0.00002
 243       71H-1        0.00025   0.00012   0.00012  -0.00000
 244       71H+2        0.00000   0.00000   0.00000   0.00000
 245       71H-2        0.00000   0.00000   0.00000   0.00000
 246       71H+3        0.00000   0.00000   0.00000   0.00000
 247       71H-3        0.00000   0.00000   0.00000   0.00000
 248       71H+4        0.00000   0.00000   0.00000   0.00000
 249       71H-4        0.00000   0.00000   0.00000   0.00000
 250       71H+5        0.00000   0.00000   0.00000   0.00000
 251       71H-5        0.00000   0.00000   0.00000  -0.00000
 252       72H 0        0.00002   0.00001   0.00001   0.00000
 253       72H+1        0.00102   0.00050   0.00052  -0.00001
 254       72H-1        0.00109   0.00055   0.00055  -0.00000
 255       72H+2        0.00000   0.00000  -0.00000   0.00000
 256       72H-2        0.00000   0.00000   0.00000   0.00000
 257       72H+3        0.00000   0.00000   0.00000  -0.00000
 258       72H-3        0.00000   0.00000   0.00000   0.00000
 259       72H+4        0.00000   0.00000   0.00000   0.00000
 260       72H-4        0.00000   0.00000   0.00000   0.00000
 261       72H+5        0.00000   0.00000   0.00000   0.00000
 262       72H-5        0.00000   0.00000   0.00000  -0.00000
 263 2   O  1S          0.00001   0.00000   0.00000   0.00000
 264        2S          0.00009   0.00004   0.00004   0.00000
 265        3S          0.00107   0.00054   0.00054   0.00000
 266        4S          0.00932   0.00466   0.00466   0.00000
 267        5S          0.05623   0.02812   0.02811   0.00001
 268        6S          0.22365   0.11184   0.11181   0.00003
 269        7S          0.56449   0.28227   0.28222   0.00006
 270        8S          0.72489   0.36244   0.36245  -0.00000
 271        9S          0.29983   0.14983   0.15000  -0.00018
 272       10S          0.41586   0.20852   0.20735   0.00117
 273       11S          1.01982   0.51017   0.50965   0.00052
 274       12S          0.57011   0.28255   0.28756  -0.00501
 275       13S          0.04745   0.02373   0.02373  -0.00000
 276       14S          0.02742   0.01371   0.01371   0.00000
 277       15S          0.00549   0.00275   0.00274   0.00000
 278       16S          0.05337   0.01037   0.04300  -0.03263
 279       17PX        -0.00039  -0.00020  -0.00019  -0.00001
 280       17PY        -0.00036  -0.00018  -0.00018   0.00000
 281       17PZ        -0.00036  -0.00018  -0.00018  -0.00000
 282       18PX        -0.13567  -0.07022  -0.06545  -0.00478
 283       18PY        -0.12720  -0.06360  -0.06360   0.00000
 284       18PZ        -0.12909  -0.06538  -0.06371  -0.00167
 285       19PX         0.14714   0.07669   0.07045   0.00624
 286       19PY         0.13702   0.06851   0.06851  -0.00000
 287       19PZ         0.13297   0.06733   0.06564   0.00169
 288       20PX         0.50748   0.26249   0.24499   0.01749
 289       20PY         0.47861   0.23930   0.23930  -0.00000
 290       20PZ         0.46337   0.23441   0.22895   0.00546
 291       21PX         0.70720   0.36656   0.34064   0.02592
 292       21PY         0.66858   0.33429   0.33429   0.00000
 293       21PZ         0.46037   0.23614   0.22423   0.01192
 294       22PX         0.37244   0.21290   0.15954   0.05337
 295       22PY         0.30284   0.15142   0.15142   0.00000
 296       22PZ         0.12115   0.07495   0.04620   0.02875
 297       23PX         0.15514   0.08037   0.07477   0.00560
 298       23PY         0.14531   0.07266   0.07266   0.00000
 299       23PZ         0.14687   0.07439   0.07249   0.00190
 300       24PX         0.00205   0.00107   0.00098   0.00008
 301       24PY         0.00191   0.00095   0.00095  -0.00000
 302       24PZ         0.00188   0.00095   0.00093   0.00002
 303       25PX         0.00014   0.00007   0.00007   0.00001
 304       25PY         0.00013   0.00006   0.00006  -0.00000
 305       25PZ         0.00012   0.00006   0.00006   0.00000
 306       26PX         0.04462   0.03407   0.01055   0.02353
 307       26PY         0.01597   0.00799   0.00799   0.00000
 308       26PZ         0.01280   0.01160   0.00120   0.01040
 309       27D 0        0.00099   0.00051   0.00048   0.00003
 310       27D+1        0.00050   0.00034   0.00016   0.00018
 311       27D-1        0.00039   0.00020   0.00020  -0.00000
 312       27D+2        0.00003   0.00003   0.00000   0.00003
 313       27D-2        0.00003   0.00003   0.00000   0.00003
 314       28D 0        0.01257   0.00651   0.00606   0.00045
 315       28D+1        0.00823   0.00540   0.00282   0.00258
 316       28D-1        0.00680   0.00340   0.00340  -0.00000
 317       28D+2        0.00072   0.00072   0.00000   0.00072
 318       28D-2        0.00072   0.00072   0.00000   0.00072
 319       29D 0        0.00542   0.00332   0.00210   0.00122
 320       29D+1        0.01223   0.00752   0.00471   0.00280
 321       29D-1        0.01218   0.00609   0.00609  -0.00000
 322       29D+2        0.00264   0.00264  -0.00000   0.00264
 323       29D-2        0.00264   0.00264   0.00000   0.00264
 324       30D 0        0.00001   0.00001   0.00001   0.00000
 325       30D+1        0.00001   0.00000   0.00000   0.00000
 326       30D-1        0.00001   0.00000   0.00000  -0.00000
 327       30D+2        0.00000   0.00000   0.00000   0.00000
 328       30D-2        0.00000   0.00000   0.00000   0.00000
 329       31D 0        0.00000   0.00000   0.00000   0.00000
 330       31D+1        0.00000   0.00000   0.00000   0.00000
 331       31D-1        0.00000   0.00000   0.00000  -0.00000
 332       31D+2        0.00000   0.00000   0.00000   0.00000
 333       31D-2        0.00000   0.00000   0.00000   0.00000
 334       32D 0       -0.00072  -0.00041  -0.00031  -0.00009
 335       32D+1       -0.00060  -0.00042  -0.00017  -0.00025
 336       32D-1       -0.00037  -0.00019  -0.00019  -0.00000
 337       32D+2        0.00065   0.00065   0.00000   0.00065
 338       32D-2        0.00062   0.00062   0.00000   0.00062
 339       33F 0        0.00070   0.00036   0.00034   0.00002
 340       33F+1        0.00040   0.00027   0.00013   0.00015
 341       33F-1        0.00027   0.00014   0.00014  -0.00000
 342       33F+2        0.00004   0.00004   0.00000   0.00004
 343       33F-2        0.00004   0.00004   0.00000   0.00004
 344       33F+3        0.00000   0.00000   0.00000   0.00000
 345       33F-3        0.00000   0.00000   0.00000   0.00000
 346       34F 0        0.00398   0.00212   0.00185   0.00027
 347       34F+1        0.00329   0.00216   0.00113   0.00104
 348       34F-1        0.00252   0.00126   0.00126   0.00000
 349       34F+2        0.00084   0.00084  -0.00000   0.00084
 350       34F-2        0.00084   0.00084   0.00000   0.00084
 351       34F+3        0.00000   0.00000   0.00000  -0.00000
 352       34F-3        0.00000   0.00000   0.00000   0.00000
 353       35F 0        0.00000   0.00000   0.00000   0.00000
 354       35F+1        0.00000   0.00000   0.00000   0.00000
 355       35F-1        0.00000   0.00000   0.00000  -0.00000
 356       35F+2        0.00000   0.00000   0.00000   0.00000
 357       35F-2        0.00000   0.00000   0.00000   0.00000
 358       35F+3        0.00000   0.00000   0.00000   0.00000
 359       35F-3        0.00000   0.00000   0.00000  -0.00000
 360       36F 0        0.00065   0.00050   0.00015   0.00035
 361       36F+1       -0.00102  -0.00050  -0.00052   0.00002
 362       36F-1       -0.00118  -0.00059  -0.00059   0.00000
 363       36F+2        0.00031   0.00031  -0.00000   0.00031
 364       36F-2        0.00031   0.00031   0.00000   0.00031
 365       36F+3        0.00000   0.00000   0.00000   0.00000
 366       36F-3        0.00000   0.00000   0.00000   0.00000
 367       37G 0        0.00046   0.00023   0.00022   0.00001
 368       37G+1        0.00037   0.00025   0.00011   0.00014
 369       37G-1        0.00023   0.00012   0.00012   0.00000
 370       37G+2        0.00007   0.00007  -0.00000   0.00007
 371       37G-2        0.00007   0.00007   0.00000   0.00007
 372       37G+3        0.00000   0.00000   0.00000  -0.00000
 373       37G-3        0.00000   0.00000   0.00000   0.00000
 374       37G+4        0.00000   0.00000   0.00000   0.00000
 375       37G-4        0.00000   0.00000  -0.00000   0.00000
 376       38G 0        0.00050   0.00029   0.00022   0.00007
 377       38G+1        0.00027   0.00020   0.00008   0.00012
 378       38G-1        0.00020   0.00010   0.00010   0.00000
 379       38G+2        0.00017   0.00017   0.00000   0.00017
 380       38G-2        0.00017   0.00017   0.00000   0.00017
 381       38G+3        0.00000   0.00000   0.00000  -0.00000
 382       38G-3        0.00000   0.00000   0.00000   0.00000
 383       38G+4        0.00000   0.00000   0.00000   0.00000
 384       38G-4        0.00000   0.00000   0.00000   0.00000
          Condensed to atoms (all electrons):
               1          2
     1  Cr  23.419832  -0.152169
     2  O   -0.152169   8.884506
          Atomic-Atomic Spin Densities.
               1          2
     1  Cr   3.860871  -0.030744
     2  O   -0.030744   0.200616
 Mulliken charges and spin densities:
               1          2
     1  Cr   0.732337   3.830127
     2  O   -0.732337   0.169873
 Sum of Mulliken charges =  -0.00000   4.00000
 Mulliken charges and spin densities with hydrogens summed into heavy atoms:
               1          2
     1  Cr   0.732337   3.830127
     2  O   -0.732337   0.169873
 Electronic spatial extent (au):  <R**2>=             80.4960
 Charge=             -0.0000 electrons
 Dipole moment (field-independent basis, Debye):
    X=             -0.0000    Y=             -0.0000    Z=              0.2407  Tot=              0.2407
 Quadrupole moment (field-independent basis, Debye-Ang):
   XX=            -23.2742   YY=            -20.2980   ZZ=            -23.1980
   XY=             -0.0000   XZ=             -0.0000   YZ=             -0.0000
 Traceless Quadrupole moment (field-independent basis, Debye-Ang):
   XX=             -1.0175   YY=              1.9588   ZZ=             -0.9413
   XY=             -0.0000   XZ=             -0.0000   YZ=             -0.0000
 Octapole moment (field-independent basis, Debye-Ang**2):
  XXX=             -0.0000  YYY=             -0.0000  ZZZ=             -5.7930  XYY=             -0.0000
  XXY=             -0.0000  XXZ=             -3.6592  XZZ=             -0.0000  YZZ=             -0.0000
  YYZ=             -2.1610  XYZ=             -0.0000
 Hexadecapole moment (field-independent basis, Debye-Ang**3):
 XXXX=            -46.0559 YYYY=            -32.8003 ZZZZ=            -76.3568 XXXY=             -0.0000
 XXXZ=              0.0000 YYYX=             -0.0000 YYYZ=             -0.0000 ZZZX=              0.0000
 ZZZY=             -0.0000 XXYY=            -13.1305 XXZZ=            -22.0530 YYZZ=            -18.1110
 XXYZ=             -0.0000 YYXZ=              0.0000 ZZXY=             -0.0000
 N-N= 8.466835374720D+01 E-N=-2.880075017385D+03  KE= 1.164963498240D+03
 Orbital energies and kinetic energies (alpha):
                                 1                 2
  10         O                -2.389047          8.792430
  11         O                -1.251444          4.771244
  12         O                -0.748400          2.829652
  13         O                -0.690109          2.852542
  14         O                -0.655248          4.266990
  15         O                -0.503390          1.314240
  16         O                -0.502469          5.292210
  17         O                -0.298609          4.949861
  18         O                -0.264795          4.086164
  19         V                 0.013977          0.085653
  20         V                 0.020841          0.046222
  21         V                 0.025667          0.048834
  22         V                 0.025924          0.073437
  23         V                 0.048540          0.065435
 Total kinetic energy from orbitals= 1.180605973423D+03
 FoFCou: FMM=F IPFlag=           8 FMFlag=           0 FMFlg1=           0
         NFxFlg=           0 DoJE=F BraDBF=T KetDBF=F FulRan=T
         wScrn=  0.000000 ICntrl=   2000500 IOpCl=  0 I1Cent=           5 NGrid=           0
         NMat0=    1 NMatS0=      1 NMatT0=    0 NMatD0=    1 NMtDS0=    0 NMtDT0=    0
 Symmetry not used in FoFCou.
                          Isotropic Fermi Contact Couplings
        Atom                 a.u.       MegaHertz       Gauss      10(-4) cm-1
     1  Cr(53)             5.05879    -320.17477    -114.24632    -106.79881
     2  O(17)              0.04440      -6.72868      -2.40096      -2.24445
 --------------------------------------------------------
       Center         ----  Spin Dipole Couplings  ----
                      3XX-RR        3YY-RR        3ZZ-RR
 --------------------------------------------------------
     1   Atom        3.171249      0.118028     -3.289277
     2   Atom        0.093027     -0.323071      0.230043
 --------------------------------------------------------
                        XY            XZ            YZ
 --------------------------------------------------------
     1   Atom        0.000000      0.000000     -0.000000
     2   Atom        0.000000     -0.000000     -0.000000
 --------------------------------------------------------


 ---------------------------------------------------------------------------------
              Anisotropic Spin Dipole Couplings in Principal Axis System
 ---------------------------------------------------------------------------------

       Atom             a.u.   MegaHertz   Gauss  10(-4) cm-1        Axes

              Baa    -3.2893    99.399    35.468    33.156 -0.0000  0.0000  1.0000
     1 Cr(53) Bbb     0.1180    -3.567    -1.273    -1.190 -0.0000  1.0000 -0.0000
              Bcc     3.1712   -95.832   -34.195   -31.966  1.0000  0.0000  0.0000
 
              Baa    -0.3231    23.377     8.342     7.798 -0.0000  1.0000  0.0000
     2 O(17)  Bbb     0.0930    -6.731    -2.402    -2.245  1.0000  0.0000  0.0000
              Bcc     0.2300   -16.646    -5.940    -5.552 -0.0000 -0.0000  1.0000
 

 ---------------------------------------------------------------------------------

 No NMR shielding tensors so no spin-rotation constants.
 Leave Link  601 at Wed Mar 14 15:20:01 2018, MaxMem= 21474836480 cpu:              41.5 elap:               1.4
 (Enter /home1/apps/gaussian/16rA.03/g16/l9999.exe)
 1\1\GINC-C484-033\SP\ROCCSD(T)-RW\Gen\Cr1O1(5)\AANNABE\14-Mar-2018\0\\
 #P ROCCSD(T)=(maxcyc=150, Window=(7,0), SaveAmplitudes, ReadAmplitudes
 )/Gen 5d 7f SCF=(maxcycles=300) Integral(NoXCTest, DKHSO) MaxDisk=500G
 B Pop=Regular Guess=Read\\CrO\\0,5\Cr,0,0.,0.,0.\O,0,0.,0.,1.2\\Versio
 n=ES64L-G16RevA.03\HF=-1124.2485821\MP2=-1125.1569769\PUHF=-1124.24858
 21\PMP2-0=-1125.1569769\CCSD=-1125.113037\CCSD(T)=-1125.1525515\RMSD=2
 .696e-09\PG=C*V [C*(O1Cr1)]\\@


 The earth never tires,
 The earth is rude, silent, incomprehensible at first,
 Nature is rude and incomprehensible at first,
 Be not discouraged, keep on,
 There are divine things well envelop'd,
 I swear to you there are divine things more beautiful than words can tell.
                                 -- Walt Whitman
 Job cpu time:       1 days  6 hours 17 minutes 24.5 seconds.
 Elapsed time:       0 days  0 hours 58 minutes  2.2 seconds.
 File lengths (MBytes):  RWF=  61434 Int=      0 D2E=      0 Chk=    224 Scr=      1
 Normal termination of Gaussian 16 at Wed Mar 14 15:20:02 2018.
