 Entering Gaussian System, Link 0=g16
 Initial command:
 /home1/apps/gaussian/16rA.03/g16/l1.exe "/tmp/Gau-253309.inp" -scrdir="/tmp/"
 Entering Link 1 = /home1/apps/gaussian/16rA.03/g16/l1.exe PID=    253310.
  
 Copyright (c) 1988,1990,1992,1993,1995,1998,2003,2009,2016,
            Gaussian, Inc.  All Rights Reserved.
  
 This is part of the Gaussian(R) 16 program.  It is based on
 the Gaussian(R) 09 system (copyright 2009, Gaussian, Inc.),
 the Gaussian(R) 03 system (copyright 2003, Gaussian, Inc.),
 the Gaussian(R) 98 system (copyright 1998, Gaussian, Inc.),
 the Gaussian(R) 94 system (copyright 1995, Gaussian, Inc.),
 the Gaussian 92(TM) system (copyright 1992, Gaussian, Inc.),
 the Gaussian 90(TM) system (copyright 1990, Gaussian, Inc.),
 the Gaussian 88(TM) system (copyright 1988, Gaussian, Inc.),
 the Gaussian 86(TM) system (copyright 1986, Carnegie Mellon
 University), and the Gaussian 82(TM) system (copyright 1983,
 Carnegie Mellon University). Gaussian is a federally registered
 trademark of Gaussian, Inc.
  
 This software contains proprietary and confidential information,
 including trade secrets, belonging to Gaussian, Inc.
  
 This software is provided under written license and may be
 used, copied, transmitted, or stored only in accord with that
 written license.
  
 The following legend is applicable only to US Government
 contracts under FAR:
  
                    RESTRICTED RIGHTS LEGEND
  
 Use, reproduction and disclosure by the US Government is
 subject to restrictions as set forth in subparagraphs (a)
 and (c) of the Commercial Computer Software - Restricted
 Rights clause in FAR 52.227-19.
  
 Gaussian, Inc.
 340 Quinnipiac St., Bldg. 40, Wallingford CT 06492
  
  
 ---------------------------------------------------------------
 Warning -- This program may not be used in any manner that
 competes with the business of Gaussian, Inc. or will provide
 assistance to any competitor of Gaussian, Inc.  The licensee
 of this program is prohibited from giving any competitor of
 Gaussian, Inc. access to this program.  By using this program,
 the user acknowledges that Gaussian, Inc. is engaged in the
 business of creating and licensing software in the field of
 computational chemistry and represents and warrants to the
 licensee that it is not a competitor of Gaussian, Inc. and that
 it will not use this program in any manner prohibited above.
 ---------------------------------------------------------------
  

 Cite this work as:
 Gaussian 16, Revision A.03,
 M. J. Frisch, G. W. Trucks, H. B. Schlegel, G. E. Scuseria, 
 M. A. Robb, J. R. Cheeseman, G. Scalmani, V. Barone, 
 G. A. Petersson, H. Nakatsuji, X. Li, M. Caricato, A. V. Marenich, 
 J. Bloino, B. G. Janesko, R. Gomperts, B. Mennucci, H. P. Hratchian, 
 J. V. Ortiz, A. F. Izmaylov, J. L. Sonnenberg, D. Williams-Young, 
 F. Ding, F. Lipparini, F. Egidi, J. Goings, B. Peng, A. Petrone, 
 T. Henderson, D. Ranasinghe, V. G. Zakrzewski, J. Gao, N. Rega, 
 G. Zheng, W. Liang, M. Hada, M. Ehara, K. Toyota, R. Fukuda, 
 J. Hasegawa, M. Ishida, T. Nakajima, Y. Honda, O. Kitao, H. Nakai, 
 T. Vreven, K. Throssell, J. A. Montgomery, Jr., J. E. Peralta, 
 F. Ogliaro, M. J. Bearpark, J. J. Heyd, E. N. Brothers, K. N. Kudin, 
 V. N. Staroverov, T. A. Keith, R. Kobayashi, J. Normand, 
 K. Raghavachari, A. P. Rendell, J. C. Burant, S. S. Iyengar, 
 J. Tomasi, M. Cossi, J. M. Millam, M. Klene, C. Adamo, R. Cammi, 
 J. W. Ochterski, R. L. Martin, K. Morokuma, O. Farkas, 
 J. B. Foresman, and D. J. Fox, Gaussian, Inc., Wallingford CT, 2016.
 
 ******************************************
 Gaussian 16:  ES64L-G16RevA.03 25-Dec-2016
                13-Mar-2018 
 ******************************************
 %MEM=80GB
 %CPU=0-15
 SetSPE:  set environment variable "MP_BIND" = "yes"
 SetSPE:  set environment variable "MP_BLIST" = "0,1,2,3,4,5,6,7,8,9,10,11,12,13,14,15"
 Will use up to   16 processors via shared memory.
 %RWF=/scratch/04843/aannabe/gaussian/
 %Int=/scratch/04843/aannabe/gaussian/
 %D2E=/scratch/04843/aannabe/gaussian/
 %NoSave
 %CHK=Ti
 ----------------------------------------------------------------------
 #P ROCCSD(T)=(maxcyc=150, Full)/Gen 5d 7f SCF=(maxcycles=300, NoVarAcc
 , VShift=200) MaxDisk=100GB Pop=Regular Pseudo=Read Guess=Read
 ----------------------------------------------------------------------
 1/38=1,172=1/1;
 2/12=2,17=6,18=5,40=1/2;
 3/5=7,8=11,11=2,16=1,17=8,25=1,30=1,116=101/1,2,3;
 4/5=1/1;
 5/5=2,7=300,10=200,38=6/2;
 8/5=-1,6=4,9=120000,10=90/1,4;
 9/5=7,6=150,14=2/13;
 6//1;
 99/5=1,9=1/99;
 Leave Link    1 at Tue Mar 13 12:27:45 2018, MaxMem= 10737418240 cpu:               4.0 elap:               0.3
 (Enter /home1/apps/gaussian/16rA.03/g16/l101.exe)
 --
 Ti
 --
 Symbolic Z-matrix:
 Charge =  0 Multiplicity = 3
 Ti                    0.        0.        0. 
 
 ITRead=  0
 MicOpt= -1
 NAtoms=      1 NQM=        1 NQMF=       0 NMMI=      0 NMMIF=      0
                NMic=       0 NMicF=      0.
                    Isotopes and Nuclear Properties:
 (Nuclear quadrupole moments (NQMom) in fm**2, nuclear magnetic moments (NMagM)
  in nuclear magnetons)

  Atom         1
 IAtWgt=          48
 AtmWgt=  47.9479467
 NucSpn=           0
 AtZEff=  -0.0000000
 NQMom=    0.0000000
 NMagM=    0.0000000
 AtZNuc=  22.0000000
 Leave Link  101 at Tue Mar 13 12:27:45 2018, MaxMem= 10737418240 cpu:               1.5 elap:               0.1
 (Enter /home1/apps/gaussian/16rA.03/g16/l202.exe)
                          Input orientation:                          
 ---------------------------------------------------------------------
 Center     Atomic      Atomic             Coordinates (Angstroms)
 Number     Number       Type             X           Y           Z
 ---------------------------------------------------------------------
      1         22           0        0.000000    0.000000    0.000000
 ---------------------------------------------------------------------
 Stoichiometry    Ti(3)
 Framework group  OH[O(Ti)]
 Deg. of freedom     0
 Full point group                 OH      NOp  48
 Largest Abelian subgroup         D2H     NOp   8
 Largest concise Abelian subgroup C1      NOp   1
                         Standard orientation:                         
 ---------------------------------------------------------------------
 Center     Atomic      Atomic             Coordinates (Angstroms)
 Number     Number       Type             X           Y           Z
 ---------------------------------------------------------------------
      1         22           0        0.000000    0.000000    0.000000
 ---------------------------------------------------------------------
 Leave Link  202 at Tue Mar 13 12:27:45 2018, MaxMem= 10737418240 cpu:               0.6 elap:               0.1
 (Enter /home1/apps/gaussian/16rA.03/g16/l301.exe)
 General basis read from cards:  (5D, 7F)
 Centers:       1
 S 1 1.00
     Exponent=  9.3170340000D+06 Coefficients=  1.0000000000D+00
 S 1 1.00
     Exponent=  1.3949710000D+06 Coefficients=  1.0000000000D+00
 S 1 1.00
     Exponent=  3.1745310000D+05 Coefficients=  1.0000000000D+00
 S 1 1.00
     Exponent=  8.9921000000D+04 Coefficients=  1.0000000000D+00
 S 1 1.00
     Exponent=  2.9338160000D+04 Coefficients=  1.0000000000D+00
 S 1 1.00
     Exponent=  1.0592660000D+04 Coefficients=  1.0000000000D+00
 S 1 1.00
     Exponent=  4.1320560000D+03 Coefficients=  1.0000000000D+00
 S 1 1.00
     Exponent=  1.7142350000D+03 Coefficients=  1.0000000000D+00
 S 1 1.00
     Exponent=  7.4791510000D+02 Coefficients=  1.0000000000D+00
 S 1 1.00
     Exponent=  3.4019910000D+02 Coefficients=  1.0000000000D+00
 S 1 1.00
     Exponent=  1.6020600000D+02 Coefficients=  1.0000000000D+00
 S 1 1.00
     Exponent=  7.7588510000D+01 Coefficients=  1.0000000000D+00
 S 1 1.00
     Exponent=  3.8044890000D+01 Coefficients=  1.0000000000D+00
 S 1 1.00
     Exponent=  1.7353620000D+01 Coefficients=  1.0000000000D+00
 S 1 1.00
     Exponent=  8.6420620000D+00 Coefficients=  1.0000000000D+00
 S 1 1.00
     Exponent=  4.3044040000D+00 Coefficients=  1.0000000000D+00
 S 1 1.00
     Exponent=  1.9377180000D+00 Coefficients=  1.0000000000D+00
 S 1 1.00
     Exponent=  9.3659400000D-01 Coefficients=  1.0000000000D+00
 S 1 1.00
     Exponent=  4.3262400000D-01 Coefficients=  1.0000000000D+00
 S 1 1.00
     Exponent=  1.0735200000D-01 Coefficients=  1.0000000000D+00
 S 1 1.00
     Exponent=  5.2034000000D-02 Coefficients=  1.0000000000D+00
 S 1 1.00
     Exponent=  2.4038000000D-02 Coefficients=  1.0000000000D+00
 S 1 1.00
     Exponent=  4.0519000000D+00 Coefficients=  1.0000000000D+00
 S 1 1.00
     Exponent=  1.0592000000D+00 Coefficients=  1.0000000000D+00
 S 1 1.00
     Exponent=  1.1100000000D-02 Coefficients=  1.0000000000D+00
 P 1 1.00
     Exponent=  2.5537330000D+04 Coefficients=  1.0000000000D+00
 P 1 1.00
     Exponent=  6.0422430000D+03 Coefficients=  1.0000000000D+00
 P 1 1.00
     Exponent=  1.9626530000D+03 Coefficients=  1.0000000000D+00
 P 1 1.00
     Exponent=  7.5173380000D+02 Coefficients=  1.0000000000D+00
 P 1 1.00
     Exponent=  3.1988330000D+02 Coefficients=  1.0000000000D+00
 P 1 1.00
     Exponent=  1.4643000000D+02 Coefficients=  1.0000000000D+00
 P 1 1.00
     Exponent=  7.0748610000D+01 Coefficients=  1.0000000000D+00
 P 1 1.00
     Exponent=  3.5590880000D+01 Coefficients=  1.0000000000D+00
 P 1 1.00
     Exponent=  1.8368930000D+01 Coefficients=  1.0000000000D+00
 P 1 1.00
     Exponent=  9.6586550000D+00 Coefficients=  1.0000000000D+00
 P 1 1.00
     Exponent=  5.1367300000D+00 Coefficients=  1.0000000000D+00
 P 1 1.00
     Exponent=  2.6988720000D+00 Coefficients=  1.0000000000D+00
 P 1 1.00
     Exponent=  1.3897030000D+00 Coefficients=  1.0000000000D+00
 P 1 1.00
     Exponent=  7.0316300000D-01 Coefficients=  1.0000000000D+00
 P 1 1.00
     Exponent=  3.4412300000D-01 Coefficients=  1.0000000000D+00
 P 1 1.00
     Exponent=  1.4137500000D-01 Coefficients=  1.0000000000D+00
 P 1 1.00
     Exponent=  6.0791000000D-02 Coefficients=  1.0000000000D+00
 P 1 1.00
     Exponent=  2.5831000000D-02 Coefficients=  1.0000000000D+00
 P 1 1.00
     Exponent=  4.8241000000D+00 Coefficients=  1.0000000000D+00
 P 1 1.00
     Exponent=  1.2211000000D+00 Coefficients=  1.0000000000D+00
 P 1 1.00
     Exponent=  1.0980000000D-02 Coefficients=  1.0000000000D+00
 D 1 1.00
     Exponent=  1.9997200000D+02 Coefficients=  1.0000000000D+00
 D 1 1.00
     Exponent=  5.9186900000D+01 Coefficients=  1.0000000000D+00
 D 1 1.00
     Exponent=  2.2601300000D+01 Coefficients=  1.0000000000D+00
 D 1 1.00
     Exponent=  9.5739100000D+00 Coefficients=  1.0000000000D+00
 D 1 1.00
     Exponent=  4.3177100000D+00 Coefficients=  1.0000000000D+00
 D 1 1.00
     Exponent=  2.0237300000D+00 Coefficients=  1.0000000000D+00
 D 1 1.00
     Exponent=  9.4716900000D-01 Coefficients=  1.0000000000D+00
 D 1 1.00
     Exponent=  4.3387700000D-01 Coefficients=  1.0000000000D+00
 D 1 1.00
     Exponent=  1.9212600000D-01 Coefficients=  1.0000000000D+00
 D 1 1.00
     Exponent=  8.1404000000D-02 Coefficients=  1.0000000000D+00
 D 1 1.00
     Exponent=  3.2233000000D-02 Coefficients=  1.0000000000D+00
 D 1 1.00
     Exponent=  2.7829000000D+00 Coefficients=  1.0000000000D+00
 D 1 1.00
     Exponent=  1.3657000000D+00 Coefficients=  1.0000000000D+00
 D 1 1.00
     Exponent=  1.2760000000D-02 Coefficients=  1.0000000000D+00
 F 1 1.00
     Exponent=  3.7192000000D+00 Coefficients=  1.0000000000D+00
 F 1 1.00
     Exponent=  1.4838000000D+00 Coefficients=  1.0000000000D+00
 F 1 1.00
     Exponent=  5.9200000000D-01 Coefficients=  1.0000000000D+00
 F 1 1.00
     Exponent=  1.7960000000D-01 Coefficients=  1.0000000000D+00
 F 1 1.00
     Exponent=  5.4490000000D-02 Coefficients=  1.0000000000D+00
 G 1 1.00
     Exponent=  3.2099000000D+00 Coefficients=  1.0000000000D+00
 G 1 1.00
     Exponent=  1.2652000000D+00 Coefficients=  1.0000000000D+00
 G 1 1.00
     Exponent=  3.9470000000D-01 Coefficients=  1.0000000000D+00
 G 1 1.00
     Exponent=  1.2313000000D-01 Coefficients=  1.0000000000D+00
 H 1 1.00
     Exponent=  2.7676000000D+00 Coefficients=  1.0000000000D+00
 H 1 1.00
     Exponent=  8.5240000000D-01 Coefficients=  1.0000000000D+00
 H 1 1.00
     Exponent=  2.6253000000D-01 Coefficients=  1.0000000000D+00
 ****
 ======================================================================================================
                                       Pseudopotential Parameters
 ======================================================================================================
  Center     Atomic      Valence      Angular      Power
  Number     Number     Electrons     Momentum     of R      Exponent        Coefficient   SO-Coeffient
 ======================================================================================================
    1         22           12
                                      F and up 
                                                     2        1.0000000        0.00000000    0.00000000
                                      S - F
                                                     2       13.0100000      158.24159300    0.00000000
                                                     2        5.8620000       17.51182400    0.00000000
                                      P - F
                                                     2       12.4600000       95.23512700    0.00000000
                                                     2        5.2170000       10.04785600    0.00000000
                                      D - F
                                                     2       15.3500000      -17.56886100    0.00000000
                                                     2        4.9800000       -0.58725600    0.00000000
 ======================================================================================================
 Ernie: Thresh=  0.10000D-02 Tol=  0.10000D-05 Strict=F.
 There are    91 symmetry adapted cartesian basis functions of AG  symmetry.
 There are    26 symmetry adapted cartesian basis functions of B1G symmetry.
 There are    26 symmetry adapted cartesian basis functions of B2G symmetry.
 There are    26 symmetry adapted cartesian basis functions of B3G symmetry.
 There are    14 symmetry adapted cartesian basis functions of AU  symmetry.
 There are    54 symmetry adapted cartesian basis functions of B1U symmetry.
 There are    54 symmetry adapted cartesian basis functions of B2U symmetry.
 There are    54 symmetry adapted cartesian basis functions of B3U symmetry.
 There are    65 symmetry adapted basis functions of AG  symmetry.
 There are    22 symmetry adapted basis functions of B1G symmetry.
 There are    22 symmetry adapted basis functions of B2G symmetry.
 There are    22 symmetry adapted basis functions of B3G symmetry.
 There are    11 symmetry adapted basis functions of AU  symmetry.
 There are    40 symmetry adapted basis functions of B1U symmetry.
 There are    40 symmetry adapted basis functions of B2U symmetry.
 There are    40 symmetry adapted basis functions of B3U symmetry.
   262 basis functions,   345 primitive gaussians,   345 cartesian basis functions
     7 alpha electrons        5 beta electrons
       nuclear repulsion energy         0.0000000000 Hartrees.
 IExCor=    0 DFT=F Ex=HF Corr=None ExCW=0 ScaHFX=  1.000000
 ScaDFX=  1.000000  1.000000  1.000000  1.000000 ScalE2=  1.000000  1.000000
 IRadAn=      5 IRanWt=     -1 IRanGd=            0 ICorTp=0 IEmpDi=  4
 NAtoms=    1 NActive=    1 NUniq=    1 SFac= 1.00D+00 NAtFMM=   60 NAOKFM=F Big=F
 Integral buffers will be    131072 words long.
 Raffenetti 2 integral format.
 Two-electron integral symmetry is turned on.
 Leave Link  301 at Tue Mar 13 12:27:45 2018, MaxMem= 10737418240 cpu:               3.6 elap:               0.3
 (Enter /home1/apps/gaussian/16rA.03/g16/l302.exe)
 NPDir=0 NMtPBC=     1 NCelOv=     1 NCel=       1 NClECP=     1 NCelD=      1
         NCelK=      1 NCelE2=     1 NClLst=     1 CellRange=     0.0.
 One-electron integrals computed using PRISM.
 One-electron integral symmetry used in STVInt
  48 Symmetry operations used in ECPInt.
 ECPInt:  NShTT=    2628 NPrTT=    2628 LenC2=    2629 LenP2D=    2628.
 LDataN:  DoStor=T MaxTD1=10 Len=  848
 NBasis=   262 RedAO= T EigKep=  6.94D-06  NBF=    65    22    22    22    11    40    40    40
 NBsUse=   258 1.00D-06 EigRej=  4.77D-07 NBFU=    64    22    22    22    11    39    39    39
 Leave Link  302 at Tue Mar 13 12:27:51 2018, MaxMem= 10737418240 cpu:              83.7 elap:               5.3
 (Enter /home1/apps/gaussian/16rA.03/g16/l303.exe)
 DipDrv:  MaxL=1.
 Leave Link  303 at Tue Mar 13 12:27:51 2018, MaxMem= 10737418240 cpu:               1.4 elap:               0.1
 (Enter /home1/apps/gaussian/16rA.03/g16/l401.exe)
 Initial guess from the checkpoint file:  "Ti.chk"
 B after Tr=     0.000000    0.000000    0.000000
         Rot=    1.000000    0.000000    0.000000    0.000000 Ang=   0.00 deg.
 Guess basis will be translated and rotated to current coordinates.
 JPrj=2 DoOrth=T DoCkMO=T.
 Initial guess orbital symmetries:
       Occupied  (A1G) (?A) (?A) (?A) (A1G) (?B) (?B)
       Virtual   (T1U) (T1U) (T1U) (A1G) (?B) (?B) (?B) (?B) (?B)
                 (T1U) (T1U) (T1U) (?B) (?B) (?B) (A1G) (?B) (?B)
                 (?C) (?C) (?C) (?B) (?B) (?B) (?C) (?C) (?C) (?C)
                 (?C) (?C) (?C) (?B) (?B) (?B) (?B) (?B) (A1G)
                 (?B) (?B) (?B) (?B) (?B) (?B) (?B) (?B) (?B) (?D)
                 (?D) (?D) (?D) (?D) (?D) (?D) (?D) (?D) (?D) (?B)
                 (?B) (?B) (?B) (?B) (A1G) (?B) (?B) (?B) (?B)
                 (?B) (?B) (?B) (?B) (?B) (?B) (?B) (T1U) (T1U)
                 (T1U) (?B) (?B) (?B) (?B) (?B) (?B) (?B) (?B)
                 (?B) (?A) (?A) (?A) (?A) (?A) (?A) (?A) (?B) (?B)
                 (?B) (?B) (?B) (?B) (?B) (?B) (?B) (?B) (?B) (?B)
                 (?B) (?B) (?B) (?B) (?B) (?B) (?B) (?B) (?B) (?B)
                 (?B) (?B) (?B) (?B) (?B) (?B) (?B) (?B) (?B) (?B)
                 (?B) (?B) (?B) (?B) (?B) (?B) (?B) (?B) (?B) (?B)
                 (?B) (?B) (?B) (?B) (?B) (?B) (?B) (?B) (?B) (?B)
                 (?B) (?B) (A1G) (?B) (?B) (?B) (?B) (?B) (?B)
                 (?B) (?B) (?B) (?B) (?B) (?B) (?B) (?B) (?B) (?B)
                 (?B) (?B) (?B) (?B) (?B) (?B) (?B) (?B) (?B) (?B)
                 (?B) (?B) (?B) (?B) (?B) (?B) (?B) (?B) (?B) (?B)
                 (?B) (?B) (?B) (?B) (?B) (?B) (?B) (?B) (?B) (?B)
                 (?B) (?B) (?B) (?B) (?B) (?B) (?B) (?B) (A1G)
                 (?B) (?B) (A1G) (A1G) (A1G) (A1G) (A1G) (T2G)
                 (T2G) (T2G) (T2G) (T2G) (T2G) (T2G) (T2G) (T2G)
                 (T2G) (T2G) (T2G) (T1U) (T1U) (T1U) (T1U) (T1U)
                 (T1U) (T1U) (T1U) (T1U) (T1U) (T1U) (T1U) (T1U)
                 (T1U) (T1U) (T1U) (T1U) (T1U) (T1U) (T1U) (T1U)
                 (T1U) (T1U) (T1U) (T1U) (T1U) (T1U) (T1U) (T1U)
                 (T1U)
 Leave Link  401 at Tue Mar 13 12:27:52 2018, MaxMem= 10737418240 cpu:              16.7 elap:               1.3
 (Enter /home1/apps/gaussian/16rA.03/g16/l502.exe)
 Keep R1 and R2 ints in memory in symmetry-blocked form, NReq=669233233.
 FoFCou: FMM=F IPFlag=           0 FMFlag=           0 FMFlg1=           0
         NFxFlg=           0 DoJE=F BraDBF=F KetDBF=F FulRan=T
         wScrn=  0.000000 ICntrl=       600 IOpCl=  0 I1Cent=           0 NGrid=           0
         NMat0=    1 NMatS0=  34453 NMatT0=    0 NMatD0=    1 NMtDS0=    0 NMtDT0=    0
 Petite list used in FoFCou.
 Restricted open shell SCF:
 Using DIIS extrapolation, IDIIS=  1040.
 NGot= 10737418240 LenX= 10585855578 LenY= 10585736112
 Requested convergence on RMS density matrix=1.00D-08 within 300 cycles.
 Requested convergence on MAX density matrix=1.00D-06.
 Requested convergence on             energy=1.00D-06.
 Virtual orbitals will be shifted by   0.200 hartree.
 No special actions if energy rises.
 An orbital has undefined symmetry, so N**3 symmetry is turned off.

 Cycle   1  Pass 1  IDiag  1:
 Density matrix breaks symmetry, PCut= 1.00D-07
 Density matrix has no symmetry -- integrals replicated.
 E= -57.7311938998378    
 DIIS: error= 1.69D+00 at cycle   1 NSaved=   1.
 NSaved= 1 IEnMin= 1 EnMin= -57.7311938998378     IErMin= 1 ErrMin= 1.69D+00
 ErrMax= 1.69D+00  0.00D+00 EMaxC= 1.00D-01 BMatC= 2.74D+02 BMatP= 2.74D+02
 IDIUse=3 WtCom= 0.00D+00 WtEn= 1.00D+00
 Coeff-Com:  0.100D+01
 Coeff-En:   0.100D+01
 Coeff:      0.100D+01
 Gap=     0.078 Goal=   None    Shift=    0.200
 GapD=    0.078 DampG=0.500 DampE=0.125 DampFc=0.1250 IDamp=-1.
 Damping current iteration by 1.25D-01
 RMSDP=1.72D-03 MaxDP=2.58D-01              OVMax= 1.27D-02

 Cycle   2  Pass 1  IDiag  1:
 Density matrix breaks symmetry, PCut= 1.00D-07
 Density matrix has no symmetry -- integrals replicated.
 E= -57.7333182965407     Delta-E=       -0.002124396703 Rises=F Damp=T
 DIIS: error= 1.48D+00 at cycle   2 NSaved=   2.
 NSaved= 2 IEnMin= 2 EnMin= -57.7333182965407     IErMin= 2 ErrMin= 1.48D+00
 ErrMax= 1.48D+00  0.00D+00 EMaxC= 1.00D-01 BMatC= 2.10D+02 BMatP= 2.74D+02
 IDIUse=3 WtCom= 0.00D+00 WtEn= 1.00D+00
 Coeff-Com: -0.700D+01 0.800D+01
 Coeff-En:   0.000D+00 0.100D+01
 Coeff:      0.000D+00 0.100D+01
 Gap=     0.077 Goal=   None    Shift=    0.200
 RMSDP=1.56D-03 MaxDP=2.34D-01 DE=-2.12D-03 OVMax= 2.19D-03

 Cycle   3  Pass 1  IDiag  1:
 Density matrix breaks symmetry, PCut= 1.00D-07
 Density matrix has no symmetry -- integrals replicated.
 E= -57.7482976605342     Delta-E=       -0.014979363993 Rises=F Damp=F
 DIIS: error= 2.24D-03 at cycle   3 NSaved=   3.
 NSaved= 3 IEnMin= 3 EnMin= -57.7482976605342     IErMin= 3 ErrMin= 2.24D-03
 ErrMax= 2.24D-03  0.00D+00 EMaxC= 1.00D-01 BMatC= 2.76D-04 BMatP= 2.10D+02
 IDIUse=3 WtCom= 9.78D-01 WtEn= 2.24D-02
 Coeff-Com:  0.444D+00-0.507D+00 0.106D+01
 Coeff-En:   0.000D+00 0.000D+00 0.100D+01
 Coeff:      0.434D+00-0.496D+00 0.106D+01
 Gap=     0.070 Goal=   None    Shift=    0.200
 RMSDP=3.73D-05 MaxDP=4.72D-03 DE=-1.50D-02 OVMax= 2.62D-03

 Cycle   4  Pass 1  IDiag  1:
 Density matrix breaks symmetry, PCut= 1.00D-07
 Density matrix has no symmetry -- integrals replicated.
 E= -57.7483753501455     Delta-E=       -0.000077689611 Rises=F Damp=F
 DIIS: error= 2.60D-04 at cycle   4 NSaved=   4.
 NSaved= 4 IEnMin= 4 EnMin= -57.7483753501455     IErMin= 4 ErrMin= 2.60D-04
 ErrMax= 2.60D-04  0.00D+00 EMaxC= 1.00D-01 BMatC= 8.76D-06 BMatP= 2.76D-04
 IDIUse=3 WtCom= 9.97D-01 WtEn= 2.60D-03
 Coeff-Com:  0.138D+00-0.157D+00 0.112D+00 0.907D+00
 Coeff-En:   0.000D+00 0.000D+00 0.000D+00 0.100D+01
 Coeff:      0.137D+00-0.157D+00 0.112D+00 0.908D+00
 Gap=     0.072 Goal=   None    Shift=    0.200
 RMSDP=1.81D-05 MaxDP=1.56D-03 DE=-7.77D-05 OVMax= 8.35D-04

 Cycle   5  Pass 1  IDiag  1:
 Density matrix breaks symmetry, PCut= 1.00D-07
 Density matrix has no symmetry -- integrals replicated.
 E= -57.7483791338581     Delta-E=       -0.000003783713 Rises=F Damp=F
 DIIS: error= 3.08D-04 at cycle   5 NSaved=   5.
 NSaved= 5 IEnMin= 5 EnMin= -57.7483791338581     IErMin= 4 ErrMin= 2.60D-04
 ErrMax= 3.08D-04  0.00D+00 EMaxC= 1.00D-01 BMatC= 1.07D-06 BMatP= 8.76D-06
 IDIUse=3 WtCom= 9.97D-01 WtEn= 3.08D-03
 Coeff-Com:  0.168D+00-0.192D+00 0.150D-01-0.515D-01 0.106D+01
 Coeff-En:   0.000D+00 0.000D+00 0.000D+00 0.000D+00 0.100D+01
 Coeff:      0.167D+00-0.191D+00 0.150D-01-0.513D-01 0.106D+01
 Gap=     0.072 Goal=   None    Shift=    0.200
 RMSDP=7.79D-06 MaxDP=6.55D-04 DE=-3.78D-06 OVMax= 4.83D-04

 Cycle   6  Pass 1  IDiag  1:
 Density matrix breaks symmetry, PCut= 1.00D-07
 Density matrix has no symmetry -- integrals replicated.
 E= -57.7483797272762     Delta-E=       -0.000000593418 Rises=F Damp=F
 DIIS: error= 2.99D-04 at cycle   6 NSaved=   6.
 NSaved= 6 IEnMin= 6 EnMin= -57.7483797272762     IErMin= 4 ErrMin= 2.60D-04
 ErrMax= 2.99D-04  0.00D+00 EMaxC= 1.00D-01 BMatC= 9.48D-07 BMatP= 1.07D-06
 IDIUse=3 WtCom= 9.97D-01 WtEn= 2.99D-03
 Coeff-Com:  0.167D+00-0.191D+00 0.340D-01 0.330D-01-0.598D+00 0.156D+01
 Coeff-En:   0.000D+00 0.000D+00 0.000D+00 0.000D+00 0.000D+00 0.100D+01
 Coeff:      0.167D+00-0.190D+00 0.339D-01 0.329D-01-0.597D+00 0.155D+01
 Gap=     0.071 Goal=   None    Shift=    0.200
 RMSDP=3.25D-06 MaxDP=3.20D-04 DE=-5.93D-07 OVMax= 3.13D-04

 Cycle   7  Pass 1  IDiag  1:
 Density matrix breaks symmetry, PCut= 1.00D-07
 Density matrix has no symmetry -- integrals replicated.
 E= -57.7483800323106     Delta-E=       -0.000000305034 Rises=F Damp=F
 DIIS: error= 2.79D-04 at cycle   7 NSaved=   7.
 NSaved= 7 IEnMin= 7 EnMin= -57.7483800323106     IErMin= 4 ErrMin= 2.60D-04
 ErrMax= 2.79D-04  0.00D+00 EMaxC= 1.00D-01 BMatC= 8.43D-07 BMatP= 9.48D-07
 IDIUse=3 WtCom= 9.97D-01 WtEn= 2.79D-03
 Coeff-Com:  0.153D+00-0.175D+00 0.293D-01 0.184D-01 0.159D-02-0.738D+00
 Coeff-Com:  0.171D+01
 Coeff-En:   0.000D+00 0.000D+00 0.000D+00 0.000D+00 0.000D+00 0.000D+00
 Coeff-En:   0.100D+01
 Coeff:      0.153D+00-0.175D+00 0.292D-01 0.183D-01 0.159D-02-0.736D+00
 Coeff:      0.171D+01
 Gap=     0.071 Goal=   None    Shift=    0.200
 RMSDP=1.86D-06 MaxDP=1.74D-04 DE=-3.05D-07 OVMax= 1.87D-04

 Cycle   8  Pass 1  IDiag  1:
 Density matrix breaks symmetry, PCut= 1.00D-07
 Density matrix has no symmetry -- integrals replicated.
 E= -57.7483801741476     Delta-E=       -0.000000141837 Rises=F Damp=F
 DIIS: error= 2.62D-04 at cycle   8 NSaved=   8.
 NSaved= 8 IEnMin= 8 EnMin= -57.7483801741476     IErMin= 4 ErrMin= 2.60D-04
 ErrMax= 2.62D-04  0.00D+00 EMaxC= 1.00D-01 BMatC= 7.23D-07 BMatP= 8.43D-07
 IDIUse=3 WtCom= 9.97D-01 WtEn= 2.62D-03
 Coeff-Com:  0.144D+00-0.164D+00 0.262D-01 0.165D-01 0.805D-01-0.678D+00
 Coeff-Com:  0.654D+00 0.921D+00
 Coeff-En:   0.000D+00 0.000D+00 0.000D+00 0.000D+00 0.000D+00 0.000D+00
 Coeff-En:   0.000D+00 0.100D+01
 Coeff:      0.143D+00-0.164D+00 0.261D-01 0.165D-01 0.803D-01-0.676D+00
 Coeff:      0.652D+00 0.922D+00
 Gap=     0.071 Goal=   None    Shift=    0.200
 RMSDP=1.09D-06 MaxDP=1.54D-04 DE=-1.42D-07 OVMax= 9.81D-05

 Cycle   9  Pass 1  IDiag  1:
 Density matrix breaks symmetry, PCut= 1.00D-07
 Density matrix has no symmetry -- integrals replicated.
 E= -57.7483802723540     Delta-E=       -0.000000098206 Rises=F Damp=F
 DIIS: error= 2.44D-04 at cycle   9 NSaved=   9.
 NSaved= 9 IEnMin= 9 EnMin= -57.7483802723540     IErMin= 9 ErrMin= 2.44D-04
 ErrMax= 2.44D-04  0.00D+00 EMaxC= 1.00D-01 BMatC= 6.29D-07 BMatP= 7.23D-07
 IDIUse=3 WtCom= 9.98D-01 WtEn= 2.44D-03
 Coeff-Com:  0.129D+00-0.148D+00 0.241D-01 0.151D-01-0.492D-01-0.525D-01
 Coeff-Com:  0.391D+00-0.143D+01 0.212D+01
 Coeff-En:   0.000D+00 0.000D+00 0.000D+00 0.000D+00 0.000D+00 0.000D+00
 Coeff-En:   0.000D+00 0.000D+00 0.100D+01
 Coeff:      0.129D+00-0.148D+00 0.240D-01 0.150D-01-0.491D-01-0.524D-01
 Coeff:      0.390D+00-0.143D+01 0.212D+01
 Gap=     0.071 Goal=   None    Shift=    0.200
 RMSDP=8.06D-07 MaxDP=1.14D-04 DE=-9.82D-08 OVMax= 6.50D-05

 Cycle  10  Pass 1  IDiag  1:
 Density matrix breaks symmetry, PCut= 1.00D-07
 Density matrix has no symmetry -- integrals replicated.
 E= -57.7483803662216     Delta-E=       -0.000000093868 Rises=F Damp=F
 DIIS: error= 2.21D-04 at cycle  10 NSaved=  10.
 NSaved=10 IEnMin=10 EnMin= -57.7483803662216     IErMin=10 ErrMin= 2.21D-04
 ErrMax= 2.21D-04  0.00D+00 EMaxC= 1.00D-01 BMatC= 5.14D-07 BMatP= 6.29D-07
 IDIUse=3 WtCom= 9.98D-01 WtEn= 2.21D-03
 Coeff-Com:  0.117D+00-0.134D+00 0.219D-01 0.128D-01-0.358D-01-0.135D+00
 Coeff-Com:  0.636D+00-0.119D+01 0.346D+00 0.136D+01
 Coeff-En:   0.000D+00 0.000D+00 0.000D+00 0.000D+00 0.000D+00 0.000D+00
 Coeff-En:   0.000D+00 0.000D+00 0.000D+00 0.100D+01
 Coeff:      0.117D+00-0.134D+00 0.218D-01 0.128D-01-0.357D-01-0.135D+00
 Coeff:      0.634D+00-0.118D+01 0.346D+00 0.136D+01
 Gap=     0.071 Goal=   None    Shift=    0.200
 RMSDP=5.13D-07 MaxDP=5.04D-05 DE=-9.39D-08 OVMax= 5.75D-05

 Cycle  11  Pass 1  IDiag  1:
 Density matrix breaks symmetry, PCut= 1.00D-07
 Density matrix has no symmetry -- integrals replicated.
 E= -57.7483804408073     Delta-E=       -0.000000074586 Rises=F Damp=F
 DIIS: error= 2.01D-04 at cycle  11 NSaved=  11.
 NSaved=11 IEnMin=11 EnMin= -57.7483804408073     IErMin=11 ErrMin= 2.01D-04
 ErrMax= 2.01D-04  0.00D+00 EMaxC= 1.00D-01 BMatC= 4.22D-07 BMatP= 5.14D-07
 IDIUse=3 WtCom= 9.98D-01 WtEn= 2.01D-03
 Coeff-Com:  0.736D-01-0.842D-01 0.135D-01 0.623D-02 0.711D-01-0.594D+00
 Coeff-Com:  0.108D+01 0.738D+00-0.243D+01-0.223D+01 0.436D+01
 Coeff-En:   0.000D+00 0.000D+00 0.000D+00 0.000D+00 0.000D+00 0.000D+00
 Coeff-En:   0.000D+00 0.000D+00 0.000D+00 0.000D+00 0.100D+01
 Coeff:      0.735D-01-0.840D-01 0.135D-01 0.622D-02 0.710D-01-0.593D+00
 Coeff:      0.108D+01 0.736D+00-0.243D+01-0.223D+01 0.436D+01
 Gap=     0.071 Goal=   None    Shift=    0.200
 RMSDP=1.01D-06 MaxDP=9.28D-05 DE=-7.46D-08 OVMax= 1.43D-04

 Cycle  12  Pass 1  IDiag  1:
 Density matrix breaks symmetry, PCut= 1.00D-07
 Density matrix has no symmetry -- integrals replicated.
 E= -57.7483805991009     Delta-E=       -0.000000158294 Rises=F Damp=F
 DIIS: error= 1.40D-04 at cycle  12 NSaved=  12.
 NSaved=12 IEnMin=12 EnMin= -57.7483805991009     IErMin=12 ErrMin= 1.40D-04
 ErrMax= 1.40D-04  0.00D+00 EMaxC= 1.00D-01 BMatC= 1.95D-07 BMatP= 4.22D-07
 IDIUse=3 WtCom= 9.99D-01 WtEn= 1.40D-03
 Coeff-Com:  0.880D-01-0.101D+00 0.166D-01 0.801D-02 0.170D-01-0.388D+00
 Coeff-Com:  0.882D+00 0.489D+00-0.213D+01-0.188D+01 0.432D+01-0.327D+00
 Coeff-En:   0.000D+00 0.000D+00 0.000D+00 0.000D+00 0.000D+00 0.000D+00
 Coeff-En:   0.000D+00 0.000D+00 0.000D+00 0.000D+00 0.000D+00 0.100D+01
 Coeff:      0.879D-01-0.100D+00 0.166D-01 0.799D-02 0.170D-01-0.387D+00
 Coeff:      0.881D+00 0.489D+00-0.212D+01-0.188D+01 0.431D+01-0.325D+00
 Gap=     0.071 Goal=   None    Shift=    0.200
 RMSDP=1.60D-07 MaxDP=1.63D-05 DE=-1.58D-07 OVMax= 2.35D-05

 Cycle  13  Pass 1  IDiag  1:
 Density matrix breaks symmetry, PCut= 1.00D-07
 Density matrix has no symmetry -- integrals replicated.
 E= -57.7483805996486     Delta-E=       -0.000000000548 Rises=F Damp=F
 DIIS: error= 1.48D-04 at cycle  13 NSaved=  13.
 NSaved=13 IEnMin=13 EnMin= -57.7483805996486     IErMin=12 ErrMin= 1.40D-04
 ErrMax= 1.48D-04  0.00D+00 EMaxC= 1.00D-01 BMatC= 2.31D-07 BMatP= 1.95D-07
 IDIUse=3 WtCom= 9.99D-01 WtEn= 1.40D-03
 Coeff-Com:  0.561D-01-0.642D-01 0.106D-01 0.507D-02 0.176D-01-0.258D+00
 Coeff-Com:  0.605D+00 0.446D-01-0.674D+00-0.115D+01 0.939D+00 0.615D-01
 Coeff-Com:  0.140D+01
 Coeff-En:   0.000D+00 0.000D+00 0.000D+00 0.000D+00 0.000D+00 0.000D+00
 Coeff-En:   0.000D+00 0.000D+00 0.000D+00 0.000D+00 0.000D+00 0.000D+00
 Coeff-En:   0.100D+01
 Coeff:      0.561D-01-0.641D-01 0.106D-01 0.506D-02 0.176D-01-0.257D+00
 Coeff:      0.604D+00 0.445D-01-0.673D+00-0.115D+01 0.937D+00 0.614D-01
 Coeff:      0.140D+01
 Gap=     0.071 Goal=   None    Shift=    0.200
 RMSDP=6.03D-07 MaxDP=5.41D-05 DE=-5.48D-10 OVMax= 9.69D-05

 Cycle  14  Pass 1  IDiag  1:
 Density matrix breaks symmetry, PCut= 1.00D-07
 Density matrix has no symmetry -- integrals replicated.
 E= -57.7483806790193     Delta-E=       -0.000000079371 Rises=F Damp=F
 DIIS: error= 1.06D-04 at cycle  14 NSaved=  14.
 NSaved=14 IEnMin=14 EnMin= -57.7483806790193     IErMin=14 ErrMin= 1.06D-04
 ErrMax= 1.06D-04  0.00D+00 EMaxC= 1.00D-01 BMatC= 1.12D-07 BMatP= 1.95D-07
 IDIUse=3 WtCom= 9.99D-01 WtEn= 1.06D-03
 Coeff-Com:  0.269D-01-0.307D-01 0.483D-02 0.297D-02 0.327D-01-0.225D+00
 Coeff-Com:  0.344D+00 0.282D+00-0.531D+00-0.519D+00 0.718D+00-0.185D+01
 Coeff-Com:  0.543D-01 0.268D+01
 Coeff-En:   0.000D+00 0.000D+00 0.000D+00 0.000D+00 0.000D+00 0.000D+00
 Coeff-En:   0.000D+00 0.000D+00 0.000D+00 0.000D+00 0.000D+00 0.000D+00
 Coeff-En:   0.000D+00 0.100D+01
 Coeff:      0.269D-01-0.307D-01 0.483D-02 0.297D-02 0.326D-01-0.225D+00
 Coeff:      0.344D+00 0.282D+00-0.531D+00-0.519D+00 0.718D+00-0.184D+01
 Coeff:      0.543D-01 0.268D+01
 Gap=     0.071 Goal=   None    Shift=    0.200
 RMSDP=6.36D-07 MaxDP=5.47D-05 DE=-7.94D-08 OVMax= 1.17D-04

 Cycle  15  Pass 1  IDiag  1:
 Density matrix breaks symmetry, PCut= 1.00D-07
 Density matrix has no symmetry -- integrals replicated.
 E= -57.7483807427029     Delta-E=       -0.000000063684 Rises=F Damp=F
 DIIS: error= 5.95D-05 at cycle  15 NSaved=  15.
 NSaved=15 IEnMin=15 EnMin= -57.7483807427029     IErMin=15 ErrMin= 5.95D-05
 ErrMax= 5.95D-05  0.00D+00 EMaxC= 1.00D-01 BMatC= 3.39D-08 BMatP= 1.12D-07
 IDIUse=1 WtCom= 1.00D+00 WtEn= 0.00D+00
 Coeff-Com:  0.206D-01-0.235D-01 0.387D-02-0.519D-03 0.346D-01-0.231D+00
 Coeff-Com:  0.573D+00-0.208D+00-0.105D+01 0.466D+00 0.203D+01-0.239D+01
 Coeff-Com: -0.451D+00 0.242D-01 0.219D+01
 Coeff:      0.206D-01-0.235D-01 0.387D-02-0.519D-03 0.346D-01-0.231D+00
 Coeff:      0.573D+00-0.208D+00-0.105D+01 0.466D+00 0.203D+01-0.239D+01
 Coeff:     -0.451D+00 0.242D-01 0.219D+01
 Gap=     0.071 Goal=   None    Shift=    0.200
 RMSDP=2.20D-07 MaxDP=1.60D-05 DE=-6.37D-08 OVMax= 6.07D-05

 Cycle  16  Pass 1  IDiag  1:
 Density matrix breaks symmetry, PCut= 1.00D-07
 Density matrix has no symmetry -- integrals replicated.
 E= -57.7483807626185     Delta-E=       -0.000000019916 Rises=F Damp=F
 DIIS: error= 4.24D-05 at cycle  16 NSaved=  16.
 NSaved=16 IEnMin=16 EnMin= -57.7483807626185     IErMin=16 ErrMin= 4.24D-05
 ErrMax= 4.24D-05  0.00D+00 EMaxC= 1.00D-01 BMatC= 1.73D-08 BMatP= 3.39D-08
 IDIUse=1 WtCom= 1.00D+00 WtEn= 0.00D+00
 Coeff-Com:  0.171D-02-0.195D-02 0.266D-03 0.104D-02 0.833D-03-0.297D-01
 Coeff-Com:  0.159D+00-0.557D+00 0.904D+00-0.318D-01-0.140D+01 0.117D+01
 Coeff-Com: -0.124D+01 0.344D+01-0.595D+01 0.453D+01
 Coeff:      0.171D-02-0.195D-02 0.266D-03 0.104D-02 0.833D-03-0.297D-01
 Coeff:      0.159D+00-0.557D+00 0.904D+00-0.318D-01-0.140D+01 0.117D+01
 Coeff:     -0.124D+01 0.344D+01-0.595D+01 0.453D+01
 Gap=     0.071 Goal=   None    Shift=    0.200
 RMSDP=3.86D-07 MaxDP=3.20D-05 DE=-1.99D-08 OVMax= 7.66D-05

 Cycle  17  Pass 1  IDiag  1:
 Density matrix breaks symmetry, PCut= 1.00D-07
 Density matrix has no symmetry -- integrals replicated.
 E= -57.7483807775331     Delta-E=       -0.000000014915 Rises=F Damp=F
 DIIS: error= 1.31D-05 at cycle  17 NSaved=  17.
 NSaved=17 IEnMin=17 EnMin= -57.7483807775331     IErMin=17 ErrMin= 1.31D-05
 ErrMax= 1.31D-05  0.00D+00 EMaxC= 1.00D-01 BMatC= 1.98D-09 BMatP= 1.73D-08
 IDIUse=1 WtCom= 1.00D+00 WtEn= 0.00D+00
 Coeff-Com: -0.547D-03 0.625D-03-0.151D-03 0.676D-03 0.403D-03-0.195D-01
 Coeff-Com:  0.131D+00-0.512D+00 0.853D+00-0.473D-01-0.117D+01 0.648D+00
 Coeff-Com: -0.724D+00 0.297D+01-0.471D+01 0.263D+01 0.956D+00
 Coeff:     -0.547D-03 0.625D-03-0.151D-03 0.676D-03 0.403D-03-0.195D-01
 Coeff:      0.131D+00-0.512D+00 0.853D+00-0.473D-01-0.117D+01 0.648D+00
 Coeff:     -0.724D+00 0.297D+01-0.471D+01 0.263D+01 0.956D+00
 Gap=     0.071 Goal=   None    Shift=    0.200
 RMSDP=1.31D-07 MaxDP=8.94D-06 DE=-1.49D-08 OVMax= 3.61D-05

 Cycle  18  Pass 1  IDiag  1:
 Density matrix breaks symmetry, PCut= 1.00D-07
 Density matrix has no symmetry -- integrals replicated.
 E= -57.7483807804658     Delta-E=       -0.000000002933 Rises=F Damp=F
 DIIS: error= 4.25D-06 at cycle  18 NSaved=  18.
 NSaved=18 IEnMin=18 EnMin= -57.7483807804658     IErMin=18 ErrMin= 4.25D-06
 ErrMax= 4.25D-06  0.00D+00 EMaxC= 1.00D-01 BMatC= 4.09D-10 BMatP= 1.98D-09
 IDIUse=1 WtCom= 1.00D+00 WtEn= 0.00D+00
 Coeff-Com: -0.755D-03 0.863D-03-0.153D-03 0.651D-04-0.101D-03-0.799D-02
 Coeff-Com:  0.104D+00-0.435D+00 0.654D+00-0.595D-01-0.612D+00 0.262D+00
 Coeff-Com: -0.408D+00 0.165D+01-0.159D+01 0.223D+00-0.874D+00 0.209D+01
 Coeff:     -0.755D-03 0.863D-03-0.153D-03 0.651D-04-0.101D-03-0.799D-02
 Coeff:      0.104D+00-0.435D+00 0.654D+00-0.595D-01-0.612D+00 0.262D+00
 Coeff:     -0.408D+00 0.165D+01-0.159D+01 0.223D+00-0.874D+00 0.209D+01
 Gap=     0.071 Goal=   None    Shift=    0.200
 RMSDP=5.34D-08 MaxDP=3.23D-06 DE=-2.93D-09 OVMax= 1.70D-05

 Cycle  19  Pass 1  IDiag  1:
 Density matrix breaks symmetry, PCut= 1.00D-07
 Density matrix has no symmetry -- integrals replicated.
 E= -57.7483807811278     Delta-E=       -0.000000000662 Rises=F Damp=F
 DIIS: error= 2.44D-06 at cycle  19 NSaved=  19.
 NSaved=19 IEnMin=19 EnMin= -57.7483807811278     IErMin=19 ErrMin= 2.44D-06
 ErrMax= 2.44D-06  0.00D+00 EMaxC= 1.00D-01 BMatC= 1.20D-10 BMatP= 4.09D-10
 IDIUse=1 WtCom= 1.00D+00 WtEn= 0.00D+00
 Coeff-Com: -0.497D-03 0.568D-03-0.862D-04-0.161D-03-0.547D-03-0.226D-02
 Coeff-Com:  0.766D-01-0.326D+00 0.464D+00-0.902D-01-0.238D+00 0.586D-01
 Coeff-Com: -0.141D+00 0.431D+00 0.953D-01-0.286D+00-0.737D+00 0.779D-02
 Coeff-Com:  0.169D+01
 Coeff:     -0.497D-03 0.568D-03-0.862D-04-0.161D-03-0.547D-03-0.226D-02
 Coeff:      0.766D-01-0.326D+00 0.464D+00-0.902D-01-0.238D+00 0.586D-01
 Coeff:     -0.141D+00 0.431D+00 0.953D-01-0.286D+00-0.737D+00 0.779D-02
 Coeff:      0.169D+01
 Gap=     0.071 Goal=   None    Shift=    0.200
 RMSDP=2.47D-08 MaxDP=2.08D-06 DE=-6.62D-10 OVMax= 8.34D-06

 Cycle  20  Pass 1  IDiag  1:
 Density matrix breaks symmetry, PCut= 1.00D-07
 Density matrix has no symmetry -- integrals replicated.
 E= -57.7483807813073     Delta-E=       -0.000000000180 Rises=F Damp=F
 DIIS: error= 1.39D-06 at cycle  20 NSaved=  20.
 NSaved=20 IEnMin=20 EnMin= -57.7483807813073     IErMin=20 ErrMin= 1.39D-06
 ErrMax= 1.39D-06  0.00D+00 EMaxC= 1.00D-01 BMatC= 4.16D-11 BMatP= 1.20D-10
 IDIUse=1 WtCom= 1.00D+00 WtEn= 0.00D+00
 Large coefficients: NSaved= 20 BigCof=    0.00 CofMax=   10.00 Det=-3.89D-15
 Inversion failed.  Reducing to 19 matrices.
 Large coefficients: NSaved= 19 BigCof=    0.00 CofMax=   10.00 Det=-7.56D-15
 Inversion failed.  Reducing to 18 matrices.
 Large coefficients: NSaved= 18 BigCof=    0.00 CofMax=   10.00 Det=-3.96D-15
 Inversion failed.  Reducing to 17 matrices.
 Large coefficients: NSaved= 17 BigCof=    0.00 CofMax=   10.00 Det=-4.09D-15
 Inversion failed.  Reducing to 16 matrices.
 Large coefficients: NSaved= 16 BigCof=    0.00 CofMax=   10.00 Det=-4.35D-15
 Inversion failed.  Reducing to 15 matrices.
 Coeff-Com: -0.500D-02 0.571D-01-0.225D+00 0.356D+00-0.145D+00-0.159D+00
 Coeff-Com:  0.796D-01-0.746D-01 0.294D+00-0.294D+00 0.220D+00-0.308D-01
 Coeff-Com: -0.174D+00-0.599D+00 0.170D+01
 Coeff:     -0.500D-02 0.571D-01-0.225D+00 0.356D+00-0.145D+00-0.159D+00
 Coeff:      0.796D-01-0.746D-01 0.294D+00-0.294D+00 0.220D+00-0.308D-01
 Coeff:     -0.174D+00-0.599D+00 0.170D+01
 Gap=     0.071 Goal=   None    Shift=    0.200
 RMSDP=1.55D-08 MaxDP=1.18D-06 DE=-1.80D-10 OVMax= 4.20D-06

 Cycle  21  Pass 1  IDiag  1:
 Density matrix breaks symmetry, PCut= 1.00D-07
 Density matrix has no symmetry -- integrals replicated.
 E= -57.7483807813649     Delta-E=       -0.000000000058 Rises=F Damp=F
 DIIS: error= 7.17D-07 at cycle  21 NSaved=  16.
 NSaved=16 IEnMin=16 EnMin= -57.7483807813649     IErMin=16 ErrMin= 7.17D-07
 ErrMax= 7.17D-07  0.00D+00 EMaxC= 1.00D-01 BMatC= 1.40D-11 BMatP= 4.16D-11
 IDIUse=1 WtCom= 1.00D+00 WtEn= 0.00D+00
 Large coefficients: NSaved= 16 BigCof=    0.00 CofMax=   10.00 Det=-1.58D-15
 Inversion failed.  Reducing to 15 matrices.
 Coeff-Com:  0.110D-01-0.651D-01 0.154D+00-0.172D+00 0.447D-01 0.464D-01
 Coeff-Com:  0.130D-01-0.713D-01-0.174D-01 0.952D-01 0.366D-01 0.364D+00
 Coeff-Com: -0.102D+01-0.827D+00 0.241D+01
 Coeff:      0.110D-01-0.651D-01 0.154D+00-0.172D+00 0.447D-01 0.464D-01
 Coeff:      0.130D-01-0.713D-01-0.174D-01 0.952D-01 0.366D-01 0.364D+00
 Coeff:     -0.102D+01-0.827D+00 0.241D+01
 Gap=     0.071 Goal=   None    Shift=    0.200
 RMSDP=7.12D-09 MaxDP=5.88D-07 DE=-5.75D-11 OVMax= 2.49D-06

 Density matrix breaks symmetry, PCut= 1.00D-07
 Density matrix has no symmetry -- integrals replicated.
 SCF Done:  E(ROHF) =  -57.7483807814     A.U. after   21 cycles
            NFock= 21  Conv=0.71D-08     -V/T= 3.2218
 <Sx>= 0.0000 <Sy>= 0.0000 <Sz>= 1.0000 <S**2>= 2.0000 S= 1.0000
 <L.S>=  0.00000000000    
 KE= 2.599198465921D+01 PE=-1.234467292873D+02 EE= 3.970636384672D+01
 Annihilation of the first spin contaminant:
 S**2 before annihilation     2.0000,   after     2.0000
 Leave Link  502 at Tue Mar 13 12:29:07 2018, MaxMem= 10737418240 cpu:            1106.8 elap:              74.7
 (Enter /home1/apps/gaussian/16rA.03/g16/l801.exe)
 Windowed orbitals will be sorted by symmetry type.
 An orbital has undefined symmetry, so N**3 symmetry is turned off.
 Density matrix breaks symmetry, PCut= 1.00D-07
 Density matrix has no symmetry -- integrals replicated.
 GenMOA:  NOpAll= 48 NOp2=8 NOpUse=  1 JSym2X=2
 FoFJK:  IHMeth= 1 ICntrl=       0 DoSepK=F KAlg= 0 I1Cent=           0 FoldK=F
 IRaf=         0 NMat=       1 IRICut=       1 DoRegI=T DoRafI=F ISym2E= 2 IDoP0=0 IntGTp=1.
 FoFCou: FMM=F IPFlag=           0 FMFlag=      100000 FMFlg1=           0
         NFxFlg=           0 DoJE=F BraDBF=F KetDBF=F FulRan=T
         wScrn=  0.000000 ICntrl=         0 IOpCl=  1 I1Cent=           0 NGrid=           0
         NMat0=    1 NMatS0=      1 NMatT0=    0 NMatD0=    1 NMtDS0=    0 NMtDT0=    0
 Integrals replicated using symmetry in FoFCou.
 <Sx>= 0.0000 <Sy>= 0.0000 <Sz>= 1.0000 <S**2>= 2.0000 S= 1.0000
 Range of M.O.s used for correlation:     1   258
 NBasis=   262 NAE=     7 NBE=     5 NFC=     0 NFV=     0
 NROrb=    258 NOA=     7 NOB=     5 NVA=   251 NVB=   253

 **** Warning!!: The largest alpha MO coefficient is  0.15773452D+03


 **** Warning!!: The largest beta MO coefficient is  0.15759249D+03

 Singles contribution to E2=   -0.5034422697D-02
 Leave Link  801 at Tue Mar 13 12:30:03 2018, MaxMem= 10737418240 cpu:             901.1 elap:              56.4
 (Enter /home1/apps/gaussian/16rA.03/g16/l804.exe)
 Open-shell transformation, MDV= 10737418240 ITran=4 ISComp=1.
 Unit  1 TFree=       2088527 TCopy=       1668236.
 Semi-Direct transformation.
 ModeAB=           2 MOrb=             7 LenV=   10735254464
 LASXX=     58908927 LTotXX=    58908927 LenRXX=    58908927
 LTotAB=    59638635 MaxLAS=   107791110 LenRXY=   107791110
 NonZer=   117817854 LenScr=   177502208 LnRSAI=           0
 LnScr1=           0 LExtra=     4875457 Total=    349077702
 MaxDsk= 13421772800 SrtSym=           F ITran=            4
 DoSDTr:  NPSUse= 16
 JobTyp=1 Pass  1:  I=   1 to   7.
 (rs|ai) integrals will be sorted in core.
 Complete sort for first half transformation.
 First half transformation complete.
 Complete sort for second half transformation.
 Second half transformation complete.
 ModeAB=           2 MOrb=             5 LenV=   10735254464
 LASXX=     42257380 LTotXX=    42257380 LenRXX=    76993650
 LTotAB=    40481280 MaxLAS=    76993650 LenRXY=    40481280
 NonZer=    84514760 LenScr=   127547392 LnRSAI=           0
 LnScr1=           0 LExtra=   171575494 Total=    416597816
 MaxDsk= 13421772800 SrtSym=           F ITran=            4
 DoSDTr:  NPSUse= 16
 JobTyp=2 Pass  1:  I=   1 to   5.
 (rs|ai) integrals will be sorted in core.
 Complete sort for first half transformation.
 First half transformation complete.
 Complete sort for second half transformation.
 Second half transformation complete.
 SymMOI:  orbitals are not symmetric.
 Spin components of T(2) and E(2):
     alpha-alpha T2 =       0.1310475387D-01 E2=     -0.6472220485D-01
     alpha-beta  T2 =       0.7895565170D-01 E2=     -0.3187650094D+00
     beta-beta   T2 =       0.8988940799D-02 E2=     -0.4212029647D-01
 ANorm=    0.1050036851D+01
 E2 =    -0.4306419335D+00 EUMP2 =    -0.58179022714823D+02
 (S**2,0)=  0.20000D+01           (S**2,1)=  0.20000D+01
 E(PUHF)=      -0.57748380781D+02        E(PMP2)=      -0.58179022715D+02
 Leave Link  804 at Tue Mar 13 12:33:42 2018, MaxMem= 10737418240 cpu:            3495.3 elap:             218.7
 (Enter /home1/apps/gaussian/16rA.03/g16/l913.exe)
 CIDS:  MDV= 10737418240.
 IFCWin=0 IBDFC=1 NFBD=     0     0 NFCmp=     0     0 NFFFC=     0     0
 Using original routines for 1st iteration.
 Using DD4UQ or CC4UQ for 2nd and later iterations.
 Keep R2 and R3 ints in memory in symmetry-blocked form, NReq=669248601.
 FoFCou: FMM=F IPFlag=           0 FMFlag=           0 FMFlg1=           0
         NFxFlg=           0 DoJE=F BraDBF=F KetDBF=F FulRan=T
         wScrn=  0.000000 ICntrl=       600 IOpCl=  0 I1Cent=           0 NGrid=           0
         NMat0=    1 NMatS0=  34453 NMatT0=    0 NMatD0=    1 NMtDS0=    0 NMtDT0=    0
 Petite list used in FoFCou.
 CIDS: In Core Option IDoMem=           1.
 CCSD(T)
 =======
 Iterations= 150 Convergence= 0.100D-06
 Produce multiple copies of IABC intergrals
 Iteration Nr.   1
 **********************
 DD1Dir will call FoFMem   1 times, MxPair=       102
 NAB=    35 NAA=    21 NBB=    10.
 DD1Dir will call FoFMem   1 times, MxPair=       102
 NAB=    35 NAA=    21 NBB=    10.
 MP4(R+Q)=  0.29130994D-01
 Maximum subspace dimension=  5
 A-vector RMS=  1.3606769D-04 Max=  4.5517163D-03 conv= 1.00D-05.
 RLE energy=       -0.4209800170
 E3=       -0.19295097D-01        EROMP3=      -0.58198317812D+02
 E4(SDQ)=   0.12071267D-03        ROMP4(SDQ)=  -0.58198197099D+02
 VARIATIONAL ENERGIES WITH THE FIRST-ORDER WAVEFUNCTION:
 DE(Corr)= -0.42075545     E(Corr)=     -58.169136233    
 NORM(A)=   0.10454146D+01
 Iteration Nr.   2
 **********************
 DD1Dir will call FoFMem   1 times, MxPair=       102
 NAB=    35 NAA=    21 NBB=    10.
 A-vector RMS=  2.4771091D-03 Max=  3.5129241D-02 conv= 1.00D-05.
 RLE energy=       -0.4268264343
 DE(Corr)= -0.43970924     E(CORR)=     -58.188090019     Delta=-1.90D-02
 NORM(A)=   0.10481934D+01
 Iteration Nr.   3
 **********************
 DD1Dir will call FoFMem   1 times, MxPair=       102
 NAB=    35 NAA=    21 NBB=    10.
 A-vector RMS=  1.8756065D-03 Max=  2.7061277D-02 conv= 1.00D-05.
 RLE energy=       -0.4358121061
 DE(Corr)= -0.44217024     E(CORR)=     -58.190551019     Delta=-2.46D-03
 NORM(A)=   0.10540584D+01
 Iteration Nr.   4
 **********************
 DD1Dir will call FoFMem   1 times, MxPair=       102
 NAB=    35 NAA=    21 NBB=    10.
 A-vector RMS=  1.3664962D-03 Max=  1.9382197D-02 conv= 1.00D-05.
 RLE energy=       -0.4516944046
 DE(Corr)= -0.44472561     E(CORR)=     -58.193106388     Delta=-2.56D-03
 NORM(A)=   0.10707186D+01
 Iteration Nr.   5
 **********************
 DD1Dir will call FoFMem   1 times, MxPair=       102
 NAB=    35 NAA=    21 NBB=    10.
 A-vector RMS=  1.4896298D-04 Max=  2.1199065D-03 conv= 1.00D-05.
 RLE energy=       -0.4512166840
 DE(Corr)= -0.45071332     E(CORR)=     -58.199094103     Delta=-5.99D-03
 NORM(A)=   0.10706694D+01
 Iteration Nr.   6
 **********************
 DD1Dir will call FoFMem   1 times, MxPair=       102
 NAB=    35 NAA=    21 NBB=    10.
 A-vector RMS=  8.2857982D-05 Max=  1.3194752D-03 conv= 1.00D-05.
 RLE energy=       -0.4501796884
 DE(Corr)= -0.45054224     E(CORR)=     -58.198923024     Delta= 1.71D-04
 NORM(A)=   0.10694967D+01
 Iteration Nr.   7
 **********************
 DD1Dir will call FoFMem   1 times, MxPair=       102
 NAB=    35 NAA=    21 NBB=    10.
 A-vector RMS=  5.3268261D-06 Max=  7.4948572D-05 conv= 1.00D-05.
 RLE energy=       -0.4501858372
 DE(Corr)= -0.45017820     E(CORR)=     -58.198558978     Delta= 3.64D-04
 NORM(A)=   0.10695295D+01
 Iteration Nr.   8
 **********************
 DD1Dir will call FoFMem   1 times, MxPair=       102
 NAB=    35 NAA=    21 NBB=    10.
 A-vector RMS=  2.8575138D-06 Max=  4.8026219D-05 conv= 1.00D-05.
 RLE energy=       -0.4501861065
 DE(Corr)= -0.45018870     E(CORR)=     -58.198569480     Delta=-1.05D-05
 NORM(A)=   0.10695028D+01
 Iteration Nr.   9
 **********************
 DD1Dir will call FoFMem   1 times, MxPair=       102
 NAB=    35 NAA=    21 NBB=    10.
 A-vector RMS=  7.8002335D-07 Max=  1.3505918D-05 conv= 1.00D-05.
 RLE energy=       -0.4501854636
 DE(Corr)= -0.45018403     E(CORR)=     -58.198564816     Delta= 4.66D-06
 NORM(A)=   0.10695040D+01
 Iteration Nr.  10
 **********************
 DD1Dir will call FoFMem   1 times, MxPair=       102
 NAB=    35 NAA=    21 NBB=    10.
 A-vector RMS=  7.4033705D-07 Max=  1.3516228D-05 conv= 1.00D-05.
 RLE energy=       -0.4501845495
 DE(Corr)= -0.45018500     E(CORR)=     -58.198565780     Delta=-9.64D-07
 NORM(A)=   0.10695023D+01
 Iteration Nr.  11
 **********************
 DD1Dir will call FoFMem   1 times, MxPair=       102
 NAB=    35 NAA=    21 NBB=    10.
 A-vector RMS=  1.7515759D-07 Max=  3.3289938D-06 conv= 1.00D-05.
 RLE energy=       -0.4501848194
 DE(Corr)= -0.45018445     E(CORR)=     -58.198565235     Delta= 5.45D-07
 NORM(A)=   0.10695043D+01
 Iteration Nr.  12
 **********************
 DD1Dir will call FoFMem   1 times, MxPair=       102
 NAB=    35 NAA=    21 NBB=    10.
 A-vector RMS=  4.9388287D-08 Max=  1.0460361D-06 conv= 1.00D-05.
 RLE energy=       -0.4501847189
 DE(Corr)= -0.45018470     E(CORR)=     -58.198565480     Delta=-2.45D-07
 NORM(A)=   0.10695045D+01
 Iteration Nr.  13
 **********************
 DD1Dir will call FoFMem   1 times, MxPair=       102
 NAB=    35 NAA=    21 NBB=    10.
 A-vector RMS=  2.1926971D-08 Max=  5.7179816D-07 conv= 1.00D-05.
 RLE energy=       -0.4501846888
 DE(Corr)= -0.45018469     E(CORR)=     -58.198565467     Delta= 1.28D-08
 NORM(A)=   0.10695045D+01
 CI/CC converged in   13 iterations to DelEn= 1.28D-08 Conv= 1.00D-07 ErrA1= 2.19D-08 Conv= 1.00D-05
 Wavefunction amplitudes converged. E(Corr)=     -58.198565467    
 Largest amplitude= 6.49D-02
 Time for triples=     4609.70 seconds.
 T4(CCSD)= -0.16390804D-01
 T5(CCSD)=  0.21856797D-03
 CCSD(T)= -0.58214737703D+02
 Discarding MO integrals.
 Leave Link  913 at Tue Mar 13 12:44:22 2018, MaxMem= 10737418240 cpu:           10202.9 elap:             639.6
 (Enter /home1/apps/gaussian/16rA.03/g16/l601.exe)
 Copying SCF densities to generalized density rwf, IOpCl= 0 IROHF=1.
 SCF density gives NOpUse=  1 NOpAll= 48.
 Marking SCF density as not fully symmetric.

 **********************************************************************

            Population analysis using the SCF density.

 **********************************************************************

 Orbital symmetries:
       Occupied  (A1G) (?A) (?A) (?A) (A1G) (?B) (?B)
       Virtual   (T1U) (T1U) (T1U) (A1G) (?B) (?B) (?B) (?B) (?B)
                 (T1U) (T1U) (T1U) (?B) (?B) (?B) (A1G) (?B) (?B)
                 (?C) (?C) (?C) (?B) (?B) (?B) (?C) (?C) (?C) (?C)
                 (?C) (?C) (?C) (?B) (?B) (?B) (?B) (?B) (A1G)
                 (?D) (?D) (?D) (?E) (?E) (?E) (?E) (?E) (?E) (?E)
                 (?E) (?E) (?D) (?D) (?D) (?D) (?D) (?D) (?D) (?B)
                 (?B) (?B) (?B) (?B) (T1U) (T1U) (T1U) (A1G) (?F)
                 (?F) (?F) (?F) (?F) (?F) (?F) (?F) (?F) (?F) (?F)
                 (?B) (?B) (?B) (?B) (?B) (?B) (?B) (?B) (?B) (?B)
                 (?B) (?B) (?B) (?B) (?A) (?A) (?A) (?A) (?A) (?A)
                 (?A) (T1U) (T1U) (T1U) (?B) (?B) (?B) (?B) (?B)
                 (A1G) (?F) (?F) (?F) (?F) (?F) (?F) (?F) (?F)
                 (?F) (?F) (?F) (?F) (?F) (?F) (?F) (?F) (?F) (?F)
                 (?F) (?F) (?F) (?F) (?F) (?F) (?F) (?F) (?F) (T1U)
                 (T1U) (T1U) (?F) (?F) (?F) (?F) (?F) (A1G) (?F)
                 (?F) (?F) (?F) (?F) (?F) (?F) (?F) (?F) (?F) (?F)
                 (?F) (?F) (?F) (?F) (?F) (?F) (?F) (?F) (?F) (?F)
                 (?F) (?F) (?F) (?F) (?F) (?F) (?F) (?F) (?F) (?F)
                 (?F) (?F) (?F) (?F) (A1G) (?F) (?F) (?F) (?F)
                 (?F) (T1U) (T1U) (T1U) (?F) (?F) (?F) (?F) (?F)
                 (T1U) (T1U) (T1U) (A1G) (?F) (?F) (?F) (?F) (?F)
                 (A1G) (T1U) (T1U) (T1U) (A1G) (T1U) (T1U) (T1U)
                 (?F) (?F) (?F) (?F) (?F) (A1G) (T1U) (T1U) (T1U)
                 (A1G) (T1U) (T1U) (T1U) (?F) (?F) (?F) (?F) (?F)
                 (A1G) (T1U) (T1U) (T1U) (A1G) (T1U) (T1U) (T1U)
                 (A1G) (T1U) (T1U) (T1U) (A1G) (T1U) (T1U) (T1U)
                 (A1G) (T1U) (T1U) (T1U) (A1G) (A1G) (A1G) (A1G)
                 (A1G)
 Unable to determine electronic state:  an orbital has unidentified symmetry.
 Alpha  occ. eigenvalues --   -3.02189  -1.88609  -1.88609  -1.88609  -0.43870
 Alpha  occ. eigenvalues --   -0.43870  -0.23133
 Alpha virt. eigenvalues --    0.01403   0.01403   0.01403   0.02230   0.03900
 Alpha virt. eigenvalues --    0.03900   0.03900   0.03946   0.03946   0.04854
 Alpha virt. eigenvalues --    0.04854   0.04854   0.10417   0.10417   0.10417
 Alpha virt. eigenvalues --    0.11541   0.12481   0.12481   0.16357   0.16357
 Alpha virt. eigenvalues --    0.16357   0.17119   0.17119   0.17119   0.22490
 Alpha virt. eigenvalues --    0.22490   0.22490   0.22494   0.22494   0.22494
 Alpha virt. eigenvalues --    0.22497   0.32944   0.32944   0.37688   0.37688
 Alpha virt. eigenvalues --    0.37688   0.39484   0.48288   0.48288   0.48288
 Alpha virt. eigenvalues --    0.62271   0.62271   0.62271   0.62305   0.62305
 Alpha virt. eigenvalues --    0.62315   0.62315   0.62315   0.62330   0.72416
 Alpha virt. eigenvalues --    0.72416   0.72416   0.72882   0.72882   0.72882
 Alpha virt. eigenvalues --    0.73426   0.83914   0.83914   0.89331   0.89331
 Alpha virt. eigenvalues --    0.89331   1.34434   1.34434   1.34434   1.44048
 Alpha virt. eigenvalues --    1.57081   1.57081   1.57081   1.57104   1.57104
 Alpha virt. eigenvalues --    1.57228   1.57228   1.57228   1.57274   1.57274
 Alpha virt. eigenvalues --    1.57274   1.99222   1.99233   1.99233   1.99277
 Alpha virt. eigenvalues --    1.99277   1.99277   1.99402   1.99402   1.99429
 Alpha virt. eigenvalues --    1.99429   1.99429   2.04075   2.04075   2.04075
 Alpha virt. eigenvalues --    2.07428   2.07428   2.07428   2.09510   2.09510
 Alpha virt. eigenvalues --    2.09510   2.12041   3.35618   3.35618   3.35618
 Alpha virt. eigenvalues --    4.24349   4.24349   4.27315   4.27315   4.27315
 Alpha virt. eigenvalues --    4.35778   5.10228   5.10228   5.10228   5.10289
 Alpha virt. eigenvalues --    5.10289   5.10601   5.10601   5.10601   5.10713
 Alpha virt. eigenvalues --    5.10713   5.10713   5.38662   5.38662   5.38662
 Alpha virt. eigenvalues --    5.40803   5.40803   5.40803   5.43450   5.92922
 Alpha virt. eigenvalues --    5.93136   5.93136   5.93136   5.93303   5.93303
 Alpha virt. eigenvalues --    5.93711   5.93711   5.93711   7.29619   7.29619
 Alpha virt. eigenvalues --    7.29619   8.11201   8.11201   8.12337   8.12337
 Alpha virt. eigenvalues --    8.12337  10.46498  13.78372  13.78372  13.78372
 Alpha virt. eigenvalues --   13.79336  13.79336  13.79336  13.80519  14.40670
 Alpha virt. eigenvalues --   14.40670  14.40670  14.42836  14.42836  14.42836
 Alpha virt. eigenvalues --   14.43062  14.43062  15.63270  15.63333  15.63333
 Alpha virt. eigenvalues --   15.63333  15.63384  15.63384  15.63496  15.63496
 Alpha virt. eigenvalues --   15.63496  15.92043  15.92043  15.92043  15.92139
 Alpha virt. eigenvalues --   15.92139  15.92673  15.92673  15.92673  15.92870
 Alpha virt. eigenvalues --   15.92870  15.92870  24.14148  24.67118  24.67118
 Alpha virt. eigenvalues --   24.67118  24.68187  24.68187  27.57229  27.57229
 Alpha virt. eigenvalues --   27.57229  43.26673  43.26673  43.26673  43.27925
 Alpha virt. eigenvalues --   43.27925  52.65833  52.65833  52.65833  53.92336
 Alpha virt. eigenvalues --   87.75661  87.75661  87.75661  87.76526  87.76526
 Alpha virt. eigenvalues --   88.87090  97.64405  97.64405  97.64405 155.52273
 Alpha virt. eigenvalues --  179.93536 179.93536 179.93536 222.52581 222.52581
 Alpha virt. eigenvalues --  222.52581 222.52951 222.52951 300.79777 339.98407
 Alpha virt. eigenvalues --  339.98407 339.98407 595.39598 667.57416 667.57416
 Alpha virt. eigenvalues --  667.57416 738.62991 738.62991 738.62991 738.63079
 Alpha virt. eigenvalues --  738.630791219.932431386.388041386.388041386.38804
 Alpha virt. eigenvalues -- 2608.046203101.190843101.190843101.190845831.71299
 Alpha virt. eigenvalues -- 7651.064487651.064487651.06448********************
 Alpha virt. eigenvalues -- **************************************************
 Alpha virt. eigenvalues -- **************************************************
 Alpha virt. eigenvalues -- **********
     Molecular Orbital Coefficients:
                           1         2         3         4         5
                       (A1G)--O      O         O         O     (A1G)--O
     Eigenvalues --    -3.02189  -1.88609  -1.88609  -1.88609  -0.43870
   1 1   Ti 1S          0.00000   0.00000   0.00000   0.00000  -0.00000
   2        2S          0.00000  -0.00000  -0.00000  -0.00000  -0.00000
   3        3S          0.00000   0.00000  -0.00000   0.00000  -0.00000
   4        4S          0.00000  -0.00000   0.00000   0.00000  -0.00000
   5        5S         -0.00000   0.00000  -0.00000  -0.00000   0.00000
   6        6S          0.00001  -0.00000  -0.00000   0.00000  -0.00000
   7        7S         -0.00002   0.00000   0.00000  -0.00000   0.00000
   8        8S          0.00015  -0.00000  -0.00000   0.00000  -0.00004
   9        9S         -0.00022   0.00000   0.00000   0.00000   0.00005
  10       10S          0.00115  -0.00000  -0.00000   0.00000  -0.00028
  11       11S         -0.00207   0.00000   0.00000   0.00000   0.00048
  12       12S          0.00747  -0.00000  -0.00000   0.00000  -0.00182
  13       13S         -0.01999   0.00000   0.00000  -0.00000   0.00490
  14       14S          0.09745  -0.00000  -0.00000   0.00000  -0.02523
  15       15S         -0.14221   0.00000   0.00000  -0.00000   0.03906
  16       16S         -0.37855  -0.00000  -0.00000   0.00000   0.12398
  17       17S          0.31601   0.00000   0.00000   0.00000  -0.09604
  18       18S          0.91668   0.00000   0.00000  -0.00000  -0.36077
  19       19S          0.31245  -0.00000  -0.00000   0.00000  -0.23743
  20       20S          0.01690   0.00000  -0.00000   0.00000   0.36258
  21       21S         -0.01021  -0.00000   0.00000  -0.00000   0.58897
  22       22S          0.00465   0.00000  -0.00000   0.00000   0.22445
  23       23S         -0.01005   0.00000   0.00000  -0.00000  -0.01959
  24       24S         -0.24431  -0.00000  -0.00000   0.00000   0.11503
  25       25S         -0.00126  -0.00000   0.00000  -0.00000   0.00003
  26       26PX         0.00000   0.00000  -0.00000   0.00000  -0.00000
  27       26PY        -0.00000  -0.00000  -0.00000   0.00000  -0.00000
  28       26PZ         0.00000  -0.00000   0.00000   0.00000  -0.00000
  29       27PX        -0.00000   0.00000  -0.00000   0.00000   0.00000
  30       27PY         0.00000  -0.00000  -0.00000   0.00000   0.00000
  31       27PZ        -0.00000  -0.00000   0.00000   0.00000  -0.00000
  32       28PX        -0.00000   0.00000  -0.00000   0.00000  -0.00000
  33       28PY        -0.00000  -0.00000  -0.00000   0.00000  -0.00000
  34       28PZ         0.00000  -0.00000   0.00000   0.00000   0.00000
  35       29PX        -0.00000   0.00001  -0.00000   0.00001   0.00000
  36       29PY         0.00000  -0.00001  -0.00000   0.00001   0.00000
  37       29PZ        -0.00000  -0.00000   0.00001   0.00000  -0.00000
  38       30PX        -0.00000   0.00005  -0.00000   0.00003  -0.00000
  39       30PY        -0.00000  -0.00003  -0.00001   0.00005  -0.00000
  40       30PZ         0.00000  -0.00000   0.00006   0.00001   0.00000
  41       31PX         0.00000   0.00010  -0.00000   0.00006   0.00000
  42       31PY         0.00000  -0.00006  -0.00001   0.00010   0.00000
  43       31PZ         0.00000  -0.00000   0.00012   0.00001  -0.00000
  44       32PX        -0.00000   0.00045  -0.00002   0.00029  -0.00000
  45       32PY        -0.00000  -0.00029  -0.00006   0.00045  -0.00000
  46       32PZ        -0.00000  -0.00002   0.00054   0.00006   0.00000
  47       33PX         0.00000   0.00007  -0.00000   0.00005   0.00000
  48       33PY         0.00000  -0.00005  -0.00001   0.00007   0.00000
  49       33PZ         0.00000  -0.00000   0.00009   0.00001  -0.00000
  50       34PX        -0.00000   0.01110  -0.00040   0.00722  -0.00000
  51       34PY         0.00000  -0.00721  -0.00150   0.01101  -0.00000
  52       34PZ         0.00000  -0.00049   0.01316   0.00148   0.00000
  53       35PX         0.00000  -0.05888   0.00213  -0.03829   0.00000
  54       35PY        -0.00000   0.03826   0.00797  -0.05840   0.00000
  55       35PZ        -0.00000   0.00258  -0.06978  -0.00784  -0.00000
  56       36PX         0.00000   0.01865  -0.00067   0.01213  -0.00000
  57       36PY         0.00000  -0.01212  -0.00252   0.01850  -0.00000
  58       36PZ        -0.00000  -0.00082   0.02210   0.00248   0.00000
  59       37PX        -0.00000   0.16365  -0.00591   0.10640  -0.00000
  60       37PY         0.00000  -0.10632  -0.02216   0.16230   0.00000
  61       37PZ         0.00000  -0.00716   0.19393   0.02178  -0.00000
  62       38PX        -0.00000   0.30679  -0.01108   0.19947  -0.00000
  63       38PY         0.00000  -0.19933  -0.04154   0.30426  -0.00000
  64       38PZ        -0.00000  -0.01342   0.36357   0.04084   0.00000
  65       39PX        -0.00000   0.32472  -0.01173   0.21113  -0.00000
  66       39PY         0.00000  -0.21098  -0.04396   0.32204  -0.00000
  67       39PZ         0.00000  -0.01421   0.38482   0.04323   0.00000
  68       40PX        -0.00000   0.13803  -0.00499   0.08975  -0.00000
  69       40PY         0.00000  -0.08968  -0.01869   0.13690   0.00000
  70       40PZ         0.00000  -0.00604   0.16358   0.01837  -0.00000
  71       41PX        -0.00000   0.01273  -0.00046   0.00828   0.00000
  72       41PY        -0.00000  -0.00827  -0.00172   0.01263  -0.00000
  73       41PZ        -0.00000  -0.00056   0.01509   0.00170   0.00000
  74       42PX        -0.00000   0.00021  -0.00001   0.00013   0.00000
  75       42PY         0.00000  -0.00013  -0.00003   0.00020  -0.00000
  76       42PZ         0.00000  -0.00001   0.00024   0.00003  -0.00000
  77       43PX         0.00000   0.00022  -0.00001   0.00014   0.00000
  78       43PY        -0.00000  -0.00014  -0.00003   0.00021  -0.00000
  79       43PZ        -0.00000  -0.00001   0.00026   0.00003  -0.00000
  80       44PX        -0.00000  -0.05809   0.00210  -0.03777   0.00000
  81       44PY        -0.00000   0.03775   0.00787  -0.05762   0.00000
  82       44PZ         0.00000   0.00254  -0.06885  -0.00773  -0.00000
  83       45PX        -0.00000   0.02877  -0.00104   0.01871   0.00000
  84       45PY        -0.00000  -0.01869  -0.00390   0.02854   0.00000
  85       45PZ         0.00000  -0.00126   0.03410   0.00383  -0.00000
  86       46PX        -0.00000  -0.00004   0.00000  -0.00003   0.00000
  87       46PY         0.00000   0.00003   0.00001  -0.00004  -0.00000
  88       46PZ        -0.00000   0.00000  -0.00005  -0.00001  -0.00000
  89       47D 0       -0.00000  -0.00000   0.00000  -0.00000  -0.00000
  90       47D+1       -0.00000   0.00000   0.00000  -0.00000  -0.00000
  91       47D-1        0.00000   0.00000  -0.00000  -0.00000   0.00000
  92       47D+2       -0.00000   0.00000   0.00000  -0.00000  -0.00000
  93       47D-2       -0.00000   0.00000   0.00000  -0.00000   0.00000
  94       48D 0       -0.00000   0.00000  -0.00000   0.00000  -0.00000
  95       48D+1       -0.00000  -0.00000   0.00000  -0.00000  -0.00000
  96       48D-1       -0.00000  -0.00000   0.00000  -0.00000  -0.00000
  97       48D+2        0.00000  -0.00000  -0.00000  -0.00000  -0.00000
  98       48D-2        0.00000   0.00000  -0.00000  -0.00000  -0.00000
  99       49D 0       -0.00000  -0.00000   0.00000  -0.00000  -0.00000
 100       49D+1       -0.00000   0.00000   0.00000  -0.00000  -0.00000
 101       49D-1        0.00000   0.00000   0.00000  -0.00000   0.00000
 102       49D+2        0.00000   0.00000   0.00000  -0.00000  -0.00000
 103       49D-2        0.00000   0.00000   0.00000  -0.00000   0.00000
 104       50D 0       -0.00000   0.00000  -0.00000   0.00000  -0.00000
 105       50D+1       -0.00000  -0.00000   0.00000  -0.00000  -0.00000
 106       50D-1        0.00000  -0.00000   0.00000  -0.00000  -0.00000
 107       50D+2        0.00000  -0.00000  -0.00000  -0.00000  -0.00000
 108       50D-2        0.00000   0.00000   0.00000  -0.00000  -0.00000
 109       51D 0       -0.00000  -0.00000   0.00000  -0.00000  -0.00000
 110       51D+1       -0.00000   0.00000   0.00000  -0.00000  -0.00000
 111       51D-1       -0.00000   0.00000  -0.00000  -0.00000   0.00000
 112       51D+2        0.00000   0.00000   0.00000  -0.00000  -0.00000
 113       51D-2       -0.00000   0.00000   0.00000  -0.00000   0.00000
 114       52D 0        0.00000  -0.00000   0.00000  -0.00000  -0.00000
 115       52D+1       -0.00000   0.00000   0.00000  -0.00000  -0.00000
 116       52D-1       -0.00000   0.00000  -0.00000  -0.00000   0.00000
 117       52D+2        0.00000   0.00000   0.00000  -0.00000   0.00000
 118       52D-2       -0.00000   0.00000   0.00000  -0.00000   0.00000
 119       53D 0        0.00000  -0.00000   0.00000  -0.00000  -0.00000
 120       53D+1       -0.00000   0.00000   0.00000  -0.00000  -0.00000
 121       53D-1       -0.00000   0.00000  -0.00000  -0.00000   0.00000
 122       53D+2        0.00000   0.00000   0.00000  -0.00000  -0.00000
 123       53D-2       -0.00000   0.00000   0.00000  -0.00000   0.00000
 124       54D 0        0.00000   0.00000  -0.00000   0.00000  -0.00000
 125       54D+1       -0.00000  -0.00000   0.00000  -0.00000   0.00000
 126       54D-1        0.00000  -0.00000   0.00000   0.00000   0.00000
 127       54D+2        0.00000   0.00000  -0.00000   0.00000  -0.00000
 128       54D-2        0.00000  -0.00000   0.00000   0.00000   0.00000
 129       55D 0        0.00000   0.00000   0.00000   0.00000  -0.00000
 130       55D+1       -0.00000  -0.00000  -0.00000   0.00000   0.00000
 131       55D-1       -0.00000   0.00000  -0.00000  -0.00000   0.00000
 132       55D+2        0.00000  -0.00000   0.00000   0.00000  -0.00000
 133       55D-2       -0.00000   0.00000  -0.00000  -0.00000   0.00000
 134       56D 0        0.00000   0.00000  -0.00000  -0.00000  -0.00000
 135       56D+1       -0.00000   0.00000   0.00000  -0.00000   0.00000
 136       56D-1        0.00000  -0.00000   0.00000   0.00000   0.00000
 137       56D+2        0.00000   0.00000  -0.00000  -0.00000  -0.00000
 138       56D-2        0.00000  -0.00000   0.00000  -0.00000   0.00000
 139       57D 0        0.00000  -0.00000   0.00000   0.00000   0.00000
 140       57D+1       -0.00000   0.00000  -0.00000   0.00000   0.00000
 141       57D-1       -0.00000  -0.00000  -0.00000   0.00000   0.00000
 142       57D+2        0.00000  -0.00000  -0.00000   0.00000   0.00000
 143       57D-2        0.00000   0.00000  -0.00000  -0.00000   0.00000
 144       58D 0       -0.00000   0.00000  -0.00000   0.00000   0.00000
 145       58D+1       -0.00000  -0.00000  -0.00000   0.00000  -0.00000
 146       58D-1        0.00000  -0.00000   0.00000   0.00000  -0.00000
 147       58D+2       -0.00000  -0.00000  -0.00000  -0.00000  -0.00000
 148       58D-2        0.00000  -0.00000  -0.00000   0.00000  -0.00000
 149       59D 0       -0.00000   0.00000  -0.00000   0.00000   0.00000
 150       59D+1        0.00000  -0.00000  -0.00000   0.00000  -0.00000
 151       59D-1        0.00000  -0.00000   0.00000   0.00000  -0.00000
 152       59D+2       -0.00000  -0.00000  -0.00000  -0.00000  -0.00000
 153       59D-2        0.00000  -0.00000  -0.00000   0.00000  -0.00000
 154       60D 0        0.00000   0.00000  -0.00000  -0.00000  -0.00000
 155       60D+1       -0.00000  -0.00000   0.00000  -0.00000  -0.00000
 156       60D-1        0.00000   0.00000   0.00000  -0.00000   0.00000
 157       60D+2        0.00000   0.00000   0.00000  -0.00000  -0.00000
 158       60D-2       -0.00000  -0.00000  -0.00000   0.00000  -0.00000
 159       61F 0        0.00000   0.00002  -0.00046  -0.00005  -0.00000
 160       61F+1        0.00000   0.00141  -0.00005   0.00092  -0.00000
 161       61F-1       -0.00000   0.00061   0.00013  -0.00093   0.00000
 162       61F+2       -0.00000  -0.00007   0.00177   0.00020   0.00000
 163       61F-2       -0.00000  -0.00000   0.00000  -0.00000  -0.00000
 164       61F+3       -0.00000   0.00061  -0.00002   0.00040   0.00000
 165       61F-3       -0.00000   0.00079   0.00016  -0.00121  -0.00000
 166       62F 0       -0.00000   0.00003  -0.00090  -0.00010  -0.00000
 167       62F+1       -0.00000   0.00281  -0.00010   0.00182  -0.00000
 168       62F-1       -0.00000   0.00122   0.00025  -0.00186   0.00000
 169       62F+2        0.00000  -0.00013   0.00351   0.00039  -0.00000
 170       62F-2       -0.00000  -0.00000   0.00000  -0.00000  -0.00000
 171       62F+3        0.00000   0.00121  -0.00004   0.00079   0.00000
 172       62F-3       -0.00000   0.00157   0.00033  -0.00239  -0.00000
 173       63F 0        0.00000   0.00005  -0.00141  -0.00016  -0.00000
 174       63F+1       -0.00000   0.00437  -0.00016   0.00284   0.00000
 175       63F-1        0.00000   0.00189   0.00039  -0.00289  -0.00000
 176       63F+2        0.00000  -0.00020   0.00546   0.00061   0.00000
 177       63F-2        0.00000  -0.00000   0.00000  -0.00000   0.00000
 178       63F+3       -0.00000   0.00188  -0.00007   0.00122   0.00000
 179       63F-3        0.00000   0.00245   0.00051  -0.00373  -0.00000
 180       64F 0        0.00000   0.00002  -0.00044  -0.00005   0.00000
 181       64F+1       -0.00000   0.00137  -0.00005   0.00089  -0.00000
 182       64F-1        0.00000   0.00059   0.00012  -0.00090   0.00000
 183       64F+2        0.00000  -0.00006   0.00171   0.00019  -0.00000
 184       64F-2        0.00000  -0.00000   0.00000  -0.00000  -0.00000
 185       64F+3        0.00000   0.00059  -0.00002   0.00038  -0.00000
 186       64F-3        0.00000   0.00076   0.00016  -0.00117   0.00000
 187       65F 0       -0.00000  -0.00000   0.00004   0.00000  -0.00000
 188       65F+1        0.00000  -0.00012   0.00000  -0.00008  -0.00000
 189       65F-1       -0.00000  -0.00005  -0.00001   0.00008  -0.00000
 190       65F+2       -0.00000   0.00001  -0.00016  -0.00002   0.00000
 191       65F-2       -0.00000  -0.00000  -0.00000   0.00000  -0.00000
 192       65F+3        0.00000  -0.00005   0.00000  -0.00003  -0.00000
 193       65F-3       -0.00000  -0.00007  -0.00001   0.00011  -0.00000
 194       66G 0       -0.00006  -0.00000   0.00000   0.00000  -0.00002
 195       66G+1       -0.00000   0.00000  -0.00000   0.00000  -0.00000
 196       66G-1       -0.00000  -0.00000  -0.00000  -0.00000  -0.00000
 197       66G+2        0.00028   0.00000   0.00000   0.00000   0.00007
 198       66G-2        0.00000  -0.00000   0.00000   0.00000   0.00000
 199       66G+3        0.00000   0.00000  -0.00000  -0.00000   0.00000
 200       66G-3       -0.00000   0.00000   0.00000  -0.00000  -0.00000
 201       66G+4        0.00016  -0.00000  -0.00000   0.00000   0.00004
 202       66G-4        0.00000   0.00000  -0.00000  -0.00000   0.00000
 203       67G 0       -0.00020   0.00000  -0.00000  -0.00000  -0.00007
 204       67G+1       -0.00000  -0.00000   0.00000   0.00000  -0.00000
 205       67G-1       -0.00000   0.00000   0.00000   0.00000  -0.00000
 206       67G+2        0.00090  -0.00000   0.00000  -0.00000   0.00030
 207       67G-2        0.00000   0.00000  -0.00000  -0.00000   0.00000
 208       67G+3        0.00000  -0.00000   0.00000   0.00000   0.00000
 209       67G-3       -0.00000  -0.00000  -0.00000   0.00000  -0.00000
 210       67G+4        0.00051   0.00000   0.00000  -0.00000   0.00017
 211       67G-4        0.00000  -0.00000   0.00000  -0.00000   0.00000
 212       68G 0       -0.00021  -0.00000  -0.00000   0.00000   0.00006
 213       68G+1       -0.00000   0.00000  -0.00000   0.00000   0.00000
 214       68G-1       -0.00000  -0.00000  -0.00000   0.00000   0.00000
 215       68G+2        0.00094  -0.00000   0.00000  -0.00000  -0.00028
 216       68G-2        0.00000  -0.00000   0.00000   0.00000  -0.00000
 217       68G+3        0.00000   0.00000   0.00000  -0.00000  -0.00000
 218       68G-3       -0.00000   0.00000   0.00000  -0.00000   0.00000
 219       68G+4        0.00053  -0.00000   0.00000  -0.00000  -0.00016
 220       68G-4        0.00000   0.00000  -0.00000  -0.00000  -0.00000
 221       69G 0        0.00001  -0.00000   0.00000   0.00000   0.00008
 222       69G+1        0.00000   0.00000   0.00000  -0.00000   0.00000
 223       69G-1        0.00000  -0.00000   0.00000  -0.00000   0.00000
 224       69G+2       -0.00006  -0.00000  -0.00000  -0.00000  -0.00036
 225       69G-2       -0.00000   0.00000  -0.00000  -0.00000  -0.00000
 226       69G+3       -0.00000   0.00000  -0.00000  -0.00000  -0.00000
 227       69G-3        0.00000   0.00000  -0.00000   0.00000   0.00000
 228       69G+4       -0.00003   0.00000  -0.00000   0.00000  -0.00021
 229       69G-4       -0.00000  -0.00000   0.00000   0.00000  -0.00000
 230       70H 0       -0.00000  -0.00000   0.00007   0.00001   0.00000
 231       70H+1       -0.00000   0.00015  -0.00001   0.00010  -0.00000
 232       70H-1       -0.00000   0.00003   0.00001  -0.00005  -0.00000
 233       70H+2       -0.00000   0.00001  -0.00032  -0.00004   0.00000
 234       70H-2        0.00000  -0.00000  -0.00000   0.00000  -0.00000
 235       70H+3        0.00000  -0.00019   0.00001  -0.00012  -0.00000
 236       70H-3       -0.00000   0.00016   0.00003  -0.00024  -0.00000
 237       70H+4        0.00000   0.00000  -0.00011  -0.00001  -0.00000
 238       70H-4        0.00000   0.00000  -0.00000  -0.00000   0.00000
 239       70H+5        0.00000  -0.00016   0.00001  -0.00010   0.00000
 240       70H-5       -0.00000   0.00010   0.00002  -0.00015   0.00000
 241       71H 0       -0.00000  -0.00000   0.00001   0.00000  -0.00000
 242       71H+1        0.00000   0.00005  -0.00000   0.00003   0.00000
 243       71H-1       -0.00000   0.00000   0.00000  -0.00001   0.00000
 244       71H+2        0.00000   0.00000  -0.00011  -0.00001  -0.00000
 245       71H-2       -0.00000  -0.00000  -0.00000   0.00000  -0.00000
 246       71H+3       -0.00000  -0.00005   0.00000  -0.00003   0.00000
 247       71H-3       -0.00000   0.00005   0.00001  -0.00008  -0.00000
 248       71H+4        0.00000   0.00000  -0.00003  -0.00000   0.00000
 249       71H-4        0.00000   0.00000  -0.00000  -0.00000  -0.00000
 250       71H+5        0.00000  -0.00006   0.00000  -0.00004  -0.00000
 251       71H-5       -0.00000   0.00003   0.00001  -0.00004  -0.00000
 252       72H 0       -0.00000   0.00000  -0.00004  -0.00000  -0.00000
 253       72H+1        0.00000  -0.00006   0.00000  -0.00004  -0.00000
 254       72H-1        0.00000  -0.00002  -0.00000   0.00003   0.00000
 255       72H+2        0.00000  -0.00000   0.00013   0.00001   0.00000
 256       72H-2       -0.00000   0.00000   0.00000  -0.00000  -0.00000
 257       72H+3       -0.00000   0.00009  -0.00000   0.00006   0.00000
 258       72H-3       -0.00000  -0.00006  -0.00001   0.00010   0.00000
 259       72H+4        0.00000  -0.00000   0.00005   0.00001   0.00000
 260       72H-4       -0.00000  -0.00000   0.00000   0.00000  -0.00000
 261       72H+5       -0.00000   0.00006  -0.00000   0.00004   0.00000
 262       72H-5        0.00000  -0.00005  -0.00001   0.00007   0.00000
                           6         7         8         9        10
                           O         O     (T1U)--V  (T1U)--V  (T1U)--V
     Eigenvalues --    -0.43870  -0.23133   0.01403   0.01403   0.01403
   1 1   Ti 1S          0.00000   0.00000   0.00000   0.00000   0.00000
   2        2S          0.00000  -0.00000  -0.00000   0.00000  -0.00000
   3        3S         -0.00000   0.00000   0.00000  -0.00000  -0.00000
   4        4S          0.00000  -0.00000  -0.00000   0.00000   0.00000
   5        5S         -0.00000   0.00000   0.00000  -0.00000  -0.00000
   6        6S          0.00000  -0.00000  -0.00000   0.00000   0.00000
   7        7S         -0.00000   0.00000   0.00000  -0.00000  -0.00000
   8        8S          0.00000  -0.00000  -0.00000   0.00000   0.00000
   9        9S         -0.00000   0.00000   0.00000  -0.00000  -0.00000
  10       10S          0.00000  -0.00000  -0.00000   0.00000   0.00000
  11       11S         -0.00000   0.00000   0.00000  -0.00000  -0.00000
  12       12S          0.00000  -0.00000  -0.00000   0.00000   0.00000
  13       13S         -0.00000   0.00000   0.00000  -0.00000  -0.00000
  14       14S          0.00000  -0.00000  -0.00000   0.00000   0.00000
  15       15S         -0.00000   0.00000   0.00000  -0.00000  -0.00000
  16       16S          0.00000   0.00000  -0.00000   0.00000   0.00000
  17       17S         -0.00000  -0.00000   0.00000  -0.00000  -0.00000
  18       18S         -0.00000  -0.00000   0.00000  -0.00000  -0.00000
  19       19S          0.00000  -0.00000  -0.00000   0.00000   0.00000
  20       20S         -0.00000   0.00000   0.00000  -0.00000  -0.00000
  21       21S          0.00000  -0.00000  -0.00000   0.00000   0.00000
  22       22S         -0.00000   0.00000   0.00000  -0.00000  -0.00000
  23       23S         -0.00000   0.00000   0.00000  -0.00000  -0.00000
  24       24S          0.00000  -0.00000  -0.00000   0.00000   0.00000
  25       25S          0.00000  -0.00000  -0.00000   0.00000   0.00000
  26       26PX        -0.00000  -0.00000  -0.00000  -0.00000  -0.00000
  27       26PY         0.00000   0.00000   0.00000  -0.00000  -0.00000
  28       26PZ         0.00000   0.00000   0.00000   0.00000  -0.00000
  29       27PX         0.00000   0.00000   0.00000   0.00000   0.00000
  30       27PY        -0.00000  -0.00000  -0.00000   0.00000   0.00000
  31       27PZ        -0.00000  -0.00000  -0.00000  -0.00000   0.00000
  32       28PX        -0.00000  -0.00000  -0.00000  -0.00000  -0.00000
  33       28PY         0.00000   0.00000   0.00000  -0.00000  -0.00000
  34       28PZ         0.00000   0.00000   0.00000   0.00000  -0.00000
  35       29PX         0.00000   0.00000   0.00000   0.00000   0.00000
  36       29PY        -0.00000  -0.00000  -0.00000   0.00000   0.00000
  37       29PZ        -0.00000  -0.00000  -0.00000  -0.00000   0.00000
  38       30PX        -0.00000  -0.00000  -0.00002  -0.00000  -0.00002
  39       30PY         0.00000   0.00000   0.00001  -0.00002  -0.00002
  40       30PZ         0.00000   0.00000   0.00001   0.00002  -0.00002
  41       31PX         0.00000   0.00000   0.00005   0.00000   0.00004
  42       31PY        -0.00000  -0.00000  -0.00003   0.00005   0.00004
  43       31PZ        -0.00000  -0.00000  -0.00003  -0.00005   0.00004
  44       32PX        -0.00000  -0.00000  -0.00022  -0.00002  -0.00017
  45       32PY         0.00000   0.00000   0.00013  -0.00019  -0.00015
  46       32PZ         0.00000   0.00000   0.00011   0.00019  -0.00016
  47       33PX         0.00000   0.00000   0.00049   0.00004   0.00038
  48       33PY        -0.00000  -0.00000  -0.00029   0.00044   0.00033
  49       33PZ        -0.00000  -0.00000  -0.00025  -0.00044   0.00036
  50       34PX        -0.00000  -0.00000  -0.00217  -0.00017  -0.00166
  51       34PY         0.00000   0.00000   0.00127  -0.00193  -0.00146
  52       34PZ         0.00000   0.00000   0.00109   0.00193  -0.00161
  53       35PX         0.00000   0.00000   0.00844   0.00065   0.00647
  54       35PY        -0.00000  -0.00000  -0.00495   0.00753   0.00569
  55       35PZ        -0.00000  -0.00000  -0.00423  -0.00751   0.00627
  56       36PX        -0.00000  -0.00000  -0.04526  -0.00350  -0.03472
  57       36PY         0.00000   0.00000   0.02653  -0.04039  -0.03051
  58       36PZ         0.00000   0.00000   0.02267   0.04028  -0.03361
  59       37PX         0.00000  -0.00000  -0.00847  -0.00066  -0.00650
  60       37PY        -0.00000  -0.00000   0.00496  -0.00756  -0.00571
  61       37PZ        -0.00000   0.00000   0.00424   0.00754  -0.00629
  62       38PX        -0.00000  -0.00000  -0.13790  -0.01067  -0.10579
  63       38PY         0.00000   0.00000   0.08083  -0.12307  -0.09296
  64       38PZ         0.00000   0.00000   0.06907   0.12273  -0.10241
  65       39PX        -0.00000  -0.00000  -0.08491  -0.00657  -0.06514
[...]
  31       27PZ         0.00000   0.00000   0.00000  -0.00000
  32       28PX         0.00000   0.00000   0.00000   0.00000
  33       28PY         0.00000   0.00000   0.00000  -0.00000
  34       28PZ         0.00000   0.00000   0.00000  -0.00000
  35       29PX         0.00000   0.00000   0.00000  -0.00000
  36       29PY         0.00000   0.00000   0.00000  -0.00000
  37       29PZ         0.00000   0.00000   0.00000  -0.00000
  38       30PX         0.00000   0.00000   0.00000   0.00000
  39       30PY         0.00000   0.00000   0.00000  -0.00000
  40       30PZ         0.00000   0.00000   0.00000   0.00000
  41       31PX         0.00000   0.00000   0.00000  -0.00000
  42       31PY         0.00000   0.00000   0.00000  -0.00000
  43       31PZ         0.00000   0.00000   0.00000   0.00000
  44       32PX         0.00002   0.00001   0.00001   0.00000
  45       32PY         0.00002   0.00001   0.00001  -0.00000
  46       32PZ         0.00002   0.00001   0.00001  -0.00000
  47       33PX         0.00001   0.00000   0.00000  -0.00000
  48       33PY         0.00001   0.00000   0.00000  -0.00000
  49       33PZ         0.00001   0.00000   0.00000  -0.00000
  50       34PX         0.00292   0.00146   0.00146  -0.00000
  51       34PY         0.00292   0.00146   0.00146  -0.00000
  52       34PZ         0.00292   0.00146   0.00146   0.00000
  53       35PX        -0.03484  -0.01742  -0.01742   0.00000
  54       35PY        -0.03484  -0.01742  -0.01742   0.00000
  55       35PZ        -0.03484  -0.01742  -0.01742   0.00000
  56       36PX         0.02103   0.01052   0.01052   0.00000
  57       36PY         0.02103   0.01052   0.01052  -0.00000
  58       36PZ         0.02103   0.01052   0.01052  -0.00000
  59       37PX         0.29100   0.14550   0.14550  -0.00000
  60       37PY         0.29100   0.14550   0.14550  -0.00000
  61       37PZ         0.29100   0.14550   0.14550  -0.00000
  62       38PX         0.69658   0.34829   0.34829  -0.00000
  63       38PY         0.69658   0.34829   0.34829   0.00000
  64       38PZ         0.69658   0.34829   0.34829  -0.00000
  65       39PX         0.75242   0.37621   0.37621  -0.00000
  66       39PY         0.75242   0.37621   0.37621  -0.00000
  67       39PZ         0.75242   0.37621   0.37621  -0.00000
  68       40PX         0.25909   0.12955   0.12955  -0.00000
  69       40PY         0.25909   0.12955   0.12955  -0.00000
  70       40PZ         0.25909   0.12955   0.12955  -0.00000
  71       41PX         0.01382   0.00691   0.00691  -0.00000
  72       41PY         0.01382   0.00691   0.00691  -0.00000
  73       41PZ         0.01382   0.00691   0.00691  -0.00000
  74       42PX         0.00011   0.00005   0.00005   0.00000
  75       42PY         0.00011   0.00005   0.00005   0.00000
  76       42PZ         0.00011   0.00005   0.00005   0.00000
  77       43PX         0.00005   0.00002   0.00002  -0.00000
  78       43PY         0.00005   0.00002   0.00002  -0.00000
  79       43PZ         0.00005   0.00002   0.00002  -0.00000
  80       44PX        -0.06914  -0.03457  -0.03457   0.00000
  81       44PY        -0.06914  -0.03457  -0.03457   0.00000
  82       44PZ        -0.06914  -0.03457  -0.03457   0.00000
  83       45PX         0.06674   0.03337   0.03337  -0.00000
  84       45PY         0.06674   0.03337   0.03337  -0.00000
  85       45PZ         0.06674   0.03337   0.03337  -0.00000
  86       46PX        -0.00000  -0.00000  -0.00000   0.00000
  87       46PY        -0.00000  -0.00000  -0.00000   0.00000
  88       46PZ        -0.00000  -0.00000  -0.00000   0.00000
  89       47D 0        0.00000   0.00000   0.00000   0.00000
  90       47D+1        0.00000   0.00000   0.00000   0.00000
  91       47D-1        0.00000   0.00000   0.00000   0.00000
  92       47D+2        0.00000   0.00000   0.00000   0.00000
  93       47D-2        0.00000   0.00000   0.00000   0.00000
  94       48D 0        0.00002   0.00002  -0.00000   0.00002
  95       48D+1        0.00010   0.00010   0.00000   0.00010
  96       48D-1        0.00000   0.00000  -0.00000   0.00000
  97       48D+2        0.00007   0.00007  -0.00000   0.00007
  98       48D-2        0.00000   0.00000   0.00000   0.00000
  99       49D 0        0.00064   0.00064   0.00000   0.00064
 100       49D+1        0.00255   0.00255   0.00000   0.00255
 101       49D-1        0.00000   0.00000   0.00000   0.00000
 102       49D+2        0.00191   0.00191   0.00000   0.00191
 103       49D-2        0.00000   0.00000   0.00000   0.00000
 104       50D 0        0.00511   0.00511   0.00000   0.00511
 105       50D+1        0.02044   0.02044   0.00000   0.02044
 106       50D-1        0.00000   0.00000  -0.00000   0.00000
 107       50D+2        0.01533   0.01533  -0.00000   0.01533
 108       50D-2        0.00000   0.00000   0.00000   0.00000
 109       51D 0        0.01941   0.01941   0.00000   0.01941
 110       51D+1        0.07765   0.07765   0.00000   0.07765
 111       51D-1        0.00000   0.00000   0.00000   0.00000
 112       51D+2        0.05824   0.05824   0.00000   0.05824
 113       51D-2        0.00000   0.00000   0.00000   0.00000
 114       52D 0        0.04555   0.04555  -0.00000   0.04555
 115       52D+1        0.18218   0.18218   0.00000   0.18218
 116       52D-1        0.00000   0.00000   0.00000   0.00000
 117       52D+2        0.13664   0.13664   0.00000   0.13664
 118       52D-2        0.00000   0.00000   0.00000   0.00000
 119       53D 0        0.07213   0.07213  -0.00000   0.07213
 120       53D+1        0.28853   0.28853   0.00000   0.28853
 121       53D-1        0.00000   0.00000  -0.00000   0.00000
 122       53D+2        0.21640   0.21640  -0.00000   0.21640
 123       53D-2        0.00000   0.00000   0.00000   0.00000
 124       54D 0        0.06710   0.06710   0.00000   0.06710
 125       54D+1        0.26841   0.26841   0.00000   0.26841
 126       54D-1        0.00000   0.00000   0.00000   0.00000
 127       54D+2        0.20131   0.20131   0.00000   0.20131
 128       54D-2        0.00000   0.00000   0.00000   0.00000
 129       55D 0        0.03034   0.03034   0.00000   0.03034
 130       55D+1        0.12137   0.12137   0.00000   0.12137
 131       55D-1        0.00000   0.00000  -0.00000   0.00000
 132       55D+2        0.09102   0.09102   0.00000   0.09102
 133       55D-2        0.00000   0.00000   0.00000   0.00000
 134       56D 0        0.00447   0.00447   0.00000   0.00447
 135       56D+1        0.01789   0.01789   0.00000   0.01789
 136       56D-1        0.00000   0.00000   0.00000   0.00000
 137       56D+2        0.01342   0.01342   0.00000   0.01342
 138       56D-2        0.00000   0.00000  -0.00000   0.00000
 139       57D 0        0.00003   0.00003   0.00000   0.00003
 140       57D+1        0.00013   0.00013   0.00000   0.00013
 141       57D-1        0.00000   0.00000  -0.00000   0.00000
 142       57D+2        0.00010   0.00010  -0.00000   0.00010
 143       57D-2        0.00000   0.00000  -0.00000   0.00000
 144       58D 0        0.00256   0.00256   0.00000   0.00256
 145       58D+1        0.01025   0.01025   0.00000   0.01025
 146       58D-1        0.00000   0.00000  -0.00000   0.00000
 147       58D+2        0.00769   0.00769  -0.00000   0.00769
 148       58D-2        0.00000   0.00000  -0.00000   0.00000
 149       59D 0        0.00261   0.00261   0.00000   0.00261
 150       59D+1        0.01045   0.01045  -0.00000   0.01045
 151       59D-1        0.00000   0.00000   0.00000   0.00000
 152       59D+2        0.00784   0.00784   0.00000   0.00784
 153       59D-2        0.00000   0.00000  -0.00000   0.00000
 154       60D 0        0.00000   0.00000  -0.00000   0.00000
 155       60D+1        0.00001   0.00001  -0.00000   0.00001
 156       60D-1       -0.00000  -0.00000   0.00000  -0.00000
 157       60D+2        0.00001   0.00001   0.00000   0.00001
 158       60D-2       -0.00000  -0.00000   0.00000  -0.00000
 159       61F 0        0.00000   0.00000   0.00000   0.00000
 160       61F+1        0.00002   0.00001   0.00001   0.00000
 161       61F-1        0.00001   0.00000   0.00000   0.00000
 162       61F+2        0.00002   0.00001   0.00001  -0.00000
 163       61F-2        0.00000   0.00000   0.00000   0.00000
 164       61F+3        0.00000   0.00000   0.00000  -0.00000
 165       61F-3        0.00001   0.00001   0.00001   0.00000
 166       62F 0        0.00000   0.00000   0.00000   0.00000
 167       62F+1        0.00005   0.00003   0.00003  -0.00000
 168       62F-1        0.00002   0.00001   0.00001  -0.00000
 169       62F+2        0.00006   0.00003   0.00003  -0.00000
 170       62F-2        0.00000   0.00000   0.00000   0.00000
 171       62F+3        0.00001   0.00000   0.00000   0.00000
 172       62F-3        0.00004   0.00002   0.00002  -0.00000
 173       63F 0        0.00001   0.00000   0.00000  -0.00000
 174       63F+1        0.00009   0.00004   0.00004  -0.00000
 175       63F-1        0.00004   0.00002   0.00002  -0.00000
 176       63F+2        0.00010   0.00005   0.00005   0.00000
 177       63F-2        0.00000   0.00000   0.00000   0.00000
 178       63F+3        0.00002   0.00001   0.00001  -0.00000
 179       63F-3        0.00006   0.00003   0.00003  -0.00000
 180       64F 0        0.00000   0.00000   0.00000   0.00000
 181       64F+1        0.00001   0.00001   0.00001   0.00000
 182       64F-1        0.00001   0.00000   0.00000  -0.00000
 183       64F+2        0.00002   0.00001   0.00001   0.00000
 184       64F-2        0.00000   0.00000   0.00000   0.00000
 185       64F+3        0.00000   0.00000   0.00000   0.00000
 186       64F-3        0.00001   0.00001   0.00001  -0.00000
 187       65F 0       -0.00000  -0.00000  -0.00000   0.00000
 188       65F+1       -0.00000  -0.00000  -0.00000   0.00000
 189       65F-1       -0.00000  -0.00000  -0.00000   0.00000
 190       65F+2       -0.00000  -0.00000  -0.00000   0.00000
 191       65F-2       -0.00000  -0.00000  -0.00000   0.00000
 192       65F+3       -0.00000  -0.00000  -0.00000   0.00000
 193       65F-3       -0.00000  -0.00000  -0.00000   0.00000
 194       66G 0        0.00000   0.00000   0.00000   0.00000
 195       66G+1        0.00000   0.00000   0.00000   0.00000
 196       66G-1        0.00000   0.00000   0.00000   0.00000
 197       66G+2        0.00000   0.00000   0.00000   0.00000
 198       66G-2        0.00000   0.00000   0.00000   0.00000
 199       66G+3        0.00000   0.00000   0.00000   0.00000
 200       66G-3        0.00000   0.00000   0.00000   0.00000
 201       66G+4        0.00000   0.00000   0.00000   0.00000
 202       66G-4        0.00000   0.00000   0.00000   0.00000
 203       67G 0        0.00001   0.00001   0.00000   0.00001
 204       67G+1        0.00000   0.00000   0.00000   0.00000
 205       67G-1        0.00000   0.00000   0.00000   0.00000
 206       67G+2        0.00000   0.00000   0.00000   0.00000
 207       67G-2        0.00000   0.00000   0.00000   0.00000
 208       67G+3        0.00002   0.00002   0.00000   0.00002
 209       67G-3        0.00000   0.00000   0.00000   0.00000
 210       67G+4        0.00001   0.00001   0.00000   0.00001
 211       67G-4        0.00000   0.00000   0.00000   0.00000
 212       68G 0        0.00002   0.00002   0.00000   0.00002
 213       68G+1        0.00000   0.00000   0.00000   0.00000
 214       68G-1        0.00000   0.00000   0.00000   0.00000
 215       68G+2        0.00000   0.00000   0.00000   0.00000
 216       68G-2        0.00000   0.00000   0.00000   0.00000
 217       68G+3        0.00002   0.00002   0.00000   0.00002
 218       68G-3        0.00000   0.00000   0.00000   0.00000
 219       68G+4        0.00001   0.00001   0.00000   0.00001
 220       68G-4        0.00000   0.00000   0.00000   0.00000
 221       69G 0        0.00000   0.00000   0.00000   0.00000
 222       69G+1        0.00000   0.00000   0.00000   0.00000
 223       69G-1        0.00000   0.00000   0.00000   0.00000
 224       69G+2        0.00000   0.00000   0.00000   0.00000
 225       69G-2        0.00000   0.00000   0.00000   0.00000
 226       69G+3        0.00000   0.00000   0.00000   0.00000
 227       69G-3        0.00000   0.00000   0.00000   0.00000
 228       69G+4        0.00000   0.00000   0.00000   0.00000
 229       69G-4        0.00000   0.00000   0.00000   0.00000
 230       70H 0        0.00000   0.00000   0.00000   0.00000
 231       70H+1        0.00000   0.00000   0.00000  -0.00000
 232       70H-1        0.00000   0.00000   0.00000   0.00000
 233       70H+2        0.00000   0.00000   0.00000  -0.00000
 234       70H-2        0.00000   0.00000   0.00000   0.00000
 235       70H+3        0.00000   0.00000   0.00000  -0.00000
 236       70H-3        0.00000   0.00000   0.00000   0.00000
 237       70H+4        0.00000   0.00000   0.00000   0.00000
 238       70H-4        0.00000   0.00000   0.00000   0.00000
 239       70H+5        0.00000   0.00000   0.00000   0.00000
 240       70H-5        0.00000   0.00000   0.00000  -0.00000
 241       71H 0        0.00000   0.00000   0.00000   0.00000
 242       71H+1        0.00000   0.00000   0.00000   0.00000
 243       71H-1        0.00000   0.00000   0.00000   0.00000
 244       71H+2        0.00000   0.00000   0.00000   0.00000
 245       71H-2        0.00000   0.00000   0.00000   0.00000
 246       71H+3        0.00000   0.00000   0.00000   0.00000
 247       71H-3        0.00000   0.00000   0.00000   0.00000
 248       71H+4        0.00000   0.00000   0.00000   0.00000
 249       71H-4        0.00000   0.00000   0.00000   0.00000
 250       71H+5        0.00000   0.00000   0.00000   0.00000
 251       71H-5        0.00000   0.00000   0.00000  -0.00000
 252       72H 0        0.00000   0.00000   0.00000   0.00000
 253       72H+1        0.00000   0.00000   0.00000   0.00000
 254       72H-1        0.00000   0.00000   0.00000   0.00000
 255       72H+2        0.00000   0.00000   0.00000   0.00000
 256       72H-2        0.00000   0.00000   0.00000   0.00000
 257       72H+3        0.00000   0.00000   0.00000   0.00000
 258       72H-3        0.00000   0.00000   0.00000   0.00000
 259       72H+4        0.00000   0.00000   0.00000  -0.00000
 260       72H-4        0.00000   0.00000   0.00000   0.00000
 261       72H+5        0.00000   0.00000   0.00000   0.00000
 262       72H-5        0.00000   0.00000   0.00000   0.00000
          Condensed to atoms (all electrons):
               1
     1  Ti  12.000000
          Atomic-Atomic Spin Densities.
               1
     1  Ti   2.000000
 Mulliken charges and spin densities:
               1          2
     1  Ti  -0.000000   2.000000
 Sum of Mulliken charges =  -0.00000   2.00000
 Mulliken charges and spin densities with hydrogens summed into heavy atoms:
               1          2
     1  Ti  -0.000000   2.000000
 Electronic spatial extent (au):  <R**2>=             48.5571
 Charge=             -0.0000 electrons
 Dipole moment (field-independent basis, Debye):
    X=              0.0000    Y=              0.0000    Z=             -0.0000  Tot=              0.0000
 Quadrupole moment (field-independent basis, Debye-Ang):
   XX=            -21.7703   YY=            -21.7703   ZZ=            -21.7703
   XY=             -0.0000   XZ=             -0.0000   YZ=              0.0000
 Traceless Quadrupole moment (field-independent basis, Debye-Ang):
   XX=              0.0000   YY=             -0.0000   ZZ=              0.0000
   XY=             -0.0000   XZ=             -0.0000   YZ=              0.0000
 Octapole moment (field-independent basis, Debye-Ang**2):
  XXX=             -0.0000  YYY=              0.0000  ZZZ=              0.0000  XYY=             -0.0000
  XXY=              0.0000  XXZ=             -0.0000  XZZ=              0.0000  YZZ=              0.0000
  YYZ=             -0.0000  XYZ=              0.0000
 Hexadecapole moment (field-independent basis, Debye-Ang**3):
 XXXX=            -71.2046 YYYY=            -71.8607 ZZZZ=            -71.2046 XXXY=             -0.0000
 XXXZ=             -0.0000 YYYX=              0.0000 YYYZ=             -0.0000 ZZZX=             -0.0000
 ZZZY=              0.0000 XXYY=            -23.5162 XXZZ=            -24.1723 YYZZ=            -23.5162
 XXYZ=              0.0000 YYXZ=             -0.0000 ZZXY=             -0.0000
 N-N= 0.000000000000D+00 E-N=-1.234467271680D+02  KE= 2.599198465921D+01
 Orbital energies and kinetic energies (alpha):
                                 1                 2
   1         (A1G)--O         -3.021894          1.493453
   2         O                -1.886092          2.423287
   3         O                -1.886092          2.423287
   4         O                -1.886092          2.423287
   5         (A1G)--O         -0.438704          0.265840
   6         O                -0.438704          3.966838
   7         O                -0.231332          3.966838
   8         (T1U)--V          0.014035          0.053156
   9         (T1U)--V          0.014035          0.053156
  10         (T1U)--V          0.014035          0.053156
  11         (A1G)--V          0.022299          0.036491
  12         V                 0.039003          0.044763
 Total kinetic energy from orbitals= 3.392566129940D+01
                          Isotropic Fermi Contact Couplings
        Atom                 a.u.       MegaHertz       Gauss      10(-4) cm-1
     1  Ti(47)             0.00000      -0.00000      -0.00000      -0.00000
 --------------------------------------------------------
       Center         ----  Spin Dipole Couplings  ----
                      3XX-RR        3YY-RR        3ZZ-RR
 --------------------------------------------------------
     1   Atom       -0.000000      0.000000      0.000000
 --------------------------------------------------------
                        XY            XZ            YZ
 --------------------------------------------------------
     1   Atom        0.000000      0.000000     -0.000000
 --------------------------------------------------------


 ---------------------------------------------------------------------------------
              Anisotropic Spin Dipole Couplings in Principal Axis System
 ---------------------------------------------------------------------------------

       Atom             a.u.   MegaHertz   Gauss  10(-4) cm-1        Axes

              Baa    -0.0000     0.000     0.000     0.000  0.7808 -0.0156 -0.6246
     1 Ti(47) Bbb     0.0000    -0.000    -0.000    -0.000  0.0213  0.9998  0.0017
              Bcc     0.0000    -0.000    -0.000    -0.000  0.6244 -0.0146  0.7810
 

 ---------------------------------------------------------------------------------

 No NMR shielding tensors so no spin-rotation constants.
 Leave Link  601 at Tue Mar 13 12:44:28 2018, MaxMem= 10737418240 cpu:              82.5 elap:               5.4
 (Enter /home1/apps/gaussian/16rA.03/g16/l9999.exe)
 1\1\GINC-C464-113\SP\ROCCSD(T)-Full\Gen\Ti1(3)\AANNABE\13-Mar-2018\0\\
 #P ROCCSD(T)=(maxcyc=150, Full)/Gen 5d 7f SCF=(maxcycles=300, NoVarAcc
 , VShift=200) MaxDisk=100GB Pop=Regular Pseudo=Read Guess=Read\\Ti\\0,
 3\Ti,0,0.,0.,0.\\Version=ES64L-G16RevA.03\HF=-57.7483808\MP2=-58.17902
 27\MP3=-58.1983178\PUHF=-57.7483808\PMP2-0=-58.1790227\MP4SDQ=-58.1981
 971\CCSD=-58.1985655\CCSD(T)=-58.2147377\RMSD=7.116e-09\PG=OH [O(Ti1)]
 \\@


 ACTORS ARE SO FORTUNATE.  THEY CAN CHOOSE WHETHER
 THEY WILL APPEAR IN A TRAGEDY OR IN COMEDY,
 WHETHER THEY WILL SUFFER OF MAKE MERRY,
 LAUGH OR SHED TEARS.  BUT IN REAL LIFE IT IS DIFFERENT.
 MOST MEN AND WOMEN ARE FORCED TO PERFORM
 PARTS FOR WHICH THEY HAVE NO QUALIFICATIONS.
 THE WORLD IS A STAGE, BUT THE PLAY IS BADLY CAST.

                                   -- OSCAR WILDE
 Job cpu time:       0 days  4 hours 25 minutes  2.4 seconds.
 Elapsed time:       0 days  0 hours 16 minutes 42.2 seconds.
 File lengths (MBytes):  RWF=   9916 Int=      0 D2E=      0 Chk=     14 Scr=      1
 Normal termination of Gaussian 16 at Tue Mar 13 12:44:28 2018.
