 Entering Gaussian System, Link 0=g16
 Initial command:
 /home1/apps/gaussian/16rA.03/g16/l1.exe "/tmp/Gau-162555.inp" -scrdir="/tmp/"
 Entering Link 1 = /home1/apps/gaussian/16rA.03/g16/l1.exe PID=    162556.
  
 Copyright (c) 1988,1990,1992,1993,1995,1998,2003,2009,2016,
            Gaussian, Inc.  All Rights Reserved.
  
 This is part of the Gaussian(R) 16 program.  It is based on
 the Gaussian(R) 09 system (copyright 2009, Gaussian, Inc.),
 the Gaussian(R) 03 system (copyright 2003, Gaussian, Inc.),
 the Gaussian(R) 98 system (copyright 1998, Gaussian, Inc.),
 the Gaussian(R) 94 system (copyright 1995, Gaussian, Inc.),
 the Gaussian 92(TM) system (copyright 1992, Gaussian, Inc.),
 the Gaussian 90(TM) system (copyright 1990, Gaussian, Inc.),
 the Gaussian 88(TM) system (copyright 1988, Gaussian, Inc.),
 the Gaussian 86(TM) system (copyright 1986, Carnegie Mellon
 University), and the Gaussian 82(TM) system (copyright 1983,
 Carnegie Mellon University). Gaussian is a federally registered
 trademark of Gaussian, Inc.
  
 This software contains proprietary and confidential information,
 including trade secrets, belonging to Gaussian, Inc.
  
 This software is provided under written license and may be
 used, copied, transmitted, or stored only in accord with that
 written license.
  
 The following legend is applicable only to US Government
 contracts under FAR:
  
                    RESTRICTED RIGHTS LEGEND
  
 Use, reproduction and disclosure by the US Government is
 subject to restrictions as set forth in subparagraphs (a)
 and (c) of the Commercial Computer Software - Restricted
 Rights clause in FAR 52.227-19.
  
 Gaussian, Inc.
 340 Quinnipiac St., Bldg. 40, Wallingford CT 06492
  
  
 ---------------------------------------------------------------
 Warning -- This program may not be used in any manner that
 competes with the business of Gaussian, Inc. or will provide
 assistance to any competitor of Gaussian, Inc.  The licensee
 of this program is prohibited from giving any competitor of
 Gaussian, Inc. access to this program.  By using this program,
 the user acknowledges that Gaussian, Inc. is engaged in the
 business of creating and licensing software in the field of
 computational chemistry and represents and warrants to the
 licensee that it is not a competitor of Gaussian, Inc. and that
 it will not use this program in any manner prohibited above.
 ---------------------------------------------------------------
  

 Cite this work as:
 Gaussian 16, Revision A.03,
 M. J. Frisch, G. W. Trucks, H. B. Schlegel, G. E. Scuseria, 
 M. A. Robb, J. R. Cheeseman, G. Scalmani, V. Barone, 
 G. A. Petersson, H. Nakatsuji, X. Li, M. Caricato, A. V. Marenich, 
 J. Bloino, B. G. Janesko, R. Gomperts, B. Mennucci, H. P. Hratchian, 
 J. V. Ortiz, A. F. Izmaylov, J. L. Sonnenberg, D. Williams-Young, 
 F. Ding, F. Lipparini, F. Egidi, J. Goings, B. Peng, A. Petrone, 
 T. Henderson, D. Ranasinghe, V. G. Zakrzewski, J. Gao, N. Rega, 
 G. Zheng, W. Liang, M. Hada, M. Ehara, K. Toyota, R. Fukuda, 
 J. Hasegawa, M. Ishida, T. Nakajima, Y. Honda, O. Kitao, H. Nakai, 
 T. Vreven, K. Throssell, J. A. Montgomery, Jr., J. E. Peralta, 
 F. Ogliaro, M. J. Bearpark, J. J. Heyd, E. N. Brothers, K. N. Kudin, 
 V. N. Staroverov, T. A. Keith, R. Kobayashi, J. Normand, 
 K. Raghavachari, A. P. Rendell, J. C. Burant, S. S. Iyengar, 
 J. Tomasi, M. Cossi, J. M. Millam, M. Klene, C. Adamo, R. Cammi, 
 J. W. Ochterski, R. L. Martin, K. Morokuma, O. Farkas, 
 J. B. Foresman, and D. J. Fox, Gaussian, Inc., Wallingford CT, 2016.
 
 ******************************************
 Gaussian 16:  ES64L-G16RevA.03 25-Dec-2016
                21-Apr-2018 
 ******************************************
 %mem=80GB
 %cpu=0-31
 SetSPE:  set environment variable "MP_BIND" = "yes"
 SetSPE:  set environment variable "MP_BLIST" = "0,1,2,3,4,5,6,7,8,9,10,11,12,13,14,15,16,17,18,19,20,21,22,23,24,25,26,27,28,29,30,31"
 Will use up to   32 processors via shared memory.
 %chk=qz.chk
 %rwf=/scratch/04843/gwang18/znh/
 ----------------------------------------------------------------------
 #P ROCCSD(T)=(MaxCyc=150, Full)/Gen SCF=(maxcycle=400, vshift=200) Pse
 udo=Read Integral(NoXCTest) Pop=Regular MaxDisk=500GB Guess=Read IOp(5
 /15=2)
 ----------------------------------------------------------------------
 1/38=1,172=1/1;
 2/12=2,17=6,18=5,40=1/2;
 3/5=7,11=2,16=1,17=8,25=1,30=1,47=8,116=101/1,2,3;
 4/5=1/1;
 5/5=2,7=400,10=200,15=2,38=6/2;
 8/5=-1,6=4,9=120000,10=90/1,4;
 9/5=7,6=150,14=2/13;
 6//1;
 99/5=1,9=1/99;
 Leave Link    1 at Sat Apr 21 10:25:46 2018, MaxMem= 10737418240 cpu:               7.2 elap:               0.2
 (Enter /home1/apps/gaussian/16rA.03/g16/l101.exe)
 ---
 ZnH
 ---
 Symbolic Z-matrix:
 Charge =  0 Multiplicity = 2
 Zn                    0.        0.        0. 
 H                     0.        0.        1.6 
 
 ITRead=  0  0
 MicOpt= -1 -1
 NAtoms=      2 NQM=        2 NQMF=       0 NMMI=      0 NMMIF=      0
                NMic=       0 NMicF=      0.
                    Isotopes and Nuclear Properties:
 (Nuclear quadrupole moments (NQMom) in fm**2, nuclear magnetic moments (NMagM)
  in nuclear magnetons)

  Atom         1           2
 IAtWgt=          64           1
 AtmWgt=  63.9291454   1.0078250
 NucSpn=           0           1
 AtZEff=  -0.0000000  -0.0000000
 NQMom=    0.0000000   0.0000000
 NMagM=    0.0000000   2.7928460
 AtZNuc=  30.0000000   1.0000000
 Leave Link  101 at Sat Apr 21 10:25:46 2018, MaxMem= 10737418240 cpu:               3.0 elap:               0.1
 (Enter /home1/apps/gaussian/16rA.03/g16/l202.exe)
                          Input orientation:                          
 ---------------------------------------------------------------------
 Center     Atomic      Atomic             Coordinates (Angstroms)
 Number     Number       Type             X           Y           Z
 ---------------------------------------------------------------------
      1         30           0        0.000000    0.000000    0.000000
      2          1           0        0.000000    0.000000    1.600000
 ---------------------------------------------------------------------
 Stoichiometry    HZn(2)
 Framework group  C*V[C*(HZn)]
 Deg. of freedom     1
 Full point group                 C*V     NOp   4
 Largest Abelian subgroup         C2V     NOp   4
 Largest concise Abelian subgroup C1      NOp   1
                         Standard orientation:                         
 ---------------------------------------------------------------------
 Center     Atomic      Atomic             Coordinates (Angstroms)
 Number     Number       Type             X           Y           Z
 ---------------------------------------------------------------------
      1         30           0        0.000000    0.000000    0.051613
      2          1           0        0.000000    0.000000   -1.548387
 ---------------------------------------------------------------------
 Rotational constants (GHZ):           0.0000000         198.9689076         198.9689076
 Leave Link  202 at Sat Apr 21 10:25:46 2018, MaxMem= 10737418240 cpu:               0.8 elap:               0.1
 (Enter /home1/apps/gaussian/16rA.03/g16/l301.exe)
 General basis read from cards:  (5D, 7F)
 Centers:       1
 S 1 1.00
     Exponent=  1.7852930000D+07 Coefficients=  1.0000000000D+00
 S 1 1.00
     Exponent=  2.6730380000D+06 Coefficients=  1.0000000000D+00
 S 1 1.00
     Exponent=  6.0832440000D+05 Coefficients=  1.0000000000D+00
 S 1 1.00
     Exponent=  1.7231760000D+05 Coefficients=  1.0000000000D+00
 S 1 1.00
     Exponent=  5.6222690000D+04 Coefficients=  1.0000000000D+00
 S 1 1.00
     Exponent=  2.0299850000D+04 Coefficients=  1.0000000000D+00
 S 1 1.00
     Exponent=  7.9188710000D+03 Coefficients=  1.0000000000D+00
 S 1 1.00
     Exponent=  3.2853400000D+03 Coefficients=  1.0000000000D+00
 S 1 1.00
     Exponent=  1.4335240000D+03 Coefficients=  1.0000000000D+00
 S 1 1.00
     Exponent=  6.5228890000D+02 Coefficients=  1.0000000000D+00
 S 1 1.00
     Exponent=  3.0743600000D+02 Coefficients=  1.0000000000D+00
 S 1 1.00
     Exponent=  1.4914660000D+02 Coefficients=  1.0000000000D+00
 S 1 1.00
     Exponent=  7.3451080000D+01 Coefficients=  1.0000000000D+00
 S 1 1.00
     Exponent=  3.3925620000D+01 Coefficients=  1.0000000000D+00
 S 1 1.00
     Exponent=  1.7189470000D+01 Coefficients=  1.0000000000D+00
 S 1 1.00
     Exponent=  8.6665950000D+00 Coefficients=  1.0000000000D+00
 S 1 1.00
     Exponent=  3.9725050000D+00 Coefficients=  1.0000000000D+00
 S 1 1.00
     Exponent=  1.8946650000D+00 Coefficients=  1.0000000000D+00
 S 1 1.00
     Exponent=  8.5938500000D-01 Coefficients=  1.0000000000D+00
 S 1 1.00
     Exponent=  1.9525600000D-01 Coefficients=  1.0000000000D+00
 S 1 1.00
     Exponent=  8.5854000000D-02 Coefficients=  1.0000000000D+00
 S 1 1.00
     Exponent=  3.6781000000D-02 Coefficients=  1.0000000000D+00
 S 1 1.00
     Exponent=  8.3276000000D+00 Coefficients=  1.0000000000D+00
 S 1 1.00
     Exponent=  3.4194000000D+00 Coefficients=  1.0000000000D+00
 S 1 1.00
     Exponent=  1.5760000000D-02 Coefficients=  1.0000000000D+00
 P 1 1.00
     Exponent=  5.2867930000D+04 Coefficients=  1.0000000000D+00
 P 1 1.00
     Exponent=  1.2511790000D+04 Coefficients=  1.0000000000D+00
 P 1 1.00
     Exponent=  4.0652860000D+03 Coefficients=  1.0000000000D+00
 P 1 1.00
     Exponent=  1.5575950000D+03 Coefficients=  1.0000000000D+00
 P 1 1.00
     Exponent=  6.6328920000D+02 Coefficients=  1.0000000000D+00
 P 1 1.00
     Exponent=  3.0415610000D+02 Coefficients=  1.0000000000D+00
 P 1 1.00
     Exponent=  1.4736800000D+02 Coefficients=  1.0000000000D+00
 P 1 1.00
     Exponent=  7.4454690000D+01 Coefficients=  1.0000000000D+00
 P 1 1.00
     Exponent=  3.8714930000D+01 Coefficients=  1.0000000000D+00
 P 1 1.00
     Exponent=  2.0570220000D+01 Coefficients=  1.0000000000D+00
 P 1 1.00
     Exponent=  1.1054250000D+01 Coefficients=  1.0000000000D+00
 P 1 1.00
     Exponent=  5.8746610000D+00 Coefficients=  1.0000000000D+00
 P 1 1.00
     Exponent=  3.0529360000D+00 Coefficients=  1.0000000000D+00
 P 1 1.00
     Exponent=  1.5472250000D+00 Coefficients=  1.0000000000D+00
 P 1 1.00
     Exponent=  7.5415100000D-01 Coefficients=  1.0000000000D+00
 P 1 1.00
     Exponent=  2.6534900000D-01 Coefficients=  1.0000000000D+00
 P 1 1.00
     Exponent=  1.0206700000D-01 Coefficients=  1.0000000000D+00
 P 1 1.00
     Exponent=  3.8755000000D-02 Coefficients=  1.0000000000D+00
 P 1 1.00
     Exponent=  1.2535700000D+01 Coefficients=  1.0000000000D+00
 P 1 1.00
     Exponent=  3.4227000000D+00 Coefficients=  1.0000000000D+00
 P 1 1.00
     Exponent=  1.4720000000D-02 Coefficients=  1.0000000000D+00
 D 1 1.00
     Exponent=  6.3978060000D+02 Coefficients=  1.0000000000D+00
 D 1 1.00
     Exponent=  1.9267420000D+02 Coefficients=  1.0000000000D+00
 D 1 1.00
     Exponent=  7.4843680000D+01 Coefficients=  1.0000000000D+00
 D 1 1.00
     Exponent=  3.2860480000D+01 Coefficients=  1.0000000000D+00
 D 1 1.00
     Exponent=  1.5393530000D+01 Coefficients=  1.0000000000D+00
 D 1 1.00
     Exponent=  7.5255120000D+00 Coefficients=  1.0000000000D+00
 D 1 1.00
     Exponent=  3.7154290000D+00 Coefficients=  1.0000000000D+00
 D 1 1.00
     Exponent=  1.8064590000D+00 Coefficients=  1.0000000000D+00
 D 1 1.00
     Exponent=  8.5297300000D-01 Coefficients=  1.0000000000D+00
 D 1 1.00
     Exponent=  3.8478000000D-01 Coefficients=  1.0000000000D+00
 D 1 1.00
     Exponent=  1.5933700000D-01 Coefficients=  1.0000000000D+00
 D 1 1.00
     Exponent=  9.2094000000D+00 Coefficients=  1.0000000000D+00
 D 1 1.00
     Exponent=  5.2262000000D+00 Coefficients=  1.0000000000D+00
 D 1 1.00
     Exponent=  6.5980000000D-02 Coefficients=  1.0000000000D+00
 F 1 1.00
     Exponent=  1.3235500000D+01 Coefficients=  1.0000000000D+00
 F 1 1.00
     Exponent=  5.6706000000D+00 Coefficients=  1.0000000000D+00
 F 1 1.00
     Exponent=  2.4295000000D+00 Coefficients=  1.0000000000D+00
 F 1 1.00
     Exponent=  8.5300000000D-01 Coefficients=  1.0000000000D+00
 F 1 1.00
     Exponent=  2.9949000000D-01 Coefficients=  1.0000000000D+00
 G 1 1.00
     Exponent=  1.0790200000D+01 Coefficients=  1.0000000000D+00
 G 1 1.00
     Exponent=  4.9368000000D+00 Coefficients=  1.0000000000D+00
 G 1 1.00
     Exponent=  2.0693000000D+00 Coefficients=  1.0000000000D+00
 G 1 1.00
     Exponent=  8.6736000000D-01 Coefficients=  1.0000000000D+00
 H 1 1.00
     Exponent=  9.6086000000D+00 Coefficients=  1.0000000000D+00
 H 1 1.00
     Exponent=  4.4136000000D+00 Coefficients=  1.0000000000D+00
 H 1 1.00
     Exponent=  2.0273400000D+00 Coefficients=  1.0000000000D+00
 ****
 Centers:       2
 S 1 1.00
     Exponent=  8.2640000000D+01 Coefficients=  1.0000000000D+00
 S 1 1.00
     Exponent=  1.2410000000D+01 Coefficients=  1.0000000000D+00
 S 1 1.00
     Exponent=  2.8240000000D+00 Coefficients=  1.0000000000D+00
 S 1 1.00
     Exponent=  7.9770000000D-01 Coefficients=  1.0000000000D+00
 S 1 1.00
     Exponent=  2.5810000000D-01 Coefficients=  1.0000000000D+00
 S 1 1.00
     Exponent=  8.9890000000D-02 Coefficients=  1.0000000000D+00
 S 1 1.00
     Exponent=  2.3630000000D-02 Coefficients=  1.0000000000D+00
 P 1 1.00
     Exponent=  2.2920000000D+00 Coefficients=  1.0000000000D+00
 P 1 1.00
     Exponent=  8.3800000000D-01 Coefficients=  1.0000000000D+00
 P 1 1.00
     Exponent=  2.9200000000D-01 Coefficients=  1.0000000000D+00
 P 1 1.00
     Exponent=  8.4800000000D-02 Coefficients=  1.0000000000D+00
 D 1 1.00
     Exponent=  2.0620000000D+00 Coefficients=  1.0000000000D+00
 D 1 1.00
     Exponent=  6.6200000000D-01 Coefficients=  1.0000000000D+00
 D 1 1.00
     Exponent=  1.9000000000D-01 Coefficients=  1.0000000000D+00
 F 1 1.00
     Exponent=  1.3970000000D+00 Coefficients=  1.0000000000D+00
 F 1 1.00
     Exponent=  3.6000000000D-01 Coefficients=  1.0000000000D+00
 ****
 ======================================================================================================
                                       Pseudopotential Parameters
 ======================================================================================================
  Center     Atomic      Valence      Angular      Power
  Number     Number     Electrons     Momentum     of R      Exponent        Coefficient   SO-Coeffient
 ======================================================================================================
    1         30           20
                                      D and up 
                                                     1       35.8777152       20.00000000    0.00000000
                                                     3       34.1078424      717.55430465    0.00000000
                                                     2       28.7174520     -203.49912625    0.00000000
                                                     2        8.3955088       -0.04450117    0.00000000
                                      S - D
                                                     2       14.4978289       95.23904949    0.00000000
                                                     2       35.1597610      430.48072035    0.00000000
                                      P - D
                                                     2       14.7119819       73.77695398    0.00000000
                                                     2       41.6286707      312.12270272    0.00000000
    2          1            1
                                      P and up 
                                                     2       21.7769666      -10.85192405    0.00000000
                                                     1       21.2435951        1.00000000    0.00000000
                                                     3       21.2435951       21.24359508    0.00000000
                                      S - P
                                                     2        1.0000000        0.00000000    0.00000000
 ======================================================================================================
 Ernie: Thresh=  0.10000D-02 Tol=  0.10000D-05 Strict=F.
 There are   171 symmetry adapted cartesian basis functions of A1  symmetry.
 There are    45 symmetry adapted cartesian basis functions of A2  symmetry.
 There are    93 symmetry adapted cartesian basis functions of B1  symmetry.
 There are    93 symmetry adapted cartesian basis functions of B2  symmetry.
 There are   126 symmetry adapted basis functions of A1  symmetry.
 There are    38 symmetry adapted basis functions of A2  symmetry.
 There are    73 symmetry adapted basis functions of B1  symmetry.
 There are    73 symmetry adapted basis functions of B2  symmetry.
   310 basis functions,   402 primitive gaussians,   402 cartesian basis functions
    11 alpha electrons       10 beta electrons
       nuclear repulsion energy         6.6147151365 Hartrees.
 IExCor=    0 DFT=F Ex=HF Corr=None ExCW=0 ScaHFX=  1.000000
 ScaDFX=  1.000000  1.000000  1.000000  1.000000 ScalE2=  1.000000  1.000000
 IRadAn=      5 IRanWt=     -1 IRanGd=            0 ICorTp=0 IEmpDi=  4
 NAtoms=    2 NActive=    2 NUniq=    2 SFac= 1.00D+00 NAtFMM=   60 NAOKFM=F Big=F
 Integral buffers will be    131072 words long.
 Raffenetti 2 integral format.
 Two-electron integral symmetry is turned on.
 Leave Link  301 at Sat Apr 21 10:25:46 2018, MaxMem= 10737418240 cpu:               8.2 elap:               0.3
 (Enter /home1/apps/gaussian/16rA.03/g16/l302.exe)
 NPDir=0 NMtPBC=     1 NCelOv=     1 NCel=       1 NClECP=     1 NCelD=      1
         NCelK=      1 NCelE2=     1 NClLst=     1 CellRange=     0.0.
 One-electron integrals computed using PRISM.
 One-electron integral symmetry used in STVInt
   4 Symmetry operations used in ECPInt.
 ECPInt:  NShTT=    3916 NPrTT=    3916 LenC2=    3856 LenP2D=    3855.
 LDataN:  DoStor=T MaxTD1=10 Len=  848
 NBasis=   310 RedAO= T EigKep=  6.31D-06  NBF=   126    38    73    73
 NBsUse=   306 1.00D-06 EigRej=  9.75D-07 NBFU=   124    38    72    72
 Leave Link  302 at Sat Apr 21 10:25:49 2018, MaxMem= 10737418240 cpu:              75.2 elap:               2.4
 (Enter /home1/apps/gaussian/16rA.03/g16/l303.exe)
 DipDrv:  MaxL=1.
 Leave Link  303 at Sat Apr 21 10:25:49 2018, MaxMem= 10737418240 cpu:               3.0 elap:               0.2
 (Enter /home1/apps/gaussian/16rA.03/g16/l401.exe)
 Initial guess from the checkpoint file:  "qz.chk"
 B after Tr=     0.000000    0.000000    0.000000
         Rot=    1.000000    0.000000    0.000000    0.000000 Ang=   0.00 deg.
 Guess basis will be translated and rotated to current coordinates.
 JPrj=2 DoOrth=T DoCkMO=T.
 Initial guess orbital symmetries:
       Occupied  (SG) (PI) (PI) (SG) (DLTA) (DLTA) (SG) (PI) (PI)
                 (SG) (SG)
       Virtual   (PI) (PI) (SG) (SG) (PI) (PI) (SG) (SG) (SG) (PI)
                 (PI) (DLTA) (DLTA) (SG) (PI) (PI) (SG) (PI) (PI)
                 (SG) (SG) (SG) (DLTA) (DLTA) (PI) (PI) (DLTA)
                 (DLTA) (SG) (PI) (PI) (PI) (PI) (SG) (PI) (PI)
                 (SG) (SG) (PHI) (PHI) (DLTA) (DLTA) (PI) (PI)
                 (SG) (SG) (SG) (DLTA) (DLTA) (PI) (PI) (SG) (PI)
                 (PI) (SG) (DLTA) (DLTA) (PI) (PI) (PI) (PI) (SG)
                 (SG) (PHI) (PHI) (DLTA) (DLTA) (PI) (PI) (SG)
                 (DLTA) (DLTA) (PI) (PI) (SG) (?A) (?A) (PHI) (PHI)
                 (DLTA) (DLTA) (PI) (PI) (SG) (SG) (PI) (PI) (SG)
                 (SG) (PHI) (PHI) (DLTA) (DLTA) (PI) (PI) (SG)
                 (DLTA) (DLTA) (PI) (PI) (SG) (PI) (PI) (SG) (SG)
                 (?A) (?A) (PHI) (PHI) (DLTA) (DLTA) (PI) (PI)
                 (SG) (DLTA) (DLTA) (PI) (PI) (SG) (PHI) (PHI)
                 (DLTA) (DLTA) (PI) (PI) (SG) (PI) (PI) (SG) (SG)
                 (?A) (?A) (PHI) (PHI) (DLTA) (DLTA) (PI) (PI)
                 (SG) (DLTA) (DLTA) (PI) (PI) (SG) (SG) (PI) (PI)
                 (SG) (SG) (DLTA) (DLTA) (PI) (PI) (SG) (PI) (PI)
                 (SG) (SG) (PI) (PI) (SG) (DLTA) (DLTA) (PI) (PI)
                 (SG) (SG) (PI) (PI) (SG) (SG) (DLTA) (DLTA) (PI)
                 (PI) (SG) (PI) (PI) (SG) (SG) (PI) (PI) (SG) (SG)
                 (PI) (PI) (SG) (SG) (PI) (PI) (SG) (SG) (PI) (PI)
                 (SG) (SG) (SG) (PI) (PI) (SG) (SG) (SG) (SG) (SG)
                 (DLTA) (SG) (SG) (SG) (SG) (DLTA) (SG) (SG) (DLTA)
                 (SG) (DLTA) (?A) (SG) (SG) (SG) (DLTA) (?A) (SG)
                 (DLTA) (SG) (DLTA) (DLTA) (SG) (SG) (DLTA) (DLTA)
                 (SG) (?A) (DLTA) (?A) (DLTA) (DLTA) (DLTA) (DLTA)
                 (?A) (DLTA) (?A) (DLTA) (DLTA) (DLTA) (DLTA) (DLTA)
                 (?A) (DLTA) (?A) (PI) (PI) (PI) (PI) (PHI) (PI)
                 (PI) (PHI) (PI) (PI) (PHI) (?B) (PI) (PI) (PHI)
                 (PHI) (PI) (PI) (?B) (PHI) (PI) (?B) (PHI) (PI)
                 (PI) (PI) (PI) (PHI) (PI) (PI) (PHI) (PI) (PI)
                 (PHI) (?B) (PI) (PI) (PHI) (PHI) (PI) (PI) (?B)
                 (PHI) (PI) (?B) (PHI)
 The electronic state of the initial guess is 2-SG.
 Leave Link  401 at Sat Apr 21 10:25:50 2018, MaxMem= 10737418240 cpu:              16.8 elap:               0.6
 (Enter /home1/apps/gaussian/16rA.03/g16/l502.exe)
 Keep R1 and R2 ints in memory in symmetry-blocked form, NReq=1456552531.
 FoFCou: FMM=F IPFlag=           8 FMFlag=           0 FMFlg1=           0
         NFxFlg=           0 DoJE=F BraDBF=F KetDBF=F FulRan=T
         wScrn=  0.000000 ICntrl=       600 IOpCl=  0 I1Cent=           0 NGrid=           0
         NMat0=    1 NMatS0=  48205 NMatT0=    0 NMatD0=    1 NMtDS0=    0 NMtDT0=    0
 Petite list used in FoFCou.
 Restricted open shell SCF:
 Using DIIS extrapolation, IDIIS=  1040.
 NGot= 10737418240 LenX= 10147857266 LenY= 10147695221
 Requested convergence on RMS density matrix=1.00D-08 within 400 cycles.
 Requested convergence on MAX density matrix=1.00D-06.
 Requested convergence on             energy=1.00D-06.
 Virtual orbitals will be shifted by   0.200 hartree.
 No special actions if energy rises.

 Cycle   1  Pass 1  IDiag  1:
 E= -226.152339297919    
 DIIS: error= 2.96D-01 at cycle   1 NSaved=   1.
 NSaved= 1 IEnMin= 1 EnMin= -226.152339297919     IErMin= 1 ErrMin= 2.96D-01
 ErrMax= 2.96D-01  0.00D+00 EMaxC= 1.00D-01 BMatC= 2.20D+01 BMatP= 2.20D+01
 IDIUse=3 WtCom= 0.00D+00 WtEn= 1.00D+00
 Coeff-Com:  0.100D+01
 Coeff-En:   0.100D+01
 Coeff:      0.100D+01
 Gap=     0.101 Goal=   None    Shift=    0.200
 GapD=    0.101 DampG=1.000 DampE=0.125 DampFc=0.1250 IDamp=-1.
 Damping current iteration by 1.25D-01
 RMSDP=6.61D-04 MaxDP=4.52D-02              OVMax= 1.61D-03

 Cycle   2  Pass 1  IDiag  1:
 E= -226.152388496838     Delta-E=       -0.000049198918 Rises=F Damp=T
 DIIS: error= 2.59D-01 at cycle   2 NSaved=   2.
 NSaved= 2 IEnMin= 2 EnMin= -226.152388496838     IErMin= 2 ErrMin= 2.59D-01
 ErrMax= 2.59D-01  0.00D+00 EMaxC= 1.00D-01 BMatC= 1.68D+01 BMatP= 2.20D+01
 IDIUse=3 WtCom= 0.00D+00 WtEn= 1.00D+00
 Coeff-Com: -0.700D+01 0.800D+01
 Coeff-En:   0.000D+00 0.100D+01
 Coeff:      0.000D+00 0.100D+01
 Gap=     0.099 Goal=   None    Shift=    0.200
 RMSDP=5.82D-04 MaxDP=3.96D-02 DE=-4.92D-05 OVMax= 1.91D-04

 Cycle   3  Pass 1  IDiag  1:
 E= -226.152741524386     Delta-E=       -0.000353027548 Rises=F Damp=F
 DIIS: error= 1.03D-04 at cycle   3 NSaved=   3.
 NSaved= 3 IEnMin= 3 EnMin= -226.152741524386     IErMin= 3 ErrMin= 1.03D-04
 ErrMax= 1.03D-04  0.00D+00 EMaxC= 1.00D-01 BMatC= 1.47D-06 BMatP= 1.68D+01
 IDIUse=3 WtCom= 9.99D-01 WtEn= 1.03D-03
 Coeff-Com:  0.501D+00-0.573D+00 0.107D+01
 Coeff-En:   0.000D+00 0.000D+00 0.100D+01
 Coeff:      0.500D+00-0.572D+00 0.107D+01
 Gap=     0.099 Goal=   None    Shift=    0.200
 RMSDP=3.11D-05 MaxDP=4.82D-03 DE=-3.53D-04 OVMax= 3.61D-04

 Cycle   4  Pass 1  IDiag  1:
 E= -226.152742453011     Delta-E=       -0.000000928625 Rises=F Damp=F
 DIIS: error= 1.64D-05 at cycle   4 NSaved=   4.
 NSaved= 4 IEnMin= 4 EnMin= -226.152742453011     IErMin= 4 ErrMin= 1.64D-05
 ErrMax= 1.64D-05  0.00D+00 EMaxC= 1.00D-01 BMatC= 4.35D-08 BMatP= 1.47D-06
 IDIUse=1 WtCom= 1.00D+00 WtEn= 0.00D+00
 Coeff-Com:  0.481D+00-0.550D+00-0.154D-01 0.108D+01
 Coeff:      0.481D+00-0.550D+00-0.154D-01 0.108D+01
 Gap=     0.099 Goal=   None    Shift=    0.200
 RMSDP=3.88D-06 MaxDP=5.03D-04 DE=-9.29D-07 OVMax= 7.41D-05

 Cycle   5  Pass 1  IDiag  1:
 E= -226.152742488834     Delta-E=       -0.000000035823 Rises=F Damp=F
 DIIS: error= 1.53D-05 at cycle   5 NSaved=   5.
 NSaved= 5 IEnMin= 5 EnMin= -226.152742488834     IErMin= 5 ErrMin= 1.53D-05
 ErrMax= 1.53D-05  0.00D+00 EMaxC= 1.00D-01 BMatC= 1.79D-08 BMatP= 4.35D-08
 IDIUse=1 WtCom= 1.00D+00 WtEn= 0.00D+00
 Coeff-Com:  0.425D+00-0.486D+00 0.100D+00-0.184D+00 0.114D+01
 Coeff:      0.425D+00-0.486D+00 0.100D+00-0.184D+00 0.114D+01
 Gap=     0.099 Goal=   None    Shift=    0.200
 RMSDP=8.50D-07 MaxDP=1.40D-04 DE=-3.58D-08 OVMax= 2.51D-05

 Cycle   6  Pass 1  IDiag  1:
 E= -226.152742492220     Delta-E=       -0.000000003387 Rises=F Damp=F
 DIIS: error= 1.42D-05 at cycle   6 NSaved=   6.
 NSaved= 6 IEnMin= 6 EnMin= -226.152742492220     IErMin= 6 ErrMin= 1.42D-05
 ErrMax= 1.42D-05  0.00D+00 EMaxC= 1.00D-01 BMatC= 1.49D-08 BMatP= 1.79D-08
 IDIUse=1 WtCom= 1.00D+00 WtEn= 0.00D+00
 Coeff-Com:  0.387D+00-0.442D+00 0.802D-01 0.650D-01-0.242D+00 0.115D+01
 Coeff:      0.387D+00-0.442D+00 0.802D-01 0.650D-01-0.242D+00 0.115D+01
 Gap=     0.099 Goal=   None    Shift=    0.200
 RMSDP=9.60D-07 MaxDP=1.82D-04 DE=-3.39D-09 OVMax= 1.83D-05

 Cycle   7  Pass 1  IDiag  1:
 E= -226.152742495031     Delta-E=       -0.000000002810 Rises=F Damp=F
 DIIS: error= 1.30D-05 at cycle   7 NSaved=   7.
 NSaved= 7 IEnMin= 7 EnMin= -226.152742495031     IErMin= 7 ErrMin= 1.30D-05
 ErrMax= 1.30D-05  0.00D+00 EMaxC= 1.00D-01 BMatC= 1.27D-08 BMatP= 1.49D-08
 IDIUse=1 WtCom= 1.00D+00 WtEn= 0.00D+00
 Coeff-Com:  0.350D+00-0.400D+00 0.658D-01 0.165D+00-0.575D+00 0.428D+00
 Coeff-Com:  0.966D+00
 Coeff:      0.350D+00-0.400D+00 0.658D-01 0.165D+00-0.575D+00 0.428D+00
 Coeff:      0.966D+00
 Gap=     0.099 Goal=   None    Shift=    0.200
 RMSDP=1.02D-06 MaxDP=1.88D-04 DE=-2.81D-09 OVMax= 1.81D-05

 Cycle   8  Pass 1  IDiag  1:
 E= -226.152742497931     Delta-E=       -0.000000002901 Rises=F Damp=F
 DIIS: error= 1.18D-05 at cycle   8 NSaved=   8.
 NSaved= 8 IEnMin= 8 EnMin= -226.152742497931     IErMin= 8 ErrMin= 1.18D-05
 ErrMax= 1.18D-05  0.00D+00 EMaxC= 1.00D-01 BMatC= 1.04D-08 BMatP= 1.27D-08
 IDIUse=1 WtCom= 1.00D+00 WtEn= 0.00D+00
 Coeff-Com:  0.272D+00-0.311D+00 0.533D-01 0.591D-01 0.120D+00-0.942D+00
 Coeff-Com: -0.464D+00 0.221D+01
 Coeff:      0.272D+00-0.311D+00 0.533D-01 0.591D-01 0.120D+00-0.942D+00
 Coeff:     -0.464D+00 0.221D+01
 Gap=     0.099 Goal=   None    Shift=    0.200
 RMSDP=1.91D-06 MaxDP=3.54D-04 DE=-2.90D-09 OVMax= 2.96D-05

 Cycle   9  Pass 1  IDiag  1:
 E= -226.152742502428     Delta-E=       -0.000000004496 Rises=F Damp=F
 DIIS: error= 9.48D-06 at cycle   9 NSaved=   9.
 NSaved= 9 IEnMin= 9 EnMin= -226.152742502428     IErMin= 9 ErrMin= 9.48D-06
 ErrMax= 9.48D-06  0.00D+00 EMaxC= 1.00D-01 BMatC= 6.84D-09 BMatP= 1.04D-08
 IDIUse=1 WtCom= 1.00D+00 WtEn= 0.00D+00
 Coeff-Com:  0.186D+00-0.212D+00 0.372D-01 0.108D-01 0.255D+00-0.606D+00
 Coeff-Com: -0.582D+00 0.113D+00 0.180D+01
 Coeff:      0.186D+00-0.212D+00 0.372D-01 0.108D-01 0.255D+00-0.606D+00
 Coeff:     -0.582D+00 0.113D+00 0.180D+01
 Gap=     0.099 Goal=   None    Shift=    0.200
 RMSDP=2.32D-06 MaxDP=4.28D-04 DE=-4.50D-09 OVMax= 3.78D-05

 Cycle  10  Pass 1  IDiag  1:
 E= -226.152742506917     Delta-E=       -0.000000004490 Rises=F Damp=F
 DIIS: error= 6.74D-06 at cycle  10 NSaved=  10.
 NSaved=10 IEnMin=10 EnMin= -226.152742506917     IErMin=10 ErrMin= 6.74D-06
 ErrMax= 6.74D-06  0.00D+00 EMaxC= 1.00D-01 BMatC= 3.55D-09 BMatP= 6.84D-09
 IDIUse=1 WtCom= 1.00D+00 WtEn= 0.00D+00
 Coeff-Com:  0.836D-01-0.956D-01 0.141D-01 0.576D-01-0.196D+00 0.423D-01
 Coeff-Com:  0.361D+00 0.151D+01-0.471D+01 0.393D+01
 Coeff:      0.836D-01-0.956D-01 0.141D-01 0.576D-01-0.196D+00 0.423D-01
 Coeff:      0.361D+00 0.151D+01-0.471D+01 0.393D+01
 Gap=     0.099 Goal=   None    Shift=    0.200
 RMSDP=2.77D-06 MaxDP=5.09D-04 DE=-4.49D-09 OVMax= 4.45D-05

 Cycle  11  Pass 1  IDiag  1:
 E= -226.152742510485     Delta-E=       -0.000000003567 Rises=F Damp=F
 DIIS: error= 3.48D-06 at cycle  11 NSaved=  11.
 NSaved=11 IEnMin=11 EnMin= -226.152742510485     IErMin=11 ErrMin= 3.48D-06
 ErrMax= 3.48D-06  0.00D+00 EMaxC= 1.00D-01 BMatC= 1.05D-09 BMatP= 3.55D-09
 IDIUse=1 WtCom= 1.00D+00 WtEn= 0.00D+00
 Coeff-Com:  0.548D-01-0.626D-01 0.930D-02 0.175D-01 0.735D-01-0.538D+00
 Coeff-Com:  0.358D-02 0.212D+01-0.222D+01-0.440D+00 0.198D+01
 Coeff:      0.548D-01-0.626D-01 0.930D-02 0.175D-01 0.735D-01-0.538D+00
 Coeff:      0.358D-02 0.212D+01-0.222D+01-0.440D+00 0.198D+01
 Gap=     0.099 Goal=   None    Shift=    0.200
 RMSDP=1.30D-06 MaxDP=2.30D-04 DE=-3.57D-09 OVMax= 2.66D-05

 Cycle  12  Pass 1  IDiag  1:
 E= -226.152742511652     Delta-E=       -0.000000001167 Rises=F Damp=F
 DIIS: error= 2.14D-06 at cycle  12 NSaved=  12.
 NSaved=12 IEnMin=12 EnMin= -226.152742511652     IErMin=12 ErrMin= 2.14D-06
 ErrMax= 2.14D-06  0.00D+00 EMaxC= 1.00D-01 BMatC= 3.99D-10 BMatP= 1.05D-09
 IDIUse=1 WtCom= 1.00D+00 WtEn= 0.00D+00
 Coeff-Com: -0.291D-02 0.332D-02-0.401D-03 0.154D-02-0.329D-01 0.549D-01
 Coeff-Com:  0.392D-01-0.195D+00-0.828D+00 0.179D+01-0.238D+01 0.255D+01
 Coeff:     -0.291D-02 0.332D-02-0.401D-03 0.154D-02-0.329D-01 0.549D-01
 Coeff:      0.392D-01-0.195D+00-0.828D+00 0.179D+01-0.238D+01 0.255D+01
 Gap=     0.099 Goal=   None    Shift=    0.200
 RMSDP=1.55D-06 MaxDP=2.85D-04 DE=-1.17D-09 OVMax= 2.54D-05

 Cycle  13  Pass 1  IDiag  1:
 E= -226.152742512253     Delta-E=       -0.000000000601 Rises=F Damp=F
 DIIS: error= 5.17D-07 at cycle  13 NSaved=  13.
 NSaved=13 IEnMin=13 EnMin= -226.152742512253     IErMin=13 ErrMin= 5.17D-07
 ErrMax= 5.17D-07  0.00D+00 EMaxC= 1.00D-01 BMatC= 3.69D-11 BMatP= 3.99D-10
 IDIUse=1 WtCom= 1.00D+00 WtEn= 0.00D+00
 Coeff-Com: -0.213D-02 0.244D-02-0.392D-03 0.473D-02-0.532D-01 0.115D+00
 Coeff-Com:  0.411D-01-0.266D+00-0.573D+00 0.168D+01-0.248D+01 0.194D+01
 Coeff-Com:  0.585D+00
 Coeff:     -0.213D-02 0.244D-02-0.392D-03 0.473D-02-0.532D-01 0.115D+00
 Coeff:      0.411D-01-0.266D+00-0.573D+00 0.168D+01-0.248D+01 0.194D+01
 Coeff:      0.585D+00
 Gap=     0.099 Goal=   None    Shift=    0.200
 RMSDP=3.69D-07 MaxDP=6.00D-05 DE=-6.01D-10 OVMax= 1.05D-05

 Cycle  14  Pass 1  IDiag  1:
 E= -226.152742512341     Delta-E=       -0.000000000088 Rises=F Damp=F
 DIIS: error= 2.17D-07 at cycle  14 NSaved=  14.
 NSaved=14 IEnMin=14 EnMin= -226.152742512341     IErMin=14 ErrMin= 2.17D-07
 ErrMax= 2.17D-07  0.00D+00 EMaxC= 1.00D-01 BMatC= 6.56D-12 BMatP= 3.69D-11
 IDIUse=1 WtCom= 1.00D+00 WtEn= 0.00D+00
 Coeff-Com: -0.173D-03 0.198D-03 0.123D-03 0.106D-02-0.211D-01 0.422D-01
 Coeff-Com:  0.542D-02-0.330D-01-0.455D+00 0.810D+00-0.735D+00 0.768D+00
 Coeff-Com: -0.838D+00 0.146D+01
 Coeff:     -0.173D-03 0.198D-03 0.123D-03 0.106D-02-0.211D-01 0.422D-01
 Coeff:      0.542D-02-0.330D-01-0.455D+00 0.810D+00-0.735D+00 0.768D+00
 Coeff:     -0.838D+00 0.146D+01
 Gap=     0.099 Goal=   None    Shift=    0.200
 RMSDP=8.53D-08 MaxDP=9.33D-06 DE=-8.82D-11 OVMax= 4.84D-06

 Cycle  15  Pass 1  IDiag  1:
 E= -226.152742512359     Delta-E=       -0.000000000018 Rises=F Damp=F
 DIIS: error= 1.00D-07 at cycle  15 NSaved=  15.
 NSaved=15 IEnMin=15 EnMin= -226.152742512359     IErMin=15 ErrMin= 1.00D-07
 ErrMax= 1.00D-07  0.00D+00 EMaxC= 1.00D-01 BMatC= 1.41D-12 BMatP= 6.56D-12
 IDIUse=1 WtCom= 1.00D+00 WtEn= 0.00D+00
 Coeff-Com: -0.423D-03 0.484D-03-0.167D-03 0.219D-02-0.150D-01 0.200D-01
 Coeff-Com:  0.445D-01-0.871D-01-0.395D-01 0.946D-01-0.457D-01 0.839D-01
 Coeff-Com:  0.277D+00-0.170D+01 0.237D+01
 Coeff:     -0.423D-03 0.484D-03-0.167D-03 0.219D-02-0.150D-01 0.200D-01
 Coeff:      0.445D-01-0.871D-01-0.395D-01 0.946D-01-0.457D-01 0.839D-01
 Coeff:      0.277D+00-0.170D+01 0.237D+01
 Gap=     0.099 Goal=   None    Shift=    0.200
 RMSDP=4.31D-08 MaxDP=4.74D-06 DE=-1.82D-11 OVMax= 2.13D-06

 Cycle  16  Pass 1  IDiag  1:
 E= -226.152742512363     Delta-E=       -0.000000000004 Rises=F Damp=F
 DIIS: error= 5.08D-08 at cycle  16 NSaved=  16.
 NSaved=16 IEnMin=16 EnMin= -226.152742512363     IErMin=16 ErrMin= 5.08D-08
 ErrMax= 5.08D-08  0.00D+00 EMaxC= 1.00D-01 BMatC= 3.84D-13 BMatP= 1.41D-12
 IDIUse=1 WtCom= 1.00D+00 WtEn= 0.00D+00
 Large coefficients: NSaved= 16 BigCof=    0.00 CofMax=   10.00 Det=-4.71D-15
 Inversion failed.  Reducing to 15 matrices.
 Coeff-Com:  0.394D-10-0.145D-04 0.591D-03-0.408D-02 0.165D-03 0.204D-01
 Coeff-Com: -0.274D-01-0.841D-01 0.178D+00-0.277D+00 0.286D+00 0.304D+00
 Coeff-Com: -0.865D+00-0.120D+00 0.159D+01
 Coeff:      0.394D-10-0.145D-04 0.591D-03-0.408D-02 0.165D-03 0.204D-01
 Coeff:     -0.274D-01-0.841D-01 0.178D+00-0.277D+00 0.286D+00 0.304D+00
 Coeff:     -0.865D+00-0.120D+00 0.159D+01
 Gap=     0.099 Goal=   None    Shift=    0.200
 RMSDP=1.28D-08 MaxDP=1.56D-06 DE=-3.67D-12 OVMax= 1.06D-06

 Cycle  17  Pass 1  IDiag  1:
 E= -226.152742512364     Delta-E=       -0.000000000001 Rises=F Damp=F
 DIIS: error= 2.65D-08 at cycle  17 NSaved=  16.
 NSaved=16 IEnMin=16 EnMin= -226.152742512364     IErMin=16 ErrMin= 2.65D-08
 ErrMax= 2.65D-08  0.00D+00 EMaxC= 1.00D-01 BMatC= 1.21D-13 BMatP= 3.84D-13
 IDIUse=1 WtCom= 1.00D+00 WtEn= 0.00D+00
 Large coefficients: NSaved= 16 BigCof=    0.00 CofMax=   10.00 Det=-6.48D-16
 Inversion failed.  Reducing to 15 matrices.
 Coeff-Com: -0.285D-04 0.109D-02-0.907D-02 0.204D-01 0.138D-01-0.445D-01
 Coeff-Com: -0.556D-01 0.143D+00-0.163D+00 0.126D+00 0.127D+00-0.246D+00
 Coeff-Com:  0.255D+00-0.151D+01 0.234D+01
 Coeff:     -0.285D-04 0.109D-02-0.907D-02 0.204D-01 0.138D-01-0.445D-01
 Coeff:     -0.556D-01 0.143D+00-0.163D+00 0.126D+00 0.127D+00-0.246D+00
 Coeff:      0.255D+00-0.151D+01 0.234D+01
 Gap=     0.099 Goal=   None    Shift=    0.200
 RMSDP=7.91D-09 MaxDP=1.03D-06 DE=-1.25D-12 OVMax= 5.88D-07

 Cycle  18  Pass 1  IDiag  1:
 E= -226.152742512364     Delta-E=       -0.000000000000 Rises=F Damp=F
 DIIS: error= 1.42D-08 at cycle  18 NSaved=  16.
 NSaved=16 IEnMin=16 EnMin= -226.152742512364     IErMin=16 ErrMin= 1.42D-08
 ErrMax= 1.42D-08  0.00D+00 EMaxC= 1.00D-01 BMatC= 4.08D-14 BMatP= 1.21D-13
 IDIUse=1 WtCom= 1.00D+00 WtEn= 0.00D+00
 Large coefficients: NSaved= 16 BigCof=    0.00 CofMax=   10.00 Det=-1.04D-16
 Inversion failed.  Reducing to 15 matrices.
 Coeff-Com:  0.402D-03-0.398D-02 0.942D-02 0.621D-02-0.232D-01-0.280D-01
 Coeff-Com:  0.695D-01-0.585D-01 0.526D-01 0.188D-01-0.811D-01 0.483D-01
 Coeff-Com: -0.588D-02-0.117D+01 0.217D+01
 Coeff:      0.402D-03-0.398D-02 0.942D-02 0.621D-02-0.232D-01-0.280D-01
 Coeff:      0.695D-01-0.585D-01 0.526D-01 0.188D-01-0.811D-01 0.483D-01
 Coeff:     -0.588D-02-0.117D+01 0.217D+01
 Gap=     0.099 Goal=   None    Shift=    0.200
 RMSDP=3.92D-09 MaxDP=4.89D-07 DE=-8.53D-14 OVMax= 3.48D-07

 SCF Done:  E(ROHF) =  -226.152742512     A.U. after   18 cycles
            NFock= 18  Conv=0.39D-08     -V/T= 2.5049
 <Sx>= 0.0000 <Sy>= 0.0000 <Sz>= 0.5000 <S**2>= 0.7500 S= 0.5000
 <L.S>=  0.00000000000    
 KE= 1.502774592075D+02 PE=-5.709794347719D+02 EE= 1.879345179156D+02
 Annihilation of the first spin contaminant:
 S**2 before annihilation     0.7500,   after     0.7500
 Leave Link  502 at Sat Apr 21 10:26:36 2018, MaxMem= 10737418240 cpu:            1262.6 elap:              46.1
 (Enter /home1/apps/gaussian/16rA.03/g16/l801.exe)
 Windowed orbitals will be sorted by symmetry type.
 GenMOA:  NOpAll=  4 NOp2=4 NOpUse=  4 JSym2X=1
 FoFJK:  IHMeth= 1 ICntrl=       0 DoSepK=F KAlg= 0 I1Cent=           0 FoldK=F
 IRaf=         0 NMat=       1 IRICut=       1 DoRegI=T DoRafI=F ISym2E= 1 IDoP0=0 IntGTp=1.
 FoFCou: FMM=F IPFlag=           8 FMFlag=      100000 FMFlg1=           0
         NFxFlg=           0 DoJE=F BraDBF=F KetDBF=F FulRan=T
         wScrn=  0.000000 ICntrl=         0 IOpCl=  1 I1Cent=           0 NGrid=           0
         NMat0=    1 NMatS0=      1 NMatT0=    0 NMatD0=    1 NMtDS0=    0 NMtDT0=    0
 Petite list used in FoFCou.
 <Sx>= 0.0000 <Sy>= 0.0000 <Sz>= 0.5000 <S**2>= 0.7500 S= 0.5000
 Range of M.O.s used for correlation:     1   306
 NBasis=   310 NAE=    11 NBE=    10 NFC=     0 NFV=     0
 NROrb=    306 NOA=    11 NOB=    10 NVA=   295 NVB=   296

 **** Warning!!: The largest alpha MO coefficient is  0.15514543D+03


 **** Warning!!: The largest beta MO coefficient is  0.15514522D+03

 Singles contribution to E2=   -0.1058418086D-02
 Leave Link  801 at Sat Apr 21 10:26:49 2018, MaxMem= 10737418240 cpu:             422.0 elap:              13.2
 (Enter /home1/apps/gaussian/16rA.03/g16/l804.exe)
 Open-shell transformation, MDV= 10737418240 ITran=4 ISComp=2.
 Unit  1 TFree=       2912892 TCopy=       2133986.
 Semi-Direct transformation.
 ModeAB=           2 MOrb=            11 LenV=   10734514817
 LASXX=     39182606 LTotXX=    39182606 LenRXX=    39182606
 LTotAB=    39699063 MaxLAS=   272656098 LenRXY=   272656098
 NonZer=   277570458 LenScr=   417988608 LnRSAI=           0
 LnScr1=           0 LExtra=    16204701 Total=    746032013
 MaxDsk= 67108864000 SrtSym=           F ITran=            4
 DoSDTr:  NPSUse= 32
 JobTyp=1 Pass  1:  I=   1 to  11.
 (rs|ai) integrals will be sorted in core.
 Complete sort for first half transformation.
 First half transformation complete.
 Begin second half transformation for I=  10.
 Begin second half transformation for I=  10.
 Complete sort for second half transformation.
 Second half transformation complete.
 ModeAB=           2 MOrb=            10 LenV=   10734514817
 LASXX=     35609842 LTotXX=    35609842 LenRXX=   247869180
 LTotAB=    33495734 MaxLAS=   247869180 LenRXY=    33495734
 NonZer=   252336780 LenScr=   379990016 LnRSAI=           0
 LnScr1=           0 LExtra=   328043405 Total=    989398335
 MaxDsk= 67108864000 SrtSym=           F ITran=            4
 DoSDTr:  NPSUse= 32
 JobTyp=2 Pass  1:  I=   1 to  10.
 (rs|ai) integrals will be sorted in core.
 Complete sort for first half transformation.
 First half transformation complete.
 Begin second half transformation for I=  10.
 Begin second half transformation for I=  10.
 Complete sort for second half transformation.
 Second half transformation complete.
 Spin components of T(2) and E(2):
     alpha-alpha T2 =       0.1826630872D-01 E2=     -0.1662679968D+00
     alpha-beta  T2 =       0.7885559956D-01 E2=     -0.7565777742D+00
     beta-beta   T2 =       0.1555478684D-01 E2=     -0.1572146172D+00
 ANorm=    0.1055373758D+01
 E2 =    -0.1081118806D+01 EUMP2 =    -0.22723386131862D+03
 (S**2,0)=  0.75000D+00           (S**2,1)=  0.75000D+00
 E(PUHF)=      -0.22615274251D+03        E(PMP2)=      -0.22723386132D+03
 Leave Link  804 at Sat Apr 21 10:36:08 2018, MaxMem= 10737418240 cpu:           17861.3 elap:             558.4
 (Enter /home1/apps/gaussian/16rA.03/g16/l913.exe)
 CIDS:  MDV= 10737418240.
 IFCWin=0 IBDFC=1 NFBD=     0     0 NFCmp=     0     0 NFFFC=     0     0
 Using original routines for 1st iteration.
 Using DD4UQ or CC4UQ for 2nd and later iterations.
 Keep R2 and R3 ints in memory in symmetry-blocked form, NReq=1456570172.
 FoFCou: FMM=F IPFlag=           8 FMFlag=           0 FMFlg1=           0
         NFxFlg=           0 DoJE=F BraDBF=F KetDBF=F FulRan=T
         wScrn=  0.000000 ICntrl=       600 IOpCl=  0 I1Cent=           0 NGrid=           0
         NMat0=    1 NMatS0=  48205 NMatT0=    0 NMatD0=    1 NMtDS0=    0 NMtDT0=    0
 Petite list used in FoFCou.
 CIDS: In Core Option IDoMem=           1.
 CCSD(T)
 =======
 Iterations= 150 Convergence= 0.100D-06
 Produce multiple copies of IABC intergrals
 Iteration Nr.   1
 **********************
 DD1Dir will call FoFMem   1 times, MxPair=       320
 NAB=   110 NAA=    55 NBB=    45.
 DD1Dir will call FoFMem   1 times, MxPair=       320
 NAB=   110 NAA=    55 NBB=    45.
 MP4(R+Q)= -0.12705302D+00
 Maximum subspace dimension=  5
 A-vector RMS=  9.4400414D-05 Max=  1.0489042D-03 conv= 1.00D-05.
 RLE energy=       -1.0855686683
 E3=        0.12257731D+00        EROMP3=      -0.22711128401D+03
 E4(SDQ)=  -0.75279347D-01        ROMP4(SDQ)=  -0.22718656335D+03
 VARIATIONAL ENERGIES WITH THE FIRST-ORDER WAVEFUNCTION:
 DE(Corr)=  -1.0855507     E(Corr)=     -227.23829324    
 NORM(A)=   0.10552537D+01
 Iteration Nr.   2
 **********************
 DD1Dir will call FoFMem   1 times, MxPair=       320
 NAB=   110 NAA=    55 NBB=    45.
 A-vector RMS=  2.7449890D-03 Max=  2.6022471D-02 conv= 1.00D-05.
 RLE energy=       -1.0669798157
 DE(Corr)= -0.95779873     E(CORR)=     -227.11054124     Delta= 1.28D-01
 NORM(A)=   0.10531191D+01
 Iteration Nr.   3
 **********************
 DD1Dir will call FoFMem   1 times, MxPair=       320
 NAB=   110 NAA=    55 NBB=    45.
 A-vector RMS=  2.2588639D-03 Max=  2.3867146D-02 conv= 1.00D-05.
 RLE energy=       -1.0284598338
 DE(Corr)= -0.96600753     E(CORR)=     -227.11875005     Delta=-8.21D-03
 NORM(A)=   0.10532791D+01
 Iteration Nr.   4
 **********************
 DD1Dir will call FoFMem   1 times, MxPair=       320
 NAB=   110 NAA=    55 NBB=    45.
 A-vector RMS=  1.3195066D-03 Max=  1.6160090D-02 conv= 1.00D-05.
 RLE energy=       -0.9299937687
 DE(Corr)= -0.98733264     E(CORR)=     -227.14007515     Delta=-2.13D-02
 NORM(A)=   0.10870816D+01
 Iteration Nr.   5
 **********************
 DD1Dir will call FoFMem   1 times, MxPair=       320
 NAB=   110 NAA=    55 NBB=    45.
 A-vector RMS=  2.5759436D-03 Max=  2.0599159D-02 conv= 1.00D-05.
 RLE energy=       -1.0068905697
 DE(Corr)=  -1.0554937     E(CORR)=     -227.20823622     Delta=-6.82D-02
 NORM(A)=   0.10661705D+01
 Iteration Nr.   6
 **********************
 DD1Dir will call FoFMem   1 times, MxPair=       320
 NAB=   110 NAA=    55 NBB=    45.
 A-vector RMS=  1.6835712D-04 Max=  3.0526426D-03 conv= 1.00D-05.
 RLE energy=       -1.0066822268
 DE(Corr)=  -1.0067169     E(CORR)=     -227.15945943     Delta= 4.88D-02
 NORM(A)=   0.10660314D+01
 Iteration Nr.   7
 **********************
 DD1Dir will call FoFMem   1 times, MxPair=       320
 NAB=   110 NAA=    55 NBB=    45.
 A-vector RMS=  8.3553177D-05 Max=  1.8260939D-03 conv= 1.00D-05.
 RLE energy=       -1.0062346066
 DE(Corr)=  -1.0063074     E(CORR)=     -227.15904989     Delta= 4.10D-04
 NORM(A)=   0.10670993D+01
 Iteration Nr.   8
 **********************
 DD1Dir will call FoFMem   1 times, MxPair=       320
 NAB=   110 NAA=    55 NBB=    45.
 A-vector RMS=  4.5633493D-05 Max=  6.9975227D-04 conv= 1.00D-05.
 RLE energy=       -1.0064720683
 DE(Corr)=  -1.0066394     E(CORR)=     -227.15938191     Delta=-3.32D-04
 NORM(A)=   0.10673176D+01
 Iteration Nr.   9
 **********************
 DD1Dir will call FoFMem   1 times, MxPair=       320
 NAB=   110 NAA=    55 NBB=    45.
 A-vector RMS=  1.8974173D-05 Max=  2.0149995D-04 conv= 1.00D-05.
 RLE energy=       -1.0065268775
 DE(Corr)=  -1.0064956     E(CORR)=     -227.15923808     Delta= 1.44D-04
 NORM(A)=   0.10674809D+01
 Iteration Nr.  10
 **********************
 DD1Dir will call FoFMem   1 times, MxPair=       320
 NAB=   110 NAA=    55 NBB=    45.
 A-vector RMS=  7.6709691D-06 Max=  1.2394349D-04 conv= 1.00D-05.
 RLE energy=       -1.0065207371
 DE(Corr)=  -1.0065336     E(CORR)=     -227.15927615     Delta=-3.81D-05
 NORM(A)=   0.10674521D+01
 Iteration Nr.  11
 **********************
 DD1Dir will call FoFMem   1 times, MxPair=       320
 NAB=   110 NAA=    55 NBB=    45.
 A-vector RMS=  3.4502454D-06 Max=  5.4668482D-05 conv= 1.00D-05.
 RLE energy=       -1.0065160067
 DE(Corr)=  -1.0065230     E(CORR)=     -227.15926554     Delta= 1.06D-05
 NORM(A)=   0.10674252D+01
 Iteration Nr.  12
 **********************
 DD1Dir will call FoFMem   1 times, MxPair=       320
 NAB=   110 NAA=    55 NBB=    45.
 A-vector RMS=  1.4093534D-06 Max=  3.9857185D-05 conv= 1.00D-05.
 RLE energy=       -1.0065158307
 DE(Corr)=  -1.0065166     E(CORR)=     -227.15925912     Delta= 6.42D-06
 NORM(A)=   0.10674201D+01
 Iteration Nr.  13
 **********************
 DD1Dir will call FoFMem   1 times, MxPair=       320
 NAB=   110 NAA=    55 NBB=    45.
 A-vector RMS=  6.5990528D-07 Max=  1.2562741D-05 conv= 1.00D-05.
 RLE energy=       -1.0065151297
 DE(Corr)=  -1.0065158     E(CORR)=     -227.15925831     Delta= 8.06D-07
 NORM(A)=   0.10674185D+01
 Iteration Nr.  14
 **********************
 DD1Dir will call FoFMem   1 times, MxPair=       320
 NAB=   110 NAA=    55 NBB=    45.
 A-vector RMS=  4.5136232D-07 Max=  1.0496992D-05 conv= 1.00D-05.
 RLE energy=       -1.0065141789
 DE(Corr)=  -1.0065145     E(CORR)=     -227.15925698     Delta= 1.34D-06
 NORM(A)=   0.10674186D+01
 Iteration Nr.  15
 **********************
 DD1Dir will call FoFMem   1 times, MxPair=       320
 NAB=   110 NAA=    55 NBB=    45.
 A-vector RMS=  1.4324799D-07 Max=  2.2593057D-06 conv= 1.00D-05.
 RLE energy=       -1.0065150674
 DE(Corr)=  -1.0065152     E(CORR)=     -227.15925770     Delta=-7.24D-07
 NORM(A)=   0.10674197D+01
 Iteration Nr.  16
 **********************
 DD1Dir will call FoFMem   1 times, MxPair=       320
 NAB=   110 NAA=    55 NBB=    45.
 A-vector RMS=  1.0333559D-07 Max=  1.8440901D-06 conv= 1.00D-05.
 RLE energy=       -1.0065152380
 DE(Corr)=  -1.0065152     E(CORR)=     -227.15925769     Delta= 1.50D-08
 NORM(A)=   0.10674203D+01
 CI/CC converged in   16 iterations to DelEn= 1.50D-08 Conv= 1.00D-07 ErrA1= 1.03D-07 Conv= 1.00D-05
 Wavefunction amplitudes converged. E(Corr)=     -227.15925769    
 Largest amplitude= 7.71D-02
 Time for triples=    63374.16 seconds.
 T4(CCSD)= -0.31168186D-01
 T5(CCSD)=  0.29865881D-02
 CCSD(T)= -0.22718743929D+03
 Discarding MO integrals.
 Leave Link  913 at Sat Apr 21 11:18:30 2018, MaxMem= 10737418240 cpu:           81122.4 elap:            2542.3
 (Enter /home1/apps/gaussian/16rA.03/g16/l601.exe)
 Copying SCF densities to generalized density rwf, IOpCl= 0 IROHF=1.

 **********************************************************************

            Population analysis using the SCF density.

 **********************************************************************

 Orbital symmetries:
       Occupied  (SG) (PI) (PI) (SG) (DLTA) (DLTA) (SG) (PI) (PI)
                 (SG) (SG)
       Virtual   (PI) (PI) (SG) (SG) (PI) (PI) (SG) (SG) (SG) (DLTA)
                 (DLTA) (PI) (PI) (SG) (PI) (PI) (SG) (PI) (PI)
                 (SG) (SG) (PI) (PI) (DLTA) (DLTA) (SG) (DLTA)
                 (DLTA) (SG) (SG) (PI) (PI) (PI) (PI) (SG) (PI)
                 (PI) (PHI) (PHI) (DLTA) (DLTA) (SG) (PI) (PI)
                 (SG) (DLTA) (DLTA) (PI) (PI) (PHI) (PHI) (SG)
                 (DLTA) (DLTA) (SG) (SG) (PI) (PI) (DLTA) (DLTA)
                 (PI) (PI) (SG) (PI) (PI) (SG) (PI) (PI) (PHI)
                 (PHI) (SG) (DLTA) (DLTA) (SG) (PI) (PI) (DLTA)
                 (DLTA) (PI) (PI) (?A) (?A) (PHI) (PHI) (SG) (DLTA)
                 (DLTA) (SG) (PI) (PI) (SG) (SG) (PHI) (PHI) (DLTA)
                 (DLTA) (PI) (PI) (SG) (PI) (PI) (SG) (PI) (PI)
                 (PHI) (PHI) (DLTA) (DLTA) (SG) (DLTA) (DLTA) (PI)
                 (PI) (DLTA) (DLTA) (SG) (PI) (PI) (PI) (PI) (SG)
                 (SG) (SG) (?A) (?A) (PHI) (PHI) (DLTA) (DLTA)
                 (PI) (PI) (?B) (?B) (?A) (?A) (PHI) (PHI) (DLTA)
                 (DLTA) (SG) (PI) (PI) (SG) (PI) (PI) (SG) (DLTA)
                 (DLTA) (PI) (PI) (SG) (PHI) (PHI) (DLTA) (DLTA)
                 (PI) (PI) (SG) (SG) (?A) (?A) (PHI) (PHI) (DLTA)
                 (DLTA) (PI) (PI) (SG) (SG) (?B) (?B) (?A) (?A)
                 (PHI) (PHI) (DLTA) (DLTA) (PI) (PI) (SG) (DLTA)
                 (DLTA) (PI) (PI) (SG) (PI) (PI) (SG) (PHI) (PHI)
                 (DLTA) (DLTA) (PI) (PI) (SG) (SG) (?A) (?A) (PHI)
                 (PHI) (DLTA) (DLTA) (PI) (PI) (SG) (DLTA) (DLTA)
                 (PI) (PI) (SG) (?B) (?B) (?A) (?A) (PHI) (PHI)
                 (DLTA) (DLTA) (PI) (PI) (SG) (PI) (PI) (SG) (DLTA)
                 (DLTA) (PI) (PI) (SG) (SG) (PI) (PI) (SG) (SG)
                 (DLTA) (DLTA) (PI) (PI) (SG) (PI) (PI) (SG) (SG)
                 (DLTA) (DLTA) (PI) (PI) (SG) (SG) (PI) (PI) (SG)
                 (SG) (PI) (PI) (SG) (DLTA) (DLTA) (PI) (PI) (SG)
                 (SG) (PI) (PI) (SG) (DLTA) (DLTA) (PI) (PI) (SG)
                 (SG) (PI) (PI) (SG) (SG) (PI) (PI) (SG) (SG) (PI)
                 (PI) (SG) (SG) (PI) (PI) (SG) (SG) (PI) (PI) (SG)
                 (SG) (SG) (SG) (SG) (SG)
 The electronic state is 2-SG.
 Alpha  occ. eigenvalues --   -5.88354  -4.00046  -4.00046  -3.99851  -0.79941
 Alpha  occ. eigenvalues --   -0.79941  -0.79854  -0.79436  -0.79436  -0.45646
 Alpha  occ. eigenvalues --   -0.27911
 Alpha virt. eigenvalues --    0.01933   0.01933   0.02783   0.03538   0.06669
 Alpha virt. eigenvalues --    0.06669   0.07834   0.14175   0.16907   0.17931
 Alpha virt. eigenvalues --    0.17931   0.18091   0.18091   0.21103   0.23355
 Alpha virt. eigenvalues --    0.23355   0.27757   0.30595   0.30595   0.40774
 Alpha virt. eigenvalues --    0.50878   0.54583   0.54583   0.57181   0.57181
 Alpha virt. eigenvalues --    0.63776   0.68059   0.68059   0.72006   0.74661
 Alpha virt. eigenvalues --    0.76185   0.76185   0.82133   0.82133   0.93471
 Alpha virt. eigenvalues --    0.97692   0.97692   1.07761   1.07761   1.22081
 Alpha virt. eigenvalues --    1.22081   1.31223   1.45682   1.45682   1.51750
 Alpha virt. eigenvalues --    1.54628   1.54628   1.62091   1.62091   1.62552
 Alpha virt. eigenvalues --    1.62552   1.79991   1.92330   1.92330   1.93592
 Alpha virt. eigenvalues --    1.97196   2.02792   2.02792   2.51261   2.51261
 Alpha virt. eigenvalues --    2.59874   2.59874   2.60392   2.63591   2.63591
 Alpha virt. eigenvalues --    2.88690   3.09699   3.09699   3.25294   3.25294
 Alpha virt. eigenvalues --    3.26983   3.31865   3.31865   3.47018   3.58740
 Alpha virt. eigenvalues --    3.58740   3.82592   3.82592   3.83460   3.83460
 Alpha virt. eigenvalues --    3.89616   3.89616   3.94830   3.94842   3.94842
 Alpha virt. eigenvalues --    4.21399   4.21399   4.36543   4.74589   4.74589
 Alpha virt. eigenvalues --    5.09398   6.46940   6.63471   6.63471   6.70901
 Alpha virt. eigenvalues --    6.70901   6.90093   6.90093   7.08626   7.34730
 Alpha virt. eigenvalues --    7.34730   7.64794   8.18227   8.18227   8.35725
 Alpha virt. eigenvalues --    8.35725   8.39757   8.39757   8.41941   8.53797
 Alpha virt. eigenvalues --    8.53797   8.55621   8.55621   8.57680   8.57680
 Alpha virt. eigenvalues --    8.66250   8.80189   8.80189   9.00494   9.00494
 Alpha virt. eigenvalues --    9.30106   9.63048  10.36415  10.43162  10.43162
 Alpha virt. eigenvalues --   10.45833  10.45833  10.60096  10.60096  10.76071
 Alpha virt. eigenvalues --   10.76071  10.96304  10.96304  10.96868  10.96868
 Alpha virt. eigenvalues --   10.97580  10.97580  11.01995  11.01995  11.05230
 Alpha virt. eigenvalues --   11.43690  11.43690  12.11142  17.23275  17.23275
 Alpha virt. eigenvalues --   17.43159  17.48962  17.48962  17.56159  17.56159
 Alpha virt. eigenvalues --   18.10334  20.47743  20.47743  20.51542  20.51542
 Alpha virt. eigenvalues --   20.65536  20.65536  21.10362  23.25951  24.60964
 Alpha virt. eigenvalues --   24.60964  24.62687  24.62687  24.71670  24.71670
 Alpha virt. eigenvalues --   24.90679  24.90679  25.01077  26.54421  27.21653
 Alpha virt. eigenvalues --   27.21653  27.22039  27.22039  27.22471  27.22471
 Alpha virt. eigenvalues --   27.23912  27.23912  27.33082  27.33082  27.61960
 Alpha virt. eigenvalues --   32.59276  32.59276  32.64929  32.64929  32.86595
 Alpha virt. eigenvalues --   35.47457  35.47457  36.14963  49.80734  49.80734
 Alpha virt. eigenvalues --   49.83611  49.83611  49.93119  49.93119  50.24332
 Alpha virt. eigenvalues --   52.34490  55.80849  55.80849  55.82165  55.82165
 Alpha virt. eigenvalues --   55.88142  55.88142  56.01056  56.01056  56.10584
 Alpha virt. eigenvalues --   56.89834  56.89834  56.95260  56.95260  57.17881
 Alpha virt. eigenvalues --   61.48602  61.48602  61.49060  61.49060  61.49469
 Alpha virt. eigenvalues --   61.49469  61.50317  61.50317  61.54836  61.54836
 Alpha virt. eigenvalues --   61.62279  68.34148  68.34148  69.15835  95.77978
 Alpha virt. eigenvalues --   95.77978  95.82984  95.82984  96.03784 121.41188
 Alpha virt. eigenvalues --  130.53107 130.53107 131.44703 162.84474 167.38963
 Alpha virt. eigenvalues --  167.38963 167.43521 167.43521 167.63200 248.26485
 Alpha virt. eigenvalues --  248.26485 249.10369 257.53428 341.44827 341.44827
 Alpha virt. eigenvalues --  341.48536 341.48536 341.64397 456.83720 460.43370
 Alpha virt. eigenvalues --  460.43370 461.30710 795.91901 850.71777 850.71777
 Alpha virt. eigenvalues --  851.49768 855.08609 855.08609 855.11357 855.11357
 Alpha virt. eigenvalues --  855.265541458.874401617.907711617.907711618.68993
 Alpha virt. eigenvalues -- 2713.802802713.802802713.820262713.820262713.89996
 Alpha virt. eigenvalues -- 2810.560593245.640473245.640473246.373425712.50456
 Alpha virt. eigenvalues -- 7026.322857026.322857026.98659********************
 Alpha virt. eigenvalues -- **************************************************
 Alpha virt. eigenvalues -- **************************************************
 Alpha virt. eigenvalues -- **************************************************
     Molecular Orbital Coefficients:
                           6         7         8         9        10
                           O         O         O         O         O
     Eigenvalues --    -0.79941  -0.79854  -0.79436  -0.79436  -0.45646
   1 1   Zn 1S          0.00000   0.00000   0.00000   0.00000  -0.00000
   2        2S          0.00000  -0.00000   0.00000   0.00000   0.00000
   3        3S          0.00000   0.00000   0.00000   0.00000  -0.00000
   4        4S          0.00000  -0.00000   0.00000   0.00000   0.00000
   5        5S          0.00000   0.00000   0.00000   0.00000  -0.00000
   6        6S          0.00000  -0.00000   0.00000   0.00000   0.00000
   7        7S          0.00000   0.00000   0.00000   0.00000  -0.00000
   8        8S          0.00000  -0.00000   0.00000   0.00000   0.00000
   9        9S          0.00000   0.00000   0.00000   0.00000  -0.00001
  10       10S          0.00000  -0.00001   0.00000   0.00000   0.00004
  11       11S          0.00000   0.00002   0.00000   0.00000  -0.00010
  12       12S          0.00000  -0.00004   0.00000   0.00000   0.00021
  13       13S          0.00000   0.00007   0.00000   0.00000   0.00038
  14       14S          0.00000   0.00014   0.00000   0.00000  -0.01327
  15       15S          0.00000  -0.00027   0.00000   0.00000   0.03073
  16       16S          0.00000  -0.00548   0.00000   0.00000   0.05721
  17       17S          0.00000   0.01820   0.00000   0.00000  -0.12507
  18       18S          0.00000   0.01421   0.00000   0.00000  -0.17575
  19       19S          0.00000  -0.00516   0.00000   0.00000  -0.11163
  20       20S          0.00000  -0.02273   0.00000   0.00000   0.24714
  21       21S          0.00000   0.00224   0.00000   0.00000   0.22134
  22       22S          0.00000  -0.00681   0.00000   0.00000   0.03039
  23       23S          0.00000   0.00258   0.00000   0.00000   0.00587
  24       24S          0.00000  -0.02029   0.00000   0.00000   0.07398
  25       25S          0.00000   0.00001   0.00000   0.00000  -0.00767
  26       26PX         0.00000   0.00000   0.00000   0.00000   0.00000
  27       26PY         0.00000   0.00000   0.00000   0.00000   0.00000
  28       26PZ         0.00000   0.00000   0.00000   0.00000  -0.00000
  29       27PX         0.00000   0.00000   0.00000  -0.00000   0.00000
  30       27PY         0.00000   0.00000  -0.00000   0.00000   0.00000
  31       27PZ         0.00000  -0.00000   0.00000   0.00000   0.00000
  32       28PX         0.00000   0.00000   0.00000   0.00000   0.00000
  33       28PY         0.00000   0.00000   0.00000   0.00000   0.00000
  34       28PZ         0.00000   0.00000   0.00000   0.00000  -0.00000
  35       29PX         0.00000   0.00000   0.00000  -0.00000   0.00000
  36       29PY         0.00000   0.00000  -0.00000   0.00000   0.00000
  37       29PZ         0.00000  -0.00000   0.00000   0.00000   0.00000
  38       30PX         0.00000   0.00000   0.00000   0.00000   0.00000
  39       30PY         0.00000   0.00000   0.00000   0.00000   0.00000
  40       30PZ         0.00000   0.00000   0.00000   0.00000  -0.00001
  41       31PX         0.00000   0.00000   0.00000  -0.00000   0.00000
  42       31PY         0.00000   0.00000  -0.00000   0.00000   0.00000
  43       31PZ         0.00000  -0.00000   0.00000   0.00000   0.00003
  44       32PX         0.00000   0.00000   0.00000   0.00000   0.00000
  45       32PY         0.00000   0.00000   0.00000   0.00000   0.00000
  46       32PZ         0.00000   0.00001   0.00000   0.00000  -0.00010
  47       33PX         0.00000   0.00000   0.00000  -0.00001   0.00000
  48       33PY         0.00000   0.00000  -0.00001   0.00000   0.00000
  49       33PZ         0.00000   0.00000   0.00000   0.00000   0.00051
  50       34PX         0.00000   0.00000   0.00000   0.00002   0.00000
  51       34PY         0.00000   0.00000   0.00002   0.00000   0.00000
  52       34PZ         0.00000   0.00003   0.00000   0.00000  -0.00116
  53       35PX         0.00000   0.00000   0.00000   0.00014   0.00000
  54       35PY         0.00000   0.00000   0.00014   0.00000   0.00000
  55       35PZ         0.00000  -0.00084   0.00000   0.00000  -0.00445
  56       36PX         0.00000   0.00000   0.00000   0.00014   0.00000
  57       36PY         0.00000   0.00000   0.00014   0.00000   0.00000
  58       36PZ         0.00000  -0.00309   0.00000   0.00000   0.00095
  59       37PX         0.00000   0.00000   0.00000  -0.00034   0.00000
  60       37PY         0.00000   0.00000  -0.00034   0.00000   0.00000
  61       37PZ         0.00000   0.00214   0.00000   0.00000   0.01770
  62       38PX         0.00000   0.00000   0.00000   0.00018   0.00000
  63       38PY         0.00000   0.00000   0.00018   0.00000   0.00000
  64       38PZ         0.00000  -0.00001   0.00000   0.00000   0.02433
  65       39PX         0.00000   0.00000   0.00000  -0.00141   0.00000
  66       39PY         0.00000   0.00000  -0.00141   0.00000   0.00000
  67       39PZ         0.00000   0.00439   0.00000   0.00000   0.04163
  68       40PX         0.00000   0.00000   0.00000   0.00064   0.00000
  69       40PY         0.00000   0.00000   0.00064   0.00000   0.00000
  70       40PZ         0.00000   0.00094   0.00000   0.00000   0.00521
  71       41PX         0.00000   0.00000   0.00000   0.00073   0.00000
  72       41PY         0.00000   0.00000   0.00073   0.00000   0.00000
  73       41PZ         0.00000  -0.00266   0.00000   0.00000  -0.08274
  74       42PX         0.00000   0.00000   0.00000   0.00029   0.00000
  75       42PY         0.00000   0.00000   0.00029   0.00000   0.00000
  76       42PZ         0.00000  -0.00762   0.00000   0.00000  -0.08202
  77       43PX         0.00000   0.00000   0.00000   0.00035   0.00000
  78       43PY         0.00000   0.00000   0.00035   0.00000   0.00000
  79       43PZ         0.00000  -0.00117   0.00000   0.00000  -0.01030
  80       44PX         0.00000   0.00000   0.00000  -0.00008   0.00000
  81       44PY         0.00000   0.00000  -0.00008   0.00000   0.00000
  82       44PZ         0.00000   0.00282   0.00000   0.00000  -0.00346
  83       45PX         0.00000   0.00000   0.00000  -0.00100   0.00000
  84       45PY         0.00000   0.00000  -0.00100   0.00000   0.00000
  85       45PZ         0.00000   0.00193   0.00000   0.00000   0.01274
  86       46PX         0.00000   0.00000   0.00000  -0.00006   0.00000
  87       46PY         0.00000   0.00000  -0.00006   0.00000   0.00000
  88       46PZ         0.00000   0.00029   0.00000   0.00000   0.00101
  89       47D 0        0.00000   0.00000   0.00000   0.00000  -0.00000
  90       47D+1        0.00000   0.00000   0.00000   0.00000   0.00000
  91       47D-1        0.00000   0.00000   0.00000   0.00000   0.00000
  92       47D+2        0.00000   0.00000   0.00000   0.00000   0.00000
  93       47D-2        0.00000   0.00000   0.00000   0.00000   0.00000
  94       48D 0        0.00000  -0.00001   0.00000   0.00000   0.00000
  95       48D+1        0.00000   0.00000   0.00000  -0.00001   0.00000
  96       48D-1        0.00000   0.00000  -0.00001   0.00000   0.00000
  97       48D+2        0.00000  -0.00000   0.00000   0.00000  -0.00000
  98       48D-2       -0.00001   0.00000   0.00000   0.00000   0.00000
  99       49D 0        0.00000   0.00230   0.00000   0.00000  -0.00033
 100       49D+1        0.00000   0.00000   0.00000   0.00233   0.00000
 101       49D-1        0.00000   0.00000   0.00233   0.00000   0.00000
 102       49D+2        0.00000   0.00000   0.00000   0.00000   0.00000
 103       49D-2        0.00233   0.00000   0.00000   0.00000   0.00000
 104       50D 0        0.00000   0.02944   0.00000   0.00000  -0.00427
 105       50D+1        0.00000   0.00000   0.00000   0.02993   0.00000
 106       50D-1        0.00000   0.00000   0.02993   0.00000   0.00000
 107       50D+2        0.00000  -0.00000   0.00000   0.00000   0.00000
 108       50D-2        0.02993   0.00000   0.00000   0.00000   0.00000
 109       51D 0        0.00000   0.11188   0.00000   0.00000  -0.01612
 110       51D+1        0.00000   0.00000   0.00000   0.11356   0.00000
 111       51D-1        0.00000   0.00000   0.11356   0.00000   0.00000
 112       51D+2        0.00000   0.00000   0.00000   0.00000   0.00000
 113       51D-2        0.11355   0.00000   0.00000   0.00000   0.00000
 114       52D 0        0.00000   0.24130   0.00000   0.00000  -0.03371
 115       52D+1        0.00000   0.00000   0.00000   0.24277   0.00000
 116       52D-1        0.00000   0.00000   0.24277   0.00000   0.00000
 117       52D+2        0.00000   0.00000   0.00000   0.00000   0.00000
 118       52D-2        0.24278   0.00000   0.00000   0.00000   0.00000
 119       53D 0        0.00000   0.28974   0.00000   0.00000  -0.04095
 120       53D+1        0.00000   0.00000   0.00000   0.29292   0.00000
 121       53D-1        0.00000   0.00000   0.29292   0.00000   0.00000
 122       53D+2        0.00000   0.00000   0.00000   0.00000   0.00000
 123       53D-2        0.29291   0.00000   0.00000   0.00000   0.00000
 124       54D 0        0.00000   0.29534   0.00000   0.00000  -0.04294
 125       54D+1        0.00000   0.00000   0.00000   0.30079   0.00000
 126       54D-1        0.00000   0.00000   0.30079   0.00000   0.00000
 127       54D+2        0.00000  -0.00000   0.00000   0.00000  -0.00000
 128       54D-2        0.30071   0.00000   0.00000   0.00000   0.00000
 129       55D 0        0.00000   0.24513   0.00000   0.00000  -0.03237
 130       55D+1        0.00000   0.00000   0.00000   0.24766   0.00000
 131       55D-1        0.00000   0.00000   0.24766   0.00000   0.00000
 132       55D+2        0.00000   0.00000   0.00000   0.00000   0.00000
 133       55D-2        0.24865   0.00000   0.00000   0.00000   0.00000
 134       56D 0        0.00000   0.13929   0.00000   0.00000  -0.01000
 135       56D+1        0.00000   0.00000   0.00000   0.14030   0.00000
 136       56D-1        0.00000   0.00000   0.14030   0.00000   0.00000
 137       56D+2        0.00000  -0.00000   0.00000   0.00000  -0.00000
 138       56D-2        0.14093   0.00000   0.00000   0.00000   0.00000
 139       57D 0        0.00000   0.03855   0.00000   0.00000   0.00748
 140       57D+1        0.00000   0.00000   0.00000   0.03708   0.00000
 141       57D-1        0.00000   0.00000   0.03708   0.00000   0.00000
 142       57D+2        0.00000   0.00000   0.00000   0.00000   0.00000
 143       57D-2        0.03546   0.00000   0.00000   0.00000   0.00000
 144       58D 0        0.00000  -0.03207   0.00000   0.00000   0.00393
 145       58D+1        0.00000   0.00000   0.00000  -0.03115   0.00000
 146       58D-1        0.00000   0.00000  -0.03115   0.00000   0.00000
 147       58D+2        0.00000  -0.00000   0.00000   0.00000  -0.00000
 148       58D-2       -0.03116   0.00000   0.00000   0.00000   0.00000
 149       59D 0        0.00000  -0.02194   0.00000   0.00000   0.00204
 150       59D+1        0.00000   0.00000   0.00000  -0.02002   0.00000
 151       59D-1        0.00000   0.00000  -0.02002   0.00000   0.00000
 152       59D+2        0.00000  -0.00000   0.00000   0.00000  -0.00000
 153       59D-2       -0.02004   0.00000   0.00000   0.00000   0.00000
 154       60D 0        0.00000   0.00103   0.00000   0.00000   0.00493
 155       60D+1        0.00000   0.00000   0.00000   0.00059   0.00000
 156       60D-1        0.00000   0.00000   0.00059   0.00000   0.00000
 157       60D+2        0.00000  -0.00000   0.00000   0.00000  -0.00000
 158       60D-2        0.00018   0.00000   0.00000   0.00000   0.00000
 159       61F 0        0.00000   0.00007   0.00000   0.00000  -0.00005
 160       61F+1        0.00000   0.00000   0.00000   0.00007   0.00000
 161       61F-1        0.00000   0.00000   0.00007   0.00000   0.00000
 162       61F+2        0.00000   0.00000   0.00000   0.00000   0.00000
 163       61F-2        0.00006   0.00000   0.00000   0.00000   0.00000
 164       61F+3        0.00000   0.00000   0.00000  -0.00000   0.00000
 165       61F-3        0.00000   0.00000  -0.00000   0.00000   0.00000
 166       62F 0        0.00000   0.00012   0.00000   0.00000  -0.00022
 167       62F+1        0.00000   0.00000   0.00000   0.00016   0.00000
 168       62F-1        0.00000   0.00000   0.00016   0.00000   0.00000
 169       62F+2        0.00000  -0.00000   0.00000   0.00000  -0.00000
 170       62F-2        0.00014   0.00000   0.00000   0.00000   0.00000
 171       62F+3        0.00000   0.00000   0.00000  -0.00000   0.00000
 172       62F-3        0.00000   0.00000  -0.00000   0.00000   0.00000
 173       63F 0        0.00000   0.00046   0.00000   0.00000  -0.00049
 174       63F+1        0.00000   0.00000   0.00000   0.00048   0.00000
 175       63F-1        0.00000   0.00000   0.00048   0.00000   0.00000
 176       63F+2        0.00000   0.00000   0.00000   0.00000   0.00000
 177       63F-2        0.00033   0.00000   0.00000   0.00000   0.00000
 178       63F+3        0.00000   0.00000   0.00000  -0.00000   0.00000
 179       63F-3        0.00000   0.00000  -0.00000   0.00000   0.00000
 180       64F 0        0.00000   0.00032   0.00000   0.00000  -0.00341
 181       64F+1        0.00000   0.00000   0.00000   0.00101   0.00000
 182       64F-1        0.00000   0.00000   0.00101   0.00000   0.00000
 183       64F+2        0.00000  -0.00000   0.00000   0.00000   0.00000
 184       64F-2        0.00085   0.00000   0.00000   0.00000   0.00000
 185       64F+3        0.00000   0.00000   0.00000  -0.00000   0.00000
 186       64F-3        0.00000   0.00000  -0.00000   0.00000   0.00000
 187       65F 0        0.00000  -0.00048   0.00000   0.00000  -0.00394
 188       65F+1        0.00000   0.00000   0.00000  -0.00010   0.00000
 189       65F-1        0.00000   0.00000  -0.00010   0.00000   0.00000
 190       65F+2        0.00000   0.00000   0.00000   0.00000   0.00000
 191       65F-2        0.00037   0.00000   0.00000   0.00000   0.00000
 192       65F+3        0.00000   0.00000   0.00000   0.00000   0.00000
 193       65F-3        0.00000   0.00000   0.00000   0.00000   0.00000
 194       66G 0        0.00000  -0.00004   0.00000   0.00000   0.00000
 195       66G+1        0.00000   0.00000   0.00000  -0.00004   0.00000
 196       66G-1        0.00000   0.00000  -0.00004   0.00000   0.00000
 197       66G+2        0.00000  -0.00000   0.00000   0.00000   0.00000
 198       66G-2       -0.00002   0.00000   0.00000   0.00000   0.00000
 199       66G+3        0.00000   0.00000   0.00000   0.00000   0.00000
 200       66G-3        0.00000   0.00000   0.00000   0.00000   0.00000
 201       66G+4        0.00000  -0.00000   0.00000   0.00000  -0.00000
 202       66G-4        0.00000   0.00000   0.00000   0.00000   0.00000
 203       67G 0        0.00000  -0.00011   0.00000   0.00000   0.00005
 204       67G+1        0.00000   0.00000   0.00000  -0.00010   0.00000
 205       67G-1        0.00000   0.00000  -0.00010   0.00000   0.00000
 206       67G+2        0.00000   0.00000   0.00000   0.00000  -0.00000
 207       67G-2       -0.00008   0.00000   0.00000   0.00000   0.00000
 208       67G+3        0.00000   0.00000   0.00000  -0.00000   0.00000
 209       67G-3        0.00000   0.00000  -0.00000   0.00000   0.00000
 210       67G+4        0.00000   0.00000   0.00000   0.00000   0.00000
 211       67G-4        0.00000   0.00000   0.00000   0.00000   0.00000
 212       68G 0        0.00000  -0.00016   0.00000   0.00000   0.00006
 213       68G+1        0.00000   0.00000   0.00000  -0.00017   0.00000
 214       68G-1        0.00000   0.00000  -0.00017   0.00000   0.00000
 215       68G+2        0.00000  -0.00000   0.00000   0.00000   0.00000
 216       68G-2       -0.00007   0.00000   0.00000   0.00000   0.00000
 217       68G+3        0.00000   0.00000   0.00000   0.00000   0.00000
 218       68G-3        0.00000   0.00000   0.00000   0.00000   0.00000
 219       68G+4        0.00000  -0.00000   0.00000   0.00000  -0.00000
 220       68G-4        0.00000   0.00000   0.00000   0.00000   0.00000
 221       69G 0        0.00000  -0.00076   0.00000   0.00000   0.00103
 222       69G+1        0.00000   0.00000   0.00000  -0.00088   0.00000
 223       69G-1        0.00000   0.00000  -0.00088   0.00000   0.00000
 224       69G+2        0.00000   0.00000   0.00000   0.00000  -0.00000
 225       69G-2       -0.00082   0.00000   0.00000   0.00000   0.00000
 226       69G+3        0.00000   0.00000   0.00000  -0.00000   0.00000
 227       69G-3        0.00000   0.00000  -0.00000   0.00000   0.00000
 228       69G+4        0.00000   0.00000   0.00000   0.00000   0.00000
 229       69G-4       -0.00000   0.00000   0.00000   0.00000   0.00000
 230       70H 0        0.00000  -0.00000   0.00000   0.00000  -0.00000
 231       70H+1        0.00000   0.00000   0.00000   0.00000   0.00000
 232       70H-1        0.00000   0.00000   0.00000   0.00000   0.00000
 233       70H+2        0.00000  -0.00000   0.00000   0.00000   0.00000
 234       70H-2        0.00000   0.00000   0.00000   0.00000   0.00000
 235       70H+3        0.00000   0.00000   0.00000  -0.00000   0.00000
 236       70H-3        0.00000   0.00000  -0.00000   0.00000   0.00000
 237       70H+4        0.00000  -0.00000   0.00000   0.00000  -0.00000
 238       70H-4       -0.00000   0.00000   0.00000   0.00000   0.00000
 239       70H+5        0.00000   0.00000   0.00000   0.00000   0.00000
 240       70H-5        0.00000   0.00000  -0.00000   0.00000   0.00000
 241       71H 0        0.00000   0.00004   0.00000   0.00000  -0.00000
 242       71H+1        0.00000   0.00000   0.00000   0.00003   0.00000
 243       71H-1        0.00000   0.00000   0.00003   0.00000   0.00000
 244       71H+2        0.00000   0.00000   0.00000   0.00000  -0.00000
 245       71H-2        0.00001   0.00000   0.00000   0.00000   0.00000
 246       71H+3        0.00000   0.00000   0.00000   0.00000   0.00000
 247       71H-3        0.00000   0.00000   0.00000   0.00000   0.00000
 248       71H+4        0.00000  -0.00000   0.00000   0.00000  -0.00000
 249       71H-4        0.00000   0.00000   0.00000   0.00000   0.00000
 250       71H+5        0.00000   0.00000   0.00000   0.00000   0.00000
 251       71H-5        0.00000   0.00000   0.00000   0.00000   0.00000
 252       72H 0        0.00000  -0.00007   0.00000   0.00000  -0.00005
 253       72H+1        0.00000   0.00000   0.00000  -0.00004   0.00000
 254       72H-1        0.00000   0.00000  -0.00004   0.00000   0.00000
 255       72H+2        0.00000  -0.00000   0.00000   0.00000  -0.00000
 256       72H-2        0.00000   0.00000   0.00000   0.00000   0.00000
 257       72H+3        0.00000   0.00000   0.00000  -0.00000   0.00000
 258       72H-3        0.00000   0.00000  -0.00000   0.00000   0.00000
 259       72H+4        0.00000  -0.00000   0.00000   0.00000   0.00000
 260       72H-4       -0.00000   0.00000   0.00000   0.00000   0.00000
 261       72H+5        0.00000   0.00000   0.00000  -0.00000   0.00000
 262       72H-5        0.00000   0.00000  -0.00000   0.00000   0.00000
 263 2   H  1S          0.00000   0.00007   0.00000   0.00000   0.00032
 264        2S          0.00000   0.00248   0.00000   0.00000   0.01162
 265        3S          0.00000   0.01067   0.00000   0.00000   0.05184
 266        4S          0.00000   0.03326   0.00000   0.00000   0.16022
 267        5S          0.00000   0.04416   0.00000   0.00000   0.30092
 268        6S          0.00000   0.01123   0.00000   0.00000   0.20483
 269        7S          0.00000   0.00149   0.00000   0.00000   0.01609
 270        8PX         0.00000   0.00000   0.00000  -0.00039   0.00000
 271        8PY         0.00000   0.00000  -0.00039   0.00000   0.00000
 272        8PZ         0.00000   0.00129   0.00000   0.00000   0.00122
 273        9PX         0.00000   0.00000   0.00000  -0.00215   0.00000
 274        9PY         0.00000   0.00000  -0.00215   0.00000   0.00000
 275        9PZ         0.00000   0.00429   0.00000   0.00000   0.00855
 276       10PX         0.00000   0.00000   0.00000  -0.00177   0.00000
 277       10PY         0.00000   0.00000  -0.00177   0.00000   0.00000
 278       10PZ         0.00000   0.00691   0.00000   0.00000   0.02281
 279       11PX         0.00000   0.00000   0.00000  -0.00053   0.00000
 280       11PY         0.00000   0.00000  -0.00053   0.00000   0.00000
 281       11PZ         0.00000  -0.00058   0.00000   0.00000   0.00726
 282       12D 0        0.00000   0.00056   0.00000   0.00000   0.00029
 283       12D+1        0.00000   0.00000   0.00000  -0.00031   0.00000
 284       12D-1        0.00000   0.00000  -0.00031   0.00000   0.00000
 285       12D+2        0.00000  -0.00000   0.00000   0.00000   0.00000
 286       12D-2        0.00004   0.00000   0.00000   0.00000   0.00000
 287       13D 0        0.00000   0.00144   0.00000   0.00000   0.00289
 288       13D+1        0.00000   0.00000   0.00000  -0.00073   0.00000
 289       13D-1        0.00000   0.00000  -0.00073   0.00000   0.00000
 290       13D+2        0.00000   0.00000   0.00000   0.00000   0.00000
 291       13D-2        0.00023   0.00000   0.00000   0.00000   0.00000
 292       14D 0        0.00000   0.00085   0.00000   0.00000  -0.00042
 293       14D+1        0.00000   0.00000   0.00000   0.00013   0.00000
 294       14D-1        0.00000   0.00000   0.00013   0.00000   0.00000
 295       14D+2        0.00000  -0.00000   0.00000   0.00000   0.00000
 296       14D-2       -0.00039   0.00000   0.00000   0.00000   0.00000
 297       15F 0        0.00000   0.00037   0.00000   0.00000   0.00032
 298       15F+1        0.00000   0.00000   0.00000  -0.00028   0.00000
 299       15F-1        0.00000   0.00000  -0.00028   0.00000   0.00000
 300       15F+2        0.00000   0.00000   0.00000   0.00000   0.00000
 301       15F-2        0.00010   0.00000   0.00000   0.00000   0.00000
 302       15F+3        0.00000   0.00000   0.00000  -0.00000   0.00000
 303       15F-3        0.00000   0.00000  -0.00000   0.00000   0.00000
 304       16F 0        0.00000  -0.00005   0.00000   0.00000   0.00006
 305       16F+1        0.00000   0.00000   0.00000   0.00012   0.00000
 306       16F-1        0.00000   0.00000   0.00012   0.00000   0.00000
 307       16F+2        0.00000  -0.00000   0.00000   0.00000  -0.00000
 308       16F-2       -0.00026   0.00000   0.00000   0.00000   0.00000
 309       16F+3        0.00000   0.00000   0.00000  -0.00000   0.00000
 310       16F-3        0.00000   0.00000  -0.00000   0.00000   0.00000
                          11        12        13        14        15
                           O         V         V         V         V
     Eigenvalues --    -0.27911   0.01933   0.01933   0.02783   0.03538
   1 1   Zn 1S         -0.00000   0.00000   0.00000  -0.00000  -0.00000
   2        2S          0.00000   0.00000   0.00000   0.00000   0.00000
   3        3S         -0.00000   0.00000   0.00000  -0.00000  -0.00000
   4        4S          0.00000   0.00000   0.00000   0.00000   0.00000
   5        5S         -0.00000   0.00000   0.00000  -0.00000  -0.00000
   6        6S          0.00000   0.00000   0.00000   0.00000   0.00000
   7        7S         -0.00000   0.00000   0.00000  -0.00000  -0.00000
   8        8S          0.00000   0.00000   0.00000   0.00001   0.00001
   9        9S         -0.00001   0.00000   0.00000  -0.00002  -0.00002
  10       10S          0.00002   0.00000   0.00000   0.00004   0.00005
  11       11S         -0.00005   0.00000   0.00000  -0.00011  -0.00014
  12       12S          0.00009   0.00000   0.00000   0.00028   0.00034
  13       13S          0.00063   0.00000   0.00000  -0.00081  -0.00089
  14       14S         -0.01382   0.00000   0.00000   0.00485   0.00453
  15       15S          0.03234   0.00000   0.00000  -0.01203  -0.01141
  16       16S          0.04279   0.00000   0.00000   0.02282   0.03145
  17       17S         -0.07792   0.00000   0.00000  -0.09076  -0.11597
  18       18S         -0.15097   0.00000   0.00000  -0.01426  -0.03414
  19       19S         -0.13570   0.00000   0.00000   0.05909   0.06561
  20       20S          0.23774   0.00000   0.00000  -0.20161  -0.18160
  21       21S          0.51601   0.00000   0.00000   0.83311   0.18852
  22       22S          0.20698   0.00000   0.00000  -0.77592  -1.52095
  23       23S          0.01556   0.00000   0.00000  -0.02549  -0.02971
  24       24S          0.01544   0.00000   0.00000   0.12883   0.15735
  25       25S          0.00757   0.00000   0.00000   3.57206  -0.39316
  26       26PX         0.00000   0.00000  -0.00000   0.00000   0.00000
  27       26PY         0.00000  -0.00000   0.00000   0.00000   0.00000
  28       26PZ         0.00000   0.00000   0.00000  -0.00000  -0.00000
  29       27PX         0.00000   0.00000   0.00000   0.00000   0.00000
  30       27PY         0.00000   0.00000   0.00000   0.00000   0.00000
  31       27PZ        -0.00000   0.00000   0.00000   0.00000   0.00000
  32       28PX         0.00000   0.00000  -0.00000   0.00000   0.00000
  33       28PY         0.00000  -0.00000   0.00000   0.00000   0.00000
  34       28PZ         0.00000   0.00000   0.00000  -0.00000  -0.00000
  35       29PX         0.00000   0.00000   0.00000   0.00000   0.00000
  36       29PY         0.00000   0.00000   0.00000   0.00000   0.00000
  37       29PZ        -0.00000   0.00000   0.00000   0.00000   0.00001
  38       30PX         0.00000   0.00000  -0.00001   0.00000   0.00000
  39       30PY         0.00000  -0.00001   0.00000   0.00000   0.00000
  40       30PZ         0.00001   0.00000   0.00000  -0.00001  -0.00003
  41       31PX         0.00000   0.00000   0.00004   0.00000   0.00000
  42       31PY         0.00000   0.00004   0.00000   0.00000   0.00000
  43       31PZ        -0.00005   0.00000   0.00000   0.00003   0.00009
  44       32PX         0.00000   0.00000  -0.00009   0.00000   0.00000
  45       32PY         0.00000  -0.00009   0.00000   0.00000   0.00000
  46       32PZ         0.00017   0.00000   0.00000  -0.00010  -0.00028
  47       33PX         0.00000   0.00000   0.00014   0.00000   0.00000
  48       33PY         0.00000   0.00014   0.00000   0.00000   0.00000
  49       33PZ        -0.00082   0.00000   0.00000   0.00029   0.00087
  50       34PX         0.00000   0.00000  -0.00065   0.00000   0.00000
  51       34PY         0.00000  -0.00065   0.00000   0.00000   0.00000
  52       34PZ         0.00193   0.00000   0.00000  -0.00087  -0.00253
  53       35PX         0.00000   0.00000   0.00789   0.00000   0.00000
  54       35PY         0.00000   0.00789   0.00000   0.00000   0.00000
[...]
  91       47D-1        0.00000   0.00000   0.00000   0.00000
  92       47D+2        0.00000   0.00000   0.00000   0.00000
  93       47D-2        0.00000   0.00000   0.00000   0.00000
  94       48D 0       -0.00000  -0.00000  -0.00000  -0.00000
  95       48D+1       -0.00000  -0.00000  -0.00000   0.00000
  96       48D-1       -0.00000  -0.00000  -0.00000   0.00000
  97       48D+2       -0.00000  -0.00000  -0.00000   0.00000
  98       48D-2       -0.00000  -0.00000  -0.00000   0.00000
  99       49D 0        0.00053   0.00027   0.00026   0.00000
 100       49D+1        0.00054   0.00027   0.00027   0.00000
 101       49D-1        0.00054   0.00027   0.00027   0.00000
 102       49D+2        0.00054   0.00027   0.00027   0.00000
 103       49D-2        0.00054   0.00027   0.00027   0.00000
 104       50D 0        0.01619   0.00812   0.00808   0.00004
 105       50D+1        0.01635   0.00817   0.00817   0.00000
 106       50D-1        0.01635   0.00817   0.00817   0.00000
 107       50D+2        0.01634   0.00817   0.00817   0.00000
 108       50D-2        0.01634   0.00817   0.00817   0.00000
 109       51D 0        0.11120   0.05575   0.05545   0.00030
 110       51D+1        0.11205   0.05602   0.05602   0.00000
 111       51D-1        0.11205   0.05602   0.05602   0.00000
 112       51D+2        0.11203   0.05602   0.05602   0.00000
 113       51D-2        0.11203   0.05602   0.05602   0.00000
 114       52D 0        0.34794   0.17441   0.17353   0.00088
 115       52D+1        0.34774   0.17387   0.17387   0.00000
 116       52D-1        0.34774   0.17387   0.17387   0.00000
 117       52D+2        0.34781   0.17390   0.17390   0.00000
 118       52D-2        0.34781   0.17390   0.17390   0.00000
 119       53D 0        0.50794   0.25461   0.25333   0.00128
 120       53D+1        0.50987   0.25493   0.25493   0.00000
 121       53D-1        0.50987   0.25493   0.25493   0.00000
 122       53D+2        0.51003   0.25502   0.25502   0.00000
 123       53D-2        0.51003   0.25502   0.25502   0.00000
 124       54D 0        0.53226   0.26676   0.26550   0.00126
 125       54D+1        0.53770   0.26885   0.26885   0.00000
 126       54D-1        0.53770   0.26885   0.26885   0.00000
 127       54D+2        0.53790   0.26895   0.26895   0.00000
 128       54D-2        0.53790   0.26895   0.26895   0.00000
 129       55D 0        0.37853   0.18950   0.18903   0.00046
 130       55D+1        0.37931   0.18966   0.18966   0.00000
 131       55D-1        0.37931   0.18966   0.18966   0.00000
 132       55D+2        0.38095   0.19048   0.19048  -0.00000
 133       55D-2        0.38095   0.19048   0.19048   0.00000
 134       56D 0        0.15112   0.07532   0.07580  -0.00048
 135       56D+1        0.14848   0.07424   0.07424   0.00000
 136       56D-1        0.14848   0.07424   0.07424   0.00000
 137       56D+2        0.14875   0.07437   0.07437   0.00000
 138       56D-2        0.14875   0.07437   0.07437   0.00000
 139       57D 0        0.02623   0.01218   0.01405  -0.00187
 140       57D+1        0.02020   0.01010   0.01010   0.00000
 141       57D-1        0.02020   0.01010   0.01010   0.00000
 142       57D+2        0.01909   0.00954   0.00954   0.00000
 143       57D-2        0.01909   0.00954   0.00954   0.00000
 144       58D 0       -0.04226  -0.02117  -0.02109  -0.00008
 145       58D+1       -0.04089  -0.02045  -0.02045   0.00000
 146       58D-1       -0.04089  -0.02045  -0.02045   0.00000
 147       58D+2       -0.04091  -0.02046  -0.02046   0.00000
 148       58D-2       -0.04091  -0.02046  -0.02046   0.00000
 149       59D 0       -0.03546  -0.01775  -0.01771  -0.00004
 150       59D+1       -0.03240  -0.01620  -0.01620   0.00000
 151       59D-1       -0.03240  -0.01620  -0.01620   0.00000
 152       59D+2       -0.03244  -0.01622  -0.01622   0.00000
 153       59D-2       -0.03244  -0.01622  -0.01622   0.00000
 154       60D 0        0.00117  -0.00010   0.00126  -0.00136
 155       60D+1        0.00013   0.00006   0.00006   0.00000
 156       60D-1        0.00013   0.00006   0.00006   0.00000
 157       60D+2        0.00004   0.00002   0.00002   0.00000
 158       60D-2        0.00004   0.00002   0.00002   0.00000
 159       61F 0        0.00000   0.00000   0.00000   0.00000
 160       61F+1        0.00000   0.00000   0.00000   0.00000
 161       61F-1        0.00000   0.00000   0.00000   0.00000
 162       61F+2        0.00000   0.00000   0.00000   0.00000
 163       61F-2        0.00000   0.00000   0.00000   0.00000
 164       61F+3        0.00000   0.00000   0.00000   0.00000
 165       61F-3        0.00000   0.00000   0.00000   0.00000
 166       62F 0        0.00000   0.00000   0.00000   0.00000
 167       62F+1        0.00000   0.00000   0.00000   0.00000
 168       62F-1        0.00000   0.00000   0.00000   0.00000
 169       62F+2        0.00000   0.00000   0.00000  -0.00000
 170       62F-2        0.00000   0.00000   0.00000   0.00000
 171       62F+3       -0.00000  -0.00000  -0.00000   0.00000
 172       62F-3        0.00000   0.00000   0.00000   0.00000
 173       63F 0        0.00001   0.00001   0.00000   0.00000
 174       63F+1        0.00000   0.00000   0.00000   0.00000
 175       63F-1        0.00000   0.00000   0.00000   0.00000
 176       63F+2        0.00000   0.00000   0.00000   0.00000
 177       63F-2        0.00000   0.00000   0.00000   0.00000
 178       63F+3        0.00000   0.00000   0.00000   0.00000
 179       63F-3        0.00000   0.00000   0.00000   0.00000
 180       64F 0        0.00041   0.00023   0.00018   0.00005
 181       64F+1        0.00000   0.00000   0.00000   0.00000
 182       64F-1        0.00000   0.00000   0.00000   0.00000
 183       64F+2        0.00000   0.00000   0.00000  -0.00000
 184       64F-2        0.00000   0.00000   0.00000   0.00000
 185       64F+3        0.00000   0.00000   0.00000   0.00000
 186       64F-3        0.00000   0.00000   0.00000   0.00000
 187       65F 0        0.00160   0.00089   0.00070   0.00019
 188       65F+1        0.00000   0.00000   0.00000   0.00000
 189       65F-1        0.00000   0.00000   0.00000   0.00000
 190       65F+2        0.00000   0.00000   0.00000   0.00000
 191       65F-2        0.00000   0.00000   0.00000   0.00000
 192       65F+3       -0.00000  -0.00000  -0.00000   0.00000
 193       65F-3       -0.00000  -0.00000  -0.00000   0.00000
 194       66G 0        0.00000   0.00000   0.00000   0.00000
 195       66G+1        0.00000   0.00000   0.00000   0.00000
 196       66G-1        0.00000   0.00000   0.00000   0.00000
 197       66G+2        0.00000   0.00000   0.00000   0.00000
 198       66G-2        0.00000   0.00000   0.00000   0.00000
 199       66G+3        0.00000   0.00000   0.00000   0.00000
 200       66G-3       -0.00000  -0.00000  -0.00000   0.00000
 201       66G+4        0.00000   0.00000   0.00000   0.00000
 202       66G-4        0.00000   0.00000   0.00000   0.00000
 203       67G 0        0.00000   0.00000   0.00000   0.00000
 204       67G+1        0.00000   0.00000   0.00000   0.00000
 205       67G-1        0.00000   0.00000   0.00000   0.00000
 206       67G+2        0.00000   0.00000   0.00000  -0.00000
 207       67G-2        0.00000   0.00000   0.00000   0.00000
 208       67G+3        0.00000   0.00000   0.00000   0.00000
 209       67G-3       -0.00000  -0.00000  -0.00000   0.00000
 210       67G+4       -0.00000  -0.00000  -0.00000  -0.00000
 211       67G-4       -0.00000  -0.00000  -0.00000   0.00000
 212       68G 0        0.00000   0.00000   0.00000   0.00000
 213       68G+1        0.00000   0.00000   0.00000   0.00000
 214       68G-1        0.00000   0.00000   0.00000   0.00000
 215       68G+2        0.00000   0.00000   0.00000   0.00000
 216       68G-2        0.00000   0.00000   0.00000   0.00000
 217       68G+3       -0.00000  -0.00000  -0.00000   0.00000
 218       68G-3        0.00000   0.00000   0.00000   0.00000
 219       68G+4        0.00000   0.00000   0.00000   0.00000
 220       68G-4        0.00000   0.00000   0.00000   0.00000
 221       69G 0        0.00007   0.00004   0.00003   0.00000
 222       69G+1        0.00000   0.00000   0.00000   0.00000
 223       69G-1        0.00000   0.00000   0.00000   0.00000
 224       69G+2        0.00000   0.00000   0.00000  -0.00000
 225       69G-2        0.00000   0.00000   0.00000   0.00000
 226       69G+3       -0.00000  -0.00000  -0.00000   0.00000
 227       69G-3       -0.00000  -0.00000  -0.00000   0.00000
 228       69G+4       -0.00000  -0.00000  -0.00000  -0.00000
 229       69G-4        0.00000   0.00000   0.00000   0.00000
 230       70H 0        0.00000   0.00000   0.00000  -0.00000
 231       70H+1        0.00000   0.00000   0.00000   0.00000
 232       70H-1        0.00000   0.00000   0.00000   0.00000
 233       70H+2        0.00000   0.00000   0.00000  -0.00000
 234       70H-2        0.00000   0.00000   0.00000   0.00000
 235       70H+3        0.00000   0.00000   0.00000   0.00000
 236       70H-3        0.00000   0.00000   0.00000   0.00000
 237       70H+4        0.00000  -0.00000   0.00000  -0.00000
 238       70H-4        0.00000   0.00000   0.00000   0.00000
 239       70H+5        0.00000   0.00000   0.00000   0.00000
 240       70H-5       -0.00000  -0.00000  -0.00000   0.00000
 241       71H 0       -0.00000  -0.00000  -0.00000   0.00000
 242       71H+1       -0.00000  -0.00000  -0.00000   0.00000
 243       71H-1       -0.00000  -0.00000  -0.00000   0.00000
 244       71H+2        0.00000   0.00000   0.00000   0.00000
 245       71H-2        0.00000   0.00000   0.00000   0.00000
 246       71H+3       -0.00000  -0.00000  -0.00000   0.00000
 247       71H-3       -0.00000  -0.00000  -0.00000   0.00000
 248       71H+4        0.00000   0.00000  -0.00000   0.00000
 249       71H-4       -0.00000  -0.00000  -0.00000   0.00000
 250       71H+5        0.00000   0.00000   0.00000   0.00000
 251       71H-5        0.00000   0.00000   0.00000   0.00000
 252       72H 0        0.00000   0.00000   0.00000   0.00000
 253       72H+1        0.00000   0.00000   0.00000   0.00000
 254       72H-1        0.00000   0.00000   0.00000   0.00000
 255       72H+2        0.00000   0.00000   0.00000   0.00000
 256       72H-2        0.00000   0.00000   0.00000   0.00000
 257       72H+3        0.00000   0.00000   0.00000   0.00000
 258       72H-3        0.00000   0.00000   0.00000   0.00000
 259       72H+4        0.00000   0.00000   0.00000   0.00000
 260       72H-4        0.00000   0.00000   0.00000   0.00000
 261       72H+5        0.00000   0.00000   0.00000   0.00000
 262       72H-5       -0.00000  -0.00000  -0.00000   0.00000
 263 2   H  1S          0.00004   0.00002   0.00002   0.00000
 264        2S          0.00485   0.00264   0.00221   0.00043
 265        3S          0.04908   0.02670   0.02239   0.00431
 266        4S          0.25427   0.13767   0.11660   0.02108
 267        5S          0.59050   0.31688   0.27362   0.04326
 268        6S          0.37246   0.19211   0.18035   0.01176
 269        7S          0.01450   0.00511   0.00939  -0.00428
 270        8PX         0.00001   0.00001   0.00001   0.00000
 271        8PY         0.00001   0.00001   0.00001   0.00000
 272        8PZ         0.00022   0.00011   0.00011   0.00000
 273        9PX         0.00026   0.00013   0.00013   0.00000
 274        9PY         0.00026   0.00013   0.00013   0.00000
 275        9PZ         0.00285   0.00142   0.00143  -0.00001
 276       10PX         0.00041   0.00021   0.00021   0.00000
 277       10PY         0.00041   0.00021   0.00021   0.00000
 278       10PZ         0.00855   0.00380   0.00475  -0.00095
 279       11PX         0.00006   0.00003   0.00003   0.00000
 280       11PY         0.00006   0.00003   0.00003   0.00000
 281       11PZ         0.00373   0.00187   0.00187  -0.00000
 282       12D 0        0.00004   0.00002   0.00002  -0.00000
 283       12D+1        0.00001   0.00001   0.00001   0.00000
 284       12D-1        0.00001   0.00001   0.00001   0.00000
 285       12D+2        0.00000   0.00000   0.00000   0.00000
 286       12D-2        0.00000   0.00000   0.00000   0.00000
 287       13D 0        0.00053   0.00025   0.00028  -0.00003
 288       13D+1        0.00019   0.00009   0.00009   0.00000
 289       13D-1        0.00019   0.00009   0.00009   0.00000
 290       13D+2        0.00001   0.00001   0.00001   0.00000
 291       13D-2        0.00001   0.00001   0.00001   0.00000
 292       14D 0        0.00019   0.00012   0.00007   0.00006
 293       14D+1       -0.00016  -0.00008  -0.00008   0.00000
 294       14D-1       -0.00016  -0.00008  -0.00008   0.00000
 295       14D+2       -0.00007  -0.00003  -0.00003  -0.00000
 296       14D-2       -0.00007  -0.00003  -0.00003   0.00000
 297       15F 0        0.00004   0.00002   0.00002  -0.00000
 298       15F+1        0.00003   0.00001   0.00001   0.00000
 299       15F-1        0.00003   0.00001   0.00001   0.00000
 300       15F+2        0.00000   0.00000   0.00000   0.00000
 301       15F-2        0.00000   0.00000   0.00000   0.00000
 302       15F+3       -0.00000  -0.00000  -0.00000   0.00000
 303       15F-3       -0.00000  -0.00000  -0.00000   0.00000
 304       16F 0        0.00023   0.00012   0.00011   0.00001
 305       16F+1       -0.00007  -0.00004  -0.00004   0.00000
 306       16F-1       -0.00007  -0.00004  -0.00004   0.00000
 307       16F+2       -0.00007  -0.00003  -0.00003   0.00000
 308       16F-2       -0.00007  -0.00003  -0.00003   0.00000
 309       16F+3        0.00000   0.00000   0.00000   0.00000
 310       16F-3        0.00000   0.00000   0.00000   0.00000
          Condensed to atoms (all electrons):
               1          2
     1  Zn  19.383626   0.313066
     2  H    0.313066   0.990243
          Atomic-Atomic Spin Densities.
               1          2
     1  Zn   0.994259  -0.069880
     2  H   -0.069880   0.145502
 Mulliken charges and spin densities:
               1          2
     1  Zn   0.303309   0.924379
     2  H   -0.303309   0.075621
 Sum of Mulliken charges =  -0.00000   1.00000
 Mulliken charges and spin densities with hydrogens summed into heavy atoms:
               1          2
     1  Zn  -0.000000   1.000000
 Electronic spatial extent (au):  <R**2>=             46.2484
 Charge=             -0.0000 electrons
 Dipole moment (field-independent basis, Debye):
    X=              0.0000    Y=              0.0000    Z=              0.7791  Tot=              0.7791
 Quadrupole moment (field-independent basis, Debye-Ang):
   XX=            -14.6138   YY=            -14.6138   ZZ=            -21.2065
   XY=              0.0000   XZ=              0.0000   YZ=              0.0000
 Traceless Quadrupole moment (field-independent basis, Debye-Ang):
   XX=              2.1975   YY=              2.1975   ZZ=             -4.3951
   XY=              0.0000   XZ=              0.0000   YZ=              0.0000
 Octapole moment (field-independent basis, Debye-Ang**2):
  XXX=              0.0000  YYY=              0.0000  ZZZ=              4.3509  XYY=              0.0000
  XXY=              0.0000  XXZ=              0.5028  XZZ=              0.0000  YZZ=              0.0000
  YYZ=              0.5028  XYZ=              0.0000
 Hexadecapole moment (field-independent basis, Debye-Ang**3):
 XXXX=            -20.1903 YYYY=            -20.1903 ZZZZ=            -69.6536 XXXY=              0.0000
 XXXZ=              0.0000 YYYX=              0.0000 YYYZ=              0.0000 ZZZX=              0.0000
 ZZZY=              0.0000 XXYY=             -6.7301 XXZZ=            -14.4813 YYZZ=            -14.4813
 XXYZ=              0.0000 YYXZ=              0.0000 ZZXY=              0.0000
 N-N= 6.614715136500D+00 E-N=-5.709794349106D+02  KE= 1.502774592075D+02
 Symmetry A1   KE= 6.258998878608D+01
 Symmetry A2   KE= 2.160141919550D+01
 Symmetry B1   KE= 3.304302561378D+01
 Symmetry B2   KE= 3.304302561379D+01
 Symmetry A1   SP= 1.000000000000D+00
 Symmetry A2   SP= 0.000000000000D+00
 Symmetry B1   SP= 0.000000000000D+00
 Symmetry B2   SP= 0.000000000000D+00
 Orbital energies and kinetic energies (alpha):
                                 1                 2
   6         O                -0.799412         10.800710
   7         O                -0.798538         10.481893
   8         O                -0.794360         10.797645
   9         O                -0.794360         10.797645
  10         O                -0.456459          0.711034
  11         O                -0.279105          0.526643
  12         V                 0.019333          0.063351
  13         V                 0.019333          0.063351
  14         V                 0.027830          0.042156
  15         V                 0.035383          0.052704
  16         V                 0.066687          0.200135
 Total kinetic energy from orbitals= 1.508041022742D+02
                          Isotropic Fermi Contact Couplings
        Atom                 a.u.       MegaHertz       Gauss      10(-4) cm-1
     1  Zn(67)             0.00002       0.00441       0.00157       0.00147
     2  H(1)               0.02886     129.01867      46.03707      43.03600
 --------------------------------------------------------
       Center         ----  Spin Dipole Couplings  ----
                      3XX-RR        3YY-RR        3ZZ-RR
 --------------------------------------------------------
     1   Atom       -0.003571     -0.003571      0.007143
     2   Atom       -0.004348     -0.004348      0.008695
 --------------------------------------------------------
                        XY            XZ            YZ
 --------------------------------------------------------
     1   Atom        0.000000      0.000000      0.000000
     2   Atom        0.000000      0.000000      0.000000
 --------------------------------------------------------


 ---------------------------------------------------------------------------------
              Anisotropic Spin Dipole Couplings in Principal Axis System
 ---------------------------------------------------------------------------------

       Atom             a.u.   MegaHertz   Gauss  10(-4) cm-1        Axes

              Baa    -0.0036    -0.119    -0.043    -0.040 -0.0000  1.0000  0.0000
     1 Zn(67) Bbb    -0.0036    -0.119    -0.043    -0.040  1.0000  0.0000  0.0000
              Bcc     0.0071     0.239     0.085     0.080  0.0000  0.0000  1.0000
 
              Baa    -0.0043    -2.320    -0.828    -0.774  1.0000  0.0000  0.0000
     2 H(1)   Bbb    -0.0043    -2.320    -0.828    -0.774 -0.0000  1.0000  0.0000
              Bcc     0.0087     4.639     1.655     1.547  0.0000  0.0000  1.0000
 

 ---------------------------------------------------------------------------------

 No NMR shielding tensors so no spin-rotation constants.
 Leave Link  601 at Sat Apr 21 11:18:36 2018, MaxMem= 10737418240 cpu:             179.9 elap:               5.9
 (Enter /home1/apps/gaussian/16rA.03/g16/l9999.exe)

 Test job not archived.
 1\1\GINC-C402-021\SP\ROCCSD(T)-Full\Gen\H1Zn1(2)\GWANG18\21-Apr-2018\0
 \\#P ROCCSD(T)=(MaxCyc=150, Full)/Gen SCF=(maxcycle=400, vshift=200) P
 seudo=Read Integral(NoXCTest) Pop=Regular MaxDisk=500GB Guess=Read IOp
 (5/15=2)\\ZnH\\0,2\Zn,0,0.,0.,0.\H,0,0.,0.,1.6\\Version=ES64L-G16RevA.
 03\State=2-SG\HF=-226.1527425\MP2=-227.2338613\MP3=-227.111284\PUHF=-2
 26.1527425\PMP2-0=-227.2338613\MP4SDQ=-227.1865634\CCSD=-227.1592577\C
 CSD(T)=-227.1874393\RMSD=3.921e-09\PG=C*V [C*(H1Zn1)]\\@


 NOTHING WILL BE ATTEMPTED IF ALL POSSIBLE OBJECTIONS
 MUST FIRST BE OVERCOME.

                               -- THE GOLDEN PRINCIPLE,
                    PAUL DICKSON'S "THE OFFICIAL RULES"
 Job cpu time:       1 days  4 hours  2 minutes 46.1 seconds.
 Elapsed time:       0 days  0 hours 52 minutes 50.0 seconds.
 File lengths (MBytes):  RWF=  10433 Int=      0 D2E=      0 Chk=     12 Scr=      1
 Normal termination of Gaussian 16 at Sat Apr 21 11:18:36 2018.
