 Entering Gaussian System, Link 0=g16
 Initial command:
 /home1/apps/gaussian/16rA.03/g16/l1.exe "/tmp/Gau-173351.inp" -scrdir="/tmp/"
 Entering Link 1 = /home1/apps/gaussian/16rA.03/g16/l1.exe PID=    173352.
  
 Copyright (c) 1988,1990,1992,1993,1995,1998,2003,2009,2016,
            Gaussian, Inc.  All Rights Reserved.
  
 This is part of the Gaussian(R) 16 program.  It is based on
 the Gaussian(R) 09 system (copyright 2009, Gaussian, Inc.),
 the Gaussian(R) 03 system (copyright 2003, Gaussian, Inc.),
 the Gaussian(R) 98 system (copyright 1998, Gaussian, Inc.),
 the Gaussian(R) 94 system (copyright 1995, Gaussian, Inc.),
 the Gaussian 92(TM) system (copyright 1992, Gaussian, Inc.),
 the Gaussian 90(TM) system (copyright 1990, Gaussian, Inc.),
 the Gaussian 88(TM) system (copyright 1988, Gaussian, Inc.),
 the Gaussian 86(TM) system (copyright 1986, Carnegie Mellon
 University), and the Gaussian 82(TM) system (copyright 1983,
 Carnegie Mellon University). Gaussian is a federally registered
 trademark of Gaussian, Inc.
  
 This software contains proprietary and confidential information,
 including trade secrets, belonging to Gaussian, Inc.
  
 This software is provided under written license and may be
 used, copied, transmitted, or stored only in accord with that
 written license.
  
 The following legend is applicable only to US Government
 contracts under FAR:
  
                    RESTRICTED RIGHTS LEGEND
  
 Use, reproduction and disclosure by the US Government is
 subject to restrictions as set forth in subparagraphs (a)
 and (c) of the Commercial Computer Software - Restricted
 Rights clause in FAR 52.227-19.
  
 Gaussian, Inc.
 340 Quinnipiac St., Bldg. 40, Wallingford CT 06492
  
  
 ---------------------------------------------------------------
 Warning -- This program may not be used in any manner that
 competes with the business of Gaussian, Inc. or will provide
 assistance to any competitor of Gaussian, Inc.  The licensee
 of this program is prohibited from giving any competitor of
 Gaussian, Inc. access to this program.  By using this program,
 the user acknowledges that Gaussian, Inc. is engaged in the
 business of creating and licensing software in the field of
 computational chemistry and represents and warrants to the
 licensee that it is not a competitor of Gaussian, Inc. and that
 it will not use this program in any manner prohibited above.
 ---------------------------------------------------------------
  

 Cite this work as:
 Gaussian 16, Revision A.03,
 M. J. Frisch, G. W. Trucks, H. B. Schlegel, G. E. Scuseria, 
 M. A. Robb, J. R. Cheeseman, G. Scalmani, V. Barone, 
 G. A. Petersson, H. Nakatsuji, X. Li, M. Caricato, A. V. Marenich, 
 J. Bloino, B. G. Janesko, R. Gomperts, B. Mennucci, H. P. Hratchian, 
 J. V. Ortiz, A. F. Izmaylov, J. L. Sonnenberg, D. Williams-Young, 
 F. Ding, F. Lipparini, F. Egidi, J. Goings, B. Peng, A. Petrone, 
 T. Henderson, D. Ranasinghe, V. G. Zakrzewski, J. Gao, N. Rega, 
 G. Zheng, W. Liang, M. Hada, M. Ehara, K. Toyota, R. Fukuda, 
 J. Hasegawa, M. Ishida, T. Nakajima, Y. Honda, O. Kitao, H. Nakai, 
 T. Vreven, K. Throssell, J. A. Montgomery, Jr., J. E. Peralta, 
 F. Ogliaro, M. J. Bearpark, J. J. Heyd, E. N. Brothers, K. N. Kudin, 
 V. N. Staroverov, T. A. Keith, R. Kobayashi, J. Normand, 
 K. Raghavachari, A. P. Rendell, J. C. Burant, S. S. Iyengar, 
 J. Tomasi, M. Cossi, J. M. Millam, M. Klene, C. Adamo, R. Cammi, 
 J. W. Ochterski, R. L. Martin, K. Morokuma, O. Farkas, 
 J. B. Foresman, and D. J. Fox, Gaussian, Inc., Wallingford CT, 2016.
 
 ******************************************
 Gaussian 16:  ES64L-G16RevA.03 25-Dec-2016
                31-Mar-2018 
 ******************************************
 %mem=80GB
 %cpu=0-31
 SetSPE:  set environment variable "MP_BIND" = "yes"
 SetSPE:  set environment variable "MP_BLIST" = "0,1,2,3,4,5,6,7,8,9,10,11,12,13,14,15,16,17,18,19,20,21,22,23,24,25,26,27,28,29,30,31"
 Will use up to   32 processors via shared memory.
 %chk=tz.chk
 %rwf=/scratch/04843/gwang18/coo/
 ----------------------------------------------------------------------
 #P ROCCSD(T)=(MaxCyc=150, Window=(7,0))/Gen SCF=(maxcycle=400) Integra
 l(DKHSO, NoXCTest) Pop=Regular MaxDisk=500GB Guess=Read IOp(5/15=2)
 ----------------------------------------------------------------------
 1/38=1,172=1/1;
 2/12=2,17=6,18=5,40=1/2;
 3/5=7,11=2,25=1,30=1,47=8,91=5,116=101/1,2,3;
 4/5=1/1;
 5/5=2,7=400,15=2,38=6/2;
 8/5=-1,6=4,9=120000,10=91,37=7/1,4;
 9/5=7,6=150,14=2/13;
 6//1;
 99/5=1,9=1/99;
 Leave Link    1 at Sat Mar 31 13:49:30 2018, MaxMem= 10737418240 cpu:               9.3 elap:               0.3
 (Enter /home1/apps/gaussian/16rA.03/g16/l101.exe)
 ---
 CoO
 ---
 Symbolic Z-matrix:
 Charge =  0 Multiplicity = 4
 Co                    0.        0.        0. 
 O                     0.        0.        1.4 
 
 ITRead=  0  0
 MicOpt= -1 -1
 NAtoms=      2 NQM=        2 NQMF=       0 NMMI=      0 NMMIF=      0
                NMic=       0 NMicF=      0.
                    Isotopes and Nuclear Properties:
 (Nuclear quadrupole moments (NQMom) in fm**2, nuclear magnetic moments (NMagM)
  in nuclear magnetons)

  Atom         1           2
 IAtWgt=          59          16
 AtmWgt=  58.9331978  15.9949146
 NucSpn=           7           0
 AtZEff=  -0.0000000  -0.0000000
 NQMom=   42.0000000   0.0000000
 NMagM=    4.6270000   0.0000000
 AtZNuc=  27.0000000   8.0000000
 Leave Link  101 at Sat Mar 31 13:49:31 2018, MaxMem= 10737418240 cpu:               3.5 elap:               0.1
 (Enter /home1/apps/gaussian/16rA.03/g16/l202.exe)
                          Input orientation:                          
 ---------------------------------------------------------------------
 Center     Atomic      Atomic             Coordinates (Angstroms)
 Number     Number       Type             X           Y           Z
 ---------------------------------------------------------------------
      1         27           0        0.000000    0.000000    0.000000
      2          8           0        0.000000    0.000000    1.400000
 ---------------------------------------------------------------------
 Stoichiometry    CoO(4)
 Framework group  C*V[C*(OCo)]
 Deg. of freedom     1
 Full point group                 C*V     NOp   4
 Largest Abelian subgroup         C2V     NOp   4
 Largest concise Abelian subgroup C1      NOp   1
                         Standard orientation:                         
 ---------------------------------------------------------------------
 Center     Atomic      Atomic             Coordinates (Angstroms)
 Number     Number       Type             X           Y           Z
 ---------------------------------------------------------------------
      1         27           0        0.000000    0.000000    0.320000
      2          8           0        0.000000    0.000000   -1.080000
 ---------------------------------------------------------------------
 Rotational constants (GHZ):           0.0000000          20.4957581          20.4957581
 Leave Link  202 at Sat Mar 31 13:49:31 2018, MaxMem= 10737418240 cpu:               0.8 elap:               0.1
 (Enter /home1/apps/gaussian/16rA.03/g16/l301.exe)
 General basis read from cards:  (5D, 7F)
 Centers:       1
 S 1 1.00
     Exponent=  4.6756750000D+06 Coefficients=  1.0000000000D+00
 S 1 1.00
     Exponent=  7.0016150000D+05 Coefficients=  1.0000000000D+00
 S 1 1.00
     Exponent=  1.5933730000D+05 Coefficients=  1.0000000000D+00
 S 1 1.00
     Exponent=  4.5130460000D+04 Coefficients=  1.0000000000D+00
 S 1 1.00
     Exponent=  1.4722380000D+04 Coefficients=  1.0000000000D+00
 S 1 1.00
     Exponent=  5.3142220000D+03 Coefficients=  1.0000000000D+00
 S 1 1.00
     Exponent=  2.0720180000D+03 Coefficients=  1.0000000000D+00
 S 1 1.00
     Exponent=  8.5861880000D+02 Coefficients=  1.0000000000D+00
 S 1 1.00
     Exponent=  3.7354970000D+02 Coefficients=  1.0000000000D+00
 S 1 1.00
     Exponent=  1.6892290000D+02 Coefficients=  1.0000000000D+00
 S 1 1.00
     Exponent=  7.8296390000D+01 Coefficients=  1.0000000000D+00
 S 1 1.00
     Exponent=  3.5521230000D+01 Coefficients=  1.0000000000D+00
 S 1 1.00
     Exponent=  1.7041440000D+01 Coefficients=  1.0000000000D+00
 S 1 1.00
     Exponent=  8.1730000000D+00 Coefficients=  1.0000000000D+00
 S 1 1.00
     Exponent=  3.6103180000D+00 Coefficients=  1.0000000000D+00
 S 1 1.00
     Exponent=  1.6970470000D+00 Coefficients=  1.0000000000D+00
 S 1 1.00
     Exponent=  7.4353200000D-01 Coefficients=  1.0000000000D+00
 S 1 1.00
     Exponent=  1.5834400000D-01 Coefficients=  1.0000000000D+00
 S 1 1.00
     Exponent=  7.5036000000D-02 Coefficients=  1.0000000000D+00
 S 1 1.00
     Exponent=  3.3091000000D-02 Coefficients=  1.0000000000D+00
 S 1 1.00
     Exponent=  5.2255000000D+00 Coefficients=  1.0000000000D+00
 S 1 1.00
     Exponent=  1.3638000000D+00 Coefficients=  1.0000000000D+00
 S 1 1.00
     Exponent=  1.4590000000D-02 Coefficients=  1.0000000000D+00
 P 1 1.00
     Exponent=  1.9267780000D+04 Coefficients=  1.0000000000D+00
 P 1 1.00
     Exponent=  4.5609860000D+03 Coefficients=  1.0000000000D+00
 P 1 1.00
     Exponent=  1.4814360000D+03 Coefficients=  1.0000000000D+00
 P 1 1.00
     Exponent=  5.6686710000D+02 Coefficients=  1.0000000000D+00
 P 1 1.00
     Exponent=  2.4049100000D+02 Coefficients=  1.0000000000D+00
 P 1 1.00
     Exponent=  1.0961050000D+02 Coefficients=  1.0000000000D+00
 P 1 1.00
     Exponent=  5.2594910000D+01 Coefficients=  1.0000000000D+00
 P 1 1.00
     Exponent=  2.6083610000D+01 Coefficients=  1.0000000000D+00
 P 1 1.00
     Exponent=  1.3261430000D+01 Coefficients=  1.0000000000D+00
 P 1 1.00
     Exponent=  6.7997780000D+00 Coefficients=  1.0000000000D+00
 P 1 1.00
     Exponent=  3.3934140000D+00 Coefficients=  1.0000000000D+00
 P 1 1.00
     Exponent=  1.6487660000D+00 Coefficients=  1.0000000000D+00
 P 1 1.00
     Exponent=  7.7628200000D-01 Coefficients=  1.0000000000D+00
 P 1 1.00
     Exponent=  2.9720900000D-01 Coefficients=  1.0000000000D+00
 P 1 1.00
     Exponent=  1.1335200000D-01 Coefficients=  1.0000000000D+00
 P 1 1.00
     Exponent=  4.1510000000D-02 Coefficients=  1.0000000000D+00
 P 1 1.00
     Exponent=  7.7411000000D+00 Coefficients=  1.0000000000D+00
 P 1 1.00
     Exponent=  1.7672000000D+00 Coefficients=  1.0000000000D+00
 P 1 1.00
     Exponent=  1.5200000000D-02 Coefficients=  1.0000000000D+00
 D 1 1.00
     Exponent=  1.2839200000D+02 Coefficients=  1.0000000000D+00
 D 1 1.00
     Exponent=  3.7893800000D+01 Coefficients=  1.0000000000D+00
 D 1 1.00
     Exponent=  1.3879800000D+01 Coefficients=  1.0000000000D+00
 D 1 1.00
     Exponent=  5.6254400000D+00 Coefficients=  1.0000000000D+00
 D 1 1.00
     Exponent=  2.3353900000D+00 Coefficients=  1.0000000000D+00
 D 1 1.00
     Exponent=  9.3519200000D-01 Coefficients=  1.0000000000D+00
 D 1 1.00
     Exponent=  3.4695300000D-01 Coefficients=  1.0000000000D+00
 D 1 1.00
     Exponent=  1.1172300000D-01 Coefficients=  1.0000000000D+00
 D 1 1.00
     Exponent=  5.1384000000D+00 Coefficients=  1.0000000000D+00
 D 1 1.00
     Exponent=  2.4056000000D+00 Coefficients=  1.0000000000D+00
 D 1 1.00
     Exponent=  3.5980000000D-02 Coefficients=  1.0000000000D+00
 F 1 1.00
     Exponent=  6.9240000000D+00 Coefficients=  1.0000000000D+00
 F 1 1.00
     Exponent=  2.6244000000D+00 Coefficients=  1.0000000000D+00
 F 1 1.00
     Exponent=  9.1700000000D-01 Coefficients=  1.0000000000D+00
 F 1 1.00
     Exponent=  3.2041000000D-01 Coefficients=  1.0000000000D+00
 G 1 1.00
     Exponent=  6.3248000000D+00 Coefficients=  1.0000000000D+00
 G 1 1.00
     Exponent=  2.4229000000D+00 Coefficients=  1.0000000000D+00
 G 1 1.00
     Exponent=  9.2816000000D-01 Coefficients=  1.0000000000D+00
 ****
 Centers:       2
 S 1 1.00
     Exponent=  1.5330000000D+04 Coefficients=  1.0000000000D+00
 S 1 1.00
     Exponent=  2.2990000000D+03 Coefficients=  1.0000000000D+00
 S 1 1.00
     Exponent=  5.2240000000D+02 Coefficients=  1.0000000000D+00
 S 1 1.00
     Exponent=  1.4730000000D+02 Coefficients=  1.0000000000D+00
 S 1 1.00
     Exponent=  4.7550000000D+01 Coefficients=  1.0000000000D+00
 S 1 1.00
     Exponent=  1.6760000000D+01 Coefficients=  1.0000000000D+00
 S 1 1.00
     Exponent=  6.2070000000D+00 Coefficients=  1.0000000000D+00
 S 1 1.00
     Exponent=  6.8820000000D-01 Coefficients=  1.0000000000D+00
 S 1 1.00
     Exponent=  1.7520000000D+00 Coefficients=  1.0000000000D+00
 S 1 1.00
     Exponent=  2.3840000000D-01 Coefficients=  1.0000000000D+00
 S 1 1.00
     Exponent=  7.8450000000D+00 Coefficients=  1.0000000000D+00
 S 1 1.00
     Exponent=  2.1032000000D+01 Coefficients=  1.0000000000D+00
 S 1 1.00
     Exponent=  7.3760000000D-02 Coefficients=  1.0000000000D+00
 P 1 1.00
     Exponent=  3.4460000000D+01 Coefficients=  1.0000000000D+00
 P 1 1.00
     Exponent=  7.7490000000D+00 Coefficients=  1.0000000000D+00
 P 1 1.00
     Exponent=  2.2800000000D+00 Coefficients=  1.0000000000D+00
 P 1 1.00
     Exponent=  7.1560000000D-01 Coefficients=  1.0000000000D+00
 P 1 1.00
     Exponent=  2.1400000000D-01 Coefficients=  1.0000000000D+00
 P 1 1.00
     Exponent=  1.5159000000D+01 Coefficients=  1.0000000000D+00
 P 1 1.00
     Exponent=  5.7437000000D+01 Coefficients=  1.0000000000D+00
 P 1 1.00
     Exponent=  5.9740000000D-02 Coefficients=  1.0000000000D+00
 D 1 1.00
     Exponent=  2.3140000000D+00 Coefficients=  1.0000000000D+00
 D 1 1.00
     Exponent=  6.4500000000D-01 Coefficients=  1.0000000000D+00
 D 1 1.00
     Exponent=  1.5858000000D+01 Coefficients=  1.0000000000D+00
 D 1 1.00
     Exponent=  2.1400000000D-01 Coefficients=  1.0000000000D+00
 F 1 1.00
     Exponent=  1.4280000000D+00 Coefficients=  1.0000000000D+00
 F 1 1.00
     Exponent=  5.0000000000D-01 Coefficients=  1.0000000000D+00
 ****
 Ernie: Thresh=  0.10000D-02 Tol=  0.10000D-05 Strict=F.
 There are   144 symmetry adapted cartesian basis functions of A1  symmetry.
 There are    30 symmetry adapted cartesian basis functions of A2  symmetry.
 There are    69 symmetry adapted cartesian basis functions of B1  symmetry.
 There are    69 symmetry adapted cartesian basis functions of B2  symmetry.
 There are   114 symmetry adapted basis functions of A1  symmetry.
 There are    27 symmetry adapted basis functions of A2  symmetry.
 There are    60 symmetry adapted basis functions of B1  symmetry.
 There are    60 symmetry adapted basis functions of B2  symmetry.
   261 basis functions,   312 primitive gaussians,   312 cartesian basis functions
    19 alpha electrons       16 beta electrons
       nuclear repulsion energy        81.6444839705 Hartrees.
 IExCor=    0 DFT=F Ex=HF Corr=None ExCW=0 ScaHFX=  1.000000
 ScaDFX=  1.000000  1.000000  1.000000  1.000000 ScalE2=  1.000000  1.000000
 IRadAn=      5 IRanWt=     -1 IRanGd=            0 ICorTp=0 IEmpDi=  4
 NAtoms=    2 NActive=    2 NUniq=    2 SFac= 1.00D+00 NAtFMM=   60 NAOKFM=F Big=F
 Integral buffers will be    131072 words long.
 Raffenetti 2 integral format.
 Two-electron integral symmetry is turned on.
 FoFCou: FMM=F IPFlag=           8 FMFlag=           0 FMFlg1=           0
         NFxFlg=           0 DoJE=F BraDBF=T KetDBF=T FulRan=T
         wScrn=  0.000000 ICntrl=       600 IOpCl=  3 I1Cent=           6 NGrid=           0
         NMat0=    1 NMatS0=      2 NMatT0=    0 NMatD0=    1 NMtDS0=    0 NMtDT0=    0
 Symmetry not used in FoFCou.
 Finite nuclear repulsion energy        81.6444839705.
 Leave Link  301 at Sat Mar 31 13:49:32 2018, MaxMem= 10737418240 cpu:              13.8 elap:               0.5
 (Enter /home1/apps/gaussian/16rA.03/g16/l302.exe)
 Using DK4 one-electron Hamiltonian with SO, DoBoet=T.
 NPDir=0 NMtPBC=     1 NCelOv=     1 NCel=       1 NClECP=     1 NCelD=      1
         NCelK=      1 NCelE2=     1 NClLst=     1 CellRange=     0.0.
 One-electron integrals computed using PRISM.
 One-electron integral symmetry used in STVInt
 FoFCou: FMM=F IPFlag=           8 FMFlag=      100000 FMFlg1=           0
         NFxFlg=           0 DoJE=T BraDBF=F KetDBF=T FulRan=T
         wScrn=  0.000000 ICntrl=       500 IOpCl=  0 I1Cent=           4 NGrid=           0
         NMat0=    1 NMatS0=      1 NMatT0=    0 NMatD0=    1 NMtDS0=    0 NMtDT0=    0
 Symmetry not used in FoFCou.
 UnConB:  Uncontracting AO basis from    261 functions to    261 functions (excluding duplicates).
 RelInt: Using uncontracted basis, NUnBas=   261 NBsUse=   261 0.100E-13 EigKep=  1.60D-06 EigRej= -1.00D+00
 NBasis=   261 RedAO= T EigKep=  1.60D-06  NBF=   114    27    60    60
 NBsUse=   261 1.00D-06 EigRej= -1.00D+00 NBFU=   114    27    60    60
 Leave Link  302 at Sat Mar 31 13:49:39 2018, MaxMem= 10737418240 cpu:             191.6 elap:               7.1
 (Enter /home1/apps/gaussian/16rA.03/g16/l303.exe)
 DipDrv:  MaxL=1.
 Leave Link  303 at Sat Mar 31 13:49:40 2018, MaxMem= 10737418240 cpu:               2.3 elap:               0.1
 (Enter /home1/apps/gaussian/16rA.03/g16/l401.exe)
 Initial guess from the checkpoint file:  "tz.chk"
 B after Tr=     0.000000    0.000000   -0.000000
         Rot=    1.000000    0.000000    0.000000    0.000000 Ang=   0.00 deg.
 Guess basis will be translated and rotated to current coordinates.
 JPrj=2 DoOrth=T DoCkMO=T.
 Initial guess orbital symmetries:
       Occupied  (SG) (SG) (SG) (PI) (PI) (SG) (SG) (SG) (PI) (PI)
                 (SG) (SG) (PI) (PI) (DLTA) (SG) (DLTA) (PI) (PI)
       Virtual   (SG) (PI) (PI) (SG) (SG) (PI) (PI) (SG) (DLTA)
                 (DLTA) (PI) (PI) (SG) (SG) (SG) (PI) (PI) (PI)
                 (PI) (SG) (DLTA) (DLTA) (PI) (PI) (SG) (SG) (SG)
                 (DLTA) (DLTA) (PI) (PI) (SG) (PI) (PI) (SG) (PI)
                 (PI) (PHI) (PHI) (SG) (?A) (?A) (PI) (PI) (SG)
                 (?A) (?A) (SG) (PI) (PI) (SG) (PHI) (PHI) (DLTA)
                 (DLTA) (SG) (PI) (PI) (DLTA) (DLTA) (SG) (PI)
                 (PI) (PI) (PI) (SG) (SG) (PHI) (PHI) (DLTA) (DLTA)
                 (PI) (PI) (DLTA) (DLTA) (SG) (PI) (PI) (?B) (?B)
                 (PHI) (PHI) (SG) (PI) (PI) (DLTA) (DLTA) (SG)
                 (SG) (PI) (PI) (SG) (PHI) (PHI) (DLTA) (DLTA)
                 (SG) (PI) (PI) (SG) (DLTA) (DLTA) (PI) (PI) (SG)
                 (PI) (PI) (DLTA) (DLTA) (?C) (?C) (?C) (?C) (DLTA)
                 (DLTA) (SG) (SG) (PI) (PI) (SG) (?B) (?B) (?C)
                 (?C) (DLTA) (DLTA) (?C) (?C) (SG) (PI) (PI) (SG)
                 (PI) (PI) (SG) (SG) (SG) (DLTA) (DLTA) (PI) (PI)
                 (SG) (PHI) (PHI) (DLTA) (DLTA) (PI) (PI) (SG)
                 (PI) (PI) (SG) (?D) (?D) (?C) (?C) (DLTA) (DLTA)
                 (?C) (?C) (?D) (SG) (DLTA) (DLTA) (PI) (PI) (SG)
                 (SG) (PI) (PI) (DLTA) (DLTA) (PI) (PI) (SG) (SG)
                 (PI) (PI) (SG) (DLTA) (DLTA) (PI) (PI) (SG) (SG)
                 (SG) (PI) (PI) (SG) (PI) (PI) (SG) (DLTA) (DLTA)
                 (PI) (PI) (SG) (SG) (PI) (PI) (SG) (SG) (PI) (PI)
                 (SG) (SG) (PI) (PI) (SG) (DLTA) (DLTA) (PI) (PI)
                 (SG) (SG) (PI) (PI) (SG) (SG) (SG) (PI) (PI) (SG)
                 (SG) (PI) (PI) (SG) (SG) (SG) (SG) (PI) (PI) (SG)
                 (SG) (SG) (PI) (PI) (SG) (SG) (SG) (SG) (SG)
 Leave Link  401 at Sat Mar 31 13:49:41 2018, MaxMem= 10737418240 cpu:              14.3 elap:               0.5
 (Enter /home1/apps/gaussian/16rA.03/g16/l502.exe)
 Keep R1 and R2 ints in memory in symmetry-blocked form, NReq=734602573.
 FoFCou: FMM=F IPFlag=           8 FMFlag=           0 FMFlg1=           0
         NFxFlg=           0 DoJE=F BraDBF=F KetDBF=F FulRan=T
         wScrn=  0.000000 ICntrl=       600 IOpCl=  0 I1Cent=           0 NGrid=           0
         NMat0=    1 NMatS0=  34191 NMatT0=    0 NMatD0=    1 NMtDS0=    0 NMtDT0=    0
 Petite list used in FoFCou.
 Restricted open shell SCF:
 Using DIIS extrapolation, IDIIS=  1040.
 NGot= 10737418240 LenX= 10437146893 LenY= 10437049108
 Requested convergence on RMS density matrix=1.00D-08 within 400 cycles.
 Requested convergence on MAX density matrix=1.00D-06.
 Requested convergence on             energy=1.00D-06.
 No special actions if energy rises.

 Cycle   1  Pass 1  IDiag  1:
 E= -1466.57370149270    
 DIIS: error= 3.49D-02 at cycle   1 NSaved=   1.
 NSaved= 1 IEnMin= 1 EnMin= -1466.57370149270     IErMin= 1 ErrMin= 3.49D-02
 ErrMax= 3.49D-02  0.00D+00 EMaxC= 1.00D-01 BMatC= 9.52D-02 BMatP= 9.52D-02
 IDIUse=3 WtCom= 6.51D-01 WtEn= 3.49D-01
 Coeff-Com:  0.100D+01
 Coeff-En:   0.100D+01
 Coeff:      0.100D+01
 Fock symm off for IB=3 I1=   59 I=  200 J=   61 Cut=1.00D-07 Err=1.05D-07
 Fock matrix is not symmetric: symmetry in diagonalization turned off.
 Gap=    -0.247 Goal=   None    Shift=    0.000
 GapD=   -0.247 DampG=0.250 DampE=0.250 DampFc=0.1250 IDamp=-1.
 Damping current iteration by 1.25D-01
 RMSDP=3.39D-03 MaxDP=2.67D-01              OVMax= 1.00D+00

 Cycle   2  Pass 1  IDiag  1:
 E= -1466.57771926096     Delta-E=       -0.004017768260 Rises=F Damp=T
 DIIS: error= 3.11D-02 at cycle   2 NSaved=   2.
 NSaved= 2 IEnMin= 2 EnMin= -1466.57771926096     IErMin= 2 ErrMin= 3.11D-02
 ErrMax= 3.11D-02  0.00D+00 EMaxC= 1.00D-01 BMatC= 7.14D-02 BMatP= 9.52D-02
 IDIUse=3 WtCom= 6.89D-01 WtEn= 3.11D-01
 Coeff-Com: -0.239D+01 0.339D+01
 Coeff-En:   0.000D+00 0.100D+01
 Coeff:     -0.165D+01 0.265D+01
 Gap=     0.164 Goal=   None    Shift=    0.000
 RMSDP=3.03D-03 MaxDP=2.34D-01 DE=-4.02D-03 OVMax= 2.29D-01

 Cycle   3  Pass 1  IDiag  1:
 E= -1466.55036280057     Delta-E=        0.027356460390 Rises=F Damp=F
 DIIS: error= 2.33D-02 at cycle   3 NSaved=   3.
 NSaved= 3 IEnMin= 2 EnMin= -1466.57771926096     IErMin= 3 ErrMin= 2.33D-02
 ErrMax= 2.33D-02  0.00D+00 EMaxC= 1.00D-01 BMatC= 4.20D-02 BMatP= 7.14D-02
 IDIUse=3 WtCom= 7.67D-01 WtEn= 2.33D-01
 Coeff-Com: -0.206D+01 0.248D+01 0.581D+00
 Coeff-En:   0.000D+00 0.814D+00 0.186D+00
 Coeff:     -0.158D+01 0.209D+01 0.489D+00
 Gap=     0.148 Goal=   None    Shift=    0.000
 RMSDP=4.61D-04 MaxDP=2.32D-02 DE= 2.74D-02 OVMax= 1.16D-01

 Cycle   4  Pass 1  IDiag  1:
 E= -1466.60520210164     Delta-E=       -0.054839301077 Rises=F Damp=F
 DIIS: error= 1.35D-02 at cycle   4 NSaved=   4.
 NSaved= 4 IEnMin= 4 EnMin= -1466.60520210164     IErMin= 4 ErrMin= 1.35D-02
 ErrMax= 1.35D-02  0.00D+00 EMaxC= 1.00D-01 BMatC= 1.26D-02 BMatP= 4.20D-02
 IDIUse=3 WtCom= 8.65D-01 WtEn= 1.35D-01
 Coeff-Com: -0.165D+01 0.185D+01 0.270D+00 0.530D+00
 Coeff-En:   0.000D+00 0.000D+00 0.000D+00 0.100D+01
 Coeff:     -0.143D+01 0.160D+01 0.234D+00 0.594D+00
 Gap=     0.150 Goal=   None    Shift=    0.000
 RMSDP=2.47D-04 MaxDP=1.59D-02 DE=-5.48D-02 OVMax= 3.33D-02

 Cycle   5  Pass 1  IDiag  1:
 E= -1466.61522736032     Delta-E=       -0.010025258676 Rises=F Damp=F
 DIIS: error= 8.60D-03 at cycle   5 NSaved=   5.
 NSaved= 5 IEnMin= 5 EnMin= -1466.61522736032     IErMin= 5 ErrMin= 8.60D-03
 ErrMax= 8.60D-03  0.00D+00 EMaxC= 1.00D-01 BMatC= 6.26D-03 BMatP= 1.26D-02
 IDIUse=3 WtCom= 9.14D-01 WtEn= 8.60D-02
 Coeff-Com: -0.139D+01 0.156D+01 0.137D+00 0.331D+00 0.369D+00
 Coeff-En:   0.000D+00 0.000D+00 0.000D+00 0.000D+00 0.100D+01
 Coeff:     -0.127D+01 0.142D+01 0.125D+00 0.302D+00 0.423D+00
 Gap=     0.141 Goal=   None    Shift=    0.000
 RMSDP=1.57D-04 MaxDP=8.83D-03 DE=-1.00D-02 OVMax= 1.28D-02

 Cycle   6  Pass 1  IDiag  1:
 E= -1466.61901737114     Delta-E=       -0.003790010823 Rises=F Damp=F
 DIIS: error= 8.53D-03 at cycle   6 NSaved=   6.
 NSaved= 6 IEnMin= 6 EnMin= -1466.61901737114     IErMin= 6 ErrMin= 8.53D-03
 ErrMax= 8.53D-03  0.00D+00 EMaxC= 1.00D-01 BMatC= 4.21D-03 BMatP= 6.26D-03
 IDIUse=3 WtCom= 9.15D-01 WtEn= 8.53D-02
 Coeff-Com: -0.739D+00 0.840D+00-0.466D-01-0.399D+00 0.268D+00 0.108D+01
 Coeff-En:   0.000D+00 0.000D+00 0.000D+00 0.000D+00 0.000D+00 0.100D+01
 Coeff:     -0.676D+00 0.768D+00-0.427D-01-0.365D+00 0.245D+00 0.107D+01
 Gap=     0.126 Goal=   None    Shift=    0.000
 RMSDP=2.11D-04 MaxDP=1.38D-02 DE=-3.79D-03 OVMax= 3.93D-02

 Cycle   7  Pass 1  IDiag  1:
 E= -1466.62858143002     Delta-E=       -0.009564058879 Rises=F Damp=F
 DIIS: error= 3.93D-03 at cycle   7 NSaved=   7.
 NSaved= 7 IEnMin= 7 EnMin= -1466.62858143002     IErMin= 7 ErrMin= 3.93D-03
 ErrMax= 3.93D-03  0.00D+00 EMaxC= 1.00D-01 BMatC= 1.63D-03 BMatP= 4.21D-03
 IDIUse=3 WtCom= 9.61D-01 WtEn= 3.93D-02
 Coeff-Com: -0.427D+00 0.490D+00 0.343D-02-0.419D+00 0.149D+00 0.531D+00
 Coeff-Com:  0.673D+00
 Coeff-En:   0.000D+00 0.000D+00 0.000D+00 0.000D+00 0.000D+00 0.000D+00
 Coeff-En:   0.100D+01
 Coeff:     -0.411D+00 0.471D+00 0.330D-02-0.402D+00 0.143D+00 0.510D+00
 Coeff:      0.686D+00
 Gap=     0.120 Goal=   None    Shift=    0.000
 RMSDP=1.99D-04 MaxDP=1.20D-02 DE=-9.56D-03 OVMax= 2.44D-02

 Cycle   8  Pass 1  IDiag  1:
 E= -1466.63128714914     Delta-E=       -0.002705719120 Rises=F Damp=F
 DIIS: error= 3.50D-03 at cycle   8 NSaved=   8.
 NSaved= 8 IEnMin= 8 EnMin= -1466.63128714914     IErMin= 8 ErrMin= 3.50D-03
 ErrMax= 3.50D-03  0.00D+00 EMaxC= 1.00D-01 BMatC= 9.12D-04 BMatP= 1.63D-03
 IDIUse=3 WtCom= 9.65D-01 WtEn= 3.50D-02
 Coeff-Com: -0.252D+00 0.289D+00 0.452D-01-0.285D+00 0.954D-01 0.241D-01
 Coeff-Com:  0.573D+00 0.510D+00
 Coeff-En:   0.000D+00 0.000D+00 0.000D+00 0.000D+00 0.000D+00 0.000D+00
 Coeff-En:   0.000D+00 0.100D+01
 Coeff:     -0.244D+00 0.279D+00 0.436D-01-0.275D+00 0.921D-01 0.233D-01
 Coeff:      0.553D+00 0.528D+00
 Gap=     0.117 Goal=   None    Shift=    0.000
 RMSDP=1.29D-04 MaxDP=7.25D-03 DE=-2.71D-03 OVMax= 1.79D-02

 Cycle   9  Pass 1  IDiag  1:
 E= -1466.63289081036     Delta-E=       -0.001603661224 Rises=F Damp=F
 DIIS: error= 2.10D-03 at cycle   9 NSaved=   9.
 NSaved= 9 IEnMin= 9 EnMin= -1466.63289081036     IErMin= 9 ErrMin= 2.10D-03
 ErrMax= 2.10D-03  0.00D+00 EMaxC= 1.00D-01 BMatC= 2.94D-04 BMatP= 9.12D-04
 IDIUse=3 WtCom= 9.79D-01 WtEn= 2.10D-02
 Coeff-Com: -0.708D-01 0.778D-01-0.791D-02 0.707D-01-0.416D-01 0.292D+00
 Coeff-Com: -0.106D+01-0.435D+00 0.217D+01
 Coeff-En:   0.000D+00 0.000D+00 0.000D+00 0.000D+00 0.000D+00 0.000D+00
 Coeff-En:   0.000D+00 0.000D+00 0.100D+01
 Coeff:     -0.694D-01 0.762D-01-0.775D-02 0.692D-01-0.407D-01 0.286D+00
 Coeff:     -0.103D+01-0.426D+00 0.215D+01
 Gap=     0.112 Goal=   None    Shift=    0.000
 RMSDP=1.18D-04 MaxDP=4.43D-03 DE=-1.60D-03 OVMax= 2.27D-02

 Cycle  10  Pass 1  IDiag  1:
 Density matrix breaks symmetry, PCut= 1.00D-07
 Density matrix has no symmetry -- integrals replicated.
 E= -1466.63403079672     Delta-E=       -0.001139986354 Rises=F Damp=F
 DIIS: error= 6.98D-04 at cycle  10 NSaved=  10.
 NSaved=10 IEnMin=10 EnMin= -1466.63403079672     IErMin=10 ErrMin= 6.98D-04
 ErrMax= 6.98D-04  0.00D+00 EMaxC= 1.00D-01 BMatC= 4.44D-05 BMatP= 2.94D-04
 IDIUse=3 WtCom= 9.93D-01 WtEn= 6.98D-03
 Coeff-Com: -0.434D-01 0.482D-01-0.187D-01 0.456D-01-0.737D-01 0.198D+00
 Coeff-Com: -0.286D+00-0.315D+00 0.277D+00 0.117D+01
 Coeff-En:   0.000D+00 0.000D+00 0.000D+00 0.000D+00 0.000D+00 0.000D+00
 Coeff-En:   0.000D+00 0.000D+00 0.000D+00 0.100D+01
 Coeff:     -0.431D-01 0.479D-01-0.186D-01 0.453D-01-0.732D-01 0.197D+00
 Coeff:     -0.284D+00-0.313D+00 0.275D+00 0.117D+01
 Gap=     0.110 Goal=   None    Shift=    0.000
 RMSDP=5.45D-05 MaxDP=2.14D-03 DE=-1.14D-03 OVMax= 9.33D-03

 Cycle  11  Pass 1  IDiag  1:
 Density matrix breaks symmetry, PCut= 1.00D-07
 Density matrix has no symmetry -- integrals replicated.
 E= -1466.63414914761     Delta-E=       -0.000118350888 Rises=F Damp=F
 DIIS: error= 5.27D-04 at cycle  11 NSaved=  11.
 NSaved=11 IEnMin=11 EnMin= -1466.63414914761     IErMin=11 ErrMin= 5.27D-04
 ErrMax= 5.27D-04  0.00D+00 EMaxC= 1.00D-01 BMatC= 2.59D-05 BMatP= 4.44D-05
 IDIUse=3 WtCom= 9.95D-01 WtEn= 5.27D-03
 Coeff-Com: -0.308D-01 0.351D-01-0.137D-01 0.661D-02-0.426D-01 0.446D-01
 Coeff-Com:  0.139D+00-0.505D-01-0.470D+00 0.753D+00 0.630D+00
 Coeff-En:   0.000D+00 0.000D+00 0.000D+00 0.000D+00 0.000D+00 0.000D+00
 Coeff-En:   0.000D+00 0.000D+00 0.000D+00 0.000D+00 0.100D+01
 Coeff:     -0.307D-01 0.349D-01-0.137D-01 0.658D-02-0.424D-01 0.444D-01
 Coeff:      0.138D+00-0.502D-01-0.468D+00 0.749D+00 0.632D+00
 Gap=     0.110 Goal=   None    Shift=    0.000
 RMSDP=3.45D-05 MaxDP=3.50D-03 DE=-1.18D-04 OVMax= 4.02D-03

 Cycle  12  Pass 1  IDiag  1:
 Density matrix breaks symmetry, PCut= 1.00D-07
 Density matrix has no symmetry -- integrals replicated.
 E= -1466.63418007982     Delta-E=       -0.000030932214 Rises=F Damp=F
 DIIS: error= 3.00D-04 at cycle  12 NSaved=  12.
 NSaved=12 IEnMin=12 EnMin= -1466.63418007982     IErMin=12 ErrMin= 3.00D-04
 ErrMax= 3.00D-04  0.00D+00 EMaxC= 1.00D-01 BMatC= 9.70D-06 BMatP= 2.59D-05
 IDIUse=3 WtCom= 9.97D-01 WtEn= 3.00D-03
 Coeff-Com: -0.227D-01 0.259D-01-0.545D-02 0.225D-02-0.218D-01-0.200D-01
 Coeff-Com:  0.127D+00 0.622D-01-0.310D+00 0.174D+00 0.317D+00 0.672D+00
 Coeff-En:   0.000D+00 0.000D+00 0.000D+00 0.000D+00 0.000D+00 0.000D+00
 Coeff-En:   0.000D+00 0.000D+00 0.000D+00 0.000D+00 0.000D+00 0.100D+01
 Coeff:     -0.226D-01 0.258D-01-0.543D-02 0.224D-02-0.217D-01-0.199D-01
 Coeff:      0.126D+00 0.621D-01-0.309D+00 0.173D+00 0.316D+00 0.673D+00
 Gap=     0.109 Goal=   None    Shift=    0.000
 RMSDP=2.69D-05 MaxDP=1.41D-03 DE=-3.09D-05 OVMax= 1.37D-03

 Cycle  13  Pass 1  IDiag  1:
 Density matrix breaks symmetry, PCut= 1.00D-07
 Density matrix has no symmetry -- integrals replicated.
 E= -1466.63418608403     Delta-E=       -0.000006004205 Rises=F Damp=F
 DIIS: error= 1.92D-04 at cycle  13 NSaved=  13.
 NSaved=13 IEnMin=13 EnMin= -1466.63418608403     IErMin=13 ErrMin= 1.92D-04
 ErrMax= 1.92D-04  0.00D+00 EMaxC= 1.00D-01 BMatC= 4.36D-06 BMatP= 9.70D-06
 IDIUse=3 WtCom= 9.98D-01 WtEn= 1.92D-03
 Coeff-Com: -0.166D-01 0.189D-01-0.158D-02 0.692D-03-0.106D-01-0.939D-02
 Coeff-Com:  0.169D-01 0.511D-01-0.189D-01-0.101D+00-0.358D-01 0.198D+00
 Coeff-Com:  0.908D+00
 Coeff-En:   0.000D+00 0.000D+00 0.000D+00 0.000D+00 0.000D+00 0.000D+00
 Coeff-En:   0.000D+00 0.000D+00 0.000D+00 0.000D+00 0.000D+00 0.000D+00
 Coeff-En:   0.100D+01
 Coeff:     -0.165D-01 0.189D-01-0.158D-02 0.691D-03-0.106D-01-0.937D-02
 Coeff:      0.169D-01 0.510D-01-0.188D-01-0.101D+00-0.357D-01 0.198D+00
 Coeff:      0.908D+00
 Gap=     0.109 Goal=   None    Shift=    0.000
 RMSDP=7.30D-06 MaxDP=5.16D-04 DE=-6.00D-06 OVMax= 4.47D-04

 Cycle  14  Pass 1  IDiag  1:
 Density matrix breaks symmetry, PCut= 1.00D-07
 Density matrix has no symmetry -- integrals replicated.
 E= -1466.63418810160     Delta-E=       -0.000002017574 Rises=F Damp=F
 DIIS: error= 1.37D-04 at cycle  14 NSaved=  14.
 NSaved=14 IEnMin=14 EnMin= -1466.63418810160     IErMin=14 ErrMin= 1.37D-04
 ErrMax= 1.37D-04  0.00D+00 EMaxC= 1.00D-01 BMatC= 1.61D-06 BMatP= 4.36D-06
 IDIUse=3 WtCom= 9.99D-01 WtEn= 1.37D-03
 Coeff-Com: -0.123D-01 0.141D-01-0.149D-02-0.138D-02-0.618D-02 0.447D-02
 Coeff-Com: -0.153D-02 0.137D-01 0.110D-01-0.412D-01-0.412D-01-0.298D-01
 Coeff-Com:  0.171D+00 0.920D+00
 Coeff-En:   0.000D+00 0.000D+00 0.000D+00 0.000D+00 0.000D+00 0.000D+00
 Coeff-En:   0.000D+00 0.000D+00 0.000D+00 0.000D+00 0.000D+00 0.000D+00
 Coeff-En:   0.000D+00 0.100D+01
 Coeff:     -0.123D-01 0.141D-01-0.149D-02-0.137D-02-0.617D-02 0.446D-02
 Coeff:     -0.153D-02 0.137D-01 0.110D-01-0.412D-01-0.412D-01-0.298D-01
 Coeff:      0.171D+00 0.921D+00
 Gap=     0.109 Goal=   None    Shift=    0.000
 RMSDP=4.16D-06 MaxDP=2.81D-04 DE=-2.02D-06 OVMax= 3.87D-04

 Cycle  15  Pass 1  IDiag  1:
 Density matrix breaks symmetry, PCut= 1.00D-07
 Density matrix has no symmetry -- integrals replicated.
 E= -1466.63418901988     Delta-E=       -0.000000918282 Rises=F Damp=F
 DIIS: error= 8.96D-05 at cycle  15 NSaved=  15.
 NSaved=15 IEnMin=15 EnMin= -1466.63418901988     IErMin=15 ErrMin= 8.96D-05
 ErrMax= 8.96D-05  0.00D+00 EMaxC= 1.00D-01 BMatC= 5.79D-07 BMatP= 1.61D-06
 IDIUse=1 WtCom= 1.00D+00 WtEn= 0.00D+00
 Coeff-Com: -0.840D-02 0.960D-02-0.860D-03-0.978D-03-0.191D-02 0.554D-02
 Coeff-Com: -0.268D-02-0.665D-02 0.297D-02 0.180D-01-0.542D-02-0.888D-01
 Coeff-Com: -0.283D+00 0.595D+00 0.768D+00
 Coeff:     -0.840D-02 0.960D-02-0.860D-03-0.978D-03-0.191D-02 0.554D-02
 Coeff:     -0.268D-02-0.665D-02 0.297D-02 0.180D-01-0.542D-02-0.888D-01
 Coeff:     -0.283D+00 0.595D+00 0.768D+00
 Gap=     0.109 Goal=   None    Shift=    0.000
 RMSDP=2.06D-06 MaxDP=1.21D-04 DE=-9.18D-07 OVMax= 2.47D-04

 Cycle  16  Pass 1  IDiag  1:
 Density matrix breaks symmetry, PCut= 1.00D-07
 Density matrix has no symmetry -- integrals replicated.
 E= -1466.63418943447     Delta-E=       -0.000000414584 Rises=F Damp=F
 DIIS: error= 6.18D-05 at cycle  16 NSaved=  16.
 NSaved=16 IEnMin=16 EnMin= -1466.63418943447     IErMin=16 ErrMin= 6.18D-05
 ErrMax= 6.18D-05  0.00D+00 EMaxC= 1.00D-01 BMatC= 2.02D-07 BMatP= 5.79D-07
 IDIUse=1 WtCom= 1.00D+00 WtEn= 0.00D+00
 Coeff-Com: -0.661D-02 0.753D-02-0.435D-03-0.459D-04-0.748D-04 0.126D-02
 Coeff-Com: -0.137D-02-0.463D-02-0.959D-03 0.157D-01 0.368D-02-0.398D-01
 Coeff-Com: -0.169D+00 0.176D+00 0.356D+00 0.663D+00
 Coeff:     -0.661D-02 0.753D-02-0.435D-03-0.459D-04-0.748D-04 0.126D-02
 Coeff:     -0.137D-02-0.463D-02-0.959D-03 0.157D-01 0.368D-02-0.398D-01
 Coeff:     -0.169D+00 0.176D+00 0.356D+00 0.663D+00
 Gap=     0.109 Goal=   None    Shift=    0.000
 RMSDP=1.11D-06 MaxDP=5.98D-05 DE=-4.15D-07 OVMax= 1.12D-04

 Cycle  17  Pass 1  IDiag  1:
 Density matrix breaks symmetry, PCut= 1.00D-07
 Density matrix has no symmetry -- integrals replicated.
 E= -1466.63418956576     Delta-E=       -0.000000131297 Rises=F Damp=F
 DIIS: error= 4.91D-05 at cycle  17 NSaved=  17.
 NSaved=17 IEnMin=17 EnMin= -1466.63418956576     IErMin=17 ErrMin= 4.91D-05
 ErrMax= 4.91D-05  0.00D+00 EMaxC= 1.00D-01 BMatC= 1.23D-07 BMatP= 2.02D-07
 IDIUse=1 WtCom= 1.00D+00 WtEn= 0.00D+00
 Coeff-Com: -0.517D-02 0.588D-02-0.258D-03 0.323D-03 0.575D-03-0.912D-03
 Coeff-Com: -0.891D-03-0.114D-02-0.108D-02 0.483D-02 0.342D-02-0.265D-02
 Coeff-Com: -0.287D-01-0.176D-01-0.238D-01 0.329D+00 0.738D+00
 Coeff:     -0.517D-02 0.588D-02-0.258D-03 0.323D-03 0.575D-03-0.912D-03
 Coeff:     -0.891D-03-0.114D-02-0.108D-02 0.483D-02 0.342D-02-0.265D-02
 Coeff:     -0.287D-01-0.176D-01-0.238D-01 0.329D+00 0.738D+00
 Gap=     0.109 Goal=   None    Shift=    0.000
 RMSDP=8.64D-07 MaxDP=5.50D-05 DE=-1.31D-07 OVMax= 1.16D-04

 Cycle  18  Pass 1  IDiag  1:
 Density matrix breaks symmetry, PCut= 1.00D-07
 Density matrix has no symmetry -- integrals replicated.
 E= -1466.63418967319     Delta-E=       -0.000000107424 Rises=F Damp=F
 DIIS: error= 3.71D-05 at cycle  18 NSaved=  18.
 NSaved=18 IEnMin=18 EnMin= -1466.63418967319     IErMin=18 ErrMin= 3.71D-05
 ErrMax= 3.71D-05  0.00D+00 EMaxC= 1.00D-01 BMatC= 7.23D-08 BMatP= 1.23D-07
 IDIUse=1 WtCom= 1.00D+00 WtEn= 0.00D+00
 Coeff-Com: -0.424D-02 0.481D-02-0.168D-03 0.370D-03 0.489D-03-0.122D-02
 Coeff-Com: -0.961D-03 0.299D-03 0.102D-03-0.817D-03 0.105D-02 0.561D-02
 Coeff-Com:  0.189D-01-0.315D-01-0.122D+00 0.804D-02 0.627D+00 0.495D+00
 Coeff:     -0.424D-02 0.481D-02-0.168D-03 0.370D-03 0.489D-03-0.122D-02
 Coeff:     -0.961D-03 0.299D-03 0.102D-03-0.817D-03 0.105D-02 0.561D-02
 Coeff:      0.189D-01-0.315D-01-0.122D+00 0.804D-02 0.627D+00 0.495D+00
 Gap=     0.109 Goal=   None    Shift=    0.000
 RMSDP=6.46D-07 MaxDP=5.07D-05 DE=-1.07D-07 OVMax= 8.98D-05

 Cycle  19  Pass 1  IDiag  1:
 Density matrix breaks symmetry, PCut= 1.00D-07
 Density matrix has no symmetry -- integrals replicated.
 E= -1466.63418973000     Delta-E=       -0.000000056816 Rises=F Damp=F
 DIIS: error= 3.01D-05 at cycle  19 NSaved=  19.
 NSaved=19 IEnMin=19 EnMin= -1466.63418973000     IErMin=19 ErrMin= 3.01D-05
 ErrMax= 3.01D-05  0.00D+00 EMaxC= 1.00D-01 BMatC= 4.69D-08 BMatP= 7.23D-08
 IDIUse=1 WtCom= 1.00D+00 WtEn= 0.00D+00
 Coeff-Com: -0.238D-02 0.269D-02-0.249D-04 0.238D-03-0.681D-04-0.611D-03
 Coeff-Com: -0.108D-02 0.125D-02 0.237D-02-0.592D-02-0.360D-02 0.756D-03
 Coeff-Com:  0.317D-01 0.502D-01-0.845D-01-0.435D+00-0.114D+00 0.523D+00
 Coeff-Com:  0.104D+01
 Coeff:     -0.238D-02 0.269D-02-0.249D-04 0.238D-03-0.681D-04-0.611D-03
 Coeff:     -0.108D-02 0.125D-02 0.237D-02-0.592D-02-0.360D-02 0.756D-03
 Coeff:      0.317D-01 0.502D-01-0.845D-01-0.435D+00-0.114D+00 0.523D+00
 Coeff:      0.104D+01
 Gap=     0.109 Goal=   None    Shift=    0.000
 RMSDP=6.94D-07 MaxDP=2.94D-05 DE=-5.68D-08 OVMax= 1.14D-04

 Cycle  20  Pass 1  IDiag  1:
 Density matrix breaks symmetry, PCut= 1.00D-07
 Density matrix has no symmetry -- integrals replicated.
 E= -1466.63418980507     Delta-E=       -0.000000075064 Rises=F Damp=F
 DIIS: error= 1.74D-05 at cycle  20 NSaved=  20.
 NSaved=20 IEnMin=20 EnMin= -1466.63418980507     IErMin=20 ErrMin= 1.74D-05
 ErrMax= 1.74D-05  0.00D+00 EMaxC= 1.00D-01 BMatC= 1.50D-08 BMatP= 4.69D-08
 IDIUse=1 WtCom= 1.00D+00 WtEn= 0.00D+00
 Coeff-Com: -0.404D-03 0.460D-03-0.536D-04-0.149D-03-0.150D-03 0.465D-03
 Coeff-Com:  0.209D-03-0.477D-03 0.163D-03 0.612D-03-0.160D-02-0.107D-01
 Coeff-Com: -0.293D-01 0.990D-01 0.961D-01-0.182D+00-0.491D+00-0.241D+00
 Coeff-Com:  0.278D+00 0.148D+01
 Coeff:     -0.404D-03 0.460D-03-0.536D-04-0.149D-03-0.150D-03 0.465D-03
 Coeff:      0.209D-03-0.477D-03 0.163D-03 0.612D-03-0.160D-02-0.107D-01
 Coeff:     -0.293D-01 0.990D-01 0.961D-01-0.182D+00-0.491D+00-0.241D+00
 Coeff:      0.278D+00 0.148D+01
 Gap=     0.109 Goal=   None    Shift=    0.000
 DSYEVD-2 returned Info=         523 IAlg= 4 N=   261 NDim=   261 NE2=    39988692 trying  DSYEV.
 RMSDP=6.75D-07 MaxDP=2.82D-05 DE=-7.51D-08 OVMax= 1.37D-04

 Cycle  21  Pass 1  IDiag  1:
 Density matrix breaks symmetry, PCut= 1.00D-07
 Density matrix has no symmetry -- integrals replicated.
 E= -1466.63418984104     Delta-E=       -0.000000035970 Rises=F Damp=F
 DIIS: error= 2.75D-06 at cycle  21 NSaved=  20.
 NSaved=20 IEnMin=20 EnMin= -1466.63418984104     IErMin=20 ErrMin= 2.75D-06
 ErrMax= 2.75D-06  0.00D+00 EMaxC= 1.00D-01 BMatC= 4.69D-10 BMatP= 1.50D-08
 IDIUse=1 WtCom= 1.00D+00 WtEn= 0.00D+00
 Coeff-Com: -0.115D-03 0.131D-03-0.630D-04-0.634D-04 0.157D-03 0.128D-03
 Coeff-Com: -0.232D-03 0.255D-03 0.195D-03-0.108D-02-0.646D-02-0.179D-01
 Coeff-Com:  0.556D-01 0.589D-01-0.969D-01-0.301D+00-0.180D+00 0.110D+00
 Coeff-Com:  0.917D+00 0.462D+00
 Coeff:     -0.115D-03 0.131D-03-0.630D-04-0.634D-04 0.157D-03 0.128D-03
 Coeff:     -0.232D-03 0.255D-03 0.195D-03-0.108D-02-0.646D-02-0.179D-01
 Coeff:      0.556D-01 0.589D-01-0.969D-01-0.301D+00-0.180D+00 0.110D+00
 Coeff:      0.917D+00 0.462D+00
 Gap=     0.109 Goal=   None    Shift=    0.000
 RMSDP=1.99D-07 MaxDP=1.33D-05 DE=-3.60D-08 OVMax= 2.99D-05

 Cycle  22  Pass 1  IDiag  1:
 Density matrix breaks symmetry, PCut= 1.00D-07
 Density matrix has no symmetry -- integrals replicated.
 E= -1466.63418984194     Delta-E=       -0.000000000906 Rises=F Damp=F
 DIIS: error= 7.54D-07 at cycle  22 NSaved=  20.
 NSaved=20 IEnMin=20 EnMin= -1466.63418984194     IErMin=20 ErrMin= 7.54D-07
 ErrMax= 7.54D-07  0.00D+00 EMaxC= 1.00D-01 BMatC= 8.16D-11 BMatP= 4.69D-10
 IDIUse=1 WtCom= 1.00D+00 WtEn= 0.00D+00
 Coeff-Com:  0.383D-06 0.109D-04-0.549D-05 0.977D-05 0.253D-04-0.738D-04
 Coeff-Com: -0.111D-03 0.521D-03 0.313D-03-0.446D-03-0.337D-02 0.464D-03
 Coeff-Com:  0.858D-02 0.290D-01 0.497D-02-0.506D-01-0.935D-01 0.258D-01
 Coeff-Com:  0.492D+00 0.587D+00
 Coeff:      0.383D-06 0.109D-04-0.549D-05 0.977D-05 0.253D-04-0.738D-04
 Coeff:     -0.111D-03 0.521D-03 0.313D-03-0.446D-03-0.337D-02 0.464D-03
 Coeff:      0.858D-02 0.290D-01 0.497D-02-0.506D-01-0.935D-01 0.258D-01
 Coeff:      0.492D+00 0.587D+00
 Gap=     0.109 Goal=   None    Shift=    0.000
 RMSDP=9.65D-08 MaxDP=6.87D-06 DE=-9.06D-10 OVMax= 1.38D-05

 Cycle  23  Pass 1  IDiag  1:
 Density matrix breaks symmetry, PCut= 1.00D-07
 Density matrix has no symmetry -- integrals replicated.
 E= -1466.63418984213     Delta-E=       -0.000000000186 Rises=F Damp=F
 DIIS: error= 1.29D-07 at cycle  23 NSaved=  20.
 NSaved=20 IEnMin=20 EnMin= -1466.63418984213     IErMin=20 ErrMin= 1.29D-07
 ErrMax= 1.29D-07  0.00D+00 EMaxC= 1.00D-01 BMatC= 2.33D-12 BMatP= 8.16D-11
 IDIUse=1 WtCom= 1.00D+00 WtEn= 0.00D+00
 Coeff-Com:  0.872D-05 0.260D-05-0.639D-05 0.761D-05-0.174D-04-0.695D-04
 Coeff-Com:  0.240D-03 0.206D-03 0.109D-03-0.781D-03-0.281D-02 0.120D-02
 Coeff-Com:  0.203D-01 0.187D-01-0.165D-01-0.544D-01-0.359D-01 0.241D+00
 Coeff-Com:  0.319D+00 0.510D+00
 Coeff:      0.872D-05 0.260D-05-0.639D-05 0.761D-05-0.174D-04-0.695D-04
 Coeff:      0.240D-03 0.206D-03 0.109D-03-0.781D-03-0.281D-02 0.120D-02
 Coeff:      0.203D-01 0.187D-01-0.165D-01-0.544D-01-0.359D-01 0.241D+00
 Coeff:      0.319D+00 0.510D+00
 Gap=     0.109 Goal=   None    Shift=    0.000
 RMSDP=3.70D-08 MaxDP=2.86D-06 DE=-1.86D-10 OVMax= 3.26D-06

 Cycle  24  Pass 1  IDiag  1:
 Density matrix breaks symmetry, PCut= 1.00D-07
 Density matrix has no symmetry -- integrals replicated.
 E= -1466.63418984213     Delta-E=       -0.000000000003 Rises=F Damp=F
 DIIS: error= 1.18D-07 at cycle  24 NSaved=  20.
 NSaved=20 IEnMin=20 EnMin= -1466.63418984213     IErMin=20 ErrMin= 1.18D-07
 ErrMax= 1.18D-07  0.00D+00 EMaxC= 1.00D-01 BMatC= 1.52D-12 BMatP= 2.33D-12
 IDIUse=1 WtCom= 1.00D+00 WtEn= 0.00D+00
 Coeff-Com:  0.683D-05-0.114D-04 0.506D-06 0.262D-04-0.130D-04-0.541D-04
 Coeff-Com:  0.190D-04 0.302D-03 0.946D-03-0.267D-02-0.310D-02 0.386D-02
 Coeff-Com:  0.142D-01 0.100D-01-0.275D-02-0.456D-01-0.243D-01 0.658D-03
 Coeff-Com:  0.491D+00 0.558D+00
 Coeff:      0.683D-05-0.114D-04 0.506D-06 0.262D-04-0.130D-04-0.541D-04
 Coeff:      0.190D-04 0.302D-03 0.946D-03-0.267D-02-0.310D-02 0.386D-02
 Coeff:      0.142D-01 0.100D-01-0.275D-02-0.456D-01-0.243D-01 0.658D-03
 Coeff:      0.491D+00 0.558D+00
 Gap=     0.109 Goal=   None    Shift=    0.000
 RMSDP=1.78D-08 MaxDP=1.37D-06 DE=-2.73D-12 OVMax= 1.67D-06

 Cycle  25  Pass 1  IDiag  1:
 E= -1466.63418984213     Delta-E=       -0.000000000002 Rises=F Damp=F
 DIIS: error= 4.22D-08 at cycle  25 NSaved=  20.
 NSaved=20 IEnMin=20 EnMin= -1466.63418984213     IErMin=20 ErrMin= 4.22D-08
 ErrMax= 4.22D-08  0.00D+00 EMaxC= 1.00D-01 BMatC= 1.44D-13 BMatP= 1.52D-12
 IDIUse=1 WtCom= 1.00D+00 WtEn= 0.00D+00
 Coeff-Com: -0.103D-06-0.475D-06 0.206D-05 0.279D-05-0.285D-04-0.207D-04
 Coeff-Com:  0.631D-05 0.198D-03 0.497D-03-0.219D-03-0.268D-02-0.195D-02
 Coeff-Com:  0.225D-02 0.629D-02 0.277D-02-0.327D-01-0.403D-01-0.209D-02
 Coeff-Com:  0.605D-01 0.101D+01
 Coeff:     -0.103D-06-0.475D-06 0.206D-05 0.279D-05-0.285D-04-0.207D-04
 Coeff:      0.631D-05 0.198D-03 0.497D-03-0.219D-03-0.268D-02-0.195D-02
 Coeff:      0.225D-02 0.629D-02 0.277D-02-0.327D-01-0.403D-01-0.209D-02
 Coeff:      0.605D-01 0.101D+01
 Gap=     0.109 Goal=   None    Shift=    0.000
 RMSDP=3.77D-09 MaxDP=1.96D-07 DE=-2.27D-12 OVMax= 4.13D-07

 Density matrix breaks symmetry, PCut= 1.00D-07
 Density matrix has no symmetry -- integrals replicated.
 SCF Done:  E(ROHF) =  -1466.63418984     A.U. after   25 cycles
            NFock= 25  Conv=0.38D-08     -V/T= 1.9580
 <Sx>= 0.0000 <Sy>= 0.0000 <Sz>= 1.5000 <S**2>= 3.7500 S= 1.5000
 <L.S>=  0.00000000000    
 KE= 1.530906150065D+03 PE=-3.724195725136D+03 EE= 6.450109012582D+02
 Annihilation of the first spin contaminant:
 S**2 before annihilation     3.7500,   after     3.7500
 Leave Link  502 at Sat Mar 31 13:50:12 2018, MaxMem= 10737418240 cpu:             656.8 elap:              30.9
 (Enter /home1/apps/gaussian/16rA.03/g16/l801.exe)
 Windowed orbitals will be sorted by symmetry type.
 An orbital has undefined symmetry, so N**3 symmetry is turned off.
 Density matrix breaks symmetry, PCut= 1.00D-07
 Density matrix has no symmetry -- integrals replicated.
 GenMOA:  NOpAll=  4 NOp2=4 NOpUse=  1 JSym2X=2
 FoFJK:  IHMeth= 1 ICntrl=       0 DoSepK=F KAlg= 0 I1Cent=           0 FoldK=F
 IRaf=         0 NMat=       1 IRICut=       1 DoRegI=T DoRafI=F ISym2E= 2 IDoP0=0 IntGTp=1.
 FoFCou: FMM=F IPFlag=           8 FMFlag=      100000 FMFlg1=           0
         NFxFlg=           0 DoJE=F BraDBF=F KetDBF=F FulRan=T
         wScrn=  0.000000 ICntrl=         0 IOpCl=  1 I1Cent=           0 NGrid=           0
         NMat0=    1 NMatS0=      1 NMatT0=    0 NMatD0=    1 NMtDS0=    0 NMtDT0=    0
 Integrals replicated using symmetry in FoFCou.
 <Sx>= 0.0000 <Sy>= 0.0000 <Sz>= 1.5000 <S**2>= 3.7500 S= 1.5000
 Range of M.O.s used for correlation:     7   261
 NBasis=   261 NAE=    19 NBE=    16 NFC=     6 NFV=     0
 NROrb=    255 NOA=    13 NOB=    10 NVA=   242 NVB=   245

 **** Warning!!: The largest alpha MO coefficient is  0.22823768D+03


 **** Warning!!: The largest beta MO coefficient is  0.22807455D+03

 Singles contribution to E2=   -0.9845174971D-02
 Leave Link  801 at Sat Mar 31 13:50:24 2018, MaxMem= 10737418240 cpu:             355.9 elap:              11.2
 (Enter /home1/apps/gaussian/16rA.03/g16/l804.exe)
 Open-shell transformation, MDV= 10737418240 ITran=4 ISComp=1.
 Unit  1 TFree=       2051044 TCopy=        814769.
 Semi-Direct transformation.
 ModeAB=           4 MOrb=            13 LenV=   10735397438
 LASXX=    104160849 LTotXX=   104160849 LenRXX=   209816529
 LTotAB=   105655680 MaxLAS=   160426110 LenRXY=           0
 NonZer=   313977378 LenScr=   472813568 LnRSAI=   160426110
 LnScr1=   241583104 LExtra=    13104054 Total=   1097743365
 MaxDsk= 67108864000 SrtSym=           T ITran=            4
 DoSDTr:  NPSUse= 32
 JobTyp=1 Pass  1:  I=   1 to  13.
 (rs|ai) integrals will be sorted in core.
 Complete sort for first half transformation.
 First half transformation complete.
 Begin second half transformation for I=  10.
 Complete sort for second half transformation.
 Second half transformation complete.
 ModeAB=           4 MOrb=            10 LenV=   10735397438
 LASXX=     80689335 LTotXX=    80689335 LenRXX=   154343850
 LTotAB=    73654515 MaxLAS=   123404700 LenRXY=           0
 NonZer=   235033185 LenScr=   353933312 LnRSAI=   123404700
 LnScr1=   185876992 LExtra=   222920583 Total=   1040479437
 MaxDsk= 67108864000 SrtSym=           T ITran=            4
 DoSDTr:  NPSUse= 32
 JobTyp=2 Pass  1:  I=   1 to  10.
 (rs|ai) integrals will be sorted in core.
 Complete sort for first half transformation.
 First half transformation complete.
 Begin second half transformation for I=  10.
 Complete sort for second half transformation.
 Second half transformation complete.
 SymMOI:  orbitals are not symmetric.
 Spin components of T(2) and E(2):
     alpha-alpha T2 =       0.3697647290D-01 E2=     -0.2097807358D+00
     alpha-beta  T2 =       0.1500225346D+00 E2=     -0.7500845735D+00
     beta-beta   T2 =       0.3365314159D-01 E2=     -0.1372649224D+00
 ANorm=    0.1106797596D+01
 E2 =    -0.1106975407D+01 EUMP2 =    -0.14677411652488D+04
 (S**2,0)=  0.37500D+01           (S**2,1)=  0.37500D+01
 E(PUHF)=      -0.14666341898D+04        E(PMP2)=      -0.14677411652D+04
 Leave Link  804 at Sat Mar 31 13:53:35 2018, MaxMem= 10737418240 cpu:            6100.1 elap:             190.9
 (Enter /home1/apps/gaussian/16rA.03/g16/l913.exe)
 CIDS:  MDV= 10737418240.
 Frozen-core window:  NFC=   6 NFV=   0.
 IFCWin=0 IBDFC=1 NFBD=     0     0 NFCmp=     0     0 NFFFC=     0     0
 Using original routines for 1st iteration.
 Using DD4UQ or CC4UQ for 2nd and later iterations.
 Keep R2 and R3 ints in memory in symmetry-blocked form, NReq=734622561.
 FoFCou: FMM=F IPFlag=           8 FMFlag=           0 FMFlg1=           0
         NFxFlg=           0 DoJE=F BraDBF=F KetDBF=F FulRan=T
         wScrn=  0.000000 ICntrl=       600 IOpCl=  0 I1Cent=           0 NGrid=           0
         NMat0=    1 NMatS0=  34191 NMatT0=    0 NMatD0=    1 NMtDS0=    0 NMtDT0=    0
 Petite list used in FoFCou.
 CIDS: In Core Option IDoMem=           1.
 CCSD(T)
 =======
 Iterations= 150 Convergence= 0.100D-06
 Produce multiple copies of IABC intergrals
 Iteration Nr.   1
 **********************
 DD1Dir will call FoFMem   1 times, MxPair=       384
 NAB=   130 NAA=    78 NBB=    45.
 DD1Dir will call FoFMem   1 times, MxPair=       384
 NAB=   130 NAA=    78 NBB=    45.
 MP4(R+Q)= -0.11678806D+00
 Maximum subspace dimension=  5
 A-vector RMS=  3.7086352D-04 Max=  1.7661285D-02 conv= 1.00D-05.
 RLE energy=       -1.0938935630
 E3=        0.12950080D+00        EROMP3=      -0.14676116644D+04
 E4(SDQ)=  -0.92741083D-01        ROMP4(SDQ)=  -0.14677044055D+04
 VARIATIONAL ENERGIES WITH THE FIRST-ORDER WAVEFUNCTION:
 DE(Corr)=  -1.0937344     E(Corr)=     -1467.7279242    
 NORM(A)=   0.10988567D+01
 Iteration Nr.   2
 **********************
 DD1Dir will call FoFMem   1 times, MxPair=       384
 NAB=   130 NAA=    78 NBB=    45.
 A-vector RMS=  6.1357466D-03 Max=  8.5364773D-02 conv= 1.00D-05.
 RLE energy=       -1.0543442425
 DE(Corr)= -0.96226937     E(CORR)=     -1467.5964592     Delta= 1.31D-01
 NORM(A)=   0.10917977D+01
 Iteration Nr.   3
 **********************
 DD1Dir will call FoFMem   1 times, MxPair=       384
 NAB=   130 NAA=    78 NBB=    45.
 A-vector RMS=  3.6909841D-03 Max=  5.4741837D-02 conv= 1.00D-05.
 RLE energy=       -1.0502806444
 DE(Corr)= -0.98869681     E(CORR)=     -1467.6228867     Delta=-2.64D-02
 NORM(A)=   0.10990909D+01
 Iteration Nr.   4
 **********************
 DD1Dir will call FoFMem   1 times, MxPair=       384
 NAB=   130 NAA=    78 NBB=    45.
 A-vector RMS=  3.5999998D-03 Max=  5.2893393D-02 conv= 1.00D-05.
 RLE energy=       -0.9408828491
 DE(Corr)=  -1.0006510     E(CORR)=     -1467.6348408     Delta=-1.20D-02
 NORM(A)=   0.13771613D+01
 Iteration Nr.   5
 **********************
 DD1Dir will call FoFMem   1 times, MxPair=       384
 NAB=   130 NAA=    78 NBB=    45.
 A-vector RMS=  1.1666205D-02 Max=  1.4713736D-01 conv= 1.00D-05.
 RLE energy=       -1.0547427751
 DE(Corr)=  -1.1813532     E(CORR)=     -1467.8155430     Delta=-1.81D-01
 NORM(A)=   0.12119464D+01
 Iteration Nr.   6
 **********************
 DD1Dir will call FoFMem   1 times, MxPair=       384
 NAB=   130 NAA=    78 NBB=    45.
 A-vector RMS=  1.5031765D-03 Max=  2.0706052D-02 conv= 1.00D-05.
 RLE energy=       -1.0498969014
 DE(Corr)=  -1.0501761     E(CORR)=     -1467.6843660     Delta= 1.31D-01
 NORM(A)=   0.11903297D+01
 Iteration Nr.   7
 **********************
 DD1Dir will call FoFMem   1 times, MxPair=       384
 NAB=   130 NAA=    78 NBB=    45.
 A-vector RMS=  3.1228429D-04 Max=  4.7480645D-03 conv= 1.00D-05.
 RLE energy=       -1.0460254307
 DE(Corr)=  -1.0453949     E(CORR)=     -1467.6795847     Delta= 4.78D-03
 NORM(A)=   0.11863362D+01
 Iteration Nr.   8
 **********************
 DD1Dir will call FoFMem   1 times, MxPair=       384
 NAB=   130 NAA=    78 NBB=    45.
 A-vector RMS=  2.1169005D-04 Max=  2.1590376D-03 conv= 1.00D-05.
 RLE energy=       -1.0461289351
 DE(Corr)=  -1.0460213     E(CORR)=     -1467.6802112     Delta=-6.26D-04
 NORM(A)=   0.11883726D+01
 Iteration Nr.   9
 **********************
 DD1Dir will call FoFMem   1 times, MxPair=       384
 NAB=   130 NAA=    78 NBB=    45.
 A-vector RMS=  1.0390761D-04 Max=  1.5365751D-03 conv= 1.00D-05.
 RLE energy=       -1.0464249199
 DE(Corr)=  -1.0462140     E(CORR)=     -1467.6804038     Delta=-1.93D-04
 NORM(A)=   0.11897691D+01
 Iteration Nr.  10
 **********************
 DD1Dir will call FoFMem   1 times, MxPair=       384
 NAB=   130 NAA=    78 NBB=    45.
 A-vector RMS=  6.1713683D-05 Max=  1.1966493D-03 conv= 1.00D-05.
 RLE energy=       -1.0465954404
 DE(Corr)=  -1.0464644     E(CORR)=     -1467.6806543     Delta=-2.50D-04
 NORM(A)=   0.11903304D+01
 Iteration Nr.  11
 **********************
 DD1Dir will call FoFMem   1 times, MxPair=       384
 NAB=   130 NAA=    78 NBB=    45.
 A-vector RMS=  4.2870962D-05 Max=  7.6067795D-04 conv= 1.00D-05.
 RLE energy=       -1.0465400258
 DE(Corr)=  -1.0464726     E(CORR)=     -1467.6806624     Delta=-8.16D-06
 NORM(A)=   0.11906977D+01
 Iteration Nr.  12
 **********************
 DD1Dir will call FoFMem   1 times, MxPair=       384
 NAB=   130 NAA=    78 NBB=    45.
 A-vector RMS=  3.5114772D-05 Max=  7.0553119D-04 conv= 1.00D-05.
 RLE energy=       -1.0466673015
 DE(Corr)=  -1.0465932     E(CORR)=     -1467.6807830     Delta=-1.21D-04
 NORM(A)=   0.11908203D+01
 Iteration Nr.  13
 **********************
 DD1Dir will call FoFMem   1 times, MxPair=       384
 NAB=   130 NAA=    78 NBB=    45.
 A-vector RMS=  1.8964234D-05 Max=  3.0306264D-04 conv= 1.00D-05.
 RLE energy=       -1.0465292046
 DE(Corr)=  -1.0465234     E(CORR)=     -1467.6807133     Delta= 6.97D-05
 NORM(A)=   0.11907615D+01
 Iteration Nr.  14
 **********************
 DD1Dir will call FoFMem   1 times, MxPair=       384
 NAB=   130 NAA=    78 NBB=    45.
 A-vector RMS=  1.2923609D-05 Max=  2.2498001D-04 conv= 1.00D-05.
 RLE energy=       -1.0465389095
 DE(Corr)=  -1.0465637     E(CORR)=     -1467.6807535     Delta=-4.03D-05
 NORM(A)=   0.11906400D+01
 Iteration Nr.  15
 **********************
 DD1Dir will call FoFMem   1 times, MxPair=       384
 NAB=   130 NAA=    78 NBB=    45.
 A-vector RMS=  6.1467922D-06 Max=  8.5113577D-05 conv= 1.00D-05.
 RLE energy=       -1.0464939546
 DE(Corr)=  -1.0464984     E(CORR)=     -1467.6806882     Delta= 6.53D-05
 NORM(A)=   0.11905747D+01
 Iteration Nr.  16
 **********************
 DD1Dir will call FoFMem   1 times, MxPair=       384
 NAB=   130 NAA=    78 NBB=    45.
 A-vector RMS=  4.0251162D-06 Max=  5.3607773D-05 conv= 1.00D-05.
 RLE energy=       -1.0464884179
 DE(Corr)=  -1.0464970     E(CORR)=     -1467.6806868     Delta= 1.38D-06
 NORM(A)=   0.11905642D+01
 Iteration Nr.  17
 **********************
 DD1Dir will call FoFMem   1 times, MxPair=       384
 NAB=   130 NAA=    78 NBB=    45.
 A-vector RMS=  2.5925638D-06 Max=  4.4383535D-05 conv= 1.00D-05.
 RLE energy=       -1.0464927990
 DE(Corr)=  -1.0464956     E(CORR)=     -1467.6806855     Delta= 1.37D-06
 NORM(A)=   0.11905702D+01
 Iteration Nr.  18
 **********************
 DD1Dir will call FoFMem   1 times, MxPair=       384
 NAB=   130 NAA=    78 NBB=    45.
 A-vector RMS=  1.6300710D-06 Max=  1.8121137D-05 conv= 1.00D-05.
 RLE energy=       -1.0464931928
 DE(Corr)=  -1.0464925     E(CORR)=     -1467.6806823     Delta= 3.16D-06
 NORM(A)=   0.11905915D+01
 Iteration Nr.  19
 **********************
 DD1Dir will call FoFMem   1 times, MxPair=       384
 NAB=   130 NAA=    78 NBB=    45.
 A-vector RMS=  1.2862339D-06 Max=  2.7717981D-05 conv= 1.00D-05.
 RLE energy=       -1.0465004722
 DE(Corr)=  -1.0464999     E(CORR)=     -1467.6806897     Delta=-7.43D-06
 NORM(A)=   0.11906111D+01
 Iteration Nr.  20
 **********************
 DD1Dir will call FoFMem   1 times, MxPair=       384
 NAB=   130 NAA=    78 NBB=    45.
 A-vector RMS=  9.5071370D-07 Max=  2.1501861D-05 conv= 1.00D-05.
 RLE energy=       -1.0465037384
 DE(Corr)=  -1.0465007     E(CORR)=     -1467.6806906     Delta=-8.26D-07
 NORM(A)=   0.11906276D+01
 Iteration Nr.  21
 **********************
 DD1Dir will call FoFMem   1 times, MxPair=       384
 NAB=   130 NAA=    78 NBB=    45.
 A-vector RMS=  7.5910684D-07 Max=  1.3329352D-05 conv= 1.00D-05.
 RLE energy=       -1.0465045951
 DE(Corr)=  -1.0465037     E(CORR)=     -1467.6806936     Delta=-3.02D-06
 NORM(A)=   0.11906388D+01
 Iteration Nr.  22
 **********************
 DD1Dir will call FoFMem   1 times, MxPair=       384
 NAB=   130 NAA=    78 NBB=    45.
 A-vector RMS=  6.2539107D-07 Max=  1.2555529D-05 conv= 1.00D-05.
 RLE energy=       -1.0465073011
 DE(Corr)=  -1.0465063     E(CORR)=     -1467.6806962     Delta=-2.60D-06
 NORM(A)=   0.11906441D+01
 Iteration Nr.  23
 **********************
 DD1Dir will call FoFMem   1 times, MxPair=       384
 NAB=   130 NAA=    78 NBB=    45.
 A-vector RMS=  4.7755040D-07 Max=  1.0413474D-05 conv= 1.00D-05.
 RLE energy=       -1.0465058647
 DE(Corr)=  -1.0465053     E(CORR)=     -1467.6806952     Delta= 1.00D-06
 NORM(A)=   0.11906466D+01
 Iteration Nr.  24
 **********************
 DD1Dir will call FoFMem   1 times, MxPair=       384
 NAB=   130 NAA=    78 NBB=    45.
 A-vector RMS=  3.1174099D-07 Max=  7.8452594D-06 conv= 1.00D-05.
 RLE energy=       -1.0465059402
 DE(Corr)=  -1.0465065     E(CORR)=     -1467.6806963     Delta=-1.15D-06
 NORM(A)=   0.11906456D+01
 Iteration Nr.  25
 **********************
 DD1Dir will call FoFMem   1 times, MxPair=       384
 NAB=   130 NAA=    78 NBB=    45.
 A-vector RMS=  2.2352195D-07 Max=  3.7949095D-06 conv= 1.00D-05.
 RLE energy=       -1.0465054633
 DE(Corr)=  -1.0465055     E(CORR)=     -1467.6806954     Delta= 9.43D-07
 NORM(A)=   0.11906445D+01
 Iteration Nr.  26
 **********************
 DD1Dir will call FoFMem   1 times, MxPair=       384
 NAB=   130 NAA=    78 NBB=    45.
 A-vector RMS=  1.5006117D-07 Max=  2.2255705D-06 conv= 1.00D-05.
 RLE energy=       -1.0465047733
 DE(Corr)=  -1.0465051     E(CORR)=     -1467.6806950     Delta= 3.98D-07
 NORM(A)=   0.11906439D+01
 Iteration Nr.  27
 **********************
 DD1Dir will call FoFMem   1 times, MxPair=       384
 NAB=   130 NAA=    78 NBB=    45.
 A-vector RMS=  1.1289464D-07 Max=  2.1870363D-06 conv= 1.00D-05.
 RLE energy=       -1.0465051544
 DE(Corr)=  -1.0465054     E(CORR)=     -1467.6806952     Delta=-2.48D-07
 NORM(A)=   0.11906438D+01
 Iteration Nr.  28
 **********************
 DD1Dir will call FoFMem   1 times, MxPair=       384
 NAB=   130 NAA=    78 NBB=    45.
 A-vector RMS=  7.5423523D-08 Max=  1.1794249D-06 conv= 1.00D-05.
 RLE energy=       -1.0465051199
 DE(Corr)=  -1.0465050     E(CORR)=     -1467.6806949     Delta= 3.56D-07
 NORM(A)=   0.11906443D+01
 Iteration Nr.  29
 **********************
 DD1Dir will call FoFMem   1 times, MxPair=       384
 NAB=   130 NAA=    78 NBB=    45.
 A-vector RMS=  4.9725236D-08 Max=  9.9782997D-07 conv= 1.00D-05.
 RLE energy=       -1.0465052269
 DE(Corr)=  -1.0465053     E(CORR)=     -1467.6806951     Delta=-2.50D-07
 NORM(A)=   0.11906449D+01
 Iteration Nr.  30
 **********************
 DD1Dir will call FoFMem   1 times, MxPair=       384
 NAB=   130 NAA=    78 NBB=    45.
 A-vector RMS=  3.8629522D-08 Max=  7.4360242D-07 conv= 1.00D-05.
 RLE energy=       -1.0465054530
 DE(Corr)=  -1.0465054     E(CORR)=     -1467.6806953     Delta=-1.29D-07
 NORM(A)=   0.11906454D+01
 Iteration Nr.  31
 **********************
 DD1Dir will call FoFMem   1 times, MxPair=       384
 NAB=   130 NAA=    78 NBB=    45.
 A-vector RMS=  3.2642510D-08 Max=  5.5027253D-07 conv= 1.00D-05.
 RLE energy=       -1.0465054619
 DE(Corr)=  -1.0465054     E(CORR)=     -1467.6806952     Delta= 1.11D-08
 NORM(A)=   0.11906458D+01
 CI/CC converged in   31 iterations to DelEn= 1.11D-08 Conv= 1.00D-07 ErrA1= 3.26D-08 Conv= 1.00D-05
 Wavefunction amplitudes converged. E(Corr)=     -1467.6806952    
 Dominant configurations:
 ***********************
 Spin Case        I    J    A    B          Value
    BB           14        33            0.198011D+00
    BB           14        37           -0.122992D+00
    BB           15        32            0.198011D+00
    BB           15        38           -0.122992D+00
    BB           16        17            0.123746D+00
 Largest amplitude= 1.98D-01
 Time for triples=    41957.50 seconds.
 T4(CCSD)= -0.72847191D-01
 T5(CCSD)=  0.22314338D-01
 CCSD(T)= -0.14677312281D+04
 Discarding MO integrals.
 Leave Link  913 at Sat Mar 31 14:43:17 2018, MaxMem= 10737418240 cpu:           95049.5 elap:            2982.0
 (Enter /home1/apps/gaussian/16rA.03/g16/l601.exe)
 Copying SCF densities to generalized density rwf, IOpCl= 0 IROHF=1.
 SCF density gives NOpUse=  1 NOpAll=  4.
 Marking SCF density as not fully symmetric.

 **********************************************************************

            Population analysis using the SCF density.

 **********************************************************************

 Orbital symmetries:
       Occupied  (SG) (SG) (SG) (PI) (PI) (SG) (SG) (SG) (PI) (PI)
                 (SG) (DLTA) (SG) (PI) (PI) (SG) (DLTA) (PI) (PI)
       Virtual   (SG) (PI) (PI) (SG) (SG) (PI) (PI) (SG) (DLTA)
                 (DLTA) (PI) (PI) (SG) (SG) (SG) (PI) (PI) (PI)
                 (PI) (SG) (DLTA) (DLTA) (PI) (PI) (SG) (SG) (SG)
                 (DLTA) (DLTA) (PI) (PI) (SG) (PI) (PI) (SG) (PHI)
                 (PHI) (PI) (PI) (SG) (?A) (?A) (PI) (PI) (SG)
                 (?A) (?A) (PI) (PI) (SG) (SG) (PHI) (PHI) (SG)
                 (DLTA) (DLTA) (PI) (PI) (DLTA) (DLTA) (SG) (PI)
                 (PI) (PI) (PI) (SG) (SG) (PHI) (PHI) (DLTA) (DLTA)
                 (PI) (PI) (SG) (DLTA) (DLTA) (PI) (PI) (?B) (?B)
                 (?C) (?C) (?C) (?C) (SG) (DLTA) (DLTA) (SG) (SG)
                 (PI) (PI) (SG) (PHI) (PHI) (DLTA) (DLTA) (SG)
                 (PI) (PI) (DLTA) (DLTA) (PI) (PI) (SG) (PI) (PI)
                 (SG) (SG) (DLTA) (DLTA) (PI) (PI) (PHI) (PHI)
                 (DLTA) (DLTA) (SG) (PI) (PI) (SG) (?B) (?B) (PHI)
                 (PHI) (DLTA) (DLTA) (PI) (PI) (SG) (PI) (PI) (SG)
                 (PI) (PI) (SG) (SG) (SG) (DLTA) (DLTA) (PI) (PI)
                 (SG) (?C) (?C) (DLTA) (DLTA) (?C) (?C) (SG) (PI)
                 (PI) (SG) (?C) (?C) (?D) (?D) (DLTA) (DLTA) (?C)
                 (?C) (?D) (SG) (DLTA) (DLTA) (PI) (PI) (SG) (SG)
                 (PI) (PI) (DLTA) (DLTA) (PI) (PI) (SG) (SG) (PI)
                 (PI) (SG) (DLTA) (DLTA) (PI) (PI) (SG) (SG) (SG)
                 (PI) (PI) (SG) (PI) (PI) (SG) (DLTA) (DLTA) (PI)
                 (PI) (SG) (SG) (PI) (PI) (SG) (SG) (PI) (PI) (SG)
                 (SG) (PI) (PI) (SG) (DLTA) (DLTA) (PI) (PI) (SG)
                 (SG) (PI) (PI) (SG) (SG) (SG) (PI) (PI) (SG) (SG)
                 (PI) (PI) (SG) (SG) (SG) (SG) (PI) (PI) (SG) (SG)
                 (SG) (PI) (PI) (SG) (SG) (SG) (SG) (SG)
 Unable to determine electronic state:  partially filled degenerate orbitals.
 Alpha  occ. eigenvalues -- -285.82663 -35.57175 -30.33593 -30.33593 -30.33588
 Alpha  occ. eigenvalues --  -20.53006  -4.80434  -3.25124  -3.22679  -3.22679
 Alpha  occ. eigenvalues --   -1.24741  -0.79992  -0.79992  -0.75241  -0.70204
 Alpha  occ. eigenvalues --   -0.67624  -0.43591  -0.43591  -0.35759
 Alpha virt. eigenvalues --   -0.02019   0.02627   0.02627   0.03306   0.03947
 Alpha virt. eigenvalues --    0.08672   0.08672   0.10307   0.11144   0.11170
 Alpha virt. eigenvalues --    0.11745   0.11745   0.14350   0.16573   0.26010
 Alpha virt. eigenvalues --    0.28173   0.28173   0.29228   0.29228   0.35245
 Alpha virt. eigenvalues --    0.38816   0.39163   0.41948   0.41948   0.43411
 Alpha virt. eigenvalues --    0.53126   0.64214   0.75634   0.75705   0.83831
 Alpha virt. eigenvalues --    0.83831   0.90557   0.97380   0.97380   1.08219
 Alpha virt. eigenvalues --    1.13821   1.13821   1.15788   1.15788   1.19082
 Alpha virt. eigenvalues --    1.22882   1.23799   1.25610   1.25610   1.32163
 Alpha virt. eigenvalues --    1.32981   1.33816   1.66111   1.66111   1.74397
 Alpha virt. eigenvalues --    2.05622   2.16021   2.16021   2.20308   2.24172
 Alpha virt. eigenvalues --    2.24258   2.44192   2.44192   2.49667   2.49823
 Alpha virt. eigenvalues --    2.60573   2.78301   2.78301   2.88971   2.88971
 Alpha virt. eigenvalues --    2.91995   3.31608   3.32344   3.32344   3.37278
 Alpha virt. eigenvalues --    3.38910   3.55112   3.55112   3.61624   3.67906
 Alpha virt. eigenvalues --    3.70472   3.84053   3.84053   4.15036   4.15038
 Alpha virt. eigenvalues --    4.20726   4.20726   4.21625   4.21625   4.29214
 Alpha virt. eigenvalues --    4.60859   4.61932   5.00385   5.05440   5.31793
 Alpha virt. eigenvalues --    5.31793   5.74412   6.56719   6.56719   6.70876
 Alpha virt. eigenvalues --    6.70979   6.75266   6.90857   6.90857   7.14154
 Alpha virt. eigenvalues --    7.14188   7.25979   7.25979   7.34760   7.54044
 Alpha virt. eigenvalues --    7.54044   7.57846   8.14119   8.62973   8.66279
 Alpha virt. eigenvalues --    8.73103   8.73103   8.81644   8.81644   8.84780
 Alpha virt. eigenvalues --    8.87849   9.05628   9.51551   9.51551  11.23778
 Alpha virt. eigenvalues --   11.64923  11.64938  11.65163  11.65163  11.84400
 Alpha virt. eigenvalues --   11.86887  12.13643  12.13643  12.27600  14.51930
 Alpha virt. eigenvalues --   14.51930  14.71048  14.75938  14.75938  15.06706
 Alpha virt. eigenvalues --   15.70667  16.76375  17.39546  17.43327  17.56724
 Alpha virt. eigenvalues --   17.56724  18.29681  23.63330  23.63873  23.63873
 Alpha virt. eigenvalues --   23.66537  23.92863  23.92863  24.39464  28.08566
 Alpha virt. eigenvalues --   28.08566  28.44142  30.10171  30.10171  30.11526
 Alpha virt. eigenvalues --   30.11580  30.20636  30.23708  30.39920  30.39920
 Alpha virt. eigenvalues --   30.48316  31.26570  32.24019  32.28195  32.40176
 Alpha virt. eigenvalues --   32.40176  33.09187  40.70654  43.77324  43.77324
 Alpha virt. eigenvalues --   43.91418  43.91419  44.12131  44.12131  44.35647
 Alpha virt. eigenvalues --   44.94042  51.99378  51.99378  52.37173  58.60759
 Alpha virt. eigenvalues --   58.64677  58.75543  58.75543  59.29565  64.19727
 Alpha virt. eigenvalues --   88.28740  94.65365  94.65365  95.03418 113.56638
 Alpha virt. eigenvalues --  113.56638 114.49094 126.00619 126.03030 126.12584
 Alpha virt. eigenvalues --  126.12584 126.55832 142.15512 179.75263 179.75263
 Alpha virt. eigenvalues --  180.03654 180.83697 261.77012 261.77012 262.60050
 Alpha virt. eigenvalues --  345.23829 368.44595 368.44595 368.75227 387.54311
 Alpha virt. eigenvalues --  387.55011 387.61929 387.61929 387.90252 414.74924
 Alpha virt. eigenvalues --  806.82118 806.82118 807.09083 858.679891220.28396
 Alpha virt. eigenvalues -- 1856.038381856.038381856.262022087.160304444.62914
 Alpha virt. eigenvalues -- 4444.629144444.796954466.803354887.78080**********
 Alpha virt. eigenvalues -- **************************************************
 Alpha virt. eigenvalues -- **************************************************
 Alpha virt. eigenvalues -- ********************
     Molecular Orbital Coefficients:
                          12        13        14        15        16
                           O         O         O         O         O
     Eigenvalues --    -0.79992  -0.79992  -0.75241  -0.70204  -0.67624
   1 1   Co 1S         -0.00000  -0.00000  -0.00000  -0.00000  -0.00000
   2        2S         -0.00000  -0.00000  -0.00000  -0.00000  -0.00001
   3        3S         -0.00000  -0.00000  -0.00000  -0.00000  -0.00003
   4        4S         -0.00000  -0.00000  -0.00000  -0.00000  -0.00008
   5        5S         -0.00000  -0.00001  -0.00000  -0.00000  -0.00022
   6        6S         -0.00000  -0.00002  -0.00000  -0.00000  -0.00057
   7        7S         -0.00000  -0.00006  -0.00000  -0.00000  -0.00148
   8        8S         -0.00000  -0.00013  -0.00000  -0.00000  -0.00371
   9        9S         -0.00000  -0.00033  -0.00000  -0.00000  -0.00818
  10       10S         -0.00000  -0.00048  -0.00000  -0.00000  -0.01520
  11       11S         -0.00000  -0.00082  -0.00000  -0.00000  -0.01699
  12       12S         -0.00000   0.00078   0.00000   0.00000   0.00537
  13       13S          0.00000   0.00071   0.00000   0.00000   0.07791
  14       14S         -0.00000   0.01322   0.00000   0.00000   0.10182
  15       15S         -0.00000   0.03102  -0.00000  -0.00000  -0.09221
  16       16S          0.00000  -0.05749  -0.00000   0.00000  -0.10492
  17       17S          0.00000  -0.00097  -0.00000   0.00000  -0.17528
  18       18S          0.00000  -0.08180   0.00000  -0.00000   0.39471
  19       19S          0.00000  -0.03749  -0.00000   0.00000   0.30715
  20       20S          0.00000   0.00017   0.00000  -0.00000   0.08730
  21       21S          0.00000  -0.02692  -0.00000   0.00000   0.03188
  22       22S         -0.00000   0.04271  -0.00000  -0.00000  -0.16603
  23       23S         -0.00000   0.00081   0.00000   0.00000  -0.00505
  24       24PX         0.00000  -0.00000   0.00000   0.00000   0.00000
  25       24PY         0.00000  -0.00000   0.00000  -0.00000  -0.00000
  26       24PZ         0.00000  -0.00000   0.00000  -0.00000  -0.00000
  27       25PX        -0.00000  -0.00000   0.00001   0.00002   0.00000
  28       25PY        -0.00000   0.00000   0.00002  -0.00001  -0.00000
  29       25PZ         0.00000  -0.00001  -0.00000  -0.00000  -0.00002
  30       26PX         0.00000  -0.00000   0.00003   0.00008   0.00000
  31       26PY         0.00000  -0.00000   0.00008  -0.00003  -0.00000
  32       26PZ         0.00000  -0.00004   0.00000  -0.00000  -0.00008
  33       27PX        -0.00000  -0.00000   0.00011   0.00032   0.00000
  34       27PY         0.00000   0.00000   0.00032  -0.00011  -0.00000
  35       27PZ         0.00000  -0.00015  -0.00000  -0.00000  -0.00032
  36       28PX         0.00000  -0.00000   0.00037   0.00111   0.00000
  37       28PY        -0.00000  -0.00000   0.00111  -0.00037  -0.00000
  38       28PZ         0.00000  -0.00049   0.00000  -0.00000  -0.00108
  39       29PX         0.00000  -0.00000   0.00106   0.00318   0.00000
  40       29PY         0.00000   0.00000   0.00318  -0.00106  -0.00000
  41       29PZ         0.00000  -0.00151  -0.00000  -0.00000  -0.00312
  42       30PX         0.00000  -0.00000   0.00239   0.00718   0.00000
  43       30PY         0.00000   0.00000   0.00718  -0.00239  -0.00000
  44       30PZ         0.00000  -0.00310   0.00000  -0.00000  -0.00698
  45       31PX         0.00000  -0.00000   0.00401   0.01205   0.00000
  46       31PY         0.00000   0.00000   0.01205  -0.00401  -0.00000
  47       31PZ         0.00000  -0.00620  -0.00000  -0.00000  -0.01195
  48       32PX         0.00000  -0.00000   0.00397   0.01193   0.00000
  49       32PY         0.00000   0.00000   0.01193  -0.00397  -0.00000
  50       32PZ         0.00000  -0.00214   0.00000  -0.00000  -0.01084
  51       33PX         0.00000  -0.00000  -0.00178  -0.00535  -0.00000
  52       33PY         0.00000   0.00000  -0.00535   0.00178  -0.00000
  53       33PZ        -0.00000   0.03534   0.00000   0.00000   0.01432
  54       34PX        -0.00000   0.00000  -0.01141  -0.03429  -0.00000
  55       34PY        -0.00000  -0.00000  -0.03429   0.01141   0.00000
  56       34PZ        -0.00000  -0.00004  -0.00000   0.00000   0.02890
  57       35PX        -0.00000   0.00000  -0.02541  -0.07633  -0.00000
  58       35PY        -0.00000  -0.00000  -0.07633   0.02541   0.00000
  59       35PZ         0.00000  -0.05468  -0.00000   0.00000   0.04068
  60       36PX        -0.00000  -0.00000  -0.00759  -0.02282  -0.00000
  61       36PY         0.00000   0.00000  -0.02282   0.00759   0.00000
  62       36PZ        -0.00000   0.00326   0.00000   0.00000   0.02131
  63       37PX         0.00000  -0.00000   0.01190   0.03576   0.00000
  64       37PY         0.00000   0.00000   0.03576  -0.01190  -0.00000
  65       37PZ         0.00000   0.00481  -0.00000   0.00000  -0.03951
  66       38PX         0.00000  -0.00000   0.01779   0.05345   0.00000
  67       38PY         0.00000  -0.00000   0.05345  -0.01779  -0.00000
  68       38PZ        -0.00000   0.01253   0.00000  -0.00000   0.02959
  69       39PX         0.00000  -0.00000   0.00289   0.00868  -0.00000
  70       39PY         0.00000  -0.00000   0.00868  -0.00289   0.00000
  71       39PZ        -0.00000  -0.00571   0.00000  -0.00000   0.02332
  72       40PX        -0.00000   0.00000   0.00027   0.00080   0.00000
  73       40PY         0.00000  -0.00000   0.00080  -0.00027   0.00000
  74       40PZ         0.00000  -0.02949  -0.00000  -0.00000  -0.00875
  75       41PX         0.00000  -0.00000   0.00864   0.02595   0.00000
  76       41PY         0.00000   0.00000   0.02595  -0.00864  -0.00000
  77       41PZ        -0.00000   0.08746   0.00000   0.00000   0.01109
  78       42PX         0.00000  -0.00000  -0.00071  -0.00214  -0.00000
  79       42PY         0.00000  -0.00000  -0.00214   0.00071   0.00000
  80       42PZ         0.00000   0.00029  -0.00000   0.00000  -0.00296
  81       43D 0       -0.00000   0.00278   0.00000  -0.00000  -0.00127
  82       43D+1        0.00000  -0.00000  -0.00030  -0.00091   0.00000
  83       43D-1        0.00000   0.00000  -0.00091   0.00030  -0.00000
  84       43D+2       -0.00000   0.00000   0.00000   0.00000  -0.00000
  85       43D-2        0.00362   0.00000   0.00000  -0.00000   0.00000
  86       44D 0       -0.00000   0.02022   0.00000  -0.00000  -0.00926
  87       44D+1        0.00000  -0.00000  -0.00222  -0.00668   0.00000
  88       44D-1        0.00000   0.00000  -0.00668   0.00222  -0.00000
  89       44D+2       -0.00000   0.00000   0.00000   0.00000  -0.00000
  90       44D-2        0.02643   0.00000   0.00000  -0.00000   0.00000
  91       45D 0       -0.00000   0.07847   0.00000  -0.00000  -0.03580
  92       45D+1        0.00000  -0.00000  -0.00849  -0.02550   0.00000
  93       45D-1        0.00000   0.00000  -0.02550   0.00849  -0.00000
  94       45D+2       -0.00000   0.00000   0.00000   0.00000  -0.00000
  95       45D-2        0.10243   0.00000   0.00000  -0.00000   0.00000
  96       46D 0       -0.00000   0.18650   0.00000  -0.00000  -0.09007
  97       46D+1        0.00000  -0.00000  -0.02440  -0.07330   0.00000
  98       46D-1        0.00000   0.00000  -0.07330   0.02440  -0.00000
  99       46D+2       -0.00000   0.00000   0.00000   0.00000  -0.00000
 100       46D-2        0.24974   0.00000   0.00000  -0.00000   0.00000
 101       47D 0       -0.00000   0.23855  -0.00000  -0.00000  -0.12974
 102       47D+1        0.00000  -0.00000   0.00809   0.02430   0.00000
 103       47D-1        0.00000   0.00000   0.02430  -0.00809  -0.00000
 104       47D+2        0.00000   0.00000   0.00000   0.00000  -0.00000
 105       47D-2        0.34279   0.00000  -0.00000  -0.00000   0.00000
 106       48D 0       -0.00000   0.29817   0.00000  -0.00000  -0.12795
 107       48D+1        0.00000  -0.00000  -0.03630  -0.10908   0.00000
 108       48D-1        0.00000   0.00000  -0.10908   0.03630  -0.00000
 109       48D+2       -0.00000   0.00000   0.00000   0.00000  -0.00000
 110       48D-2        0.36542   0.00000   0.00000  -0.00000   0.00000
 111       49D 0       -0.00000   0.17227   0.00000  -0.00000  -0.07234
 112       49D+1        0.00000   0.00000  -0.02549  -0.07657   0.00000
 113       49D-1        0.00000   0.00000  -0.07657   0.02549  -0.00000
 114       49D+2       -0.00000   0.00000   0.00000   0.00000  -0.00000
 115       49D-2        0.21587   0.00000   0.00000  -0.00000  -0.00000
 116       50D 0       -0.00000   0.02595  -0.00000   0.00000  -0.04192
 117       50D+1        0.00000   0.00000  -0.00443  -0.01331  -0.00000
 118       50D-1       -0.00000  -0.00000  -0.01331   0.00443   0.00000
 119       50D+2       -0.00000   0.00000   0.00000  -0.00000   0.00000
 120       50D-2        0.03978   0.00000   0.00000  -0.00000  -0.00000
 121       51D 0        0.00000   0.00270  -0.00000  -0.00000   0.00405
 122       51D+1        0.00000  -0.00000   0.00471   0.01415  -0.00000
 123       51D-1       -0.00000  -0.00000   0.01415  -0.00471  -0.00000
 124       51D+2        0.00000  -0.00000   0.00000   0.00000   0.00000
 125       51D-2       -0.00331  -0.00000  -0.00000   0.00000   0.00000
 126       52D 0       -0.00000   0.04127   0.00000   0.00000  -0.00024
 127       52D+1       -0.00000   0.00000  -0.03919  -0.11775   0.00000
 128       52D-1        0.00000  -0.00000  -0.11775   0.03919  -0.00000
 129       52D+2       -0.00000   0.00000  -0.00000  -0.00000   0.00000
 130       52D-2        0.02394   0.00000   0.00000  -0.00000  -0.00000
 131       53D 0        0.00000  -0.00002   0.00000  -0.00000  -0.00167
 132       53D+1        0.00000   0.00000  -0.00026  -0.00077  -0.00000
 133       53D-1       -0.00000  -0.00000  -0.00077   0.00026   0.00000
 134       53D+2       -0.00000   0.00000   0.00000   0.00000  -0.00000
 135       53D-2       -0.00240  -0.00000  -0.00000   0.00000  -0.00000
 136       54F 0       -0.00000  -0.00027  -0.00000   0.00000  -0.00060
 137       54F+1       -0.00000  -0.00000   0.00020   0.00061   0.00000
 138       54F-1        0.00000   0.00000   0.00061  -0.00020  -0.00000
 139       54F+2        0.00000  -0.00000   0.00000   0.00000  -0.00000
 140       54F-2        0.00020   0.00000   0.00000  -0.00000   0.00000
 141       54F+3       -0.00000   0.00000   0.00002   0.00005  -0.00000
 142       54F-3       -0.00000   0.00000  -0.00005   0.00002  -0.00000
 143       55F 0        0.00000  -0.00066  -0.00000  -0.00000  -0.00214
 144       55F+1       -0.00000  -0.00000   0.00052   0.00158   0.00000
 145       55F-1        0.00000   0.00000   0.00158  -0.00052  -0.00000
 146       55F+2        0.00000  -0.00000   0.00000   0.00000  -0.00000
 147       55F-2        0.00083   0.00000   0.00000  -0.00000   0.00000
 148       55F+3       -0.00000  -0.00000   0.00001   0.00003  -0.00000
 149       55F-3       -0.00000   0.00000  -0.00003   0.00001  -0.00000
 150       56F 0        0.00000  -0.00503   0.00000   0.00000  -0.00873
 151       56F+1        0.00000  -0.00000   0.00363   0.01090   0.00000
 152       56F-1       -0.00000   0.00000   0.01090  -0.00363  -0.00000
 153       56F+2        0.00000  -0.00000   0.00000   0.00000  -0.00000
 154       56F-2        0.00381   0.00000   0.00000  -0.00000   0.00000
 155       56F+3        0.00000  -0.00000  -0.00002  -0.00005   0.00000
 156       56F-3       -0.00000  -0.00000   0.00005  -0.00002   0.00000
 157       57F 0        0.00000   0.00671  -0.00000  -0.00000  -0.01637
 158       57F+1        0.00000  -0.00000   0.00312   0.00937   0.00000
 159       57F-1       -0.00000  -0.00000   0.00937  -0.00312  -0.00000
 160       57F+2        0.00000  -0.00000   0.00000   0.00000  -0.00000
 161       57F-2        0.00772   0.00000   0.00000  -0.00000   0.00000
 162       57F+3        0.00000  -0.00000  -0.00005  -0.00014   0.00000
 163       57F-3        0.00000  -0.00000   0.00014  -0.00005   0.00000
 164       58G 0        0.00000   0.00009  -0.00000   0.00000  -0.00001
 165       58G+1        0.00000   0.00000  -0.00004  -0.00011  -0.00000
 166       58G-1       -0.00000  -0.00000  -0.00011   0.00004   0.00000
 167       58G+2       -0.00000   0.00000  -0.00000   0.00000  -0.00000
 168       58G-2       -0.00001  -0.00000  -0.00000   0.00000  -0.00000
 169       58G+3        0.00000  -0.00000   0.00001   0.00002   0.00000
 170       58G-3        0.00000  -0.00000  -0.00002   0.00001   0.00000
 171       58G+4       -0.00000   0.00010   0.00000   0.00000  -0.00006
 172       58G-4        0.00000  -0.00000  -0.00000   0.00000   0.00000
 173       59G 0        0.00000   0.00110   0.00000  -0.00000   0.00013
 174       59G+1        0.00000   0.00000  -0.00016  -0.00049   0.00000
 175       59G-1       -0.00000  -0.00000  -0.00049   0.00016  -0.00000
 176       59G+2       -0.00000   0.00000  -0.00000   0.00000  -0.00000
 177       59G-2        0.00011   0.00000  -0.00000   0.00000  -0.00000
 178       59G+3        0.00000  -0.00000   0.00002   0.00005   0.00000
 179       59G-3        0.00000  -0.00000  -0.00005   0.00002   0.00000
 180       59G+4       -0.00000   0.00017   0.00000  -0.00000  -0.00020
 181       59G-4        0.00000  -0.00000   0.00000  -0.00000   0.00000
 182       60G 0       -0.00000   0.00556  -0.00000   0.00000   0.00078
 183       60G+1        0.00000   0.00000  -0.00151  -0.00453   0.00000
 184       60G-1       -0.00000  -0.00000  -0.00453   0.00151  -0.00000
 185       60G+2       -0.00000   0.00000  -0.00000  -0.00000  -0.00000
 186       60G-2        0.00136   0.00000  -0.00000   0.00000  -0.00000
 187       60G+3        0.00000  -0.00000   0.00003   0.00010   0.00000
 188       60G-3        0.00000  -0.00000  -0.00010   0.00003   0.00000
 189       60G+4       -0.00000   0.00040   0.00000  -0.00000  -0.00003
 190       60G-4        0.00000  -0.00000  -0.00000   0.00000   0.00000
 191 2   O  1S         -0.00000   0.00004   0.00000   0.00000   0.00002
 192        2S         -0.00000   0.00024   0.00000   0.00000   0.00009
 193        3S         -0.00000   0.00116   0.00000   0.00000   0.00046
 194        4S         -0.00000   0.00462   0.00000   0.00000   0.00180
 195        5S         -0.00000   0.01439   0.00000   0.00000   0.00572
 196        6S         -0.00000   0.03232   0.00000   0.00000   0.01465
[...]
  43       30PY         0.39191   0.19601   0.19590   0.00011
  44       30PZ         0.39223   0.19612   0.19612   0.00000
  45       31PX         0.67845   0.33928   0.33917   0.00011
  46       31PY         0.67845   0.33928   0.33917   0.00011
  47       31PZ         0.67868   0.33934   0.33934   0.00000
  48       32PX         0.57996   0.28993   0.29003  -0.00010
  49       32PY         0.57996   0.28993   0.29003  -0.00010
  50       32PZ         0.57950   0.28975   0.28975   0.00000
  51       33PX         0.28135   0.14074   0.14061   0.00013
  52       33PY         0.28135   0.14074   0.14061   0.00013
  53       33PZ         0.27351   0.13675   0.13675  -0.00000
  54       34PX         0.54489   0.27322   0.27167   0.00155
  55       34PY         0.54489   0.27322   0.27167   0.00155
  56       34PZ         0.55734   0.27867   0.27867  -0.00000
  57       35PX         0.72254   0.36201   0.36053   0.00148
  58       35PY         0.72254   0.36201   0.36053   0.00148
  59       35PZ         0.80746   0.40373   0.40373  -0.00000
  60       36PX         0.46042   0.22982   0.23060  -0.00078
  61       36PY         0.46042   0.22982   0.23060  -0.00078
  62       36PZ         0.45350   0.22675   0.22675  -0.00000
  63       37PX         0.07181   0.04158   0.03024   0.01134
  64       37PY         0.07181   0.04158   0.03024   0.01134
  65       37PZ         0.03894   0.01947   0.01947  -0.00000
  66       38PX         0.05516   0.03484   0.02032   0.01451
  67       38PY         0.05516   0.03484   0.02032   0.01451
  68       38PZ        -0.00563  -0.00282  -0.00282  -0.00000
  69       39PX         0.00445   0.00200   0.00244  -0.00044
  70       39PY         0.00445   0.00200   0.00244  -0.00044
  71       39PZ         0.00430   0.00215   0.00215  -0.00000
  72       40PX        -0.01628  -0.00814  -0.00815   0.00001
  73       40PY        -0.01628  -0.00814  -0.00815   0.00001
  74       40PZ        -0.01033  -0.00516  -0.00516   0.00000
  75       41PX         0.15294   0.07634   0.07660  -0.00027
  76       41PY         0.15294   0.07634   0.07661  -0.00027
  77       41PZ         0.06698   0.03349   0.03349  -0.00000
  78       42PX        -0.00058  -0.00031  -0.00027  -0.00004
  79       42PY        -0.00058  -0.00031  -0.00027  -0.00004
  80       42PZ        -0.00044  -0.00022  -0.00022   0.00000
  81       43D 0        0.00027   0.00013   0.00013   0.00000
  82       43D+1        0.00020   0.00018   0.00001   0.00017
  83       43D-1        0.00020   0.00018   0.00001   0.00017
  84       43D+2        0.00018   0.00018   0.00000   0.00018
  85       43D-2        0.00035   0.00018   0.00018   0.00000
  86       44D 0        0.00755   0.00377   0.00377   0.00000
  87       44D+1        0.00553   0.00517   0.00036   0.00482
  88       44D-1        0.00553   0.00517   0.00036   0.00482
  89       44D+2        0.00517   0.00517  -0.00000   0.00517
  90       44D-2        0.00998   0.00499   0.00499   0.00000
  91       45D 0        0.06766   0.03383   0.03383  -0.00000
  92       45D+1        0.04935   0.04617   0.00318   0.04299
  93       45D-1        0.04935   0.04617   0.00318   0.04299
  94       45D+2        0.04613   0.04613   0.00000   0.04613
  95       45D-2        0.08902   0.04451   0.04451   0.00000
  96       46D 0        0.26897   0.13449   0.13449   0.00000
  97       46D+1        0.19937   0.18381   0.01556   0.16826
  98       46D-1        0.19937   0.18381   0.01556   0.16826
  99       46D+2        0.18256   0.18256  -0.00000   0.18256
 100       46D-2        0.35478   0.17739   0.17739   0.00000
 101       47D 0        0.42953   0.21476   0.21476   0.00000
 102       47D+1        0.29561   0.30278  -0.00717   0.30995
 103       47D-1        0.29561   0.30278  -0.00717   0.30995
 104       47D+2        0.32688   0.32688   0.00000   0.32688
 105       47D-2        0.60855   0.30427   0.30427   0.00000
 106       48D 0        0.55167   0.27584   0.27584  -0.00000
 107       48D+1        0.35489   0.31120   0.04369   0.26751
 108       48D-1        0.35489   0.31120   0.04369   0.26751
 109       48D+2        0.31051   0.31051   0.00000   0.31051
 110       48D-2        0.62274   0.31137   0.31137   0.00000
 111       49D 0        0.21716   0.10858   0.10858   0.00000
 112       49D+1        0.15495   0.11221   0.04274   0.06948
 113       49D-1        0.15495   0.11221   0.04274   0.06948
 114       49D+2        0.11187   0.11187   0.00000   0.11187
 115       49D-2        0.25547   0.12773   0.12773   0.00000
 116       50D 0        0.02249   0.01124   0.01124   0.00000
 117       50D+1        0.01351   0.00729   0.00622   0.00107
 118       50D-1        0.01351   0.00729   0.00622   0.00107
 119       50D+2        0.00647   0.00647  -0.00000   0.00647
 120       50D-2        0.02022   0.01011   0.01011   0.00000
 121       51D 0       -0.00024  -0.00012  -0.00012  -0.00000
 122       51D+1       -0.00522  -0.00209  -0.00313   0.00104
 123       51D-1       -0.00522  -0.00209  -0.00313   0.00104
 124       51D+2       -0.00056  -0.00056  -0.00000  -0.00056
 125       51D-2       -0.00487  -0.00243  -0.00243   0.00000
 126       52D 0        0.08056   0.04028   0.04028  -0.00000
 127       52D+1        0.06761   0.03306   0.03455  -0.00150
 128       52D-1        0.06761   0.03306   0.03455  -0.00150
 129       52D+2        0.01012   0.01012   0.00000   0.01012
 130       52D-2        0.04235   0.02118   0.02118   0.00000
 131       53D 0        0.00070   0.00035   0.00035   0.00000
 132       53D+1        0.00023   0.00009   0.00014  -0.00005
 133       53D-1        0.00023   0.00009   0.00014  -0.00005
 134       53D+2       -0.00010  -0.00010   0.00000  -0.00010
 135       53D-2       -0.00033  -0.00017  -0.00017   0.00000
 136       54F 0        0.00002   0.00001   0.00001  -0.00000
 137       54F+1        0.00001   0.00000   0.00000   0.00000
 138       54F-1        0.00001   0.00000   0.00000   0.00000
 139       54F+2       -0.00000  -0.00000  -0.00000  -0.00000
 140       54F-2        0.00000   0.00000   0.00000   0.00000
 141       54F+3        0.00001   0.00000   0.00000   0.00000
 142       54F-3        0.00001   0.00000   0.00000   0.00000
 143       55F 0        0.00028   0.00014   0.00014   0.00000
 144       55F+1        0.00011   0.00006   0.00005   0.00002
 145       55F-1        0.00011   0.00006   0.00005   0.00002
 146       55F+2        0.00000   0.00000  -0.00000   0.00000
 147       55F-2        0.00001   0.00000   0.00000   0.00000
 148       55F+3        0.00002   0.00001   0.00001   0.00000
 149       55F-3        0.00002   0.00001   0.00001   0.00000
 150       56F 0        0.00417   0.00209   0.00209  -0.00000
 151       56F+1        0.00407   0.00232   0.00175   0.00057
 152       56F-1        0.00407   0.00232   0.00175   0.00057
 153       56F+2        0.00004   0.00004   0.00000   0.00004
 154       56F-2        0.00005   0.00003   0.00003   0.00000
 155       56F+3        0.00003   0.00002   0.00002   0.00000
 156       56F-3        0.00003   0.00002   0.00002   0.00000
 157       57F 0        0.00193   0.00096   0.00096   0.00000
 158       57F+1        0.01051   0.00671   0.00380   0.00291
 159       57F-1        0.01051   0.00671   0.00380   0.00291
 160       57F+2        0.00006   0.00006   0.00000   0.00006
 161       57F-2        0.00011   0.00005   0.00005   0.00000
 162       57F+3        0.00000   0.00000   0.00000   0.00000
 163       57F-3        0.00000   0.00000   0.00000   0.00000
 164       58G 0        0.00000   0.00000   0.00000  -0.00000
 165       58G+1        0.00000   0.00000   0.00000   0.00000
 166       58G-1        0.00000   0.00000   0.00000   0.00000
 167       58G+2        0.00000   0.00000   0.00000   0.00000
 168       58G-2       -0.00000  -0.00000  -0.00000   0.00000
 169       58G+3        0.00000   0.00000   0.00000   0.00000
 170       58G-3        0.00000   0.00000   0.00000   0.00000
 171       58G+4        0.00000   0.00000   0.00000   0.00000
 172       58G-4        0.00000   0.00000   0.00000   0.00000
 173       59G 0        0.00006   0.00003   0.00003  -0.00000
 174       59G+1        0.00002   0.00001   0.00001  -0.00000
 175       59G-1        0.00002   0.00001   0.00001  -0.00000
 176       59G+2        0.00000   0.00000   0.00000   0.00000
 177       59G-2        0.00000   0.00000   0.00000   0.00000
 178       59G+3        0.00000   0.00000   0.00000   0.00000
 179       59G-3        0.00000   0.00000   0.00000   0.00000
 180       59G+4        0.00000   0.00000   0.00000   0.00000
 181       59G-4        0.00000   0.00000   0.00000   0.00000
 182       60G 0        0.00108   0.00054   0.00054   0.00000
 183       60G+1        0.00128   0.00062   0.00066  -0.00003
 184       60G-1        0.00128   0.00062   0.00066  -0.00003
 185       60G+2        0.00001   0.00001   0.00000   0.00001
 186       60G-2        0.00001   0.00000   0.00000   0.00000
 187       60G+3        0.00000   0.00000   0.00000   0.00000
 188       60G-3        0.00000   0.00000   0.00000   0.00000
 189       60G+4        0.00000   0.00000   0.00000   0.00000
 190       60G-4        0.00000   0.00000   0.00000   0.00000
 191 2   O  1S          0.00005   0.00003   0.00003   0.00000
 192        2S          0.00109   0.00054   0.00054  -0.00000
 193        3S          0.01318   0.00659   0.00659  -0.00000
 194        4S          0.09644   0.04822   0.04822   0.00000
 195        5S          0.40534   0.20267   0.20267   0.00000
 196        6S          0.80628   0.40314   0.40314   0.00000
 197        7S          0.50456   0.25228   0.25228   0.00000
 198        8S          1.01388   0.50694   0.50694  -0.00000
 199        9S          0.25589   0.12794   0.12794   0.00000
 200       10S          0.74467   0.37234   0.37234   0.00000
 201       11S          0.07101   0.03550   0.03550   0.00000
 202       12S          0.04195   0.02098   0.02098   0.00000
 203       13S          0.06015   0.03008   0.03008   0.00000
 204       14PX         0.00180   0.00096   0.00084   0.00013
 205       14PY         0.00180   0.00096   0.00084   0.00013
 206       14PZ         0.00141   0.00071   0.00071   0.00000
 207       15PX         0.06048   0.03230   0.02818   0.00412
 208       15PY         0.06048   0.03230   0.02818   0.00412
 209       15PZ         0.04948   0.02474   0.02474   0.00000
 210       16PX         0.36650   0.19497   0.17152   0.02345
 211       16PY         0.36650   0.19497   0.17152   0.02345
 212       16PZ         0.31326   0.15663   0.15663   0.00000
 213       17PX         0.75247   0.39562   0.35685   0.03877
 214       17PY         0.75247   0.39562   0.35685   0.03877
 215       17PZ         0.61161   0.30580   0.30580   0.00000
 216       18PX         0.51462   0.27288   0.24174   0.03115
 217       18PY         0.51462   0.27288   0.24174   0.03115
 218       18PZ         0.36855   0.18427   0.18427  -0.00000
 219       19PX         0.00358   0.00190   0.00167   0.00023
 220       19PY         0.00358   0.00190   0.00167   0.00023
 221       19PZ         0.00335   0.00167   0.00167  -0.00000
 222       20PX         0.00051   0.00027   0.00024   0.00003
 223       20PY         0.00051   0.00027   0.00024   0.00003
 224       20PZ         0.00044   0.00022   0.00022   0.00000
 225       21PX         0.03720   0.02222   0.01498   0.00724
 226       21PY         0.03720   0.02222   0.01498   0.00724
 227       21PZ         0.06176   0.03088   0.03088  -0.00000
 228       22D 0        0.00181   0.00091   0.00091  -0.00000
 229       22D+1        0.00088   0.00048   0.00039   0.00009
 230       22D-1        0.00088   0.00048   0.00039   0.00009
 231       22D+2        0.00002   0.00002   0.00000   0.00002
 232       22D-2        0.00004   0.00002   0.00002   0.00000
 233       23D 0        0.00816   0.00408   0.00408  -0.00000
 234       23D+1        0.00870   0.00457   0.00413   0.00044
 235       23D-1        0.00870   0.00457   0.00413   0.00044
 236       23D+2        0.00031   0.00031   0.00000   0.00031
 237       23D-2        0.00079   0.00040   0.00040   0.00000
 238       24D 0        0.00001   0.00000   0.00000   0.00000
 239       24D+1        0.00000   0.00000   0.00000   0.00000
 240       24D-1        0.00000   0.00000   0.00000   0.00000
 241       24D+2        0.00000   0.00000  -0.00000   0.00000
 242       24D-2        0.00000   0.00000   0.00000   0.00000
 243       25D 0       -0.00092  -0.00046  -0.00046  -0.00000
 244       25D+1        0.00350   0.00138   0.00212  -0.00074
 245       25D-1        0.00350   0.00138   0.00212  -0.00074
 246       25D+2        0.00011   0.00011   0.00000   0.00011
 247       25D-2        0.00021   0.00011   0.00011   0.00000
 248       26F 0        0.00121   0.00061   0.00061   0.00000
 249       26F+1        0.00067   0.00042   0.00025   0.00017
 250       26F-1        0.00067   0.00042   0.00025   0.00017
 251       26F+2        0.00005   0.00005   0.00000   0.00005
 252       26F-2        0.00011   0.00006   0.00006   0.00000
 253       26F+3        0.00000   0.00000   0.00000  -0.00000
 254       26F-3        0.00000   0.00000   0.00000  -0.00000
 255       27F 0       -0.00036  -0.00018  -0.00018  -0.00000
 256       27F+1        0.00085   0.00045   0.00040   0.00005
 257       27F-1        0.00085   0.00045   0.00040   0.00005
 258       27F+2        0.00017   0.00017   0.00000   0.00017
 259       27F-2        0.00041   0.00020   0.00020   0.00000
 260       27F+3        0.00000   0.00000   0.00000   0.00000
 261       27F-3        0.00000   0.00000   0.00000   0.00000
          Condensed to atoms (all electrons):
               1          2
     1  Co  25.818871   0.241170
     2  O    0.241170   8.698790
          Atomic-Atomic Spin Densities.
               1          2
     1  Co   2.857142  -0.068051
     2  O   -0.068051   0.278961
 Mulliken charges and spin densities:
               1          2
     1  Co   0.939959   2.789091
     2  O   -0.939959   0.210909
 Sum of Mulliken charges =  -0.00000   3.00000
 Mulliken charges and spin densities with hydrogens summed into heavy atoms:
               1          2
     1  Co   0.939959   2.789091
     2  O   -0.939959   0.210909
 Electronic spatial extent (au):  <R**2>=             87.4680
 Charge=             -0.0000 electrons
 Dipole moment (field-independent basis, Debye):
    X=             -0.0000    Y=              0.0000    Z=              5.5326  Tot=              5.5326
 Quadrupole moment (field-independent basis, Debye-Ang):
   XX=            -19.5370   YY=            -19.5370   ZZ=            -20.4739
   XY=             -0.0000   XZ=             -0.0000   YZ=              0.0000
 Traceless Quadrupole moment (field-independent basis, Debye-Ang):
   XX=              0.3123   YY=              0.3123   ZZ=             -0.6246
   XY=             -0.0000   XZ=             -0.0000   YZ=              0.0000
 Octapole moment (field-independent basis, Debye-Ang**2):
  XXX=             -0.0000  YYY=              0.0000  ZZZ=             13.8825  XYY=              0.0000
  XXY=             -0.0000  XXZ=              2.9099  XZZ=             -0.0000  YZZ=              0.0000
  YYZ=              2.9099  XYZ=              0.0000
 Hexadecapole moment (field-independent basis, Debye-Ang**3):
 XXXX=            -23.0683 YYYY=            -23.0683 ZZZZ=            -71.3509 XXXY=             -0.0000
 XXXZ=             -0.0000 YYYX=             -0.0000 YYYZ=              0.0000 ZZZX=             -0.0000
 ZZZY=             -0.0000 XXYY=             -7.8303 XXZZ=            -15.5563 YYZZ=            -15.5563
 XXYZ=             -0.0000 YYXZ=              0.0000 ZZXY=             -0.0000
 N-N= 8.164448397051D+01 E-N=-3.724195728724D+03  KE= 1.530906150065D+03
 Orbital energies and kinetic energies (alpha):
                                 1                 2
  12         O                -0.799919          8.141630
  13         O                -0.799919          5.849671
  14         O                -0.752406          2.571351
  15         O                -0.702036          2.571351
  16         O                -0.676240          2.906775
  17         O                -0.435908          8.406932
  18         O                -0.435908          8.129563
  19         O                -0.357588          8.129563
  20         V                -0.020191          0.986456
  21         V                 0.026270          0.085071
  22         V                 0.026270          0.085071
  23         V                 0.033056          0.507553
  24         V                 0.039473          0.059869
 Total kinetic energy from orbitals= 1.555572209159D+03
 FoFCou: FMM=F IPFlag=           8 FMFlag=           0 FMFlg1=           0
         NFxFlg=           0 DoJE=F BraDBF=T KetDBF=F FulRan=T
         wScrn=  0.000000 ICntrl=   2000500 IOpCl=  0 I1Cent=           5 NGrid=           0
         NMat0=    1 NMatS0=      1 NMatT0=    0 NMatD0=    1 NMtDS0=    0 NMtDT0=    0
 Symmetry not used in FoFCou.
                          Isotropic Fermi Contact Couplings
        Atom                 a.u.       MegaHertz       Gauss      10(-4) cm-1
     1  Co(59)             0.00000       0.00011       0.00004       0.00004
     2  O(17)              0.00000      -0.00000      -0.00000      -0.00000
 --------------------------------------------------------
       Center         ----  Spin Dipole Couplings  ----
                      3XX-RR        3YY-RR        3ZZ-RR
 --------------------------------------------------------
     1   Atom        0.286216      0.286216     -0.572432
     2   Atom        0.068345      0.068345     -0.136691
 --------------------------------------------------------
                        XY            XZ            YZ
 --------------------------------------------------------
     1   Atom        0.000000     -0.000000      0.000000
     2   Atom       -0.000000      0.000000     -0.000000
 --------------------------------------------------------


 ---------------------------------------------------------------------------------
              Anisotropic Spin Dipole Couplings in Principal Axis System
 ---------------------------------------------------------------------------------

       Atom             a.u.   MegaHertz   Gauss  10(-4) cm-1        Axes

              Baa    -0.5724   -72.286   -25.794   -24.112  0.0000 -0.0000  1.0000
     1 Co(59) Bbb     0.2862    36.143    12.897    12.056 -0.0249  0.9997  0.0000
              Bcc     0.2862    36.143    12.897    12.056  0.9997  0.0249 -0.0000
 
              Baa    -0.1367     9.891     3.529     3.299 -0.0000  0.0000  1.0000
     2 O(17)  Bbb     0.0683    -4.945    -1.765    -1.650  0.9999  0.0143  0.0000
              Bcc     0.0683    -4.945    -1.765    -1.650 -0.0143  0.9999 -0.0000
 

 ---------------------------------------------------------------------------------

 No NMR shielding tensors so no spin-rotation constants.
 Leave Link  601 at Sat Mar 31 14:43:25 2018, MaxMem= 10737418240 cpu:             115.2 elap:               3.8
 (Enter /home1/apps/gaussian/16rA.03/g16/l9999.exe)

 Test job not archived.
 1\1\GINC-C419-102\SP\ROCCSD(T)-RW\Gen\Co1O1(4)\GWANG18\31-Mar-2018\0\\
 #P ROCCSD(T)=(MaxCyc=150, Window=(7,0))/Gen SCF=(maxcycle=400) Integra
 l(DKHSO, NoXCTest) Pop=Regular MaxDisk=500GB Guess=Read IOp(5/15=2)\\C
 oO\\0,4\Co,0,0.,0.,0.\O,0,0.,0.,1.4\\Version=ES64L-G16RevA.03\HF=-1466
 .6341898\MP2=-1467.7411652\MP3=-1467.6116644\PUHF=-1466.6341898\PMP2-0
 =-1467.7411652\MP4SDQ=-1467.7044055\CCSD=-1467.6806952\CCSD(T)=-1467.7
 312281\RMSD=3.771e-09\PG=C*V [C*(O1Co1)]\\@


 LOGIC IS A SYSTEMATIC METHOD OF COMING TO THE
 WRONG CONCLUSION WITH CONFIDENCE.
 Job cpu time:       1 days  4 hours 28 minutes 44.9 seconds.
 Elapsed time:       0 days  0 hours 53 minutes 47.9 seconds.
 File lengths (MBytes):  RWF=  32857 Int=      0 D2E=      0 Chk=      8 Scr=      1
 Normal termination of Gaussian 16 at Sat Mar 31 14:43:26 2018.
