 Entering Gaussian System, Link 0=g16
 Initial command:
 /home1/apps/gaussian/16rA.03/g16/l1.exe "/tmp/Gau-109165.inp" -scrdir="/tmp/"
 Entering Link 1 = /home1/apps/gaussian/16rA.03/g16/l1.exe PID=    109166.
  
 Copyright (c) 1988,1990,1992,1993,1995,1998,2003,2009,2016,
            Gaussian, Inc.  All Rights Reserved.
  
 This is part of the Gaussian(R) 16 program.  It is based on
 the Gaussian(R) 09 system (copyright 2009, Gaussian, Inc.),
 the Gaussian(R) 03 system (copyright 2003, Gaussian, Inc.),
 the Gaussian(R) 98 system (copyright 1998, Gaussian, Inc.),
 the Gaussian(R) 94 system (copyright 1995, Gaussian, Inc.),
 the Gaussian 92(TM) system (copyright 1992, Gaussian, Inc.),
 the Gaussian 90(TM) system (copyright 1990, Gaussian, Inc.),
 the Gaussian 88(TM) system (copyright 1988, Gaussian, Inc.),
 the Gaussian 86(TM) system (copyright 1986, Carnegie Mellon
 University), and the Gaussian 82(TM) system (copyright 1983,
 Carnegie Mellon University). Gaussian is a federally registered
 trademark of Gaussian, Inc.
  
 This software contains proprietary and confidential information,
 including trade secrets, belonging to Gaussian, Inc.
  
 This software is provided under written license and may be
 used, copied, transmitted, or stored only in accord with that
 written license.
  
 The following legend is applicable only to US Government
 contracts under FAR:
  
                    RESTRICTED RIGHTS LEGEND
  
 Use, reproduction and disclosure by the US Government is
 subject to restrictions as set forth in subparagraphs (a)
 and (c) of the Commercial Computer Software - Restricted
 Rights clause in FAR 52.227-19.
  
 Gaussian, Inc.
 340 Quinnipiac St., Bldg. 40, Wallingford CT 06492
  
  
 ---------------------------------------------------------------
 Warning -- This program may not be used in any manner that
 competes with the business of Gaussian, Inc. or will provide
 assistance to any competitor of Gaussian, Inc.  The licensee
 of this program is prohibited from giving any competitor of
 Gaussian, Inc. access to this program.  By using this program,
 the user acknowledges that Gaussian, Inc. is engaged in the
 business of creating and licensing software in the field of
 computational chemistry and represents and warrants to the
 licensee that it is not a competitor of Gaussian, Inc. and that
 it will not use this program in any manner prohibited above.
 ---------------------------------------------------------------
  

 Cite this work as:
 Gaussian 16, Revision A.03,
 M. J. Frisch, G. W. Trucks, H. B. Schlegel, G. E. Scuseria, 
 M. A. Robb, J. R. Cheeseman, G. Scalmani, V. Barone, 
 G. A. Petersson, H. Nakatsuji, X. Li, M. Caricato, A. V. Marenich, 
 J. Bloino, B. G. Janesko, R. Gomperts, B. Mennucci, H. P. Hratchian, 
 J. V. Ortiz, A. F. Izmaylov, J. L. Sonnenberg, D. Williams-Young, 
 F. Ding, F. Lipparini, F. Egidi, J. Goings, B. Peng, A. Petrone, 
 T. Henderson, D. Ranasinghe, V. G. Zakrzewski, J. Gao, N. Rega, 
 G. Zheng, W. Liang, M. Hada, M. Ehara, K. Toyota, R. Fukuda, 
 J. Hasegawa, M. Ishida, T. Nakajima, Y. Honda, O. Kitao, H. Nakai, 
 T. Vreven, K. Throssell, J. A. Montgomery, Jr., J. E. Peralta, 
 F. Ogliaro, M. J. Bearpark, J. J. Heyd, E. N. Brothers, K. N. Kudin, 
 V. N. Staroverov, T. A. Keith, R. Kobayashi, J. Normand, 
 K. Raghavachari, A. P. Rendell, J. C. Burant, S. S. Iyengar, 
 J. Tomasi, M. Cossi, J. M. Millam, M. Klene, C. Adamo, R. Cammi, 
 J. W. Ochterski, R. L. Martin, K. Morokuma, O. Farkas, 
 J. B. Foresman, and D. J. Fox, Gaussian, Inc., Wallingford CT, 2016.
 
 ******************************************
 Gaussian 16:  ES64L-G16RevA.03 25-Dec-2016
                25-Mar-2018 
 ******************************************
 %mem=80GB
 %cpu=0-31
 SetSPE:  set environment variable "MP_BIND" = "yes"
 SetSPE:  set environment variable "MP_BLIST" = "0,1,2,3,4,5,6,7,8,9,10,11,12,13,14,15,16,17,18,19,20,21,22,23,24,25,26,27,28,29,30,31"
 Will use up to   32 processors via shared memory.
 %chk=qz.chk
 %rwf=/scratch/04843/gwang18/feo/
 ----------------------------------------------------------------------
 #P ROCCSD(T)=(MaxCyc=150, Full)/Gen SCF=(maxcycle=400) Pseudo=Read Int
 egral(NoXCTest) Pop=Regular MaxDisk=500GB
 ----------------------------------------------------------------------
 1/38=1,172=1/1;
 2/12=2,17=6,18=5,40=1/2;
 3/5=7,11=2,16=1,17=8,25=1,30=1,47=8,116=101/1,2,3;
 4//1;
 5/5=2,7=400,38=5/2;
 8/5=-1,6=4,9=120000,10=90/1,4;
 9/5=7,6=150,14=2/13;
 6//1;
 99/5=1,9=1/99;
 Leave Link    1 at Sun Mar 25 07:18:50 2018, MaxMem= 10737418240 cpu:               7.6 elap:               0.3
 (Enter /home1/apps/gaussian/16rA.03/g16/l101.exe)
 ---
 FeO
 ---
 Symbolic Z-matrix:
 Charge =  0 Multiplicity = 5
 Fe                    0.        0.        0. 
 O                     0.        0.        1.3 
 
 ITRead=  0  0
 MicOpt= -1 -1
 NAtoms=      2 NQM=        2 NQMF=       0 NMMI=      0 NMMIF=      0
                NMic=       0 NMicF=      0.
                    Isotopes and Nuclear Properties:
 (Nuclear quadrupole moments (NQMom) in fm**2, nuclear magnetic moments (NMagM)
  in nuclear magnetons)

  Atom         1           2
 IAtWgt=          56          16
 AtmWgt=  55.9349393  15.9949146
 NucSpn=           0           0
 AtZEff=  -0.0000000  -0.0000000
 NQMom=    0.0000000   0.0000000
 NMagM=    0.0000000   0.0000000
 AtZNuc=  26.0000000   8.0000000
 Leave Link  101 at Sun Mar 25 07:18:50 2018, MaxMem= 10737418240 cpu:               3.2 elap:               0.1
 (Enter /home1/apps/gaussian/16rA.03/g16/l202.exe)
                          Input orientation:                          
 ---------------------------------------------------------------------
 Center     Atomic      Atomic             Coordinates (Angstroms)
 Number     Number       Type             X           Y           Z
 ---------------------------------------------------------------------
      1         26           0        0.000000    0.000000    0.000000
      2          8           0        0.000000    0.000000    1.300000
 ---------------------------------------------------------------------
 Stoichiometry    FeO(5)
 Framework group  C*V[C*(OFe)]
 Deg. of freedom     1
 Full point group                 C*V     NOp   4
 Largest Abelian subgroup         C2V     NOp   4
 Largest concise Abelian subgroup C1      NOp   1
                         Standard orientation:                         
 ---------------------------------------------------------------------
 Center     Atomic      Atomic             Coordinates (Angstroms)
 Number     Number       Type             X           Y           Z
 ---------------------------------------------------------------------
      1         26           0        0.000000    0.000000    0.305882
      2          8           0        0.000000    0.000000   -0.994118
 ---------------------------------------------------------------------
 Rotational constants (GHZ):           0.0000000          24.0422205          24.0422205
 Leave Link  202 at Sun Mar 25 07:18:50 2018, MaxMem= 10737418240 cpu:               0.7 elap:               0.1
 (Enter /home1/apps/gaussian/16rA.03/g16/l301.exe)
 General basis read from cards:  (5D, 7F)
 Centers:       1
 S 1 1.00
     Exponent=  1.3277140000D+07 Coefficients=  1.0000000000D+00
 S 1 1.00
     Exponent=  1.9878880000D+06 Coefficients=  1.0000000000D+00
 S 1 1.00
     Exponent=  4.5238710000D+05 Coefficients=  1.0000000000D+00
 S 1 1.00
     Exponent=  1.2814370000D+05 Coefficients=  1.0000000000D+00
 S 1 1.00
     Exponent=  4.1809170000D+04 Coefficients=  1.0000000000D+00
 S 1 1.00
     Exponent=  1.5095330000D+04 Coefficients=  1.0000000000D+00
 S 1 1.00
     Exponent=  5.8884380000D+03 Coefficients=  1.0000000000D+00
 S 1 1.00
     Exponent=  2.4428760000D+03 Coefficients=  1.0000000000D+00
 S 1 1.00
     Exponent=  1.0658570000D+03 Coefficients=  1.0000000000D+00
 S 1 1.00
     Exponent=  4.8490960000D+02 Coefficients=  1.0000000000D+00
 S 1 1.00
     Exponent=  2.2845850000D+02 Coefficients=  1.0000000000D+00
 S 1 1.00
     Exponent=  1.1074530000D+02 Coefficients=  1.0000000000D+00
 S 1 1.00
     Exponent=  5.4431160000D+01 Coefficients=  1.0000000000D+00
 S 1 1.00
     Exponent=  2.5010960000D+01 Coefficients=  1.0000000000D+00
 S 1 1.00
     Exponent=  1.2592620000D+01 Coefficients=  1.0000000000D+00
 S 1 1.00
     Exponent=  6.3232020000D+00 Coefficients=  1.0000000000D+00
 S 1 1.00
     Exponent=  2.8833840000D+00 Coefficients=  1.0000000000D+00
 S 1 1.00
     Exponent=  1.3828680000D+00 Coefficients=  1.0000000000D+00
 S 1 1.00
     Exponent=  6.3220100000D-01 Coefficients=  1.0000000000D+00
 S 1 1.00
     Exponent=  1.4923800000D-01 Coefficients=  1.0000000000D+00
 S 1 1.00
     Exponent=  6.8494000000D-02 Coefficients=  1.0000000000D+00
 S 1 1.00
     Exponent=  3.0381000000D-02 Coefficients=  1.0000000000D+00
 S 1 1.00
     Exponent=  5.7900000000D+00 Coefficients=  1.0000000000D+00
 S 1 1.00
     Exponent=  1.7335000000D+00 Coefficients=  1.0000000000D+00
 S 1 1.00
     Exponent=  1.3480000000D-02 Coefficients=  1.0000000000D+00
 P 1 1.00
     Exponent=  3.8282050000D+04 Coefficients=  1.0000000000D+00
 P 1 1.00
     Exponent=  9.0615560000D+03 Coefficients=  1.0000000000D+00
 P 1 1.00
     Exponent=  2.9444500000D+03 Coefficients=  1.0000000000D+00
 P 1 1.00
     Exponent=  1.1281580000D+03 Coefficients=  1.0000000000D+00
 P 1 1.00
     Exponent=  4.8033800000D+02 Coefficients=  1.0000000000D+00
 P 1 1.00
     Exponent=  2.2013680000D+02 Coefficients=  1.0000000000D+00
 P 1 1.00
     Exponent=  1.0654820000D+02 Coefficients=  1.0000000000D+00
 P 1 1.00
     Exponent=  5.3742620000D+01 Coefficients=  1.0000000000D+00
 P 1 1.00
     Exponent=  2.7863180000D+01 Coefficients=  1.0000000000D+00
 P 1 1.00
     Exponent=  1.4743820000D+01 Coefficients=  1.0000000000D+00
 P 1 1.00
     Exponent=  7.8933510000D+00 Coefficients=  1.0000000000D+00
 P 1 1.00
     Exponent=  4.1794970000D+00 Coefficients=  1.0000000000D+00
 P 1 1.00
     Exponent=  2.1656690000D+00 Coefficients=  1.0000000000D+00
 P 1 1.00
     Exponent=  1.0972400000D+00 Coefficients=  1.0000000000D+00
 P 1 1.00
     Exponent=  5.3608500000D-01 Coefficients=  1.0000000000D+00
 P 1 1.00
     Exponent=  2.0245300000D-01 Coefficients=  1.0000000000D+00
 P 1 1.00
     Exponent=  8.1695000000D-02 Coefficients=  1.0000000000D+00
 P 1 1.00
     Exponent=  3.2614000000D-02 Coefficients=  1.0000000000D+00
 P 1 1.00
     Exponent=  8.3687000000D+00 Coefficients=  1.0000000000D+00
 P 1 1.00
     Exponent=  2.2601000000D+00 Coefficients=  1.0000000000D+00
 P 1 1.00
     Exponent=  1.3020000000D-02 Coefficients=  1.0000000000D+00
 D 1 1.00
     Exponent=  3.5099500000D+02 Coefficients=  1.0000000000D+00
 D 1 1.00
     Exponent=  1.0366700000D+02 Coefficients=  1.0000000000D+00
 D 1 1.00
     Exponent=  3.9704300000D+01 Coefficients=  1.0000000000D+00
 D 1 1.00
     Exponent=  1.7031000000D+01 Coefficients=  1.0000000000D+00
 D 1 1.00
     Exponent=  7.7890200000D+00 Coefficients=  1.0000000000D+00
 D 1 1.00
     Exponent=  3.6995500000D+00 Coefficients=  1.0000000000D+00
 D 1 1.00
     Exponent=  1.7553200000D+00 Coefficients=  1.0000000000D+00
 D 1 1.00
     Exponent=  8.1284500000D-01 Coefficients=  1.0000000000D+00
 D 1 1.00
     Exponent=  3.6144100000D-01 Coefficients=  1.0000000000D+00
 D 1 1.00
     Exponent=  1.5134600000D-01 Coefficients=  1.0000000000D+00
 D 1 1.00
     Exponent=  5.7513000000D-02 Coefficients=  1.0000000000D+00
 D 1 1.00
     Exponent=  5.4967000000D+00 Coefficients=  1.0000000000D+00
 D 1 1.00
     Exponent=  2.8925000000D+00 Coefficients=  1.0000000000D+00
 D 1 1.00
     Exponent=  2.1860000000D-02 Coefficients=  1.0000000000D+00
 F 1 1.00
     Exponent=  7.7828000000D+00 Coefficients=  1.0000000000D+00
 F 1 1.00
     Exponent=  3.2584000000D+00 Coefficients=  1.0000000000D+00
 F 1 1.00
     Exponent=  1.3641000000D+00 Coefficients=  1.0000000000D+00
 F 1 1.00
     Exponent=  4.5640000000D-01 Coefficients=  1.0000000000D+00
 F 1 1.00
     Exponent=  1.5270000000D-01 Coefficients=  1.0000000000D+00
 G 1 1.00
     Exponent=  6.3816000000D+00 Coefficients=  1.0000000000D+00
 G 1 1.00
     Exponent=  2.7717000000D+00 Coefficients=  1.0000000000D+00
 G 1 1.00
     Exponent=  1.0505000000D+00 Coefficients=  1.0000000000D+00
 G 1 1.00
     Exponent=  3.9815000000D-01 Coefficients=  1.0000000000D+00
 H 1 1.00
     Exponent=  5.8964000000D+00 Coefficients=  1.0000000000D+00
 H 1 1.00
     Exponent=  2.3448000000D+00 Coefficients=  1.0000000000D+00
 H 1 1.00
     Exponent=  9.3245000000D-01 Coefficients=  1.0000000000D+00
 ****
 Centers:       2
 S 1 1.00
     Exponent=  6.1420000000D+04 Coefficients=  1.0000000000D+00
 S 1 1.00
     Exponent=  9.1990000000D+03 Coefficients=  1.0000000000D+00
 S 1 1.00
     Exponent=  2.0910000000D+03 Coefficients=  1.0000000000D+00
 S 1 1.00
     Exponent=  5.9090000000D+02 Coefficients=  1.0000000000D+00
 S 1 1.00
     Exponent=  1.9230000000D+02 Coefficients=  1.0000000000D+00
 S 1 1.00
     Exponent=  6.9320000000D+01 Coefficients=  1.0000000000D+00
 S 1 1.00
     Exponent=  2.6970000000D+01 Coefficients=  1.0000000000D+00
 S 1 1.00
     Exponent=  1.1100000000D+01 Coefficients=  1.0000000000D+00
 S 1 1.00
     Exponent=  4.6820000000D+00 Coefficients=  1.0000000000D+00
 S 1 1.00
     Exponent=  1.4280000000D+00 Coefficients=  1.0000000000D+00
 S 1 1.00
     Exponent=  5.5470000000D-01 Coefficients=  1.0000000000D+00
 S 1 1.00
     Exponent=  2.0670000000D-01 Coefficients=  1.0000000000D+00
 S 1 1.00
     Exponent=  1.2974000000D+01 Coefficients=  1.0000000000D+00
 S 1 1.00
     Exponent=  3.4900000000D+01 Coefficients=  1.0000000000D+00
 S 1 1.00
     Exponent=  9.3881000000D+01 Coefficients=  1.0000000000D+00
 S 1 1.00
     Exponent=  6.9590000000D-02 Coefficients=  1.0000000000D+00
 P 1 1.00
     Exponent=  6.3420000000D+01 Coefficients=  1.0000000000D+00
 P 1 1.00
     Exponent=  1.4660000000D+01 Coefficients=  1.0000000000D+00
 P 1 1.00
     Exponent=  4.4590000000D+00 Coefficients=  1.0000000000D+00
 P 1 1.00
     Exponent=  1.5310000000D+00 Coefficients=  1.0000000000D+00
 P 1 1.00
     Exponent=  5.3020000000D-01 Coefficients=  1.0000000000D+00
 P 1 1.00
     Exponent=  1.7500000000D-01 Coefficients=  1.0000000000D+00
 P 1 1.00
     Exponent=  1.4475000000D+01 Coefficients=  1.0000000000D+00
 P 1 1.00
     Exponent=  4.2730000000D+01 Coefficients=  1.0000000000D+00
 P 1 1.00
     Exponent=  1.2614000000D+02 Coefficients=  1.0000000000D+00
 P 1 1.00
     Exponent=  5.3480000000D-02 Coefficients=  1.0000000000D+00
 D 1 1.00
     Exponent=  3.7750000000D+00 Coefficients=  1.0000000000D+00
 D 1 1.00
     Exponent=  1.3000000000D+00 Coefficients=  1.0000000000D+00
 D 1 1.00
     Exponent=  4.4400000000D-01 Coefficients=  1.0000000000D+00
 D 1 1.00
     Exponent=  1.4927000000D+01 Coefficients=  1.0000000000D+00
 D 1 1.00
     Exponent=  5.7544000000D+01 Coefficients=  1.0000000000D+00
 D 1 1.00
     Exponent=  1.5400000000D-01 Coefficients=  1.0000000000D+00
 F 1 1.00
     Exponent=  2.6660000000D+00 Coefficients=  1.0000000000D+00
 F 1 1.00
     Exponent=  8.5900000000D-01 Coefficients=  1.0000000000D+00
 F 1 1.00
     Exponent=  2.6483000000D+01 Coefficients=  1.0000000000D+00
 F 1 1.00
     Exponent=  3.2400000000D-01 Coefficients=  1.0000000000D+00
 G 1 1.00
     Exponent=  1.8460000000D+00 Coefficients=  1.0000000000D+00
 G 1 1.00
     Exponent=  7.1400000000D-01 Coefficients=  1.0000000000D+00
 ****
 ======================================================================================================
                                       Pseudopotential Parameters
 ======================================================================================================
  Center     Atomic      Valence      Angular      Power
  Number     Number     Electrons     Momentum     of R      Exponent        Coefficient   SO-Coeffient
 ======================================================================================================
    1         26           16
                                      F and up 
                                                     2        1.0000000        0.00000000    0.00000000
                                      S - F
                                                     2       20.9300000      253.74958800    0.00000000
                                                     2        9.4450000       37.92284500    0.00000000
                                      P - F
                                                     2       21.7600000      161.03681200    0.00000000
                                                     2        9.1780000       27.65129800    0.00000000
                                      D - F
                                                     2       25.9000000      -24.43127600    0.00000000
                                                     2        8.8350000       -1.43425100    0.00000000
    2          8            6
                                      F and up 
                                                     2        1.0000000        0.00000000    0.00000000
                                      S - F
                                                     2       12.9686000       73.60860000    0.00000000
                                      P - F
                                                     2       15.2430000       -3.91720000    0.00000000
                                      D - F
                                                     2        9.6172000       -0.65590000    0.00000000
 ======================================================================================================
 Ernie: Thresh=  0.10000D-02 Tol=  0.10000D-05 Strict=F.
 There are   213 symmetry adapted cartesian basis functions of A1  symmetry.
 There are    56 symmetry adapted cartesian basis functions of A2  symmetry.
 There are   114 symmetry adapted cartesian basis functions of B1  symmetry.
 There are   114 symmetry adapted cartesian basis functions of B2  symmetry.
 There are   157 symmetry adapted basis functions of A1  symmetry.
 There are    47 symmetry adapted basis functions of A2  symmetry.
 There are    90 symmetry adapted basis functions of B1  symmetry.
 There are    90 symmetry adapted basis functions of B2  symmetry.
   384 basis functions,   497 primitive gaussians,   497 cartesian basis functions
    13 alpha electrons        9 beta electrons
       nuclear repulsion energy        39.0777017295 Hartrees.
 IExCor=    0 DFT=F Ex=HF Corr=None ExCW=0 ScaHFX=  1.000000
 ScaDFX=  1.000000  1.000000  1.000000  1.000000 ScalE2=  1.000000  1.000000
 IRadAn=      5 IRanWt=     -1 IRanGd=            0 ICorTp=0 IEmpDi=  4
 NAtoms=    2 NActive=    2 NUniq=    2 SFac= 1.00D+00 NAtFMM=   60 NAOKFM=F Big=F
 Integral buffers will be    131072 words long.
 Raffenetti 2 integral format.
 Two-electron integral symmetry is turned on.
 Leave Link  301 at Sun Mar 25 07:18:51 2018, MaxMem= 10737418240 cpu:               9.5 elap:               0.3
 (Enter /home1/apps/gaussian/16rA.03/g16/l302.exe)
 NPDir=0 NMtPBC=     1 NCelOv=     1 NCel=       1 NClECP=     1 NCelD=      1
         NCelK=      1 NCelE2=     1 NClLst=     1 CellRange=     0.0.
 One-electron integrals computed using PRISM.
 One-electron integral symmetry used in STVInt
   4 Symmetry operations used in ECPInt.
 ECPInt:  NShTT=    6105 NPrTT=    6105 LenC2=    5637 LenP2D=    5636.
 LDataN:  DoStor=T MaxTD1=10 Len=  848
 NBasis=   384 RedAO= T EigKep=  1.40D-06  NBF=   157    47    90    90
 NBsUse=   380 1.00D-06 EigRej=  4.20D-07 NBFU=   155    47    89    89
 Leave Link  302 at Sun Mar 25 07:18:55 2018, MaxMem= 10737418240 cpu:             126.4 elap:               4.0
 (Enter /home1/apps/gaussian/16rA.03/g16/l303.exe)
 DipDrv:  MaxL=1.
 Leave Link  303 at Sun Mar 25 07:18:55 2018, MaxMem= 10737418240 cpu:               3.8 elap:               0.2
 (Enter /home1/apps/gaussian/16rA.03/g16/l401.exe)
 ExpMin= 1.30D-02 ExpMax= 1.33D+07 ExpMxC= 1.33D+07 IAcc=4 IRadAn=    399590 AccDes= 0.00D+00
 Harris functional with IExCor=  205 and IRadAn=  399590 diagonalized for initial guess.
 HarFok:  IExCor=  205 AccDes= 0.00D+00 IRadAn=    399590 IDoV= 1 UseB2=F ITyADJ=14
 ICtDFT=  3500011 ScaDFX=  1.000000  1.000000  1.000000  1.000000
 FoFCou: FMM=F IPFlag=           8 FMFlag=      100000 FMFlg1=           0
         NFxFlg=           0 DoJE=T BraDBF=F KetDBF=T FulRan=T
         wScrn=  0.000000 ICntrl=       500 IOpCl=  0 I1Cent=   200000004 NGrid=           0
         NMat0=    1 NMatS0=      1 NMatT0=    0 NMatD0=    1 NMtDS0=    0 NMtDT0=    0
 Petite list used in FoFCou.
 Harris En= -140.089816912310    
 JPrj=0 DoOrth=F DoCkMO=F.
 Initial guess orbital symmetries:
       Occupied  (SG) (SG) (PI) (PI) (SG) (PI) (PI) (SG) (DLTA)
                 (DLTA) (SG) (PI) (PI)
       Virtual   (SG) (PI) (PI) (SG) (SG) (PI) (PI) (DLTA) (DLTA)
                 (PI) (PI) (SG) (SG) (SG) (PI) (PI) (SG) (PI) (PI)
                 (DLTA) (DLTA) (SG) (PI) (PI) (SG) (SG) (DLTA)
                 (DLTA) (SG) (PI) (PI) (PHI) (PHI) (DLTA) (DLTA)
                 (SG) (PI) (PI) (PI) (PI) (SG) (DLTA) (DLTA) (PI)
                 (PI) (SG) (SG) (PI) (PI) (SG) (DLTA) (DLTA) (PHI)
                 (PHI) (PI) (PI) (SG) (SG) (DLTA) (DLTA) (PI) (PI)
                 (DLTA) (DLTA) (SG) (PHI) (PHI) (SG) (PI) (PI)
                 (?A) (?A) (DLTA) (DLTA) (PI) (PI) (PHI) (PHI)
                 (SG) (SG) (PI) (PI) (PI) (PI) (DLTA) (DLTA) (SG)
                 (SG) (PI) (PI) (DLTA) (DLTA) (?A) (?A) (PI) (PI)
                 (SG) (SG) (PHI) (PHI) (DLTA) (DLTA) (SG) (PI)
                 (PI) (PHI) (PHI) (DLTA) (DLTA) (SG) (PI) (PI)
                 (PI) (PI) (PHI) (PHI) (SG) (DLTA) (DLTA) (DLTA)
                 (DLTA) (SG) (?A) (?A) (?B) (?B) (PI) (PI) (PHI)
                 (PHI) (?A) (?A) (SG) (PI) (PI) (DLTA) (DLTA) (PHI)
                 (PHI) (SG) (PI) (PI) (SG) (DLTA) (DLTA) (PI) (PI)
                 (SG) (SG) (DLTA) (DLTA) (PI) (PI) (SG) (PI) (PI)
                 (?A) (?A) (SG) (PHI) (PHI) (DLTA) (DLTA) (PI)
                 (PI) (SG) (PHI) (PHI) (PHI) (PHI) (DLTA) (DLTA)
                 (SG) (DLTA) (DLTA) (PI) (PI) (PI) (PI) (DLTA)
                 (DLTA) (SG) (PI) (PI) (SG) (?A) (?A) (PHI) (PHI)
                 (SG) (PI) (PI) (DLTA) (DLTA) (?B) (?B) (?A) (?A)
                 (SG) (PHI) (PHI) (PI) (PI) (DLTA) (DLTA) (DLTA)
                 (DLTA) (SG) (PI) (PI) (PI) (PI) (SG) (SG) (SG)
                 (PI) (PI) (SG) (DLTA) (DLTA) (PI) (PI) (PI) (PI)
                 (SG) (SG) (PHI) (PHI) (DLTA) (DLTA) (PI) (PI)
                 (SG) (?A) (?A) (PHI) (PHI) (DLTA) (DLTA) (SG)
                 (PI) (PI) (SG) (?B) (?B) (?A) (?A) (PHI) (PHI)
                 (DLTA) (DLTA) (PI) (PI) (SG) (SG) (DLTA) (DLTA)
                 (PI) (PI) (DLTA) (DLTA) (SG) (PI) (PI) (SG) (PI)
                 (PI) (SG) (SG) (PI) (PI) (SG) (SG) (DLTA) (DLTA)
                 (PI) (PI) (SG) (PI) (PI) (SG) (PHI) (PHI) (DLTA)
                 (DLTA) (PI) (PI) (SG) (SG) (SG) (PI) (PI) (SG)
                 (DLTA) (DLTA) (PI) (PI) (SG) (PI) (PI) (SG) (SG)
                 (DLTA) (DLTA) (PI) (PI) (SG) (SG) (PI) (PI) (SG)
                 (PI) (PI) (SG) (SG) (DLTA) (DLTA) (PI) (PI) (SG)
                 (SG) (PI) (PI) (SG) (SG) (PI) (PI) (SG) (SG) (SG)
                 (PI) (PI) (SG) (DLTA) (DLTA) (PI) (PI) (SG) (SG)
                 (PI) (PI) (SG) (SG) (SG) (PI) (PI) (SG) (SG) (SG)
                 (PI) (PI) (SG) (SG) (SG) (PI) (PI) (SG) (SG) (PI)
                 (PI) (SG) (SG) (SG) (SG) (SG) (SG) (SG)
 Leave Link  401 at Sun Mar 25 07:18:58 2018, MaxMem= 10737418240 cpu:              73.3 elap:               2.4
 (Enter /home1/apps/gaussian/16rA.03/g16/l502.exe)
 Keep R1 and R2 ints in memory in symmetry-blocked form, NReq=3425113631.
 FoFCou: FMM=F IPFlag=           8 FMFlag=           0 FMFlg1=           0
         NFxFlg=           0 DoJE=F BraDBF=F KetDBF=F FulRan=T
         wScrn=  0.000000 ICntrl=       600 IOpCl=  0 I1Cent=           0 NGrid=           0
         NMat0=    1 NMatS0=  73920 NMatT0=    0 NMatD0=    1 NMtDS0=    0 NMtDT0=    0
 Petite list used in FoFCou.
 Restricted open shell SCF:
 Using DIIS extrapolation, IDIIS=  1040.
 NGot= 10737418240 LenX=  9351085953 LenY=  9350838447
 Requested convergence on RMS density matrix=1.00D-08 within 400 cycles.
 Requested convergence on MAX density matrix=1.00D-06.
 Requested convergence on             energy=1.00D-06.
 No special actions if energy rises.

 Cycle   1  Pass 1  IDiag  1:
 E= -138.522575984831    
 DIIS: error= 5.11D-02 at cycle   1 NSaved=   1.
 NSaved= 1 IEnMin= 1 EnMin= -138.522575984831     IErMin= 1 ErrMin= 5.11D-02
 ErrMax= 5.11D-02  0.00D+00 EMaxC= 1.00D-01 BMatC= 3.46D-01 BMatP= 3.46D-01
 IDIUse=3 WtCom= 4.89D-01 WtEn= 5.11D-01
 Coeff-Com:  0.100D+01
 Coeff-En:   0.100D+01
 Coeff:      0.100D+01
 Gap=     0.113 Goal=   None    Shift=    0.000
 GapD=    0.113 DampG=1.000 DampE=0.250 DampFc=0.2500 IDamp=-1.
 Damping current iteration by 2.50D-01
 RMSDP=1.45D-03 MaxDP=1.05D-01              OVMax= 4.19D-01

 Cycle   2  Pass 1  IDiag  1:
 E= -138.556221755779     Delta-E=       -0.033645770947 Rises=F Damp=T
 DIIS: error= 2.23D-02 at cycle   2 NSaved=   2.
 NSaved= 2 IEnMin= 2 EnMin= -138.556221755779     IErMin= 2 ErrMin= 2.23D-02
 ErrMax= 2.23D-02  0.00D+00 EMaxC= 1.00D-01 BMatC= 9.11D-02 BMatP= 3.46D-01
 IDIUse=3 WtCom= 7.77D-01 WtEn= 2.23D-01
 Coeff-Com: -0.484D+00 0.148D+01
 Coeff-En:   0.147D+00 0.853D+00
 Coeff:     -0.343D+00 0.134D+01
 Gap=     0.035 Goal=   None    Shift=    0.000
 RMSDP=4.82D-03 MaxDP=1.03D+00 DE=-3.36D-02 OVMax= 7.57D-01

 Cycle   3  Pass 1  IDiag  1:
 E= -137.614869613864     Delta-E=        0.941352141915 Rises=F Damp=F
 DIIS: error= 1.85D-01 at cycle   3 NSaved=   3.
 NSaved= 3 IEnMin= 2 EnMin= -138.556221755779     IErMin= 2 ErrMin= 2.23D-02
 ErrMax= 1.85D-01  0.00D+00 EMaxC= 1.00D-01 BMatC= 1.60D+00 BMatP= 9.11D-02
 IDIUse=2 WtCom= 0.00D+00 WtEn= 1.00D+00
 Coeff-En:   0.000D+00 0.811D+00 0.189D+00
 Coeff:      0.000D+00 0.811D+00 0.189D+00
 Gap=     0.044 Goal=   None    Shift=    0.000
 RMSDP=4.83D-03 MaxDP=1.03D+00 DE= 9.41D-01 OVMax= 3.00D-01

 Cycle   4  Pass 1  IDiag  1:
 E= -138.615513193774     Delta-E=       -1.000643579910 Rises=F Damp=F
 DIIS: error= 4.67D-02 at cycle   4 NSaved=   4.
 NSaved= 4 IEnMin= 4 EnMin= -138.615513193774     IErMin= 2 ErrMin= 2.23D-02
 ErrMax= 4.67D-02  0.00D+00 EMaxC= 1.00D-01 BMatC= 1.63D-01 BMatP= 9.11D-02
 IDIUse=2 WtCom= 0.00D+00 WtEn= 1.00D+00
 Coeff-En:   0.000D+00 0.000D+00 0.237D+00 0.763D+00
 Coeff:      0.000D+00 0.000D+00 0.237D+00 0.763D+00
 Gap=     0.114 Goal=   None    Shift=    0.000
 RMSDP=6.94D-04 MaxDP=4.95D-02 DE=-1.00D+00 OVMax= 2.15D-01

 Cycle   5  Pass 1  IDiag  1:
 E= -138.685024166893     Delta-E=       -0.069510973119 Rises=F Damp=F
 DIIS: error= 1.26D-02 at cycle   5 NSaved=   5.
 NSaved= 5 IEnMin= 5 EnMin= -138.685024166893     IErMin= 5 ErrMin= 1.26D-02
 ErrMax= 1.26D-02  0.00D+00 EMaxC= 1.00D-01 BMatC= 1.60D-02 BMatP= 9.11D-02
 IDIUse=3 WtCom= 8.74D-01 WtEn= 1.26D-01
 EnCoef did    11 forward-backward iterations
 Coeff-Com: -0.188D+00 0.219D+00 0.634D-01 0.134D+00 0.771D+00
 Coeff-En:   0.000D+00 0.000D+00 0.195D+00 0.443D+00 0.362D+00
 Coeff:     -0.164D+00 0.191D+00 0.800D-01 0.173D+00 0.720D+00
 Gap=     0.104 Goal=   None    Shift=    0.000
 RMSDP=9.84D-04 MaxDP=9.63D-02 DE=-6.95D-02 OVMax= 1.85D-01

 Cycle   6  Pass 1  IDiag  1:
 E= -138.693951164914     Delta-E=       -0.008926998020 Rises=F Damp=F
 DIIS: error= 1.06D-02 at cycle   6 NSaved=   6.
 NSaved= 6 IEnMin= 6 EnMin= -138.693951164914     IErMin= 6 ErrMin= 1.06D-02
 ErrMax= 1.06D-02  0.00D+00 EMaxC= 1.00D-01 BMatC= 5.61D-03 BMatP= 1.60D-02
 IDIUse=3 WtCom= 8.94D-01 WtEn= 1.06D-01
 Rare condition: small coef for last iteration:  0.222D-15
 Coeff-Com: -0.193D+00 0.251D+00 0.231D-01 0.130D-02 0.398D+00 0.519D+00
 Coeff-En:   0.000D+00 0.000D+00 0.121D+00 0.000D+00 0.335D+00 0.544D+00
 Coeff:     -0.193D+00 0.251D+00 0.231D-01 0.130D-02 0.398D+00 0.519D+00
 Gap=     0.074 Goal=   None    Shift=    0.000
 RMSDP=6.13D-04 MaxDP=5.03D-02 DE=-8.93D-03 OVMax= 1.40D-01

 Cycle   7  Pass 1  IDiag  1:
 E= -138.700559646897     Delta-E=       -0.006608481984 Rises=F Damp=F
 DIIS: error= 7.28D-03 at cycle   7 NSaved=   7.
 NSaved= 7 IEnMin= 7 EnMin= -138.700559646897     IErMin= 7 ErrMin= 7.28D-03
 ErrMax= 7.28D-03  0.00D+00 EMaxC= 1.00D-01 BMatC= 4.14D-03 BMatP= 5.61D-03
 IDIUse=3 WtCom= 9.27D-01 WtEn= 7.28D-02
 EnCoef did   100 forward-backward iterations
 Coeff-Com: -0.167D+00 0.251D+00 0.125D-01 0.123D-02 0.931D-01 0.273D+00
 Coeff-Com:  0.537D+00
 Coeff-En:   0.000D+00 0.000D+00 0.189D+00 0.406D+00 0.352D+00 0.435D-01
 Coeff-En:   0.102D-01
 Coeff:     -0.155D+00 0.233D+00 0.253D-01 0.307D-01 0.112D+00 0.256D+00
 Coeff:      0.498D+00
 Gap=     0.079 Goal=   None    Shift=    0.000
 RMSDP=2.87D-04 MaxDP=3.21D-02 DE=-6.61D-03 OVMax= 7.35D-02

 Cycle   8  Pass 1  IDiag  1:
 E= -138.703295680564     Delta-E=       -0.002736033667 Rises=F Damp=F
 DIIS: error= 5.17D-03 at cycle   8 NSaved=   8.
 NSaved= 8 IEnMin= 8 EnMin= -138.703295680564     IErMin= 8 ErrMin= 5.17D-03
 ErrMax= 5.17D-03  0.00D+00 EMaxC= 1.00D-01 BMatC= 1.81D-03 BMatP= 4.14D-03
 IDIUse=3 WtCom= 9.48D-01 WtEn= 5.17D-02
 EnCoef did   100 forward-backward iterations
 Rare condition: small coef for last iteration:  0.796D-15
 Coeff-Com: -0.130D+00 0.200D+00-0.354D-02-0.258D-01-0.926D-01-0.975D-01
 Coeff-Com:  0.275D+00 0.873D+00
 Coeff-En:   0.000D+00 0.000D+00 0.112D+00 0.000D+00 0.000D+00 0.000D+00
 Coeff-En:   0.239D+00 0.649D+00
 Coeff:     -0.130D+00 0.200D+00-0.354D-02-0.258D-01-0.926D-01-0.975D-01
 Coeff:      0.275D+00 0.873D+00
 Gap=     0.071 Goal=   None    Shift=    0.000
 RMSDP=3.18D-04 MaxDP=3.55D-02 DE=-2.74D-03 OVMax= 5.34D-02

 Cycle   9  Pass 1  IDiag  1:
 E= -138.703913761517     Delta-E=       -0.000618080953 Rises=F Damp=F
 DIIS: error= 5.53D-03 at cycle   9 NSaved=   9.
 NSaved= 9 IEnMin= 9 EnMin= -138.703913761517     IErMin= 8 ErrMin= 5.17D-03
 ErrMax= 5.53D-03  0.00D+00 EMaxC= 1.00D-01 BMatC= 1.85D-03 BMatP= 1.81D-03
 IDIUse=3 WtCom= 9.48D-01 WtEn= 5.17D-02
 EnCoef did   100 forward-backward iterations
 Coeff-Com: -0.107D+00 0.152D+00 0.137D-01 0.211D-01 0.425D-01-0.121D+00
 Coeff-Com: -0.543D-01 0.466D+00 0.587D+00
 Coeff-En:   0.000D+00 0.000D+00 0.118D+00 0.000D+00 0.165D-02 0.000D+00
 Coeff-En:   0.735D-02 0.308D-02 0.869D+00
 Coeff:     -0.102D+00 0.144D+00 0.191D-01 0.200D-01 0.404D-01-0.115D+00
 Coeff:     -0.511D-01 0.442D+00 0.602D+00
 Gap=     0.087 Goal=   None    Shift=    0.000
 RMSDP=3.59D-04 MaxDP=3.89D-02 DE=-6.18D-04 OVMax= 9.61D-02

 Cycle  10  Pass 1  IDiag  1:
 E= -138.702943158096     Delta-E=        0.000970603421 Rises=F Damp=F
 DIIS: error= 3.21D-03 at cycle  10 NSaved=  10.
 NSaved=10 IEnMin= 9 EnMin= -138.703913761517     IErMin=10 ErrMin= 3.21D-03
 ErrMax= 3.21D-03  0.00D+00 EMaxC= 1.00D-01 BMatC= 1.91D-03 BMatP= 1.81D-03
 IDIUse=3 WtCom= 9.68D-01 WtEn= 3.21D-02
 EnCoef did   100 forward-backward iterations
 Coeff-Com: -0.578D-01 0.785D-01-0.216D-02-0.184D-01 0.196D-02-0.135D+00
 Coeff-Com: -0.253D+00 0.812D-01 0.797D+00 0.508D+00
 Coeff-En:   0.000D+00 0.000D+00 0.115D+00 0.000D+00 0.148D-02 0.000D+00
 Coeff-En:   0.657D-02 0.276D-02 0.771D+00 0.103D+00
 Coeff:     -0.559D-01 0.760D-01 0.161D-02-0.178D-01 0.194D-02-0.131D+00
 Coeff:     -0.245D+00 0.787D-01 0.796D+00 0.495D+00
 Gap=     0.087 Goal=   None    Shift=    0.000
 RMSDP=3.60D-04 MaxDP=3.24D-02 DE= 9.71D-04 OVMax= 6.99D-02

 Cycle  11  Pass 1  IDiag  1:
 E= -138.707393396030     Delta-E=       -0.004450237934 Rises=F Damp=F
 DIIS: error= 1.79D-03 at cycle  11 NSaved=  11.
 NSaved=11 IEnMin=11 EnMin= -138.707393396030     IErMin=11 ErrMin= 1.79D-03
 ErrMax= 1.79D-03  0.00D+00 EMaxC= 1.00D-01 BMatC= 2.11D-04 BMatP= 1.81D-03
 IDIUse=3 WtCom= 9.82D-01 WtEn= 1.79D-02
 EnCoef did   100 forward-backward iterations
 Coeff-Com: -0.168D-01 0.242D-01-0.272D-02-0.342D-01-0.369D-02-0.290D-01
 Coeff-Com: -0.138D+00-0.126D+00 0.279D+00 0.343D+00 0.704D+00
 Coeff-En:   0.000D+00 0.000D+00 0.113D+00 0.000D+00 0.000D+00 0.000D+00
 Coeff-En:   0.000D+00 0.000D+00 0.828D-03 0.379D-01 0.848D+00
 Coeff:     -0.165D-01 0.238D-01-0.646D-03-0.336D-01-0.362D-02-0.285D-01
 Coeff:     -0.135D+00-0.124D+00 0.274D+00 0.338D+00 0.707D+00
 Gap=     0.090 Goal=   None    Shift=    0.000
 RMSDP=1.86D-04 MaxDP=3.46D-02 DE=-4.45D-03 OVMax= 3.71D-02

 Cycle  12  Pass 1  IDiag  1:
 E= -138.707942005885     Delta-E=       -0.000548609855 Rises=F Damp=F
 DIIS: error= 1.48D-03 at cycle  12 NSaved=  12.
 NSaved=12 IEnMin=12 EnMin= -138.707942005885     IErMin=12 ErrMin= 1.48D-03
 ErrMax= 1.48D-03  0.00D+00 EMaxC= 1.00D-01 BMatC= 1.83D-04 BMatP= 2.11D-04
 IDIUse=3 WtCom= 9.85D-01 WtEn= 1.48D-02
 EnCoef did   100 forward-backward iterations
 Rare condition: small coef for last iteration: -0.380D-15
 Coeff-Com:  0.127D-01-0.151D-01 0.150D-02-0.276D-01-0.174D-01 0.296D-01
 Coeff-Com:  0.423D-01-0.142D-01-0.263D+00 0.237D-01 0.304D+00 0.924D+00
 Coeff-En:   0.000D+00 0.000D+00 0.112D+00 0.000D+00 0.000D+00 0.000D+00
 Coeff-En:   0.000D+00 0.000D+00 0.000D+00 0.503D-01 0.000D+00 0.838D+00
 Coeff:      0.127D-01-0.151D-01 0.150D-02-0.276D-01-0.174D-01 0.296D-01
 Coeff:      0.423D-01-0.142D-01-0.263D+00 0.237D-01 0.304D+00 0.924D+00
 Gap=     0.093 Goal=   None    Shift=    0.000
 RMSDP=1.01D-04 MaxDP=1.26D-02 DE=-5.49D-04 OVMax= 3.61D-02

 Cycle  13  Pass 1  IDiag  1:
 E= -138.708381129341     Delta-E=       -0.000439123455 Rises=F Damp=F
 DIIS: error= 7.68D-04 at cycle  13 NSaved=  13.
 NSaved=13 IEnMin=13 EnMin= -138.708381129341     IErMin=13 ErrMin= 7.68D-04
 ErrMax= 7.68D-04  0.00D+00 EMaxC= 1.00D-01 BMatC= 6.06D-05 BMatP= 1.83D-04
 IDIUse=3 WtCom= 9.92D-01 WtEn= 7.68D-03
 EnCoef did   100 forward-backward iterations
 Rare condition: small coef for last iteration:  0.000D+00
 Coeff-Com:  0.335D-01-0.452D-01-0.203D-03 0.907D-02-0.242D-01-0.930D-02
 Coeff-Com:  0.747D-01 0.119D+00-0.154D+00-0.206D+00-0.413D+00 0.433D+00
 Coeff-Com:  0.118D+01
 Coeff-En:   0.000D+00 0.000D+00 0.103D+00 0.000D+00 0.000D+00 0.000D+00
 Coeff-En:   0.000D+00 0.000D+00 0.000D+00 0.000D+00 0.000D+00 0.000D+00
 Coeff-En:   0.897D+00
 Coeff:      0.335D-01-0.452D-01-0.203D-03 0.907D-02-0.242D-01-0.930D-02
 Coeff:      0.747D-01 0.119D+00-0.154D+00-0.206D+00-0.413D+00 0.433D+00
 Coeff:      0.118D+01
 Gap=     0.096 Goal=   None    Shift=    0.000
 RMSDP=1.52D-04 MaxDP=4.59D-02 DE=-4.39D-04 OVMax= 4.07D-02

 Cycle  14  Pass 1  IDiag  1:
 E= -138.708470003148     Delta-E=       -0.000088873808 Rises=F Damp=F
 DIIS: error= 9.06D-04 at cycle  14 NSaved=  14.
 NSaved=14 IEnMin=14 EnMin= -138.708470003148     IErMin=13 ErrMin= 7.68D-04
 ErrMax= 9.06D-04  0.00D+00 EMaxC= 1.00D-01 BMatC= 5.43D-05 BMatP= 6.06D-05
 IDIUse=3 WtCom= 9.92D-01 WtEn= 7.68D-03
 EnCoef did   100 forward-backward iterations
 Rare condition: small coef for last iteration:  0.000D+00
 Coeff-Com:  0.247D-01-0.350D-01-0.524D-03 0.144D-01-0.128D-01-0.245D-01
 Coeff-Com:  0.238D-01 0.886D-01 0.423D-01-0.991D-01-0.324D+00-0.178D-01
 Coeff-Com:  0.743D+00 0.576D+00
 Coeff-En:   0.000D+00 0.000D+00 0.101D+00 0.000D+00 0.000D+00 0.000D+00
 Coeff-En:   0.000D+00 0.000D+00 0.000D+00 0.000D+00 0.000D+00 0.000D+00
 Coeff-En:   0.000D+00 0.899D+00
 Coeff:      0.247D-01-0.350D-01-0.524D-03 0.144D-01-0.128D-01-0.245D-01
 Coeff:      0.238D-01 0.886D-01 0.423D-01-0.991D-01-0.324D+00-0.178D-01
 Coeff:      0.743D+00 0.576D+00
 Gap=     0.097 Goal=   None    Shift=    0.000
 RMSDP=8.50D-05 MaxDP=2.38D-02 DE=-8.89D-05 OVMax= 6.76D-03

 Cycle  15  Pass 1  IDiag  1:
 E= -138.708501015599     Delta-E=       -0.000031012451 Rises=F Damp=F
 DIIS: error= 7.90D-04 at cycle  15 NSaved=  15.
 NSaved=15 IEnMin=15 EnMin= -138.708501015599     IErMin=13 ErrMin= 7.68D-04
 ErrMax= 7.90D-04  0.00D+00 EMaxC= 1.00D-01 BMatC= 2.88D-05 BMatP= 5.43D-05
 IDIUse=3 WtCom= 9.92D-01 WtEn= 7.68D-03
 EnCoef did   100 forward-backward iterations
 Rare condition: small coef for last iteration:  0.000D+00
 Coeff-Com:  0.140D-01-0.206D-01-0.209D-03 0.878D-02-0.531D-02-0.168D-01
 Coeff-Com: -0.389D-02 0.369D-01 0.935D-01 0.111D-01-0.103D+00-0.154D+00
 Coeff-Com:  0.164D+00 0.410D+00 0.565D+00
 Coeff-En:   0.000D+00 0.000D+00 0.101D+00 0.000D+00 0.000D+00 0.000D+00
 Coeff-En:   0.000D+00 0.000D+00 0.000D+00 0.000D+00 0.000D+00 0.000D+00
 Coeff-En:   0.000D+00 0.264D+00 0.635D+00
 Coeff:      0.140D-01-0.206D-01-0.209D-03 0.878D-02-0.531D-02-0.168D-01
 Coeff:     -0.389D-02 0.369D-01 0.935D-01 0.111D-01-0.103D+00-0.154D+00
 Coeff:      0.164D+00 0.410D+00 0.565D+00
 Gap=     0.096 Goal=   None    Shift=    0.000
 RMSDP=4.89D-05 MaxDP=1.42D-02 DE=-3.10D-05 OVMax= 5.67D-03

 Cycle  16  Pass 1  IDiag  1:
 E= -138.708532690070     Delta-E=       -0.000031674471 Rises=F Damp=F
 DIIS: error= 4.50D-04 at cycle  16 NSaved=  16.
 NSaved=16 IEnMin=16 EnMin= -138.708532690070     IErMin=16 ErrMin= 4.50D-04
 ErrMax= 4.50D-04  0.00D+00 EMaxC= 1.00D-01 BMatC= 9.34D-06 BMatP= 2.88D-05
 IDIUse=3 WtCom= 9.96D-01 WtEn= 4.50D-03
 EnCoef did   100 forward-backward iterations
 Rare condition: small coef for last iteration:  0.000D+00
 Coeff-Com:  0.696D-02-0.988D-02-0.858D-04 0.106D-02-0.391D-02-0.118D-02
 Coeff-Com: -0.578D-02-0.428D-02 0.363D-01 0.485D-01 0.542D-01-0.550D-01
 Coeff-Com: -0.160D+00-0.135D-01 0.315D+00 0.792D+00
 Coeff-En:   0.000D+00 0.000D+00 0.100D+00 0.000D+00 0.000D+00 0.000D+00
 Coeff-En:   0.000D+00 0.000D+00 0.000D+00 0.000D+00 0.000D+00 0.000D+00
 Coeff-En:   0.000D+00 0.000D+00 0.000D+00 0.900D+00
 Coeff:      0.696D-02-0.988D-02-0.858D-04 0.106D-02-0.391D-02-0.118D-02
 Coeff:     -0.578D-02-0.428D-02 0.363D-01 0.485D-01 0.542D-01-0.550D-01
 Coeff:     -0.160D+00-0.135D-01 0.315D+00 0.792D+00
 Gap=     0.096 Goal=   None    Shift=    0.000
 RMSDP=3.22D-05 MaxDP=9.42D-03 DE=-3.17D-05 OVMax= 4.49D-03

 Cycle  17  Pass 1  IDiag  1:
 E= -138.708546177498     Delta-E=       -0.000013487429 Rises=F Damp=F
 DIIS: error= 2.08D-04 at cycle  17 NSaved=  17.
 NSaved=17 IEnMin=17 EnMin= -138.708546177498     IErMin=17 ErrMin= 2.08D-04
 ErrMax= 2.08D-04  0.00D+00 EMaxC= 1.00D-01 BMatC= 2.04D-06 BMatP= 9.34D-06
 IDIUse=3 WtCom= 9.98D-01 WtEn= 2.08D-03
 EnCoef did   100 forward-backward iterations
 Coeff-Com:  0.408D-02-0.555D-02-0.200D-03 0.212D-03-0.408D-02-0.175D-02
 Coeff-Com:  0.512D-03 0.499D-02-0.713D-02 0.344D-02-0.191D-02 0.361D-01
 Coeff-Com: -0.498D-02-0.714D-01-0.100D+00 0.987D-02 0.114D+01
 Coeff-En:   0.000D+00 0.000D+00 0.112D+00 0.000D+00 0.000D+00 0.000D+00
 Coeff-En:   0.000D+00 0.000D+00 0.000D+00 0.000D+00 0.500D-02 0.821D+00
 Coeff-En:   0.263D-01 0.148D-01 0.504D-02 0.000D+00 0.162D-01
 Coeff:      0.408D-02-0.554D-02 0.328D-04 0.212D-03-0.407D-02-0.175D-02
 Coeff:      0.511D-03 0.498D-02-0.712D-02 0.343D-02-0.190D-02 0.377D-01
 Coeff:     -0.491D-02-0.712D-01-0.100D+00 0.985D-02 0.114D+01
 Gap=     0.096 Goal=   None    Shift=    0.000
 RMSDP=1.31D-05 MaxDP=2.06D-03 DE=-1.35D-05 OVMax= 3.05D-03

 Cycle  18  Pass 1  IDiag  1:
 E= -138.708549219041     Delta-E=       -0.000003041543 Rises=F Damp=F
 DIIS: error= 2.38D-04 at cycle  18 NSaved=  18.
 NSaved=18 IEnMin=18 EnMin= -138.708549219041     IErMin=17 ErrMin= 2.08D-04
 ErrMax= 2.38D-04  0.00D+00 EMaxC= 1.00D-01 BMatC= 1.91D-06 BMatP= 2.04D-06
 IDIUse=3 WtCom= 9.98D-01 WtEn= 2.08D-03
 EnCoef did   100 forward-backward iterations
 Rare condition: small coef for last iteration:  0.234D-15
 Coeff-Com:  0.258D-04-0.285D-04 0.341D-05-0.110D-02-0.234D-02-0.989D-03
 Coeff-Com:  0.389D-02 0.134D-01-0.396D-02-0.384D-02-0.211D-01 0.882D-02
 Coeff-Com:  0.386D-01-0.905D-02-0.109D+00-0.212D+00 0.412D+00 0.887D+00
 Coeff-En:   0.000D+00 0.000D+00 0.101D+00 0.000D+00 0.000D+00 0.000D+00
 Coeff-En:   0.000D+00 0.000D+00 0.000D+00 0.000D+00 0.000D+00 0.000D+00
 Coeff-En:   0.000D+00 0.000D+00 0.000D+00 0.000D+00 0.000D+00 0.899D+00
 Coeff:      0.258D-04-0.285D-04 0.341D-05-0.110D-02-0.234D-02-0.989D-03
 Coeff:      0.389D-02 0.134D-01-0.396D-02-0.384D-02-0.211D-01 0.882D-02
 Coeff:      0.386D-01-0.905D-02-0.109D+00-0.212D+00 0.412D+00 0.887D+00
 Gap=     0.095 Goal=   None    Shift=    0.000
 RMSDP=9.29D-06 MaxDP=2.66D-03 DE=-3.04D-06 OVMax= 2.45D-03

 Cycle  19  Pass 1  IDiag  1:
 E= -138.708551412364     Delta-E=       -0.000002193323 Rises=F Damp=F
 DIIS: error= 1.22D-05 at cycle  19 NSaved=  19.
 NSaved=19 IEnMin=19 EnMin= -138.708551412364     IErMin=19 ErrMin= 1.22D-05
 ErrMax= 1.22D-05  0.00D+00 EMaxC= 1.00D-01 BMatC= 2.18D-08 BMatP= 1.91D-06
 IDIUse=1 WtCom= 1.00D+00 WtEn= 0.00D+00
 Coeff-Com: -0.471D-04 0.137D-03-0.186D-04-0.139D-03 0.116D-03 0.496D-03
 Coeff-Com:  0.758D-03 0.122D-02-0.105D-02-0.162D-02-0.266D-02-0.438D-02
 Coeff-Com:  0.889D-02 0.947D-02-0.876D-03-0.162D-01-0.843D-01 0.723D-01
 Coeff-Com:  0.102D+01
 Coeff:     -0.471D-04 0.137D-03-0.186D-04-0.139D-03 0.116D-03 0.496D-03
 Coeff:      0.758D-03 0.122D-02-0.105D-02-0.162D-02-0.266D-02-0.438D-02
 Coeff:      0.889D-02 0.947D-02-0.876D-03-0.162D-01-0.843D-01 0.723D-01
 Coeff:      0.102D+01
 Gap=     0.095 Goal=   None    Shift=    0.000
 RMSDP=2.79D-06 MaxDP=6.41D-04 DE=-2.19D-06 OVMax= 2.40D-04

 Cycle  20  Pass 1  IDiag  1:
 E= -138.708551459918     Delta-E=       -0.000000047554 Rises=F Damp=F
 DIIS: error= 7.36D-06 at cycle  20 NSaved=  20.
 NSaved=20 IEnMin=20 EnMin= -138.708551459918     IErMin=20 ErrMin= 7.36D-06
 ErrMax= 7.36D-06  0.00D+00 EMaxC= 1.00D-01 BMatC= 1.03D-08 BMatP= 2.18D-08
 IDIUse=1 WtCom= 1.00D+00 WtEn= 0.00D+00
 Coeff-Com:  0.131D-03-0.140D-03 0.903D-05 0.108D-03 0.611D-03 0.792D-03
 Coeff-Com: -0.287D-03-0.334D-02-0.177D-02 0.895D-03 0.575D-02-0.130D-02
 Coeff-Com: -0.830D-02 0.152D-03 0.276D-01 0.618D-01-0.110D+00-0.210D+00
 Coeff-Com:  0.170D+00 0.107D+01
 Coeff:      0.131D-03-0.140D-03 0.903D-05 0.108D-03 0.611D-03 0.792D-03
 Coeff:     -0.287D-03-0.334D-02-0.177D-02 0.895D-03 0.575D-02-0.130D-02
 Coeff:     -0.830D-02 0.152D-03 0.276D-01 0.618D-01-0.110D+00-0.210D+00
 Coeff:      0.170D+00 0.107D+01
 Gap=     0.095 Goal=   None    Shift=    0.000
 RMSDP=1.61D-06 MaxDP=1.40D-04 DE=-4.76D-08 OVMax= 1.36D-04

 Cycle  21  Pass 1  IDiag  1:
 E= -138.708551487173     Delta-E=       -0.000000027255 Rises=F Damp=F
 DIIS: error= 5.16D-06 at cycle  21 NSaved=  20.
 NSaved=20 IEnMin=20 EnMin= -138.708551487173     IErMin=20 ErrMin= 5.16D-06
 ErrMax= 5.16D-06  0.00D+00 EMaxC= 1.00D-01 BMatC= 3.03D-09 BMatP= 1.03D-08
 IDIUse=1 WtCom= 1.00D+00 WtEn= 0.00D+00
 Coeff-Com:  0.105D-03-0.133D-03 0.919D-05 0.613D-05 0.654D-04 0.305D-04
 Coeff-Com: -0.121D-02-0.761D-03 0.340D-03 0.302D-02 0.246D-02-0.580D-02
 Coeff-Com: -0.575D-02 0.699D-02 0.265D-01 0.587D-02-0.870D-01-0.350D+00
 Coeff-Com:  0.353D+00 0.105D+01
 Coeff:      0.105D-03-0.133D-03 0.919D-05 0.613D-05 0.654D-04 0.305D-04
 Coeff:     -0.121D-02-0.761D-03 0.340D-03 0.302D-02 0.246D-02-0.580D-02
 Coeff:     -0.575D-02 0.699D-02 0.265D-01 0.587D-02-0.870D-01-0.350D+00
 Coeff:      0.353D+00 0.105D+01
 Gap=     0.095 Goal=   None    Shift=    0.000
 RMSDP=9.37D-07 MaxDP=7.62D-05 DE=-2.73D-08 OVMax= 5.52D-05

 Cycle  22  Pass 1  IDiag  1:
 E= -138.708551495262     Delta-E=       -0.000000008088 Rises=F Damp=F
 DIIS: error= 2.71D-06 at cycle  22 NSaved=  20.
 NSaved=20 IEnMin=20 EnMin= -138.708551495262     IErMin=20 ErrMin= 2.71D-06
 ErrMax= 2.71D-06  0.00D+00 EMaxC= 1.00D-01 BMatC= 3.91D-10 BMatP= 3.03D-09
 IDIUse=1 WtCom= 1.00D+00 WtEn= 0.00D+00
 Coeff-Com:  0.387D-06-0.174D-04-0.118D-03-0.102D-03 0.112D-03 0.166D-03
 Coeff-Com: -0.169D-05-0.398D-04 0.442D-03 0.107D-02-0.876D-03-0.255D-02
 Coeff-Com: -0.230D-02 0.133D-03 0.188D-01-0.204D-02-0.123D+00-0.632D-01
 Coeff-Com:  0.287D+00 0.887D+00
 Coeff:      0.387D-06-0.174D-04-0.118D-03-0.102D-03 0.112D-03 0.166D-03
 Coeff:     -0.169D-05-0.398D-04 0.442D-03 0.107D-02-0.876D-03-0.255D-02
 Coeff:     -0.230D-02 0.133D-03 0.188D-01-0.204D-02-0.123D+00-0.632D-01
 Coeff:      0.287D+00 0.887D+00
 Gap=     0.095 Goal=   None    Shift=    0.000
 RMSDP=4.88D-07 MaxDP=6.54D-05 DE=-8.09D-09 OVMax= 5.80D-05

 Cycle  23  Pass 1  IDiag  1:
 E= -138.708551496306     Delta-E=       -0.000000001045 Rises=F Damp=F
 DIIS: error= 7.00D-07 at cycle  23 NSaved=  20.
 NSaved=20 IEnMin=20 EnMin= -138.708551496306     IErMin=20 ErrMin= 7.00D-07
 ErrMax= 7.00D-07  0.00D+00 EMaxC= 1.00D-01 BMatC= 5.58D-11 BMatP= 3.91D-10
 IDIUse=1 WtCom= 1.00D+00 WtEn= 0.00D+00
 Coeff-Com:  0.227D-05-0.489D-04-0.287D-04 0.514D-04 0.144D-03-0.738D-04
 Coeff-Com: -0.140D-03-0.992D-04 0.319D-03 0.556D-03-0.497D-03-0.187D-02
 Coeff-Com: -0.235D-02 0.706D-02 0.537D-02-0.687D-02-0.641D-01-0.224D-01
 Coeff-Com:  0.302D+00 0.782D+00
 Coeff:      0.227D-05-0.489D-04-0.287D-04 0.514D-04 0.144D-03-0.738D-04
 Coeff:     -0.140D-03-0.992D-04 0.319D-03 0.556D-03-0.497D-03-0.187D-02
 Coeff:     -0.235D-02 0.706D-02 0.537D-02-0.687D-02-0.641D-01-0.224D-01
 Coeff:      0.302D+00 0.782D+00
 Gap=     0.095 Goal=   None    Shift=    0.000
 RMSDP=3.47D-07 MaxDP=1.02D-04 DE=-1.04D-09 OVMax= 1.05D-05

 Cycle  24  Pass 1  IDiag  1:
 E= -138.708551496395     Delta-E=       -0.000000000089 Rises=F Damp=F
 DIIS: error= 2.16D-07 at cycle  24 NSaved=  20.
 NSaved=20 IEnMin=20 EnMin= -138.708551496395     IErMin=20 ErrMin= 2.16D-07
 ErrMax= 2.16D-07  0.00D+00 EMaxC= 1.00D-01 BMatC= 4.72D-12 BMatP= 5.58D-11
 IDIUse=1 WtCom= 1.00D+00 WtEn= 0.00D+00
 Coeff-Com: -0.732D-05 0.777D-05 0.214D-04 0.324D-04-0.702D-04-0.395D-04
 Coeff-Com: -0.132D-04 0.590D-04 0.183D-03 0.158D-05-0.352D-03-0.384D-03
 Coeff-Com:  0.456D-03 0.211D-02 0.556D-02-0.116D-01-0.241D-01-0.338D-02
 Coeff-Com:  0.210D+00 0.822D+00
 Coeff:     -0.732D-05 0.777D-05 0.214D-04 0.324D-04-0.702D-04-0.395D-04
 Coeff:     -0.132D-04 0.590D-04 0.183D-03 0.158D-05-0.352D-03-0.384D-03
 Coeff:      0.456D-03 0.211D-02 0.556D-02-0.116D-01-0.241D-01-0.338D-02
 Coeff:      0.210D+00 0.822D+00
 Gap=     0.095 Goal=   None    Shift=    0.000
 RMSDP=9.15D-08 MaxDP=2.19D-05 DE=-8.85D-11 OVMax= 2.67D-06

 Cycle  25  Pass 1  IDiag  1:
 E= -138.708551496401     Delta-E=       -0.000000000006 Rises=F Damp=F
 DIIS: error= 8.00D-08 at cycle  25 NSaved=  20.
 NSaved=20 IEnMin=20 EnMin= -138.708551496401     IErMin=20 ErrMin= 8.00D-08
 ErrMax= 8.00D-08  0.00D+00 EMaxC= 1.00D-01 BMatC= 1.03D-12 BMatP= 4.72D-12
 IDIUse=1 WtCom= 1.00D+00 WtEn= 0.00D+00
 Coeff-Com:  0.502D-05 0.898D-05 0.133D-04-0.242D-04-0.582D-05-0.642D-05
 Coeff-Com: -0.599D-05 0.239D-04 0.515D-04 0.564D-04 0.788D-04-0.540D-03
 Coeff-Com:  0.728D-03 0.189D-02 0.789D-03-0.555D-02-0.270D-01 0.973D-02
 Coeff-Com:  0.375D+00 0.645D+00
 Coeff:      0.502D-05 0.898D-05 0.133D-04-0.242D-04-0.582D-05-0.642D-05
 Coeff:     -0.599D-05 0.239D-04 0.515D-04 0.564D-04 0.788D-04-0.540D-03
 Coeff:      0.728D-03 0.189D-02 0.789D-03-0.555D-02-0.270D-01 0.973D-02
 Coeff:      0.375D+00 0.645D+00
 Gap=     0.095 Goal=   None    Shift=    0.000
 RMSDP=2.39D-08 MaxDP=6.38D-06 DE=-5.54D-12 OVMax= 2.98D-06

 Cycle  26  Pass 1  IDiag  1:
 E= -138.708551496399     Delta-E=        0.000000000002 Rises=F Damp=F
 DIIS: error= 1.19D-07 at cycle  26 NSaved=  20.
 NSaved=20 IEnMin=19 EnMin= -138.708551496401     IErMin=19 ErrMin= 8.00D-08
 ErrMax= 1.19D-07  0.00D+00 EMaxC= 1.00D-01 BMatC= 1.90D-12 BMatP= 1.03D-12
 IDIUse=1 WtCom= 1.00D+00 WtEn= 0.00D+00
 Coeff-Com:  0.399D-05 0.139D-04-0.444D-05 0.661D-06-0.138D-04-0.130D-04
 Coeff-Com:  0.161D-05 0.414D-04 0.765D-04 0.536D-04-0.398D-03 0.542D-03
 Coeff-Com: -0.611D-04 0.204D-02 0.876D-03-0.186D-01-0.304D-01 0.168D+00
 Coeff-Com:  0.578D+00 0.299D+00
 Coeff:      0.399D-05 0.139D-04-0.444D-05 0.661D-06-0.138D-04-0.130D-04
 Coeff:      0.161D-05 0.414D-04 0.765D-04 0.536D-04-0.398D-03 0.542D-03
 Coeff:     -0.611D-04 0.204D-02 0.876D-03-0.186D-01-0.304D-01 0.168D+00
 Coeff:      0.578D+00 0.299D+00
 Gap=     0.095 Goal=   None    Shift=    0.000
 RMSDP=9.80D-09 MaxDP=9.75D-07 DE= 1.71D-12 OVMax= 2.19D-06

 SCF Done:  E(ROHF) =  -138.708551496     A.U. after   26 cycles
            NFock= 26  Conv=0.98D-08     -V/T= 2.6227
 <Sx>= 0.0000 <Sy>= 0.0000 <Sz>= 2.0000 <S**2>= 6.0000 S= 2.0000
 <L.S>=  0.00000000000    
 KE= 8.548149569468D+01 PE=-4.065134531187D+02 EE= 1.432457041981D+02
 Annihilation of the first spin contaminant:
 S**2 before annihilation     6.0000,   after     6.0000
 Leave Link  502 at Sun Mar 25 07:20:44 2018, MaxMem= 10737418240 cpu:            2644.6 elap:             106.4
 (Enter /home1/apps/gaussian/16rA.03/g16/l801.exe)
 Windowed orbitals will be sorted by symmetry type.
 GenMOA:  NOpAll=  4 NOp2=4 NOpUse=  4 JSym2X=1
 FoFJK:  IHMeth= 1 ICntrl=       0 DoSepK=F KAlg= 0 I1Cent=           0 FoldK=F
 IRaf=         0 NMat=       1 IRICut=       1 DoRegI=T DoRafI=F ISym2E= 1 IDoP0=0 IntGTp=1.
 FoFCou: FMM=F IPFlag=           8 FMFlag=      100000 FMFlg1=           0
         NFxFlg=           0 DoJE=F BraDBF=F KetDBF=F FulRan=T
         wScrn=  0.000000 ICntrl=         0 IOpCl=  1 I1Cent=           0 NGrid=           0
         NMat0=    1 NMatS0=      1 NMatT0=    0 NMatD0=    1 NMtDS0=    0 NMtDT0=    0
 Petite list used in FoFCou.
 <Sx>= 0.0000 <Sy>= 0.0000 <Sz>= 2.0000 <S**2>= 6.0000 S= 2.0000
 Range of M.O.s used for correlation:     1   380
 NBasis=   384 NAE=    13 NBE=     9 NFC=     0 NFV=     0
 NROrb=    380 NOA=    13 NOB=     9 NVA=   367 NVB=   371

 **** Warning!!: The largest alpha MO coefficient is  0.28880884D+03


 **** Warning!!: The largest beta MO coefficient is  0.28880981D+03

 Singles contribution to E2=   -0.1032102493D-01
 Leave Link  801 at Sun Mar 25 07:21:06 2018, MaxMem= 10737418240 cpu:             692.7 elap:              21.7
 (Enter /home1/apps/gaussian/16rA.03/g16/l804.exe)
 Open-shell transformation, MDV= 10737418240 ITran=4 ISComp=2.
 Unit  1 TFree=       4438923 TCopy=       3213333.
 Semi-Direct transformation.
 ModeAB=           4 MOrb=            13 LenV=   10733107098
 LASXX=     88669000 LTotXX=    88669000 LenRXX=   178270504
 LTotAB=    89601504 MaxLAS=   605876180 LenRXY=           0
 NonZer=   266939504 LenScr=   401980416 LnRSAI=   605876180
 LnScr1=   912378880 LExtra=    26972549 Total=   2125478529
 MaxDsk= 67108864000 SrtSym=           T ITran=            4
 DoSDTr:  NPSUse= 32
 JobTyp=1 Pass  1:  I=   1 to  13.
 (rs|ai) integrals will be sorted in core.
 Complete sort for first half transformation.
 First half transformation complete.
 Begin second half transformation for I=  10.
 Complete sort for second half transformation.
 Second half transformation complete.
 ModeAB=           4 MOrb=             9 LenV=   10733107098
 LASXX=     62202036 LTotXX=    62202036 LenRXX=   120793668
 LTotAB=    58591632 MaxLAS=   419452740 LenRXY=           0
 NonZer=   182995704 LenScr=   275570688 LnRSAI=   419452740
 LnScr1=   631647232 LExtra=   205243053 Total=   1652707381
 MaxDsk= 67108864000 SrtSym=           T ITran=            4
 DoSDTr:  NPSUse= 32
 JobTyp=2 Pass  1:  I=   1 to   9.
 (rs|ai) integrals will be sorted in core.
 Complete sort for first half transformation.
 First half transformation complete.
 Complete sort for second half transformation.
 Second half transformation complete.
 Spin components of T(2) and E(2):
     alpha-alpha T2 =       0.4006632512D-01 E2=     -0.2062722115D+00
     alpha-beta  T2 =       0.1324567508D+00 E2=     -0.7548587784D+00
     beta-beta   T2 =       0.2838729436D-01 E2=     -0.1225711938D+00
 ANorm=    0.1098116027D+01
 E2 =    -0.1094023209D+01 EUMP2 =    -0.13980257470496D+03
 (S**2,0)=  0.60000D+01           (S**2,1)=  0.60000D+01
 E(PUHF)=      -0.13870855150D+03        E(PMP2)=      -0.13980257470D+03
 Leave Link  804 at Sun Mar 25 07:33:15 2018, MaxMem= 10737418240 cpu:           23307.1 elap:             728.8
 (Enter /home1/apps/gaussian/16rA.03/g16/l913.exe)
 CIDS:  MDV= 10737418240.
 IFCWin=0 IBDFC=1 NFBD=     0     0 NFCmp=     0     0 NFFFC=     0     0
 Using original routines for 1st iteration.
 Using DD4UQ or CC4UQ for 2nd and later iterations.
 Keep R2 and R3 ints in memory in symmetry-blocked form, NReq=3425135935.
 FoFCou: FMM=F IPFlag=           8 FMFlag=           0 FMFlg1=           0
         NFxFlg=           0 DoJE=F BraDBF=F KetDBF=F FulRan=T
         wScrn=  0.000000 ICntrl=       600 IOpCl=  0 I1Cent=           0 NGrid=           0
         NMat0=    1 NMatS0=  73920 NMatT0=    0 NMatD0=    1 NMtDS0=    0 NMtDT0=    0
 Petite list used in FoFCou.
 CIDS: In Core Option IDoMem=           1.
 CCSD(T)
 =======
 Iterations= 150 Convergence= 0.100D-06
 Produce multiple copies of IABC intergrals
 Iteration Nr.   1
 **********************
 DD1Dir will call FoFMem   1 times, MxPair=       348
 NAB=   117 NAA=    78 NBB=    36.
 DD1Dir will call FoFMem   1 times, MxPair=       348
 NAB=   117 NAA=    78 NBB=    36.
 MP4(R+Q)= -0.92397547D-01
 Maximum subspace dimension=  5
 A-vector RMS=  3.1317580D-04 Max=  3.9990102D-03 conv= 1.00D-05.
 RLE energy=       -1.0789089476
 E3=        0.10708623D+00        EROMP3=      -0.13969548848D+03
 E4(SDQ)=  -0.77533167D-01        ROMP4(SDQ)=  -0.13977302164D+03
 VARIATIONAL ENERGIES WITH THE FIRST-ORDER WAVEFUNCTION:
 DE(Corr)=  -1.0786934     E(Corr)=     -139.78724486    
 NORM(A)=   0.10928144D+01
 Iteration Nr.   2
 **********************
 DD1Dir will call FoFMem   1 times, MxPair=       348
 NAB=   117 NAA=    78 NBB=    36.
 A-vector RMS=  4.3014821D-03 Max=  7.3675461D-02 conv= 1.00D-05.
 RLE energy=       -1.0509015764
 DE(Corr)= -0.96936489     E(CORR)=     -139.67791639     Delta= 1.09D-01
 NORM(A)=   0.10867626D+01
 Iteration Nr.   3
 **********************
 DD1Dir will call FoFMem   1 times, MxPair=       348
 NAB=   117 NAA=    78 NBB=    36.
 A-vector RMS=  2.8842856D-03 Max=  4.7732242D-02 conv= 1.00D-05.
 RLE energy=       -1.0418485367
 DE(Corr)= -0.98916069     E(CORR)=     -139.69771219     Delta=-1.98D-02
 NORM(A)=   0.10907082D+01
 Iteration Nr.   4
 **********************
 DD1Dir will call FoFMem   1 times, MxPair=       348
 NAB=   117 NAA=    78 NBB=    36.
 A-vector RMS=  2.1561030D-03 Max=  3.7231809D-02 conv= 1.00D-05.
 RLE energy=       -1.0119567915
 DE(Corr)=  -1.0063755     E(CORR)=     -139.71492695     Delta=-1.72D-02
 NORM(A)=   0.11332918D+01
 Iteration Nr.   5
 **********************
 DD1Dir will call FoFMem   1 times, MxPair=       348
 NAB=   117 NAA=    78 NBB=    36.
 A-vector RMS=  1.8655366D-03 Max=  3.1666055D-02 conv= 1.00D-05.
 RLE energy=       -1.0307496974
 DE(Corr)=  -1.0628966     E(CORR)=     -139.77144815     Delta=-5.65D-02
 NORM(A)=   0.11386940D+01
 Iteration Nr.   6
 **********************
 DD1Dir will call FoFMem   1 times, MxPair=       348
 NAB=   117 NAA=    78 NBB=    36.
 A-vector RMS=  7.3204678D-04 Max=  9.5734511D-03 conv= 1.00D-05.
 RLE energy=       -1.0366154359
 DE(Corr)=  -1.0491211     E(CORR)=     -139.75767259     Delta= 1.38D-02
 NORM(A)=   0.11249265D+01
 Iteration Nr.   7
 **********************
 DD1Dir will call FoFMem   1 times, MxPair=       348
 NAB=   117 NAA=    78 NBB=    36.
 A-vector RMS=  1.0331253D-04 Max=  1.7029592D-03 conv= 1.00D-05.
 RLE energy=       -1.0356701410
 DE(Corr)=  -1.0355918     E(CORR)=     -139.74414329     Delta= 1.35D-02
 NORM(A)=   0.11249834D+01
 Iteration Nr.   8
 **********************
 DD1Dir will call FoFMem   1 times, MxPair=       348
 NAB=   117 NAA=    78 NBB=    36.
 A-vector RMS=  7.3688575D-05 Max=  1.1759891D-03 conv= 1.00D-05.
 RLE energy=       -1.0357939457
 DE(Corr)=  -1.0359889     E(CORR)=     -139.74454039     Delta=-3.97D-04
 NORM(A)=   0.11255355D+01
 Iteration Nr.   9
 **********************
 DD1Dir will call FoFMem   1 times, MxPair=       348
 NAB=   117 NAA=    78 NBB=    36.
 A-vector RMS=  3.6065213D-05 Max=  6.3563317D-04 conv= 1.00D-05.
 RLE energy=       -1.0359737601
 DE(Corr)=  -1.0358488     E(CORR)=     -139.74440034     Delta= 1.40D-04
 NORM(A)=   0.11261094D+01
 Iteration Nr.  10
 **********************
 DD1Dir will call FoFMem   1 times, MxPair=       348
 NAB=   117 NAA=    78 NBB=    36.
 A-vector RMS=  1.9585049D-05 Max=  3.4857705D-04 conv= 1.00D-05.
 RLE energy=       -1.0359794628
 DE(Corr)=  -1.0359433     E(CORR)=     -139.74449479     Delta=-9.44D-05
 NORM(A)=   0.11262310D+01
 Iteration Nr.  11
 **********************
 DD1Dir will call FoFMem   1 times, MxPair=       348
 NAB=   117 NAA=    78 NBB=    36.
 A-vector RMS=  8.8972577D-06 Max=  1.2641985D-04 conv= 1.00D-05.
 RLE energy=       -1.0359787415
 DE(Corr)=  -1.0359636     E(CORR)=     -139.74451509     Delta=-2.03D-05
 NORM(A)=   0.11263122D+01
 Iteration Nr.  12
 **********************
 DD1Dir will call FoFMem   1 times, MxPair=       348
 NAB=   117 NAA=    78 NBB=    36.
 A-vector RMS=  6.5584988D-06 Max=  1.0270404D-04 conv= 1.00D-05.
 RLE energy=       -1.0360112505
 DE(Corr)=  -1.0359947     E(CORR)=     -139.74454621     Delta=-3.11D-05
 NORM(A)=   0.11262941D+01
 Iteration Nr.  13
 **********************
 DD1Dir will call FoFMem   1 times, MxPair=       348
 NAB=   117 NAA=    78 NBB=    36.
 A-vector RMS=  2.4931343D-06 Max=  2.9841480D-05 conv= 1.00D-05.
 RLE energy=       -1.0359633026
 DE(Corr)=  -1.0359638     E(CORR)=     -139.74451533     Delta= 3.09D-05
 NORM(A)=   0.11262716D+01
 Iteration Nr.  14
 **********************
 DD1Dir will call FoFMem   1 times, MxPair=       348
 NAB=   117 NAA=    78 NBB=    36.
 A-vector RMS=  1.9410170D-06 Max=  3.8950361D-05 conv= 1.00D-05.
 RLE energy=       -1.0359711801
 DE(Corr)=  -1.0359802     E(CORR)=     -139.74453165     Delta=-1.63D-05
 NORM(A)=   0.11262510D+01
 Iteration Nr.  15
 **********************
 DD1Dir will call FoFMem   1 times, MxPair=       348
 NAB=   117 NAA=    78 NBB=    36.
 A-vector RMS=  5.1820332D-07 Max=  8.2133203D-06 conv= 1.00D-05.
 RLE energy=       -1.0359651137
 DE(Corr)=  -1.0359642     E(CORR)=     -139.74451570     Delta= 1.60D-05
 NORM(A)=   0.11262483D+01
 Iteration Nr.  16
 **********************
 DD1Dir will call FoFMem   1 times, MxPair=       348
 NAB=   117 NAA=    78 NBB=    36.
 A-vector RMS=  3.3968377D-07 Max=  6.6201016D-06 conv= 1.00D-05.
 RLE energy=       -1.0359657186
 DE(Corr)=  -1.0359664     E(CORR)=     -139.74451786     Delta=-2.17D-06
 NORM(A)=   0.11262485D+01
 Iteration Nr.  17
 **********************
 DD1Dir will call FoFMem   1 times, MxPair=       348
 NAB=   117 NAA=    78 NBB=    36.
 A-vector RMS=  2.2374461D-07 Max=  4.5838863D-06 conv= 1.00D-05.
 RLE energy=       -1.0359656463
 DE(Corr)=  -1.0359653     E(CORR)=     -139.74451680     Delta= 1.07D-06
 NORM(A)=   0.11262509D+01
 Iteration Nr.  18
 **********************
 DD1Dir will call FoFMem   1 times, MxPair=       348
 NAB=   117 NAA=    78 NBB=    36.
 A-vector RMS=  1.3862611D-07 Max=  3.2555782D-06 conv= 1.00D-05.
 RLE energy=       -1.0359662134
 DE(Corr)=  -1.0359660     E(CORR)=     -139.74451748     Delta=-6.86D-07
 NORM(A)=   0.11262534D+01
 Iteration Nr.  19
 **********************
 DD1Dir will call FoFMem   1 times, MxPair=       348
 NAB=   117 NAA=    78 NBB=    36.
 A-vector RMS=  8.6073411D-08 Max=  2.0616904D-06 conv= 1.00D-05.
 RLE energy=       -1.0359666307
 DE(Corr)=  -1.0359664     E(CORR)=     -139.74451788     Delta=-3.98D-07
 NORM(A)=   0.11262551D+01
 Iteration Nr.  20
 **********************
 DD1Dir will call FoFMem   1 times, MxPair=       348
 NAB=   117 NAA=    78 NBB=    36.
 A-vector RMS=  6.5190654D-08 Max=  1.2689536D-06 conv= 1.00D-05.
 RLE energy=       -1.0359667791
 DE(Corr)=  -1.0359666     E(CORR)=     -139.74451814     Delta=-2.59D-07
 NORM(A)=   0.11262560D+01
 Iteration Nr.  21
 **********************
 DD1Dir will call FoFMem   1 times, MxPair=       348
 NAB=   117 NAA=    78 NBB=    36.
 A-vector RMS=  4.2036457D-08 Max=  5.7542106D-07 conv= 1.00D-05.
 RLE energy=       -1.0359668153
 DE(Corr)=  -1.0359668     E(CORR)=     -139.74451828     Delta=-1.39D-07
 NORM(A)=   0.11262560D+01
 Iteration Nr.  22
 **********************
 DD1Dir will call FoFMem   1 times, MxPair=       348
 NAB=   117 NAA=    78 NBB=    36.
 A-vector RMS=  2.0441235D-08 Max=  3.1123483D-07 conv= 1.00D-05.
 RLE energy=       -1.0359667311
 DE(Corr)=  -1.0359667     E(CORR)=     -139.74451823     Delta= 4.57D-08
 NORM(A)=   0.11262559D+01
 CI/CC converged in   22 iterations to DelEn= 4.57D-08 Conv= 1.00D-07 ErrA1= 2.04D-08 Conv= 1.00D-05
 Wavefunction amplitudes converged. E(Corr)=     -139.74451823    
 Largest amplitude= 9.65D-02
 Time for triples=   148192.73 seconds.
 T4(CCSD)= -0.58544413D-01
 T5(CCSD)=  0.11336727D-01
 CCSD(T)= -0.13979172592D+03
 Discarding MO integrals.
 Leave Link  913 at Sun Mar 25 09:12:19 2018, MaxMem= 10737418240 cpu:          189176.2 elap:            5943.6
 (Enter /home1/apps/gaussian/16rA.03/g16/l601.exe)
 Copying SCF densities to generalized density rwf, IOpCl= 0 IROHF=1.

 **********************************************************************

            Population analysis using the SCF density.

 **********************************************************************

 Orbital symmetries:
       Occupied  (SG) (SG) (PI) (PI) (SG) (PI) (PI) (SG) (DLTA)
                 (DLTA) (SG) (PI) (PI)
       Virtual   (SG) (PI) (PI) (SG) (SG) (PI) (PI) (DLTA) (DLTA)
                 (SG) (PI) (PI) (SG) (SG) (PI) (PI) (DLTA) (SG)
                 (DLTA) (PI) (PI) (SG) (PI) (PI) (SG) (SG) (SG)
                 (PI) (PI) (DLTA) (DLTA) (PHI) (PHI) (DLTA) (DLTA)
                 (SG) (PI) (PI) (SG) (PI) (PI) (DLTA) (DLTA) (PI)
                 (PI) (SG) (SG) (PI) (PI) (SG) (PHI) (PHI) (?A)
                 (?A) (SG) (PI) (PI) (SG) (?A) (?A) (PI) (PI) (DLTA)
                 (DLTA) (SG) (PHI) (PHI) (SG) (PI) (PI) (?B) (?B)
                 (DLTA) (DLTA) (?C) (?C) (?C) (?C) (SG) (SG) (PI)
                 (PI) (PI) (PI) (DLTA) (DLTA) (SG) (SG) (PI) (PI)
                 (?B) (?B) (DLTA) (DLTA) (PI) (PI) (SG) (SG) (PHI)
                 (PHI) (PI) (PI) (DLTA) (DLTA) (SG) (PHI) (PHI)
                 (DLTA) (DLTA) (SG) (PI) (PI) (?C) (?C) (?C) (?C)
                 (SG) (DLTA) (DLTA) (DLTA) (DLTA) (SG) (?D) (?D)
                 (?B) (?B) (?B) (?B) (?C) (?C) (?C) (?C) (SG) (PI)
                 (PI) (DLTA) (DLTA) (PHI) (PHI) (SG) (PI) (PI)
                 (SG) (DLTA) (DLTA) (PI) (PI) (SG) (SG) (DLTA)
                 (DLTA) (PI) (PI) (SG) (PI) (PI) (?B) (?B) (SG)
                 (PHI) (PHI) (DLTA) (DLTA) (PI) (PI) (SG) (PHI)
                 (PHI) (PHI) (PHI) (DLTA) (DLTA) (SG) (DLTA) (DLTA)
                 (PI) (PI) (PI) (PI) (SG) (DLTA) (DLTA) (PI) (PI)
                 (SG) (?E) (?E) (?C) (?C) (?E) (?C) (?C) (DLTA)
                 (DLTA) (?D) (?D) (?F) (?F) (?C) (?C) (?F) (?C)
                 (?C) (DLTA) (DLTA) (DLTA) (DLTA) (SG) (PI) (PI)
                 (PI) (PI) (SG) (SG) (SG) (PI) (PI) (SG) (DLTA)
                 (DLTA) (PI) (PI) (PI) (PI) (SG) (SG) (PHI) (PHI)
                 (DLTA) (DLTA) (PI) (PI) (SG) (?B) (?B) (?C) (?C)
                 (DLTA) (DLTA) (SG) (?C) (?C) (SG) (?G) (?G) (?D)
                 (?D) (?C) (?C) (DLTA) (DLTA) (?C) (?C) (?G) (SG)
                 (DLTA) (DLTA) (PI) (PI) (DLTA) (DLTA) (SG) (PI)
                 (PI) (SG) (PI) (PI) (SG) (SG) (PI) (PI) (SG) (SG)
                 (DLTA) (DLTA) (PI) (PI) (SG) (PI) (PI) (SG) (PHI)
                 (PHI) (DLTA) (DLTA) (PI) (PI) (SG) (SG) (SG) (PI)
                 (PI) (SG) (DLTA) (DLTA) (PI) (PI) (SG) (PI) (PI)
                 (SG) (SG) (DLTA) (DLTA) (PI) (PI) (SG) (SG) (PI)
                 (PI) (SG) (PI) (PI) (SG) (SG) (DLTA) (DLTA) (PI)
                 (PI) (SG) (SG) (PI) (PI) (SG) (SG) (PI) (PI) (SG)
                 (SG) (SG) (PI) (PI) (SG) (DLTA) (DLTA) (PI) (PI)
                 (SG) (SG) (PI) (PI) (SG) (SG) (SG) (PI) (PI) (SG)
                 (SG) (SG) (PI) (PI) (SG) (SG) (SG) (PI) (PI) (SG)
                 (SG) (PI) (PI) (SG) (SG) (SG) (SG) (SG) (SG) (SG)
 Unable to determine electronic state:  partially filled degenerate orbitals.
 Alpha  occ. eigenvalues --   -4.47345  -2.98531  -2.92259  -2.92259  -1.29309
 Alpha  occ. eigenvalues --   -0.76001  -0.76001  -0.63004  -0.61422  -0.58642
 Alpha  occ. eigenvalues --   -0.43243  -0.43243  -0.30913
 Alpha virt. eigenvalues --    0.01610   0.02275   0.02275   0.03062   0.05422
 Alpha virt. eigenvalues --    0.06458   0.06458   0.06662   0.06672   0.07589
 Alpha virt. eigenvalues --    0.07995   0.07995   0.11480   0.15596   0.19612
 Alpha virt. eigenvalues --    0.19612   0.21158   0.21289   0.21476   0.21813
 Alpha virt. eigenvalues --    0.21813   0.22799   0.25759   0.25759   0.31769
 Alpha virt. eigenvalues --    0.45792   0.51690   0.53075   0.53075   0.54664
 Alpha virt. eigenvalues --    0.54750   0.57311   0.57862   0.58125   0.58125
 Alpha virt. eigenvalues --    0.60134   0.60333   0.60333   0.68908   0.71019
 Alpha virt. eigenvalues --    0.71019   0.71881   0.71995   0.77830   0.77830
 Alpha virt. eigenvalues --    0.81981   0.84219   1.08269   1.08269   1.22775
 Alpha virt. eigenvalues --    1.42962   1.42962   1.47528   1.48188   1.51271
 Alpha virt. eigenvalues --    1.51271   1.52012   1.53818   1.55928   1.56966
 Alpha virt. eigenvalues --    1.62502   1.62502   1.64372   1.64495   1.70911
 Alpha virt. eigenvalues --    1.78009   1.78009   1.79738   1.84651   1.84651
 Alpha virt. eigenvalues --    1.88134   1.88137   1.98041   1.98528   2.09183
 Alpha virt. eigenvalues --    2.09183   2.09379   2.09379   2.14150   2.26652
 Alpha virt. eigenvalues --    2.35406   2.35406   2.50094   2.50094   2.59381
 Alpha virt. eigenvalues --    2.60004   2.75787   3.15936   3.67780   3.67780
 Alpha virt. eigenvalues --    3.68361   3.70519   3.70849   3.70849   3.71126
 Alpha virt. eigenvalues --    3.71126   3.83626   3.87511   4.01026   4.01026
 Alpha virt. eigenvalues --    4.14382   4.14382   4.15410   4.15906   4.16888
 Alpha virt. eigenvalues --    4.17575   4.17575   4.24591   4.24665   4.32092
 Alpha virt. eigenvalues --    4.68214   4.68214   4.75782   4.75782   4.81692
 Alpha virt. eigenvalues --    4.81692   4.88222   4.92371   4.93154   4.93642
 Alpha virt. eigenvalues --    4.95157   5.21010   5.28417   5.28417   5.33557
 Alpha virt. eigenvalues --    5.33565   5.40339   5.40342   5.41581   5.41581
 Alpha virt. eigenvalues --    5.42579   5.42579   5.51973   5.71692   5.71692
 Alpha virt. eigenvalues --    5.78628   5.79761   6.03093   6.03093   6.10657
 Alpha virt. eigenvalues --    6.74493   6.74493   7.03663   7.10875   7.11883
 Alpha virt. eigenvalues --    7.34328   7.34328   7.60480   7.90612   7.99339
 Alpha virt. eigenvalues --    8.02326   8.21274   8.21274   8.69961  10.02730
 Alpha virt. eigenvalues --   10.02730  10.69197  10.69197  10.77026  10.81742
 Alpha virt. eigenvalues --   10.81742  11.04596  11.04977  11.08612  11.08612
 Alpha virt. eigenvalues --   11.36869  11.89509  11.89509  11.97343  11.97343
 Alpha virt. eigenvalues --   11.99407  12.01707  12.05122  12.31358  12.31757
 Alpha virt. eigenvalues --   12.38427  12.38427  12.78702  12.78702  12.88836
 Alpha virt. eigenvalues --   12.90680  12.90948  13.05207  13.05207  13.30124
 Alpha virt. eigenvalues --   13.51420  13.51450  13.54663  13.54663  13.73898
 Alpha virt. eigenvalues --   13.78965  13.78965  13.93698  13.95942  14.30009
 Alpha virt. eigenvalues --   14.30009  14.31129  14.31163  14.50809  14.50809
 Alpha virt. eigenvalues --   14.54568  14.76450  14.76450  14.80840  14.82892
 Alpha virt. eigenvalues --   15.41954  15.45429  15.47580  15.54973  15.54973
 Alpha virt. eigenvalues --   15.75041  15.75041  16.06372  16.83568  18.46728
 Alpha virt. eigenvalues --   26.60045  26.60045  27.28842  27.55298  27.58992
 Alpha virt. eigenvalues --   27.61380  27.61380  28.05039  28.05039  28.25612
 Alpha virt. eigenvalues --   28.95322  29.66256  29.66256  29.73215  29.75969
 Alpha virt. eigenvalues --   30.47117  30.47117  31.39317  32.40104  32.40104
 Alpha virt. eigenvalues --   32.40887  32.40905  32.59295  32.62067  32.66076
 Alpha virt. eigenvalues --   32.89048  32.89048  33.19182  35.89301  35.89328
 Alpha virt. eigenvalues --   35.91497  35.91497  35.97393  35.97393  36.08349
 Alpha virt. eigenvalues --   36.11095  36.19438  36.19438  36.40207  37.19796
 Alpha virt. eigenvalues --   47.05812  47.09680  47.12631  47.12631  47.49080
 Alpha virt. eigenvalues --   47.49103  47.61704  48.16004  48.16004  49.19929
 Alpha virt. eigenvalues --   50.19778  50.19778  51.59335  60.01269  67.89707
 Alpha virt. eigenvalues --   67.89707  69.11270  81.21515  81.44458  81.47890
 Alpha virt. eigenvalues --   81.50455  81.50455  82.22972  91.23373  91.23373
 Alpha virt. eigenvalues --   92.72723 104.09880 104.09880 104.12910 104.12911
 Alpha virt. eigenvalues --  104.17501 104.17501 104.24329 107.98366 134.75929
 Alpha virt. eigenvalues --  148.86440 148.86440 149.90973 160.91370 160.93487
 Alpha virt. eigenvalues --  160.96912 160.96912 161.30882 162.01796 162.01796
 Alpha virt. eigenvalues --  163.41687 190.62912 201.64034 201.64035 201.98884
 Alpha virt. eigenvalues --  201.98884 202.54506 228.00560 288.53312 288.53312
 Alpha virt. eigenvalues --  289.93414 312.85853 312.85853 313.78874 330.11442
 Alpha virt. eigenvalues --  397.63925 397.64719 397.68829 397.68829 397.98208
 Alpha virt. eigenvalues --  436.63234 531.28233 531.28233 532.70503 570.70354
 Alpha virt. eigenvalues --  653.97147 653.97147 654.85124 855.778531019.78304
 Alpha virt. eigenvalues -- 1023.886051023.886051025.267271302.360011302.36166
 Alpha virt. eigenvalues -- 1302.396471302.396471302.592081739.536882099.26194
 Alpha virt. eigenvalues -- 2099.261942100.542762118.736613701.848834660.95724
 Alpha virt. eigenvalues -- 4660.957244662.108105821.103738265.20256**********
 Alpha virt. eigenvalues -- **************************************************
 Alpha virt. eigenvalues -- **************************************************
 Alpha virt. eigenvalues -- **************************************************
 Alpha virt. eigenvalues -- ********************
     Molecular Orbital Coefficients:
                           5         6         7         8         9
                           O         O         O         O         O
     Eigenvalues --    -1.29309  -0.76001  -0.76001  -0.63004  -0.61422
   1 1   Fe 1S         -0.00000   0.00000   0.00000  -0.00000  -0.00000
   2        2S         -0.00000   0.00000   0.00000  -0.00000   0.00000
   3        3S         -0.00000   0.00000   0.00000  -0.00000  -0.00000
   4        4S         -0.00000   0.00000   0.00000  -0.00000   0.00000
   5        5S         -0.00000   0.00000   0.00000  -0.00000  -0.00000
   6        6S         -0.00000   0.00000   0.00000  -0.00000   0.00000
   7        7S          0.00000   0.00000   0.00000   0.00000  -0.00000
   8        8S         -0.00002   0.00000   0.00000  -0.00001   0.00000
   9        9S          0.00001   0.00000   0.00000   0.00001  -0.00000
  10       10S         -0.00013   0.00000   0.00000  -0.00010   0.00000
  11       11S          0.00018   0.00000   0.00000   0.00015  -0.00000
  12       12S         -0.00081   0.00000   0.00000  -0.00062  -0.00000
  13       13S          0.00244   0.00000   0.00000   0.00183   0.00000
  14       14S         -0.01528   0.00000   0.00000  -0.01117  -0.00000
  15       15S          0.02817   0.00000   0.00000   0.02106   0.00000
  16       16S          0.04406   0.00000   0.00000   0.02755   0.00000
  17       17S         -0.05546   0.00000   0.00000  -0.03263  -0.00000
  18       18S         -0.12099   0.00000   0.00000  -0.05114  -0.00000
  19       19S         -0.07779   0.00000   0.00000  -0.08382   0.00000
  20       20S         -0.01788   0.00000   0.00000   0.02285  -0.00000
  21       21S         -0.00158   0.00000   0.00000   0.09212  -0.00000
  22       22S         -0.00499   0.00000   0.00000   0.00396  -0.00000
  23       23S          0.00986   0.00000   0.00000   0.00988   0.00000
  24       24S         -0.00129   0.00000   0.00000  -0.04206   0.00000
  25       25S          0.00129   0.00000   0.00000   0.00138   0.00000
  26       26PX         0.00000   0.00000  -0.00000   0.00000   0.00000
  27       26PY         0.00000  -0.00000   0.00000   0.00000   0.00000
  28       26PZ         0.00000   0.00000   0.00000   0.00000   0.00000
  29       27PX         0.00000   0.00000  -0.00000   0.00000   0.00000
  30       27PY         0.00000  -0.00000   0.00000   0.00000   0.00000
  31       27PZ         0.00000   0.00000   0.00000   0.00000  -0.00000
  32       28PX         0.00000   0.00000  -0.00000   0.00000   0.00000
  33       28PY         0.00000  -0.00000   0.00000   0.00000   0.00000
  34       28PZ         0.00000   0.00000   0.00000   0.00000   0.00000
  35       29PX         0.00000   0.00000  -0.00000   0.00000   0.00000
  36       29PY         0.00000  -0.00000   0.00000   0.00000   0.00000
  37       29PZ         0.00001   0.00000   0.00000   0.00000  -0.00000
  38       30PX         0.00000   0.00000  -0.00001   0.00000   0.00000
  39       30PY         0.00000  -0.00001   0.00000   0.00000   0.00000
  40       30PZ         0.00000   0.00000   0.00000   0.00000   0.00000
  41       31PX         0.00000   0.00000  -0.00002   0.00000   0.00000
  42       31PY         0.00000  -0.00002   0.00000   0.00000   0.00000
  43       31PZ         0.00008   0.00000   0.00000   0.00003  -0.00000
  44       32PX         0.00000   0.00000  -0.00003   0.00000   0.00000
  45       32PY         0.00000  -0.00003   0.00000   0.00000   0.00000
  46       32PZ        -0.00002   0.00000   0.00000   0.00001   0.00000
  47       33PX         0.00000   0.00000  -0.00017   0.00000   0.00000
  48       33PY         0.00000  -0.00017   0.00000   0.00000   0.00000
  49       33PZ         0.00059   0.00000   0.00000   0.00023   0.00000
  50       34PX         0.00000   0.00000  -0.00120   0.00000   0.00000
  51       34PY         0.00000  -0.00120   0.00000   0.00000   0.00000
  52       34PZ         0.00195   0.00000   0.00000   0.00116   0.00000
  53       35PX         0.00000   0.00000   0.00971   0.00000   0.00000
  54       35PY         0.00000   0.00971   0.00000   0.00000   0.00000
  55       35PZ        -0.01846   0.00000   0.00000  -0.01003  -0.00000
  56       36PX         0.00000   0.00000   0.02138   0.00000   0.00000
  57       36PY         0.00000   0.02138   0.00000   0.00000   0.00000
  58       36PZ        -0.00453   0.00000   0.00000  -0.01186   0.00000
  59       37PX         0.00000   0.00000  -0.02571   0.00000   0.00000
  60       37PY         0.00000  -0.02571   0.00000   0.00000   0.00000
  61       37PZ         0.05010   0.00000   0.00000   0.02633  -0.00000
  62       38PX         0.00000   0.00000  -0.00816   0.00000   0.00000
  63       38PY         0.00000  -0.00816   0.00000   0.00000   0.00000
  64       38PZ         0.05540   0.00000   0.00000   0.01914   0.00000
  65       39PX         0.00000   0.00000  -0.06086   0.00000   0.00000
  66       39PY         0.00000  -0.06086   0.00000   0.00000   0.00000
  67       39PZ         0.10790   0.00000   0.00000   0.05148  -0.00000
  68       40PX         0.00000   0.00000  -0.00950   0.00000   0.00000
  69       40PY         0.00000  -0.00950   0.00000   0.00000   0.00000
  70       40PZ         0.04514   0.00000   0.00000   0.02774   0.00000
  71       41PX         0.00000   0.00000   0.01579   0.00000   0.00000
  72       41PY         0.00000   0.01579   0.00000   0.00000   0.00000
  73       41PZ         0.00229   0.00000   0.00000  -0.03316   0.00000
  74       42PX         0.00000   0.00000   0.00667   0.00000   0.00000
  75       42PY         0.00000   0.00667   0.00000   0.00000   0.00000
  76       42PZ         0.00028   0.00000   0.00000  -0.02983   0.00000
  77       43PX         0.00000   0.00000   0.00247   0.00000   0.00000
  78       43PY         0.00000   0.00247   0.00000   0.00000   0.00000
  79       43PZ         0.00038   0.00000   0.00000  -0.00032   0.00000
  80       44PX         0.00000   0.00000  -0.01688   0.00000   0.00000
  81       44PY         0.00000  -0.01688   0.00000   0.00000   0.00000
  82       44PZ        -0.00449   0.00000   0.00000   0.00756  -0.00000
  83       45PX         0.00000   0.00000  -0.04163   0.00000   0.00000
  84       45PY         0.00000  -0.04163   0.00000   0.00000   0.00000
  85       45PZ         0.06038   0.00000   0.00000   0.04290  -0.00000
  86       46PX         0.00000   0.00000  -0.00180   0.00000   0.00000
  87       46PY         0.00000  -0.00180   0.00000   0.00000   0.00000
  88       46PZ        -0.00017   0.00000   0.00000  -0.00005   0.00000
  89       47D 0        0.00004   0.00000   0.00000   0.00010   0.00000
  90       47D+1        0.00000   0.00000  -0.00005   0.00000   0.00000
  91       47D-1        0.00000  -0.00005   0.00000   0.00000   0.00000
  92       47D+2       -0.00000   0.00000   0.00000  -0.00000   0.00018
  93       47D-2        0.00000   0.00000   0.00000   0.00000   0.00000
  94       48D 0        0.00038   0.00000   0.00000   0.00100   0.00000
  95       48D+1        0.00000   0.00000  -0.00051   0.00000   0.00000
  96       48D-1        0.00000  -0.00051   0.00000   0.00000   0.00000
  97       48D+2       -0.00000   0.00000   0.00000  -0.00000   0.00184
  98       48D-2        0.00000   0.00000   0.00000   0.00000   0.00000
  99       49D 0        0.00317   0.00000   0.00000   0.00836   0.00000
 100       49D+1        0.00000   0.00000  -0.00430   0.00000   0.00000
 101       49D-1        0.00000  -0.00430   0.00000   0.00000   0.00000
 102       49D+2       -0.00000   0.00000   0.00000  -0.00000   0.01528
 103       49D-2        0.00000   0.00000   0.00000   0.00000   0.00000
 104       50D 0        0.01220   0.00000   0.00000   0.03230   0.00000
 105       50D+1        0.00000   0.00000  -0.01652   0.00000   0.00000
 106       50D-1        0.00000  -0.01652   0.00000   0.00000   0.00000
 107       50D+2       -0.00000   0.00000   0.00000  -0.00000   0.05958
 108       50D-2        0.00000   0.00000   0.00000   0.00000   0.00000
 109       51D 0        0.02880   0.00000   0.00000   0.07549   0.00000
 110       51D+1        0.00000   0.00000  -0.03936   0.00000   0.00000
 111       51D-1        0.00000  -0.03936   0.00000   0.00000   0.00000
 112       51D+2       -0.00000   0.00000   0.00000  -0.00000   0.13572
 113       51D-2        0.00000   0.00000   0.00000   0.00000   0.00000
 114       52D 0        0.05703   0.00000   0.00000   0.14198   0.00000
 115       52D+1        0.00000   0.00000  -0.07704   0.00000   0.00000
 116       52D-1        0.00000  -0.07704   0.00000   0.00000   0.00000
 117       52D+2       -0.00000   0.00000   0.00000  -0.00000   0.22866
 118       52D-2        0.00000   0.00000   0.00000   0.00000   0.00000
 119       53D 0        0.07233   0.00000   0.00000   0.18417   0.00000
 120       53D+1        0.00000   0.00000  -0.09380   0.00000   0.00000
 121       53D-1        0.00000  -0.09380   0.00000   0.00000   0.00000
 122       53D+2       -0.00000   0.00000   0.00000  -0.00000   0.30716
 123       53D-2        0.00000   0.00000   0.00000   0.00000   0.00000
 124       54D 0        0.06648   0.00000   0.00000   0.17340   0.00000
 125       54D+1        0.00000   0.00000  -0.09134   0.00000   0.00000
 126       54D-1        0.00000  -0.09134   0.00000   0.00000   0.00000
 127       54D+2       -0.00000   0.00000   0.00000  -0.00000   0.30069
 128       54D-2        0.00000   0.00000   0.00000   0.00000   0.00000
 129       55D 0        0.04064   0.00000   0.00000   0.13125  -0.00000
 130       55D+1        0.00000   0.00000  -0.07338   0.00000   0.00000
 131       55D-1        0.00000  -0.07338   0.00000   0.00000   0.00000
 132       55D+2       -0.00000   0.00000   0.00000  -0.00000   0.20986
 133       55D-2        0.00000   0.00000   0.00000   0.00000   0.00000
 134       56D 0        0.00943   0.00000   0.00000   0.06624  -0.00000
 135       56D+1        0.00000   0.00000   0.00058   0.00000   0.00000
 136       56D-1        0.00000   0.00058   0.00000   0.00000   0.00000
 137       56D+2        0.00000   0.00000   0.00000  -0.00000   0.08160
[...]
 169       62F+2        0.00000   0.00000   0.00000   0.00000
 170       62F-2        0.00000   0.00000   0.00000   0.00000
 171       62F+3        0.00002   0.00001   0.00001   0.00000
 172       62F-3        0.00002   0.00001   0.00001   0.00000
 173       63F 0        0.00471   0.00237   0.00234   0.00004
 174       63F+1        0.00241   0.00123   0.00118   0.00006
 175       63F-1        0.00241   0.00123   0.00118   0.00006
 176       63F+2        0.00000   0.00000   0.00000   0.00000
 177       63F-2        0.00000   0.00000   0.00000   0.00000
 178       63F+3        0.00004   0.00002   0.00002  -0.00000
 179       63F-3        0.00004   0.00002   0.00002  -0.00000
 180       64F 0        0.00555   0.00274   0.00281  -0.00006
 181       64F+1        0.01454   0.00853   0.00601   0.00251
 182       64F-1        0.01454   0.00853   0.00601   0.00251
 183       64F+2       -0.00001  -0.00000  -0.00000  -0.00000
 184       64F-2        0.00001   0.00001  -0.00000   0.00001
 185       64F+3        0.00002   0.00001   0.00001   0.00000
 186       64F-3        0.00002   0.00001   0.00001   0.00000
 187       65F 0       -0.00463  -0.00268  -0.00196  -0.00072
 188       65F+1       -0.00049   0.00032  -0.00081   0.00112
 189       65F-1       -0.00049   0.00032  -0.00081   0.00112
 190       65F+2        0.00000   0.00000   0.00000   0.00000
 191       65F-2        0.00001   0.00001   0.00000   0.00001
 192       65F+3        0.00000   0.00000   0.00000   0.00000
 193       65F-3        0.00000   0.00000   0.00000   0.00000
 194       66G 0        0.00000   0.00000   0.00000  -0.00000
 195       66G+1        0.00000   0.00000   0.00000   0.00000
 196       66G-1        0.00000   0.00000   0.00000   0.00000
 197       66G+2        0.00000   0.00000   0.00000   0.00000
 198       66G-2        0.00000   0.00000   0.00000   0.00000
 199       66G+3        0.00000   0.00000   0.00000   0.00000
 200       66G-3        0.00000   0.00000   0.00000   0.00000
 201       66G+4        0.00000   0.00000   0.00000  -0.00000
 202       66G-4        0.00000   0.00000   0.00000   0.00000
 203       67G 0        0.00015   0.00007   0.00007  -0.00000
 204       67G+1        0.00005   0.00002   0.00003  -0.00000
 205       67G-1        0.00005   0.00002   0.00003  -0.00000
 206       67G+2        0.00001   0.00000   0.00000  -0.00000
 207       67G-2        0.00001   0.00001   0.00000   0.00001
 208       67G+3        0.00000   0.00000   0.00000   0.00000
 209       67G-3        0.00000   0.00000   0.00000   0.00000
 210       67G+4        0.00000   0.00000   0.00000   0.00000
 211       67G-4        0.00000   0.00000   0.00000   0.00000
 212       68G 0        0.00152   0.00076   0.00077  -0.00001
 213       68G+1        0.00150   0.00073   0.00077  -0.00004
 214       68G-1        0.00150   0.00073   0.00077  -0.00004
 215       68G+2        0.00002   0.00001   0.00001   0.00000
 216       68G-2        0.00001   0.00001   0.00000   0.00001
 217       68G+3        0.00000   0.00000   0.00000   0.00000
 218       68G-3        0.00000   0.00000   0.00000   0.00000
 219       68G+4        0.00000   0.00000   0.00000   0.00000
 220       68G-4        0.00000   0.00000   0.00000   0.00000
 221       69G 0       -0.00017  -0.00005  -0.00011   0.00006
 222       69G+1        0.00202   0.00118   0.00084   0.00034
 223       69G-1        0.00202   0.00118   0.00084   0.00034
 224       69G+2        0.00000   0.00000   0.00000  -0.00000
 225       69G-2        0.00000   0.00000   0.00000   0.00000
 226       69G+3        0.00000   0.00000   0.00000   0.00000
 227       69G-3        0.00000   0.00000   0.00000   0.00000
 228       69G+4        0.00000   0.00000   0.00000   0.00000
 229       69G-4       -0.00000  -0.00000   0.00000  -0.00000
 230       70H 0        0.00000   0.00000   0.00000   0.00000
 231       70H+1        0.00000   0.00000   0.00000  -0.00000
 232       70H-1        0.00000   0.00000   0.00000  -0.00000
 233       70H+2        0.00000   0.00000   0.00000  -0.00000
 234       70H-2        0.00000   0.00000   0.00000   0.00000
 235       70H+3        0.00000   0.00000   0.00000   0.00000
 236       70H-3        0.00000   0.00000   0.00000   0.00000
 237       70H+4        0.00000   0.00000   0.00000   0.00000
 238       70H-4       -0.00000  -0.00000   0.00000  -0.00000
 239       70H+5        0.00000   0.00000   0.00000   0.00000
 240       70H-5        0.00000   0.00000   0.00000   0.00000
 241       71H 0        0.00005   0.00002   0.00002  -0.00000
 242       71H+1        0.00003   0.00001   0.00002  -0.00000
 243       71H-1        0.00003   0.00001   0.00002  -0.00000
 244       71H+2        0.00000   0.00000   0.00000  -0.00000
 245       71H-2        0.00000   0.00000   0.00000   0.00000
 246       71H+3        0.00000   0.00000   0.00000   0.00000
 247       71H-3        0.00000   0.00000   0.00000   0.00000
 248       71H+4        0.00000   0.00000   0.00000  -0.00000
 249       71H-4        0.00000   0.00000   0.00000   0.00000
 250       71H+5        0.00000   0.00000   0.00000  -0.00000
 251       71H-5        0.00000   0.00000   0.00000  -0.00000
 252       72H 0        0.00023   0.00012   0.00012  -0.00000
 253       72H+1        0.00054   0.00026   0.00028  -0.00002
 254       72H-1        0.00054   0.00026   0.00028  -0.00002
 255       72H+2        0.00000   0.00000   0.00000  -0.00000
 256       72H-2        0.00000   0.00000   0.00000   0.00000
 257       72H+3        0.00000   0.00000   0.00000  -0.00000
 258       72H-3        0.00000   0.00000   0.00000  -0.00000
 259       72H+4        0.00000   0.00000   0.00000   0.00000
 260       72H-4        0.00000   0.00000   0.00000   0.00000
 261       72H+5        0.00000   0.00000   0.00000   0.00000
 262       72H-5        0.00000   0.00000   0.00000   0.00000
 263 2   O  1S          0.00000   0.00000   0.00000   0.00000
 264        2S          0.00000   0.00000   0.00000   0.00000
 265        3S          0.00000   0.00000   0.00000   0.00000
 266        4S          0.00000   0.00000   0.00000   0.00000
 267        5S          0.00002   0.00001   0.00001   0.00000
 268        6S         -0.00003  -0.00001  -0.00002   0.00000
 269        7S         -0.00103  -0.00051  -0.00052   0.00001
 270        8S         -0.09900  -0.04957  -0.04943  -0.00015
 271        9S         -0.07776  -0.03899  -0.03877  -0.00023
 272       10S          0.44002   0.22062   0.21940   0.00122
 273       11S          1.07100   0.53577   0.53522   0.00055
 274       12S          0.59031   0.28999   0.30032  -0.01034
 275       13S          0.06260   0.03134   0.03127   0.00007
 276       14S          0.00089   0.00044   0.00045  -0.00001
 277       15S          0.00007   0.00003   0.00003  -0.00000
 278       16S          0.04944   0.01011   0.03932  -0.02921
 279       17PX        -0.00031  -0.00016  -0.00015  -0.00002
 280       17PY        -0.00031  -0.00016  -0.00015  -0.00002
 281       17PZ        -0.00028  -0.00014  -0.00014  -0.00001
 282       18PX        -0.14113  -0.07457  -0.06656  -0.00801
 283       18PY        -0.14113  -0.07457  -0.06656  -0.00801
 284       18PZ        -0.13165  -0.06699  -0.06466  -0.00233
 285       19PX         0.14603   0.07797   0.06806   0.00991
 286       19PY         0.14603   0.07797   0.06806   0.00991
 287       19PZ         0.12067   0.06153   0.05914   0.00239
 288       20PX         0.49245   0.26058   0.23187   0.02872
 289       20PY         0.49245   0.26058   0.23187   0.02872
 290       20PZ         0.42400   0.21578   0.20822   0.00757
 291       21PX         0.71022   0.37252   0.33770   0.03482
 292       21PY         0.71022   0.37252   0.33770   0.03482
 293       21PZ         0.48242   0.24966   0.23276   0.01689
 294       22PX         0.39849   0.21730   0.18118   0.03612
 295       22PY         0.39849   0.21730   0.18118   0.03612
 296       22PZ         0.16595   0.09814   0.06781   0.03033
 297       23PX         0.16087   0.08510   0.07577   0.00933
 298       23PY         0.16087   0.08510   0.07577   0.00933
 299       23PZ         0.14835   0.07550   0.07284   0.00266
 300       24PX         0.00163   0.00087   0.00076   0.00010
 301       24PY         0.00163   0.00087   0.00076   0.00010
 302       24PZ         0.00142   0.00072   0.00070   0.00003
 303       25PX         0.00009   0.00005   0.00004   0.00001
 304       25PY         0.00009   0.00005   0.00004   0.00001
 305       25PZ         0.00008   0.00004   0.00004   0.00000
 306       26PX         0.02668   0.01655   0.01013   0.00642
 307       26PY         0.02668   0.01655   0.01013   0.00642
 308       26PZ         0.00997   0.00819   0.00178   0.00642
 309       27D 0        0.00050   0.00026   0.00024   0.00002
 310       27D+1        0.00021   0.00013   0.00008   0.00005
 311       27D-1        0.00021   0.00013   0.00008   0.00005
 312       27D+2        0.00002   0.00001   0.00001   0.00000
 313       27D-2        0.00001   0.00001   0.00000   0.00001
 314       28D 0        0.00773   0.00405   0.00368   0.00038
 315       28D+1        0.00437   0.00269   0.00168   0.00101
 316       28D-1        0.00437   0.00269   0.00168   0.00101
 317       28D+2        0.00050   0.00025   0.00025   0.00000
 318       28D-2        0.00021   0.00021   0.00000   0.00021
 319       29D 0        0.00232   0.00139   0.00093   0.00046
 320       29D+1        0.00944   0.00513   0.00430   0.00083
 321       29D-1        0.00944   0.00513   0.00430   0.00083
 322       29D+2        0.00207   0.00104   0.00104   0.00000
 323       29D-2        0.00081   0.00081   0.00000   0.00081
 324       30D 0        0.00001   0.00000   0.00000   0.00000
 325       30D+1        0.00000   0.00000   0.00000   0.00000
 326       30D-1        0.00000   0.00000   0.00000   0.00000
 327       30D+2        0.00000   0.00000   0.00000   0.00000
 328       30D-2        0.00000   0.00000   0.00000   0.00000
 329       31D 0        0.00000   0.00000   0.00000   0.00000
 330       31D+1       -0.00000   0.00000  -0.00000   0.00000
 331       31D-1       -0.00000   0.00000  -0.00000   0.00000
 332       31D+2       -0.00000  -0.00000  -0.00000  -0.00000
 333       31D-2       -0.00000  -0.00000  -0.00000  -0.00000
 334       32D 0       -0.00081  -0.00038  -0.00043   0.00005
 335       32D+1        0.00230   0.00121   0.00109   0.00013
 336       32D-1        0.00230   0.00121   0.00109   0.00013
 337       32D+2        0.00040   0.00020   0.00020   0.00000
 338       32D-2        0.00015   0.00015   0.00000   0.00015
 339       33F 0        0.00036   0.00019   0.00017   0.00002
 340       33F+1        0.00016   0.00011   0.00005   0.00006
 341       33F-1        0.00016   0.00011   0.00005   0.00006
 342       33F+2        0.00003   0.00001   0.00001   0.00000
 343       33F-2        0.00001   0.00001   0.00000   0.00001
 344       33F+3        0.00000   0.00000   0.00000   0.00000
 345       33F-3        0.00000   0.00000   0.00000   0.00000
 346       34F 0        0.00246   0.00135   0.00111   0.00024
 347       34F+1        0.00219   0.00139   0.00079   0.00060
 348       34F-1        0.00219   0.00139   0.00079   0.00060
 349       34F+2        0.00077   0.00039   0.00039   0.00000
 350       34F-2        0.00032   0.00032   0.00000   0.00032
 351       34F+3        0.00000   0.00000   0.00000  -0.00000
 352       34F-3        0.00000   0.00000   0.00000  -0.00000
 353       35F 0        0.00000   0.00000   0.00000   0.00000
 354       35F+1        0.00000   0.00000   0.00000   0.00000
 355       35F-1        0.00000   0.00000   0.00000   0.00000
 356       35F+2        0.00000   0.00000   0.00000   0.00000
 357       35F-2        0.00000   0.00000   0.00000   0.00000
 358       35F+3        0.00000   0.00000   0.00000  -0.00000
 359       35F-3        0.00000   0.00000   0.00000  -0.00000
 360       36F 0       -0.00029  -0.00013  -0.00016   0.00003
 361       36F+1        0.00036   0.00021   0.00014   0.00007
 362       36F-1        0.00036   0.00021   0.00014   0.00007
 363       36F+2        0.00014   0.00007   0.00007   0.00000
 364       36F-2        0.00002   0.00002   0.00000   0.00002
 365       36F+3       -0.00000  -0.00000  -0.00000  -0.00000
 366       36F-3       -0.00000  -0.00000  -0.00000  -0.00000
 367       37G 0        0.00028   0.00015   0.00013   0.00002
 368       37G+1        0.00018   0.00012   0.00005   0.00007
 369       37G-1        0.00018   0.00012   0.00005   0.00007
 370       37G+2        0.00006   0.00003   0.00003   0.00000
 371       37G-2        0.00003   0.00003   0.00000   0.00003
 372       37G+3        0.00000   0.00000   0.00000  -0.00000
 373       37G-3        0.00000   0.00000   0.00000  -0.00000
 374       37G+4        0.00000   0.00000   0.00000   0.00000
 375       37G-4        0.00000   0.00000   0.00000   0.00000
 376       38G 0        0.00024   0.00014   0.00010   0.00004
 377       38G+1        0.00033   0.00023   0.00010   0.00013
 378       38G-1        0.00033   0.00023   0.00010   0.00013
 379       38G+2        0.00022   0.00011   0.00011   0.00000
 380       38G-2        0.00007   0.00007   0.00000   0.00007
 381       38G+3       -0.00000  -0.00000  -0.00000  -0.00000
 382       38G-3       -0.00000  -0.00000  -0.00000  -0.00000
 383       38G+4       -0.00000  -0.00000   0.00000  -0.00000
 384       38G-4       -0.00000  -0.00000   0.00000  -0.00000
          Condensed to atoms (all electrons):
               1          2
     1  Fe  15.133130  -0.038291
     2  O   -0.038291   6.943452
          Atomic-Atomic Spin Densities.
               1          2
     1  Fe   3.854730  -0.124177
     2  O   -0.124177   0.393623
 Mulliken charges and spin densities:
               1          2
     1  Fe   0.905161   3.730553
     2  O   -0.905161   0.269447
 Sum of Mulliken charges =  -0.00000   4.00000
 Mulliken charges and spin densities with hydrogens summed into heavy atoms:
               1          2
     1  Fe   0.905161   3.730553
     2  O   -0.905161   0.269447
 Electronic spatial extent (au):  <R**2>=             70.9700
 Charge=             -0.0000 electrons
 Dipole moment (field-independent basis, Debye):
    X=              0.0000    Y=              0.0000    Z=              3.0374  Tot=              3.0374
 Quadrupole moment (field-independent basis, Debye-Ang):
   XX=            -19.1802   YY=            -19.1802   ZZ=            -21.4249
   XY=              0.0000   XZ=              0.0000   YZ=              0.0000
 Traceless Quadrupole moment (field-independent basis, Debye-Ang):
   XX=              0.7482   YY=              0.7482   ZZ=             -1.4964
   XY=              0.0000   XZ=              0.0000   YZ=              0.0000
 Octapole moment (field-independent basis, Debye-Ang**2):
  XXX=              0.0000  YYY=              0.0000  ZZZ=              4.6329  XYY=              0.0000
  XXY=              0.0000  XXZ=              0.7578  XZZ=              0.0000  YZZ=              0.0000
  YYZ=              0.7578  XYZ=              0.0000
 Hexadecapole moment (field-independent basis, Debye-Ang**3):
 XXXX=            -25.1648 YYYY=            -25.1648 ZZZZ=            -69.9646 XXXY=              0.0000
 XXXZ=              0.0000 YYYX=              0.0000 YYYZ=              0.0000 ZZZX=              0.0000
 ZZZY=              0.0000 XXYY=             -8.1956 XXZZ=            -16.3818 YYZZ=            -16.3818
 XXYZ=              0.0000 YYXZ=              0.0000 ZZXY=              0.0000
 N-N= 3.907770172948D+01 E-N=-4.065134544580D+02  KE= 8.548149569468D+01
 Symmetry A1   KE= 3.831440811501D+01
 Symmetry A2   KE= 7.270330512451D+00
 Symmetry B1   KE= 1.994837864908D+01
 Symmetry B2   KE= 1.994837841845D+01
 Symmetry A1   SP= 1.000000000000D+00
 Symmetry A2   SP= 1.000000000000D+00
 Symmetry B1   SP= 1.000000000000D+00
 Symmetry B2   SP= 1.000000000000D+00
 Orbital energies and kinetic energies (alpha):
                                 1                 2
   5         O                -1.293087          1.555992
   6         O                -0.760010          2.581108
   7         O                -0.760010          2.581108
   8         O                -0.630042          3.987789
   9         O                -0.614219          7.078836
  10         O                -0.586422          7.270331
  11         O                -0.432431          1.135587
  12         O                -0.432431          7.068463
  13         O                -0.309134          7.068463
  14         V                 0.016101          0.128396
  15         V                 0.022746          0.062214
  16         V                 0.022746          0.062214
  17         V                 0.030616          0.034813
  18         V                 0.054220          0.200569
 Total kinetic energy from orbitals= 1.080243392046D+02
                          Isotropic Fermi Contact Couplings
        Atom                 a.u.       MegaHertz       Gauss      10(-4) cm-1
     1  Fe(57)             0.00166       0.06024       0.02149       0.02009
     2  O(17)              0.00038      -0.05826      -0.02079      -0.01943
 --------------------------------------------------------
       Center         ----  Spin Dipole Couplings  ----
                      3XX-RR        3YY-RR        3ZZ-RR
 --------------------------------------------------------
     1   Atom       -0.242148     -0.242148      0.484296
     2   Atom       -0.005963     -0.005963      0.011926
 --------------------------------------------------------
                        XY            XZ            YZ
 --------------------------------------------------------
     1   Atom        0.000000      0.000000      0.000000
     2   Atom        0.000000      0.000000      0.000000
 --------------------------------------------------------


 ---------------------------------------------------------------------------------
              Anisotropic Spin Dipole Couplings in Principal Axis System
 ---------------------------------------------------------------------------------

       Atom             a.u.   MegaHertz   Gauss  10(-4) cm-1        Axes

              Baa    -0.2421    -4.192    -1.496    -1.398 -0.0000  1.0000  0.0000
     1 Fe(57) Bbb    -0.2421    -4.192    -1.496    -1.398  1.0000  0.0000  0.0000
              Bcc     0.4843     8.385     2.992     2.797  0.0000  0.0000  1.0000
 
              Baa    -0.0060     0.431     0.154     0.144 -0.0000  1.0000  0.0000
     2 O(17)  Bbb    -0.0060     0.431     0.154     0.144  1.0000  0.0000  0.0000
              Bcc     0.0119    -0.863    -0.308    -0.288  0.0000  0.0000  1.0000
 

 ---------------------------------------------------------------------------------

 No NMR shielding tensors so no spin-rotation constants.
 Leave Link  601 at Sun Mar 25 09:12:27 2018, MaxMem= 10737418240 cpu:             238.0 elap:               7.7
 (Enter /home1/apps/gaussian/16rA.03/g16/l9999.exe)
 1\1\GINC-C418-133\SP\ROCCSD(T)-Full\Gen\Fe1O1(5)\GWANG18\25-Mar-2018\0
 \\#P ROCCSD(T)=(MaxCyc=150, Full)/Gen SCF=(maxcycle=400) Pseudo=Read I
 ntegral(NoXCTest) Pop=Regular MaxDisk=500GB\\FeO\\0,5\Fe,0,0.,0.,0.\O,
 0,0.,0.,1.3\\Version=ES64L-G16RevA.03\HF=-138.7085515\MP2=-139.8025747
 \MP3=-139.6954885\PUHF=-138.7085515\PMP2-0=-139.8025747\MP4SDQ=-139.77
 30216\CCSD=-139.7445182\CCSD(T)=-139.7917259\RMSD=9.798e-09\PG=C*V [C*
 (O1Fe1)]\\@


 ALL OUR THINKING ABOUT NATURE MUST NECESSARILY MOVE IN CIRCLES OR SPIRALS;
 FOR WE CAN ONLY UNDERSTAND NATURE IF WE THINK ABOUT HER, AND WE CAN ONLY
 THINK BECAUSE OUR BRAIN IS BUILT IN ACCORDANCE WITH NATURE'S LAWS.

                                             -- TIMOTHY FERRIS, "GALAXIES"
 Job cpu time:       2 days 12 hours  4 minutes 49.5 seconds.
 Elapsed time:       0 days  1 hours 53 minutes 35.7 seconds.
 File lengths (MBytes):  RWF=  16221 Int=      0 D2E=      0 Chk=     18 Scr=      1
 Normal termination of Gaussian 16 at Sun Mar 25 09:12:28 2018.
