 Entering Gaussian System, Link 0=g16
 Initial command:
 /home1/apps/gaussian/16rA.03/g16/l1.exe "/tmp/Gau-144489.inp" -scrdir="/tmp/"
 Entering Link 1 = /home1/apps/gaussian/16rA.03/g16/l1.exe PID=    144490.
  
 Copyright (c) 1988,1990,1992,1993,1995,1998,2003,2009,2016,
            Gaussian, Inc.  All Rights Reserved.
  
 This is part of the Gaussian(R) 16 program.  It is based on
 the Gaussian(R) 09 system (copyright 2009, Gaussian, Inc.),
 the Gaussian(R) 03 system (copyright 2003, Gaussian, Inc.),
 the Gaussian(R) 98 system (copyright 1998, Gaussian, Inc.),
 the Gaussian(R) 94 system (copyright 1995, Gaussian, Inc.),
 the Gaussian 92(TM) system (copyright 1992, Gaussian, Inc.),
 the Gaussian 90(TM) system (copyright 1990, Gaussian, Inc.),
 the Gaussian 88(TM) system (copyright 1988, Gaussian, Inc.),
 the Gaussian 86(TM) system (copyright 1986, Carnegie Mellon
 University), and the Gaussian 82(TM) system (copyright 1983,
 Carnegie Mellon University). Gaussian is a federally registered
 trademark of Gaussian, Inc.
  
 This software contains proprietary and confidential information,
 including trade secrets, belonging to Gaussian, Inc.
  
 This software is provided under written license and may be
 used, copied, transmitted, or stored only in accord with that
 written license.
  
 The following legend is applicable only to US Government
 contracts under FAR:
  
                    RESTRICTED RIGHTS LEGEND
  
 Use, reproduction and disclosure by the US Government is
 subject to restrictions as set forth in subparagraphs (a)
 and (c) of the Commercial Computer Software - Restricted
 Rights clause in FAR 52.227-19.
  
 Gaussian, Inc.
 340 Quinnipiac St., Bldg. 40, Wallingford CT 06492
  
  
 ---------------------------------------------------------------
 Warning -- This program may not be used in any manner that
 competes with the business of Gaussian, Inc. or will provide
 assistance to any competitor of Gaussian, Inc.  The licensee
 of this program is prohibited from giving any competitor of
 Gaussian, Inc. access to this program.  By using this program,
 the user acknowledges that Gaussian, Inc. is engaged in the
 business of creating and licensing software in the field of
 computational chemistry and represents and warrants to the
 licensee that it is not a competitor of Gaussian, Inc. and that
 it will not use this program in any manner prohibited above.
 ---------------------------------------------------------------
  

 Cite this work as:
 Gaussian 16, Revision A.03,
 M. J. Frisch, G. W. Trucks, H. B. Schlegel, G. E. Scuseria, 
 M. A. Robb, J. R. Cheeseman, G. Scalmani, V. Barone, 
 G. A. Petersson, H. Nakatsuji, X. Li, M. Caricato, A. V. Marenich, 
 J. Bloino, B. G. Janesko, R. Gomperts, B. Mennucci, H. P. Hratchian, 
 J. V. Ortiz, A. F. Izmaylov, J. L. Sonnenberg, D. Williams-Young, 
 F. Ding, F. Lipparini, F. Egidi, J. Goings, B. Peng, A. Petrone, 
 T. Henderson, D. Ranasinghe, V. G. Zakrzewski, J. Gao, N. Rega, 
 G. Zheng, W. Liang, M. Hada, M. Ehara, K. Toyota, R. Fukuda, 
 J. Hasegawa, M. Ishida, T. Nakajima, Y. Honda, O. Kitao, H. Nakai, 
 T. Vreven, K. Throssell, J. A. Montgomery, Jr., J. E. Peralta, 
 F. Ogliaro, M. J. Bearpark, J. J. Heyd, E. N. Brothers, K. N. Kudin, 
 V. N. Staroverov, T. A. Keith, R. Kobayashi, J. Normand, 
 K. Raghavachari, A. P. Rendell, J. C. Burant, S. S. Iyengar, 
 J. Tomasi, M. Cossi, J. M. Millam, M. Klene, C. Adamo, R. Cammi, 
 J. W. Ochterski, R. L. Martin, K. Morokuma, O. Farkas, 
 J. B. Foresman, and D. J. Fox, Gaussian, Inc., Wallingford CT, 2016.
 
 ******************************************
 Gaussian 16:  ES64L-G16RevA.03 25-Dec-2016
                 7-Mar-2018 
 ******************************************
 %MEM=160GB
 %CPU=0-31
 SetSPE:  set environment variable "MP_BIND" = "yes"
 SetSPE:  set environment variable "MP_BLIST" = "0,1,2,3,4,5,6,7,8,9,10,11,12,13,14,15,16,17,18,19,20,21,22,23,24,25,26,27,28,29,30,31"
 Will use up to   32 processors via shared memory.
 %RWF=/scratch/04843/aannabe/gaussian/
 %Int=/scratch/04843/aannabe/gaussian/
 %D2E=/scratch/04843/aannabe/gaussian/
 %NoSave
 %CHK=MnO
 ----------------------------------------------------------------------
 #P ROCCSD(T)=(maxcyc=150, Full, SaveAmplitudes, ReadAmplitudes)/Gen 5d
  7f SCF=(maxcycles=300) Integral(NoXCTest, DKHSO) MaxDisk=500GB Pop=Re
 gular Guess=Read
 ----------------------------------------------------------------------
 1/38=1,172=1/1;
 2/12=2,17=6,18=5,40=1/2;
 3/5=7,8=11,11=2,25=1,30=1,47=8,91=5,116=101/1,2,3;
 4/5=1/1;
 5/5=2,7=300,38=6/2;
 8/5=-1,6=4,9=120000,10=90,24=1/1,4;
 9/5=7,6=150,14=2,77=1/13;
 6//1;
 99/5=1,9=1/99;
 Leave Link    1 at Wed Mar  7 01:18:46 2018, MaxMem= 21474836480 cpu:               1.7 elap:               0.1
 (Enter /home1/apps/gaussian/16rA.03/g16/l101.exe)
 ---
 MnO
 ---
 Symbolic Z-matrix:
 Charge =  0 Multiplicity = 6
 Mn                    0.        0.        0. 
 O                     0.        0.        1.8 
 
 ITRead=  0  0
 MicOpt= -1 -1
 NAtoms=      2 NQM=        2 NQMF=       0 NMMI=      0 NMMIF=      0
                NMic=       0 NMicF=      0.
                    Isotopes and Nuclear Properties:
 (Nuclear quadrupole moments (NQMom) in fm**2, nuclear magnetic moments (NMagM)
  in nuclear magnetons)

  Atom         1           2
 IAtWgt=          55          16
 AtmWgt=  54.9380463  15.9949146
 NucSpn=           5           0
 AtZEff=  -0.0000000  -0.0000000
 NQMom=   33.0000000   0.0000000
 NMagM=    3.4532000   0.0000000
 AtZNuc=  25.0000000   8.0000000
 Leave Link  101 at Wed Mar  7 01:18:46 2018, MaxMem= 21474836480 cpu:               2.7 elap:               0.1
 (Enter /home1/apps/gaussian/16rA.03/g16/l202.exe)
                          Input orientation:                          
 ---------------------------------------------------------------------
 Center     Atomic      Atomic             Coordinates (Angstroms)
 Number     Number       Type             X           Y           Z
 ---------------------------------------------------------------------
      1         25           0        0.000000    0.000000    0.000000
      2          8           0        0.000000    0.000000    1.800000
 ---------------------------------------------------------------------
 Stoichiometry    MnO(6)
 Framework group  C*V[C*(OMn)]
 Deg. of freedom     1
 Full point group                 C*V     NOp   4
 Largest Abelian subgroup         C2V     NOp   4
 Largest concise Abelian subgroup C1      NOp   1
                         Standard orientation:                         
 ---------------------------------------------------------------------
 Center     Atomic      Atomic             Coordinates (Angstroms)
 Number     Number       Type             X           Y           Z
 ---------------------------------------------------------------------
      1         25           0        0.000000    0.000000    0.436364
      2          8           0        0.000000    0.000000   -1.363636
 ---------------------------------------------------------------------
 Rotational constants (GHZ):           0.0000000          12.5911425          12.5911425
 Leave Link  202 at Wed Mar  7 01:18:46 2018, MaxMem= 21474836480 cpu:               0.5 elap:               0.0
 (Enter /home1/apps/gaussian/16rA.03/g16/l301.exe)
 General basis read from cards:  (5D, 7F)
 Centers:       1
 S 1 1.00
     Exponent=  1.2210500000D+07 Coefficients=  1.0000000000D+00
 S 1 1.00
     Exponent=  1.8281570000D+06 Coefficients=  1.0000000000D+00
 S 1 1.00
     Exponent=  4.1603030000D+05 Coefficients=  1.0000000000D+00
 S 1 1.00
     Exponent=  1.1784360000D+05 Coefficients=  1.0000000000D+00
 S 1 1.00
     Exponent=  3.8448140000D+04 Coefficients=  1.0000000000D+00
 S 1 1.00
     Exponent=  1.3881710000D+04 Coefficients=  1.0000000000D+00
 S 1 1.00
     Exponent=  5.4150020000D+03 Coefficients=  1.0000000000D+00
 S 1 1.00
     Exponent=  2.2464600000D+03 Coefficients=  1.0000000000D+00
 S 1 1.00
     Exponent=  9.8014630000D+02 Coefficients=  1.0000000000D+00
 S 1 1.00
     Exponent=  4.4589520000D+02 Coefficients=  1.0000000000D+00
 S 1 1.00
     Exponent=  2.1005580000D+02 Coefficients=  1.0000000000D+00
 S 1 1.00
     Exponent=  1.0180460000D+02 Coefficients=  1.0000000000D+00
 S 1 1.00
     Exponent=  5.0011260000D+01 Coefficients=  1.0000000000D+00
 S 1 1.00
     Exponent=  2.2939390000D+01 Coefficients=  1.0000000000D+00
 S 1 1.00
     Exponent=  1.1522640000D+01 Coefficients=  1.0000000000D+00
 S 1 1.00
     Exponent=  5.7763380000D+00 Coefficients=  1.0000000000D+00
 S 1 1.00
     Exponent=  2.6259590000D+00 Coefficients=  1.0000000000D+00
 S 1 1.00
     Exponent=  1.2603220000D+00 Coefficients=  1.0000000000D+00
 S 1 1.00
     Exponent=  5.7713000000D-01 Coefficients=  1.0000000000D+00
 S 1 1.00
     Exponent=  1.3658200000D-01 Coefficients=  1.0000000000D+00
 S 1 1.00
     Exponent=  6.3535000000D-02 Coefficients=  1.0000000000D+00
 S 1 1.00
     Exponent=  2.8521000000D-02 Coefficients=  1.0000000000D+00
 S 1 1.00
     Exponent=  5.3389000000D+00 Coefficients=  1.0000000000D+00
 S 1 1.00
     Exponent=  1.6013000000D+00 Coefficients=  1.0000000000D+00
 S 1 1.00
     Exponent=  1.2800000000D-02 Coefficients=  1.0000000000D+00
 P 1 1.00
     Exponent=  3.5005120000D+04 Coefficients=  1.0000000000D+00
 P 1 1.00
     Exponent=  8.2794620000D+03 Coefficients=  1.0000000000D+00
 P 1 1.00
     Exponent=  2.6884650000D+03 Coefficients=  1.0000000000D+00
 P 1 1.00
     Exponent=  1.0294900000D+03 Coefficients=  1.0000000000D+00
 P 1 1.00
     Exponent=  4.3807080000D+02 Coefficients=  1.0000000000D+00
 P 1 1.00
     Exponent=  2.0061530000D+02 Coefficients=  1.0000000000D+00
 P 1 1.00
     Exponent=  9.7007690000D+01 Coefficients=  1.0000000000D+00
 P 1 1.00
     Exponent=  4.8870520000D+01 Coefficients=  1.0000000000D+00
 P 1 1.00
     Exponent=  2.5292810000D+01 Coefficients=  1.0000000000D+00
 P 1 1.00
     Exponent=  1.3353820000D+01 Coefficients=  1.0000000000D+00
 P 1 1.00
     Exponent=  7.1317860000D+00 Coefficients=  1.0000000000D+00
 P 1 1.00
     Exponent=  3.7643650000D+00 Coefficients=  1.0000000000D+00
 P 1 1.00
     Exponent=  1.9462650000D+00 Coefficients=  1.0000000000D+00
 P 1 1.00
     Exponent=  9.8545500000D-01 Coefficients=  1.0000000000D+00
 P 1 1.00
     Exponent=  4.8186500000D-01 Coefficients=  1.0000000000D+00
 P 1 1.00
     Exponent=  1.8822219000D-01 Coefficients=  1.0000000000D+00
 P 1 1.00
     Exponent=  7.7539570000D-02 Coefficients=  1.0000000000D+00
 P 1 1.00
     Exponent=  3.1549450000D-02 Coefficients=  1.0000000000D+00
 P 1 1.00
     Exponent=  7.3423000000D+00 Coefficients=  1.0000000000D+00
 P 1 1.00
     Exponent=  1.9340000000D+00 Coefficients=  1.0000000000D+00
 P 1 1.00
     Exponent=  1.2840000000D-02 Coefficients=  1.0000000000D+00
 D 1 1.00
     Exponent=  3.1310900000D+02 Coefficients=  1.0000000000D+00
 D 1 1.00
     Exponent=  9.2527600000D+01 Coefficients=  1.0000000000D+00
 D 1 1.00
     Exponent=  3.5419100000D+01 Coefficients=  1.0000000000D+00
 D 1 1.00
     Exponent=  1.5157700000D+01 Coefficients=  1.0000000000D+00
 D 1 1.00
     Exponent=  6.9096400000D+00 Coefficients=  1.0000000000D+00
 D 1 1.00
     Exponent=  3.2725600000D+00 Coefficients=  1.0000000000D+00
 D 1 1.00
     Exponent=  1.5493600000D+00 Coefficients=  1.0000000000D+00
 D 1 1.00
     Exponent=  7.1709400000D-01 Coefficients=  1.0000000000D+00
 D 1 1.00
     Exponent=  3.1931000000D-01 Coefficients=  1.0000000000D+00
 D 1 1.00
     Exponent=  1.3415700000D-01 Coefficients=  1.0000000000D+00
 D 1 1.00
     Exponent=  5.1400000000D-02 Coefficients=  1.0000000000D+00
 D 1 1.00
     Exponent=  4.6851000000D+00 Coefficients=  1.0000000000D+00
 D 1 1.00
     Exponent=  2.4217000000D+00 Coefficients=  1.0000000000D+00
 D 1 1.00
     Exponent=  1.9690000000D-02 Coefficients=  1.0000000000D+00
 F 1 1.00
     Exponent=  6.6540000000D+00 Coefficients=  1.0000000000D+00
 F 1 1.00
     Exponent=  2.7676000000D+00 Coefficients=  1.0000000000D+00
 F 1 1.00
     Exponent=  1.1511000000D+00 Coefficients=  1.0000000000D+00
 F 1 1.00
     Exponent=  3.8120000000D-01 Coefficients=  1.0000000000D+00
 F 1 1.00
     Exponent=  1.2624000000D-01 Coefficients=  1.0000000000D+00
 G 1 1.00
     Exponent=  5.4683000000D+00 Coefficients=  1.0000000000D+00
 G 1 1.00
     Exponent=  2.3327000000D+00 Coefficients=  1.0000000000D+00
 G 1 1.00
     Exponent=  8.5200000000D-01 Coefficients=  1.0000000000D+00
 G 1 1.00
     Exponent=  3.1119000000D-01 Coefficients=  1.0000000000D+00
 H 1 1.00
     Exponent=  5.1185000000D+00 Coefficients=  1.0000000000D+00
 H 1 1.00
     Exponent=  1.9660000000D+00 Coefficients=  1.0000000000D+00
 H 1 1.00
     Exponent=  7.5513000000D-01 Coefficients=  1.0000000000D+00
 ****
 Centers:       2
 S 1 1.00
     Exponent=  6.1420000000D+04 Coefficients=  1.0000000000D+00
 S 1 1.00
     Exponent=  9.1990000000D+03 Coefficients=  1.0000000000D+00
 S 1 1.00
     Exponent=  2.0910000000D+03 Coefficients=  1.0000000000D+00
 S 1 1.00
     Exponent=  5.9090000000D+02 Coefficients=  1.0000000000D+00
 S 1 1.00
     Exponent=  1.9230000000D+02 Coefficients=  1.0000000000D+00
 S 1 1.00
     Exponent=  6.9320000000D+01 Coefficients=  1.0000000000D+00
 S 1 1.00
     Exponent=  2.6970000000D+01 Coefficients=  1.0000000000D+00
 S 1 1.00
     Exponent=  1.1100000000D+01 Coefficients=  1.0000000000D+00
 S 1 1.00
     Exponent=  4.6820000000D+00 Coefficients=  1.0000000000D+00
 S 1 1.00
     Exponent=  1.4280000000D+00 Coefficients=  1.0000000000D+00
 S 1 1.00
     Exponent=  5.5470000000D-01 Coefficients=  1.0000000000D+00
 S 1 1.00
     Exponent=  2.0670000000D-01 Coefficients=  1.0000000000D+00
 S 1 1.00
     Exponent=  1.2974000000D+01 Coefficients=  1.0000000000D+00
 S 1 1.00
     Exponent=  3.4900000000D+01 Coefficients=  1.0000000000D+00
 S 1 1.00
     Exponent=  9.3881000000D+01 Coefficients=  1.0000000000D+00
 S 1 1.00
     Exponent=  6.9590000000D-02 Coefficients=  1.0000000000D+00
 P 1 1.00
     Exponent=  6.3420000000D+01 Coefficients=  1.0000000000D+00
 P 1 1.00
     Exponent=  1.4660000000D+01 Coefficients=  1.0000000000D+00
 P 1 1.00
     Exponent=  4.4590000000D+00 Coefficients=  1.0000000000D+00
 P 1 1.00
     Exponent=  1.5310000000D+00 Coefficients=  1.0000000000D+00
 P 1 1.00
     Exponent=  5.3020000000D-01 Coefficients=  1.0000000000D+00
 P 1 1.00
     Exponent=  1.7500000000D-01 Coefficients=  1.0000000000D+00
 P 1 1.00
     Exponent=  1.4475000000D+01 Coefficients=  1.0000000000D+00
 P 1 1.00
     Exponent=  4.2730000000D+01 Coefficients=  1.0000000000D+00
 P 1 1.00
     Exponent=  1.2614000000D+02 Coefficients=  1.0000000000D+00
 P 1 1.00
     Exponent=  5.3480000000D-02 Coefficients=  1.0000000000D+00
 D 1 1.00
     Exponent=  3.7750000000D+00 Coefficients=  1.0000000000D+00
 D 1 1.00
     Exponent=  1.3000000000D+00 Coefficients=  1.0000000000D+00
 D 1 1.00
     Exponent=  4.4400000000D-01 Coefficients=  1.0000000000D+00
 D 1 1.00
     Exponent=  1.4927000000D+01 Coefficients=  1.0000000000D+00
 D 1 1.00
     Exponent=  5.7544000000D+01 Coefficients=  1.0000000000D+00
 D 1 1.00
     Exponent=  1.5400000000D-01 Coefficients=  1.0000000000D+00
 F 1 1.00
     Exponent=  2.6660000000D+00 Coefficients=  1.0000000000D+00
 F 1 1.00
     Exponent=  8.5900000000D-01 Coefficients=  1.0000000000D+00
 F 1 1.00
     Exponent=  2.6483000000D+01 Coefficients=  1.0000000000D+00
 F 1 1.00
     Exponent=  3.2400000000D-01 Coefficients=  1.0000000000D+00
 G 1 1.00
     Exponent=  1.8460000000D+00 Coefficients=  1.0000000000D+00
 G 1 1.00
     Exponent=  7.1400000000D-01 Coefficients=  1.0000000000D+00
 ****
 Ernie: Thresh=  0.10000D-02 Tol=  0.10000D-05 Strict=F.
 There are   213 symmetry adapted cartesian basis functions of A1  symmetry.
 There are    56 symmetry adapted cartesian basis functions of A2  symmetry.
 There are   114 symmetry adapted cartesian basis functions of B1  symmetry.
 There are   114 symmetry adapted cartesian basis functions of B2  symmetry.
 There are   157 symmetry adapted basis functions of A1  symmetry.
 There are    47 symmetry adapted basis functions of A2  symmetry.
 There are    90 symmetry adapted basis functions of B1  symmetry.
 There are    90 symmetry adapted basis functions of B2  symmetry.
   384 basis functions,   497 primitive gaussians,   497 cartesian basis functions
    19 alpha electrons       14 beta electrons
       nuclear repulsion energy        58.7974678800 Hartrees.
 IExCor=    0 DFT=F Ex=HF Corr=None ExCW=0 ScaHFX=  1.000000
 ScaDFX=  1.000000  1.000000  1.000000  1.000000 ScalE2=  1.000000  1.000000
 IRadAn=      5 IRanWt=     -1 IRanGd=            0 ICorTp=0 IEmpDi=  4
 NAtoms=    2 NActive=    2 NUniq=    2 SFac= 1.00D+00 NAtFMM=   60 NAOKFM=F Big=F
 Integral buffers will be    131072 words long.
 Raffenetti 2 integral format.
 Two-electron integral symmetry is turned on.
 FoFCou: FMM=F IPFlag=           8 FMFlag=           0 FMFlg1=           0
         NFxFlg=           0 DoJE=F BraDBF=T KetDBF=T FulRan=T
         wScrn=  0.000000 ICntrl=       600 IOpCl=  3 I1Cent=           6 NGrid=           0
         NMat0=    1 NMatS0=      2 NMatT0=    0 NMatD0=    1 NMtDS0=    0 NMtDT0=    0
 Symmetry not used in FoFCou.
 Finite nuclear repulsion energy        58.7974678800.
 Leave Link  301 at Wed Mar  7 01:18:46 2018, MaxMem= 21474836480 cpu:               5.0 elap:               0.2
 (Enter /home1/apps/gaussian/16rA.03/g16/l302.exe)
 Using DK4 one-electron Hamiltonian with SO, DoBoet=T.
 NPDir=0 NMtPBC=     1 NCelOv=     1 NCel=       1 NClECP=     1 NCelD=      1
         NCelK=      1 NCelE2=     1 NClLst=     1 CellRange=     0.0.
 One-electron integrals computed using PRISM.
 One-electron integral symmetry used in STVInt
 FoFCou: FMM=F IPFlag=           8 FMFlag=      100000 FMFlg1=           0
         NFxFlg=           0 DoJE=T BraDBF=F KetDBF=T FulRan=T
         wScrn=  0.000000 ICntrl=       500 IOpCl=  0 I1Cent=           4 NGrid=           0
         NMat0=    1 NMatS0=      1 NMatT0=    0 NMatD0=    1 NMtDS0=    0 NMtDT0=    0
 Symmetry not used in FoFCou.
 UnConB:  Uncontracting AO basis from    384 functions to    384 functions (excluding duplicates).
 RelInt: Using uncontracted basis, NUnBas=   384 NBsUse=   384 0.100E-13 EigKep=  7.13D-09 EigRej= -1.00D+00
 NBasis=   384 RedAO= T EigKep=  2.17D-06  NBF=   157    47    90    90
 NBsUse=   377 1.00D-06 EigRej=  3.94D-07 NBFU=   154    47    88    88
 Leave Link  302 at Wed Mar  7 01:18:51 2018, MaxMem= 21474836480 cpu:             130.5 elap:               4.8
 (Enter /home1/apps/gaussian/16rA.03/g16/l303.exe)
 DipDrv:  MaxL=1.
 Leave Link  303 at Wed Mar  7 01:18:51 2018, MaxMem= 21474836480 cpu:               1.6 elap:               0.1
 (Enter /home1/apps/gaussian/16rA.03/g16/l401.exe)
 Initial guess from the checkpoint file:  "MnO.chk"
 B after Tr=     0.000000    0.000000    0.000000
         Rot=    1.000000    0.000000    0.000000    0.000000 Ang=   0.00 deg.
 Guess basis will be translated and rotated to current coordinates.
 JPrj=2 DoOrth=T DoCkMO=T.
 Initial guess orbital symmetries:
       Occupied  (SG) (SG) (PI) (PI) (SG) (SG) (SG) (PI) (PI) (SG)
                 (SG) (PI) (PI) (SG) (DLTA) (DLTA) (SG) (PI) (PI)
       Virtual   (SG) (PI) (PI) (SG) (SG) (PI) (PI) (SG) (DLTA)
                 (DLTA) (PI) (PI) (SG) (SG) (PI) (PI) (SG) (SG)
                 (DLTA) (DLTA) (PI) (PI) (PI) (PI) (SG) (SG) (SG)
                 (DLTA) (DLTA) (PHI) (PHI) (PI) (PI) (SG) (PI)
                 (PI) (SG) (DLTA) (DLTA) (PI) (PI) (DLTA) (DLTA)
                 (SG) (PI) (PI) (SG) (PI) (PI) (SG) (SG) (SG) (PI)
                 (PI) (DLTA) (DLTA) (PHI) (PHI) (SG) (PHI) (PHI)
                 (DLTA) (DLTA) (DLTA) (DLTA) (PI) (PI) (SG) (PI)
                 (PI) (?A) (?A) (PI) (PI) (PHI) (PHI) (SG) (DLTA)
                 (DLTA) (SG) (PI) (PI) (DLTA) (DLTA) (SG) (PI)
                 (PI) (SG) (PI) (PI) (SG) (SG) (SG) (PHI) (PHI)
                 (DLTA) (DLTA) (PI) (PI) (SG) (PHI) (PHI) (PI)
                 (PI) (DLTA) (DLTA) (DLTA) (DLTA) (SG) (PI) (PI)
                 (DLTA) (DLTA) (SG) (PI) (PI) (PI) (PI) (SG) (?A)
                 (?A) (PHI) (PHI) (DLTA) (DLTA) (PI) (PI) (SG)
                 (SG) (SG) (DLTA) (DLTA) (PI) (PI) (SG) (PI) (PI)
                 (SG) (SG) (PHI) (PHI) (DLTA) (DLTA) (PI) (PI)
                 (PI) (PI) (SG) (SG) (?A) (?A) (PHI) (PHI) (DLTA)
                 (DLTA) (PI) (PI) (SG) (DLTA) (DLTA) (PI) (PI)
                 (SG) (SG) (PI) (PI) (SG) (SG) (PI) (PI) (DLTA)
                 (DLTA) (SG) (PI) (PI) (SG) (DLTA) (DLTA) (PI)
                 (PI) (SG) (SG) (PI) (PI) (SG) (SG) (DLTA) (DLTA)
                 (PI) (PI) (SG) (PI) (PI) (SG) (SG) (PI) (PI) (SG)
                 (SG) (PI) (PI) (SG) (SG) (PI) (PI) (SG) (DLTA)
                 (DLTA) (PI) (PI) (SG) (SG) (PI) (PI) (SG) (SG)
                 (SG) (PI) (PI) (SG) (SG) (PI) (PI) (SG) (SG) (SG)
                 (SG) (PI) (PI) (SG) (SG) (SG) (PI) (PI) (SG) (SG)
                 (SG) (SG) (SG) (SG) (SG) (DLTA) (SG) (SG) (SG)
                 (SG) (SG) (DLTA) (SG) (DLTA) (SG) (SG) (DLTA)
                 (SG) (DLTA) (SG) (?A) (SG) (SG) (DLTA) (SG) (DLTA)
                 (SG) (?A) (DLTA) (SG) (DLTA) (?A) (SG) (DLTA)
                 (DLTA) (SG) (DLTA) (SG) (DLTA) (SG) (DLTA) (?A)
                 (?A) (?A) (DLTA) (DLTA) (DLTA) (DLTA) (DLTA) (?A)
                 (DLTA) (DLTA) (?A) (DLTA) (DLTA) (?A) (DLTA) (DLTA)
                 (DLTA) (DLTA) (DLTA) (?A) (?A) (?A) (PI) (PI)
                 (PI) (PI) (PI) (PI) (PHI) (PI) (PI) (PHI) (PI)
                 (PI) (PHI) (PI) (PHI) (PI) (?B) (PI) (PHI) (PI)
                 (PHI) (PI) (PI) (PI) (PHI) (PHI) (?B) (PHI) (?B)
                 (PI) (PI) (PI) (PI) (PI) (PI) (PHI) (PI) (PI)
                 (PHI) (PI) (PI) (PHI) (PI) (PHI) (PI) (?B) (PI)
                 (PHI) (PI) (PHI) (PI) (PI) (PI) (PHI) (PHI) (?B)
                 (PHI) (?B)
 The electronic state of the initial guess is 6-SG.
 Leave Link  401 at Wed Mar  7 01:18:51 2018, MaxMem= 21474836480 cpu:               9.5 elap:               0.3
 (Enter /home1/apps/gaussian/16rA.03/g16/l502.exe)
 Keep R1 and R2 ints in memory in symmetry-blocked form, NReq=3425113631.
 FoFCou: FMM=F IPFlag=           8 FMFlag=           0 FMFlg1=           0
         NFxFlg=           0 DoJE=F BraDBF=F KetDBF=F FulRan=T
         wScrn=  0.000000 ICntrl=       600 IOpCl=  0 I1Cent=           0 NGrid=           0
         NMat0=    1 NMatS0=  73920 NMatT0=    0 NMatD0=    1 NMtDS0=    0 NMtDT0=    0
 Petite list used in FoFCou.
 Restricted open shell SCF:
 Using DIIS extrapolation, IDIIS=  1040.
 NGot= 21474836480 LenX= 20088504193 LenY= 20088256687
 Requested convergence on RMS density matrix=1.00D-08 within 300 cycles.
 Requested convergence on MAX density matrix=1.00D-06.
 Requested convergence on             energy=1.00D-06.
 No special actions if energy rises.

 Cycle   1  Pass 1  IDiag  1:
 E= -1232.22220075293    
 DIIS: error= 8.67D-01 at cycle   1 NSaved=   1.
 NSaved= 1 IEnMin= 1 EnMin= -1232.22220075293     IErMin= 1 ErrMin= 8.67D-01
 ErrMax= 8.67D-01  0.00D+00 EMaxC= 1.00D-01 BMatC= 1.31D+02 BMatP= 1.31D+02
 IDIUse=3 WtCom= 0.00D+00 WtEn= 1.00D+00
 Coeff-Com:  0.100D+01
 Coeff-En:   0.100D+01
 Coeff:      0.100D+01
 Gap=     0.047 Goal=   None    Shift=    0.000
 GapD=    0.047 DampG=0.250 DampE=0.125 DampFc=0.1250 IDamp=-1.
 Damping current iteration by 1.25D-01
 RMSDP=1.60D-03 MaxDP=1.85D-01              OVMax= 3.16D-03

 Cycle   2  Pass 1  IDiag  1:
 E= -1232.22257967165     Delta-E=       -0.000378918722 Rises=F Damp=T
 DIIS: error= 7.59D-01 at cycle   2 NSaved=   2.
 NSaved= 2 IEnMin= 2 EnMin= -1232.22257967165     IErMin= 2 ErrMin= 7.59D-01
 ErrMax= 7.59D-01  0.00D+00 EMaxC= 1.00D-01 BMatC= 1.00D+02 BMatP= 1.31D+02
 IDIUse=3 WtCom= 0.00D+00 WtEn= 1.00D+00
 Coeff-Com: -0.700D+01 0.800D+01
 Coeff-En:   0.000D+00 0.100D+01
 Coeff:      0.000D+00 0.100D+01
 Gap=     0.047 Goal=   None    Shift=    0.000
 RMSDP=1.38D-03 MaxDP=1.62D-01 DE=-3.79D-04 OVMax= 6.19D-03

 Cycle   3  Pass 1  IDiag  1:
 E= -1232.22522795050     Delta-E=       -0.002648278841 Rises=F Damp=F
 DIIS: error= 4.47D-04 at cycle   3 NSaved=   3.
 NSaved= 3 IEnMin= 3 EnMin= -1232.22522795050     IErMin= 3 ErrMin= 4.47D-04
 ErrMax= 4.47D-04  0.00D+00 EMaxC= 1.00D-01 BMatC= 2.74D-05 BMatP= 1.00D+02
 IDIUse=3 WtCom= 9.96D-01 WtEn= 4.47D-03
 Coeff-Com: -0.107D+01 0.122D+01 0.848D+00
 Coeff-En:   0.000D+00 0.000D+00 0.100D+01
 Coeff:     -0.106D+01 0.121D+01 0.848D+00
 Gap=     0.048 Goal=   None    Shift=    0.000
 RMSDP=7.61D-05 MaxDP=6.20D-03 DE=-2.65D-03 OVMax= 1.52D-02

 Cycle   4  Pass 1  IDiag  1:
 E= -1232.22520612818     Delta-E=        0.000021822312 Rises=F Damp=F
 DIIS: error= 5.77D-04 at cycle   4 NSaved=   4.
 NSaved= 4 IEnMin= 3 EnMin= -1232.22522795050     IErMin= 3 ErrMin= 4.47D-04
 ErrMax= 5.77D-04  0.00D+00 EMaxC= 1.00D-01 BMatC= 3.50D-05 BMatP= 2.74D-05
 IDIUse=3 WtCom= 2.94D-01 WtEn= 7.06D-01
 Coeff-Com: -0.768D+00 0.878D+00 0.555D+00 0.335D+00
 Coeff-En:   0.000D+00 0.000D+00 0.555D+00 0.445D+00
 Coeff:     -0.226D+00 0.258D+00 0.555D+00 0.412D+00
 Gap=     0.047 Goal=   None    Shift=    0.000
 RMSDP=1.19D-04 MaxDP=1.17D-02 DE= 2.18D-05 OVMax= 2.39D-02

 Cycle   5  Pass 1  IDiag  1:
 E= -1232.22519540189     Delta-E=        0.000010726290 Rises=F Damp=F
 DIIS: error= 7.88D-04 at cycle   5 NSaved=   5.
 NSaved= 5 IEnMin= 3 EnMin= -1232.22522795050     IErMin= 3 ErrMin= 4.47D-04
 ErrMax= 7.88D-04  0.00D+00 EMaxC= 1.00D-01 BMatC= 3.25D-05 BMatP= 2.74D-05
 IDIUse=3 WtCom= 2.63D-01 WtEn= 7.37D-01
 EnCoef did     4 forward-backward iterations
 Coeff-Com: -0.474D+00 0.542D+00 0.365D+00 0.336D+00 0.231D+00
 Coeff-En:   0.000D+00 0.000D+00 0.176D+00 0.445D+00 0.379D+00
 Coeff:     -0.125D+00 0.142D+00 0.226D+00 0.417D+00 0.340D+00
 Gap=     0.047 Goal=   None    Shift=    0.000
 RMSDP=7.03D-05 MaxDP=7.05D-03 DE= 1.07D-05 OVMax= 1.85D-02

 Cycle   6  Pass 1  IDiag  1:
 E= -1232.22524019866     Delta-E=       -0.000044796765 Rises=F Damp=F
 DIIS: error= 3.80D-04 at cycle   6 NSaved=   6.
 NSaved= 6 IEnMin= 6 EnMin= -1232.22524019866     IErMin= 6 ErrMin= 3.80D-04
 ErrMax= 3.80D-04  0.00D+00 EMaxC= 1.00D-01 BMatC= 1.18D-05 BMatP= 2.74D-05
 IDIUse=3 WtCom= 9.96D-01 WtEn= 3.80D-03
 EnCoef did   100 forward-backward iterations
 Coeff-Com: -0.199D+00 0.227D+00 0.846D-01 0.234D+00 0.293D+00 0.360D+00
 Coeff-En:   0.000D+00 0.000D+00 0.136D-01 0.327D+00 0.401D+00 0.258D+00
 Coeff:     -0.198D+00 0.226D+00 0.844D-01 0.234D+00 0.294D+00 0.359D+00
 Gap=     0.047 Goal=   None    Shift=    0.000
 RMSDP=3.16D-05 MaxDP=2.45D-03 DE=-4.48D-05 OVMax= 6.74D-03

 Cycle   7  Pass 1  IDiag  1:
 E= -1232.22526027235     Delta-E=       -0.000020073692 Rises=F Damp=F
 DIIS: error= 1.12D-04 at cycle   7 NSaved=   7.
 NSaved= 7 IEnMin= 7 EnMin= -1232.22526027235     IErMin= 7 ErrMin= 1.12D-04
 ErrMax= 1.12D-04  0.00D+00 EMaxC= 1.00D-01 BMatC= 1.25D-06 BMatP= 1.18D-05
 IDIUse=3 WtCom= 9.99D-01 WtEn= 1.12D-03
 EnCoef did   100 forward-backward iterations
 Rare condition: small coef for last iteration: -0.479D-15
 Coeff-Com: -0.177D+00 0.202D+00-0.228D-01 0.937D-01 0.133D+00 0.241D+00
 Coeff-Com:  0.530D+00
 Coeff-En:   0.000D+00 0.000D+00 0.379D-02 0.230D+00 0.178D+00 0.157D+00
 Coeff-En:   0.432D+00
 Coeff:     -0.177D+00 0.202D+00-0.228D-01 0.937D-01 0.133D+00 0.241D+00
 Coeff:      0.530D+00
 Gap=     0.047 Goal=   None    Shift=    0.000
 RMSDP=1.67D-05 MaxDP=1.58D-03 DE=-2.01D-05 OVMax= 1.98D-03

 Cycle   8  Pass 1  IDiag  1:
 E= -1232.22526144662     Delta-E=       -0.000001174271 Rises=F Damp=F
 DIIS: error= 6.99D-05 at cycle   8 NSaved=   8.
 NSaved= 8 IEnMin= 8 EnMin= -1232.22526144662     IErMin= 8 ErrMin= 6.99D-05
 ErrMax= 6.99D-05  0.00D+00 EMaxC= 1.00D-01 BMatC= 5.30D-07 BMatP= 1.25D-06
 IDIUse=1 WtCom= 1.00D+00 WtEn= 0.00D+00
 Coeff-Com: -0.168D+00 0.192D+00-0.336D-01 0.425D-01 0.628D-01 0.143D+00
 Coeff-Com:  0.425D+00 0.336D+00
 Coeff:     -0.168D+00 0.192D+00-0.336D-01 0.425D-01 0.628D-01 0.143D+00
 Coeff:      0.425D+00 0.336D+00
 Gap=     0.047 Goal=   None    Shift=    0.000
 RMSDP=5.59D-06 MaxDP=5.32D-04 DE=-1.17D-06 OVMax= 9.68D-04

 Cycle   9  Pass 1  IDiag  1:
 E= -1232.22526195812     Delta-E=       -0.000000511497 Rises=F Damp=F
 DIIS: error= 4.50D-05 at cycle   9 NSaved=   9.
 NSaved= 9 IEnMin= 9 EnMin= -1232.22526195812     IErMin= 9 ErrMin= 4.50D-05
 ErrMax= 4.50D-05  0.00D+00 EMaxC= 1.00D-01 BMatC= 2.45D-07 BMatP= 5.30D-07
 IDIUse=1 WtCom= 1.00D+00 WtEn= 0.00D+00
 Coeff-Com: -0.147D+00 0.168D+00-0.277D-01 0.440D-02 0.139D-01 0.497D-01
 Coeff-Com:  0.183D+00 0.209D+00 0.547D+00
 Coeff:     -0.147D+00 0.168D+00-0.277D-01 0.440D-02 0.139D-01 0.497D-01
 Coeff:      0.183D+00 0.209D+00 0.547D+00
 Gap=     0.047 Goal=   None    Shift=    0.000
 RMSDP=1.51D-06 MaxDP=1.29D-04 DE=-5.11D-07 OVMax= 2.51D-04

 Cycle  10  Pass 1  IDiag  1:
 E= -1232.22526202748     Delta-E=       -0.000000069365 Rises=F Damp=F
 DIIS: error= 3.95D-05 at cycle  10 NSaved=  10.
 NSaved=10 IEnMin=10 EnMin= -1232.22526202748     IErMin=10 ErrMin= 3.95D-05
 ErrMax= 3.95D-05  0.00D+00 EMaxC= 1.00D-01 BMatC= 1.83D-07 BMatP= 2.45D-07
 IDIUse=1 WtCom= 1.00D+00 WtEn= 0.00D+00
 Coeff-Com: -0.125D+00 0.143D+00-0.210D-01-0.162D-01-0.939D-02-0.418D-02
 Coeff-Com:  0.365D-01 0.103D+00 0.429D+00 0.464D+00
 Coeff:     -0.125D+00 0.143D+00-0.210D-01-0.162D-01-0.939D-02-0.418D-02
 Coeff:      0.365D-01 0.103D+00 0.429D+00 0.464D+00
 Gap=     0.047 Goal=   None    Shift=    0.000
 RMSDP=2.80D-06 MaxDP=2.97D-04 DE=-6.94D-08 OVMax= 1.35D-04

 Cycle  11  Pass 1  IDiag  1:
 E= -1232.22526207930     Delta-E=       -0.000000051820 Rises=F Damp=F
 DIIS: error= 3.28D-05 at cycle  11 NSaved=  11.
 NSaved=11 IEnMin=11 EnMin= -1232.22526207930     IErMin=11 ErrMin= 3.28D-05
 ErrMax= 3.28D-05  0.00D+00 EMaxC= 1.00D-01 BMatC= 1.35D-07 BMatP= 1.83D-07
 IDIUse=1 WtCom= 1.00D+00 WtEn= 0.00D+00
 Coeff-Com: -0.103D+00 0.117D+00-0.148D-01-0.245D-01-0.193D-01-0.313D-01
 Coeff-Com: -0.452D-01 0.213D-01 0.172D+00 0.448D+00 0.479D+00
 Coeff:     -0.103D+00 0.117D+00-0.148D-01-0.245D-01-0.193D-01-0.313D-01
 Coeff:     -0.452D-01 0.213D-01 0.172D+00 0.448D+00 0.479D+00
 Gap=     0.047 Goal=   None    Shift=    0.000
 RMSDP=2.30D-06 MaxDP=2.41D-04 DE=-5.18D-08 OVMax= 9.78D-05

 Cycle  12  Pass 1  IDiag  1:
 E= -1232.22526212586     Delta-E=       -0.000000046556 Rises=F Damp=F
 DIIS: error= 2.93D-05 at cycle  12 NSaved=  12.
 NSaved=12 IEnMin=12 EnMin= -1232.22526212586     IErMin=12 ErrMin= 2.93D-05
 ErrMax= 2.93D-05  0.00D+00 EMaxC= 1.00D-01 BMatC= 9.00D-08 BMatP= 1.35D-07
 IDIUse=1 WtCom= 1.00D+00 WtEn= 0.00D+00
 Coeff-Com: -0.770D-01 0.880D-01-0.966D-02-0.200D-01-0.185D-01-0.316D-01
 Coeff-Com: -0.617D-01-0.330D-01-0.435D-01 0.140D+00 0.430D+00 0.637D+00
 Coeff:     -0.770D-01 0.880D-01-0.966D-02-0.200D-01-0.185D-01-0.316D-01
 Coeff:     -0.617D-01-0.330D-01-0.435D-01 0.140D+00 0.430D+00 0.637D+00
 Gap=     0.047 Goal=   None    Shift=    0.000
 RMSDP=1.87D-06 MaxDP=1.73D-04 DE=-4.66D-08 OVMax= 5.46D-05

 Cycle  13  Pass 1  IDiag  1:
 E= -1232.22526216885     Delta-E=       -0.000000042989 Rises=F Damp=F
 DIIS: error= 2.04D-05 at cycle  13 NSaved=  13.
 NSaved=13 IEnMin=13 EnMin= -1232.22526216885     IErMin=13 ErrMin= 2.04D-05
 ErrMax= 2.04D-05  0.00D+00 EMaxC= 1.00D-01 BMatC= 5.02D-08 BMatP= 9.00D-08
 IDIUse=1 WtCom= 1.00D+00 WtEn= 0.00D+00
 Coeff-Com: -0.534D-01 0.610D-01-0.727D-02-0.827D-02-0.995D-02-0.115D-01
 Coeff-Com: -0.213D-01-0.348D-01-0.752D-01-0.127D+00 0.599D-01 0.501D+00
 Coeff-Com:  0.727D+00
 Coeff:     -0.534D-01 0.610D-01-0.727D-02-0.827D-02-0.995D-02-0.115D-01
 Coeff:     -0.213D-01-0.348D-01-0.752D-01-0.127D+00 0.599D-01 0.501D+00
 Coeff:      0.727D+00
 Gap=     0.047 Goal=   None    Shift=    0.000
 RMSDP=2.45D-06 MaxDP=2.55D-04 DE=-4.30D-08 OVMax= 5.86D-05

 Cycle  14  Pass 1  IDiag  1:
 E= -1232.22526219671     Delta-E=       -0.000000027860 Rises=F Damp=F
 DIIS: error= 1.47D-05 at cycle  14 NSaved=  14.
 NSaved=14 IEnMin=14 EnMin= -1232.22526219671     IErMin=14 ErrMin= 1.47D-05
 ErrMax= 1.47D-05  0.00D+00 EMaxC= 1.00D-01 BMatC= 2.43D-08 BMatP= 5.02D-08
 IDIUse=1 WtCom= 1.00D+00 WtEn= 0.00D+00
 Coeff-Com: -0.391D-01 0.447D-01-0.607D-02-0.231D-02-0.428D-02 0.212D-03
 Coeff-Com:  0.599D-02-0.171D-01-0.475D-01-0.145D+00-0.114D+00 0.187D+00
 Coeff-Com:  0.625D+00 0.512D+00
 Coeff:     -0.391D-01 0.447D-01-0.607D-02-0.231D-02-0.428D-02 0.212D-03
 Coeff:      0.599D-02-0.171D-01-0.475D-01-0.145D+00-0.114D+00 0.187D+00
 Coeff:      0.625D+00 0.512D+00
 Gap=     0.047 Goal=   None    Shift=    0.000
 RMSDP=1.32D-06 MaxDP=1.34D-04 DE=-2.79D-08 OVMax= 7.59D-05

 Cycle  15  Pass 1  IDiag  1:
 E= -1232.22526220781     Delta-E=       -0.000000011097 Rises=F Damp=F
 DIIS: error= 1.10D-05 at cycle  15 NSaved=  15.
 NSaved=15 IEnMin=15 EnMin= -1232.22526220781     IErMin=15 ErrMin= 1.10D-05
 ErrMax= 1.10D-05  0.00D+00 EMaxC= 1.00D-01 BMatC= 1.35D-08 BMatP= 2.43D-08
 IDIUse=1 WtCom= 1.00D+00 WtEn= 0.00D+00
 Coeff-Com: -0.215D-01 0.246D-01-0.415D-02 0.224D-02 0.929D-03 0.900D-02
 Coeff-Com:  0.272D-01 0.712D-02-0.523D-02-0.576D-01-0.209D+00-0.222D+00
 Coeff-Com:  0.181D+00 0.762D+00 0.505D+00
 Coeff:     -0.215D-01 0.246D-01-0.415D-02 0.224D-02 0.929D-03 0.900D-02
 Coeff:      0.272D-01 0.712D-02-0.523D-02-0.576D-01-0.209D+00-0.222D+00
 Coeff:      0.181D+00 0.762D+00 0.505D+00
 Gap=     0.047 Goal=   None    Shift=    0.000
 RMSDP=1.59D-06 MaxDP=1.63D-04 DE=-1.11D-08 OVMax= 6.88D-05

 Cycle  16  Pass 1  IDiag  1:
 E= -1232.22526221805     Delta-E=       -0.000000010248 Rises=F Damp=F
 DIIS: error= 5.89D-06 at cycle  16 NSaved=  16.
 NSaved=16 IEnMin=16 EnMin= -1232.22526221805     IErMin=16 ErrMin= 5.89D-06
 ErrMax= 5.89D-06  0.00D+00 EMaxC= 1.00D-01 BMatC= 4.21D-09 BMatP= 1.35D-08
 IDIUse=1 WtCom= 1.00D+00 WtEn= 0.00D+00
 Coeff-Com: -0.982D-02 0.112D-01-0.208D-02 0.177D-02 0.123D-02 0.641D-02
 Coeff-Com:  0.199D-01 0.129D-01 0.104D-01 0.479D-01-0.128D+00-0.326D+00
 Coeff-Com: -0.190D+00 0.491D+00 0.529D+00 0.524D+00
 Coeff:     -0.982D-02 0.112D-01-0.208D-02 0.177D-02 0.123D-02 0.641D-02
 Coeff:      0.199D-01 0.129D-01 0.104D-01 0.479D-01-0.128D+00-0.326D+00
 Coeff:     -0.190D+00 0.491D+00 0.529D+00 0.524D+00
 Gap=     0.047 Goal=   None    Shift=    0.000
 RMSDP=1.16D-06 MaxDP=1.20D-04 DE=-1.02D-08 OVMax= 3.06D-05

 Cycle  17  Pass 1  IDiag  1:
 E= -1232.22526222191     Delta-E=       -0.000000003853 Rises=F Damp=F
 DIIS: error= 2.54D-06 at cycle  17 NSaved=  17.
 NSaved=17 IEnMin=17 EnMin= -1232.22526222191     IErMin=17 ErrMin= 2.54D-06
 ErrMax= 2.54D-06  0.00D+00 EMaxC= 1.00D-01 BMatC= 8.65D-10 BMatP= 4.21D-09
 IDIUse=1 WtCom= 1.00D+00 WtEn= 0.00D+00
 Coeff-Com: -0.314D-02 0.359D-02-0.649D-03 0.282D-03-0.827D-04 0.143D-02
 Coeff-Com:  0.530D-02 0.513D-02 0.733D-02 0.575D-01-0.319D-01-0.174D+00
 Coeff-Com: -0.209D+00 0.102D+00 0.235D+00 0.428D+00 0.573D+00
 Coeff:     -0.314D-02 0.359D-02-0.649D-03 0.282D-03-0.827D-04 0.143D-02
 Coeff:      0.530D-02 0.513D-02 0.733D-02 0.575D-01-0.319D-01-0.174D+00
 Coeff:     -0.209D+00 0.102D+00 0.235D+00 0.428D+00 0.573D+00
 Gap=     0.047 Goal=   None    Shift=    0.000
 RMSDP=5.65D-07 MaxDP=5.90D-05 DE=-3.85D-09 OVMax= 1.98D-05

 Cycle  18  Pass 1  IDiag  1:
 E= -1232.22526222280     Delta-E=       -0.000000000896 Rises=F Damp=F
 DIIS: error= 8.69D-07 at cycle  18 NSaved=  18.
 NSaved=18 IEnMin=18 EnMin= -1232.22526222280     IErMin=18 ErrMin= 8.69D-07
 ErrMax= 8.69D-07  0.00D+00 EMaxC= 1.00D-01 BMatC= 9.21D-11 BMatP= 8.65D-10
 IDIUse=1 WtCom= 1.00D+00 WtEn= 0.00D+00
 Coeff-Com:  0.709D-03-0.811D-03 0.128D-03-0.339D-03-0.652D-03-0.107D-02
 Coeff-Com: -0.301D-02-0.240D-02-0.106D-02 0.208D-01 0.130D-01-0.153D-01
 Coeff-Com: -0.832D-01-0.926D-01-0.106D-02 0.151D+00 0.404D+00 0.612D+00
 Coeff:      0.709D-03-0.811D-03 0.128D-03-0.339D-03-0.652D-03-0.107D-02
 Coeff:     -0.301D-02-0.240D-02-0.106D-02 0.208D-01 0.130D-01-0.153D-01
 Coeff:     -0.832D-01-0.926D-01-0.106D-02 0.151D+00 0.404D+00 0.612D+00
 Gap=     0.047 Goal=   None    Shift=    0.000
 RMSDP=3.34D-07 MaxDP=3.47D-05 DE=-8.96D-10 OVMax= 7.21D-06

 Cycle  19  Pass 1  IDiag  1:
 E= -1232.22526222290     Delta-E=       -0.000000000100 Rises=F Damp=F
 DIIS: error= 1.79D-07 at cycle  19 NSaved=  19.
 NSaved=19 IEnMin=19 EnMin= -1232.22526222290     IErMin=19 ErrMin= 1.79D-07
 ErrMax= 1.79D-07  0.00D+00 EMaxC= 1.00D-01 BMatC= 7.03D-12 BMatP= 9.21D-11
 IDIUse=1 WtCom= 1.00D+00 WtEn= 0.00D+00
 Coeff-Com:  0.127D-02-0.145D-02 0.247D-03-0.255D-03-0.448D-03-0.101D-02
 Coeff-Com: -0.315D-02-0.266D-02-0.332D-03 0.505D-02 0.148D-01 0.212D-01
 Coeff-Com: -0.198D-01-0.874D-01-0.468D-01 0.242D-01 0.172D+00 0.451D+00
 Coeff-Com:  0.473D+00
 Coeff:      0.127D-02-0.145D-02 0.247D-03-0.255D-03-0.448D-03-0.101D-02
 Coeff:     -0.315D-02-0.266D-02-0.332D-03 0.505D-02 0.148D-01 0.212D-01
 Coeff:     -0.198D-01-0.874D-01-0.468D-01 0.242D-01 0.172D+00 0.451D+00
 Coeff:      0.473D+00
 Gap=     0.047 Goal=   None    Shift=    0.000
 RMSDP=8.83D-08 MaxDP=9.76D-06 DE=-9.98D-11 OVMax= 4.41D-06

 Cycle  20  Pass 1  IDiag  1:
 E= -1232.22526222290     Delta-E=        0.000000000001 Rises=F Damp=F
 DIIS: error= 3.50D-07 at cycle  20 NSaved=  20.
 NSaved=20 IEnMin=19 EnMin= -1232.22526222290     IErMin=19 ErrMin= 1.79D-07
 ErrMax= 3.50D-07  0.00D+00 EMaxC= 1.00D-01 BMatC= 1.35D-11 BMatP= 7.03D-12
 IDIUse=1 WtCom= 1.00D+00 WtEn= 0.00D+00
 Coeff-Com:  0.105D-02-0.120D-02 0.190D-03-0.657D-05-0.560D-04-0.291D-03
 Coeff-Com: -0.112D-02-0.919D-03 0.139D-02-0.168D-02 0.498D-02 0.164D-01
 Coeff-Com:  0.113D-01-0.334D-01-0.331D-01-0.277D-01 0.128D-01 0.162D+00
 Coeff-Com:  0.290D+00 0.599D+00
 Coeff:      0.105D-02-0.120D-02 0.190D-03-0.657D-05-0.560D-04-0.291D-03
 Coeff:     -0.112D-02-0.919D-03 0.139D-02-0.168D-02 0.498D-02 0.164D-01
 Coeff:      0.113D-01-0.334D-01-0.331D-01-0.277D-01 0.128D-01 0.162D+00
 Coeff:      0.290D+00 0.599D+00
 Gap=     0.047 Goal=   None    Shift=    0.000
 RMSDP=2.54D-08 MaxDP=2.59D-06 DE= 1.14D-12 OVMax= 1.05D-06

 Cycle  21  Pass 1  IDiag  1:
 E= -1232.22526222290     Delta-E=       -0.000000000003 Rises=F Damp=F
 DIIS: error= 2.77D-07 at cycle  21 NSaved=  20.
 NSaved=20 IEnMin=20 EnMin= -1232.22526222290     IErMin=18 ErrMin= 1.79D-07
 ErrMax= 2.77D-07  0.00D+00 EMaxC= 1.00D-01 BMatC= 9.49D-12 BMatP= 7.03D-12
 IDIUse=1 WtCom= 1.00D+00 WtEn= 0.00D+00
 Coeff-Com:  0.105D-10-0.693D-06 0.595D-04 0.109D-03 0.176D-03 0.465D-03
 Coeff-Com:  0.450D-03 0.133D-02-0.186D-02-0.175D-02 0.376D-02 0.195D-01
 Coeff-Com:  0.142D-01-0.431D-02-0.298D-01-0.498D-01-0.376D-01 0.481D-02
 Coeff-Com:  0.372D+00 0.708D+00
 Coeff:      0.105D-10-0.693D-06 0.595D-04 0.109D-03 0.176D-03 0.465D-03
 Coeff:      0.450D-03 0.133D-02-0.186D-02-0.175D-02 0.376D-02 0.195D-01
 Coeff:      0.142D-01-0.431D-02-0.298D-01-0.498D-01-0.376D-01 0.481D-02
 Coeff:      0.372D+00 0.708D+00
 Gap=     0.047 Goal=   None    Shift=    0.000
 RMSDP=1.03D-07 MaxDP=1.07D-05 DE=-2.50D-12 OVMax= 2.28D-06

 Cycle  22  Pass 1  IDiag  1:
 E= -1232.22526222291     Delta-E=       -0.000000000010 Rises=F Damp=F
 DIIS: error= 2.51D-08 at cycle  22 NSaved=  20.
 NSaved=20 IEnMin=20 EnMin= -1232.22526222291     IErMin=20 ErrMin= 2.51D-08
 ErrMax= 2.51D-08  0.00D+00 EMaxC= 1.00D-01 BMatC= 1.05D-13 BMatP= 7.03D-12
 IDIUse=1 WtCom= 1.00D+00 WtEn= 0.00D+00
 Coeff-Com: -0.280D-05 0.523D-04 0.840D-04 0.156D-03 0.400D-03 0.371D-03
 Coeff-Com:  0.368D-03-0.401D-03-0.213D-02-0.201D-02 0.954D-02 0.150D-01
 Coeff-Com:  0.252D-02-0.159D-01-0.340D-01-0.537D-01-0.844D-01 0.571D-01
 Coeff-Com:  0.507D+00 0.600D+00
 Coeff:     -0.280D-05 0.523D-04 0.840D-04 0.156D-03 0.400D-03 0.371D-03
 Coeff:      0.368D-03-0.401D-03-0.213D-02-0.201D-02 0.954D-02 0.150D-01
 Coeff:      0.252D-02-0.159D-01-0.340D-01-0.537D-01-0.844D-01 0.571D-01
 Coeff:      0.507D+00 0.600D+00
 Gap=     0.047 Goal=   None    Shift=    0.000
 RMSDP=5.24D-09 MaxDP=5.40D-07 DE=-9.78D-12 OVMax= 3.36D-07

 SCF Done:  E(ROHF) =  -1232.22526222     A.U. after   22 cycles
            NFock= 22  Conv=0.52D-08     -V/T= 1.9642
 <Sx>= 0.0000 <Sy>= 0.0000 <Sz>= 2.5000 <S**2>= 8.7500 S= 2.5000
 <L.S>=  0.00000000000    
 KE= 1.277915399108D+03 PE=-3.095233669399D+03 EE= 5.262955401881D+02
 Annihilation of the first spin contaminant:
 S**2 before annihilation     8.7500,   after     8.7500
 Leave Link  502 at Wed Mar  7 01:19:28 2018, MaxMem= 21474836480 cpu:             687.1 elap:              37.3
 (Enter /home1/apps/gaussian/16rA.03/g16/l801.exe)
 Windowed orbitals will be sorted by symmetry type.
 GenMOA:  NOpAll=  4 NOp2=4 NOpUse=  4 JSym2X=1
 FoFJK:  IHMeth= 1 ICntrl=       0 DoSepK=F KAlg= 0 I1Cent=           0 FoldK=F
 IRaf=         0 NMat=       1 IRICut=       1 DoRegI=T DoRafI=F ISym2E= 1 IDoP0=0 IntGTp=1.
 FoFCou: FMM=F IPFlag=           8 FMFlag=      100000 FMFlg1=           0
         NFxFlg=           0 DoJE=F BraDBF=F KetDBF=F FulRan=T
         wScrn=  0.000000 ICntrl=         0 IOpCl=  1 I1Cent=           0 NGrid=           0
         NMat0=    1 NMatS0=      1 NMatT0=    0 NMatD0=    1 NMtDS0=    0 NMtDT0=    0
 Petite list used in FoFCou.
 <Sx>= 0.0000 <Sy>= 0.0000 <Sz>= 2.5000 <S**2>= 8.7500 S= 2.5000
 Range of M.O.s used for correlation:     1   377
 NBasis=   384 NAE=    19 NBE=    14 NFC=     0 NFV=     0
 NROrb=    377 NOA=    19 NOB=    14 NVA=   358 NVB=   363

 **** Warning!!: The largest alpha MO coefficient is  0.28137204D+03


 **** Warning!!: The largest beta MO coefficient is  0.28137596D+03

 Singles contribution to E2=   -0.5109873554D-02
 Leave Link  801 at Wed Mar  7 01:19:34 2018, MaxMem= 21474836480 cpu:             182.6 elap:               5.8
 (Enter /home1/apps/gaussian/16rA.03/g16/l804.exe)
 Open-shell transformation, MDV= 21474836480 ITran=4 ISComp=2.
 Unit  1 TFree=       4467859 TCopy=       3419146.
 Semi-Direct transformation.
 ModeAB=           4 MOrb=            19 LenV=   21470608779
 LASXX=    125775475 LTotXX=   125775475 LenRXX=   253091197
 LTotAB=   127315722 MaxLAS=   865190118 LenRXY=           0
 NonZer=   378866672 LenScr=   570528768 LnRSAI=   865190118
 LnScr1=  1302875136 LExtra=    55020247 Total=   3046705466
 MaxDsk= 67108864000 SrtSym=           T ITran=            4
 DoSDTr:  NPSUse= 32
 JobTyp=1 Pass  1:  I=   1 to  19.
 (rs|ai) integrals will be sorted in core.
 Complete sort for first half transformation.
 First half transformation complete.
 Begin second half transformation for I=  10.
 Complete sort for second half transformation.
 Second half transformation complete.
 ModeAB=           4 MOrb=            14 LenV=   21470608779
 LASXX=     93796507 LTotXX=    93796507 LenRXX=   179202353
 LTotAB=    85405846 MaxLAS=   637508508 LenRXY=           0
 NonZer=   272998860 LenScr=   411104256 LnRSAI=   637508508
 LnScr1=   960013312 LExtra=   308111444 Total=   2495939873
 MaxDsk= 67108864000 SrtSym=           T ITran=            4
 DoSDTr:  NPSUse= 32
 JobTyp=2 Pass  1:  I=   1 to  14.
 (rs|ai) integrals will be sorted in core.
 Complete sort for first half transformation.
 First half transformation complete.
 Begin second half transformation for I=  10.
 Complete sort for second half transformation.
 Second half transformation complete.
 Spin components of T(2) and E(2):
     alpha-alpha T2 =       0.4437295307D-01 E2=     -0.2754864768D+00
     alpha-beta  T2 =       0.1463274865D+00 E2=     -0.9662218465D+00
     beta-beta   T2 =       0.2669168525D-01 E2=     -0.1488515489D+00
 ANorm=    0.1106586954D+01
 E2 =    -0.1395669746D+01 EUMP2 =    -0.12336209319686D+04
 (S**2,0)=  0.87500D+01           (S**2,1)=  0.87500D+01
 E(PUHF)=      -0.12322252622D+04        E(PMP2)=      -0.12336209320D+04
 Recovering and transforming amplitudes from chk file.
 B after Tr=     0.000000    0.000000    0.000000
         Rot=    1.000000    0.000000    0.000000    0.000000 Ang=   0.00 deg.
 Alpha occ  Sing. vals= 1.000000D+00 1.000000D+00 1.000000D+00 1.000000D+00 1.000000D+00 9.999999D-01 9.999997D-01 9.999997D-01 9.999997D-01 9.999988D-01
 Alpha occ  Sing. vals= 9.999968D-01 9.999933D-01 9.999933D-01 9.999933D-01 9.999929D-01 9.999929D-01 9.999812D-01 9.999720D-01 9.999720D-01
 Alpha occ  NOrbO=    19 NOrbN=    19 NSVal=    19 ThrEig=  0.900000.
 TrMax= 1.000000D+00 PrMax= 1.000000D+00 Trace(Pr)= 1.900000D+01
 B after Tr=     0.000000    0.000000    0.000000
         Rot=    1.000000    0.000000    0.000000    0.000000 Ang=   0.00 deg.
 Alpha virt Sing. vals= 1.000000D+00 1.000000D+00 1.000000D+00 1.000000D+00 1.000000D+00 1.000000D+00 1.000000D+00 1.000000D+00 1.000000D+00 1.000000D+00
 Alpha virt Sing. vals= 1.000000D+00 1.000000D+00 1.000000D+00 1.000000D+00 1.000000D+00 1.000000D+00 1.000000D+00 9.999999D-01 9.999999D-01 9.999999D-01
 Alpha virt Sing. vals= 9.999999D-01 9.999999D-01 9.999999D-01 9.999999D-01 9.999999D-01 9.999999D-01 9.999998D-01 9.999998D-01 9.999997D-01 9.999997D-01
 Alpha virt Sing. vals= 9.999996D-01 9.999994D-01 9.999994D-01 9.999994D-01 9.999991D-01 9.999991D-01 9.999988D-01 9.999988D-01 9.999987D-01 9.999986D-01
 Alpha virt Sing. vals= 9.999986D-01 9.999985D-01 9.999985D-01 9.999982D-01 9.999975D-01 9.999965D-01 9.999965D-01 9.999965D-01 9.999965D-01 9.999960D-01
 Alpha virt Sing. vals= 9.999960D-01 9.999951D-01 9.999944D-01 9.999943D-01 9.999943D-01 9.999942D-01 9.999942D-01 9.999875D-01 9.999854D-01 9.999806D-01
 Alpha virt Sing. vals= 9.999786D-01 9.999786D-01 9.999768D-01 9.999742D-01 9.999741D-01 9.999741D-01 9.999741D-01 9.999741D-01 9.999568D-01 9.999565D-01
 Alpha virt Sing. vals= 9.999565D-01 9.999507D-01 9.999393D-01 9.999393D-01 9.999221D-01 9.999210D-01 9.999174D-01 9.999114D-01 9.999099D-01 9.999099D-01
 Alpha virt Sing. vals= 9.999063D-01 9.999026D-01 9.999026D-01 9.998435D-01 9.998339D-01 9.998339D-01 9.998098D-01 9.998098D-01 9.998046D-01 9.998046D-01
 Alpha virt Sing. vals= 9.997986D-01 9.997986D-01 9.997922D-01 9.997922D-01 9.997910D-01 9.997829D-01 9.997825D-01 9.997825D-01 9.996962D-01 9.996962D-01
 Alpha virt Sing. vals= 9.996742D-01 9.996632D-01 9.996522D-01 9.996522D-01 9.996503D-01 9.996054D-01 9.996054D-01 9.995851D-01 9.995828D-01 9.995828D-01
 Alpha virt Sing. vals= 9.995826D-01 9.995826D-01 9.995814D-01 9.995727D-01 9.995530D-01 9.995361D-01 9.995361D-01 9.994930D-01 9.994930D-01 9.994858D-01
 Alpha virt Sing. vals= 9.994858D-01 9.994770D-01 9.994770D-01 9.994356D-01 9.994356D-01 9.993085D-01 9.991629D-01 9.991629D-01 9.991251D-01 9.991251D-01
 Alpha virt Sing. vals= 9.990363D-01 9.987095D-01 9.985993D-01 9.985993D-01 9.983839D-01 9.983250D-01 9.983250D-01 9.983051D-01 9.983051D-01 9.982209D-01
 Alpha virt Sing. vals= 9.976696D-01 9.976696D-01 9.973293D-01 9.973293D-01 9.972422D-01 9.972422D-01 9.970621D-01 9.970621D-01 9.970373D-01 9.969888D-01
 Alpha virt Sing. vals= 9.969888D-01 9.969523D-01 9.963251D-01 9.960968D-01 9.959444D-01 9.959444D-01 9.959184D-01 9.959184D-01 9.954696D-01 9.954696D-01
 Alpha virt Sing. vals= 9.953521D-01 9.951971D-01 9.951971D-01 9.951958D-01 9.950127D-01 9.950127D-01 9.947666D-01 9.947666D-01 9.946843D-01 9.946843D-01
 Alpha virt Sing. vals= 9.945698D-01 9.945698D-01 9.942034D-01 9.939205D-01 9.939205D-01 9.924231D-01 9.915883D-01 9.911036D-01 9.911036D-01 9.886792D-01
 Alpha virt Sing. vals= 9.846348D-01 9.846348D-01 9.844563D-01 9.832938D-01 9.832938D-01 9.828314D-01 9.825000D-01 9.825000D-01 9.820698D-01 9.820698D-01
 Alpha virt Sing. vals= 9.804763D-01 9.804763D-01 9.800686D-01 9.764174D-01 9.693751D-01 9.686462D-01 9.686462D-01 9.678175D-01 9.678175D-01 9.511398D-01
 Alpha virt Sing. vals= 9.511398D-01 9.498792D-01 9.438934D-01 9.419572D-01 9.373969D-01 9.373969D-01 9.373852D-01 9.363032D-01 9.363032D-01 9.362365D-01
 Alpha virt Sing. vals= 9.362365D-01 9.289590D-01 9.289590D-01 9.267987D-01 9.267987D-01 9.255909D-01 9.255909D-01 9.244708D-01 9.244708D-01 9.227667D-01
 Alpha virt Sing. vals= 9.227667D-01 9.226436D-01 9.221301D-01 9.221301D-01 9.050933D-01 9.001779D-01 9.001779D-01 8.779345D-01 8.520096D-01 8.520096D-01
 Alpha virt Sing. vals= 8.482141D-01 8.482141D-01 8.427788D-01 8.427788D-01 7.956811D-01 7.956811D-01 7.832918D-01 7.406925D-01 4.635723D-01
 Alpha virt NOrbO=   239 NOrbN=   358 NSVal=   227 ThrEig=  0.900000.
 TrMax= 9.999671D-01 PrMax= 9.999555D-01 Trace(Pr)= 2.270000D+02
 B after Tr=     0.000000    0.000000    0.000000
         Rot=    1.000000    0.000000    0.000000    0.000000 Ang=   0.00 deg.
 Beta  occ  Sing. vals= 1.000000D+00 1.000000D+00 1.000000D+00 1.000000D+00 1.000000D+00 9.999999D-01 9.999997D-01 9.999997D-01 9.999997D-01 9.999988D-01
 Beta  occ  Sing. vals= 9.999968D-01 9.999816D-01 9.999737D-01 9.999737D-01
 Beta  occ  NOrbO=    14 NOrbN=    14 NSVal=    14 ThrEig=  0.900000.
 TrMax= 1.000000D+00 PrMax= 1.000000D+00 Trace(Pr)= 1.400000D+01
 B after Tr=     0.000000    0.000000    0.000000
         Rot=    1.000000    0.000000    0.000000    0.000000 Ang=   0.00 deg.
 Beta  virt Sing. vals= 1.000000D+00 1.000000D+00 1.000000D+00 1.000000D+00 1.000000D+00 1.000000D+00 1.000000D+00 1.000000D+00 1.000000D+00 1.000000D+00
 Beta  virt Sing. vals= 1.000000D+00 1.000000D+00 1.000000D+00 1.000000D+00 1.000000D+00 1.000000D+00 1.000000D+00 1.000000D+00 1.000000D+00 1.000000D+00
 Beta  virt Sing. vals= 1.000000D+00 1.000000D+00 9.999999D-01 9.999999D-01 9.999999D-01 9.999999D-01 9.999999D-01 9.999999D-01 9.999999D-01 9.999999D-01
 Beta  virt Sing. vals= 9.999999D-01 9.999998D-01 9.999998D-01 9.999997D-01 9.999997D-01 9.999996D-01 9.999994D-01 9.999994D-01 9.999994D-01 9.999991D-01
 Beta  virt Sing. vals= 9.999991D-01 9.999988D-01 9.999988D-01 9.999987D-01 9.999986D-01 9.999986D-01 9.999984D-01 9.999984D-01 9.999982D-01 9.999975D-01
 Beta  virt Sing. vals= 9.999965D-01 9.999965D-01 9.999965D-01 9.999964D-01 9.999960D-01 9.999960D-01 9.999951D-01 9.999944D-01 9.999942D-01 9.999942D-01
 Beta  virt Sing. vals= 9.999941D-01 9.999941D-01 9.999875D-01 9.999854D-01 9.999806D-01 9.999786D-01 9.999786D-01 9.999768D-01 9.999741D-01 9.999740D-01
 Beta  virt Sing. vals= 9.999740D-01 9.999740D-01 9.999740D-01 9.999566D-01 9.999562D-01 9.999562D-01 9.999507D-01 9.999383D-01 9.999383D-01 9.999221D-01
 Beta  virt Sing. vals= 9.999209D-01 9.999174D-01 9.999114D-01 9.999099D-01 9.999099D-01 9.999063D-01 9.999017D-01 9.999017D-01 9.998435D-01 9.998337D-01
 Beta  virt Sing. vals= 9.998337D-01 9.998096D-01 9.998096D-01 9.998046D-01 9.998046D-01 9.997986D-01 9.997986D-01 9.997922D-01 9.997922D-01 9.997909D-01
 Beta  virt Sing. vals= 9.997829D-01 9.997825D-01 9.997825D-01 9.996962D-01 9.996962D-01 9.996741D-01 9.996629D-01 9.996521D-01 9.996521D-01 9.996502D-01
 Beta  virt Sing. vals= 9.996054D-01 9.996054D-01 9.995850D-01 9.995828D-01 9.995828D-01 9.995825D-01 9.995825D-01 9.995814D-01 9.995727D-01 9.995529D-01
 Beta  virt Sing. vals= 9.995361D-01 9.995361D-01 9.994930D-01 9.994930D-01 9.994858D-01 9.994858D-01 9.994770D-01 9.994770D-01 9.994354D-01 9.994354D-01
 Beta  virt Sing. vals= 9.993084D-01 9.991628D-01 9.991628D-01 9.991251D-01 9.991251D-01 9.990362D-01 9.987094D-01 9.985976D-01 9.985976D-01 9.983834D-01
 Beta  virt Sing. vals= 9.983246D-01 9.983246D-01 9.983042D-01 9.983042D-01 9.982208D-01 9.976696D-01 9.976696D-01 9.973293D-01 9.973293D-01 9.972416D-01
 Beta  virt Sing. vals= 9.972416D-01 9.970621D-01 9.970621D-01 9.970373D-01 9.969887D-01 9.969887D-01 9.969524D-01 9.963251D-01 9.960965D-01 9.959443D-01
 Beta  virt Sing. vals= 9.959443D-01 9.959184D-01 9.959184D-01 9.954696D-01 9.954696D-01 9.953521D-01 9.951971D-01 9.951971D-01 9.951958D-01 9.950125D-01
 Beta  virt Sing. vals= 9.950125D-01 9.947667D-01 9.947667D-01 9.946843D-01 9.946843D-01 9.945698D-01 9.945698D-01 9.942034D-01 9.939205D-01 9.939205D-01
 Beta  virt Sing. vals= 9.924231D-01 9.915883D-01 9.911036D-01 9.911036D-01 9.886793D-01 9.846348D-01 9.846348D-01 9.844559D-01 9.832932D-01 9.832932D-01
 Beta  virt Sing. vals= 9.828305D-01 9.824996D-01 9.824996D-01 9.820698D-01 9.820698D-01 9.804759D-01 9.804759D-01 9.800686D-01 9.764172D-01 9.693752D-01
 Beta  virt Sing. vals= 9.686457D-01 9.686457D-01 9.678165D-01 9.678165D-01 9.511395D-01 9.511395D-01 9.498792D-01 9.438934D-01 9.419572D-01 9.373969D-01
 Beta  virt Sing. vals= 9.373969D-01 9.373852D-01 9.363030D-01 9.363030D-01 9.362365D-01 9.362365D-01 9.289590D-01 9.289590D-01 9.267987D-01 9.267987D-01
 Beta  virt Sing. vals= 9.255909D-01 9.255909D-01 9.244708D-01 9.244708D-01 9.227667D-01 9.227667D-01 9.226438D-01 9.221301D-01 9.221301D-01 9.050930D-01
 Beta  virt Sing. vals= 9.001778D-01 9.001778D-01 8.779345D-01 8.520091D-01 8.520091D-01 8.482141D-01 8.482141D-01 8.427786D-01 8.427786D-01 7.956808D-01
 Beta  virt Sing. vals= 7.956808D-01 7.832912D-01 7.406925D-01 4.635723D-01
 Beta  virt NOrbO=   244 NOrbN=   363 NSVal=   232 ThrEig=  0.900000.
 TrMax= 9.999319D-01 PrMax= 9.999465D-01 Trace(Pr)= 2.320000D+02
 Leave Link  804 at Wed Mar  7 01:24:15 2018, MaxMem= 21474836480 cpu:            8956.2 elap:             281.0
 (Enter /home1/apps/gaussian/16rA.03/g16/l913.exe)
 CIDS:  MDV= 21474836480.
 IFCWin=0 IBDFC=1 NFBD=     0     0 NFCmp=     0     0 NFFFC=     0     0
 Amplitudes recovered.
 Using DD4UQ or CC4UQ for all iterations.
 Keep R2 and R3 ints in memory in symmetry-blocked form, NReq=3425144759.
 FoFCou: FMM=F IPFlag=           8 FMFlag=           0 FMFlg1=           0
         NFxFlg=           0 DoJE=F BraDBF=F KetDBF=F FulRan=T
         wScrn=  0.000000 ICntrl=       600 IOpCl=  0 I1Cent=           0 NGrid=           0
         NMat0=    1 NMatS0=  73920 NMatT0=    0 NMatD0=    1 NMtDS0=    0 NMtDT0=    0
 Petite list used in FoFCou.
 CIDS: In Core Option IDoMem=           1.
 CCSD(T)
 =======
 Iterations= 150 Convergence= 0.100D-06
 Produce multiple copies of IABC intergrals
 Iteration Nr.   1
 **********************
 DD1Dir will call FoFMem   1 times, MxPair=       794
 NAB=   266 NAA=   171 NBB=    91.
 Maximum subspace dimension=  5
 A-vector RMS=  1.8737752D-04 Max=  8.0761358D-03 conv= 1.00D-05.
 RLE energy=       -1.3626246830
 DE(Corr)=  -1.3624971     E(Corr)=     -1233.5877593    
 NORM(A)=   0.12295766D+01
 Iteration Nr.   2
 **********************
 DD1Dir will call FoFMem   1 times, MxPair=       794
 NAB=   266 NAA=   171 NBB=    91.
 A-vector RMS=  8.2015256D-05 Max=  2.6705235D-03 conv= 1.00D-05.
 RLE energy=       -1.3628562199
 DE(Corr)=  -1.3628627     E(CORR)=     -1233.5881249     Delta=-3.66D-04
 NORM(A)=   0.12307838D+01
 Iteration Nr.   3
 **********************
 DD1Dir will call FoFMem   1 times, MxPair=       794
 NAB=   266 NAA=   171 NBB=    91.
 A-vector RMS=  8.3163091D-05 Max=  3.1489336D-03 conv= 1.00D-05.
 RLE energy=       -1.3631714005
 DE(Corr)=  -1.3632756     E(CORR)=     -1233.5885379     Delta=-4.13D-04
 NORM(A)=   0.12300454D+01
 Iteration Nr.   4
 **********************
 DD1Dir will call FoFMem   1 times, MxPair=       794
 NAB=   266 NAA=   171 NBB=    91.
 A-vector RMS=  3.6645790D-05 Max=  9.2367164D-04 conv= 1.00D-05.
 RLE energy=       -1.3629365752
 DE(Corr)=  -1.3628552     E(CORR)=     -1233.5881174     Delta= 4.20D-04
 NORM(A)=   0.12299624D+01
 Iteration Nr.   5
 **********************
 DD1Dir will call FoFMem   1 times, MxPair=       794
 NAB=   266 NAA=   171 NBB=    91.
 A-vector RMS=  2.7568552D-05 Max=  9.7993445D-04 conv= 1.00D-05.
 RLE energy=       -1.3630427708
 DE(Corr)=  -1.3631158     E(CORR)=     -1233.5883780     Delta=-2.61D-04
 NORM(A)=   0.12298280D+01
 Iteration Nr.   6
 **********************
 DD1Dir will call FoFMem   1 times, MxPair=       794
 NAB=   266 NAA=   171 NBB=    91.
 A-vector RMS=  1.2687354D-05 Max=  5.0806130D-04 conv= 1.00D-05.
 RLE energy=       -1.3630215141
 DE(Corr)=  -1.3629770     E(CORR)=     -1233.5882392     Delta= 1.39D-04
 NORM(A)=   0.12296753D+01
 Iteration Nr.   7
 **********************
 DD1Dir will call FoFMem   1 times, MxPair=       794
 NAB=   266 NAA=   171 NBB=    91.
 A-vector RMS=  8.3548287D-06 Max=  2.7714904D-04 conv= 1.00D-05.
 RLE energy=       -1.3630126095
 DE(Corr)=  -1.3630221     E(CORR)=     -1233.5882844     Delta=-4.51D-05
 NORM(A)=   0.12296495D+01
 Iteration Nr.   8
 **********************
 DD1Dir will call FoFMem   1 times, MxPair=       794
 NAB=   266 NAA=   171 NBB=    91.
 A-vector RMS=  3.7033119D-06 Max=  1.2213858D-04 conv= 1.00D-05.
 RLE energy=       -1.3630236242
 DE(Corr)=  -1.3630259     E(CORR)=     -1233.5882881     Delta=-3.76D-06
 NORM(A)=   0.12296573D+01
 Iteration Nr.   9
 **********************
 DD1Dir will call FoFMem   1 times, MxPair=       794
 NAB=   266 NAA=   171 NBB=    91.
 A-vector RMS=  2.5552027D-06 Max=  9.1082095D-05 conv= 1.00D-05.
 RLE energy=       -1.3630393487
 DE(Corr)=  -1.3630320     E(CORR)=     -1233.5882942     Delta=-6.07D-06
 NORM(A)=   0.12296421D+01
 Iteration Nr.  10
 **********************
 DD1Dir will call FoFMem   1 times, MxPair=       794
 NAB=   266 NAA=   171 NBB=    91.
 A-vector RMS=  2.8554243D-06 Max=  7.8564807D-05 conv= 1.00D-05.
 RLE energy=       -1.3630242072
 DE(Corr)=  -1.3630211     E(CORR)=     -1233.5882833     Delta= 1.09D-05
 NORM(A)=   0.12296502D+01
 Iteration Nr.  11
 **********************
 DD1Dir will call FoFMem   1 times, MxPair=       794
 NAB=   266 NAA=   171 NBB=    91.
 A-vector RMS=  2.1421880D-06 Max=  6.4303636D-05 conv= 1.00D-05.
 RLE energy=       -1.3630356224
 DE(Corr)=  -1.3630420     E(CORR)=     -1233.5883042     Delta=-2.09D-05
 NORM(A)=   0.12296448D+01
 Iteration Nr.  12
 **********************
 DD1Dir will call FoFMem   1 times, MxPair=       794
 NAB=   266 NAA=   171 NBB=    91.
 A-vector RMS=  1.2791877D-06 Max=  4.9691620D-05 conv= 1.00D-05.
 RLE energy=       -1.3630333606
 DE(Corr)=  -1.3630293     E(CORR)=     -1233.5882915     Delta= 1.27D-05
 NORM(A)=   0.12296401D+01
 Iteration Nr.  13
 **********************
 DD1Dir will call FoFMem   1 times, MxPair=       794
 NAB=   266 NAA=   171 NBB=    91.
 A-vector RMS=  5.5426291D-07 Max=  1.4869683D-05 conv= 1.00D-05.
 RLE energy=       -1.3630330174
 DE(Corr)=  -1.3630341     E(CORR)=     -1233.5882963     Delta=-4.82D-06
 NORM(A)=   0.12296373D+01
 Iteration Nr.  14
 **********************
 DD1Dir will call FoFMem   1 times, MxPair=       794
 NAB=   266 NAA=   171 NBB=    91.
 A-vector RMS=  5.4432990D-07 Max=  1.7243214D-05 conv= 1.00D-05.
 RLE energy=       -1.3630327997
 DE(Corr)=  -1.3630331     E(CORR)=     -1233.5882954     Delta= 9.50D-07
 NORM(A)=   0.12296331D+01
 Iteration Nr.  15
 **********************
 DD1Dir will call FoFMem   1 times, MxPair=       794
 NAB=   266 NAA=   171 NBB=    91.
 A-vector RMS=  3.0186152D-07 Max=  6.4197576D-06 conv= 1.00D-05.
 RLE energy=       -1.3630334052
 DE(Corr)=  -1.3630333     E(CORR)=     -1233.5882956     Delta=-2.05D-07
 NORM(A)=   0.12296303D+01
 Iteration Nr.  16
 **********************
 DD1Dir will call FoFMem   1 times, MxPair=       794
 NAB=   266 NAA=   171 NBB=    91.
 A-vector RMS=  2.6537019D-07 Max=  8.5220104D-06 conv= 1.00D-05.
 RLE energy=       -1.3630317410
 DE(Corr)=  -1.3630320     E(CORR)=     -1233.5882942     Delta= 1.37D-06
 NORM(A)=   0.12296295D+01
 Iteration Nr.  17
 **********************
 DD1Dir will call FoFMem   1 times, MxPair=       794
 NAB=   266 NAA=   171 NBB=    91.
 A-vector RMS=  2.4108692D-07 Max=  5.7013625D-06 conv= 1.00D-05.
 RLE energy=       -1.3630329005
 DE(Corr)=  -1.3630333     E(CORR)=     -1233.5882955     Delta=-1.33D-06
 NORM(A)=   0.12296274D+01
 Iteration Nr.  18
 **********************
 DD1Dir will call FoFMem   1 times, MxPair=       794
 NAB=   266 NAA=   171 NBB=    91.
 A-vector RMS=  2.4420480D-07 Max=  9.5218760D-06 conv= 1.00D-05.
 RLE energy=       -1.3630319909
 DE(Corr)=  -1.3630313     E(CORR)=     -1233.5882935     Delta= 1.99D-06
 NORM(A)=   0.12296268D+01
 Iteration Nr.  19
 **********************
 DD1Dir will call FoFMem   1 times, MxPair=       794
 NAB=   266 NAA=   171 NBB=    91.
 A-vector RMS=  9.3170319D-08 Max=  2.4707924D-06 conv= 1.00D-05.
 RLE energy=       -1.3630319991
 DE(Corr)=  -1.3630323     E(CORR)=     -1233.5882945     Delta=-9.50D-07
 NORM(A)=   0.12296264D+01
 Iteration Nr.  20
 **********************
 DD1Dir will call FoFMem   1 times, MxPair=       794
 NAB=   266 NAA=   171 NBB=    91.
 A-vector RMS=  8.3790421D-08 Max=  2.0940486D-06 conv= 1.00D-05.
 RLE energy=       -1.3630318651
 DE(Corr)=  -1.3630319     E(CORR)=     -1233.5882941     Delta= 4.08D-07
 NORM(A)=   0.12296260D+01
 Iteration Nr.  21
 **********************
 DD1Dir will call FoFMem   1 times, MxPair=       794
 NAB=   266 NAA=   171 NBB=    91.
 A-vector RMS=  4.1312998D-08 Max=  9.6024193D-07 conv= 1.00D-05.
 RLE energy=       -1.3630318969
 DE(Corr)=  -1.3630319     E(CORR)=     -1233.5882941     Delta=-4.18D-08
 NORM(A)=   0.12296258D+01
 CI/CC converged in   21 iterations to DelEn=-4.18D-08 Conv= 1.00D-07 ErrA1= 4.13D-08 Conv= 1.00D-05
 Wavefunction amplitudes converged. E(Corr)=     -1233.5882941    
 Dominant configurations:
 ***********************
 Spin Case        I    J    A    B          Value
    AA           19        20            0.385059D+00
    AA           19        23            0.130422D+00
    AA           19        32           -0.121889D+00
    BB           14        15           -0.143723D+00
    BB           12        42           -0.104578D+00
    BB           13        43           -0.104578D+00
 Largest amplitude= 3.85D-01
 Time for triples=   145778.05 seconds.
 T4(CCSD)= -0.62836482D-01
 T5(CCSD)=  0.18142265D-01
 CCSD(T)= -0.12336329883D+04
 Discarding MO integrals.
 Leave Link  913 at Wed Mar  7 02:53:06 2018, MaxMem= 21474836480 cpu:          169205.2 elap:            5330.8
 (Enter /home1/apps/gaussian/16rA.03/g16/l601.exe)
 Copying SCF densities to generalized density rwf, IOpCl= 0 IROHF=1.

 **********************************************************************

            Population analysis using the SCF density.

 **********************************************************************

 Orbital symmetries:
       Occupied  (SG) (SG) (PI) (PI) (SG) (SG) (SG) (PI) (PI) (SG)
                 (SG) (PI) (PI) (SG) (DLTA) (DLTA) (SG) (PI) (PI)
       Virtual   (SG) (PI) (PI) (SG) (SG) (DLTA) (DLTA) (PI) (PI)
                 (SG) (PI) (PI) (SG) (SG) (SG) (DLTA) (DLTA) (PI)
                 (PI) (PI) (PI) (SG) (PI) (PI) (SG) (SG) (SG) (DLTA)
                 (DLTA) (PHI) (PHI) (PI) (PI) (SG) (DLTA) (DLTA)
                 (PI) (PI) (PI) (PI) (SG) (DLTA) (DLTA) (SG) (PI)
                 (PI) (SG) (SG) (PI) (PI) (DLTA) (DLTA) (PI) (PI)
                 (PHI) (PHI) (SG) (DLTA) (DLTA) (PI) (PI) (?A)
                 (?A) (PHI) (PHI) (SG) (DLTA) (DLTA) (SG) (PI)
                 (PI) (PHI) (PHI) (SG) (DLTA) (DLTA) (PI) (PI)
                 (SG) (PI) (PI) (SG) (DLTA) (DLTA) (SG) (PI) (PI)
                 (SG) (PI) (PI) (DLTA) (DLTA) (PI) (PI) (SG) (PHI)
                 (PHI) (SG) (?A) (?A) (DLTA) (DLTA) (PI) (PI) (SG)
                 (PHI) (PHI) (DLTA) (DLTA) (PHI) (PHI) (PI) (PI)
                 (?B) (?B) (?A) (?A) (SG) (?A) (?A) (PI) (PI) (PHI)
                 (PHI) (SG) (DLTA) (DLTA) (DLTA) (DLTA) (DLTA)
                 (DLTA) (SG) (PHI) (PHI) (PI) (PI) (SG) (PI) (PI)
                 (SG) (PI) (PI) (DLTA) (DLTA) (SG) (PI) (PI) (SG)
                 (SG) (DLTA) (DLTA) (PI) (PI) (SG) (PI) (PI) (PHI)
                 (PHI) (DLTA) (DLTA) (PI) (PI) (SG) (SG) (?A) (?A)
                 (PHI) (PHI) (SG) (DLTA) (DLTA) (PI) (PI) (?A)
                 (?A) (PHI) (PHI) (DLTA) (DLTA) (PI) (PI) (SG)
                 (?B) (?B) (?A) (?A) (PHI) (PHI) (DLTA) (DLTA)
                 (PHI) (PHI) (SG) (PI) (PI) (DLTA) (DLTA) (PI)
                 (PI) (SG) (DLTA) (DLTA) (PI) (PI) (SG) (PI) (PI)
                 (DLTA) (DLTA) (SG) (PI) (PI) (SG) (SG) (SG) (DLTA)
                 (DLTA) (PI) (PI) (SG) (PHI) (PHI) (DLTA) (DLTA)
                 (PI) (PI) (SG) (PI) (PI) (?A) (?A) (PHI) (PHI)
                 (DLTA) (DLTA) (SG) (PI) (PI) (SG) (?B) (?B) (?A)
                 (?A) (PHI) (PHI) (DLTA) (DLTA) (PI) (PI) (SG)
                 (PI) (PI) (SG) (SG) (SG) (DLTA) (DLTA) (PI) (PI)
                 (SG) (DLTA) (DLTA) (PI) (PI) (SG) (PI) (PI) (SG)
                 (PI) (PI) (SG) (DLTA) (DLTA) (PI) (PI) (SG) (SG)
                 (SG) (PHI) (PHI) (DLTA) (DLTA) (PI) (PI) (SG)
                 (DLTA) (DLTA) (PI) (PI) (SG) (PI) (PI) (SG) (PI)
                 (PI) (SG) (SG) (DLTA) (DLTA) (PI) (PI) (SG) (SG)
                 (SG) (PI) (PI) (SG) (PI) (PI) (SG) (DLTA) (DLTA)
                 (PI) (PI) (SG) (SG) (SG) (PI) (PI) (SG) (PI) (PI)
                 (SG) (SG) (DLTA) (DLTA) (PI) (PI) (SG) (SG) (PI)
                 (PI) (SG) (SG) (SG) (PI) (PI) (SG) (SG) (SG) (PI)
                 (PI) (SG) (SG) (SG) (PI) (PI) (SG) (SG) (PI) (PI)
                 (SG) (SG) (SG) (SG) (SG) (SG) (SG)
 The electronic state is 6-SG.
 Alpha  occ. eigenvalues -- -242.51151 -29.61187 -24.96827 -24.96827 -24.96335
 Alpha  occ. eigenvalues --  -20.44834  -4.09490  -2.74995  -2.74995  -2.74380
 Alpha  occ. eigenvalues --   -1.09318  -0.64961  -0.64961  -0.64673  -0.64673
 Alpha  occ. eigenvalues --   -0.61390  -0.33815  -0.33815  -0.33183
 Alpha virt. eigenvalues --   -0.05131   0.01188   0.01188   0.01434   0.03360
 Alpha virt. eigenvalues --    0.05699   0.05699   0.05717   0.05717   0.06379
 Alpha virt. eigenvalues --    0.06902   0.06902   0.11027   0.12610   0.17843
 Alpha virt. eigenvalues --    0.17964   0.17964   0.17987   0.17987   0.20678
 Alpha virt. eigenvalues --    0.20678   0.22604   0.25338   0.25338   0.31807
 Alpha virt. eigenvalues --    0.42706   0.44452   0.45979   0.45979   0.46669
 Alpha virt. eigenvalues --    0.46669   0.48913   0.48913   0.51159   0.51421
 Alpha virt. eigenvalues --    0.51421   0.56470   0.56470   0.61888   0.61888
 Alpha virt. eigenvalues --    0.65953   0.69441   0.69441   0.71599   0.73674
 Alpha virt. eigenvalues --    0.73674   0.86964   1.07477   1.13893   1.13893
 Alpha virt. eigenvalues --    1.31773   1.31773   1.33109   1.33109   1.36454
 Alpha virt. eigenvalues --    1.37816   1.37816   1.38907   1.38907   1.41903
 Alpha virt. eigenvalues --    1.41903   1.43758   1.43758   1.45215   1.45215
 Alpha virt. eigenvalues --    1.49016   1.54105   1.54105   1.60716   1.62474
 Alpha virt. eigenvalues --    1.62474   1.67785   1.67785   1.67880   1.76354
 Alpha virt. eigenvalues --    1.76354   1.83434   1.83434   1.83850   1.98613
 Alpha virt. eigenvalues --    1.98613   2.01595   2.08110   2.08110   2.32295
 Alpha virt. eigenvalues --    2.58593   2.58593   2.66657   3.09751   3.09751
 Alpha virt. eigenvalues --    3.22054   3.22054   3.26289   3.26289   3.32960
 Alpha virt. eigenvalues --    3.72640   3.73391   3.73391   3.79505   3.79505
 Alpha virt. eigenvalues --    3.80095   3.80095   3.84267   3.84267   3.93673
 Alpha virt. eigenvalues --    3.93673   3.95025   3.97261   3.97261   4.22871
 Alpha virt. eigenvalues --    4.22871   4.23207   4.23207   4.24959   4.24959
 Alpha virt. eigenvalues --    4.25316   4.25316   4.30304   4.30602   4.30602
 Alpha virt. eigenvalues --    4.33034   4.33034   4.34158   4.34158   4.39957
 Alpha virt. eigenvalues --    4.44627   4.44627   4.49004   4.49004   4.58095
 Alpha virt. eigenvalues --    4.58797   4.58797   4.63617   4.63617   4.76140
 Alpha virt. eigenvalues --    4.76140   4.78733   5.17122   5.17122   5.28648
 Alpha virt. eigenvalues --    5.32322   5.32322   5.42594   5.42594   5.59848
 Alpha virt. eigenvalues --    6.23457   6.23457   6.31539   6.62449   6.94427
 Alpha virt. eigenvalues --    6.94427   7.09739   7.09739   7.53816   9.51255
 Alpha virt. eigenvalues --    9.51255   9.96375   9.96375  10.02360  10.02360
 Alpha virt. eigenvalues --   10.24308  10.24308  10.32591  10.77793  10.81712
 Alpha virt. eigenvalues --   10.81712  10.87739  10.87739  11.02075  11.06241
 Alpha virt. eigenvalues --   11.06241  11.14512  11.14512  11.16536  11.16536
 Alpha virt. eigenvalues --   11.18123  11.18123  11.29031  11.29031  11.44036
 Alpha virt. eigenvalues --   11.44036  11.72175  11.86019  11.86019  11.87220
 Alpha virt. eigenvalues --   11.87220  11.95013  11.95013  12.02580  12.02580
 Alpha virt. eigenvalues --   12.07282  12.07282  12.14541  12.23004  12.23004
 Alpha virt. eigenvalues --   12.28681  12.28681  12.72104  12.72104  12.80323
 Alpha virt. eigenvalues --   12.90931  12.90931  13.13341  13.13341  13.21131
 Alpha virt. eigenvalues --   13.39573  13.39573  13.39970  13.39970  13.51387
 Alpha virt. eigenvalues --   13.53856  13.53856  13.82981  14.26343  15.27154
 Alpha virt. eigenvalues --   23.91354  23.91354  23.98593  23.98593  24.15969
 Alpha virt. eigenvalues --   24.81250  24.81250  24.85916  24.85916  25.03741
 Alpha virt. eigenvalues --   25.03741  25.46487  27.29857  27.29857  27.29954
 Alpha virt. eigenvalues --   27.29954  27.30955  27.30955  27.36126  27.36126
 Alpha virt. eigenvalues --   27.60671  27.67392  27.67392  28.48154  30.69038
 Alpha virt. eigenvalues --   30.69038  30.69433  30.69433  30.72365  30.72365
 Alpha virt. eigenvalues --   30.81688  30.81688  30.85350  30.85350  30.86628
 Alpha virt. eigenvalues --   30.93910  30.93910  31.23113  32.96149  36.18739
 Alpha virt. eigenvalues --   40.75849  40.75849  40.82875  40.82875  41.02281
 Alpha virt. eigenvalues --   47.18386  47.18386  47.39971  47.39971  47.68128
 Alpha virt. eigenvalues --   66.93065  66.93065  67.77622  69.33081  69.33081
 Alpha virt. eigenvalues --   69.63359  70.58060  70.58060  70.64423  70.64423
 Alpha virt. eigenvalues --   70.82930  78.71394  79.18331 103.13856 103.13856
 Alpha virt. eigenvalues --  103.13883 103.13883 103.16837 103.16837 103.18656
 Alpha virt. eigenvalues --  138.96024 138.96024 139.01324 139.01324 139.16353
 Alpha virt. eigenvalues --  146.43260 146.43260 147.20213 151.20809 151.20809
 Alpha virt. eigenvalues --  151.47180 153.07103 197.29650 197.29650 197.41371
 Alpha virt. eigenvalues --  197.41371 197.54575 197.84770 279.90417 306.66478
 Alpha virt. eigenvalues --  306.66478 307.39659 325.83332 325.83332 326.08012
 Alpha virt. eigenvalues --  334.75918 334.75918 334.79885 334.79885 334.91726
 Alpha virt. eigenvalues --  486.95522 501.30509 630.43548 630.43548 631.09720
 Alpha virt. eigenvalues --  703.50157 703.50157 703.71706 912.978961048.67834
 Alpha virt. eigenvalues -- 1048.678341048.702841048.702841048.776601147.93118
 Alpha virt. eigenvalues -- 1538.334351538.334351538.517611892.303572599.97490
 Alpha virt. eigenvalues -- 3426.152683426.152683426.300304901.870075670.28671
 Alpha virt. eigenvalues -- 7771.397127771.397127771.50391********************
 Alpha virt. eigenvalues -- **************************************************
 Alpha virt. eigenvalues -- **************************************************
 Alpha virt. eigenvalues -- ******************************
     Molecular Orbital Coefficients:
                          10        11        12        13        14
                           O         O         O         O         O
     Eigenvalues --    -2.74380  -1.09318  -0.64961  -0.64961  -0.64673
   1 1   Mn 1S         -0.00000  -0.00000   0.00000   0.00000  -0.00000
   2        2S         -0.00000  -0.00000   0.00000   0.00000  -0.00000
   3        3S         -0.00000  -0.00000   0.00000   0.00000  -0.00001
   4        4S         -0.00000  -0.00001   0.00000   0.00000  -0.00002
   5        5S         -0.00001  -0.00002   0.00000   0.00000  -0.00005
   6        6S         -0.00002  -0.00004   0.00000   0.00000  -0.00012
   7        7S         -0.00005  -0.00011   0.00000   0.00000  -0.00030
   8        8S         -0.00011  -0.00027   0.00000   0.00000  -0.00073
   9        9S         -0.00028  -0.00064   0.00000   0.00000  -0.00175
  10       10S         -0.00060  -0.00141   0.00000   0.00000  -0.00388
  11       11S         -0.00119  -0.00275   0.00000   0.00000  -0.00751
  12       12S         -0.00173  -0.00410   0.00000   0.00000  -0.01138
  13       13S         -0.00137  -0.00308   0.00000   0.00000  -0.00826
  14       14S          0.00281   0.00625   0.00000   0.00000   0.01668
  15       15S          0.00888   0.02184   0.00000   0.00000   0.06236
  16       16S          0.01351   0.02862   0.00000   0.00000   0.07257
  17       17S         -0.01340  -0.02955   0.00000   0.00000  -0.07285
  18       18S         -0.04542  -0.09941   0.00000   0.00000  -0.23158
  19       19S          0.00937  -0.02321   0.00000   0.00000  -0.13303
  20       20S          0.00773   0.04131   0.00000   0.00000   0.25130
  21       21S         -0.00183  -0.01540   0.00000   0.00000   0.21742
  22       22S          0.00222   0.00094   0.00000   0.00000   0.03337
  23       23S         -0.00331  -0.00433   0.00000   0.00000  -0.00698
  24       24S          0.02054   0.03920   0.00000   0.00000   0.05897
  25       25S         -0.00062  -0.00016   0.00000   0.00000  -0.00030
  26       26PX         0.00000   0.00000   0.00000   0.00000   0.00000
  27       26PY         0.00000   0.00000   0.00000   0.00000   0.00000
  28       26PZ        -0.00002  -0.00000   0.00000   0.00000  -0.00000
  29       27PX         0.00000   0.00000   0.00000   0.00000   0.00000
  30       27PY         0.00000   0.00000   0.00000   0.00000   0.00000
  31       27PZ        -0.00007  -0.00001   0.00000   0.00000  -0.00001
  32       28PX         0.00000   0.00000   0.00002   0.00000   0.00000
  33       28PY         0.00000   0.00000   0.00000   0.00002   0.00000
  34       28PZ        -0.00028  -0.00003   0.00000   0.00000  -0.00002
  35       29PX         0.00000   0.00000   0.00007   0.00000   0.00000
  36       29PY         0.00000   0.00000   0.00000   0.00007   0.00000
  37       29PZ        -0.00109  -0.00010   0.00000   0.00000  -0.00008
  38       30PX         0.00000   0.00000   0.00025   0.00000   0.00000
  39       30PY         0.00000   0.00000   0.00000   0.00025   0.00000
  40       30PZ        -0.00382  -0.00035   0.00000   0.00000  -0.00030
  41       31PX         0.00000   0.00000   0.00075   0.00000   0.00000
  42       31PY         0.00000   0.00000   0.00000   0.00075   0.00000
  43       31PZ        -0.01175  -0.00109   0.00000   0.00000  -0.00091
  44       32PX         0.00000   0.00000   0.00205   0.00000   0.00000
  45       32PY         0.00000   0.00000   0.00000   0.00205   0.00000
  46       32PZ        -0.03138  -0.00292   0.00000   0.00000  -0.00248
  47       33PX         0.00000   0.00000   0.00440   0.00000   0.00000
  48       33PY         0.00000   0.00000   0.00000   0.00440   0.00000
  49       33PZ        -0.06842  -0.00637   0.00000   0.00000  -0.00529
  50       34PX         0.00000   0.00000   0.00769   0.00000   0.00000
  51       34PY         0.00000   0.00000   0.00000   0.00769   0.00000
  52       34PZ        -0.11665  -0.01089   0.00000   0.00000  -0.00935
  53       35PX         0.00000   0.00000   0.00887   0.00000   0.00000
  54       35PY         0.00000   0.00000   0.00000   0.00887   0.00000
  55       35PZ        -0.13863  -0.01299   0.00000   0.00000  -0.01054
  56       36PX         0.00000   0.00000   0.00071   0.00000   0.00000
  57       36PY         0.00000   0.00000   0.00000   0.00071   0.00000
  58       36PZ        -0.01849  -0.00179   0.00000   0.00000   0.00106
  59       37PX         0.00000   0.00000  -0.01541   0.00000   0.00000
  60       37PY         0.00000   0.00000   0.00000  -0.01541   0.00000
  61       37PZ         0.19401   0.02004   0.00000   0.00000   0.01908
  62       38PX         0.00000   0.00000  -0.01419   0.00000   0.00000
  63       38PY         0.00000   0.00000   0.00000  -0.01419   0.00000
  64       38PZ         0.20288   0.02082   0.00000   0.00000   0.01623
  65       39PX         0.00000   0.00000  -0.03477   0.00000   0.00000
  66       39PY         0.00000   0.00000   0.00000  -0.03477   0.00000
  67       39PZ         0.37775   0.04230   0.00000   0.00000   0.04399
  68       40PX         0.00000   0.00000  -0.00837   0.00000   0.00000
  69       40PY         0.00000   0.00000   0.00000  -0.00837   0.00000
  70       40PZ         0.16017   0.00914   0.00000   0.00000  -0.00129
  71       41PX         0.00000   0.00000   0.05331   0.00000   0.00000
  72       41PY         0.00000   0.00000   0.00000   0.05331   0.00000
  73       41PZ         0.01171  -0.01303   0.00000   0.00000  -0.03025
  74       42PX         0.00000   0.00000   0.06346   0.00000   0.00000
  75       42PY         0.00000   0.00000   0.00000   0.06346   0.00000
  76       42PZ        -0.00357   0.00546   0.00000   0.00000   0.00011
  77       43PX         0.00000   0.00000   0.00395   0.00000   0.00000
  78       43PY         0.00000   0.00000   0.00000   0.00395   0.00000
  79       43PZ         0.00013   0.00198   0.00000   0.00000   0.00443
  80       44PX         0.00000   0.00000   0.00252   0.00000   0.00000
  81       44PY         0.00000   0.00000   0.00000   0.00252   0.00000
  82       44PZ        -0.03037  -0.00245   0.00000   0.00000  -0.00509
  83       45PX         0.00000   0.00000  -0.01475   0.00000   0.00000
  84       45PY         0.00000   0.00000   0.00000  -0.01475   0.00000
  85       45PZ         0.20400   0.02075   0.00000   0.00000   0.01840
  86       46PX         0.00000   0.00000  -0.00053   0.00000   0.00000
  87       46PY         0.00000   0.00000   0.00000  -0.00053   0.00000
  88       46PZ        -0.00007  -0.00065   0.00000   0.00000  -0.00101
  89       47D 0        0.00001   0.00002   0.00000   0.00000   0.00007
  90       47D+1        0.00000   0.00000  -0.00004   0.00000   0.00000
  91       47D-1        0.00000   0.00000   0.00000  -0.00004   0.00000
  92       47D+2       -0.00000   0.00000   0.00000   0.00000   0.00000
  93       47D-2        0.00000   0.00000   0.00000   0.00000   0.00000
  94       48D 0        0.00006   0.00017   0.00000   0.00000   0.00063
  95       48D+1        0.00000   0.00000  -0.00039   0.00000   0.00000
  96       48D-1        0.00000   0.00000   0.00000  -0.00039   0.00000
  97       48D+2        0.00000   0.00000   0.00000   0.00000   0.00000
  98       48D-2        0.00000   0.00000   0.00000   0.00000   0.00000
  99       49D 0        0.00030   0.00088   0.00000   0.00000   0.00315
 100       49D+1        0.00000   0.00000  -0.00195   0.00000   0.00000
 101       49D-1        0.00000   0.00000   0.00000  -0.00195   0.00000
 102       49D+2       -0.00000   0.00000   0.00000   0.00000   0.00000
 103       49D-2        0.00000   0.00000   0.00000   0.00000   0.00000
 104       50D 0        0.00099   0.00290   0.00000   0.00000   0.01055
 105       50D+1        0.00000   0.00000  -0.00654   0.00000   0.00000
 106       50D-1        0.00000   0.00000   0.00000  -0.00654   0.00000
 107       50D+2        0.00000   0.00000   0.00000   0.00000   0.00000
 108       50D-2        0.00000   0.00000   0.00000   0.00000   0.00000
 109       51D 0        0.00268   0.00755   0.00000   0.00000   0.02632
 110       51D+1        0.00000   0.00000  -0.01612   0.00000   0.00000
 111       51D-1        0.00000   0.00000   0.00000  -0.01612   0.00000
 112       51D+2        0.00000   0.00000   0.00000   0.00000   0.00000
 113       51D-2        0.00000   0.00000   0.00000   0.00000   0.00000
 114       52D 0        0.00625   0.01511   0.00000   0.00000   0.04519
 115       52D+1        0.00000   0.00000  -0.02756   0.00000   0.00000
 116       52D-1        0.00000   0.00000   0.00000  -0.02756   0.00000
 117       52D+2        0.00000   0.00000   0.00000   0.00000   0.00000
 118       52D-2        0.00000   0.00000   0.00000   0.00000   0.00000
 119       53D 0        0.00815   0.01825   0.00000   0.00000   0.06002
 120       53D+1        0.00000   0.00000  -0.03733   0.00000   0.00000
 121       53D-1        0.00000   0.00000   0.00000  -0.03733   0.00000
 122       53D+2        0.00000   0.00000   0.00000   0.00000   0.00000
 123       53D-2        0.00000   0.00000   0.00000   0.00000   0.00000
 124       54D 0        0.00834   0.02022   0.00000   0.00000   0.06711
 125       54D+1        0.00000   0.00000  -0.04090   0.00000   0.00000
 126       54D-1        0.00000   0.00000   0.00000  -0.04090   0.00000
[...]
 172       62F-3       -0.00000  -0.00000   0.00000  -0.00000
 173       63F 0        0.00061   0.00038   0.00023   0.00015
 174       63F+1        0.00037   0.00026   0.00011   0.00016
 175       63F-1        0.00037   0.00026   0.00011   0.00016
 176       63F+2        0.00006   0.00006  -0.00000   0.00006
 177       63F-2        0.00006   0.00006   0.00000   0.00006
 178       63F+3        0.00000   0.00000   0.00000  -0.00000
 179       63F-3        0.00000   0.00000   0.00000   0.00000
 180       64F 0        0.00510   0.00303   0.00207   0.00097
 181       64F+1        0.00721   0.00432   0.00288   0.00144
 182       64F-1        0.00721   0.00432   0.00288   0.00144
 183       64F+2        0.00025   0.00025  -0.00000   0.00025
 184       64F-2        0.00025   0.00025   0.00000   0.00025
 185       64F+3        0.00000   0.00000   0.00000   0.00000
 186       64F-3        0.00000   0.00000   0.00000   0.00000
 187       65F 0       -0.00043  -0.00011  -0.00032   0.00021
 188       65F+1        0.00372   0.00229   0.00143   0.00086
 189       65F-1        0.00372   0.00229   0.00143   0.00086
 190       65F+2        0.00006   0.00006  -0.00000   0.00006
 191       65F-2        0.00006   0.00006  -0.00000   0.00006
 192       65F+3        0.00000   0.00000  -0.00000   0.00000
 193       65F-3        0.00000   0.00000   0.00000   0.00000
 194       66G 0        0.00000   0.00000   0.00000   0.00000
 195       66G+1        0.00000   0.00000   0.00000   0.00000
 196       66G-1        0.00000   0.00000   0.00000   0.00000
 197       66G+2       -0.00000  -0.00000   0.00000  -0.00000
 198       66G-2       -0.00000  -0.00000   0.00000  -0.00000
 199       66G+3        0.00000   0.00000  -0.00000   0.00000
 200       66G-3        0.00000   0.00000  -0.00000   0.00000
 201       66G+4        0.00000   0.00000  -0.00000   0.00000
 202       66G-4        0.00000   0.00000  -0.00000   0.00000
 203       67G 0        0.00000   0.00000   0.00000   0.00000
 204       67G+1        0.00000   0.00000   0.00000   0.00000
 205       67G-1        0.00000   0.00000   0.00000   0.00000
 206       67G+2        0.00000   0.00000  -0.00000   0.00000
 207       67G-2        0.00000   0.00000  -0.00000   0.00000
 208       67G+3       -0.00000  -0.00000  -0.00000  -0.00000
 209       67G-3       -0.00000  -0.00000   0.00000  -0.00000
 210       67G+4        0.00000   0.00000   0.00000   0.00000
 211       67G-4        0.00000   0.00000   0.00000   0.00000
 212       68G 0        0.00023   0.00012   0.00011   0.00001
 213       68G+1        0.00024   0.00013   0.00011   0.00003
 214       68G-1        0.00024   0.00013   0.00011   0.00003
 215       68G+2        0.00000   0.00000   0.00000   0.00000
 216       68G-2        0.00000   0.00000  -0.00000   0.00000
 217       68G+3       -0.00000  -0.00000  -0.00000  -0.00000
 218       68G-3        0.00000   0.00000  -0.00000   0.00000
 219       68G+4        0.00000   0.00000  -0.00000   0.00000
 220       68G-4        0.00000   0.00000  -0.00000   0.00000
 221       69G 0        0.00061   0.00033   0.00028   0.00005
 222       69G+1        0.00209   0.00115   0.00094   0.00021
 223       69G-1        0.00209   0.00115   0.00094   0.00021
 224       69G+2        0.00000   0.00000   0.00000   0.00000
 225       69G-2        0.00000   0.00000   0.00000   0.00000
 226       69G+3       -0.00000  -0.00000  -0.00000   0.00000
 227       69G-3        0.00000   0.00000   0.00000   0.00000
 228       69G+4       -0.00000  -0.00000  -0.00000   0.00000
 229       69G-4        0.00000   0.00000  -0.00000   0.00000
 230       70H 0        0.00000   0.00000   0.00000   0.00000
 231       70H+1        0.00000   0.00000   0.00000  -0.00000
 232       70H-1        0.00000   0.00000   0.00000  -0.00000
 233       70H+2        0.00000   0.00000  -0.00000   0.00000
 234       70H-2        0.00000   0.00000   0.00000   0.00000
 235       70H+3        0.00000   0.00000   0.00000   0.00000
 236       70H-3        0.00000   0.00000   0.00000   0.00000
 237       70H+4        0.00000   0.00000   0.00000   0.00000
 238       70H-4        0.00000   0.00000   0.00000   0.00000
 239       70H+5        0.00000   0.00000  -0.00000   0.00000
 240       70H-5        0.00000  -0.00000   0.00000  -0.00000
 241       71H 0        0.00000   0.00000   0.00000   0.00000
 242       71H+1        0.00000   0.00000   0.00000   0.00000
 243       71H-1        0.00000   0.00000   0.00000   0.00000
 244       71H+2       -0.00000  -0.00000   0.00000  -0.00000
 245       71H-2       -0.00000  -0.00000   0.00000  -0.00000
 246       71H+3       -0.00000  -0.00000  -0.00000  -0.00000
 247       71H-3        0.00000   0.00000   0.00000   0.00000
 248       71H+4       -0.00000  -0.00000  -0.00000  -0.00000
 249       71H-4        0.00000   0.00000   0.00000   0.00000
 250       71H+5       -0.00000  -0.00000   0.00000  -0.00000
 251       71H-5       -0.00000  -0.00000  -0.00000   0.00000
 252       72H 0        0.00012   0.00006   0.00006  -0.00000
 253       72H+1        0.00012   0.00006   0.00006   0.00000
 254       72H-1        0.00012   0.00006   0.00006   0.00000
 255       72H+2        0.00000   0.00000  -0.00000   0.00000
 256       72H-2        0.00000   0.00000  -0.00000   0.00000
 257       72H+3        0.00000  -0.00000   0.00000  -0.00000
 258       72H-3       -0.00000   0.00000  -0.00000   0.00000
 259       72H+4        0.00000  -0.00000   0.00000  -0.00000
 260       72H-4        0.00000   0.00000   0.00000   0.00000
 261       72H+5       -0.00000  -0.00000   0.00000  -0.00000
 262       72H-5       -0.00000  -0.00000  -0.00000   0.00000
 263 2   O  1S          0.00001   0.00000   0.00000   0.00000
 264        2S          0.00009   0.00004   0.00004   0.00000
 265        3S          0.00107   0.00054   0.00054   0.00000
 266        4S          0.00930   0.00465   0.00465   0.00000
 267        5S          0.05613   0.02807   0.02807   0.00000
 268        6S          0.22323   0.11162   0.11161   0.00001
 269        7S          0.56337   0.28170   0.28167   0.00003
 270        8S          0.72375   0.36188   0.36188  -0.00000
 271        9S          0.30351   0.15174   0.15177  -0.00003
 272       10S          0.41033   0.20527   0.20505   0.00022
 273       11S          1.01427   0.50731   0.50696   0.00035
 274       12S          0.55082   0.27570   0.27512   0.00058
 275       13S          0.04902   0.02451   0.02452  -0.00001
 276       14S          0.02771   0.01385   0.01386  -0.00001
 277       15S          0.00552   0.00276   0.00276  -0.00000
 278       16S          0.04652   0.02158   0.02494  -0.00336
 279       17PX        -0.00034  -0.00017  -0.00017  -0.00001
 280       17PY        -0.00034  -0.00017  -0.00017  -0.00001
 281       17PZ        -0.00026  -0.00013  -0.00013  -0.00000
 282       18PX        -0.11229  -0.05718  -0.05511  -0.00207
 283       18PY        -0.11229  -0.05718  -0.05511  -0.00207
 284       18PZ        -0.08786  -0.04399  -0.04387  -0.00012
 285       19PX         0.13856   0.07057   0.06799   0.00258
 286       19PY         0.13856   0.07057   0.06799   0.00258
 287       19PZ         0.10482   0.05263   0.05219   0.00044
 288       20PX         0.46625   0.23720   0.22904   0.00816
 289       20PY         0.46625   0.23720   0.22904   0.00816
 290       20PZ         0.36283   0.18193   0.18090   0.00103
 291       21PX         0.69051   0.34965   0.34086   0.00880
 292       21PY         0.69051   0.34965   0.34086   0.00880
 293       21PZ         0.55658   0.27842   0.27816   0.00026
 294       22PX         0.45920   0.23149   0.22772   0.00377
 295       22PY         0.45920   0.23149   0.22772   0.00377
 296       22PZ         0.35465   0.18037   0.17429   0.00608
 297       23PX         0.13019   0.06629   0.06389   0.00240
 298       23PY         0.13019   0.06629   0.06389   0.00240
 299       23PZ         0.10142   0.05080   0.05062   0.00017
 300       24PX         0.00184   0.00094   0.00091   0.00003
 301       24PY         0.00184   0.00094   0.00091   0.00003
 302       24PZ         0.00141   0.00071   0.00070   0.00000
 303       25PX         0.00013   0.00006   0.00006   0.00000
 304       25PY         0.00013   0.00006   0.00006   0.00000
 305       25PZ         0.00010   0.00005   0.00005   0.00000
 306       26PX         0.05852   0.02998   0.02854   0.00144
 307       26PY         0.05852   0.02998   0.02854   0.00144
 308       26PZ         0.05169   0.02786   0.02383   0.00403
 309       27D 0        0.00005   0.00003   0.00002   0.00000
 310       27D+1        0.00003   0.00002   0.00002   0.00000
 311       27D-1        0.00003   0.00002   0.00002   0.00000
 312       27D+2        0.00000   0.00000  -0.00000   0.00000
 313       27D-2        0.00000   0.00000   0.00000   0.00000
 314       28D 0        0.00102   0.00061   0.00040   0.00021
 315       28D+1        0.00057   0.00032   0.00026   0.00006
 316       28D-1        0.00057   0.00032   0.00026   0.00006
 317       28D+2        0.00001   0.00001  -0.00000   0.00001
 318       28D-2        0.00001   0.00001  -0.00000   0.00001
 319       29D 0        0.00380   0.00210   0.00171   0.00039
 320       29D+1        0.00402   0.00216   0.00186   0.00030
 321       29D-1        0.00402   0.00216   0.00186   0.00030
 322       29D+2        0.00008   0.00008  -0.00000   0.00008
 323       29D-2        0.00008   0.00008   0.00000   0.00008
 324       30D 0        0.00000   0.00000   0.00000   0.00000
 325       30D+1        0.00000   0.00000   0.00000   0.00000
 326       30D-1        0.00000   0.00000   0.00000   0.00000
 327       30D+2        0.00000   0.00000   0.00000   0.00000
 328       30D-2        0.00000   0.00000  -0.00000   0.00000
 329       31D 0        0.00000   0.00000   0.00000  -0.00000
 330       31D+1        0.00000   0.00000   0.00000  -0.00000
 331       31D-1        0.00000   0.00000   0.00000  -0.00000
 332       31D+2       -0.00000  -0.00000  -0.00000  -0.00000
 333       31D-2       -0.00000  -0.00000  -0.00000  -0.00000
 334       32D 0        0.00161   0.00089   0.00072   0.00018
 335       32D+1        0.00396   0.00183   0.00213  -0.00030
 336       32D-1        0.00396   0.00183   0.00213  -0.00030
 337       32D+2        0.00006   0.00006  -0.00000   0.00006
 338       32D-2        0.00006   0.00006   0.00000   0.00006
 339       33F 0        0.00001   0.00001   0.00000   0.00000
 340       33F+1        0.00001   0.00000   0.00000   0.00000
 341       33F-1        0.00001   0.00000   0.00000   0.00000
 342       33F+2        0.00000   0.00000   0.00000   0.00000
 343       33F-2        0.00000   0.00000   0.00000   0.00000
 344       33F+3        0.00000  -0.00000   0.00000  -0.00000
 345       33F-3       -0.00000   0.00000  -0.00000   0.00000
 346       34F 0        0.00048   0.00034   0.00015   0.00019
 347       34F+1        0.00036   0.00023   0.00013   0.00011
 348       34F-1        0.00036   0.00023   0.00013   0.00011
 349       34F+2        0.00002   0.00002  -0.00000   0.00002
 350       34F-2        0.00002   0.00002  -0.00000   0.00002
 351       34F+3       -0.00000  -0.00000  -0.00000   0.00000
 352       34F-3        0.00000   0.00000   0.00000  -0.00000
 353       35F 0        0.00000   0.00000   0.00000   0.00000
 354       35F+1        0.00000   0.00000   0.00000   0.00000
 355       35F-1        0.00000   0.00000   0.00000   0.00000
 356       35F+2        0.00000   0.00000  -0.00000   0.00000
 357       35F-2        0.00000   0.00000  -0.00000   0.00000
 358       35F+3        0.00000   0.00000  -0.00000   0.00000
 359       35F-3        0.00000  -0.00000   0.00000  -0.00000
 360       36F 0       -0.00079  -0.00048  -0.00031  -0.00017
 361       36F+1        0.00069   0.00037   0.00031   0.00006
 362       36F-1        0.00069   0.00037   0.00031   0.00006
 363       36F+2        0.00005   0.00005   0.00000   0.00005
 364       36F-2        0.00005   0.00005   0.00000   0.00005
 365       36F+3        0.00000   0.00000   0.00000   0.00000
 366       36F-3        0.00000   0.00000   0.00000  -0.00000
 367       37G 0        0.00001   0.00001   0.00000   0.00000
 368       37G+1        0.00001   0.00000   0.00000   0.00000
 369       37G-1        0.00001   0.00000   0.00000   0.00000
 370       37G+2        0.00000   0.00000   0.00000   0.00000
 371       37G-2        0.00000   0.00000   0.00000   0.00000
 372       37G+3        0.00000   0.00000   0.00000   0.00000
 373       37G-3        0.00000   0.00000   0.00000  -0.00000
 374       37G+4        0.00000   0.00000   0.00000  -0.00000
 375       37G-4        0.00000   0.00000   0.00000   0.00000
 376       38G 0        0.00009   0.00007   0.00002   0.00005
 377       38G+1        0.00014   0.00011   0.00004   0.00007
 378       38G-1        0.00014   0.00011   0.00004   0.00007
 379       38G+2        0.00002   0.00002   0.00000   0.00002
 380       38G-2        0.00002   0.00002  -0.00000   0.00002
 381       38G+3        0.00000   0.00000   0.00000   0.00000
 382       38G-3        0.00000   0.00000   0.00000   0.00000
 383       38G+4        0.00000   0.00000  -0.00000   0.00000
 384       38G-4       -0.00000  -0.00000  -0.00000  -0.00000
          Condensed to atoms (all electrons):
               1          2
     1  Mn  23.585472   0.293034
     2  O    0.293034   8.828460
          Atomic-Atomic Spin Densities.
               1          2
     1  Mn   4.960788  -0.022632
     2  O   -0.022632   0.084477
 Mulliken charges and spin densities:
               1          2
     1  Mn   1.121494   4.938155
     2  O   -1.121494   0.061845
 Sum of Mulliken charges =  -0.00000   5.00000
 Mulliken charges and spin densities with hydrogens summed into heavy atoms:
               1          2
     1  Mn   1.121494   4.938155
     2  O   -1.121494   0.061845
 Electronic spatial extent (au):  <R**2>=            117.4503
 Charge=             -0.0000 electrons
 Dipole moment (field-independent basis, Debye):
    X=              0.0000    Y=              0.0000    Z=              9.4041  Tot=              9.4041
 Quadrupole moment (field-independent basis, Debye-Ang):
   XX=            -19.3834   YY=            -19.3834   ZZ=            -24.8905
   XY=              0.0000   XZ=              0.0000   YZ=              0.0000
 Traceless Quadrupole moment (field-independent basis, Debye-Ang):
   XX=              1.8357   YY=              1.8357   ZZ=             -3.6714
   XY=              0.0000   XZ=              0.0000   YZ=              0.0000
 Octapole moment (field-independent basis, Debye-Ang**2):
  XXX=              0.0000  YYY=              0.0000  ZZZ=             26.8408  XYY=              0.0000
  XXY=              0.0000  XXZ=              6.4393  XZZ=              0.0000  YZZ=              0.0000
  YYZ=              6.4393  XYZ=              0.0000
 Hexadecapole moment (field-independent basis, Debye-Ang**3):
 XXXX=            -23.6028 YYYY=            -23.6028 ZZZZ=           -120.9309 XXXY=              0.0000
 XXXZ=              0.0000 YYYX=              0.0000 YYYZ=              0.0000 ZZZX=              0.0000
 ZZZY=              0.0000 XXYY=             -7.8676 XXZZ=            -23.2464 YYZZ=            -23.2464
 XXYZ=              0.0000 YYXZ=              0.0000 ZZXY=              0.0000
 N-N= 5.879746788000D+01 E-N=-3.095233667377D+03  KE= 1.277915399108D+03
 Symmetry A1   KE= 9.924049784299D+02
 Symmetry A2   KE= 6.360609007496D+00
 Symmetry B1   KE= 1.395749057974D+02
 Symmetry B2   KE= 1.395749058762D+02
 Symmetry A1   SP= 2.000000000000D+00
 Symmetry A2   SP= 1.000000000000D+00
 Symmetry B1   SP= 1.000000000000D+00
 Symmetry B2   SP= 1.000000000000D+00
 Orbital energies and kinetic energies (alpha):
                                 1                 2
  10         O                -2.743805          9.935076
  11         O                -1.093179          2.988262
  12         O                -0.649615          2.035013
  13         O                -0.649615          2.035013
  14         O                -0.646731          2.269597
  15         O                -0.646731          6.360609
  16         O                -0.613900          6.360609
  17         O                -0.338149          5.844849
  18         O                -0.338149          6.441036
  19         O                -0.331831          6.441036
  20         V                -0.051311          0.683517
  21         V                 0.011883          0.091673
  22         V                 0.011883          0.091673
  23         V                 0.014341          0.231526
  24         V                 0.033595          0.049684
 Total kinetic energy from orbitals= 1.309363539423D+03
 FoFCou: FMM=F IPFlag=           8 FMFlag=           0 FMFlg1=           0
         NFxFlg=           0 DoJE=F BraDBF=T KetDBF=F FulRan=T
         wScrn=  0.000000 ICntrl=   2000500 IOpCl=  0 I1Cent=           5 NGrid=           0
         NMat0=    1 NMatS0=      1 NMatT0=    0 NMatD0=    1 NMtDS0=    0 NMtDT0=    0
 Symmetry not used in FoFCou.
                          Isotropic Fermi Contact Couplings
        Atom                 a.u.       MegaHertz       Gauss      10(-4) cm-1
     1  Mn(55)             1.47975     327.12908     116.72779     109.11851
     2  O(17)              0.01108      -1.34360      -0.47943      -0.44818
 --------------------------------------------------------
       Center         ----  Spin Dipole Couplings  ----
                      3XX-RR        3YY-RR        3ZZ-RR
 --------------------------------------------------------
     1   Atom        0.168885      0.168885     -0.337770
     2   Atom       -0.064785     -0.064785      0.129570
 --------------------------------------------------------
                        XY            XZ            YZ
 --------------------------------------------------------
     1   Atom        0.000000      0.000000      0.000000
     2   Atom        0.000000      0.000000      0.000000
 --------------------------------------------------------


 ---------------------------------------------------------------------------------
              Anisotropic Spin Dipole Couplings in Principal Axis System
 ---------------------------------------------------------------------------------

       Atom             a.u.   MegaHertz   Gauss  10(-4) cm-1        Axes

              Baa    -0.3378   -44.566   -15.902   -14.866  0.0000  0.0000  1.0000
     1 Mn(55) Bbb     0.1689    22.283     7.951     7.433  1.0000  0.0000  0.0000
              Bcc     0.1689    22.283     7.951     7.433 -0.0000  1.0000  0.0000
 
              Baa    -0.0648     4.688     1.673     1.564  1.0000  0.0000  0.0000
     2 O(17)  Bbb    -0.0648     4.688     1.673     1.564 -0.0000  1.0000  0.0000
              Bcc     0.1296    -9.376    -3.345    -3.127  0.0000  0.0000  1.0000
 

 ---------------------------------------------------------------------------------

 No NMR shielding tensors so no spin-rotation constants.
 Leave Link  601 at Wed Mar  7 02:53:10 2018, MaxMem= 21474836480 cpu:              40.5 elap:               1.4
 (Enter /home1/apps/gaussian/16rA.03/g16/l9999.exe)
 1\1\GINC-C504-103\SP\ROCCSD(T)-Full\Gen\Mn1O1(6)\AANNABE\07-Mar-2018\0
 \\#P ROCCSD(T)=(maxcyc=150, Full, SaveAmplitudes, ReadAmplitudes)/Gen 
 5d 7f SCF=(maxcycles=300) Integral(NoXCTest, DKHSO) MaxDisk=500GB Pop=
 Regular Guess=Read\\MnO\\0,6\Mn,0,0.,0.,0.\O,0,0.,0.,1.8\\Version=ES64
 L-G16RevA.03\State=6-SG\HF=-1232.2252622\MP2=-1233.620932\PUHF=-1232.2
 252622\PMP2-0=-1233.620932\CCSD=-1233.5882941\CCSD(T)=-1233.6329883\RM
 SD=5.236e-09\PG=C*V [C*(O1Mn1)]\\@


 LOVE IS BLIND, THAT'S WHY ALL THE WORLD LOVES A LOUVER.
 Job cpu time:       2 days  1 hours 47 minutes  9.4 seconds.
 Elapsed time:       0 days  1 hours 34 minutes 21.9 seconds.
 File lengths (MBytes):  RWF=  23249 Int=      0 D2E=      0 Chk=    167 Scr=      1
 Normal termination of Gaussian 16 at Wed Mar  7 02:53:11 2018.
