 Entering Gaussian System, Link 0=g16
 Initial command:
 /home1/apps/gaussian/16rA.03/g16/l1.exe "/tmp/Gau-102758.inp" -scrdir="/tmp/"
 Entering Link 1 = /home1/apps/gaussian/16rA.03/g16/l1.exe PID=    102759.
  
 Copyright (c) 1988,1990,1992,1993,1995,1998,2003,2009,2016,
            Gaussian, Inc.  All Rights Reserved.
  
 This is part of the Gaussian(R) 16 program.  It is based on
 the Gaussian(R) 09 system (copyright 2009, Gaussian, Inc.),
 the Gaussian(R) 03 system (copyright 2003, Gaussian, Inc.),
 the Gaussian(R) 98 system (copyright 1998, Gaussian, Inc.),
 the Gaussian(R) 94 system (copyright 1995, Gaussian, Inc.),
 the Gaussian 92(TM) system (copyright 1992, Gaussian, Inc.),
 the Gaussian 90(TM) system (copyright 1990, Gaussian, Inc.),
 the Gaussian 88(TM) system (copyright 1988, Gaussian, Inc.),
 the Gaussian 86(TM) system (copyright 1986, Carnegie Mellon
 University), and the Gaussian 82(TM) system (copyright 1983,
 Carnegie Mellon University). Gaussian is a federally registered
 trademark of Gaussian, Inc.
  
 This software contains proprietary and confidential information,
 including trade secrets, belonging to Gaussian, Inc.
  
 This software is provided under written license and may be
 used, copied, transmitted, or stored only in accord with that
 written license.
  
 The following legend is applicable only to US Government
 contracts under FAR:
  
                    RESTRICTED RIGHTS LEGEND
  
 Use, reproduction and disclosure by the US Government is
 subject to restrictions as set forth in subparagraphs (a)
 and (c) of the Commercial Computer Software - Restricted
 Rights clause in FAR 52.227-19.
  
 Gaussian, Inc.
 340 Quinnipiac St., Bldg. 40, Wallingford CT 06492
  
  
 ---------------------------------------------------------------
 Warning -- This program may not be used in any manner that
 competes with the business of Gaussian, Inc. or will provide
 assistance to any competitor of Gaussian, Inc.  The licensee
 of this program is prohibited from giving any competitor of
 Gaussian, Inc. access to this program.  By using this program,
 the user acknowledges that Gaussian, Inc. is engaged in the
 business of creating and licensing software in the field of
 computational chemistry and represents and warrants to the
 licensee that it is not a competitor of Gaussian, Inc. and that
 it will not use this program in any manner prohibited above.
 ---------------------------------------------------------------
  

 Cite this work as:
 Gaussian 16, Revision A.03,
 M. J. Frisch, G. W. Trucks, H. B. Schlegel, G. E. Scuseria, 
 M. A. Robb, J. R. Cheeseman, G. Scalmani, V. Barone, 
 G. A. Petersson, H. Nakatsuji, X. Li, M. Caricato, A. V. Marenich, 
 J. Bloino, B. G. Janesko, R. Gomperts, B. Mennucci, H. P. Hratchian, 
 J. V. Ortiz, A. F. Izmaylov, J. L. Sonnenberg, D. Williams-Young, 
 F. Ding, F. Lipparini, F. Egidi, J. Goings, B. Peng, A. Petrone, 
 T. Henderson, D. Ranasinghe, V. G. Zakrzewski, J. Gao, N. Rega, 
 G. Zheng, W. Liang, M. Hada, M. Ehara, K. Toyota, R. Fukuda, 
 J. Hasegawa, M. Ishida, T. Nakajima, Y. Honda, O. Kitao, H. Nakai, 
 T. Vreven, K. Throssell, J. A. Montgomery, Jr., J. E. Peralta, 
 F. Ogliaro, M. J. Bearpark, J. J. Heyd, E. N. Brothers, K. N. Kudin, 
 V. N. Staroverov, T. A. Keith, R. Kobayashi, J. Normand, 
 K. Raghavachari, A. P. Rendell, J. C. Burant, S. S. Iyengar, 
 J. Tomasi, M. Cossi, J. M. Millam, M. Klene, C. Adamo, R. Cammi, 
 J. W. Ochterski, R. L. Martin, K. Morokuma, O. Farkas, 
 J. B. Foresman, and D. J. Fox, Gaussian, Inc., Wallingford CT, 2016.
 
 ******************************************
 Gaussian 16:  ES64L-G16RevA.03 25-Dec-2016
                13-Feb-2018 
 ******************************************
 %mem=64GB
 %cpu=0-31
 SetSPE:  set environment variable "MP_BIND" = "yes"
 SetSPE:  set environment variable "MP_BLIST" = "0,1,2,3,4,5,6,7,8,9,10,11,12,13,14,15,16,17,18,19,20,21,22,23,24,25,26,27,28,29,30,31"
 Will use up to   32 processors via shared memory.
 %chk=MnH
 ----------------------------------------------------------------------
 #P ROCCSD(T)=(maxcyc=150, Full)/Gen 5d 7f SCF=(maxcycles=300) Integral
 (NoXCTest) MaxDisk=500GB Pop=Regular Pseudo=Read Guess=Read
 ----------------------------------------------------------------------
 1/38=1,172=1/1;
 2/12=2,17=6,18=5,40=1/2;
 3/5=7,8=11,11=2,16=1,17=8,25=1,30=1,47=8,116=101/1,2,3;
 4/5=1/1;
 5/5=2,7=300,38=6/2;
 8/5=-1,6=4,9=120000,10=90/1,4;
 9/5=7,6=150,14=2/13;
 6//1;
 99/5=1,9=1/99;
 Leave Link    1 at Tue Feb 13 02:42:42 2018, MaxMem=  8589934592 cpu:               6.1 elap:               0.2
 (Enter /home1/apps/gaussian/16rA.03/g16/l101.exe)
 ---
 MnH
 ---
 Symbolic Z-matrix:
 Charge =  0 Multiplicity = 7
 Mn                    0.        0.        0. 
 H                     0.        0.        1.5 
 
 ITRead=  0  0
 MicOpt= -1 -1
 NAtoms=      2 NQM=        2 NQMF=       0 NMMI=      0 NMMIF=      0
                NMic=       0 NMicF=      0.
                    Isotopes and Nuclear Properties:
 (Nuclear quadrupole moments (NQMom) in fm**2, nuclear magnetic moments (NMagM)
  in nuclear magnetons)

  Atom         1           2
 IAtWgt=          55           1
 AtmWgt=  54.9380463   1.0078250
 NucSpn=           5           1
 AtZEff=  -0.0000000  -0.0000000
 NQMom=   33.0000000   0.0000000
 NMagM=    3.4532000   2.7928460
 AtZNuc=  25.0000000   1.0000000
 Leave Link  101 at Tue Feb 13 02:42:42 2018, MaxMem=  8589934592 cpu:               2.9 elap:               0.1
 (Enter /home1/apps/gaussian/16rA.03/g16/l202.exe)
                          Input orientation:                          
 ---------------------------------------------------------------------
 Center     Atomic      Atomic             Coordinates (Angstroms)
 Number     Number       Type             X           Y           Z
 ---------------------------------------------------------------------
      1         25           0        0.000000    0.000000    0.000000
      2          1           0        0.000000    0.000000    1.500000
 ---------------------------------------------------------------------
 Stoichiometry    HMn(7)
 Framework group  C*V[C*(HMn)]
 Deg. of freedom     1
 Full point group                 C*V     NOp   4
 Largest Abelian subgroup         C2V     NOp   4
 Largest concise Abelian subgroup C1      NOp   1
                         Standard orientation:                         
 ---------------------------------------------------------------------
 Center     Atomic      Atomic             Coordinates (Angstroms)
 Number     Number       Type             X           Y           Z
 ---------------------------------------------------------------------
      1         25           0        0.000000    0.000000    0.057692
      2          1           0        0.000000    0.000000   -1.442308
 ---------------------------------------------------------------------
 Rotational constants (GHZ):           0.0000000         226.9574115         226.9574115
 Leave Link  202 at Tue Feb 13 02:42:42 2018, MaxMem=  8589934592 cpu:               0.6 elap:               0.0
 (Enter /home1/apps/gaussian/16rA.03/g16/l301.exe)
 General basis read from cards:  (5D, 7F)
 Centers:       1
 S 1 1.00
     Exponent=  1.2210500000D+07 Coefficients=  1.0000000000D+00
 S 1 1.00
     Exponent=  1.8281570000D+06 Coefficients=  1.0000000000D+00
 S 1 1.00
     Exponent=  4.1603030000D+05 Coefficients=  1.0000000000D+00
 S 1 1.00
     Exponent=  1.1784360000D+05 Coefficients=  1.0000000000D+00
 S 1 1.00
     Exponent=  3.8448140000D+04 Coefficients=  1.0000000000D+00
 S 1 1.00
     Exponent=  1.3881710000D+04 Coefficients=  1.0000000000D+00
 S 1 1.00
     Exponent=  5.4150020000D+03 Coefficients=  1.0000000000D+00
 S 1 1.00
     Exponent=  2.2464600000D+03 Coefficients=  1.0000000000D+00
 S 1 1.00
     Exponent=  9.8014630000D+02 Coefficients=  1.0000000000D+00
 S 1 1.00
     Exponent=  4.4589520000D+02 Coefficients=  1.0000000000D+00
 S 1 1.00
     Exponent=  2.1005580000D+02 Coefficients=  1.0000000000D+00
 S 1 1.00
     Exponent=  1.0180460000D+02 Coefficients=  1.0000000000D+00
 S 1 1.00
     Exponent=  5.0011260000D+01 Coefficients=  1.0000000000D+00
 S 1 1.00
     Exponent=  2.2939390000D+01 Coefficients=  1.0000000000D+00
 S 1 1.00
     Exponent=  1.1522640000D+01 Coefficients=  1.0000000000D+00
 S 1 1.00
     Exponent=  5.7763380000D+00 Coefficients=  1.0000000000D+00
 S 1 1.00
     Exponent=  2.6259590000D+00 Coefficients=  1.0000000000D+00
 S 1 1.00
     Exponent=  1.2603220000D+00 Coefficients=  1.0000000000D+00
 S 1 1.00
     Exponent=  5.7713000000D-01 Coefficients=  1.0000000000D+00
 S 1 1.00
     Exponent=  1.3658200000D-01 Coefficients=  1.0000000000D+00
 S 1 1.00
     Exponent=  6.3535000000D-02 Coefficients=  1.0000000000D+00
 S 1 1.00
     Exponent=  2.8521000000D-02 Coefficients=  1.0000000000D+00
 S 1 1.00
     Exponent=  5.3389000000D+00 Coefficients=  1.0000000000D+00
 S 1 1.00
     Exponent=  1.6013000000D+00 Coefficients=  1.0000000000D+00
 S 1 1.00
     Exponent=  1.2800000000D-02 Coefficients=  1.0000000000D+00
 P 1 1.00
     Exponent=  3.5005120000D+04 Coefficients=  1.0000000000D+00
 P 1 1.00
     Exponent=  8.2794620000D+03 Coefficients=  1.0000000000D+00
 P 1 1.00
     Exponent=  2.6884650000D+03 Coefficients=  1.0000000000D+00
 P 1 1.00
     Exponent=  1.0294900000D+03 Coefficients=  1.0000000000D+00
 P 1 1.00
     Exponent=  4.3807080000D+02 Coefficients=  1.0000000000D+00
 P 1 1.00
     Exponent=  2.0061530000D+02 Coefficients=  1.0000000000D+00
 P 1 1.00
     Exponent=  9.7007690000D+01 Coefficients=  1.0000000000D+00
 P 1 1.00
     Exponent=  4.8870520000D+01 Coefficients=  1.0000000000D+00
 P 1 1.00
     Exponent=  2.5292810000D+01 Coefficients=  1.0000000000D+00
 P 1 1.00
     Exponent=  1.3353820000D+01 Coefficients=  1.0000000000D+00
 P 1 1.00
     Exponent=  7.1317860000D+00 Coefficients=  1.0000000000D+00
 P 1 1.00
     Exponent=  3.7643650000D+00 Coefficients=  1.0000000000D+00
 P 1 1.00
     Exponent=  1.9462650000D+00 Coefficients=  1.0000000000D+00
 P 1 1.00
     Exponent=  9.8545500000D-01 Coefficients=  1.0000000000D+00
 P 1 1.00
     Exponent=  4.8186500000D-01 Coefficients=  1.0000000000D+00
 P 1 1.00
     Exponent=  1.8822219000D-01 Coefficients=  1.0000000000D+00
 P 1 1.00
     Exponent=  7.7539570000D-02 Coefficients=  1.0000000000D+00
 P 1 1.00
     Exponent=  3.1549450000D-02 Coefficients=  1.0000000000D+00
 P 1 1.00
     Exponent=  7.3423000000D+00 Coefficients=  1.0000000000D+00
 P 1 1.00
     Exponent=  1.9340000000D+00 Coefficients=  1.0000000000D+00
 P 1 1.00
     Exponent=  1.2840000000D-02 Coefficients=  1.0000000000D+00
 D 1 1.00
     Exponent=  3.1310900000D+02 Coefficients=  1.0000000000D+00
 D 1 1.00
     Exponent=  9.2527600000D+01 Coefficients=  1.0000000000D+00
 D 1 1.00
     Exponent=  3.5419100000D+01 Coefficients=  1.0000000000D+00
 D 1 1.00
     Exponent=  1.5157700000D+01 Coefficients=  1.0000000000D+00
 D 1 1.00
     Exponent=  6.9096400000D+00 Coefficients=  1.0000000000D+00
 D 1 1.00
     Exponent=  3.2725600000D+00 Coefficients=  1.0000000000D+00
 D 1 1.00
     Exponent=  1.5493600000D+00 Coefficients=  1.0000000000D+00
 D 1 1.00
     Exponent=  7.1709400000D-01 Coefficients=  1.0000000000D+00
 D 1 1.00
     Exponent=  3.1931000000D-01 Coefficients=  1.0000000000D+00
 D 1 1.00
     Exponent=  1.3415700000D-01 Coefficients=  1.0000000000D+00
 D 1 1.00
     Exponent=  5.1400000000D-02 Coefficients=  1.0000000000D+00
 D 1 1.00
     Exponent=  4.6851000000D+00 Coefficients=  1.0000000000D+00
 D 1 1.00
     Exponent=  2.4217000000D+00 Coefficients=  1.0000000000D+00
 D 1 1.00
     Exponent=  1.9690000000D-02 Coefficients=  1.0000000000D+00
 F 1 1.00
     Exponent=  6.6540000000D+00 Coefficients=  1.0000000000D+00
 F 1 1.00
     Exponent=  2.7676000000D+00 Coefficients=  1.0000000000D+00
 F 1 1.00
     Exponent=  1.1511000000D+00 Coefficients=  1.0000000000D+00
 F 1 1.00
     Exponent=  3.8120000000D-01 Coefficients=  1.0000000000D+00
 F 1 1.00
     Exponent=  1.2624000000D-01 Coefficients=  1.0000000000D+00
 G 1 1.00
     Exponent=  5.4683000000D+00 Coefficients=  1.0000000000D+00
 G 1 1.00
     Exponent=  2.3327000000D+00 Coefficients=  1.0000000000D+00
 G 1 1.00
     Exponent=  8.5200000000D-01 Coefficients=  1.0000000000D+00
 G 1 1.00
     Exponent=  3.1119000000D-01 Coefficients=  1.0000000000D+00
 H 1 1.00
     Exponent=  5.1185000000D+00 Coefficients=  1.0000000000D+00
 H 1 1.00
     Exponent=  1.9660000000D+00 Coefficients=  1.0000000000D+00
 H 1 1.00
     Exponent=  7.5513000000D-01 Coefficients=  1.0000000000D+00
 ****
 Centers:       2
 S 1 1.00
     Exponent=  8.2640000000D+01 Coefficients=  1.0000000000D+00
 S 1 1.00
     Exponent=  1.2410000000D+01 Coefficients=  1.0000000000D+00
 S 1 1.00
     Exponent=  2.8240000000D+00 Coefficients=  1.0000000000D+00
 S 1 1.00
     Exponent=  7.9770000000D-01 Coefficients=  1.0000000000D+00
 S 1 1.00
     Exponent=  2.5810000000D-01 Coefficients=  1.0000000000D+00
 S 1 1.00
     Exponent=  8.9890000000D-02 Coefficients=  1.0000000000D+00
 S 1 1.00
     Exponent=  2.3630000000D-02 Coefficients=  1.0000000000D+00
 P 1 1.00
     Exponent=  2.2920000000D+00 Coefficients=  1.0000000000D+00
 P 1 1.00
     Exponent=  8.3800000000D-01 Coefficients=  1.0000000000D+00
 P 1 1.00
     Exponent=  2.9200000000D-01 Coefficients=  1.0000000000D+00
 P 1 1.00
     Exponent=  8.4800000000D-02 Coefficients=  1.0000000000D+00
 D 1 1.00
     Exponent=  2.0620000000D+00 Coefficients=  1.0000000000D+00
 D 1 1.00
     Exponent=  6.6200000000D-01 Coefficients=  1.0000000000D+00
 D 1 1.00
     Exponent=  1.9000000000D-01 Coefficients=  1.0000000000D+00
 F 1 1.00
     Exponent=  1.3970000000D+00 Coefficients=  1.0000000000D+00
 F 1 1.00
     Exponent=  3.6000000000D-01 Coefficients=  1.0000000000D+00
 ****
 ======================================================================================================
                                       Pseudopotential Parameters
 ======================================================================================================
  Center     Atomic      Valence      Angular      Power
  Number     Number     Electrons     Momentum     of R      Exponent        Coefficient   SO-Coeffient
 ======================================================================================================
    1         25           15
                                      D and up 
                                                     1       23.9390799       15.00000000    0.00000000
                                                     3       22.6487595      359.08619845    0.00000000
                                                     2       21.8940654     -152.94067313    0.00000000
                                                     2        6.3591050       -2.00927518    0.00000000
                                      S - D
                                                     2       18.5418030      245.53111290    0.00000000
                                                     2        8.3984596       33.14202299    0.00000000
                                      P - D
                                                     2       19.3120237      163.21059049    0.00000000
                                                     2        8.3700777       25.03088136    0.00000000
    2          1            1
                                      P and up 
                                                     2       21.7769666      -10.85192405    0.00000000
                                                     1       21.2435951        1.00000000    0.00000000
                                                     3       21.2435951       21.24359508    0.00000000
                                      S - P
                                                     2        1.0000000        0.00000000    0.00000000
 ======================================================================================================
 Ernie: Thresh=  0.10000D-02 Tol=  0.10000D-05 Strict=F.
 There are   171 symmetry adapted cartesian basis functions of A1  symmetry.
 There are    45 symmetry adapted cartesian basis functions of A2  symmetry.
 There are    93 symmetry adapted cartesian basis functions of B1  symmetry.
 There are    93 symmetry adapted cartesian basis functions of B2  symmetry.
 There are   126 symmetry adapted basis functions of A1  symmetry.
 There are    38 symmetry adapted basis functions of A2  symmetry.
 There are    73 symmetry adapted basis functions of B1  symmetry.
 There are    73 symmetry adapted basis functions of B2  symmetry.
   310 basis functions,   402 primitive gaussians,   402 cartesian basis functions
    11 alpha electrons        5 beta electrons
       nuclear repulsion energy         5.2917721092 Hartrees.
 IExCor=    0 DFT=F Ex=HF Corr=None ExCW=0 ScaHFX=  1.000000
 ScaDFX=  1.000000  1.000000  1.000000  1.000000 ScalE2=  1.000000  1.000000
 IRadAn=      5 IRanWt=     -1 IRanGd=            0 ICorTp=0 IEmpDi=  4
 NAtoms=    2 NActive=    2 NUniq=    2 SFac= 1.00D+00 NAtFMM=   60 NAOKFM=F Big=F
 Integral buffers will be    131072 words long.
 Raffenetti 2 integral format.
 Two-electron integral symmetry is turned on.
 Leave Link  301 at Tue Feb 13 02:42:43 2018, MaxMem=  8589934592 cpu:               7.8 elap:               0.3
 (Enter /home1/apps/gaussian/16rA.03/g16/l302.exe)
 NPDir=0 NMtPBC=     1 NCelOv=     1 NCel=       1 NClECP=     1 NCelD=      1
         NCelK=      1 NCelE2=     1 NClLst=     1 CellRange=     0.0.
 One-electron integrals computed using PRISM.
 One-electron integral symmetry used in STVInt
   4 Symmetry operations used in ECPInt.
 ECPInt:  NShTT=    3916 NPrTT=    3916 LenC2=    3865 LenP2D=    3864.
 LDataN:  DoStor=T MaxTD1=10 Len=  848
 NBasis=   310 RedAO= T EigKep=  1.33D-05  NBF=   126    38    73    73
 NBsUse=   303 1.00D-06 EigRej=  3.86D-07 NBFU=   123    38    71    71
 Leave Link  302 at Tue Feb 13 02:42:45 2018, MaxMem=  8589934592 cpu:              73.9 elap:               2.3
 (Enter /home1/apps/gaussian/16rA.03/g16/l303.exe)
 DipDrv:  MaxL=1.
 Leave Link  303 at Tue Feb 13 02:42:45 2018, MaxMem=  8589934592 cpu:               2.7 elap:               0.1
 (Enter /home1/apps/gaussian/16rA.03/g16/l401.exe)
 Initial guess from the checkpoint file:  "MnH.chk"
 B after Tr=     0.000000    0.000000    0.000000
         Rot=    1.000000    0.000000    0.000000    0.000000 Ang=   0.00 deg.
 Guess basis will be translated and rotated to current coordinates.
 JPrj=2 DoOrth=T DoCkMO=T.
 Initial guess orbital symmetries:
       Occupied  (SG) (PI) (PI) (SG) (SG) (DLTA) (DLTA) (SG) (PI)
                 (PI) (SG)
       Virtual   (PI) (PI) (SG) (SG) (PI) (PI) (DLTA) (DLTA) (SG)
                 (PI) (PI) (SG) (SG) (SG) (PI) (PI) (SG) (DLTA)
                 (DLTA) (PI) (PI) (PI) (PI) (SG) (SG) (SG) (SG)
                 (DLTA) (DLTA) (PHI) (PHI) (PI) (PI) (PI) (PI)
                 (SG) (SG) (DLTA) (DLTA) (PI) (PI) (SG) (DLTA)
                 (DLTA) (PI) (PI) (SG) (PI) (PI) (SG) (SG) (PHI)
                 (PHI) (DLTA) (DLTA) (PI) (PI) (SG) (PI) (PI) (?A)
                 (?A) (SG) (PHI) (PHI) (SG) (DLTA) (DLTA) (PI)
                 (PI) (DLTA) (DLTA) (SG) (PI) (PI) (SG) (DLTA)
                 (DLTA) (PI) (PI) (PI) (PI) (SG) (SG) (SG) (PHI)
                 (PHI) (DLTA) (DLTA) (PI) (PI) (DLTA) (DLTA) (SG)
                 (PI) (PI) (SG) (PI) (PI) (?A) (?A) (SG) (PHI)
                 (PHI) (DLTA) (DLTA) (PI) (PI) (SG) (SG) (SG) (DLTA)
                 (DLTA) (PI) (PI) (SG) (PHI) (PHI) (DLTA) (DLTA)
                 (PI) (PI) (SG) (PI) (PI) (SG) (?A) (?A) (PHI)
                 (PHI) (DLTA) (DLTA) (PI) (PI) (SG) (DLTA) (DLTA)
                 (PI) (PI) (SG) (SG) (PI) (PI) (SG) (DLTA) (DLTA)
                 (PI) (PI) (SG) (SG) (SG) (PI) (PI) (SG) (DLTA)
                 (DLTA) (PI) (PI) (SG) (SG) (PI) (PI) (SG) (SG)
                 (PI) (PI) (SG) (SG) (DLTA) (DLTA) (PI) (PI) (SG)
                 (PI) (PI) (SG) (SG) (PI) (PI) (SG) (SG) (PI) (PI)
                 (SG) (SG) (PI) (PI) (SG) (SG) (PI) (PI) (SG) (SG)
                 (SG) (PI) (PI) (SG) (SG) (SG) (SG) (SG) (DLTA)
                 (DLTA) (SG) (SG) (SG) (SG) (DLTA) (SG) (SG) (DLTA)
                 (SG) (SG) (DLTA) (SG) (?A) (SG) (DLTA) (SG) (DLTA)
                 (?A) (SG) (DLTA) (SG) (DLTA) (DLTA) (SG) (DLTA)
                 (SG) (?A) (?A) (DLTA) (DLTA) (DLTA) (DLTA) (DLTA)
                 (?A) (DLTA) (DLTA) (?A) (DLTA) (DLTA) (DLTA) (DLTA)
                 (?A) (?A) (PI) (PI) (PI) (PI) (PI) (PHI) (PI)
                 (PI) (PHI) (PI) (PI) (PHI) (?B) (PI) (PHI) (PI)
                 (PHI) (PI) (PI) (PHI) (?B) (PHI) (?B) (PI) (PI)
                 (PI) (PI) (PI) (PHI) (PI) (PI) (PHI) (PI) (PI)
                 (PHI) (?B) (PI) (PHI) (PI) (PHI) (PI) (PI) (PHI)
                 (?B) (PHI) (?B)
 The electronic state of the initial guess is 7-SG.
 Leave Link  401 at Tue Feb 13 02:42:46 2018, MaxMem=  8589934592 cpu:              15.6 elap:               0.6
 (Enter /home1/apps/gaussian/16rA.03/g16/l502.exe)
 Keep R1 and R2 ints in memory in symmetry-blocked form, NReq=1456552531.
 FoFCou: FMM=F IPFlag=           8 FMFlag=           0 FMFlg1=           0
         NFxFlg=           0 DoJE=F BraDBF=F KetDBF=F FulRan=T
         wScrn=  0.000000 ICntrl=       600 IOpCl=  0 I1Cent=           0 NGrid=           0
         NMat0=    1 NMatS0=  48205 NMatT0=    0 NMatD0=    1 NMtDS0=    0 NMtDT0=    0
 Petite list used in FoFCou.
 Restricted open shell SCF:
 Using DIIS extrapolation, IDIIS=  1040.
 NGot=  8589934592 LenX=  8000373618 LenY=  8000211573
 Requested convergence on RMS density matrix=1.00D-08 within 300 cycles.
 Requested convergence on MAX density matrix=1.00D-06.
 Requested convergence on             energy=1.00D-06.
 No special actions if energy rises.

 Cycle   1  Pass 1  IDiag  1:
 E= -104.043830059536    
 DIIS: error= 1.49D+00 at cycle   1 NSaved=   1.
 NSaved= 1 IEnMin= 1 EnMin= -104.043830059536     IErMin= 1 ErrMin= 1.49D+00
 ErrMax= 1.49D+00  0.00D+00 EMaxC= 1.00D-01 BMatC= 2.87D+02 BMatP= 2.87D+02
 IDIUse=3 WtCom= 0.00D+00 WtEn= 1.00D+00
 Coeff-Com:  0.100D+01
 Coeff-En:   0.100D+01
 Coeff:      0.100D+01
 Gap=     0.068 Goal=   None    Shift=    0.000
 GapD=    0.068 DampG=0.500 DampE=0.125 DampFc=0.1250 IDamp=-1.
 Damping current iteration by 1.25D-01
 RMSDP=1.09D-03 MaxDP=1.33D-01              OVMax= 3.12D-03

 Cycle   2  Pass 1  IDiag  1:
 E= -104.043873714425     Delta-E=       -0.000043654890 Rises=F Damp=T
 DIIS: error= 1.30D+00 at cycle   2 NSaved=   2.
 NSaved= 2 IEnMin= 2 EnMin= -104.043873714425     IErMin= 2 ErrMin= 1.30D+00
 ErrMax= 1.30D+00  0.00D+00 EMaxC= 1.00D-01 BMatC= 2.19D+02 BMatP= 2.87D+02
 IDIUse=3 WtCom= 0.00D+00 WtEn= 1.00D+00
 Coeff-Com: -0.700D+01 0.800D+01
 Coeff-En:   0.000D+00 0.100D+01
 Coeff:      0.000D+00 0.100D+01
 Gap=     0.067 Goal=   None    Shift=    0.000
 RMSDP=9.39D-04 MaxDP=1.16D-01 DE=-4.37D-05 OVMax= 6.91D-03

 Cycle   3  Pass 1  IDiag  1:
 E= -104.044125282325     Delta-E=       -0.000251567899 Rises=F Damp=F
 DIIS: error= 4.85D-04 at cycle   3 NSaved=   3.
 NSaved= 3 IEnMin= 3 EnMin= -104.044125282325     IErMin= 3 ErrMin= 4.85D-04
 ErrMax= 4.85D-04  0.00D+00 EMaxC= 1.00D-01 BMatC= 4.43D-05 BMatP= 2.19D+02
 IDIUse=3 WtCom= 9.95D-01 WtEn= 4.85D-03
 Coeff-Com: -0.140D+01 0.160D+01 0.800D+00
 Coeff-En:   0.000D+00 0.000D+00 0.100D+01
 Coeff:     -0.139D+01 0.159D+01 0.801D+00
 Gap=     0.067 Goal=   None    Shift=    0.000
 RMSDP=2.48D-04 MaxDP=2.62D-02 DE=-2.52D-04 OVMax= 6.22D-03

 Cycle   4  Pass 1  IDiag  1:
 E= -104.044162157103     Delta-E=       -0.000036874778 Rises=F Damp=F
 DIIS: error= 5.06D-04 at cycle   4 NSaved=   4.
 NSaved= 4 IEnMin= 4 EnMin= -104.044162157103     IErMin= 3 ErrMin= 4.85D-04
 ErrMax= 5.06D-04  0.00D+00 EMaxC= 1.00D-01 BMatC= 2.45D-05 BMatP= 4.43D-05
 IDIUse=3 WtCom= 9.95D-01 WtEn= 5.06D-03
 Coeff-Com: -0.107D+01 0.122D+01 0.511D+00 0.336D+00
 Coeff-En:   0.000D+00 0.000D+00 0.388D+00 0.612D+00
 Coeff:     -0.106D+01 0.121D+01 0.511D+00 0.338D+00
 Gap=     0.067 Goal=   None    Shift=    0.000
 RMSDP=1.67D-04 MaxDP=1.83D-02 DE=-3.69D-05 OVMax= 5.92D-03

 Cycle   5  Pass 1  IDiag  1:
 E= -104.044177561687     Delta-E=       -0.000015404584 Rises=F Damp=F
 DIIS: error= 3.60D-04 at cycle   5 NSaved=   5.
 NSaved= 5 IEnMin= 5 EnMin= -104.044177561687     IErMin= 5 ErrMin= 3.60D-04
 ErrMax= 3.60D-04  0.00D+00 EMaxC= 1.00D-01 BMatC= 1.28D-05 BMatP= 2.45D-05
 IDIUse=3 WtCom= 9.96D-01 WtEn= 3.60D-03
 EnCoef did    15 forward-backward iterations
 Coeff-Com: -0.946D+00 0.108D+01 0.305D+00 0.244D+00 0.316D+00
 Coeff-En:   0.000D+00 0.000D+00 0.902D-01 0.429D+00 0.481D+00
 Coeff:     -0.942D+00 0.108D+01 0.304D+00 0.244D+00 0.317D+00
 Gap=     0.067 Goal=   None    Shift=    0.000
 RMSDP=8.62D-05 MaxDP=9.35D-03 DE=-1.54D-05 OVMax= 3.09D-03

 Cycle   6  Pass 1  IDiag  1:
 E= -104.044182303439     Delta-E=       -0.000004741752 Rises=F Damp=F
 DIIS: error= 3.16D-04 at cycle   6 NSaved=   6.
 NSaved= 6 IEnMin= 6 EnMin= -104.044182303439     IErMin= 6 ErrMin= 3.16D-04
 ErrMax= 3.16D-04  0.00D+00 EMaxC= 1.00D-01 BMatC= 9.76D-06 BMatP= 1.28D-05
 IDIUse=3 WtCom= 9.97D-01 WtEn= 3.16D-03
 Rare condition: small coef for last iteration: -0.444D-15
 Coeff-Com: -0.841D+00 0.961D+00 0.133D+00 0.123D+00 0.269D+00 0.356D+00
 Coeff-En:   0.000D+00 0.000D+00 0.988D-02 0.299D+00 0.232D+00 0.459D+00
 Coeff:     -0.841D+00 0.961D+00 0.133D+00 0.123D+00 0.269D+00 0.356D+00
 Gap=     0.067 Goal=   None    Shift=    0.000
 RMSDP=2.45D-05 MaxDP=2.63D-03 DE=-4.74D-06 OVMax= 1.12D-03

 Cycle   7  Pass 1  IDiag  1:
 E= -104.044185459300     Delta-E=       -0.000003155861 Rises=F Damp=F
 DIIS: error= 2.94D-04 at cycle   7 NSaved=   7.
 NSaved= 7 IEnMin= 7 EnMin= -104.044185459300     IErMin= 7 ErrMin= 2.94D-04
 ErrMax= 2.94D-04  0.00D+00 EMaxC= 1.00D-01 BMatC= 7.55D-06 BMatP= 9.76D-06
 IDIUse=3 WtCom= 9.97D-01 WtEn= 2.94D-03
 EnCoef did   100 forward-backward iterations
 Rare condition: small coef for last iteration:  0.000D+00
 Coeff-Com: -0.723D+00 0.827D+00 0.149D-01 0.181D-01 0.726D-01 0.181D+00
 Coeff-Com:  0.610D+00
 Coeff-En:   0.000D+00 0.000D+00 0.287D-01 0.245D+00 0.000D+00 0.000D+00
 Coeff-En:   0.726D+00
 Coeff:     -0.723D+00 0.827D+00 0.149D-01 0.181D-01 0.726D-01 0.181D+00
 Coeff:      0.610D+00
 Gap=     0.067 Goal=   None    Shift=    0.000
 RMSDP=2.03D-05 MaxDP=1.86D-03 DE=-3.16D-06 OVMax= 3.66D-04

 Cycle   8  Pass 1  IDiag  1:
 E= -104.044187961592     Delta-E=       -0.000002502292 Rises=F Damp=F
 DIIS: error= 2.56D-04 at cycle   8 NSaved=   8.
 NSaved= 8 IEnMin= 8 EnMin= -104.044187961592     IErMin= 8 ErrMin= 2.56D-04
 ErrMax= 2.56D-04  0.00D+00 EMaxC= 1.00D-01 BMatC= 5.60D-06 BMatP= 7.55D-06
 IDIUse=3 WtCom= 9.97D-01 WtEn= 2.56D-03
 EnCoef did    15 forward-backward iterations
 Coeff-Com: -0.620D+00 0.709D+00-0.277D-01-0.275D-01-0.355D-01 0.226D-01
 Coeff-Com:  0.457D+00 0.523D+00
 Coeff-En:   0.000D+00 0.000D+00 0.656D-01 0.367D+00 0.366D+00 0.000D+00
 Coeff-En:   0.000D+00 0.201D+00
 Coeff:     -0.619D+00 0.707D+00-0.275D-01-0.265D-01-0.345D-01 0.225D-01
 Coeff:      0.456D+00 0.522D+00
 Gap=     0.067 Goal=   None    Shift=    0.000
 RMSDP=2.15D-05 MaxDP=1.61D-03 DE=-2.50D-06 OVMax= 4.94D-04

 Cycle   9  Pass 1  IDiag  1:
 E= -104.044189961906     Delta-E=       -0.000002000314 Rises=F Damp=F
 DIIS: error= 2.18D-04 at cycle   9 NSaved=   9.
 NSaved= 9 IEnMin= 9 EnMin= -104.044189961906     IErMin= 9 ErrMin= 2.18D-04
 ErrMax= 2.18D-04  0.00D+00 EMaxC= 1.00D-01 BMatC= 4.04D-06 BMatP= 5.60D-06
 IDIUse=3 WtCom= 9.98D-01 WtEn= 2.18D-03
 EnCoef did    11 forward-backward iterations
 Coeff-Com: -0.451D+00 0.515D+00-0.567D-01-0.640D-01-0.140D+00-0.161D+00
 Coeff-Com:  0.857D-01 0.682D+00 0.590D+00
 Coeff-En:   0.000D+00 0.000D+00 0.529D-01 0.245D+00 0.109D+00 0.000D+00
 Coeff-En:   0.000D+00 0.000D+00 0.594D+00
 Coeff:     -0.450D+00 0.514D+00-0.564D-01-0.633D-01-0.139D+00-0.161D+00
 Coeff:      0.855D-01 0.680D+00 0.590D+00
 Gap=     0.067 Goal=   None    Shift=    0.000
 RMSDP=2.43D-05 MaxDP=2.14D-03 DE=-2.00D-06 OVMax= 3.81D-04

 Cycle  10  Pass 1  IDiag  1:
 E= -104.044192442954     Delta-E=       -0.000002481048 Rises=F Damp=F
 DIIS: error= 1.56D-04 at cycle  10 NSaved=  10.
 NSaved=10 IEnMin=10 EnMin= -104.044192442954     IErMin=10 ErrMin= 1.56D-04
 ErrMax= 1.56D-04  0.00D+00 EMaxC= 1.00D-01 BMatC= 2.11D-06 BMatP= 4.04D-06
 IDIUse=3 WtCom= 9.98D-01 WtEn= 1.56D-03
 EnCoef did     7 forward-backward iterations
 Coeff-Com: -0.329D+00 0.376D+00-0.426D-01-0.514D-01-0.126D+00-0.170D+00
 Coeff-Com: -0.643D-01 0.393D+00 0.432D+00 0.582D+00
 Coeff-En:   0.000D+00 0.000D+00 0.808D-01 0.179D+00 0.000D+00 0.000D+00
 Coeff-En:   0.000D+00 0.000D+00 0.000D+00 0.740D+00
 Coeff:     -0.329D+00 0.376D+00-0.424D-01-0.510D-01-0.126D+00-0.169D+00
 Coeff:     -0.642D-01 0.392D+00 0.431D+00 0.583D+00
 Gap=     0.067 Goal=   None    Shift=    0.000
 RMSDP=1.93D-05 MaxDP=1.41D-03 DE=-2.48D-06 OVMax= 2.68D-04

 Cycle  11  Pass 1  IDiag  1:
 E= -104.044193692717     Delta-E=       -0.000001249764 Rises=F Damp=F
 DIIS: error= 1.14D-04 at cycle  11 NSaved=  11.
 NSaved=11 IEnMin=11 EnMin= -104.044193692717     IErMin=11 ErrMin= 1.14D-04
 ErrMax= 1.14D-04  0.00D+00 EMaxC= 1.00D-01 BMatC= 1.12D-06 BMatP= 2.11D-06
 IDIUse=3 WtCom= 9.99D-01 WtEn= 1.14D-03
 EnCoef did     4 forward-backward iterations
 Coeff-Com: -0.155D+00 0.177D+00-0.152D-01-0.230D-01-0.745D-01-0.125D+00
 Coeff-Com: -0.170D+00-0.239D-01 0.841D-01 0.668D+00 0.657D+00
 Coeff-En:   0.000D+00 0.000D+00 0.101D+00 0.161D+00 0.000D+00 0.000D+00
 Coeff-En:   0.000D+00 0.000D+00 0.000D+00 0.000D+00 0.738D+00
 Coeff:     -0.155D+00 0.177D+00-0.151D-01-0.228D-01-0.744D-01-0.125D+00
 Coeff:     -0.170D+00-0.238D-01 0.840D-01 0.667D+00 0.657D+00
 Gap=     0.067 Goal=   None    Shift=    0.000
 RMSDP=2.91D-05 MaxDP=2.02D-03 DE=-1.25D-06 OVMax= 3.85D-04

 Cycle  12  Pass 1  IDiag  1:
 E= -104.044194812156     Delta-E=       -0.000001119439 Rises=F Damp=F
 DIIS: error= 5.42D-05 at cycle  12 NSaved=  12.
 NSaved=12 IEnMin=12 EnMin= -104.044194812156     IErMin=12 ErrMin= 5.42D-05
 ErrMax= 5.42D-05  0.00D+00 EMaxC= 1.00D-01 BMatC= 2.47D-07 BMatP= 1.12D-06
 IDIUse=1 WtCom= 1.00D+00 WtEn= 0.00D+00
 Coeff-Com: -0.628D-01 0.718D-01-0.296D-02-0.738D-02-0.321D-01-0.615D-01
 Coeff-Com: -0.120D+00-0.103D+00-0.404D-01 0.310D+00 0.409D+00 0.640D+00
 Coeff:     -0.628D-01 0.718D-01-0.296D-02-0.738D-02-0.321D-01-0.615D-01
 Coeff:     -0.120D+00-0.103D+00-0.404D-01 0.310D+00 0.409D+00 0.640D+00
 Gap=     0.067 Goal=   None    Shift=    0.000
 RMSDP=1.30D-05 MaxDP=1.14D-03 DE=-1.12D-06 OVMax= 2.00D-04

 Cycle  13  Pass 1  IDiag  1:
 E= -104.044195074369     Delta-E=       -0.000000262214 Rises=F Damp=F
 DIIS: error= 2.18D-05 at cycle  13 NSaved=  13.
 NSaved=13 IEnMin=13 EnMin= -104.044195074369     IErMin=13 ErrMin= 2.18D-05
 ErrMax= 2.18D-05  0.00D+00 EMaxC= 1.00D-01 BMatC= 4.14D-08 BMatP= 2.47D-07
 IDIUse=1 WtCom= 1.00D+00 WtEn= 0.00D+00
 Coeff-Com: -0.113D-01 0.129D-01 0.156D-02 0.281D-03-0.416D-02-0.126D-01
 Coeff-Com: -0.487D-01-0.702D-01-0.529D-01 0.240D-01 0.954D-01 0.459D+00
 Coeff-Com:  0.607D+00
 Coeff:     -0.113D-01 0.129D-01 0.156D-02 0.281D-03-0.416D-02-0.126D-01
 Coeff:     -0.487D-01-0.702D-01-0.529D-01 0.240D-01 0.954D-01 0.459D+00
 Coeff:      0.607D+00
 Gap=     0.067 Goal=   None    Shift=    0.000
 RMSDP=8.50D-06 MaxDP=6.35D-04 DE=-2.62D-07 OVMax= 1.10D-04

 Cycle  14  Pass 1  IDiag  1:
 E= -104.044195125391     Delta-E=       -0.000000051022 Rises=F Damp=F
 DIIS: error= 3.79D-06 at cycle  14 NSaved=  14.
 NSaved=14 IEnMin=14 EnMin= -104.044195125391     IErMin=14 ErrMin= 3.79D-06
 ErrMax= 3.79D-06  0.00D+00 EMaxC= 1.00D-01 BMatC= 1.40D-09 BMatP= 4.14D-08
 IDIUse=1 WtCom= 1.00D+00 WtEn= 0.00D+00
 Coeff-Com:  0.533D-02-0.609D-02 0.184D-02 0.198D-02 0.510D-02 0.638D-02
 Coeff-Com: -0.883D-02-0.258D-01-0.279D-01-0.718D-01-0.434D-01 0.192D+00
 Coeff-Com:  0.539D+00 0.432D+00
 Coeff:      0.533D-02-0.609D-02 0.184D-02 0.198D-02 0.510D-02 0.638D-02
 Coeff:     -0.883D-02-0.258D-01-0.279D-01-0.718D-01-0.434D-01 0.192D+00
 Coeff:      0.539D+00 0.432D+00
 Gap=     0.067 Goal=   None    Shift=    0.000
 RMSDP=2.72D-06 MaxDP=1.98D-04 DE=-5.10D-08 OVMax= 3.81D-05

 Cycle  15  Pass 1  IDiag  1:
 E= -104.044195126803     Delta-E=       -0.000000001412 Rises=F Damp=F
 DIIS: error= 1.82D-06 at cycle  15 NSaved=  15.
 NSaved=15 IEnMin=15 EnMin= -104.044195126803     IErMin=15 ErrMin= 1.82D-06
 ErrMax= 1.82D-06  0.00D+00 EMaxC= 1.00D-01 BMatC= 3.12D-10 BMatP= 1.40D-09
 IDIUse=1 WtCom= 1.00D+00 WtEn= 0.00D+00
 Coeff-Com:  0.608D-02-0.695D-02 0.947D-03 0.138D-02 0.501D-02 0.836D-02
 Coeff-Com:  0.514D-02 0.386D-03-0.580D-02-0.647D-01-0.624D-01 0.353D-01
 Coeff-Com:  0.298D+00 0.371D+00 0.408D+00
 Coeff:      0.608D-02-0.695D-02 0.947D-03 0.138D-02 0.501D-02 0.836D-02
 Coeff:      0.514D-02 0.386D-03-0.580D-02-0.647D-01-0.624D-01 0.353D-01
 Coeff:      0.298D+00 0.371D+00 0.408D+00
 Gap=     0.067 Goal=   None    Shift=    0.000
 RMSDP=1.33D-07 MaxDP=9.49D-06 DE=-1.41D-09 OVMax= 5.42D-06

 Cycle  16  Pass 1  IDiag  1:
 E= -104.044195126715     Delta-E=        0.000000000088 Rises=F Damp=F
 DIIS: error= 2.13D-06 at cycle  16 NSaved=  16.
 NSaved=16 IEnMin=15 EnMin= -104.044195126803     IErMin=15 ErrMin= 1.82D-06
 ErrMax= 2.13D-06  0.00D+00 EMaxC= 1.00D-01 BMatC= 3.88D-10 BMatP= 3.12D-10
 IDIUse=1 WtCom= 1.00D+00 WtEn= 0.00D+00
 Coeff-Com:  0.218D-02-0.250D-02 0.519D-04 0.294D-03 0.175D-02 0.366D-02
 Coeff-Com:  0.639D-02 0.890D-02 0.464D-02-0.207D-01-0.271D-01-0.240D-01
 Coeff-Com:  0.469D-01 0.121D+00 0.270D+00 0.609D+00
 Coeff:      0.218D-02-0.250D-02 0.519D-04 0.294D-03 0.175D-02 0.366D-02
 Coeff:      0.639D-02 0.890D-02 0.464D-02-0.207D-01-0.271D-01-0.240D-01
 Coeff:      0.469D-01 0.121D+00 0.270D+00 0.609D+00
 Gap=     0.067 Goal=   None    Shift=    0.000
 RMSDP=6.19D-07 MaxDP=4.64D-05 DE= 8.80D-11 OVMax= 8.63D-06

 Cycle  17  Pass 1  IDiag  1:
 E= -104.044195127146     Delta-E=       -0.000000000431 Rises=F Damp=F
 DIIS: error= 7.53D-07 at cycle  17 NSaved=  17.
 NSaved=17 IEnMin=17 EnMin= -104.044195127146     IErMin=17 ErrMin= 7.53D-07
 ErrMax= 7.53D-07  0.00D+00 EMaxC= 1.00D-01 BMatC= 4.98D-11 BMatP= 3.12D-10
 IDIUse=1 WtCom= 1.00D+00 WtEn= 0.00D+00
 Coeff-Com:  0.426D-04-0.487D-04-0.115D-03-0.797D-04-0.218D-04 0.305D-03
 Coeff-Com:  0.203D-02 0.378D-02 0.268D-02 0.135D-02-0.101D-02-0.103D-01
 Coeff-Com: -0.228D-01-0.120D-01 0.333D-01 0.248D+00 0.755D+00
 Coeff:      0.426D-04-0.487D-04-0.115D-03-0.797D-04-0.218D-04 0.305D-03
 Coeff:      0.203D-02 0.378D-02 0.268D-02 0.135D-02-0.101D-02-0.103D-01
 Coeff:     -0.228D-01-0.120D-01 0.333D-01 0.248D+00 0.755D+00
 Gap=     0.067 Goal=   None    Shift=    0.000
 RMSDP=3.27D-07 MaxDP=2.65D-05 DE=-4.31D-10 OVMax= 4.35D-06

 Cycle  18  Pass 1  IDiag  1:
 E= -104.044195127210     Delta-E=       -0.000000000064 Rises=F Damp=F
 DIIS: error= 2.28D-08 at cycle  18 NSaved=  18.
 NSaved=18 IEnMin=18 EnMin= -104.044195127210     IErMin=18 ErrMin= 2.28D-08
 ErrMax= 2.28D-08  0.00D+00 EMaxC= 1.00D-01 BMatC= 1.13D-13 BMatP= 4.98D-11
 IDIUse=1 WtCom= 1.00D+00 WtEn= 0.00D+00
 Coeff-Com: -0.170D-03 0.194D-03-0.700D-04-0.733D-04-0.192D-03-0.192D-03
 Coeff-Com:  0.593D-03 0.129D-02 0.109D-02 0.297D-02 0.244D-02-0.288D-02
 Coeff-Com: -0.193D-01-0.236D-01-0.153D-01 0.825D-01 0.529D+00 0.442D+00
 Coeff:     -0.170D-03 0.194D-03-0.700D-04-0.733D-04-0.192D-03-0.192D-03
 Coeff:      0.593D-03 0.129D-02 0.109D-02 0.297D-02 0.244D-02-0.288D-02
 Coeff:     -0.193D-01-0.236D-01-0.153D-01 0.825D-01 0.529D+00 0.442D+00
 Gap=     0.067 Goal=   None    Shift=    0.000
 RMSDP=3.40D-08 MaxDP=2.97D-06 DE=-6.35D-11 OVMax= 7.30D-07

 Cycle  19  Pass 1  IDiag  1:
 E= -104.044195127209     Delta-E=        0.000000000000 Rises=F Damp=F
 DIIS: error= 5.95D-08 at cycle  19 NSaved=  19.
 NSaved=19 IEnMin=18 EnMin= -104.044195127210     IErMin=18 ErrMin= 2.28D-08
 ErrMax= 5.95D-08  0.00D+00 EMaxC= 1.00D-01 BMatC= 3.21D-13 BMatP= 1.13D-13
 IDIUse=1 WtCom= 1.00D+00 WtEn= 0.00D+00
 Coeff-Com: -0.696D-04 0.796D-04-0.116D-04-0.198D-04-0.961D-04-0.161D-03
 Coeff-Com: -0.540D-04-0.799D-04 0.362D-04 0.138D-02 0.165D-02 0.628D-03
 Coeff-Com: -0.730D-02-0.137D-01-0.207D-01-0.655D-02 0.197D+00 0.330D+00
 Coeff-Com:  0.519D+00
 Coeff:     -0.696D-04 0.796D-04-0.116D-04-0.198D-04-0.961D-04-0.161D-03
 Coeff:     -0.540D-04-0.799D-04 0.362D-04 0.138D-02 0.165D-02 0.628D-03
 Coeff:     -0.730D-02-0.137D-01-0.207D-01-0.655D-02 0.197D+00 0.330D+00
 Coeff:      0.519D+00
 Gap=     0.067 Goal=   None    Shift=    0.000
 RMSDP=1.51D-08 MaxDP=1.23D-06 DE= 4.12D-13 OVMax= 3.03D-07

 Cycle  20  Pass 1  IDiag  1:
 E= -104.044195127210     Delta-E=       -0.000000000001 Rises=F Damp=F
 DIIS: error= 2.38D-08 at cycle  20 NSaved=  20.
 NSaved=20 IEnMin=20 EnMin= -104.044195127210     IErMin=18 ErrMin= 2.28D-08
 ErrMax= 2.38D-08  0.00D+00 EMaxC= 1.00D-01 BMatC= 5.15D-14 BMatP= 1.13D-13
 IDIUse=1 WtCom= 1.00D+00 WtEn= 0.00D+00
 Large coefficients: NSaved= 20 BigCof=    0.00 CofMax=   10.00 Det=-2.74D-15
 Inversion failed.  Reducing to 19 matrices.
 Large coefficients: NSaved= 19 BigCof=    0.00 CofMax=   10.00 Det=-2.85D-15
 Inversion failed.  Reducing to 18 matrices.
 Coeff-Com:  0.751D-05 0.464D-05-0.784D-05-0.365D-04-0.120D-03-0.245D-03
 Coeff-Com: -0.182D-03 0.111D-03 0.297D-03 0.604D-03-0.476D-03-0.295D-02
 Coeff-Com: -0.784D-02-0.188D-01-0.225D-03 0.707D-01 0.223D+00 0.736D+00
 Coeff:      0.751D-05 0.464D-05-0.784D-05-0.365D-04-0.120D-03-0.245D-03
 Coeff:     -0.182D-03 0.111D-03 0.297D-03 0.604D-03-0.476D-03-0.295D-02
 Coeff:     -0.784D-02-0.188D-01-0.225D-03 0.707D-01 0.223D+00 0.736D+00
 Gap=     0.067 Goal=   None    Shift=    0.000
 RMSDP=1.17D-08 MaxDP=1.07D-06 DE=-5.54D-13 OVMax= 1.59D-07

 Cycle  21  Pass 1  IDiag  1:
 E= -104.044195127210     Delta-E=        0.000000000000 Rises=F Damp=F
 DIIS: error= 1.74D-09 at cycle  21 NSaved=  19.
 NSaved=19 IEnMin=18 EnMin= -104.044195127210     IErMin=19 ErrMin= 1.74D-09
 ErrMax= 1.74D-09  0.00D+00 EMaxC= 1.00D-01 BMatC= 4.45D-16 BMatP= 5.15D-14
 IDIUse=1 WtCom= 1.00D+00 WtEn= 0.00D+00
 Large coefficients: NSaved= 19 BigCof=    0.00 CofMax=   10.00 Det=-1.49D-15
 Inversion failed.  Reducing to 18 matrices.
 Large coefficients: NSaved= 18 BigCof=    0.00 CofMax=   10.00 Det=-1.55D-15
 Inversion failed.  Reducing to 17 matrices.
 Large coefficients: NSaved= 17 BigCof=    0.00 CofMax=   10.00 Det=-1.55D-15
 Inversion failed.  Reducing to 16 matrices.
 Large coefficients: NSaved= 16 BigCof=    0.00 CofMax=   10.00 Det=-1.55D-15
 Inversion failed.  Reducing to 15 matrices.
 Coeff-Com: -0.101D-04-0.202D-04-0.193D-04-0.983D-04-0.106D-03-0.761D-04
 Coeff-Com:  0.714D-04-0.384D-03-0.158D-02-0.684D-02-0.149D-01 0.583D-02
 Coeff-Com:  0.691D-01 0.455D+00 0.495D+00
 Coeff:     -0.101D-04-0.202D-04-0.193D-04-0.983D-04-0.106D-03-0.761D-04
 Coeff:      0.714D-04-0.384D-03-0.158D-02-0.684D-02-0.149D-01 0.583D-02
 Coeff:      0.691D-01 0.455D+00 0.495D+00
 Gap=     0.067 Goal=   None    Shift=    0.000
 RMSDP=5.62D-10 MaxDP=5.17D-08 DE= 4.26D-14 OVMax= 3.32D-08

 SCF Done:  E(ROHF) =  -104.044195127     A.U. after   21 cycles
            NFock= 21  Conv=0.56D-09     -V/T= 2.8022
 <Sx>= 0.0000 <Sy>= 0.0000 <Sz>= 3.0000 <S**2>=12.0000 S= 3.0000
 <L.S>=  0.00000000000    
 KE= 5.773025403844D+01 PE=-2.490156393332D+02 EE= 8.194941805832D+01
 Annihilation of the first spin contaminant:
 S**2 before annihilation    12.0000,   after    12.0000
 Leave Link  502 at Tue Feb 13 02:43:34 2018, MaxMem=  8589934592 cpu:            1296.2 elap:              48.0
 (Enter /home1/apps/gaussian/16rA.03/g16/l801.exe)
 Windowed orbitals will be sorted by symmetry type.
 GenMOA:  NOpAll=  4 NOp2=4 NOpUse=  4 JSym2X=1
 FoFJK:  IHMeth= 1 ICntrl=       0 DoSepK=F KAlg= 0 I1Cent=           0 FoldK=F
 IRaf=         0 NMat=       1 IRICut=       1 DoRegI=T DoRafI=F ISym2E= 1 IDoP0=0 IntGTp=1.
 FoFCou: FMM=F IPFlag=           8 FMFlag=      100000 FMFlg1=           0
         NFxFlg=           0 DoJE=F BraDBF=F KetDBF=F FulRan=T
         wScrn=  0.000000 ICntrl=         0 IOpCl=  1 I1Cent=           0 NGrid=           0
         NMat0=    1 NMatS0=      1 NMatT0=    0 NMatD0=    1 NMtDS0=    0 NMtDT0=    0
 Petite list used in FoFCou.
 <Sx>= 0.0000 <Sy>= 0.0000 <Sz>= 3.0000 <S**2>=12.0000 S= 3.0000
 Range of M.O.s used for correlation:     1   303
 NBasis=   310 NAE=    11 NBE=     5 NFC=     0 NFV=     0
 NROrb=    303 NOA=    11 NOB=     5 NVA=   292 NVB=   298

 **** Warning!!: The largest alpha MO coefficient is  0.10812295D+03


 **** Warning!!: The largest beta MO coefficient is  0.10789488D+03

 Singles contribution to E2=   -0.2094089000D-02
 Leave Link  801 at Tue Feb 13 02:43:47 2018, MaxMem=  8589934592 cpu:             410.8 elap:              12.9
 (Enter /home1/apps/gaussian/16rA.03/g16/l804.exe)
 Open-shell transformation, MDV=  8589934592 ITran=4 ISComp=2.
 Unit  1 TFree=       2917274 TCopy=       2119665.
 Semi-Direct transformation.
 ModeAB=           2 MOrb=            11 LenV=    8587057031
 LASXX=     38027501 LTotXX=    38027501 LenRXX=    38027501
 LTotAB=    38534382 MaxLAS=   269982999 LenRXY=   269982999
 NonZer=   275132484 LenScr=   414317568 LnRSAI=           0
 LnScr1=           0 LExtra=     9797539 Total=    732125607
 MaxDsk= 67108864000 SrtSym=           F ITran=            4
 DoSDTr:  NPSUse= 32
 JobTyp=1 Pass  1:  I=   1 to  11.
 (rs|ai) integrals will be sorted in core.
 Complete sort for first half transformation.
 First half transformation complete.
 Begin second half transformation for I=  10.
 Begin second half transformation for I=  10.
 Complete sort for second half transformation.
 Second half transformation complete.
 ModeAB=           2 MOrb=             5 LenV=    8587057031
 LASXX=     17582684 LTotXX=    17582684 LenRXX=   122719545
 LTotAB=    16519930 MaxLAS=   122719545 LenRXY=    16519930
 NonZer=   125060220 LenScr=   188375040 LnRSAI=           0
 LnScr1=           0 LExtra=   317808039 Total=    645422554
 MaxDsk= 67108864000 SrtSym=           F ITran=            4
 DoSDTr:  NPSUse= 32
 JobTyp=2 Pass  1:  I=   1 to   5.
 (rs|ai) integrals will be sorted in core.
 Complete sort for first half transformation.
 First half transformation complete.
 Complete sort for second half transformation.
 Second half transformation complete.
 Spin components of T(2) and E(2):
     alpha-alpha T2 =       0.2570954982D-01 E2=     -0.1583110686D+00
     alpha-beta  T2 =       0.5286020572D-01 E2=     -0.4006546806D+00
     beta-beta   T2 =       0.6326516621D-02 E2=     -0.4183431468D-01
 ANorm=    0.1042192212D+01
 E2 =    -0.6028941528D+00 EUMP2 =    -0.10464708928003D+03
 (S**2,0)=  0.12000D+02           (S**2,1)=  0.12000D+02
 E(PUHF)=      -0.10404419513D+03        E(PMP2)=      -0.10464708928D+03
 Leave Link  804 at Tue Feb 13 02:51:19 2018, MaxMem=  8589934592 cpu:           14463.2 elap:             452.0
 (Enter /home1/apps/gaussian/16rA.03/g16/l913.exe)
 CIDS:  MDV=  8589934592.
 IFCWin=0 IBDFC=1 NFBD=     0     0 NFCmp=     0     0 NFFFC=     0     0
 Using original routines for 1st iteration.
 Using DD4UQ or CC4UQ for 2nd and later iterations.
 Keep R2 and R3 ints in memory in symmetry-blocked form, NReq=1456566738.
 FoFCou: FMM=F IPFlag=           8 FMFlag=           0 FMFlg1=           0
         NFxFlg=           0 DoJE=F BraDBF=F KetDBF=F FulRan=T
         wScrn=  0.000000 ICntrl=       600 IOpCl=  0 I1Cent=           0 NGrid=           0
         NMat0=    1 NMatS0=  48205 NMatT0=    0 NMatD0=    1 NMtDS0=    0 NMtDT0=    0
 Petite list used in FoFCou.
 CIDS: In Core Option IDoMem=           1.
 CCSD(T)
 =======
 Iterations= 150 Convergence= 0.100D-06
 Produce multiple copies of IABC intergrals
 Iteration Nr.   1
 **********************
 DD1Dir will call FoFMem   1 times, MxPair=       176
 NAB=    55 NAA=    55 NBB=    10.
 DD1Dir will call FoFMem   1 times, MxPair=       176
 NAB=    55 NAA=    55 NBB=    10.
 MP4(R+Q)=  0.73281257D-02
 Maximum subspace dimension=  5
 A-vector RMS=  8.9951834D-05 Max=  9.7921819D-04 conv= 1.00D-05.
 RLE energy=       -0.5949749555
 E3=        0.64795597D-03        EROMP3=      -0.10464644132D+03
 E4(SDQ)=  -0.39339078D-02        ROMP4(SDQ)=  -0.10465037523D+03
 VARIATIONAL ENERGIES WITH THE FIRST-ORDER WAVEFUNCTION:
 DE(Corr)= -0.59486861     E(Corr)=     -104.63906374    
 NORM(A)=   0.10403146D+01
 Iteration Nr.   2
 **********************
 DD1Dir will call FoFMem   1 times, MxPair=       176
 NAB=    55 NAA=    55 NBB=    10.
 A-vector RMS=  1.8567679D-03 Max=  2.2144404D-02 conv= 1.00D-05.
 RLE energy=       -0.5947982747
 DE(Corr)= -0.59414738     E(CORR)=     -104.63834250     Delta= 7.21D-04
 NORM(A)=   0.10407300D+01
 Iteration Nr.   3
 **********************
 DD1Dir will call FoFMem   1 times, MxPair=       176
 NAB=    55 NAA=    55 NBB=    10.
 A-vector RMS=  1.5536930D-03 Max=  1.8844083D-02 conv= 1.00D-05.
 RLE energy=       -0.6004735150
 DE(Corr)= -0.59629488     E(CORR)=     -104.64049001     Delta=-2.15D-03
 NORM(A)=   0.10441124D+01
 Iteration Nr.   4
 **********************
 DD1Dir will call FoFMem   1 times, MxPair=       176
 NAB=    55 NAA=    55 NBB=    10.
 A-vector RMS=  1.1069512D-03 Max=  1.4274815D-02 conv= 1.00D-05.
 RLE energy=       -0.6153222120
 DE(Corr)= -0.60022257     E(CORR)=     -104.64441770     Delta=-3.93D-03
 NORM(A)=   0.10694522D+01
 Iteration Nr.   5
 **********************
 DD1Dir will call FoFMem   1 times, MxPair=       176
 NAB=    55 NAA=    55 NBB=    10.
 A-vector RMS=  1.1788226D-03 Max=  1.1267876D-02 conv= 1.00D-05.
 RLE energy=       -0.6088615220
 DE(Corr)= -0.61560602     E(CORR)=     -104.65980114     Delta=-1.54D-02
 NORM(A)=   0.10578208D+01
 Iteration Nr.   6
 **********************
 DD1Dir will call FoFMem   1 times, MxPair=       176
 NAB=    55 NAA=    55 NBB=    10.
 A-vector RMS=  2.4289720D-04 Max=  2.5698662D-03 conv= 1.00D-05.
 RLE energy=       -0.6070843827
 DE(Corr)= -0.60890101     E(CORR)=     -104.65309613     Delta= 6.71D-03
 NORM(A)=   0.10550259D+01
 Iteration Nr.   7
 **********************
 DD1Dir will call FoFMem   1 times, MxPair=       176
 NAB=    55 NAA=    55 NBB=    10.
 A-vector RMS=  6.0380300D-05 Max=  7.3888921D-04 conv= 1.00D-05.
 RLE energy=       -0.6071149336
 DE(Corr)= -0.60708270     E(CORR)=     -104.65127783     Delta= 1.82D-03
 NORM(A)=   0.10552734D+01
 Iteration Nr.   8
 **********************
 DD1Dir will call FoFMem   1 times, MxPair=       176
 NAB=    55 NAA=    55 NBB=    10.
 A-vector RMS=  2.8759103D-05 Max=  4.1187101D-04 conv= 1.00D-05.
 RLE energy=       -0.6071231851
 DE(Corr)= -0.60713894     E(CORR)=     -104.65133407     Delta=-5.62D-05
 NORM(A)=   0.10552658D+01
 Iteration Nr.   9
 **********************
 DD1Dir will call FoFMem   1 times, MxPair=       176
 NAB=    55 NAA=    55 NBB=    10.
 A-vector RMS=  1.4102729D-05 Max=  1.9801911D-04 conv= 1.00D-05.
 RLE energy=       -0.6071311092
 DE(Corr)= -0.60711709     E(CORR)=     -104.65131222     Delta= 2.18D-05
 NORM(A)=   0.10553065D+01
 Iteration Nr.  10
 **********************
 DD1Dir will call FoFMem   1 times, MxPair=       176
 NAB=    55 NAA=    55 NBB=    10.
 A-vector RMS=  6.9481805D-06 Max=  9.1173196D-05 conv= 1.00D-05.
 RLE energy=       -0.6071277361
 DE(Corr)= -0.60713100     E(CORR)=     -104.65132612     Delta=-1.39D-05
 NORM(A)=   0.10552861D+01
 Iteration Nr.  11
 **********************
 DD1Dir will call FoFMem   1 times, MxPair=       176
 NAB=    55 NAA=    55 NBB=    10.
 A-vector RMS=  2.3600111D-06 Max=  2.5992800D-05 conv= 1.00D-05.
 RLE energy=       -0.6071252444
 DE(Corr)= -0.60712542     E(CORR)=     -104.65132055     Delta= 5.58D-06
 NORM(A)=   0.10552830D+01
 Iteration Nr.  12
 **********************
 DD1Dir will call FoFMem   1 times, MxPair=       176
 NAB=    55 NAA=    55 NBB=    10.
 A-vector RMS=  6.8228988D-07 Max=  7.6033194D-06 conv= 1.00D-05.
 RLE energy=       -0.6071252965
 DE(Corr)= -0.60712549     E(CORR)=     -104.65132062     Delta=-7.08D-08
 NORM(A)=   0.10552817D+01
 CI/CC converged in   12 iterations to DelEn=-7.08D-08 Conv= 1.00D-07 ErrA1= 6.82D-07 Conv= 1.00D-05
 Wavefunction amplitudes converged. E(Corr)=     -104.65132062    
 Largest amplitude= 6.10D-02
 Time for triples=    27294.31 seconds.
 T4(CCSD)= -0.17578843D-01
 T5(CCSD)=  0.86242694D-03
 CCSD(T)= -0.10466803703D+03
 Discarding MO integrals.
 Leave Link  913 at Tue Feb 13 03:09:57 2018, MaxMem=  8589934592 cpu:           35734.8 elap:            1118.1
 (Enter /home1/apps/gaussian/16rA.03/g16/l601.exe)
 Copying SCF densities to generalized density rwf, IOpCl= 0 IROHF=1.

 **********************************************************************

            Population analysis using the SCF density.

 **********************************************************************

 Orbital symmetries:
       Occupied  (SG) (PI) (PI) (SG) (SG) (DLTA) (DLTA) (SG) (PI)
                 (PI) (SG)
       Virtual   (PI) (PI) (SG) (SG) (SG) (DLTA) (DLTA) (PI) (PI)
                 (PI) (PI) (SG) (SG) (SG) (PI) (PI) (DLTA) (DLTA)
                 (PI) (PI) (SG) (SG) (PI) (PI) (SG) (PHI) (PHI)
                 (SG) (DLTA) (DLTA) (PI) (PI) (DLTA) (DLTA) (SG)
                 (PI) (PI) (SG) (PI) (PI) (SG) (SG) (PI) (PI) (DLTA)
                 (DLTA) (SG) (PI) (PI) (SG) (DLTA) (DLTA) (PI)
                 (PI) (PHI) (PHI) (DLTA) (DLTA) (?A) (?A) (PHI)
                 (PHI) (SG) (PI) (PI) (SG) (DLTA) (DLTA) (SG) (PI)
                 (PI) (PHI) (PHI) (PI) (PI) (SG) (DLTA) (DLTA)
                 (PI) (PI) (SG) (SG) (SG) (DLTA) (DLTA) (PI) (PI)
                 (DLTA) (DLTA) (PI) (PI) (SG) (SG) (PI) (PI) (SG)
                 (PHI) (PHI) (DLTA) (DLTA) (PI) (PI) (?B) (?B)
                 (?A) (?A) (?A) (?A) (PHI) (PHI) (DLTA) (DLTA)
                 (PHI) (PHI) (SG) (PI) (PI) (SG) (DLTA) (DLTA)
                 (PI) (PI) (SG) (SG) (PI) (PI) (SG) (PHI) (PHI)
                 (DLTA) (DLTA) (SG) (PI) (PI) (DLTA) (DLTA) (SG)
                 (PI) (PI) (SG) (DLTA) (DLTA) (PI) (PI) (PI) (PI)
                 (SG) (SG) (PHI) (PHI) (DLTA) (DLTA) (PI) (PI)
                 (?A) (?A) (PHI) (PHI) (SG) (DLTA) (DLTA) (PI)
                 (PI) (?B) (?B) (?A) (?A) (PHI) (PHI) (DLTA) (DLTA)
                 (SG) (PI) (PI) (SG) (PI) (PI) (DLTA) (DLTA) (PI)
                 (PI) (SG) (SG) (SG) (DLTA) (DLTA) (PI) (PI) (SG)
                 (PHI) (PHI) (DLTA) (DLTA) (PI) (PI) (SG) (SG)
                 (?A) (?A) (PHI) (PHI) (DLTA) (DLTA) (PI) (PI)
                 (SG) (?B) (?B) (?A) (?A) (PHI) (PHI) (DLTA) (DLTA)
                 (PI) (PI) (SG) (PI) (PI) (SG) (SG) (DLTA) (DLTA)
                 (PI) (PI) (SG) (PI) (PI) (SG) (DLTA) (DLTA) (PI)
                 (PI) (SG) (SG) (PI) (PI) (SG) (DLTA) (DLTA) (PI)
                 (PI) (SG) (SG) (SG) (PI) (PI) (SG) (SG) (DLTA)
                 (DLTA) (PI) (PI) (SG) (SG) (PI) (PI) (SG) (SG)
                 (PI) (PI) (SG) (DLTA) (DLTA) (PI) (PI) (SG) (SG)
                 (PI) (PI) (SG) (SG) (PI) (PI) (SG) (SG) (PI) (PI)
                 (SG) (SG) (PI) (PI) (SG) (SG) (PI) (PI) (SG) (SG)
                 (SG) (SG) (SG) (SG)
 The electronic state is 7-SG.
 Alpha  occ. eigenvalues --   -4.15667  -2.80286  -2.80286  -2.80275  -0.64686
 Alpha  occ. eigenvalues --   -0.63800  -0.63800  -0.63220  -0.63220  -0.41789
 Alpha  occ. eigenvalues --   -0.25368
 Alpha virt. eigenvalues --    0.01273   0.01273   0.02067   0.03015   0.05123
 Alpha virt. eigenvalues --    0.05123   0.05681   0.05825   0.05825   0.06191
 Alpha virt. eigenvalues --    0.06191   0.08695   0.13819   0.14495   0.18015
 Alpha virt. eigenvalues --    0.18015   0.18542   0.18542   0.19070   0.19070
 Alpha virt. eigenvalues --    0.19990   0.27709   0.28094   0.28094   0.31985
 Alpha virt. eigenvalues --    0.46216   0.47253   0.47253   0.47672   0.47672
 Alpha virt. eigenvalues --    0.50194   0.50194   0.50964   0.50964   0.52440
 Alpha virt. eigenvalues --    0.56615   0.56615   0.58898   0.60295   0.60295
 Alpha virt. eigenvalues --    0.67036   0.75007   0.79914   0.79914   0.80865
 Alpha virt. eigenvalues --    0.80865   1.02867   1.15438   1.15438   1.26274
 Alpha virt. eigenvalues --    1.33997   1.33997   1.38192   1.38192   1.42754
 Alpha virt. eigenvalues --    1.42754   1.43103   1.43103   1.45545   1.45545
 Alpha virt. eigenvalues --    1.46114   1.46114   1.46176   1.58266   1.58266
 Alpha virt. eigenvalues --    1.62366   1.67164   1.67164   1.73086   1.80256
 Alpha virt. eigenvalues --    1.80256   1.84080   1.84080   1.86693   1.86693
 Alpha virt. eigenvalues --    1.90507   2.14601   2.14601   2.18666   2.18666
 Alpha virt. eigenvalues --    2.23821   2.29450   2.40178   2.78542   2.78542
 Alpha virt. eigenvalues --    3.00255   3.00255   3.25522   3.25522   3.30058
 Alpha virt. eigenvalues --    3.30058   3.35733   3.48687   3.59527   3.59527
 Alpha virt. eigenvalues --    3.83016   3.93877   3.93877   4.00322   4.00322
 Alpha virt. eigenvalues --    4.12319   4.12319   4.26601   4.26601   4.26612
 Alpha virt. eigenvalues --    4.26612   4.27955   4.27955   4.28025   4.28025
 Alpha virt. eigenvalues --    4.36026   4.36026   4.41320   4.41320   4.57256
 Alpha virt. eigenvalues --    4.58899   4.58899   4.71386   4.81074   4.81074
 Alpha virt. eigenvalues --    5.14479   5.14479   5.15595   5.54388   5.55211
 Alpha virt. eigenvalues --    5.55211   6.35600   6.69081   6.69081   6.97519
 Alpha virt. eigenvalues --    6.97519   6.99349   7.02815   7.02815   7.14069
 Alpha virt. eigenvalues --    7.14069   7.54518   7.70844   7.70844   7.75692
 Alpha virt. eigenvalues --    8.68344   8.68344   8.70742   8.70742   9.40327
 Alpha virt. eigenvalues --    9.40327   9.41123   9.72441   9.93123   9.93123
 Alpha virt. eigenvalues --   10.01996  10.01996  10.24268  10.24268  11.17493
 Alpha virt. eigenvalues --   11.17493  11.19621  11.19621  11.23236  11.28953
 Alpha virt. eigenvalues --   11.28953  11.73334  11.73334  11.87976  11.87976
 Alpha virt. eigenvalues --   11.88668  11.88668  11.94086  11.94086  12.13037
 Alpha virt. eigenvalues --   12.13037  12.23850  12.29790  12.29790  12.55389
 Alpha virt. eigenvalues --   13.31706  13.31706  13.57146  13.57146  13.64836
 Alpha virt. eigenvalues --   13.64836  13.67865  14.02200  14.99586  24.25001
 Alpha virt. eigenvalues --   24.25001  24.29419  24.29419  24.54171  24.70690
 Alpha virt. eigenvalues --   24.70690  24.76737  24.76737  24.88925  24.88925
 Alpha virt. eigenvalues --   25.42261  27.17618  27.21832  27.21832  27.22992
 Alpha virt. eigenvalues --   27.22992  27.27658  27.27658  27.51423  27.51423
 Alpha virt. eigenvalues --   28.00962  30.66470  30.66470  30.66750  30.66750
 Alpha virt. eigenvalues --   30.69170  30.69170  30.77766  30.77766  30.84486
 Alpha virt. eigenvalues --   30.84486  30.89038  31.38185  31.38185  31.68106
 Alpha virt. eigenvalues --   33.53121  41.44832  41.44832  41.49791  41.49791
 Alpha virt. eigenvalues --   41.75136  68.85693  68.85693  69.11222  72.49160
 Alpha virt. eigenvalues --   72.49160  72.53626  72.53626  72.76452  77.17347
 Alpha virt. eigenvalues --  138.16041 138.16041 138.38204 146.95770 146.95770
 Alpha virt. eigenvalues --  146.99525 146.99525 147.18930 151.38229 163.49347
 Alpha virt. eigenvalues --  264.57173 264.57173 264.75699 266.76456 378.12330
 Alpha virt. eigenvalues --  378.12330 378.15119 378.15119 378.29981 487.44425
 Alpha virt. eigenvalues --  506.93845 506.93845 507.14205 927.28142 997.34469
 Alpha virt. eigenvalues --  997.34469 997.533131271.831651271.831651271.84931
 Alpha virt. eigenvalues -- 1271.849311271.945251838.103382058.386842058.38684
 Alpha virt. eigenvalues -- 2058.558753812.046254547.592874547.592874547.74633
 Alpha virt. eigenvalues -- 8293.65104****************************************
 Alpha virt. eigenvalues -- **************************************************
 Alpha virt. eigenvalues -- **************************************************
 Alpha virt. eigenvalues -- ********************
     Molecular Orbital Coefficients:
                           1         2         3         4         5
                           O         O         O         O         O
     Eigenvalues --    -4.15667  -2.80286  -2.80286  -2.80275  -0.64686
   1 1   Mn 1S         -0.00000   0.00000   0.00000   0.00000   0.00000
   2        2S          0.00000   0.00000   0.00000  -0.00000  -0.00000
   3        3S         -0.00000   0.00000   0.00000   0.00000   0.00000
   4        4S          0.00000   0.00000   0.00000  -0.00000  -0.00000
   5        5S         -0.00000   0.00000   0.00000   0.00000   0.00000
   6        6S          0.00001   0.00000   0.00000  -0.00000  -0.00000
   7        7S         -0.00004   0.00000   0.00000   0.00000   0.00001
   8        8S          0.00012   0.00000   0.00000  -0.00000  -0.00002
   9        9S         -0.00035   0.00000   0.00000   0.00000   0.00005
  10       10S          0.00101   0.00000   0.00000  -0.00000  -0.00014
  11       11S         -0.00280   0.00000   0.00000   0.00001   0.00040
  12       12S          0.00777   0.00000   0.00000  -0.00002  -0.00113
  13       13S         -0.02431   0.00000   0.00000   0.00007   0.00367
  14       14S          0.11289   0.00000   0.00000  -0.00033  -0.01800
  15       15S         -0.16903   0.00000   0.00000   0.00051   0.02825
  16       16S         -0.35491   0.00000   0.00000   0.00111   0.07148
  17       17S          0.39054   0.00000   0.00000  -0.00116  -0.07723
  18       18S          0.84238   0.00000   0.00000  -0.00242  -0.21699
  19       19S          0.28603   0.00000   0.00000   0.00030  -0.11892
  20       20S          0.00740   0.00000   0.00000   0.00380   0.21551
  21       21S          0.00246   0.00000   0.00000   0.00334   0.12469
  22       22S          0.00107   0.00000   0.00000  -0.00018  -0.00415
  23       23S         -0.05268   0.00000   0.00000   0.00012  -0.00259
  24       24S         -0.19086   0.00000   0.00000  -0.00032   0.06786
  25       25S         -0.00056   0.00000   0.00000  -0.00022  -0.00797
  26       26PX         0.00000  -0.00000   0.00000   0.00000   0.00000
  27       26PY         0.00000   0.00000  -0.00000   0.00000   0.00000
  28       26PZ         0.00000   0.00000   0.00000  -0.00000  -0.00000
  29       27PX         0.00000   0.00000   0.00000   0.00000   0.00000
  30       27PY         0.00000   0.00000   0.00000   0.00000   0.00000
  31       27PZ        -0.00000   0.00000   0.00000   0.00000   0.00000
  32       28PX         0.00000  -0.00000   0.00000   0.00000   0.00000
  33       28PY         0.00000   0.00000  -0.00000   0.00000   0.00000
  34       28PZ         0.00000   0.00000   0.00000  -0.00000  -0.00000
  35       29PX         0.00000   0.00000   0.00000   0.00000   0.00000
  36       29PY         0.00000   0.00000   0.00000   0.00000   0.00000
  37       29PZ        -0.00000   0.00000   0.00000   0.00000   0.00000
  38       30PX         0.00000  -0.00002   0.00000   0.00000   0.00000
  39       30PY         0.00000   0.00000  -0.00002   0.00000   0.00000
  40       30PZ         0.00000   0.00000   0.00000  -0.00002  -0.00000
  41       31PX         0.00000   0.00005   0.00000   0.00000   0.00000
  42       31PY         0.00000   0.00000   0.00005   0.00000   0.00000
  43       31PZ        -0.00001   0.00000   0.00000   0.00005   0.00001
  44       32PX         0.00000  -0.00013   0.00000   0.00000   0.00000
  45       32PY         0.00000   0.00000  -0.00013   0.00000   0.00000
  46       32PZ         0.00002   0.00000   0.00000  -0.00013  -0.00003
  47       33PX         0.00000  -0.00019   0.00000   0.00000   0.00000
  48       33PY         0.00000   0.00000  -0.00019   0.00000   0.00000
  49       33PZ        -0.00006   0.00000   0.00000  -0.00018   0.00000
  50       34PX         0.00000   0.01339   0.00000   0.00000   0.00000
  51       34PY         0.00000   0.00000   0.01339   0.00000   0.00000
  52       34PZ         0.00018   0.00000   0.00000   0.01339   0.00189
  53       35PX         0.00000  -0.07599   0.00000   0.00000   0.00000
  54       35PY         0.00000   0.00000  -0.07599   0.00000   0.00000
  55       35PZ        -0.00056   0.00000   0.00000  -0.07608  -0.01138
  56       36PX         0.00000  -0.01802   0.00000   0.00000   0.00000
  57       36PY         0.00000   0.00000  -0.01802   0.00000   0.00000
  58       36PZ        -0.00394   0.00000   0.00000  -0.01786  -0.00139
  59       37PX         0.00000   0.20165   0.00000   0.00000   0.00000
  60       37PY         0.00000   0.00000   0.20165   0.00000   0.00000
  61       37PZ        -0.00005   0.00000   0.00000   0.20198   0.03223
  62       38PX         0.00000   0.20529   0.00000   0.00000   0.00000
  63       38PY         0.00000   0.00000   0.20529   0.00000   0.00000
  64       38PZ         0.00303   0.00000   0.00000   0.20579   0.03224
  65       39PX         0.00000   0.37922   0.00000   0.00000   0.00000
  66       39PY         0.00000   0.00000   0.37922   0.00000   0.00000
  67       39PZ        -0.00148   0.00000   0.00000   0.37768   0.06982
  68       40PX         0.00000   0.15681   0.00000   0.00000   0.00000
  69       40PY         0.00000   0.00000   0.15681   0.00000   0.00000
  70       40PZ         0.00541   0.00000   0.00000   0.15350   0.01969
  71       41PX         0.00000   0.01269   0.00000   0.00000   0.00000
  72       41PY         0.00000   0.00000   0.01269   0.00000   0.00000
  73       41PZ         0.00272   0.00000   0.00000   0.01182  -0.10202
  74       42PX         0.00000  -0.00116   0.00000   0.00000   0.00000
  75       42PY         0.00000   0.00000  -0.00116   0.00000   0.00000
  76       42PZ        -0.00537   0.00000   0.00000  -0.00087  -0.08822
  77       43PX         0.00000   0.00044   0.00000   0.00000   0.00000
  78       43PY         0.00000   0.00000   0.00044   0.00000   0.00000
  79       43PZ         0.00070   0.00000   0.00000   0.00123  -0.00907
  80       44PX         0.00000  -0.02856   0.00000   0.00000   0.00000
  81       44PY         0.00000   0.00000  -0.02856   0.00000   0.00000
  82       44PZ         0.00418   0.00000   0.00000  -0.02866  -0.00501
  83       45PX         0.00000   0.20602   0.00000   0.00000   0.00000
  84       45PY         0.00000   0.00000   0.20602   0.00000   0.00000
  85       45PZ        -0.00075   0.00000   0.00000   0.20664   0.03333
  86       46PX         0.00000  -0.00013   0.00000   0.00000   0.00000
  87       46PY         0.00000   0.00000  -0.00013   0.00000   0.00000
  88       46PZ        -0.00009   0.00000   0.00000  -0.00002   0.00232
  89       47D 0        0.00000   0.00000   0.00000   0.00000   0.00000
  90       47D+1        0.00000   0.00000   0.00000   0.00000   0.00000
  91       47D-1        0.00000   0.00000   0.00000   0.00000   0.00000
  92       47D+2        0.00000   0.00000   0.00000   0.00000  -0.00000
  93       47D-2        0.00000   0.00000   0.00000   0.00000   0.00000
  94       48D 0       -0.00000   0.00000   0.00000   0.00000   0.00001
  95       48D+1        0.00000  -0.00000   0.00000   0.00000   0.00000
  96       48D-1        0.00000   0.00000  -0.00000   0.00000   0.00000
  97       48D+2        0.00000   0.00000   0.00000  -0.00000   0.00000
  98       48D-2        0.00000   0.00000   0.00000   0.00000   0.00000
  99       49D 0       -0.00004   0.00000   0.00000   0.00010   0.00203
 100       49D+1        0.00000   0.00002   0.00000   0.00000   0.00000
 101       49D-1        0.00000   0.00000   0.00002   0.00000   0.00000
 102       49D+2       -0.00000   0.00000   0.00000   0.00000  -0.00000
 103       49D-2        0.00000   0.00000   0.00000   0.00000   0.00000
 104       50D 0       -0.00018   0.00000   0.00000   0.00039   0.00821
 105       50D+1        0.00000   0.00005   0.00000   0.00000   0.00000
 106       50D-1        0.00000   0.00000   0.00005   0.00000   0.00000
 107       50D+2        0.00000   0.00000   0.00000  -0.00000   0.00000
 108       50D-2        0.00000   0.00000   0.00000   0.00000   0.00000
 109       51D 0       -0.00013   0.00000   0.00000   0.00110   0.02105
 110       51D+1        0.00000   0.00019   0.00000   0.00000   0.00000
 111       51D-1        0.00000   0.00000   0.00019   0.00000   0.00000
 112       51D+2       -0.00000   0.00000   0.00000   0.00000  -0.00000
 113       51D-2        0.00000   0.00000   0.00000   0.00000   0.00000
 114       52D 0        0.00134   0.00000   0.00000   0.00275   0.03836
 115       52D+1        0.00000   0.00077   0.00000   0.00000   0.00000
 116       52D-1        0.00000   0.00000   0.00077   0.00000   0.00000
 117       52D+2       -0.00000   0.00000   0.00000   0.00000  -0.00000
 118       52D-2        0.00000   0.00000   0.00000   0.00000   0.00000
 119       53D 0       -0.00017   0.00000   0.00000   0.00353   0.05222
 120       53D+1        0.00000   0.00072   0.00000   0.00000   0.00000
 121       53D-1        0.00000   0.00000   0.00072   0.00000   0.00000
 122       53D+2       -0.00000   0.00000   0.00000   0.00000  -0.00000
 123       53D-2        0.00000   0.00000   0.00000   0.00000   0.00000
 124       54D 0       -0.00293   0.00000   0.00000   0.00200   0.05477
 125       54D+1        0.00000   0.00040   0.00000   0.00000   0.00000
 126       54D-1        0.00000   0.00000   0.00040   0.00000   0.00000
 127       54D+2        0.00000   0.00000   0.00000  -0.00000   0.00000
 128       54D-2        0.00000   0.00000   0.00000   0.00000   0.00000
 129       55D 0       -0.00286   0.00000   0.00000   0.00200   0.05276
 130       55D+1        0.00000   0.00053   0.00000   0.00000   0.00000
 131       55D-1        0.00000   0.00000   0.00053   0.00000   0.00000
 132       55D+2       -0.00000   0.00000   0.00000   0.00000  -0.00000
 133       55D-2        0.00000   0.00000   0.00000   0.00000   0.00000
 134       56D 0        0.00195   0.00000   0.00000   0.00151   0.03714
 135       56D+1        0.00000   0.00038   0.00000   0.00000   0.00000
 136       56D-1        0.00000   0.00000   0.00038   0.00000   0.00000
 137       56D+2        0.00000   0.00000   0.00000  -0.00000   0.00000
 138       56D-2        0.00000   0.00000   0.00000   0.00000   0.00000
 139       57D 0        0.00085   0.00000   0.00000   0.00025   0.00694
 140       57D+1        0.00000   0.00005   0.00000   0.00000   0.00000
 141       57D-1        0.00000   0.00000   0.00005   0.00000   0.00000
 142       57D+2       -0.00000   0.00000   0.00000   0.00000  -0.00000
 143       57D-2        0.00000   0.00000   0.00000   0.00000   0.00000
 144       58D 0       -0.00103   0.00000   0.00000  -0.00018   0.00173
 145       58D+1        0.00000  -0.00016   0.00000   0.00000   0.00000
 146       58D-1        0.00000   0.00000  -0.00016   0.00000   0.00000
 147       58D+2        0.00000   0.00000   0.00000  -0.00000   0.00000
 148       58D-2        0.00000   0.00000   0.00000   0.00000   0.00000
 149       59D 0       -0.00210   0.00000   0.00000  -0.00110   0.00028
 150       59D+1        0.00000  -0.00052   0.00000   0.00000   0.00000
 151       59D-1        0.00000   0.00000  -0.00052   0.00000   0.00000
 152       59D+2        0.00000   0.00000   0.00000  -0.00000   0.00000
 153       59D-2        0.00000   0.00000   0.00000   0.00000   0.00000
 154       60D 0       -0.00015   0.00000   0.00000  -0.00011  -0.00119
 155       60D+1        0.00000   0.00001   0.00000   0.00000   0.00000
 156       60D-1        0.00000   0.00000   0.00001   0.00000   0.00000
 157       60D+2        0.00000   0.00000   0.00000  -0.00000   0.00000
 158       60D-2        0.00000   0.00000   0.00000   0.00000   0.00000
 159       61F 0        0.00003   0.00000   0.00000  -0.00006  -0.00028
 160       61F+1        0.00000  -0.00007   0.00000   0.00000   0.00000
 161       61F-1        0.00000   0.00000  -0.00007   0.00000   0.00000
 162       61F+2        0.00000   0.00000   0.00000  -0.00000  -0.00000
 163       61F-2        0.00000   0.00000   0.00000   0.00000   0.00000
 164       61F+3        0.00000  -0.00000   0.00000   0.00000   0.00000
 165       61F-3        0.00000   0.00000  -0.00000   0.00000   0.00000
 166       62F 0       -0.00005   0.00000   0.00000  -0.00023  -0.00064
 167       62F+1        0.00000  -0.00012   0.00000   0.00000   0.00000
 168       62F-1        0.00000   0.00000  -0.00012   0.00000   0.00000
 169       62F+2        0.00000   0.00000   0.00000   0.00000   0.00000
 170       62F-2        0.00000   0.00000   0.00000   0.00000   0.00000
 171       62F+3        0.00000  -0.00000   0.00000   0.00000   0.00000
 172       62F-3        0.00000   0.00000  -0.00000   0.00000   0.00000
 173       63F 0        0.00024   0.00000   0.00000  -0.00088  -0.00375
 174       63F+1        0.00000  -0.00102   0.00000   0.00000   0.00000
 175       63F-1        0.00000   0.00000  -0.00102   0.00000   0.00000
 176       63F+2        0.00000   0.00000   0.00000   0.00000  -0.00000
 177       63F-2        0.00000   0.00000   0.00000   0.00000   0.00000
 178       63F+3        0.00000   0.00000   0.00000   0.00000   0.00000
 179       63F-3        0.00000   0.00000   0.00000   0.00000   0.00000
 180       64F 0        0.00079   0.00000   0.00000  -0.00047  -0.01050
 181       64F+1        0.00000  -0.00086   0.00000   0.00000   0.00000
 182       64F-1        0.00000   0.00000  -0.00086   0.00000   0.00000
 183       64F+2       -0.00000   0.00000   0.00000  -0.00000   0.00000
 184       64F-2        0.00000   0.00000   0.00000   0.00000   0.00000
 185       64F+3        0.00000   0.00000   0.00000   0.00000   0.00000
 186       64F-3        0.00000   0.00000   0.00000   0.00000   0.00000
 187       65F 0       -0.00074   0.00000   0.00000  -0.00008  -0.00613
 188       65F+1        0.00000   0.00002   0.00000   0.00000   0.00000
 189       65F-1        0.00000   0.00000   0.00002   0.00000   0.00000
 190       65F+2       -0.00000   0.00000   0.00000  -0.00000   0.00000
 191       65F-2        0.00000   0.00000   0.00000   0.00000   0.00000
 192       65F+3        0.00000   0.00000   0.00000   0.00000   0.00000
 193       65F-3        0.00000   0.00000   0.00000   0.00000   0.00000
 194       66G 0       -0.00002   0.00000   0.00000  -0.00001   0.00000
 195       66G+1        0.00000  -0.00001   0.00000   0.00000   0.00000
 196       66G-1        0.00000   0.00000  -0.00001   0.00000   0.00000
 197       66G+2        0.00000   0.00000   0.00000  -0.00000  -0.00000
 198       66G-2        0.00000   0.00000   0.00000   0.00000   0.00000
 199       66G+3        0.00000  -0.00000   0.00000   0.00000   0.00000
 200       66G-3        0.00000   0.00000  -0.00000   0.00000   0.00000
 201       66G+4        0.00000   0.00000   0.00000   0.00000  -0.00000
 202       66G-4        0.00000   0.00000   0.00000   0.00000   0.00000
 203       67G 0        0.00006   0.00000   0.00000   0.00002   0.00016
 204       67G+1        0.00000   0.00002   0.00000   0.00000   0.00000
 205       67G-1        0.00000   0.00000   0.00002   0.00000   0.00000
 206       67G+2        0.00000   0.00000   0.00000  -0.00000   0.00000
 207       67G-2        0.00000   0.00000   0.00000   0.00000   0.00000
 208       67G+3        0.00000   0.00000   0.00000   0.00000   0.00000
 209       67G-3        0.00000   0.00000   0.00000   0.00000   0.00000
 210       67G+4       -0.00000   0.00000   0.00000  -0.00000   0.00000
 211       67G-4        0.00000   0.00000   0.00000   0.00000   0.00000
 212       68G 0       -0.00016   0.00000   0.00000  -0.00028   0.00080
 213       68G+1        0.00000  -0.00002   0.00000   0.00000   0.00000
 214       68G-1        0.00000   0.00000  -0.00002   0.00000   0.00000
 215       68G+2        0.00000   0.00000   0.00000   0.00000   0.00000
 216       68G-2        0.00000   0.00000   0.00000   0.00000   0.00000
 217       68G+3        0.00000   0.00000   0.00000   0.00000   0.00000
 218       68G-3        0.00000   0.00000   0.00000   0.00000   0.00000
 219       68G+4        0.00000   0.00000   0.00000   0.00000  -0.00000
 220       68G-4        0.00000   0.00000   0.00000   0.00000   0.00000
 221       69G 0        0.00003   0.00000   0.00000   0.00002   0.00183
 222       69G+1        0.00000   0.00013   0.00000   0.00000   0.00000
 223       69G-1        0.00000   0.00000   0.00013   0.00000   0.00000
 224       69G+2       -0.00000   0.00000   0.00000   0.00000  -0.00000
 225       69G-2        0.00000   0.00000   0.00000   0.00000   0.00000
 226       69G+3        0.00000  -0.00000   0.00000   0.00000   0.00000
 227       69G-3        0.00000   0.00000  -0.00000   0.00000   0.00000
 228       69G+4       -0.00000   0.00000   0.00000  -0.00000   0.00000
 229       69G-4        0.00000   0.00000   0.00000   0.00000   0.00000
 230       70H 0        0.00000   0.00000   0.00000  -0.00001  -0.00001
 231       70H+1        0.00000  -0.00000   0.00000   0.00000   0.00000
 232       70H-1        0.00000   0.00000  -0.00000   0.00000   0.00000
 233       70H+2       -0.00000   0.00000   0.00000  -0.00000  -0.00000
 234       70H-2        0.00000   0.00000   0.00000   0.00000   0.00000
 235       70H+3        0.00000  -0.00000   0.00000   0.00000   0.00000
 236       70H-3        0.00000   0.00000  -0.00000   0.00000   0.00000
 237       70H+4       -0.00000   0.00000   0.00000  -0.00000  -0.00000
 238       70H-4        0.00000   0.00000   0.00000   0.00000   0.00000
 239       70H+5        0.00000  -0.00000   0.00000   0.00000   0.00000
 240       70H-5        0.00000   0.00000  -0.00000   0.00000   0.00000
 241       71H 0       -0.00002   0.00000   0.00000   0.00003  -0.00006
 242       71H+1        0.00000   0.00001   0.00000   0.00000   0.00000
 243       71H-1        0.00000   0.00000   0.00001   0.00000   0.00000
 244       71H+2        0.00000   0.00000   0.00000   0.00000   0.00000
 245       71H-2        0.00000   0.00000   0.00000   0.00000   0.00000
 246       71H+3        0.00000   0.00000   0.00000   0.00000   0.00000
 247       71H-3        0.00000   0.00000   0.00000   0.00000   0.00000
 248       71H+4        0.00000   0.00000   0.00000  -0.00000   0.00000
 249       71H-4        0.00000   0.00000   0.00000   0.00000   0.00000
 250       71H+5        0.00000   0.00000   0.00000   0.00000   0.00000
 251       71H-5        0.00000   0.00000   0.00000   0.00000   0.00000
 252       72H 0        0.00004   0.00000   0.00000   0.00015  -0.00012
 253       72H+1        0.00000   0.00004   0.00000   0.00000   0.00000
 254       72H-1        0.00000   0.00000   0.00004   0.00000   0.00000
 255       72H+2       -0.00000   0.00000   0.00000  -0.00000   0.00000
 256       72H-2        0.00000   0.00000   0.00000   0.00000   0.00000
 257       72H+3        0.00000  -0.00000   0.00000   0.00000   0.00000
 258       72H-3        0.00000   0.00000  -0.00000   0.00000   0.00000
 259       72H+4       -0.00000   0.00000   0.00000   0.00000  -0.00000
 260       72H-4        0.00000   0.00000   0.00000   0.00000   0.00000
 261       72H+5        0.00000  -0.00000   0.00000   0.00000   0.00000
 262       72H-5        0.00000   0.00000  -0.00000   0.00000   0.00000
 263 2   H  1S          0.00000   0.00000   0.00000  -0.00002   0.00036
 264        2S          0.00014   0.00000   0.00000  -0.00057   0.01324
 265        3S          0.00026   0.00000   0.00000  -0.00225   0.05888
 266        4S          0.00095   0.00000   0.00000  -0.00693   0.18183
 267        5S          0.00455   0.00000   0.00000  -0.00767   0.31218
 268        6S         -0.00509   0.00000   0.00000  -0.00481   0.20962
 269        7S          0.00059   0.00000   0.00000   0.00077   0.02625
 270        8PX         0.00000   0.00009   0.00000   0.00000   0.00000
 271        8PY         0.00000   0.00000   0.00009   0.00000   0.00000
 272        8PZ         0.00001   0.00000   0.00000  -0.00067   0.00180
 273        9PX         0.00000   0.00040   0.00000   0.00000   0.00000
 274        9PY         0.00000   0.00000   0.00040   0.00000   0.00000
 275        9PZ         0.00102   0.00000   0.00000  -0.00184   0.01015
 276       10PX         0.00000   0.00086   0.00000   0.00000   0.00000
 277       10PY         0.00000   0.00000   0.00086   0.00000   0.00000
 278       10PZ         0.00451   0.00000   0.00000  -0.00195   0.02131
 279       11PX         0.00000   0.00034   0.00000   0.00000   0.00000
 280       11PY         0.00000   0.00000   0.00034   0.00000   0.00000
 281       11PZ         0.00035   0.00000   0.00000  -0.00068   0.00909
 282       12D 0        0.00003   0.00000   0.00000  -0.00037   0.00046
 283       12D+1        0.00000   0.00008   0.00000   0.00000   0.00000
 284       12D-1        0.00000   0.00000   0.00008   0.00000   0.00000
 285       12D+2       -0.00000   0.00000   0.00000   0.00000  -0.00000
 286       12D-2        0.00000   0.00000   0.00000   0.00000   0.00000
 287       13D 0        0.00138   0.00000   0.00000  -0.00048   0.00332
 288       13D+1        0.00000   0.00032   0.00000   0.00000   0.00000
 289       13D-1        0.00000   0.00000   0.00032   0.00000   0.00000
 290       13D+2        0.00000   0.00000   0.00000  -0.00000   0.00000
 291       13D-2        0.00000   0.00000   0.00000   0.00000   0.00000
 292       14D 0        0.00211   0.00000   0.00000   0.00001   0.00216
 293       14D+1        0.00000   0.00033   0.00000   0.00000   0.00000
 294       14D-1        0.00000   0.00000   0.00033   0.00000   0.00000
 295       14D+2       -0.00000   0.00000   0.00000  -0.00000   0.00000
 296       14D-2        0.00000   0.00000   0.00000   0.00000   0.00000
 297       15F 0        0.00022   0.00000   0.00000  -0.00021   0.00036
 298       15F+1        0.00000   0.00008   0.00000   0.00000   0.00000
 299       15F-1        0.00000   0.00000   0.00008   0.00000   0.00000
 300       15F+2       -0.00000   0.00000   0.00000  -0.00000   0.00000
 301       15F-2        0.00000   0.00000   0.00000   0.00000   0.00000
 302       15F+3        0.00000   0.00000   0.00000   0.00000   0.00000
 303       15F-3        0.00000   0.00000   0.00000   0.00000   0.00000
 304       16F 0        0.00065   0.00000   0.00000   0.00011   0.00089
 305       16F+1        0.00000   0.00003   0.00000   0.00000   0.00000
 306       16F-1        0.00000   0.00000   0.00003   0.00000   0.00000
 307       16F+2        0.00000   0.00000   0.00000  -0.00000  -0.00000
 308       16F-2        0.00000   0.00000   0.00000   0.00000   0.00000
 309       16F+3        0.00000  -0.00000   0.00000   0.00000   0.00000
 310       16F-3        0.00000   0.00000  -0.00000   0.00000   0.00000
                           6         7         8         9        10
                           O         O         O         O         O
     Eigenvalues --    -0.63800  -0.63800  -0.63220  -0.63220  -0.41789
   1 1   Mn 1S          0.00000   0.00000  -0.00000   0.00000   0.00000
   2        2S         -0.00000   0.00000   0.00000   0.00000   0.00000
   3        3S          0.00000   0.00000  -0.00000   0.00000   0.00000
   4        4S         -0.00000   0.00000   0.00000   0.00000   0.00000
   5        5S          0.00000   0.00000  -0.00000   0.00000   0.00000
   6        6S         -0.00000   0.00000   0.00000   0.00000   0.00000
   7        7S          0.00000   0.00000  -0.00000   0.00000   0.00000
   8        8S         -0.00000   0.00000   0.00001   0.00000   0.00000
   9        9S          0.00000   0.00000  -0.00004   0.00000   0.00000
  10       10S         -0.00000   0.00000   0.00012   0.00000   0.00000
  11       11S          0.00000   0.00000  -0.00034   0.00000   0.00000
  12       12S         -0.00000   0.00000   0.00098   0.00000   0.00000
  13       13S          0.00000   0.00000  -0.00327   0.00000   0.00000
  14       14S         -0.00000   0.00000   0.01646   0.00000   0.00000
  15       15S          0.00000   0.00000  -0.02545   0.00000   0.00000
  16       16S         -0.00000   0.00000  -0.07695   0.00000   0.00000
[...]
  93       47D-2        0.00000   0.00000  -0.00000   0.00000
  94       48D 0        0.00000   0.00000   0.00000   0.00000
  95       48D+1        0.00000   0.00000  -0.00000   0.00000
  96       48D-1        0.00000   0.00000  -0.00000   0.00000
  97       48D+2        0.00000   0.00000   0.00000   0.00000
  98       48D-2        0.00000   0.00000   0.00000   0.00000
  99       49D 0        0.00187   0.00182   0.00005   0.00177
 100       49D+1        0.00189   0.00189   0.00000   0.00189
 101       49D-1        0.00189   0.00189   0.00000   0.00189
 102       49D+2        0.00189   0.00189  -0.00000   0.00189
 103       49D-2        0.00189   0.00189  -0.00000   0.00189
 104       50D 0        0.01697   0.01653   0.00044   0.01608
 105       50D+1        0.01717   0.01717   0.00000   0.01717
 106       50D-1        0.01717   0.01717   0.00000   0.01717
 107       50D+2        0.01712   0.01712   0.00000   0.01712
 108       50D-2        0.01712   0.01712   0.00000   0.01712
 109       51D 0        0.07418   0.07218   0.00200   0.07017
 110       51D+1        0.07494   0.07494   0.00000   0.07494
 111       51D-1        0.07494   0.07494   0.00000   0.07494
 112       51D+2        0.07477   0.07477  -0.00000   0.07477
 113       51D-2        0.07477   0.07477  -0.00000   0.07477
 114       52D 0        0.17911   0.17368   0.00543   0.16825
 115       52D+1        0.18038   0.18038   0.00000   0.18038
 116       52D-1        0.18038   0.18038   0.00000   0.18038
 117       52D+2        0.18004   0.18004  -0.00000   0.18004
 118       52D-2        0.18004   0.18004  -0.00000   0.18004
 119       53D 0        0.28779   0.27770   0.01009   0.26761
 120       53D+1        0.28783   0.28783   0.00000   0.28783
 121       53D-1        0.28783   0.28783   0.00000   0.28783
 122       53D+2        0.28812   0.28812  -0.00000   0.28812
 123       53D-2        0.28812   0.28812  -0.00000   0.28812
 124       54D 0        0.27208   0.25716   0.01492   0.24224
 125       54D+1        0.26249   0.26249   0.00000   0.26249
 126       54D-1        0.26249   0.26249   0.00000   0.26249
 127       54D+2        0.26523   0.26523  -0.00000   0.26523
 128       54D-2        0.26523   0.26523  -0.00000   0.26523
 129       55D 0        0.15248   0.13214   0.02034   0.11180
 130       55D+1        0.12390   0.12390   0.00000   0.12390
 131       55D-1        0.12390   0.12390   0.00000   0.12390
 132       55D+2        0.12593   0.12593  -0.00000   0.12593
 133       55D-2        0.12593   0.12593  -0.00000   0.12593
 134       56D 0        0.04463   0.02990   0.01473   0.01517
 135       56D+1        0.02183   0.02183   0.00000   0.02183
 136       56D-1        0.02183   0.02183   0.00000   0.02183
 137       56D+2        0.02033   0.02033  -0.00000   0.02033
 138       56D-2        0.02033   0.02033  -0.00000   0.02033
 139       57D 0        0.00282   0.00118   0.00164  -0.00046
 140       57D+1        0.00039   0.00039   0.00000   0.00039
 141       57D-1        0.00039   0.00039   0.00000   0.00039
 142       57D+2        0.00018   0.00018   0.00000   0.00018
 143       57D-2        0.00018   0.00018   0.00000   0.00018
 144       58D 0        0.01209   0.01189   0.00021   0.01168
 145       58D+1        0.01230   0.01230  -0.00000   0.01230
 146       58D-1        0.01230   0.01230  -0.00000   0.01230
 147       58D+2        0.01229   0.01229   0.00000   0.01229
 148       58D-2        0.01229   0.01229   0.00000   0.01229
 149       59D 0        0.01433   0.01428   0.00005   0.01424
 150       59D+1        0.01420   0.01420  -0.00000   0.01420
 151       59D-1        0.01420   0.01420  -0.00000   0.01420
 152       59D+2        0.01403   0.01403   0.00000   0.01403
 153       59D-2        0.01403   0.01403   0.00000   0.01403
 154       60D 0       -0.00020  -0.00010  -0.00010   0.00000
 155       60D+1        0.00001   0.00001   0.00000   0.00001
 156       60D-1        0.00001   0.00001   0.00000   0.00001
 157       60D+2        0.00001   0.00001  -0.00000   0.00001
 158       60D-2        0.00001   0.00001  -0.00000   0.00001
 159       61F 0        0.00000   0.00000   0.00000   0.00000
 160       61F+1        0.00000   0.00000   0.00000   0.00000
 161       61F-1        0.00000   0.00000   0.00000   0.00000
 162       61F+2        0.00000   0.00000   0.00000   0.00000
 163       61F-2        0.00000   0.00000   0.00000   0.00000
 164       61F+3       -0.00000  -0.00000   0.00000  -0.00000
 165       61F-3       -0.00000  -0.00000   0.00000  -0.00000
 166       62F 0        0.00002   0.00001   0.00001   0.00000
 167       62F+1        0.00000   0.00000   0.00000   0.00000
 168       62F-1        0.00000   0.00000   0.00000   0.00000
 169       62F+2        0.00000   0.00000  -0.00000   0.00000
 170       62F-2        0.00000   0.00000  -0.00000   0.00000
 171       62F+3        0.00000   0.00000   0.00000   0.00000
 172       62F-3       -0.00000  -0.00000   0.00000  -0.00000
 173       63F 0        0.00036   0.00019   0.00017   0.00002
 174       63F+1        0.00000   0.00000   0.00000   0.00000
 175       63F-1        0.00000   0.00000   0.00000   0.00000
 176       63F+2        0.00000   0.00000   0.00000   0.00000
 177       63F-2        0.00000   0.00000   0.00000   0.00000
 178       63F+3       -0.00000  -0.00000  -0.00000  -0.00000
 179       63F-3        0.00000   0.00000  -0.00000   0.00000
 180       64F 0        0.00397   0.00213   0.00184   0.00029
 181       64F+1        0.00000   0.00000   0.00000   0.00000
 182       64F-1        0.00000   0.00000   0.00000   0.00000
 183       64F+2        0.00001   0.00001   0.00000   0.00001
 184       64F-2        0.00001   0.00001  -0.00000   0.00001
 185       64F+3       -0.00000  -0.00000   0.00000  -0.00000
 186       64F-3       -0.00000  -0.00000  -0.00000  -0.00000
 187       65F 0        0.00260   0.00147   0.00113   0.00033
 188       65F+1       -0.00000  -0.00000   0.00000  -0.00000
 189       65F-1       -0.00000  -0.00000   0.00000  -0.00000
 190       65F+2        0.00001   0.00001  -0.00000   0.00001
 191       65F-2        0.00001   0.00001  -0.00000   0.00001
 192       65F+3        0.00000   0.00000   0.00000   0.00000
 193       65F-3        0.00000   0.00000   0.00000   0.00000
 194       66G 0        0.00000   0.00000   0.00000   0.00000
 195       66G+1        0.00000   0.00000   0.00000   0.00000
 196       66G-1        0.00000   0.00000   0.00000   0.00000
 197       66G+2       -0.00000  -0.00000  -0.00000  -0.00000
 198       66G-2       -0.00000  -0.00000  -0.00000  -0.00000
 199       66G+3        0.00000   0.00000  -0.00000   0.00000
 200       66G-3       -0.00000  -0.00000  -0.00000  -0.00000
 201       66G+4        0.00000   0.00000   0.00000   0.00000
 202       66G-4        0.00000   0.00000   0.00000   0.00000
 203       67G 0        0.00000   0.00000   0.00000   0.00000
 204       67G+1        0.00000   0.00000  -0.00000   0.00000
 205       67G-1        0.00000   0.00000  -0.00000   0.00000
 206       67G+2        0.00000   0.00000   0.00000   0.00000
 207       67G-2        0.00000   0.00000   0.00000   0.00000
 208       67G+3       -0.00000  -0.00000  -0.00000  -0.00000
 209       67G-3       -0.00000  -0.00000   0.00000  -0.00000
 210       67G+4       -0.00000  -0.00000  -0.00000  -0.00000
 211       67G-4        0.00000   0.00000  -0.00000   0.00000
 212       68G 0        0.00009   0.00005   0.00004   0.00001
 213       68G+1        0.00000   0.00000   0.00000   0.00000
 214       68G-1        0.00000   0.00000   0.00000   0.00000
 215       68G+2        0.00000   0.00000  -0.00000   0.00000
 216       68G-2        0.00000   0.00000  -0.00000   0.00000
 217       68G+3       -0.00000  -0.00000  -0.00000  -0.00000
 218       68G-3        0.00000   0.00000  -0.00000   0.00000
 219       68G+4        0.00000   0.00000   0.00000   0.00000
 220       68G-4       -0.00000  -0.00000   0.00000  -0.00000
 221       69G 0        0.00053   0.00029   0.00024   0.00005
 222       69G+1       -0.00000  -0.00000  -0.00000  -0.00000
 223       69G-1       -0.00000  -0.00000  -0.00000  -0.00000
 224       69G+2        0.00000   0.00000   0.00000   0.00000
 225       69G-2        0.00000   0.00000   0.00000   0.00000
 226       69G+3        0.00000   0.00000  -0.00000   0.00000
 227       69G-3        0.00000   0.00000   0.00000   0.00000
 228       69G+4       -0.00000  -0.00000  -0.00000  -0.00000
 229       69G-4        0.00000   0.00000  -0.00000   0.00000
 230       70H 0        0.00000   0.00000   0.00000   0.00000
 231       70H+1        0.00000   0.00000  -0.00000   0.00000
 232       70H-1        0.00000   0.00000  -0.00000   0.00000
 233       70H+2        0.00000   0.00000  -0.00000   0.00000
 234       70H-2        0.00000   0.00000  -0.00000   0.00000
 235       70H+3        0.00000   0.00000  -0.00000   0.00000
 236       70H-3        0.00000   0.00000   0.00000   0.00000
 237       70H+4        0.00000   0.00000   0.00000   0.00000
 238       70H-4       -0.00000  -0.00000   0.00000  -0.00000
 239       70H+5        0.00000   0.00000  -0.00000   0.00000
 240       70H-5       -0.00000  -0.00000  -0.00000  -0.00000
 241       71H 0        0.00000   0.00000   0.00000   0.00000
 242       71H+1        0.00000   0.00000   0.00000   0.00000
 243       71H-1        0.00000   0.00000   0.00000   0.00000
 244       71H+2        0.00000   0.00000   0.00000   0.00000
 245       71H-2        0.00000   0.00000   0.00000   0.00000
 246       71H+3        0.00000   0.00000  -0.00000   0.00000
 247       71H-3        0.00000   0.00000   0.00000   0.00000
 248       71H+4       -0.00000  -0.00000  -0.00000  -0.00000
 249       71H-4       -0.00000  -0.00000  -0.00000  -0.00000
 250       71H+5        0.00000   0.00000  -0.00000   0.00000
 251       71H-5       -0.00000  -0.00000  -0.00000  -0.00000
 252       72H 0        0.00001   0.00001   0.00001  -0.00000
 253       72H+1        0.00000   0.00000   0.00000   0.00000
 254       72H-1        0.00000   0.00000   0.00000   0.00000
 255       72H+2       -0.00000  -0.00000  -0.00000  -0.00000
 256       72H-2       -0.00000  -0.00000  -0.00000  -0.00000
 257       72H+3       -0.00000  -0.00000  -0.00000  -0.00000
 258       72H-3        0.00000   0.00000   0.00000   0.00000
 259       72H+4        0.00000   0.00000   0.00000   0.00000
 260       72H-4        0.00000   0.00000   0.00000   0.00000
 261       72H+5        0.00000   0.00000  -0.00000   0.00000
 262       72H-5        0.00000   0.00000  -0.00000   0.00000
 263 2   H  1S          0.00004   0.00002   0.00002   0.00000
 264        2S          0.00568   0.00294   0.00275   0.00019
 265        3S          0.05719   0.02953   0.02766   0.00187
 266        4S          0.29036   0.14952   0.14084   0.00868
 267        5S          0.59672   0.30767   0.28905   0.01863
 268        6S          0.36539   0.18939   0.17600   0.01339
 269        7S          0.02842   0.01445   0.01397   0.00049
 270        8PX         0.00004   0.00004   0.00000   0.00004
 271        8PY         0.00004   0.00004   0.00000   0.00004
 272        8PZ         0.00035   0.00024   0.00011   0.00013
 273        9PX         0.00049   0.00048   0.00001   0.00047
 274        9PY         0.00049   0.00048   0.00001   0.00047
 275        9PZ         0.00300   0.00176   0.00124   0.00053
 276       10PX         0.00138   0.00129   0.00009   0.00120
 277       10PY         0.00138   0.00129   0.00009   0.00120
 278       10PZ         0.00701   0.00379   0.00322   0.00057
 279       11PX         0.00026   0.00023   0.00004   0.00019
 280       11PY         0.00026   0.00023   0.00004   0.00019
 281       11PZ         0.01162   0.01089   0.00074   0.01015
 282       12D 0        0.00008   0.00006   0.00002   0.00005
 283       12D+1        0.00003   0.00003   0.00000   0.00003
 284       12D-1        0.00003   0.00003   0.00000   0.00003
 285       12D+2        0.00000   0.00000   0.00000   0.00000
 286       12D-2        0.00000   0.00000   0.00000   0.00000
 287       13D 0        0.00047   0.00023   0.00024  -0.00002
 288       13D+1        0.00039   0.00036   0.00003   0.00033
 289       13D-1        0.00039   0.00036   0.00003   0.00033
 290       13D+2        0.00003   0.00003  -0.00000   0.00003
 291       13D-2        0.00003   0.00003  -0.00000   0.00003
 292       14D 0        0.00189   0.00118   0.00072   0.00046
 293       14D+1        0.00026   0.00018   0.00008   0.00010
 294       14D-1        0.00026   0.00018   0.00008   0.00010
 295       14D+2        0.00001   0.00001  -0.00000   0.00001
 296       14D-2        0.00001   0.00001  -0.00000   0.00001
 297       15F 0        0.00008   0.00006   0.00002   0.00003
 298       15F+1        0.00004   0.00003   0.00000   0.00003
 299       15F-1        0.00004   0.00003   0.00000   0.00003
 300       15F+2        0.00001   0.00001  -0.00000   0.00001
 301       15F-2        0.00001   0.00001  -0.00000   0.00001
 302       15F+3       -0.00000  -0.00000   0.00000  -0.00000
 303       15F-3       -0.00000  -0.00000   0.00000  -0.00000
 304       16F 0        0.00019   0.00006   0.00013  -0.00007
 305       16F+1        0.00005   0.00004   0.00001   0.00003
 306       16F-1        0.00005   0.00004   0.00001   0.00003
 307       16F+2       -0.00001  -0.00001   0.00000  -0.00001
 308       16F-2       -0.00001  -0.00001   0.00000  -0.00001
 309       16F+3        0.00000   0.00000  -0.00000   0.00000
 310       16F-3       -0.00000  -0.00000  -0.00000  -0.00000
          Condensed to atoms (all electrons):
               1          2
     1  Mn  14.246975   0.378572
     2  H    0.378572   0.995881
          Atomic-Atomic Spin Densities.
               1          2
     1  Mn   5.932900   0.007130
     2  H    0.007130   0.052840
 Mulliken charges and spin densities:
               1          2
     1  Mn   0.374453   5.940030
     2  H   -0.374453   0.059970
 Sum of Mulliken charges =  -0.00000   6.00000
 Mulliken charges and spin densities with hydrogens summed into heavy atoms:
               1          2
     1  Mn  -0.000000   6.000000
 Electronic spatial extent (au):  <R**2>=             50.5104
 Charge=             -0.0000 electrons
 Dipole moment (field-independent basis, Debye):
    X=              0.0000    Y=              0.0000    Z=              0.6149  Tot=              0.6149
 Quadrupole moment (field-independent basis, Debye-Ang):
   XX=            -16.0270   YY=            -16.0270   ZZ=            -25.6525
   XY=              0.0000   XZ=              0.0000   YZ=              0.0000
 Traceless Quadrupole moment (field-independent basis, Debye-Ang):
   XX=              3.2085   YY=              3.2085   ZZ=             -6.4170
   XY=              0.0000   XZ=              0.0000   YZ=              0.0000
 Octapole moment (field-independent basis, Debye-Ang**2):
  XXX=              0.0000  YYY=              0.0000  ZZZ=              0.9995  XYY=              0.0000
  XXY=              0.0000  XXZ=             -1.0662  XZZ=              0.0000  YZZ=              0.0000
  YYZ=             -1.0662  XYZ=              0.0000
 Hexadecapole moment (field-independent basis, Debye-Ang**3):
 XXXX=            -27.1564 YYYY=            -27.1564 ZZZZ=            -91.3666 XXXY=              0.0000
 XXXZ=              0.0000 YYYX=              0.0000 YYYZ=              0.0000 ZZZX=              0.0000
 ZZZY=              0.0000 XXYY=             -9.0521 XXZZ=            -18.7374 YYZZ=            -18.7374
 XXYZ=              0.0000 YYXZ=              0.0000 ZZXY=              0.0000
 N-N= 5.291772109200D+00 E-N=-2.490156393191D+02  KE= 5.773025403844D+01
 Symmetry A1   KE= 2.511364235190D+01
 Symmetry A2   KE= 6.206921942380D+00
 Symmetry B1   KE= 1.320484487213D+01
 Symmetry B2   KE= 1.320484487189D+01
 Symmetry A1   SP= 3.000000000000D+00
 Symmetry A2   SP= 1.000000000000D+00
 Symmetry B1   SP= 1.000000000000D+00
 Symmetry B2   SP= 1.000000000000D+00
 Orbital energies and kinetic energies (alpha):
                                 1                 2
   1         O                -4.156669          2.099333
   2         O                -2.802861          3.497510
   3         O                -2.802861          3.497510
   4         O                -2.802747          3.493872
   5         O                -0.646855          0.728745
   6         O                -0.638004          6.206922
   7         O                -0.638004          6.206922
   8         O                -0.632198          4.549522
   9         O                -0.632198          6.209824
  10         O                -0.417891          6.209824
  11         O                -0.253676          1.713298
  12         V                 0.012732          0.056631
  13         V                 0.012732          0.056631
  14         V                 0.020670          0.028565
  15         V                 0.030151          0.041574
  16         V                 0.051230          0.067657
 Total kinetic energy from orbitals= 8.882656680350D+01
                          Isotropic Fermi Contact Couplings
        Atom                 a.u.       MegaHertz       Gauss      10(-4) cm-1
     1  Mn(55)             0.00004       0.00761       0.00272       0.00254
     2  H(1)               0.01278       9.51748       3.39607       3.17469
 --------------------------------------------------------
       Center         ----  Spin Dipole Couplings  ----
                      3XX-RR        3YY-RR        3ZZ-RR
 --------------------------------------------------------
     1   Atom       -0.116414     -0.116414      0.232828
     2   Atom       -0.198633     -0.198633      0.397266
 --------------------------------------------------------
                        XY            XZ            YZ
 --------------------------------------------------------
     1   Atom        0.000000      0.000000      0.000000
     2   Atom        0.000000      0.000000      0.000000
 --------------------------------------------------------


 ---------------------------------------------------------------------------------
              Anisotropic Spin Dipole Couplings in Principal Axis System
 ---------------------------------------------------------------------------------

       Atom             a.u.   MegaHertz   Gauss  10(-4) cm-1        Axes

              Baa    -0.1164   -15.360    -5.481    -5.124  1.0000  0.0000  0.0000
     1 Mn(55) Bbb    -0.1164   -15.360    -5.481    -5.124 -0.0000  1.0000  0.0000
              Bcc     0.2328    30.720    10.962    10.247  0.0000  0.0000  1.0000
 
              Baa    -0.1986  -105.981   -37.817   -35.352 -0.0000  1.0000  0.0000
     2 H(1)   Bbb    -0.1986  -105.981   -37.817   -35.352  1.0000  0.0000  0.0000
              Bcc     0.3973   211.963    75.634    70.703  0.0000  0.0000  1.0000
 

 ---------------------------------------------------------------------------------

 No NMR shielding tensors so no spin-rotation constants.
 Leave Link  601 at Tue Feb 13 03:10:03 2018, MaxMem=  8589934592 cpu:             173.4 elap:               5.6
 (Enter /home1/apps/gaussian/16rA.03/g16/l9999.exe)
 1\1\GINC-C408-023\SP\ROCCSD(T)-Full\Gen\H1Mn1(7)\AANNABE\13-Feb-2018\0
 \\#P ROCCSD(T)=(maxcyc=150, Full)/Gen 5d 7f SCF=(maxcycles=300) Integr
 al(NoXCTest) MaxDisk=500GB Pop=Regular Pseudo=Read Guess=Read\\MnH\\0,
 7\Mn,0,0.,0.,0.\H,0,0.,0.,1.5\\Version=ES64L-G16RevA.03\State=7-SG\HF=
 -104.0441951\MP2=-104.6470893\MP3=-104.6464413\PUHF=-104.0441951\PMP2-
 0=-104.6470893\MP4SDQ=-104.6503752\CCSD=-104.6513206\CCSD(T)=-104.6680
 37\RMSD=5.618e-10\PG=C*V [C*(H1Mn1)]\\@


 If your ship doesn't come in, swim out to it!
                          -- Jonathan Winters
 Job cpu time:       0 days 14 hours 29 minutes 51.3 seconds.
 Elapsed time:       0 days  0 hours 27 minutes 20.5 seconds.
 File lengths (MBytes):  RWF=   7760 Int=      0 D2E=      0 Chk=     12 Scr=      1
 Normal termination of Gaussian 16 at Tue Feb 13 03:10:06 2018.
