 Entering Gaussian System, Link 0=g16
 Initial command:
 /home1/apps/gaussian/16rA.03/g16/l1.exe "/tmp/Gau-127236.inp" -scrdir="/tmp/"
 Entering Link 1 = /home1/apps/gaussian/16rA.03/g16/l1.exe PID=    127237.
  
 Copyright (c) 1988,1990,1992,1993,1995,1998,2003,2009,2016,
            Gaussian, Inc.  All Rights Reserved.
  
 This is part of the Gaussian(R) 16 program.  It is based on
 the Gaussian(R) 09 system (copyright 2009, Gaussian, Inc.),
 the Gaussian(R) 03 system (copyright 2003, Gaussian, Inc.),
 the Gaussian(R) 98 system (copyright 1998, Gaussian, Inc.),
 the Gaussian(R) 94 system (copyright 1995, Gaussian, Inc.),
 the Gaussian 92(TM) system (copyright 1992, Gaussian, Inc.),
 the Gaussian 90(TM) system (copyright 1990, Gaussian, Inc.),
 the Gaussian 88(TM) system (copyright 1988, Gaussian, Inc.),
 the Gaussian 86(TM) system (copyright 1986, Carnegie Mellon
 University), and the Gaussian 82(TM) system (copyright 1983,
 Carnegie Mellon University). Gaussian is a federally registered
 trademark of Gaussian, Inc.
  
 This software contains proprietary and confidential information,
 including trade secrets, belonging to Gaussian, Inc.
  
 This software is provided under written license and may be
 used, copied, transmitted, or stored only in accord with that
 written license.
  
 The following legend is applicable only to US Government
 contracts under FAR:
  
                    RESTRICTED RIGHTS LEGEND
  
 Use, reproduction and disclosure by the US Government is
 subject to restrictions as set forth in subparagraphs (a)
 and (c) of the Commercial Computer Software - Restricted
 Rights clause in FAR 52.227-19.
  
 Gaussian, Inc.
 340 Quinnipiac St., Bldg. 40, Wallingford CT 06492
  
  
 ---------------------------------------------------------------
 Warning -- This program may not be used in any manner that
 competes with the business of Gaussian, Inc. or will provide
 assistance to any competitor of Gaussian, Inc.  The licensee
 of this program is prohibited from giving any competitor of
 Gaussian, Inc. access to this program.  By using this program,
 the user acknowledges that Gaussian, Inc. is engaged in the
 business of creating and licensing software in the field of
 computational chemistry and represents and warrants to the
 licensee that it is not a competitor of Gaussian, Inc. and that
 it will not use this program in any manner prohibited above.
 ---------------------------------------------------------------
  

 Cite this work as:
 Gaussian 16, Revision A.03,
 M. J. Frisch, G. W. Trucks, H. B. Schlegel, G. E. Scuseria, 
 M. A. Robb, J. R. Cheeseman, G. Scalmani, V. Barone, 
 G. A. Petersson, H. Nakatsuji, X. Li, M. Caricato, A. V. Marenich, 
 J. Bloino, B. G. Janesko, R. Gomperts, B. Mennucci, H. P. Hratchian, 
 J. V. Ortiz, A. F. Izmaylov, J. L. Sonnenberg, D. Williams-Young, 
 F. Ding, F. Lipparini, F. Egidi, J. Goings, B. Peng, A. Petrone, 
 T. Henderson, D. Ranasinghe, V. G. Zakrzewski, J. Gao, N. Rega, 
 G. Zheng, W. Liang, M. Hada, M. Ehara, K. Toyota, R. Fukuda, 
 J. Hasegawa, M. Ishida, T. Nakajima, Y. Honda, O. Kitao, H. Nakai, 
 T. Vreven, K. Throssell, J. A. Montgomery, Jr., J. E. Peralta, 
 F. Ogliaro, M. J. Bearpark, J. J. Heyd, E. N. Brothers, K. N. Kudin, 
 V. N. Staroverov, T. A. Keith, R. Kobayashi, J. Normand, 
 K. Raghavachari, A. P. Rendell, J. C. Burant, S. S. Iyengar, 
 J. Tomasi, M. Cossi, J. M. Millam, M. Klene, C. Adamo, R. Cammi, 
 J. W. Ochterski, R. L. Martin, K. Morokuma, O. Farkas, 
 J. B. Foresman, and D. J. Fox, Gaussian, Inc., Wallingford CT, 2016.
 
 ******************************************
 Gaussian 16:  ES64L-G16RevA.03 25-Dec-2016
                14-Mar-2018 
 ******************************************
 %MEM=160GB
 %CPU=0-31
 SetSPE:  set environment variable "MP_BIND" = "yes"
 SetSPE:  set environment variable "MP_BLIST" = "0,1,2,3,4,5,6,7,8,9,10,11,12,13,14,15,16,17,18,19,20,21,22,23,24,25,26,27,28,29,30,31"
 Will use up to   32 processors via shared memory.
 %RWF=/scratch/04843/aannabe/gaussian/
 %Int=/scratch/04843/aannabe/gaussian/
 %D2E=/scratch/04843/aannabe/gaussian/
 %NoSave
 %CHK=TiO
 ----------------------------------------------------------------------
 #P ROCCSD(T)=(maxcyc=150, Window=(7,0), SaveAmplitudes, ReadAmplitudes
 )/Gen 5d 7f SCF=(maxcycles=300) Integral(NoXCTest, DKHSO) MaxDisk=500G
 B Pop=Regular Guess=Read IOp(5/15=2)
 ----------------------------------------------------------------------
 1/38=1,172=1/1;
 2/12=2,17=6,18=5,40=1/2;
 3/5=7,8=11,11=2,25=1,30=1,47=8,91=5,116=101/1,2,3;
 4/5=1/1;
 5/5=2,7=300,15=2,38=6/2;
 8/5=-1,6=4,9=120000,10=91,24=1,37=7/1,4;
 9/5=7,6=150,14=2,77=1/13;
 6//1;
 99/5=1,9=1/99;
 Leave Link    1 at Wed Mar 14 14:08:06 2018, MaxMem= 21474836480 cpu:               3.8 elap:               0.1
 (Enter /home1/apps/gaussian/16rA.03/g16/l101.exe)
 ---
 TiO
 ---
 Symbolic Z-matrix:
 Charge =  0 Multiplicity = 3
 Ti                    0.        0.        0. 
 O                     0.        0.        1.9 
 
 ITRead=  0  0
 MicOpt= -1 -1
 NAtoms=      2 NQM=        2 NQMF=       0 NMMI=      0 NMMIF=      0
                NMic=       0 NMicF=      0.
                    Isotopes and Nuclear Properties:
 (Nuclear quadrupole moments (NQMom) in fm**2, nuclear magnetic moments (NMagM)
  in nuclear magnetons)

  Atom         1           2
 IAtWgt=          48          16
 AtmWgt=  47.9479467  15.9949146
 NucSpn=           0           0
 AtZEff=  -0.0000000  -0.0000000
 NQMom=    0.0000000   0.0000000
 NMagM=    0.0000000   0.0000000
 AtZNuc=  22.0000000   8.0000000
 Leave Link  101 at Wed Mar 14 14:08:06 2018, MaxMem= 21474836480 cpu:               2.8 elap:               0.1
 (Enter /home1/apps/gaussian/16rA.03/g16/l202.exe)
                          Input orientation:                          
 ---------------------------------------------------------------------
 Center     Atomic      Atomic             Coordinates (Angstroms)
 Number     Number       Type             X           Y           Z
 ---------------------------------------------------------------------
      1         22           0        0.000000    0.000000    0.000000
      2          8           0        0.000000    0.000000    1.900000
 ---------------------------------------------------------------------
 Stoichiometry    OTi(3)
 Framework group  C*V[C*(OTi)]
 Deg. of freedom     1
 Full point group                 C*V     NOp   4
 Largest Abelian subgroup         C2V     NOp   4
 Largest concise Abelian subgroup C1      NOp   1
                         Standard orientation:                         
 ---------------------------------------------------------------------
 Center     Atomic      Atomic             Coordinates (Angstroms)
 Number     Number       Type             X           Y           Z
 ---------------------------------------------------------------------
      1         22           0        0.000000    0.000000    0.506667
      2          8           0        0.000000    0.000000   -1.393333
 ---------------------------------------------------------------------
 Rotational constants (GHZ):           0.0000000          11.6721302          11.6721302
 Leave Link  202 at Wed Mar 14 14:08:06 2018, MaxMem= 21474836480 cpu:               0.5 elap:               0.0
 (Enter /home1/apps/gaussian/16rA.03/g16/l301.exe)
 General basis read from cards:  (5D, 7F)
 Centers:       1
 S 1 1.00
     Exponent=  3.0146430000D+06 Coefficients=  1.0000000000D+00
 S 1 1.00
     Exponent=  4.5143290000D+05 Coefficients=  1.0000000000D+00
 S 1 1.00
     Exponent=  1.0273380000D+05 Coefficients=  1.0000000000D+00
 S 1 1.00
     Exponent=  2.9098170000D+04 Coefficients=  1.0000000000D+00
 S 1 1.00
     Exponent=  9.4923300000D+03 Coefficients=  1.0000000000D+00
 S 1 1.00
     Exponent=  3.4263460000D+03 Coefficients=  1.0000000000D+00
 S 1 1.00
     Exponent=  1.3358960000D+03 Coefficients=  1.0000000000D+00
 S 1 1.00
     Exponent=  5.5350260000D+02 Coefficients=  1.0000000000D+00
 S 1 1.00
     Exponent=  2.4069250000D+02 Coefficients=  1.0000000000D+00
 S 1 1.00
     Exponent=  1.0872930000D+02 Coefficients=  1.0000000000D+00
 S 1 1.00
     Exponent=  5.0264570000D+01 Coefficients=  1.0000000000D+00
 S 1 1.00
     Exponent=  2.2580040000D+01 Coefficients=  1.0000000000D+00
 S 1 1.00
     Exponent=  1.0714320000D+01 Coefficients=  1.0000000000D+00
 S 1 1.00
     Exponent=  5.0935460000D+00 Coefficients=  1.0000000000D+00
 S 1 1.00
     Exponent=  2.2441830000D+00 Coefficients=  1.0000000000D+00
 S 1 1.00
     Exponent=  1.0595700000D+00 Coefficients=  1.0000000000D+00
 S 1 1.00
     Exponent=  4.6884900000D-01 Coefficients=  1.0000000000D+00
 S 1 1.00
     Exponent=  1.0614300000D-01 Coefficients=  1.0000000000D+00
 S 1 1.00
     Exponent=  5.5262000000D-02 Coefficients=  1.0000000000D+00
 S 1 1.00
     Exponent=  2.5465000000D-02 Coefficients=  1.0000000000D+00
 S 1 1.00
     Exponent=  2.9691000000D+00 Coefficients=  1.0000000000D+00
 S 1 1.00
     Exponent=  7.1050000000D-01 Coefficients=  1.0000000000D+00
 S 1 1.00
     Exponent=  1.1730000000D-02 Coefficients=  1.0000000000D+00
 P 1 1.00
     Exponent=  1.1912030000D+04 Coefficients=  1.0000000000D+00
 P 1 1.00
     Exponent=  2.8199470000D+03 Coefficients=  1.0000000000D+00
 P 1 1.00
     Exponent=  9.1594790000D+02 Coefficients=  1.0000000000D+00
 P 1 1.00
     Exponent=  3.5038420000D+02 Coefficients=  1.0000000000D+00
 P 1 1.00
     Exponent=  1.4848250000D+02 Coefficients=  1.0000000000D+00
 P 1 1.00
     Exponent=  6.7539440000D+01 Coefficients=  1.0000000000D+00
 P 1 1.00
     Exponent=  3.2303320000D+01 Coefficients=  1.0000000000D+00
 P 1 1.00
     Exponent=  1.5927860000D+01 Coefficients=  1.0000000000D+00
 P 1 1.00
     Exponent=  8.0380350000D+00 Coefficients=  1.0000000000D+00
 P 1 1.00
     Exponent=  4.0939160000D+00 Coefficients=  1.0000000000D+00
 P 1 1.00
     Exponent=  2.0223900000D+00 Coefficients=  1.0000000000D+00
 P 1 1.00
     Exponent=  9.7610200000D-01 Coefficients=  1.0000000000D+00
 P 1 1.00
     Exponent=  4.5959500000D-01 Coefficients=  1.0000000000D+00
 P 1 1.00
     Exponent=  1.7719500000D-01 Coefficients=  1.0000000000D+00
 P 1 1.00
     Exponent=  7.3442000000D-02 Coefficients=  1.0000000000D+00
 P 1 1.00
     Exponent=  2.9334000000D-02 Coefficients=  1.0000000000D+00
 P 1 1.00
     Exponent=  4.0234000000D+00 Coefficients=  1.0000000000D+00
 P 1 1.00
     Exponent=  9.4170000000D-01 Coefficients=  1.0000000000D+00
 P 1 1.00
     Exponent=  1.1720000000D-02 Coefficients=  1.0000000000D+00
 D 1 1.00
     Exponent=  6.4340200000D+01 Coefficients=  1.0000000000D+00
 D 1 1.00
     Exponent=  1.8841800000D+01 Coefficients=  1.0000000000D+00
 D 1 1.00
     Exponent=  6.7198300000D+00 Coefficients=  1.0000000000D+00
 D 1 1.00
     Exponent=  2.6561300000D+00 Coefficients=  1.0000000000D+00
 D 1 1.00
     Exponent=  1.0736800000D+00 Coefficients=  1.0000000000D+00
 D 1 1.00
     Exponent=  4.2055700000D-01 Coefficients=  1.0000000000D+00
 D 1 1.00
     Exponent=  1.5481700000D-01 Coefficients=  1.0000000000D+00
 D 1 1.00
     Exponent=  5.1490000000D-02 Coefficients=  1.0000000000D+00
 D 1 1.00
     Exponent=  2.3834000000D+00 Coefficients=  1.0000000000D+00
 D 1 1.00
     Exponent=  1.0775000000D+00 Coefficients=  1.0000000000D+00
 D 1 1.00
     Exponent=  1.7120000000D-02 Coefficients=  1.0000000000D+00
 F 1 1.00
     Exponent=  2.8376000000D+00 Coefficients=  1.0000000000D+00
 F 1 1.00
     Exponent=  9.6330000000D-01 Coefficients=  1.0000000000D+00
 F 1 1.00
     Exponent=  2.7880000000D-01 Coefficients=  1.0000000000D+00
 F 1 1.00
     Exponent=  8.0690000000D-02 Coefficients=  1.0000000000D+00
 G 1 1.00
     Exponent=  2.4639000000D+00 Coefficients=  1.0000000000D+00
 G 1 1.00
     Exponent=  7.0920000000D-01 Coefficients=  1.0000000000D+00
 G 1 1.00
     Exponent=  2.0413000000D-01 Coefficients=  1.0000000000D+00
 ****
 Centers:       2
 S 1 1.00
     Exponent=  1.5330000000D+04 Coefficients=  1.0000000000D+00
 S 1 1.00
     Exponent=  2.2990000000D+03 Coefficients=  1.0000000000D+00
 S 1 1.00
     Exponent=  5.2240000000D+02 Coefficients=  1.0000000000D+00
 S 1 1.00
     Exponent=  1.4730000000D+02 Coefficients=  1.0000000000D+00
 S 1 1.00
     Exponent=  4.7550000000D+01 Coefficients=  1.0000000000D+00
 S 1 1.00
     Exponent=  1.6760000000D+01 Coefficients=  1.0000000000D+00
 S 1 1.00
     Exponent=  6.2070000000D+00 Coefficients=  1.0000000000D+00
 S 1 1.00
     Exponent=  6.8820000000D-01 Coefficients=  1.0000000000D+00
 S 1 1.00
     Exponent=  1.7520000000D+00 Coefficients=  1.0000000000D+00
 S 1 1.00
     Exponent=  2.3840000000D-01 Coefficients=  1.0000000000D+00
 S 1 1.00
     Exponent=  7.8450000000D+00 Coefficients=  1.0000000000D+00
 S 1 1.00
     Exponent=  2.1032000000D+01 Coefficients=  1.0000000000D+00
 S 1 1.00
     Exponent=  7.3760000000D-02 Coefficients=  1.0000000000D+00
 P 1 1.00
     Exponent=  3.4460000000D+01 Coefficients=  1.0000000000D+00
 P 1 1.00
     Exponent=  7.7490000000D+00 Coefficients=  1.0000000000D+00
 P 1 1.00
     Exponent=  2.2800000000D+00 Coefficients=  1.0000000000D+00
 P 1 1.00
     Exponent=  7.1560000000D-01 Coefficients=  1.0000000000D+00
 P 1 1.00
     Exponent=  2.1400000000D-01 Coefficients=  1.0000000000D+00
 P 1 1.00
     Exponent=  1.5159000000D+01 Coefficients=  1.0000000000D+00
 P 1 1.00
     Exponent=  5.7437000000D+01 Coefficients=  1.0000000000D+00
 P 1 1.00
     Exponent=  5.9740000000D-02 Coefficients=  1.0000000000D+00
 D 1 1.00
     Exponent=  2.3140000000D+00 Coefficients=  1.0000000000D+00
 D 1 1.00
     Exponent=  6.4500000000D-01 Coefficients=  1.0000000000D+00
 D 1 1.00
     Exponent=  1.5858000000D+01 Coefficients=  1.0000000000D+00
 D 1 1.00
     Exponent=  2.1400000000D-01 Coefficients=  1.0000000000D+00
 F 1 1.00
     Exponent=  1.4280000000D+00 Coefficients=  1.0000000000D+00
 F 1 1.00
     Exponent=  5.0000000000D-01 Coefficients=  1.0000000000D+00
 ****
 Ernie: Thresh=  0.10000D-02 Tol=  0.10000D-05 Strict=F.
 There are   144 symmetry adapted cartesian basis functions of A1  symmetry.
 There are    30 symmetry adapted cartesian basis functions of A2  symmetry.
 There are    69 symmetry adapted cartesian basis functions of B1  symmetry.
 There are    69 symmetry adapted cartesian basis functions of B2  symmetry.
 There are   114 symmetry adapted basis functions of A1  symmetry.
 There are    27 symmetry adapted basis functions of A2  symmetry.
 There are    60 symmetry adapted basis functions of B1  symmetry.
 There are    60 symmetry adapted basis functions of B2  symmetry.
   261 basis functions,   312 primitive gaussians,   312 cartesian basis functions
    16 alpha electrons       14 beta electrons
       nuclear repulsion energy        49.0185205905 Hartrees.
 IExCor=    0 DFT=F Ex=HF Corr=None ExCW=0 ScaHFX=  1.000000
 ScaDFX=  1.000000  1.000000  1.000000  1.000000 ScalE2=  1.000000  1.000000
 IRadAn=      5 IRanWt=     -1 IRanGd=            0 ICorTp=0 IEmpDi=  4
 NAtoms=    2 NActive=    2 NUniq=    2 SFac= 1.00D+00 NAtFMM=   60 NAOKFM=F Big=F
 Integral buffers will be    131072 words long.
 Raffenetti 2 integral format.
 Two-electron integral symmetry is turned on.
 FoFCou: FMM=F IPFlag=           8 FMFlag=           0 FMFlg1=           0
         NFxFlg=           0 DoJE=F BraDBF=T KetDBF=T FulRan=T
         wScrn=  0.000000 ICntrl=       600 IOpCl=  3 I1Cent=           6 NGrid=           0
         NMat0=    1 NMatS0=      2 NMatT0=    0 NMatD0=    1 NMtDS0=    0 NMtDT0=    0
 Symmetry not used in FoFCou.
 Finite nuclear repulsion energy        49.0185205905.
 Leave Link  301 at Wed Mar 14 14:08:06 2018, MaxMem= 21474836480 cpu:               4.7 elap:               0.2
 (Enter /home1/apps/gaussian/16rA.03/g16/l302.exe)
 Using DK4 one-electron Hamiltonian with SO, DoBoet=T.
 NPDir=0 NMtPBC=     1 NCelOv=     1 NCel=       1 NClECP=     1 NCelD=      1
         NCelK=      1 NCelE2=     1 NClLst=     1 CellRange=     0.0.
 One-electron integrals computed using PRISM.
 One-electron integral symmetry used in STVInt
 FoFCou: FMM=F IPFlag=           8 FMFlag=      100000 FMFlg1=           0
         NFxFlg=           0 DoJE=T BraDBF=F KetDBF=T FulRan=T
         wScrn=  0.000000 ICntrl=       500 IOpCl=  0 I1Cent=           4 NGrid=           0
         NMat0=    1 NMatS0=      1 NMatT0=    0 NMatD0=    1 NMtDS0=    0 NMtDT0=    0
 Symmetry not used in FoFCou.
 UnConB:  Uncontracting AO basis from    261 functions to    261 functions (excluding duplicates).
 RelInt: Using uncontracted basis, NUnBas=   261 NBsUse=   261 0.100E-13 EigKep=  5.75D-08 EigRej= -1.00D+00
 NBasis=   261 RedAO= T EigKep=  1.90D-06  NBF=   114    27    60    60
 NBsUse=   253 1.00D-06 EigRej=  9.80D-08 NBFU=   111    26    58    58
 Leave Link  302 at Wed Mar 14 14:08:08 2018, MaxMem= 21474836480 cpu:              48.3 elap:               1.9
 (Enter /home1/apps/gaussian/16rA.03/g16/l303.exe)
 DipDrv:  MaxL=1.
 Leave Link  303 at Wed Mar 14 14:08:08 2018, MaxMem= 21474836480 cpu:               1.1 elap:               0.1
 (Enter /home1/apps/gaussian/16rA.03/g16/l401.exe)
 Initial guess from the checkpoint file:  "TiO.chk"
 B after Tr=     0.000000    0.000000    0.000000
         Rot=    1.000000    0.000000    0.000000    0.000000 Ang=   0.00 deg.
 Guess basis will be translated and rotated to current coordinates.
 JPrj=2 DoOrth=T DoCkMO=T.
 Initial guess orbital symmetries:
       Occupied  (SG) (SG) (SG) (SG) (PI) (PI) (SG) (SG) (PI) (PI)
                 (SG) (SG) (PI) (PI) (SG) (?A)
       Virtual   (PI) (PI) (SG) (SG) (PI) (PI) (?A) (SG) (?A) (PI)
                 (PI) (SG) (?A) (SG) (SG) (PI) (PI) (?A) (PI) (PI)
                 (SG) (?A) (PI) (PI) (SG) (PI) (PI) (PHI) (PHI)
                 (SG) (DLTA) (DLTA) (SG) (PI) (PI) (SG) (SG) (PI)
                 (PI) (?A) (?A) (PI) (PI) (SG) (SG) (DLTA) (DLTA)
                 (PI) (PI) (SG) (?B) (?B) (PHI) (PHI) (DLTA) (DLTA)
                 (?C) (?C) (?C) (?C) (SG) (SG) (?A) (?A) (PI) (PI)
                 (SG) (PI) (PI) (SG) (PI) (PI) (?A) (SG) (?A) (PI)
                 (PI) (SG) (PHI) (PHI) (SG) (DLTA) (DLTA) (PI)
                 (PI) (?A) (?A) (SG) (SG) (PI) (PI) (PHI) (PHI)
                 (DLTA) (DLTA) (?B) (?B) (PHI) (PHI) (PI) (PI)
                 (DLTA) (DLTA) (SG) (SG) (PI) (PI) (SG) (PI) (PI)
                 (PI) (PI) (SG) (DLTA) (DLTA) (SG) (PI) (PI) (SG)
                 (SG) (PHI) (PHI) (?A) (?A) (PI) (PI) (DLTA) (DLTA)
                 (SG) (PI) (PI) (SG) (SG) (?C) (?C) (DLTA) (DLTA)
                 (?C) (?C) (PI) (PI) (SG) (SG) (PHI) (PHI) (?B)
                 (?B) (DLTA) (DLTA) (PI) (PI) (SG) (DLTA) (DLTA)
                 (PI) (PI) (SG) (PI) (PI) (SG) (SG) (SG) (PI) (PI)
                 (SG) (DLTA) (DLTA) (PI) (PI) (SG) (SG) (SG) (PI)
                 (PI) (SG) (PI) (PI) (DLTA) (DLTA) (PI) (PI) (SG)
                 (SG) (DLTA) (DLTA) (PI) (PI) (SG) (SG) (SG) (PI)
                 (PI) (SG) (PI) (PI) (SG) (SG) (DLTA) (DLTA) (PI)
                 (PI) (SG) (PI) (PI) (SG) (SG) (PI) (PI) (SG) (SG)
                 (PI) (PI) (SG) (SG) (PI) (PI) (SG) (SG) (SG) (PI)
                 (PI) (SG) (SG) (SG) (PI) (PI) (SG) (SG) (SG) (SG)
                 (PI) (PI) (SG) (SG) (SG) (SG) (SG)
 Leave Link  401 at Wed Mar 14 14:08:09 2018, MaxMem= 21474836480 cpu:               5.5 elap:               0.2
 (Enter /home1/apps/gaussian/16rA.03/g16/l502.exe)
 Keep R1 and R2 ints in memory in symmetry-blocked form, NReq=734602573.
 FoFCou: FMM=F IPFlag=           8 FMFlag=           0 FMFlg1=           0
         NFxFlg=           0 DoJE=F BraDBF=F KetDBF=F FulRan=T
         wScrn=  0.000000 ICntrl=       600 IOpCl=  0 I1Cent=           0 NGrid=           0
         NMat0=    1 NMatS0=  34191 NMatT0=    0 NMatD0=    1 NMtDS0=    0 NMtDT0=    0
 Petite list used in FoFCou.
 Restricted open shell SCF:
 Using DIIS extrapolation, IDIIS=  1040.
 NGot= 21474836480 LenX= 21174565133 LenY= 21174467348
 Requested convergence on RMS density matrix=1.00D-08 within 300 cycles.
 Requested convergence on MAX density matrix=1.00D-06.
 Requested convergence on             energy=1.00D-06.
 No special actions if energy rises.

 Cycle   1  Pass 1  IDiag  1:
 E= -927.627599683451    
 DIIS: error= 1.94D-02 at cycle   1 NSaved=   1.
 NSaved= 1 IEnMin= 1 EnMin= -927.627599683451     IErMin= 1 ErrMin= 1.94D-02
 ErrMax= 1.94D-02  0.00D+00 EMaxC= 1.00D-01 BMatC= 3.14D-02 BMatP= 3.14D-02
 IDIUse=3 WtCom= 8.06D-01 WtEn= 1.94D-01
 Coeff-Com:  0.100D+01
 Coeff-En:   0.100D+01
 Coeff:      0.100D+01
 Fock symm off for IB=3 I1=   37 I=  174 J=  107 Cut=1.00D-07 Err=1.04D-07
 Fock matrix is not symmetric: symmetry in diagonalization turned off.
 Gap=     0.045 Goal=   None    Shift=    0.000
 GapD=    0.045 DampG=0.250 DampE=0.250 DampFc=0.1250 IDamp=-1.
 Damping current iteration by 1.25D-01
 RMSDP=1.91D-03 MaxDP=1.21D-01              OVMax= 1.00D+00

 Cycle   2  Pass 1  IDiag  1:
 E= -927.629795745088     Delta-E=       -0.002196061637 Rises=F Damp=T
 DIIS: error= 1.68D-02 at cycle   2 NSaved=   2.
 NSaved= 2 IEnMin= 2 EnMin= -927.629795745088     IErMin= 2 ErrMin= 1.68D-02
 ErrMax= 1.68D-02  0.00D+00 EMaxC= 1.00D-01 BMatC= 2.38D-02 BMatP= 3.14D-02
 IDIUse=3 WtCom= 8.32D-01 WtEn= 1.68D-01
 Coeff-Com: -0.457D+01 0.557D+01
 Coeff-En:   0.000D+00 0.100D+01
 Coeff:     -0.381D+01 0.481D+01
 Gap=     0.094 Goal=   None    Shift=    0.000
 RMSDP=2.01D-03 MaxDP=1.90D-01 DE=-2.20D-03 OVMax= 2.16D-01

 Cycle   3  Pass 1  IDiag  1:
 E= -927.621244476970     Delta-E=        0.008551268118 Rises=F Damp=F
 DIIS: error= 2.70D-02 at cycle   3 NSaved=   3.
 NSaved= 3 IEnMin= 2 EnMin= -927.629795745088     IErMin= 2 ErrMin= 1.68D-02
 ErrMax= 2.70D-02  0.00D+00 EMaxC= 1.00D-01 BMatC= 1.52D-02 BMatP= 2.38D-02
 IDIUse=3 WtCom= 7.30D-01 WtEn= 2.70D-01
 Coeff-Com: -0.360D+01 0.414D+01 0.459D+00
 Coeff-En:   0.000D+00 0.686D+00 0.314D+00
 Coeff:     -0.263D+01 0.321D+01 0.420D+00
 Gap=     0.101 Goal=   None    Shift=    0.000
 RMSDP=7.03D-04 MaxDP=5.24D-02 DE= 8.55D-03 OVMax= 1.40D-01

 Cycle   4  Pass 1  IDiag  1:
 E= -927.645595143631     Delta-E=       -0.024350666661 Rises=F Damp=F
 DIIS: error= 7.93D-03 at cycle   4 NSaved=   4.
 NSaved= 4 IEnMin= 4 EnMin= -927.645595143631     IErMin= 4 ErrMin= 7.93D-03
 ErrMax= 7.93D-03  0.00D+00 EMaxC= 1.00D-01 BMatC= 1.57D-03 BMatP= 1.52D-02
 IDIUse=3 WtCom= 9.21D-01 WtEn= 7.93D-02
 Coeff-Com: -0.208D+01 0.238D+01 0.186D+00 0.514D+00
 Coeff-En:   0.000D+00 0.000D+00 0.000D+00 0.100D+01
 Coeff:     -0.192D+01 0.219D+01 0.171D+00 0.553D+00
 Gap=     0.102 Goal=   None    Shift=    0.000
 RMSDP=3.22D-04 MaxDP=5.38D-02 DE=-2.44D-02 OVMax= 3.24D-02

 Cycle   5  Pass 1  IDiag  1:
 E= -927.648069955278     Delta-E=       -0.002474811648 Rises=F Damp=F
 DIIS: error= 7.94D-03 at cycle   5 NSaved=   5.
 NSaved= 5 IEnMin= 5 EnMin= -927.648069955278     IErMin= 4 ErrMin= 7.93D-03
 ErrMax= 7.94D-03  0.00D+00 EMaxC= 1.00D-01 BMatC= 1.15D-03 BMatP= 1.57D-03
 IDIUse=3 WtCom= 9.21D-01 WtEn= 7.94D-02
 Coeff-Com: -0.144D+01 0.162D+01-0.241D-01 0.686D-01 0.780D+00
 Coeff-En:   0.000D+00 0.000D+00 0.000D+00 0.000D+00 0.100D+01
 Coeff:     -0.133D+01 0.149D+01-0.222D-01 0.632D-01 0.797D+00
 Gap=     0.101 Goal=   None    Shift=    0.000
 RMSDP=2.50D-04 MaxDP=2.53D-02 DE=-2.47D-03 OVMax= 2.13D-02

 Cycle   6  Pass 1  IDiag  1:
 E= -927.649712617234     Delta-E=       -0.001642661956 Rises=F Damp=F
 DIIS: error= 4.81D-03 at cycle   6 NSaved=   6.
 NSaved= 6 IEnMin= 6 EnMin= -927.649712617234     IErMin= 6 ErrMin= 4.81D-03
 ErrMax= 4.81D-03  0.00D+00 EMaxC= 1.00D-01 BMatC= 3.77D-04 BMatP= 1.15D-03
 IDIUse=3 WtCom= 9.52D-01 WtEn= 4.81D-02
 Coeff-Com: -0.426D+00 0.483D+00-0.838D-01-0.391D+00 0.153D+00 0.127D+01
 Coeff-En:   0.000D+00 0.000D+00 0.000D+00 0.000D+00 0.000D+00 0.100D+01
 Coeff:     -0.406D+00 0.460D+00-0.798D-01-0.372D+00 0.145D+00 0.125D+01
 Gap=     0.101 Goal=   None    Shift=    0.000
 RMSDP=2.46D-04 MaxDP=3.49D-02 DE=-1.64D-03 OVMax= 4.03D-02

 Cycle   7  Pass 1  IDiag  1:
 E= -927.651056997985     Delta-E=       -0.001344380751 Rises=F Damp=F
 DIIS: error= 1.60D-03 at cycle   7 NSaved=   7.
 NSaved= 7 IEnMin= 7 EnMin= -927.651056997985     IErMin= 7 ErrMin= 1.60D-03
 ErrMax= 1.60D-03  0.00D+00 EMaxC= 1.00D-01 BMatC= 4.31D-05 BMatP= 3.77D-04
 IDIUse=3 WtCom= 9.84D-01 WtEn= 1.60D-02
 Coeff-Com:  0.505D-01-0.539D-01-0.173D-01-0.609D-01-0.160D+00 0.827D-01
 Coeff-Com:  0.116D+01
 Coeff-En:   0.000D+00 0.000D+00 0.000D+00 0.000D+00 0.000D+00 0.000D+00
 Coeff-En:   0.100D+01
 Coeff:      0.497D-01-0.530D-01-0.170D-01-0.599D-01-0.158D+00 0.814D-01
 Coeff:      0.116D+01
 Gap=     0.102 Goal=   None    Shift=    0.000
 RMSDP=1.65D-04 MaxDP=1.79D-02 DE=-1.34D-03 OVMax= 1.92D-02

 Cycle   8  Pass 1  IDiag  1:
 E= -927.651254496992     Delta-E=       -0.000197499007 Rises=F Damp=F
 DIIS: error= 5.93D-04 at cycle   8 NSaved=   8.
 NSaved= 8 IEnMin= 8 EnMin= -927.651254496992     IErMin= 8 ErrMin= 5.93D-04
 ErrMax= 5.93D-04  0.00D+00 EMaxC= 1.00D-01 BMatC= 1.03D-05 BMatP= 4.31D-05
 IDIUse=3 WtCom= 9.94D-01 WtEn= 5.93D-03
 Coeff-Com:  0.289D-01-0.327D-01 0.142D-01 0.463D-01-0.847D-01-0.195D+00
 Coeff-Com:  0.590D+00 0.633D+00
 Coeff-En:   0.000D+00 0.000D+00 0.000D+00 0.000D+00 0.000D+00 0.000D+00
 Coeff-En:   0.000D+00 0.100D+01
 Coeff:      0.288D-01-0.325D-01 0.142D-01 0.460D-01-0.842D-01-0.194D+00
 Coeff:      0.587D+00 0.635D+00
 Gap=     0.102 Goal=   None    Shift=    0.000
 RMSDP=4.64D-05 MaxDP=7.37D-03 DE=-1.97D-04 OVMax= 7.61D-03

 Cycle   9  Pass 1  IDiag  1:
 E= -927.651284163874     Delta-E=       -0.000029666882 Rises=F Damp=F
 DIIS: error= 3.73D-04 at cycle   9 NSaved=   9.
 NSaved= 9 IEnMin= 9 EnMin= -927.651284163874     IErMin= 9 ErrMin= 3.73D-04
 ErrMax= 3.73D-04  0.00D+00 EMaxC= 1.00D-01 BMatC= 3.64D-06 BMatP= 1.03D-05
 IDIUse=3 WtCom= 9.96D-01 WtEn= 3.73D-03
 Coeff-Com: -0.221D-01 0.241D-01 0.339D-02-0.808D-05 0.593D-01 0.208D-01
 Coeff-Com: -0.298D+00 0.285D+00 0.927D+00
 Coeff-En:   0.000D+00 0.000D+00 0.000D+00 0.000D+00 0.000D+00 0.000D+00
 Coeff-En:   0.000D+00 0.000D+00 0.100D+01
 Coeff:     -0.220D-01 0.240D-01 0.338D-02-0.805D-05 0.591D-01 0.208D-01
 Coeff:     -0.297D+00 0.284D+00 0.927D+00
 Gap=     0.102 Goal=   None    Shift=    0.000
 RMSDP=4.89D-05 MaxDP=7.24D-03 DE=-2.97D-05 OVMax= 5.03D-03

 Cycle  10  Pass 1  IDiag  1:
 Density matrix breaks symmetry, PCut= 1.00D-07
 Density matrix has no symmetry -- integrals replicated.
 E= -927.651297542127     Delta-E=       -0.000013378252 Rises=F Damp=F
 DIIS: error= 9.83D-05 at cycle  10 NSaved=  10.
 NSaved=10 IEnMin=10 EnMin= -927.651297542127     IErMin=10 ErrMin= 9.83D-05
 ErrMax= 9.83D-05  0.00D+00 EMaxC= 1.00D-01 BMatC= 9.06D-07 BMatP= 3.64D-06
 IDIUse=1 WtCom= 1.00D+00 WtEn= 0.00D+00
 Coeff-Com: -0.208D-01 0.233D-01-0.222D-02-0.178D-01 0.380D-01 0.583D-01
 Coeff-Com: -0.294D+00-0.194D+00 0.301D-01 0.138D+01
 Coeff:     -0.208D-01 0.233D-01-0.222D-02-0.178D-01 0.380D-01 0.583D-01
 Coeff:     -0.294D+00-0.194D+00 0.301D-01 0.138D+01
 Gap=     0.102 Goal=   None    Shift=    0.000
 RMSDP=5.82D-05 MaxDP=6.96D-03 DE=-1.34D-05 OVMax= 6.61D-03

 Cycle  11  Pass 1  IDiag  1:
 Density matrix breaks symmetry, PCut= 1.00D-07
 Density matrix has no symmetry -- integrals replicated.
 E= -927.651305435213     Delta-E=       -0.000007893086 Rises=F Damp=F
 DIIS: error= 5.66D-05 at cycle  11 NSaved=  11.
 NSaved=11 IEnMin=11 EnMin= -927.651305435213     IErMin=11 ErrMin= 5.66D-05
 ErrMax= 5.66D-05  0.00D+00 EMaxC= 1.00D-01 BMatC= 1.90D-07 BMatP= 9.06D-07
 IDIUse=1 WtCom= 1.00D+00 WtEn= 0.00D+00
 Coeff-Com: -0.101D-01 0.117D-01-0.131D-02-0.783D-02-0.170D-02 0.745D-02
 Coeff-Com: -0.813D-02-0.971D-01-0.209D+00 0.330D+00 0.985D+00
 Coeff:     -0.101D-01 0.117D-01-0.131D-02-0.783D-02-0.170D-02 0.745D-02
 Coeff:     -0.813D-02-0.971D-01-0.209D+00 0.330D+00 0.985D+00
 Gap=     0.102 Goal=   None    Shift=    0.000
 RMSDP=2.77D-05 MaxDP=3.82D-03 DE=-7.89D-06 OVMax= 2.75D-03

 Cycle  12  Pass 1  IDiag  1:
 Density matrix breaks symmetry, PCut= 1.00D-07
 Density matrix has no symmetry -- integrals replicated.
 E= -927.651306503617     Delta-E=       -0.000001068404 Rises=F Damp=F
 DIIS: error= 2.52D-05 at cycle  12 NSaved=  12.
 NSaved=12 IEnMin=12 EnMin= -927.651306503617     IErMin=12 ErrMin= 2.52D-05
 ErrMax= 2.52D-05  0.00D+00 EMaxC= 1.00D-01 BMatC= 3.11D-08 BMatP= 1.90D-07
 IDIUse=1 WtCom= 1.00D+00 WtEn= 0.00D+00
 Coeff-Com: -0.808D-02 0.922D-02 0.358D-03-0.175D-02 0.345D-03-0.559D-02
 Coeff-Com:  0.161D-01 0.588D-02-0.550D-01-0.466D-01 0.268D+00 0.817D+00
 Coeff:     -0.808D-02 0.922D-02 0.358D-03-0.175D-02 0.345D-03-0.559D-02
 Coeff:      0.161D-01 0.588D-02-0.550D-01-0.466D-01 0.268D+00 0.817D+00
 Gap=     0.102 Goal=   None    Shift=    0.000
 RMSDP=6.39D-06 MaxDP=7.15D-04 DE=-1.07D-06 OVMax= 4.68D-04

 Cycle  13  Pass 1  IDiag  1:
 Density matrix breaks symmetry, PCut= 1.00D-07
 Density matrix has no symmetry -- integrals replicated.
 E= -927.651306551671     Delta-E=       -0.000000048054 Rises=F Damp=F
 DIIS: error= 2.67D-05 at cycle  13 NSaved=  13.
 NSaved=13 IEnMin=13 EnMin= -927.651306551671     IErMin=12 ErrMin= 2.52D-05
 ErrMax= 2.67D-05  0.00D+00 EMaxC= 1.00D-01 BMatC= 1.35D-08 BMatP= 3.11D-08
 IDIUse=1 WtCom= 1.00D+00 WtEn= 0.00D+00
 Coeff-Com: -0.404D-02 0.456D-02 0.439D-03 0.240D-03 0.205D-02-0.491D-02
 Coeff-Com: -0.743D-03 0.231D-01 0.163D-01-0.450D-01-0.124D+00 0.722D-01
 Coeff-Com:  0.106D+01
 Coeff:     -0.404D-02 0.456D-02 0.439D-03 0.240D-03 0.205D-02-0.491D-02
 Coeff:     -0.743D-03 0.231D-01 0.163D-01-0.450D-01-0.124D+00 0.722D-01
 Coeff:      0.106D+01
 Gap=     0.102 Goal=   None    Shift=    0.000
 RMSDP=1.25D-06 MaxDP=9.27D-05 DE=-4.81D-08 OVMax= 1.67D-04

 Cycle  14  Pass 1  IDiag  1:
 Density matrix breaks symmetry, PCut= 1.00D-07
 Density matrix has no symmetry -- integrals replicated.
 E= -927.651306582567     Delta-E=       -0.000000030896 Rises=F Damp=F
 DIIS: error= 1.58D-05 at cycle  14 NSaved=  14.
 NSaved=14 IEnMin=14 EnMin= -927.651306582567     IErMin=14 ErrMin= 1.58D-05
 ErrMax= 1.58D-05  0.00D+00 EMaxC= 1.00D-01 BMatC= 5.16D-09 BMatP= 1.35D-08
 IDIUse=1 WtCom= 1.00D+00 WtEn= 0.00D+00
 Coeff-Com: -0.209D-02 0.235D-02 0.219D-03 0.467D-03 0.122D-02-0.355D-02
 Coeff-Com: -0.255D-02 0.144D-01 0.138D-01-0.176D-01-0.992D-01-0.613D-01
 Coeff-Com:  0.545D+00 0.609D+00
 Coeff:     -0.209D-02 0.235D-02 0.219D-03 0.467D-03 0.122D-02-0.355D-02
 Coeff:     -0.255D-02 0.144D-01 0.138D-01-0.176D-01-0.992D-01-0.613D-01
 Coeff:      0.545D+00 0.609D+00
 Gap=     0.102 Goal=   None    Shift=    0.000
 RMSDP=1.17D-06 MaxDP=9.75D-05 DE=-3.09D-08 OVMax= 1.40D-04

 Cycle  15  Pass 1  IDiag  1:
 Density matrix breaks symmetry, PCut= 1.00D-07
 Density matrix has no symmetry -- integrals replicated.
 E= -927.651306592892     Delta-E=       -0.000000010325 Rises=F Damp=F
 DIIS: error= 8.63D-06 at cycle  15 NSaved=  15.
 NSaved=15 IEnMin=15 EnMin= -927.651306592892     IErMin=15 ErrMin= 8.63D-06
 ErrMax= 8.63D-06  0.00D+00 EMaxC= 1.00D-01 BMatC= 2.26D-09 BMatP= 5.16D-09
 IDIUse=1 WtCom= 1.00D+00 WtEn= 0.00D+00
 Coeff-Com:  0.628D-03-0.712D-03-0.123D-03 0.487D-03-0.276D-03-0.997D-03
 Coeff-Com: -0.248D-02-0.247D-02-0.627D-04 0.197D-01 0.396D-02-0.117D+00
 Coeff-Com: -0.343D+00 0.627D+00 0.815D+00
 Coeff:      0.628D-03-0.712D-03-0.123D-03 0.487D-03-0.276D-03-0.997D-03
 Coeff:     -0.248D-02-0.247D-02-0.627D-04 0.197D-01 0.396D-02-0.117D+00
 Coeff:     -0.343D+00 0.627D+00 0.815D+00
 Gap=     0.102 Goal=   None    Shift=    0.000
 RMSDP=9.11D-07 MaxDP=6.78D-05 DE=-1.03D-08 OVMax= 1.04D-04

 Cycle  16  Pass 1  IDiag  1:
 Density matrix breaks symmetry, PCut= 1.00D-07
 Density matrix has no symmetry -- integrals replicated.
 E= -927.651306600263     Delta-E=       -0.000000007371 Rises=F Damp=F
 DIIS: error= 2.00D-06 at cycle  16 NSaved=  16.
 NSaved=16 IEnMin=16 EnMin= -927.651306600263     IErMin=16 ErrMin= 2.00D-06
 ErrMax= 2.00D-06  0.00D+00 EMaxC= 1.00D-01 BMatC= 2.52D-10 BMatP= 2.26D-09
 IDIUse=1 WtCom= 1.00D+00 WtEn= 0.00D+00
 Coeff-Com:  0.116D-02-0.133D-02-0.294D-04 0.109D-03 0.178D-03 0.117D-02
 Coeff-Com: -0.120D-02-0.457D-02 0.212D-02-0.116D-02 0.179D-01 0.407D-01
 Coeff-Com: -0.155D-01-0.409D+00-0.281D+00 0.165D+01
 Coeff:      0.116D-02-0.133D-02-0.294D-04 0.109D-03 0.178D-03 0.117D-02
 Coeff:     -0.120D-02-0.457D-02 0.212D-02-0.116D-02 0.179D-01 0.407D-01
 Coeff:     -0.155D-01-0.409D+00-0.281D+00 0.165D+01
 Gap=     0.102 Goal=   None    Shift=    0.000
 RMSDP=4.07D-07 MaxDP=3.10D-05 DE=-7.37D-09 OVMax= 5.22D-05

 Cycle  17  Pass 1  IDiag  1:
 Density matrix breaks symmetry, PCut= 1.00D-07
 Density matrix has no symmetry -- integrals replicated.
 E= -927.651306601475     Delta-E=       -0.000000001211 Rises=F Damp=F
 DIIS: error= 3.94D-06 at cycle  17 NSaved=  17.
 NSaved=17 IEnMin=17 EnMin= -927.651306601475     IErMin=16 ErrMin= 2.00D-06
 ErrMax= 3.94D-06  0.00D+00 EMaxC= 1.00D-01 BMatC= 3.10D-10 BMatP= 2.52D-10
 IDIUse=1 WtCom= 1.00D+00 WtEn= 0.00D+00
 Coeff-Com:  0.981D-03-0.112D-02-0.145D-05 0.387D-04 0.451D-04 0.116D-02
 Coeff-Com: -0.131D-03-0.318D-02 0.164D-02-0.354D-02 0.101D-01 0.454D-01
 Coeff-Com:  0.511D-01-0.378D+00-0.332D+00 0.103D+01 0.580D+00
 Coeff:      0.981D-03-0.112D-02-0.145D-05 0.387D-04 0.451D-04 0.116D-02
 Coeff:     -0.131D-03-0.318D-02 0.164D-02-0.354D-02 0.101D-01 0.454D-01
 Coeff:      0.511D-01-0.378D+00-0.332D+00 0.103D+01 0.580D+00
 Gap=     0.102 Goal=   None    Shift=    0.000
 RMSDP=2.91D-07 MaxDP=2.93D-05 DE=-1.21D-09 OVMax= 2.94D-05

 Cycle  18  Pass 1  IDiag  1:
 Density matrix breaks symmetry, PCut= 1.00D-07
 Density matrix has no symmetry -- integrals replicated.
 E= -927.651306602191     Delta-E=       -0.000000000716 Rises=F Damp=F
 DIIS: error= 3.30D-06 at cycle  18 NSaved=  18.
 NSaved=18 IEnMin=18 EnMin= -927.651306602191     IErMin=16 ErrMin= 2.00D-06
 ErrMax= 3.30D-06  0.00D+00 EMaxC= 1.00D-01 BMatC= 1.91D-10 BMatP= 2.52D-10
 IDIUse=1 WtCom= 1.00D+00 WtEn= 0.00D+00
 Coeff-Com:  0.457D-03-0.518D-03 0.189D-04 0.124D-04-0.288D-03 0.450D-03
 Coeff-Com:  0.131D-02-0.206D-03-0.237D-03-0.137D-02-0.478D-02 0.956D-02
 Coeff-Com:  0.588D-01-0.428D-01-0.102D+00-0.368D+00 0.471D+00 0.979D+00
 Coeff:      0.457D-03-0.518D-03 0.189D-04 0.124D-04-0.288D-03 0.450D-03
 Coeff:      0.131D-02-0.206D-03-0.237D-03-0.137D-02-0.478D-02 0.956D-02
 Coeff:      0.588D-01-0.428D-01-0.102D+00-0.368D+00 0.471D+00 0.979D+00
 Gap=     0.102 Goal=   None    Shift=    0.000
 RMSDP=2.27D-07 MaxDP=1.58D-05 DE=-7.16D-10 OVMax= 5.44D-05

 Cycle  19  Pass 1  IDiag  1:
 Density matrix breaks symmetry, PCut= 1.00D-07
 Density matrix has no symmetry -- integrals replicated.
 E= -927.651306603064     Delta-E=       -0.000000000873 Rises=F Damp=F
 DIIS: error= 1.50D-06 at cycle  19 NSaved=  19.
 NSaved=19 IEnMin=19 EnMin= -927.651306603064     IErMin=19 ErrMin= 1.50D-06
 ErrMax= 1.50D-06  0.00D+00 EMaxC= 1.00D-01 BMatC= 4.06D-11 BMatP= 1.91D-10
 IDIUse=1 WtCom= 1.00D+00 WtEn= 0.00D+00
 Coeff-Com:  0.121D-03-0.136D-03 0.136D-04 0.310D-04-0.140D-03-0.683D-04
 Coeff-Com:  0.674D-03 0.519D-03-0.501D-03 0.400D-03-0.411D-02-0.607D-02
 Coeff-Com:  0.186D-01 0.441D-01 0.127D-01-0.309D+00-0.538D-01 0.219D+00
 Coeff-Com:  0.108D+01
 Coeff:      0.121D-03-0.136D-03 0.136D-04 0.310D-04-0.140D-03-0.683D-04
 Coeff:      0.674D-03 0.519D-03-0.501D-03 0.400D-03-0.411D-02-0.607D-02
 Coeff:      0.186D-01 0.441D-01 0.127D-01-0.309D+00-0.538D-01 0.219D+00
 Coeff:      0.108D+01
 Gap=     0.102 Goal=   None    Shift=    0.000
 RMSDP=1.85D-07 MaxDP=1.85D-05 DE=-8.73D-10 OVMax= 3.65D-05

 Cycle  20  Pass 1  IDiag  1:
 Density matrix breaks symmetry, PCut= 1.00D-07
 Density matrix has no symmetry -- integrals replicated.
 E= -927.651306603295     Delta-E=       -0.000000000232 Rises=F Damp=F
 DIIS: error= 4.11D-07 at cycle  20 NSaved=  20.
 NSaved=20 IEnMin=20 EnMin= -927.651306603295     IErMin=20 ErrMin= 4.11D-07
 ErrMax= 4.11D-07  0.00D+00 EMaxC= 1.00D-01 BMatC= 4.33D-12 BMatP= 4.06D-11
 IDIUse=1 WtCom= 1.00D+00 WtEn= 0.00D+00
 Coeff-Com:  0.296D-04-0.333D-04 0.377D-05 0.190D-04-0.327D-05-0.802D-04
 Coeff-Com:  0.644D-04 0.188D-03-0.126D-03 0.337D-03-0.962D-03-0.321D-02
 Coeff-Com:  0.298D-02 0.907D-02 0.692D-02-0.227D-01-0.118D+00-0.122D+00
 Coeff-Com:  0.491D+00 0.757D+00
 Coeff:      0.296D-04-0.333D-04 0.377D-05 0.190D-04-0.327D-05-0.802D-04
 Coeff:      0.644D-04 0.188D-03-0.126D-03 0.337D-03-0.962D-03-0.321D-02
 Coeff:      0.298D-02 0.907D-02 0.692D-02-0.227D-01-0.118D+00-0.122D+00
 Coeff:      0.491D+00 0.757D+00
 Gap=     0.102 Goal=   None    Shift=    0.000
 RMSDP=6.86D-08 MaxDP=5.03D-06 DE=-2.32D-10 OVMax= 1.10D-05

 Cycle  21  Pass 1  IDiag  1:
 Density matrix breaks symmetry, PCut= 1.00D-07
 Density matrix has no symmetry -- integrals replicated.
 E= -927.651306603316     Delta-E=       -0.000000000020 Rises=F Damp=F
 DIIS: error= 1.71D-07 at cycle  21 NSaved=  20.
 NSaved=20 IEnMin=20 EnMin= -927.651306603316     IErMin=20 ErrMin= 1.71D-07
 ErrMax= 1.71D-07  0.00D+00 EMaxC= 1.00D-01 BMatC= 1.43D-12 BMatP= 4.33D-12
 IDIUse=1 WtCom= 1.00D+00 WtEn= 0.00D+00
 Coeff-Com:  0.106D-04-0.120D-04 0.834D-05 0.218D-04-0.318D-04-0.769D-04
 Coeff-Com:  0.153D-04 0.244D-04 0.149D-03 0.314D-04-0.887D-03-0.235D-03
 Coeff-Com: -0.508D-02-0.791D-03 0.482D-01-0.715D-01-0.129D+00 0.140D+00
 Coeff-Com:  0.548D+00 0.471D+00
 Coeff:      0.106D-04-0.120D-04 0.834D-05 0.218D-04-0.318D-04-0.769D-04
 Coeff:      0.153D-04 0.244D-04 0.149D-03 0.314D-04-0.887D-03-0.235D-03
 Coeff:     -0.508D-02-0.791D-03 0.482D-01-0.715D-01-0.129D+00 0.140D+00
 Coeff:      0.548D+00 0.471D+00
 Gap=     0.102 Goal=   None    Shift=    0.000
 RMSDP=2.61D-08 MaxDP=1.54D-06 DE=-2.05D-11 OVMax= 2.94D-06

 Cycle  22  Pass 1  IDiag  1:
 Density matrix breaks symmetry, PCut= 1.00D-07
 Density matrix has no symmetry -- integrals replicated.
 E= -927.651306603320     Delta-E=       -0.000000000004 Rises=F Damp=F
 DIIS: error= 4.66D-08 at cycle  22 NSaved=  20.
 NSaved=20 IEnMin=20 EnMin= -927.651306603320     IErMin=20 ErrMin= 4.66D-08
 ErrMax= 4.66D-08  0.00D+00 EMaxC= 1.00D-01 BMatC= 1.17D-13 BMatP= 1.43D-12
 IDIUse=1 WtCom= 1.00D+00 WtEn= 0.00D+00
 Coeff-Com: -0.309D-07 0.132D-05 0.753D-05 0.480D-05-0.407D-04-0.214D-04
 Coeff-Com:  0.808D-04-0.855D-04 0.591D-04 0.597D-03 0.511D-03-0.563D-02
 Coeff-Com: -0.372D-02 0.275D-01-0.358D-02-0.288D-01-0.544D-01 0.669D-01
 Coeff-Com:  0.222D+00 0.779D+00
 Coeff:     -0.309D-07 0.132D-05 0.753D-05 0.480D-05-0.407D-04-0.214D-04
 Coeff:      0.808D-04-0.855D-04 0.591D-04 0.597D-03 0.511D-03-0.563D-02
 Coeff:     -0.372D-02 0.275D-01-0.358D-02-0.288D-01-0.544D-01 0.669D-01
 Coeff:      0.222D+00 0.779D+00
 Gap=     0.102 Goal=   None    Shift=    0.000
 RMSDP=1.01D-08 MaxDP=1.01D-06 DE=-4.21D-12 OVMax= 1.05D-06

 Cycle  23  Pass 1  IDiag  1:
 Density matrix breaks symmetry, PCut= 1.00D-07
 Density matrix has no symmetry -- integrals replicated.
 E= -927.651306603320     Delta-E=       -0.000000000000 Rises=F Damp=F
 DIIS: error= 2.19D-08 at cycle  23 NSaved=  20.
 NSaved=20 IEnMin=20 EnMin= -927.651306603320     IErMin=20 ErrMin= 2.19D-08
 ErrMax= 2.19D-08  0.00D+00 EMaxC= 1.00D-01 BMatC= 3.05D-14 BMatP= 1.17D-13
 IDIUse=1 WtCom= 1.00D+00 WtEn= 0.00D+00
 Coeff-Com: -0.519D-06 0.643D-06 0.945D-05-0.123D-04-0.177D-04 0.516D-04
 Coeff-Com: -0.836D-04 0.311D-04 0.543D-03 0.337D-03-0.312D-02-0.248D-02
 Coeff-Com:  0.111D-01 0.838D-02 0.850D-03-0.534D-01-0.403D-01 0.610D-01
 Coeff-Com:  0.465D+00 0.553D+00
 Coeff:     -0.519D-06 0.643D-06 0.945D-05-0.123D-04-0.177D-04 0.516D-04
 Coeff:     -0.836D-04 0.311D-04 0.543D-03 0.337D-03-0.312D-02-0.248D-02
 Coeff:      0.111D-01 0.838D-02 0.850D-03-0.534D-01-0.403D-01 0.610D-01
 Coeff:      0.465D+00 0.553D+00
 Gap=     0.102 Goal=   None    Shift=    0.000
 RMSDP=5.77D-09 MaxDP=5.29D-07 DE=-3.41D-13 OVMax= 4.89D-07

 SCF Done:  E(ROHF) =  -927.651306603     A.U. after   23 cycles
            NFock= 23  Conv=0.58D-08     -V/T= 1.9726
 <Sx>= 0.0000 <Sy>= 0.0000 <Sz>= 1.0000 <S**2>= 2.0000 S= 1.0000
 <L.S>=  0.00000000000    
 KE= 9.537593680884D+02 PE=-2.322906125431D+03 EE= 3.924769301486D+02
 Annihilation of the first spin contaminant:
 S**2 before annihilation     2.0000,   after     2.0000
 Leave Link  502 at Wed Mar 14 14:08:22 2018, MaxMem= 21474836480 cpu:             171.6 elap:              12.9
 (Enter /home1/apps/gaussian/16rA.03/g16/l801.exe)
 Windowed orbitals will be sorted by symmetry type.
 An orbital has undefined symmetry, so N**3 symmetry is turned off.
 GenMOA:  NOpAll=  4 NOp2=4 NOpUse=  4 JSym2X=1
 FoFJK:  IHMeth= 1 ICntrl=       0 DoSepK=F KAlg= 0 I1Cent=           0 FoldK=F
 IRaf=         0 NMat=       1 IRICut=       1 DoRegI=T DoRafI=F ISym2E= 1 IDoP0=0 IntGTp=1.
 FoFCou: FMM=F IPFlag=           8 FMFlag=      100000 FMFlg1=           0
         NFxFlg=           0 DoJE=F BraDBF=F KetDBF=F FulRan=T
         wScrn=  0.000000 ICntrl=         0 IOpCl=  1 I1Cent=           0 NGrid=           0
         NMat0=    1 NMatS0=      1 NMatT0=    0 NMatD0=    1 NMtDS0=    0 NMtDT0=    0
 Petite list used in FoFCou.
 <Sx>= 0.0000 <Sy>= 0.0000 <Sz>= 1.0000 <S**2>= 2.0000 S= 1.0000
 Range of M.O.s used for correlation:     7   253
 NBasis=   261 NAE=    16 NBE=    14 NFC=     6 NFV=     0
 NROrb=    247 NOA=    10 NOB=     8 NVA=   237 NVB=   239

 **** Warning!!: The largest alpha MO coefficient is  0.26077794D+03


 **** Warning!!: The largest beta MO coefficient is  0.26075615D+03

 Singles contribution to E2=   -0.2903509369D-02
 Leave Link  801 at Wed Mar 14 14:08:23 2018, MaxMem= 21474836480 cpu:              36.9 elap:               1.2
 (Enter /home1/apps/gaussian/16rA.03/g16/l804.exe)
 Open-shell transformation, MDV= 21474836480 ITran=4 ISComp=1.
 Unit  1 TFree=       2064654 TCopy=        898788.
 Semi-Direct transformation.
 ModeAB=           4 MOrb=            10 LenV=   21472900419
 LASXX=     73262475 LTotXX=    73262475 LenRXX=   147535375
 LTotAB=    74272900 MaxLAS=   118890980 LenRXY=           0
 NonZer=   220797850 LenScr=   332495872 LnRSAI=   118890980
 LnScr1=   179112960 LExtra=     8327902 Total=    786363089
 MaxDsk= 67108864000 SrtSym=           T ITran=            4
 DoSDTr:  NPSUse= 32
 JobTyp=1 Pass  1:  I=   1 to  10.
 (rs|ai) integrals will be sorted in core.
 Complete sort for first half transformation.
 First half transformation complete.
 Begin second half transformation for I=  10.
 Complete sort for second half transformation.
 Second half transformation complete.
 ModeAB=           4 MOrb=             8 LenV=   21472900419
 LASXX=     58885226 LTotXX=    58885226 LenRXX=   113824670
 LTotAB=    54939444 MaxLAS=    95112784 LenRXY=           0
 NonZer=   172709896 LenScr=   260081664 LnRSAI=    95112784
 LnScr1=   143448576 LExtra=   155863277 Total=    768330971
 MaxDsk= 67108864000 SrtSym=           T ITran=            4
 DoSDTr:  NPSUse= 32
 JobTyp=2 Pass  1:  I=   1 to   8.
 (rs|ai) integrals will be sorted in core.
 Complete sort for first half transformation.
 First half transformation complete.
 Complete sort for second half transformation.
 Second half transformation complete.
 SymMOI:  orbitals are not symmetric.
 Spin components of T(2) and E(2):
     alpha-alpha T2 =       0.4004399219D-01 E2=     -0.1166664527D+00
     alpha-beta  T2 =       0.1505494130D+00 E2=     -0.5222900251D+00
     beta-beta   T2 =       0.3041497242D-01 E2=     -0.9053505595D-01
 ANorm=    0.1105668762D+01
 E2 =    -0.7323950431D+00 EUMP2 =    -0.92838370164641D+03
 (S**2,0)=  0.20000D+01           (S**2,1)=  0.20000D+01
 E(PUHF)=      -0.92765130660D+03        E(PMP2)=      -0.92838370165D+03
 Leave Link  804 at Wed Mar 14 14:09:07 2018, MaxMem= 21474836480 cpu:            1418.2 elap:              44.5
 (Enter /home1/apps/gaussian/16rA.03/g16/l913.exe)
 CIDS:  MDV= 21474836480.
 Frozen-core window:  NFC=   6 NFV=   0.
 IFCWin=0 IBDFC=1 NFBD=     0     0 NFCmp=     0     0 NFFFC=     0     0
 Using original routines for 1st iteration.
 Using DD4UQ or CC4UQ for 2nd and later iterations.
 Keep R2 and R3 ints in memory in symmetry-blocked form, NReq=734618603.
 FoFCou: FMM=F IPFlag=           8 FMFlag=           0 FMFlg1=           0
         NFxFlg=           0 DoJE=F BraDBF=F KetDBF=F FulRan=T
         wScrn=  0.000000 ICntrl=       600 IOpCl=  0 I1Cent=           0 NGrid=           0
         NMat0=    1 NMatS0=  34191 NMatT0=    0 NMatD0=    1 NMtDS0=    0 NMtDT0=    0
 Petite list used in FoFCou.
 CIDS: In Core Option IDoMem=           1.
 CCSD(T)
 =======
 Iterations= 150 Convergence= 0.100D-06
 Produce multiple copies of IABC intergrals
 Iteration Nr.   1
 **********************
 DD1Dir will call FoFMem   1 times, MxPair=       234
 NAB=    80 NAA=    45 NBB=    28.
 DD1Dir will call FoFMem   1 times, MxPair=       234
 NAB=    80 NAA=    45 NBB=    28.
 MP4(R+Q)= -0.42074687D-01
 Maximum subspace dimension=  5
 A-vector RMS=  3.4341308D-04 Max=  4.4138985D-03 conv= 1.00D-05.
 RLE energy=       -0.7137473151
 E3=        0.61049748D-01        EROMP3=      -0.92832265190D+03
 E4(SDQ)=  -0.94055498D-01        ROMP4(SDQ)=  -0.92841670740D+03
 VARIATIONAL ENERGIES WITH THE FIRST-ORDER WAVEFUNCTION:
 DE(Corr)= -0.71325768     E(Corr)=     -928.36456428    
 NORM(A)=   0.10971816D+01
 Iteration Nr.   2
 **********************
 DD1Dir will call FoFMem   1 times, MxPair=       234
 NAB=    80 NAA=    45 NBB=    28.
 A-vector RMS=  9.7503969D-03 Max=  1.0640258D-01 conv= 1.00D-05.
 RLE energy=       -0.6422732524
 DE(Corr)= -0.64280084     E(CORR)=     -928.29410745     Delta= 7.05D-02
 NORM(A)=   0.11159781D+01
 Iteration Nr.   3
 **********************
 DD1Dir will call FoFMem   1 times, MxPair=       234
 NAB=    80 NAA=    45 NBB=    28.
 A-vector RMS=  9.4150950D-03 Max=  1.0112918D-01 conv= 1.00D-05.
 RLE energy=       -0.7115532248
 DE(Corr)= -0.75423128     E(CORR)=     -928.40553788     Delta=-1.11D-01
 NORM(A)=   0.10962957D+01
 Iteration Nr.   4
 **********************
 DD1Dir will call FoFMem   1 times, MxPair=       234
 NAB=    80 NAA=    45 NBB=    28.
 A-vector RMS=  7.9549250D-03 Max=  8.8017339D-02 conv= 1.00D-05.
 RLE energy=       -0.7061603640
 DE(Corr)= -0.65759426     E(CORR)=     -928.30890087     Delta= 9.66D-02
 NORM(A)=   0.11368755D+01
 Iteration Nr.   5
 **********************
 DD1Dir will call FoFMem   1 times, MxPair=       234
 NAB=    80 NAA=    45 NBB=    28.
 A-vector RMS=  1.2774207D-03 Max=  1.3911204D-02 conv= 1.00D-05.
 RLE energy=       -0.7072361126
 DE(Corr)= -0.71643614     E(CORR)=     -928.36774274     Delta=-5.88D-02
 NORM(A)=   0.11654686D+01
 Iteration Nr.   6
 **********************
 DD1Dir will call FoFMem   1 times, MxPair=       234
 NAB=    80 NAA=    45 NBB=    28.
 A-vector RMS=  1.9853664D-03 Max=  2.0483522D-02 conv= 1.00D-05.
 RLE energy=       -0.7109460614
 DE(Corr)= -0.72264145     E(CORR)=     -928.37394806     Delta=-6.21D-03
 NORM(A)=   0.11560556D+01
 Iteration Nr.   7
 **********************
 DD1Dir will call FoFMem   1 times, MxPair=       234
 NAB=    80 NAA=    45 NBB=    28.
 A-vector RMS=  4.1260047D-04 Max=  5.9215177D-03 conv= 1.00D-05.
 RLE energy=       -0.7110773458
 DE(Corr)= -0.70906720     E(CORR)=     -928.36037380     Delta= 1.36D-02
 NORM(A)=   0.11653231D+01
 Iteration Nr.   8
 **********************
 DD1Dir will call FoFMem   1 times, MxPair=       234
 NAB=    80 NAA=    45 NBB=    28.
 A-vector RMS=  3.0603541D-04 Max=  3.5441789D-03 conv= 1.00D-05.
 RLE energy=       -0.7107134294
 DE(Corr)= -0.71072552     E(CORR)=     -928.36203212     Delta=-1.66D-03
 NORM(A)=   0.11698620D+01
 Iteration Nr.   9
 **********************
 DD1Dir will call FoFMem   1 times, MxPair=       234
 NAB=    80 NAA=    45 NBB=    28.
 A-vector RMS=  1.9183478D-04 Max=  2.0771488D-03 conv= 1.00D-05.
 RLE energy=       -0.7113585424
 DE(Corr)= -0.71144145     E(CORR)=     -928.36274805     Delta=-7.16D-04
 NORM(A)=   0.11713554D+01
 Iteration Nr.  10
 **********************
 DD1Dir will call FoFMem   1 times, MxPair=       234
 NAB=    80 NAA=    45 NBB=    28.
 A-vector RMS=  1.3916887D-04 Max=  1.6358008D-03 conv= 1.00D-05.
 RLE energy=       -0.7114568093
 DE(Corr)= -0.71081637     E(CORR)=     -928.36212297     Delta= 6.25D-04
 NORM(A)=   0.11738726D+01
 Iteration Nr.  11
 **********************
 DD1Dir will call FoFMem   1 times, MxPair=       234
 NAB=    80 NAA=    45 NBB=    28.
 A-vector RMS=  1.1298480D-04 Max=  1.2895514D-03 conv= 1.00D-05.
 RLE energy=       -0.7114382250
 DE(Corr)= -0.71168260     E(CORR)=     -928.36298920     Delta=-8.66D-04
 NORM(A)=   0.11732343D+01
 Iteration Nr.  12
 **********************
 DD1Dir will call FoFMem   1 times, MxPair=       234
 NAB=    80 NAA=    45 NBB=    28.
 A-vector RMS=  4.1948769D-05 Max=  5.8791320D-04 conv= 1.00D-05.
 RLE energy=       -0.7115012914
 DE(Corr)= -0.71129818     E(CORR)=     -928.36260479     Delta= 3.84D-04
 NORM(A)=   0.11736800D+01
 Iteration Nr.  13
 **********************
 DD1Dir will call FoFMem   1 times, MxPair=       234
 NAB=    80 NAA=    45 NBB=    28.
 A-vector RMS=  5.1879528D-05 Max=  6.5262800D-04 conv= 1.00D-05.
 RLE energy=       -0.7114320984
 DE(Corr)= -0.71144057     E(CORR)=     -928.36274717     Delta=-1.42D-04
 NORM(A)=   0.11737669D+01
 Iteration Nr.  14
 **********************
 DD1Dir will call FoFMem   1 times, MxPair=       234
 NAB=    80 NAA=    45 NBB=    28.
 A-vector RMS=  1.9488303D-05 Max=  2.4694525D-04 conv= 1.00D-05.
 RLE energy=       -0.7115217030
 DE(Corr)= -0.71156260     E(CORR)=     -928.36286920     Delta=-1.22D-04
 NORM(A)=   0.11737861D+01
 Iteration Nr.  15
 **********************
 DD1Dir will call FoFMem   1 times, MxPair=       234
 NAB=    80 NAA=    45 NBB=    28.
 A-vector RMS=  2.0461752D-05 Max=  2.6225113D-04 conv= 1.00D-05.
 RLE energy=       -0.7114961638
 DE(Corr)= -0.71144268     E(CORR)=     -928.36274928     Delta= 1.20D-04
 NORM(A)=   0.11738532D+01
 Iteration Nr.  16
 **********************
 DD1Dir will call FoFMem   1 times, MxPair=       234
 NAB=    80 NAA=    45 NBB=    28.
 A-vector RMS=  6.5599761D-06 Max=  6.7368632D-05 conv= 1.00D-05.
 RLE energy=       -0.7114845032
 DE(Corr)= -0.71149896     E(CORR)=     -928.36280557     Delta=-5.63D-05
 NORM(A)=   0.11738937D+01
 Iteration Nr.  17
 **********************
 DD1Dir will call FoFMem   1 times, MxPair=       234
 NAB=    80 NAA=    45 NBB=    28.
 A-vector RMS=  8.2968964D-06 Max=  7.9568434D-05 conv= 1.00D-05.
 RLE energy=       -0.7115216657
 DE(Corr)= -0.71152822     E(CORR)=     -928.36283483     Delta=-2.93D-05
 NORM(A)=   0.11738882D+01
 Iteration Nr.  18
 **********************
 DD1Dir will call FoFMem   1 times, MxPair=       234
 NAB=    80 NAA=    45 NBB=    28.
 A-vector RMS=  6.5631522D-06 Max=  5.7983105D-05 conv= 1.00D-05.
 RLE energy=       -0.7115008243
 DE(Corr)= -0.71147833     E(CORR)=     -928.36278494     Delta= 4.99D-05
 NORM(A)=   0.11739010D+01
 Iteration Nr.  19
 **********************
 DD1Dir will call FoFMem   1 times, MxPair=       234
 NAB=    80 NAA=    45 NBB=    28.
 A-vector RMS=  3.1674918D-06 Max=  3.6743533D-05 conv= 1.00D-05.
 RLE energy=       -0.7115020969
 DE(Corr)= -0.71150960     E(CORR)=     -928.36281620     Delta=-3.13D-05
 NORM(A)=   0.11738904D+01
 Iteration Nr.  20
 **********************
 DD1Dir will call FoFMem   1 times, MxPair=       234
 NAB=    80 NAA=    45 NBB=    28.
 A-vector RMS=  3.0785885D-06 Max=  2.8419029D-05 conv= 1.00D-05.
 RLE energy=       -0.7115110360
 DE(Corr)= -0.71150658     E(CORR)=     -928.36281319     Delta= 3.02D-06
 NORM(A)=   0.11738817D+01
 Iteration Nr.  21
 **********************
 DD1Dir will call FoFMem   1 times, MxPair=       234
 NAB=    80 NAA=    45 NBB=    28.
 A-vector RMS=  2.5252968D-06 Max=  2.8242662D-05 conv= 1.00D-05.
 RLE energy=       -0.7115017349
 DE(Corr)= -0.71149391     E(CORR)=     -928.36280051     Delta= 1.27D-05
 NORM(A)=   0.11738724D+01
 Iteration Nr.  22
 **********************
 DD1Dir will call FoFMem   1 times, MxPair=       234
 NAB=    80 NAA=    45 NBB=    28.
 A-vector RMS=  1.7219364D-06 Max=  2.8296358D-05 conv= 1.00D-05.
 RLE energy=       -0.7115005821
 DE(Corr)= -0.71150495     E(CORR)=     -928.36281155     Delta=-1.10D-05
 NORM(A)=   0.11738605D+01
 Iteration Nr.  23
 **********************
 DD1Dir will call FoFMem   1 times, MxPair=       234
 NAB=    80 NAA=    45 NBB=    28.
 A-vector RMS=  9.8549487D-07 Max=  1.2525727D-05 conv= 1.00D-05.
 RLE energy=       -0.7115051982
 DE(Corr)= -0.71150437     E(CORR)=     -928.36281097     Delta= 5.82D-07
 NORM(A)=   0.11738474D+01
 Iteration Nr.  24
 **********************
 DD1Dir will call FoFMem   1 times, MxPair=       234
 NAB=    80 NAA=    45 NBB=    28.
 A-vector RMS=  1.3595730D-06 Max=  1.7405850D-05 conv= 1.00D-05.
 RLE energy=       -0.7114987145
 DE(Corr)= -0.71149614     E(CORR)=     -928.36280274     Delta= 8.23D-06
 NORM(A)=   0.11738393D+01
 Iteration Nr.  25
 **********************
 DD1Dir will call FoFMem   1 times, MxPair=       234
 NAB=    80 NAA=    45 NBB=    28.
 A-vector RMS=  8.8905828D-07 Max=  1.1630010D-05 conv= 1.00D-05.
 RLE energy=       -0.7114994824
 DE(Corr)= -0.71150355     E(CORR)=     -928.36281015     Delta=-7.41D-06
 NORM(A)=   0.11738298D+01
 Iteration Nr.  26
 **********************
 DD1Dir will call FoFMem   1 times, MxPair=       234
 NAB=    80 NAA=    45 NBB=    28.
 A-vector RMS=  5.8200420D-07 Max=  6.0079308D-06 conv= 1.00D-05.
 RLE energy=       -0.7115007476
 DE(Corr)= -0.71150058     E(CORR)=     -928.36280718     Delta= 2.97D-06
 NORM(A)=   0.11738252D+01
 Iteration Nr.  27
 **********************
 DD1Dir will call FoFMem   1 times, MxPair=       234
 NAB=    80 NAA=    45 NBB=    28.
 A-vector RMS=  4.1046069D-07 Max=  4.4292084D-06 conv= 1.00D-05.
 RLE energy=       -0.7114985146
 DE(Corr)= -0.71149824     E(CORR)=     -928.36280485     Delta= 2.34D-06
 NORM(A)=   0.11738225D+01
 Iteration Nr.  28
 **********************
 DD1Dir will call FoFMem   1 times, MxPair=       234
 NAB=    80 NAA=    45 NBB=    28.
 A-vector RMS=  4.1969833D-07 Max=  7.3537049D-06 conv= 1.00D-05.
 RLE energy=       -0.7114989119
 DE(Corr)= -0.71150063     E(CORR)=     -928.36280723     Delta=-2.38D-06
 NORM(A)=   0.11738205D+01
 Iteration Nr.  29
 **********************
 DD1Dir will call FoFMem   1 times, MxPair=       234
 NAB=    80 NAA=    45 NBB=    28.
 A-vector RMS=  2.5730437D-07 Max=  5.7625701D-06 conv= 1.00D-05.
 RLE energy=       -0.7114997521
 DE(Corr)= -0.71149963     E(CORR)=     -928.36280624     Delta= 9.94D-07
 NORM(A)=   0.11738191D+01
 Iteration Nr.  30
 **********************
 DD1Dir will call FoFMem   1 times, MxPair=       234
 NAB=    80 NAA=    45 NBB=    28.
 A-vector RMS=  2.4043363D-07 Max=  2.8188091D-06 conv= 1.00D-05.
 RLE energy=       -0.7114987509
 DE(Corr)= -0.71149825     E(CORR)=     -928.36280485     Delta= 1.39D-06
 NORM(A)=   0.11738197D+01
 Iteration Nr.  31
 **********************
 DD1Dir will call FoFMem   1 times, MxPair=       234
 NAB=    80 NAA=    45 NBB=    28.
 A-vector RMS=  1.4848783D-07 Max=  1.5238556D-06 conv= 1.00D-05.
 RLE energy=       -0.7114991473
 DE(Corr)= -0.71149965     E(CORR)=     -928.36280626     Delta=-1.41D-06
 NORM(A)=   0.11738196D+01
 Iteration Nr.  32
 **********************
 DD1Dir will call FoFMem   1 times, MxPair=       234
 NAB=    80 NAA=    45 NBB=    28.
 A-vector RMS=  1.3309181D-07 Max=  1.6889067D-06 conv= 1.00D-05.
 RLE energy=       -0.7114993564
 DE(Corr)= -0.71149902     E(CORR)=     -928.36280563     Delta= 6.31D-07
 NORM(A)=   0.11738202D+01
 Iteration Nr.  33
 **********************
 DD1Dir will call FoFMem   1 times, MxPair=       234
 NAB=    80 NAA=    45 NBB=    28.
 A-vector RMS=  9.0669090D-08 Max=  1.0617408D-06 conv= 1.00D-05.
 RLE energy=       -0.7114989815
 DE(Corr)= -0.71149885     E(CORR)=     -928.36280545     Delta= 1.71D-07
 NORM(A)=   0.11738209D+01
 Iteration Nr.  34
 **********************
 DD1Dir will call FoFMem   1 times, MxPair=       234
 NAB=    80 NAA=    45 NBB=    28.
 A-vector RMS=  7.9070097D-08 Max=  8.3825086D-07 conv= 1.00D-05.
 RLE energy=       -0.7114992030
 DE(Corr)= -0.71149941     E(CORR)=     -928.36280602     Delta=-5.62D-07
 NORM(A)=   0.11738213D+01
 Iteration Nr.  35
 **********************
 DD1Dir will call FoFMem   1 times, MxPair=       234
 NAB=    80 NAA=    45 NBB=    28.
 A-vector RMS=  6.2323461D-08 Max=  1.2729785D-06 conv= 1.00D-05.
 RLE energy=       -0.7114993591
 DE(Corr)= -0.71149918     E(CORR)=     -928.36280578     Delta= 2.34D-07
 NORM(A)=   0.11738217D+01
 Iteration Nr.  36
 **********************
 DD1Dir will call FoFMem   1 times, MxPair=       234
 NAB=    80 NAA=    45 NBB=    28.
 A-vector RMS=  5.1159462D-08 Max=  5.7480307D-07 conv= 1.00D-05.
 RLE energy=       -0.7114991032
 DE(Corr)= -0.71149903     E(CORR)=     -928.36280564     Delta= 1.46D-07
 NORM(A)=   0.11738223D+01
 Iteration Nr.  37
 **********************
 DD1Dir will call FoFMem   1 times, MxPair=       234
 NAB=    80 NAA=    45 NBB=    28.
 A-vector RMS=  5.6428105D-08 Max=  7.4533798D-07 conv= 1.00D-05.
 RLE energy=       -0.7114992543
 DE(Corr)= -0.71149947     E(CORR)=     -928.36280607     Delta=-4.34D-07
 NORM(A)=   0.11738224D+01
 Iteration Nr.  38
 **********************
 DD1Dir will call FoFMem   1 times, MxPair=       234
 NAB=    80 NAA=    45 NBB=    28.
 A-vector RMS=  2.1137788D-08 Max=  2.1927417D-07 conv= 1.00D-05.
 RLE energy=       -0.7114993222
 DE(Corr)= -0.71149928     E(CORR)=     -928.36280589     Delta= 1.83D-07
 NORM(A)=   0.11738228D+01
 Iteration Nr.  39
 **********************
 DD1Dir will call FoFMem   1 times, MxPair=       234
 NAB=    80 NAA=    45 NBB=    28.
 A-vector RMS=  2.7539775D-08 Max=  3.3583267D-07 conv= 1.00D-05.
 RLE energy=       -0.7114992498
 DE(Corr)= -0.71149926     E(CORR)=     -928.36280586     Delta= 2.24D-08
 NORM(A)=   0.11738230D+01
 CI/CC converged in   39 iterations to DelEn= 2.24D-08 Conv= 1.00D-07 ErrA1= 2.75D-08 Conv= 1.00D-05
 Wavefunction amplitudes converged. E(Corr)=     -928.36280586    
 Dominant configurations:
 ***********************
 Spin Case        I    J    A    B          Value
    AA           13        19            0.108085D+00
    AA           14        31            0.140785D+00
    AA           15        30            0.140785D+00
    AA           16        19           -0.148875D+00
 Largest amplitude= 1.49D-01
 Time for triples=    10480.15 seconds.
 T4(CCSD)= -0.83358641D-01
 T5(CCSD)=  0.27779828D-01
 CCSD(T)= -0.92841838468D+03
 Discarding MO integrals.
 Leave Link  913 at Wed Mar 14 14:23:34 2018, MaxMem= 21474836480 cpu:           27604.1 elap:             866.4
 (Enter /home1/apps/gaussian/16rA.03/g16/l601.exe)
 Copying SCF densities to generalized density rwf, IOpCl= 0 IROHF=1.

 **********************************************************************

            Population analysis using the SCF density.

 **********************************************************************

 Orbital symmetries:
       Occupied  (SG) (SG) (SG) (SG) (PI) (PI) (SG) (SG) (PI) (PI)
                 (SG) (SG) (PI) (PI) (?A) (SG)
       Virtual   (PI) (PI) (SG) (SG) (PI) (PI) (SG) (?A) (?A) (PI)
                 (PI) (SG) (?A) (SG) (PI) (PI) (SG) (?A) (PI) (PI)
                 (SG) (?A) (PI) (PI) (SG) (PI) (PI) (SG) (PHI)
                 (PHI) (DLTA) (DLTA) (SG) (PI) (PI) (SG) (SG) (PI)
                 (PI) (?A) (?A) (PI) (PI) (SG) (SG) (DLTA) (DLTA)
                 (PI) (PI) (?B) (?B) (?B) (PHI) (PHI) (DLTA) (DLTA)
                 (SG) (?C) (?C) (?C) (?C) (DLTA) (DLTA) (PI) (PI)
                 (SG) (SG) (PI) (PI) (SG) (PI) (PI) (SG) (?A) (PI)
                 (PI) (?A) (SG) (SG) (PHI) (PHI) (DLTA) (DLTA)
                 (PI) (PI) (DLTA) (DLTA) (SG) (PI) (PI) (SG) (?D)
                 (?D) (DLTA) (DLTA) (?E) (?E) (?D) (?D) (?D) (?D)
                 (DLTA) (DLTA) (SG) (SG) (PI) (PI) (SG) (PI) (PI)
                 (PI) (PI) (SG) (SG) (DLTA) (DLTA) (PI) (PI) (SG)
                 (SG) (PHI) (PHI) (DLTA) (DLTA) (PI) (PI) (SG)
                 (DLTA) (DLTA) (PI) (PI) (SG) (SG) (?C) (?C) (DLTA)
                 (DLTA) (?C) (?C) (PI) (PI) (SG) (SG) (PHI) (PHI)
                 (?E) (?E) (DLTA) (DLTA) (PI) (PI) (SG) (DLTA)
                 (DLTA) (PI) (PI) (SG) (PI) (PI) (SG) (SG) (SG)
                 (PI) (PI) (SG) (DLTA) (DLTA) (PI) (PI) (SG) (SG)
                 (SG) (PI) (PI) (SG) (PI) (PI) (DLTA) (DLTA) (SG)
                 (PI) (PI) (SG) (DLTA) (DLTA) (PI) (PI) (SG) (SG)
                 (SG) (PI) (PI) (SG) (PI) (PI) (SG) (SG) (DLTA)
                 (DLTA) (PI) (PI) (SG) (PI) (PI) (SG) (SG) (PI)
                 (PI) (SG) (SG) (PI) (PI) (SG) (SG) (PI) (PI) (SG)
                 (SG) (SG) (PI) (PI) (SG) (SG) (SG) (PI) (PI) (SG)
                 (SG) (SG) (SG) (PI) (PI) (SG) (SG) (SG) (SG) (SG)
 Unable to determine electronic state:  an orbital has unidentified symmetry.
 Alpha  occ. eigenvalues -- -184.53138 -21.80351 -20.48970 -17.96954 -17.96954
 Alpha  occ. eigenvalues --  -17.96768  -3.05708  -1.96499  -1.96499  -1.92377
 Alpha  occ. eigenvalues --   -1.11094  -0.52250  -0.41458  -0.37331  -0.37331
 Alpha  occ. eigenvalues --   -0.29827
 Alpha virt. eigenvalues --   -0.00944  -0.00944   0.00128   0.01964   0.03333
 Alpha virt. eigenvalues --    0.03333   0.03773   0.04464   0.05025   0.05951
 Alpha virt. eigenvalues --    0.05951   0.06112   0.07549   0.10575   0.10575
 Alpha virt. eigenvalues --    0.10576   0.12714   0.16824   0.18288   0.18288
 Alpha virt. eigenvalues --    0.18969   0.20345   0.20345   0.20418   0.24392
 Alpha virt. eigenvalues --    0.27482   0.27482   0.29427   0.29998   0.29998
 Alpha virt. eigenvalues --    0.31046   0.31086   0.36489   0.39701   0.39701
 Alpha virt. eigenvalues --    0.40418   0.47674   0.56038   0.57196   0.57196
 Alpha virt. eigenvalues --    0.62157   0.64949   0.64949   0.69242   0.71223
 Alpha virt. eigenvalues --    0.83145   0.83228   0.87697   0.87697   0.95116
 Alpha virt. eigenvalues --    0.95936   0.95939   0.96347   0.96347   0.97393
 Alpha virt. eigenvalues --    0.98099   1.01516   1.01516   1.02027   1.03907
 Alpha virt. eigenvalues --    1.03907   1.18781   1.19184   1.20507   1.20507
 Alpha virt. eigenvalues --    1.23071   1.35570   1.52531   1.52531   1.62142
 Alpha virt. eigenvalues --    1.73254   1.73254   1.78505   1.79176   1.83952
 Alpha virt. eigenvalues --    1.83952   1.85471   1.90905   2.08710   2.24197
 Alpha virt. eigenvalues --    2.24197   2.31359   2.31431   2.46553   2.46553
 Alpha virt. eigenvalues --    2.53276   2.53378   2.62815   2.82082   2.82082
 Alpha virt. eigenvalues --    2.93809   3.10321   3.10321   3.15904   3.19206
 Alpha virt. eigenvalues --    3.32290   3.32296   3.34167   3.34167   3.36721
 Alpha virt. eigenvalues --    3.36721   3.42603   3.42917   3.50960   3.75582
 Alpha virt. eigenvalues --    3.78908   3.78908   3.96553   4.14644   4.14644
 Alpha virt. eigenvalues --    4.32104   4.32104   4.42806   4.74796   4.92404
 Alpha virt. eigenvalues --    4.96107   5.06853   5.06853   5.36740   5.71017
 Alpha virt. eigenvalues --    6.65033   6.65033   6.78957   6.78966   6.96606
 Alpha virt. eigenvalues --    6.96606   7.00662   7.20201   7.20204   7.38036
 Alpha virt. eigenvalues --    7.38036   7.77765   8.87522   9.17717   9.17717
 Alpha virt. eigenvalues --    9.19578   9.21876   9.27340   9.27340   9.34275
 Alpha virt. eigenvalues --    9.34275   9.44787   9.71536  10.88442  10.88445
 Alpha virt. eigenvalues --   10.88762  10.88762  10.90778  10.91292  11.00031
 Alpha virt. eigenvalues --   11.00031  11.06564  11.27196  11.28160  11.36630
 Alpha virt. eigenvalues --   11.36630  11.72480  14.63854  14.63854  15.20054
 Alpha virt. eigenvalues --   16.12586  18.71018  19.31364  19.31364  19.48858
 Alpha virt. eigenvalues --   23.55230  23.55525  23.59804  23.59804  23.85774
 Alpha virt. eigenvalues --   39.08474  40.64160  41.67984  41.67984  41.83695
 Alpha virt. eigenvalues --   43.75466  43.75466  43.94839  43.94839  43.99651
 Alpha virt. eigenvalues --   44.00699  44.00699  44.38397  56.65808  56.66283
 Alpha virt. eigenvalues --   56.69197  56.69197  56.89620  88.17569  88.87807
 Alpha virt. eigenvalues --   93.02906  93.02906  93.18191 113.49811 113.49811
 Alpha virt. eigenvalues --  113.87177 180.65697 186.84115 186.84329 186.86398
 Alpha virt. eigenvalues --  186.86398 186.99551 211.17115 211.17115 211.31478
 Alpha virt. eigenvalues --  220.73154 261.71042 261.71042 262.04042 414.63676
 Alpha virt. eigenvalues --  487.96471 487.96471 488.09730 558.487581160.80486
 Alpha virt. eigenvalues -- 1160.804861160.920681220.187341382.890762876.91485
 Alpha virt. eigenvalues -- 2876.914852877.008213326.781584466.735097516.40348
 Alpha virt. eigenvalues -- 7516.403487516.468377725.88912********************
 Alpha virt. eigenvalues -- **************************************************
 Alpha virt. eigenvalues -- ********************
     Molecular Orbital Coefficients:
                          10        11        12        13        14
                           O         O         O         O         O
     Eigenvalues --    -1.92377  -1.11094  -0.52250  -0.41458  -0.37331
   1 1   Ti 1S         -0.00000  -0.00000  -0.00000  -0.00000  -0.00000
   2        2S         -0.00000  -0.00000  -0.00000  -0.00000  -0.00000
   3        3S         -0.00000  -0.00001  -0.00001  -0.00000  -0.00000
   4        4S         -0.00000  -0.00002  -0.00003  -0.00000  -0.00000
   5        5S         -0.00000  -0.00005  -0.00009  -0.00000  -0.00000
   6        6S         -0.00000  -0.00014  -0.00026  -0.00000  -0.00000
   7        7S         -0.00000  -0.00039  -0.00070  -0.00000  -0.00000
   8        8S         -0.00000  -0.00098  -0.00178  -0.00000  -0.00000
   9        9S         -0.00000  -0.00216  -0.00391  -0.00000  -0.00000
  10       10S         -0.00000  -0.00401  -0.00729  -0.00000  -0.00000
  11       11S         -0.00000  -0.00442  -0.00797  -0.00000  -0.00000
  12       12S          0.00000   0.00133   0.00226   0.00000   0.00000
  13       13S          0.00000   0.01934   0.03608   0.00000   0.00000
  14       14S          0.00000   0.02778   0.04935   0.00000   0.00000
  15       15S         -0.00000  -0.02353  -0.05646  -0.00000  -0.00000
  16       16S         -0.00000  -0.03402  -0.05739   0.00000   0.00000
  17       17S          0.00000  -0.00147  -0.02943   0.00000   0.00000
  18       18S          0.00000   0.02281   0.15861   0.00000  -0.00000
  19       19S         -0.00000  -0.00336   0.03817   0.00000  -0.00000
  20       20S          0.00000  -0.00012   0.00889  -0.00000  -0.00000
  21       21S          0.00000   0.01231   0.03273   0.00000   0.00000
  22       22S         -0.00000  -0.05594  -0.12038  -0.00000  -0.00000
  23       23S          0.00000   0.00004  -0.00029   0.00000  -0.00000
  24       24PX         0.00000   0.00000   0.00000  -0.00000   0.00000
  25       24PY        -0.00004   0.00000  -0.00000   0.00000   0.00000
  26       24PZ        -0.00000  -0.00001  -0.00000   0.00000  -0.00000
  27       25PX         0.00001  -0.00000  -0.00000  -0.00000   0.00001
  28       25PY        -0.00018   0.00000  -0.00000   0.00001   0.00000
  29       25PZ        -0.00000  -0.00003  -0.00002  -0.00000   0.00000
  30       26PX         0.00005   0.00000   0.00000  -0.00000   0.00006
  31       26PY        -0.00090   0.00000  -0.00000   0.00006   0.00000
  32       26PZ        -0.00000  -0.00013  -0.00011  -0.00000  -0.00000
  33       27PX         0.00021  -0.00000  -0.00000  -0.00002   0.00025
  34       27PY        -0.00364   0.00000  -0.00000   0.00025   0.00002
  35       27PZ        -0.00000  -0.00051  -0.00043  -0.00000   0.00000
  36       28PX         0.00072   0.00000   0.00000  -0.00007   0.00085
  37       28PY        -0.01253   0.00000  -0.00000   0.00085   0.00007
  38       28PZ        -0.00000  -0.00177  -0.00148  -0.00000   0.00000
  39       29PX         0.00205  -0.00000  -0.00000  -0.00019   0.00243
  40       29PY        -0.03544   0.00000  -0.00000   0.00243   0.00019
  41       29PZ        -0.00000  -0.00502  -0.00421  -0.00000   0.00000
  42       30PX         0.00456  -0.00000   0.00000  -0.00042   0.00538
  43       30PY        -0.07902   0.00000  -0.00000   0.00538   0.00042
  44       30PZ        -0.00000  -0.01121  -0.00933  -0.00000   0.00000
  45       31PX         0.00744  -0.00000  -0.00000  -0.00070   0.00893
  46       31PY        -0.12884   0.00000  -0.00000   0.00893   0.00070
  47       31PZ        -0.00000  -0.01831  -0.01550  -0.00000   0.00000
  48       32PX         0.00794  -0.00000   0.00000  -0.00072   0.00921
  49       32PY        -0.13749   0.00000  -0.00000   0.00921   0.00072
  50       32PZ        -0.00000  -0.01961  -0.01611  -0.00000   0.00000
  51       33PX        -0.00443   0.00000   0.00000  -0.00054   0.00694
  52       33PY         0.07670  -0.00000   0.00000   0.00694   0.00054
  53       33PZ         0.00000   0.00827  -0.00309  -0.00000  -0.00000
  54       34PX        -0.01872   0.00000   0.00000   0.00201  -0.02561
  55       34PY         0.32411  -0.00000   0.00000  -0.02561  -0.00201
  56       34PZ         0.00000   0.04950   0.04583   0.00000  -0.00000
  57       35PX        -0.02916   0.00000   0.00000  -0.00060   0.00764
  58       35PY         0.50494  -0.00000   0.00000   0.00764   0.00060
  59       35PZ         0.00000   0.06461   0.02324  -0.00000  -0.00000
  60       36PX        -0.01640   0.00000   0.00000   0.00162  -0.02059
  61       36PY         0.28400  -0.00000   0.00000  -0.02059  -0.00162
  62       36PZ         0.00000   0.03272   0.02251   0.00000  -0.00000
  63       37PX        -0.00202  -0.00000  -0.00000  -0.00296   0.03774
  64       37PY         0.03500  -0.00000  -0.00000   0.03774   0.00296
  65       37PZ         0.00000  -0.00625  -0.03955   0.00000   0.00000
  66       38PX         0.00026  -0.00000  -0.00000  -0.00429   0.05461
  67       38PY        -0.00456   0.00000  -0.00000   0.05461   0.00429
  68       38PZ        -0.00000  -0.00635  -0.03533  -0.00000   0.00000
  69       39PX        -0.00009  -0.00000  -0.00000   0.00016  -0.00198
  70       39PY         0.00161  -0.00000  -0.00000  -0.00198  -0.00016
  71       39PZ        -0.00000   0.00237   0.00429  -0.00000   0.00000
  72       40PX         0.00327  -0.00000  -0.00000   0.00072  -0.00918
  73       40PY        -0.05665   0.00000  -0.00000  -0.00918  -0.00072
  74       40PZ        -0.00000  -0.00435   0.00679   0.00000   0.00000
  75       41PX         0.00184  -0.00000  -0.00000   0.00394  -0.05021
  76       41PY        -0.03189  -0.00000  -0.00000  -0.05021  -0.00394
  77       41PZ         0.00000   0.01409   0.05219   0.00000   0.00000
  78       42PX         0.00003  -0.00000  -0.00000  -0.00005   0.00068
  79       42PY        -0.00051  -0.00000  -0.00000   0.00068   0.00005
  80       42PZ         0.00000  -0.00057  -0.00251   0.00000  -0.00000
  81       43D 0        0.00000   0.00028   0.00132   0.00000  -0.00000
  82       43D+1       -0.00000   0.00000   0.00000   0.00007  -0.00087
  83       43D-1        0.00002  -0.00000   0.00000  -0.00087  -0.00007
  84       43D+2       -0.00000   0.00000   0.00000   0.00000  -0.00000
  85       43D-2       -0.00000   0.00000  -0.00000   0.00000  -0.00000
  86       44D 0        0.00000   0.00196   0.00895   0.00000  -0.00000
  87       44D+1       -0.00001   0.00000   0.00000   0.00046  -0.00585
  88       44D-1        0.00021   0.00000   0.00000  -0.00585  -0.00046
  89       44D+2       -0.00000   0.00000   0.00000   0.00000  -0.00000
  90       44D-2       -0.00000   0.00000  -0.00000   0.00000  -0.00000
  91       45D 0        0.00000   0.00692   0.03289   0.00000  -0.00000
  92       45D+1       -0.00003   0.00000   0.00000   0.00170  -0.02169
  93       45D-1        0.00060  -0.00000   0.00000  -0.02169  -0.00170
  94       45D+2       -0.00000   0.00000   0.00000   0.00000  -0.00000
  95       45D-2       -0.00000   0.00000  -0.00000   0.00000  -0.00000
  96       46D 0        0.00000   0.02187   0.08221   0.00000  -0.00000
  97       46D+1       -0.00026  -0.00000  -0.00000   0.00382  -0.04869
  98       46D-1        0.00454   0.00000   0.00000  -0.04869  -0.00382
  99       46D+2        0.00000   0.00000   0.00000   0.00000  -0.00000
 100       46D-2       -0.00000   0.00000   0.00000   0.00000  -0.00000
 101       47D 0        0.00000   0.01416   0.06358   0.00000  -0.00000
 102       47D+1       -0.00010   0.00000  -0.00000   0.00313  -0.03994
 103       47D-1        0.00180  -0.00000   0.00000  -0.03994  -0.00313
 104       47D+2       -0.00000   0.00000   0.00000   0.00000  -0.00000
 105       47D-2       -0.00000   0.00000  -0.00000   0.00000  -0.00000
 106       48D 0        0.00000   0.03423   0.14787   0.00000  -0.00000
 107       48D+1       -0.00044  -0.00000  -0.00000   0.00788  -0.10036
 108       48D-1        0.00755  -0.00000   0.00000  -0.10036  -0.00788
 109       48D+2       -0.00000   0.00000   0.00000   0.00000  -0.00000
 110       48D-2       -0.00000  -0.00000  -0.00000   0.00000  -0.00000
 111       49D 0        0.00000   0.01274   0.08927   0.00000  -0.00000
 112       49D+1       -0.00016  -0.00000   0.00000   0.00634  -0.08085
 113       49D-1        0.00286   0.00000   0.00000  -0.08085  -0.00634
 114       49D+2       -0.00000  -0.00000  -0.00000   0.00000  -0.00000
 115       49D-2       -0.00000  -0.00000   0.00000  -0.00000  -0.00000
 116       50D 0        0.00000   0.00154   0.01375   0.00000   0.00000
 117       50D+1       -0.00002  -0.00000   0.00000   0.00169  -0.02160
 118       50D-1        0.00043  -0.00000   0.00000  -0.02160  -0.00169
 119       50D+2       -0.00000  -0.00000  -0.00000   0.00000   0.00000
 120       50D-2       -0.00000  -0.00000   0.00000  -0.00000  -0.00000
 121       51D 0       -0.00000  -0.00596  -0.00449  -0.00000   0.00000
 122       51D+1        0.00027   0.00000   0.00000   0.00028  -0.00355
 123       51D-1       -0.00474  -0.00000   0.00000  -0.00355  -0.00028
 124       51D+2       -0.00000  -0.00000  -0.00000   0.00000   0.00000
 125       51D-2        0.00000  -0.00000  -0.00000  -0.00000  -0.00000
 126       52D 0        0.00000   0.01429   0.05988   0.00000  -0.00000
 127       52D+1       -0.00016   0.00000  -0.00000   0.00302  -0.03843
 128       52D-1        0.00281  -0.00000   0.00000  -0.03843  -0.00302
 129       52D+2       -0.00000   0.00000   0.00000   0.00000  -0.00000
 130       52D-2       -0.00000   0.00000  -0.00000   0.00000  -0.00000
 131       53D 0       -0.00000  -0.00025   0.00035  -0.00000  -0.00000
 132       53D+1       -0.00000   0.00000   0.00000  -0.00037   0.00467
 133       53D-1        0.00003   0.00000   0.00000   0.00467   0.00037
 134       53D+2       -0.00000  -0.00000  -0.00000   0.00000   0.00000
 135       53D-2       -0.00000  -0.00000  -0.00000   0.00000   0.00000
 136       54F 0        0.00000  -0.00023  -0.00102   0.00000   0.00000
 137       54F+1       -0.00001  -0.00000   0.00000  -0.00006   0.00076
 138       54F-1        0.00020  -0.00000  -0.00000   0.00076   0.00006
 139       54F+2       -0.00000  -0.00000  -0.00000  -0.00000  -0.00000
 140       54F-2       -0.00000   0.00000  -0.00000  -0.00000  -0.00000
 141       54F+3       -0.00012   0.00000   0.00000   0.00001  -0.00007
 142       54F-3       -0.00211   0.00000  -0.00000   0.00007   0.00001
 143       55F 0        0.00000  -0.00481  -0.00824  -0.00000   0.00000
 144       55F+1        0.00010  -0.00000  -0.00000  -0.00049   0.00623
 145       55F-1       -0.00168  -0.00000  -0.00000   0.00623   0.00049
 146       55F+2        0.00000  -0.00000   0.00000  -0.00000  -0.00000
 147       55F-2       -0.00000   0.00000  -0.00000   0.00000   0.00000
 148       55F+3       -0.00027   0.00000   0.00000   0.00000  -0.00003
 149       55F-3       -0.00470   0.00000  -0.00000   0.00003   0.00000
 150       56F 0       -0.00000  -0.00841  -0.01944  -0.00000  -0.00000
 151       56F+1        0.00015   0.00000  -0.00000  -0.00135   0.01719
 152       56F-1       -0.00265  -0.00000  -0.00000   0.01719   0.00135
 153       56F+2        0.00000  -0.00000   0.00000  -0.00000   0.00000
 154       56F-2       -0.00000   0.00000  -0.00000   0.00000   0.00000
 155       56F+3       -0.00017   0.00000   0.00000  -0.00000   0.00005
 156       56F-3       -0.00288   0.00000  -0.00000  -0.00005  -0.00000
 157       57F 0        0.00000  -0.00125  -0.00526   0.00000   0.00000
 158       57F+1        0.00002   0.00000  -0.00000  -0.00045   0.00574
 159       57F-1       -0.00033   0.00000  -0.00000   0.00574   0.00045
 160       57F+2       -0.00000  -0.00000   0.00000  -0.00000   0.00000
 161       57F-2       -0.00000   0.00000  -0.00000   0.00000   0.00000
 162       57F+3        0.00001   0.00000   0.00000  -0.00000   0.00005
 163       57F-3        0.00018   0.00000   0.00000  -0.00005  -0.00000
 164       58G 0       -0.00000   0.00023   0.00066   0.00000   0.00000
 165       58G+1       -0.00000  -0.00000  -0.00000   0.00001  -0.00017
 166       58G-1        0.00002  -0.00000   0.00000  -0.00017  -0.00001
 167       58G+2        0.00000  -0.00000  -0.00000   0.00000   0.00000
 168       58G-2       -0.00000  -0.00000  -0.00000   0.00000   0.00000
 169       58G+3       -0.00000   0.00000   0.00000   0.00000  -0.00005
 170       58G-3       -0.00001   0.00000  -0.00000   0.00005   0.00000
 171       58G+4       -0.00000  -0.00001  -0.00005  -0.00000  -0.00000
 172       58G-4        0.00000  -0.00000  -0.00000  -0.00000  -0.00000
 173       59G 0       -0.00000   0.00211   0.00304  -0.00000   0.00000
 174       59G+1       -0.00001  -0.00000  -0.00000   0.00032  -0.00413
 175       59G-1        0.00021   0.00000   0.00000  -0.00413  -0.00032
 176       59G+2       -0.00000  -0.00000  -0.00000  -0.00000   0.00000
 177       59G-2       -0.00000  -0.00000   0.00000   0.00000   0.00000
 178       59G+3       -0.00001  -0.00000   0.00000   0.00001  -0.00010
 179       59G-3       -0.00010   0.00000  -0.00000   0.00010   0.00001
 180       59G+4       -0.00000  -0.00008  -0.00025  -0.00000   0.00000
 181       59G-4       -0.00000  -0.00000  -0.00000   0.00000  -0.00000
 182       60G 0        0.00000   0.00289   0.00723   0.00000  -0.00000
 183       60G+1       -0.00003  -0.00000  -0.00000   0.00024  -0.00309
 184       60G-1        0.00045   0.00000   0.00000  -0.00309  -0.00024
 185       60G+2       -0.00000   0.00000  -0.00000   0.00000   0.00000
 186       60G-2       -0.00000  -0.00000   0.00000  -0.00000   0.00000
 187       60G+3       -0.00000   0.00000   0.00000   0.00000  -0.00002
 188       60G-3       -0.00008  -0.00000  -0.00000   0.00002   0.00000
 189       60G+4       -0.00000  -0.00003  -0.00022  -0.00000  -0.00000
 190       60G-4        0.00000  -0.00000  -0.00000  -0.00000  -0.00000
 191 2   O  1S          0.00000  -0.00016   0.00002   0.00000  -0.00000
 192        2S          0.00000  -0.00092   0.00014   0.00000  -0.00000
 193        3S          0.00000  -0.00455   0.00068   0.00000  -0.00000
 194        4S          0.00000  -0.01792   0.00266   0.00000  -0.00000
 195        5S          0.00000  -0.05672   0.00863   0.00000  -0.00000
 196        6S          0.00000  -0.14221   0.02441   0.00000  -0.00000
 197        7S          0.00000  -0.17818   0.03234   0.00000  -0.00000
 198        8S         -0.00000   0.54096  -0.09204  -0.00000   0.00000
 199        9S          0.00000   0.15564  -0.03002  -0.00000   0.00000
 200       10S         -0.00000   0.38635  -0.12692  -0.00000   0.00000
 201       11S          0.00000   0.01467  -0.00740   0.00000   0.00000
 202       12S         -0.00000   0.00896  -0.00328   0.00000   0.00000
 203       13S         -0.00000   0.03758  -0.06677  -0.00000   0.00000
 204       14PX        -0.00000   0.00000  -0.00000  -0.00054   0.00693
 205       14PY         0.00008  -0.00000  -0.00000   0.00693   0.00054
 206       14PZ        -0.00000   0.00038   0.00687   0.00000   0.00000
 207       15PX        -0.00005   0.00000  -0.00000  -0.00590   0.07516
[...]
  46       31PY         0.66682   0.33341   0.33341   0.00000
  47       31PZ         0.66752   0.33386   0.33366   0.00020
  48       32PX         0.58639   0.29320   0.29320   0.00000
  49       32PY         0.58639   0.29320   0.29320   0.00000
  50       32PZ         0.58595   0.29288   0.29306  -0.00018
  51       33PX         0.19501   0.09750   0.09750   0.00000
  52       33PY         0.19501   0.09750   0.09750   0.00000
  53       33PZ         0.19336   0.09751   0.09585   0.00166
  54       34PX         0.52152   0.26076   0.26076   0.00000
  55       34PY         0.52152   0.26076   0.26076   0.00000
  56       34PZ         0.53600   0.26934   0.26666   0.00268
  57       35PX         0.97354   0.48677   0.48677   0.00000
  58       35PY         0.97354   0.48677   0.48677   0.00000
  59       35PZ         0.92617   0.46546   0.46071   0.00475
  60       36PX         0.48586   0.24293   0.24293   0.00000
  61       36PY         0.48586   0.24293   0.24293   0.00000
  62       36PZ         0.46317   0.22836   0.23480  -0.00644
  63       37PX         0.05326   0.02663   0.02663   0.00000
  64       37PY         0.05326   0.02663   0.02663   0.00000
  65       37PZ         0.08761   0.06359   0.02401   0.03958
  66       38PX         0.02923   0.01462   0.01462  -0.00000
  67       38PY         0.02923   0.01462   0.01462  -0.00000
  68       38PZ         0.11959   0.12096  -0.00137   0.12233
  69       39PX        -0.00052  -0.00026  -0.00026   0.00000
  70       39PY        -0.00052  -0.00026  -0.00026   0.00000
  71       39PZ         0.01818   0.01826  -0.00009   0.01835
  72       40PX         0.05420   0.02710   0.02710   0.00000
  73       40PY         0.05420   0.02710   0.02710   0.00000
  74       40PZ         0.05608   0.02730   0.02878  -0.00147
  75       41PX        -0.07258  -0.03629  -0.03629  -0.00000
  76       41PY        -0.07258  -0.03629  -0.03629  -0.00000
  77       41PZ        -0.01592  -0.00917  -0.00675  -0.00242
  78       42PX         0.00011   0.00005   0.00005   0.00000
  79       42PY         0.00011   0.00005   0.00005   0.00000
  80       42PZ        -0.00073  -0.00059  -0.00014  -0.00044
  81       43D 0        0.00005   0.00003   0.00002   0.00001
  82       43D+1        0.00002   0.00001   0.00001   0.00000
  83       43D-1        0.00002   0.00001   0.00001   0.00000
  84       43D+2        0.00022   0.00022  -0.00000   0.00022
  85       43D-2        0.00000   0.00000   0.00000   0.00000
  86       44D 0        0.00139   0.00084   0.00056   0.00028
  87       44D+1        0.00046   0.00023   0.00023   0.00000
  88       44D-1        0.00046   0.00023   0.00023   0.00000
  89       44D+2        0.00557   0.00557   0.00000   0.00557
  90       44D-2        0.00000   0.00000   0.00000   0.00000
  91       45D 0        0.01219   0.00733   0.00485   0.00248
  92       45D+1        0.00405   0.00203   0.00203   0.00000
  93       45D-1        0.00405   0.00203   0.00203  -0.00000
  94       45D+2        0.04797   0.04797   0.00000   0.04797
  95       45D-2        0.00000   0.00000   0.00000   0.00000
  96       46D 0        0.05296   0.03142   0.02154   0.00988
  97       46D+1        0.01603   0.00801   0.00801   0.00000
  98       46D-1        0.01603   0.00801   0.00801   0.00000
  99       46D+2        0.19137   0.19137   0.00000   0.19137
 100       46D-2        0.00000   0.00000   0.00000   0.00000
 101       47D 0        0.05859   0.03439   0.02419   0.01020
 102       47D+1        0.01951   0.00976   0.00976   0.00000
 103       47D-1        0.01951   0.00976   0.00976   0.00000
 104       47D+2        0.17918   0.17918  -0.00000   0.17918
 105       47D-2        0.00000   0.00000   0.00000   0.00000
 106       48D 0        0.17690   0.10099   0.07591   0.02509
 107       48D+1        0.07327   0.03664   0.03664  -0.00000
 108       48D-1        0.07327   0.03664   0.03664   0.00000
 109       48D+2        0.31483   0.31483  -0.00000   0.31483
 110       48D-2        0.00000   0.00000   0.00000   0.00000
 111       49D 0        0.06061   0.03573   0.02488   0.01085
 112       49D+1        0.08078   0.04039   0.04039   0.00000
 113       49D-1        0.08078   0.04039   0.04039   0.00000
 114       49D+2        0.08997   0.08997  -0.00000   0.08997
 115       49D-2        0.00000   0.00000   0.00000   0.00000
 116       50D 0       -0.00230  -0.00114  -0.00116   0.00002
 117       50D+1        0.01503   0.00752   0.00752  -0.00000
 118       50D-1        0.01503   0.00752   0.00752   0.00000
 119       50D+2        0.00202   0.00202   0.00000   0.00202
 120       50D-2       -0.00000  -0.00000   0.00000  -0.00000
 121       51D 0       -0.00296  -0.00136  -0.00160   0.00024
 122       51D+1        0.00117   0.00059   0.00059  -0.00000
 123       51D-1        0.00117   0.00059   0.00059   0.00000
 124       51D+2       -0.00381  -0.00381   0.00000  -0.00381
 125       51D-2       -0.00000  -0.00000  -0.00000  -0.00000
 126       52D 0        0.05593   0.03303   0.02290   0.01013
 127       52D+1        0.01877   0.00938   0.00938   0.00000
 128       52D-1        0.01877   0.00938   0.00938   0.00000
 129       52D+2        0.17180   0.17180  -0.00000   0.17180
 130       52D-2        0.00000   0.00000   0.00000   0.00000
 131       53D 0       -0.00012  -0.00007  -0.00005  -0.00002
 132       53D+1       -0.00109  -0.00055  -0.00055   0.00000
 133       53D-1       -0.00109  -0.00055  -0.00055   0.00000
 134       53D+2        0.00001   0.00001   0.00000   0.00001
 135       53D-2        0.00000   0.00000   0.00000   0.00000
 136       54F 0        0.00004   0.00002   0.00002   0.00000
 137       54F+1        0.00001   0.00001   0.00001   0.00000
 138       54F-1        0.00001   0.00001   0.00001   0.00000
 139       54F+2       -0.00000  -0.00000   0.00000  -0.00000
 140       54F-2       -0.00000  -0.00000   0.00000  -0.00000
 141       54F+3        0.00002   0.00001   0.00001  -0.00000
 142       54F-3        0.00002   0.00001   0.00001   0.00000
 143       55F 0        0.00149   0.00074   0.00074  -0.00000
 144       55F+1        0.00064   0.00032   0.00032  -0.00000
 145       55F-1        0.00064   0.00032   0.00032  -0.00000
 146       55F+2        0.00005   0.00005   0.00000   0.00005
 147       55F-2        0.00000   0.00000   0.00000   0.00000
 148       55F+3        0.00007   0.00003   0.00003   0.00000
 149       55F-3        0.00007   0.00003   0.00003   0.00000
 150       56F 0        0.00847   0.00419   0.00428  -0.00008
 151       56F+1        0.01005   0.00503   0.00503  -0.00000
 152       56F-1        0.01005   0.00503   0.00503   0.00000
 153       56F+2        0.00039   0.00039  -0.00000   0.00039
 154       56F-2        0.00000   0.00000   0.00000   0.00000
 155       56F+3        0.00003   0.00001   0.00001   0.00000
 156       56F-3        0.00003   0.00001   0.00001   0.00000
 157       57F 0       -0.00153  -0.00072  -0.00081   0.00009
 158       57F+1        0.00357   0.00178   0.00178  -0.00000
 159       57F-1        0.00357   0.00178   0.00178   0.00000
 160       57F+2        0.00008   0.00008  -0.00000   0.00008
 161       57F-2        0.00000   0.00000   0.00000   0.00000
 162       57F+3       -0.00000  -0.00000  -0.00000   0.00000
 163       57F-3       -0.00000  -0.00000  -0.00000   0.00000
 164       58G 0        0.00001   0.00000   0.00000   0.00000
 165       58G+1        0.00000   0.00000   0.00000   0.00000
 166       58G-1        0.00000   0.00000   0.00000   0.00000
 167       58G+2        0.00000   0.00000   0.00000   0.00000
 168       58G-2        0.00000   0.00000   0.00000   0.00000
 169       58G+3        0.00000   0.00000   0.00000   0.00000
 170       58G-3        0.00000   0.00000   0.00000   0.00000
 171       58G+4        0.00000   0.00000   0.00000   0.00000
 172       58G-4        0.00000   0.00000   0.00000   0.00000
 173       59G 0        0.00074   0.00037   0.00037  -0.00000
 174       59G+1        0.00061   0.00031   0.00031   0.00000
 175       59G-1        0.00061   0.00031   0.00031   0.00000
 176       59G+2        0.00002   0.00002  -0.00000   0.00002
 177       59G-2        0.00000   0.00000   0.00000   0.00000
 178       59G+3        0.00000   0.00000   0.00000  -0.00000
 179       59G-3        0.00000   0.00000   0.00000  -0.00000
 180       59G+4        0.00001   0.00001   0.00000   0.00001
 181       59G-4        0.00000   0.00000   0.00000   0.00000
 182       60G 0        0.00050   0.00025   0.00025  -0.00000
 183       60G+1        0.00209   0.00104   0.00104   0.00000
 184       60G-1        0.00209   0.00104   0.00104   0.00000
 185       60G+2        0.00001   0.00001  -0.00000   0.00001
 186       60G-2        0.00000   0.00000   0.00000   0.00000
 187       60G+3        0.00000   0.00000   0.00000   0.00000
 188       60G-3        0.00000   0.00000   0.00000   0.00000
 189       60G+4        0.00000   0.00000   0.00000   0.00000
 190       60G-4        0.00000   0.00000   0.00000   0.00000
 191 2   O  1S          0.00005   0.00003   0.00003   0.00000
 192        2S          0.00109   0.00054   0.00054   0.00000
 193        3S          0.01318   0.00659   0.00659   0.00000
 194        4S          0.09641   0.04821   0.04820   0.00000
 195        5S          0.40538   0.20270   0.20268   0.00001
 196        6S          0.80871   0.40436   0.40435   0.00001
 197        7S          0.50732   0.25364   0.25368  -0.00003
 198        8S          0.99773   0.49914   0.49859   0.00056
 199        9S          0.25980   0.12996   0.12984   0.00012
 200       10S          0.72414   0.36190   0.36224  -0.00034
 201       11S          0.06803   0.03401   0.03402  -0.00000
 202       12S          0.04029   0.02014   0.02014   0.00000
 203       13S          0.06873   0.03863   0.03009   0.00854
 204       14PX         0.00162   0.00081   0.00081  -0.00000
 205       14PY         0.00162   0.00081   0.00081   0.00000
 206       14PZ         0.00160   0.00080   0.00080   0.00001
 207       15PX         0.05464   0.02732   0.02732  -0.00000
 208       15PY         0.05464   0.02732   0.02732   0.00000
 209       15PZ         0.05427   0.02723   0.02704   0.00019
 210       16PX         0.33258   0.16629   0.16629   0.00000
 211       16PY         0.33258   0.16629   0.16629   0.00000
 212       16PZ         0.33232   0.16674   0.16558   0.00117
 213       17PX         0.68101   0.34050   0.34050   0.00000
 214       17PY         0.68101   0.34050   0.34050   0.00000
 215       17PZ         0.68409   0.34310   0.34099   0.00212
 216       18PX         0.55925   0.27963   0.27963   0.00000
 217       18PY         0.55925   0.27963   0.27963   0.00000
 218       18PZ         0.44852   0.22353   0.22499  -0.00145
 219       19PX         0.00325   0.00163   0.00163   0.00000
 220       19PY         0.00325   0.00163   0.00163   0.00000
 221       19PZ         0.00326   0.00163   0.00162   0.00001
 222       20PX         0.00046   0.00023   0.00023  -0.00000
 223       20PY         0.00046   0.00023   0.00023  -0.00000
 224       20PZ         0.00046   0.00023   0.00023   0.00000
 225       21PX         0.06418   0.03209   0.03209   0.00000
 226       21PY         0.06418   0.03209   0.03209   0.00000
 227       21PZ         0.03765   0.02020   0.01745   0.00274
 228       22D 0        0.00028   0.00014   0.00014   0.00001
 229       22D+1        0.00016   0.00008   0.00008   0.00000
 230       22D-1        0.00016   0.00008   0.00008   0.00000
 231       22D+2        0.00000   0.00000   0.00000   0.00000
 232       22D-2        0.00000   0.00000   0.00000   0.00000
 233       23D 0        0.00392   0.00200   0.00192   0.00008
 234       23D+1        0.00305   0.00152   0.00152   0.00000
 235       23D-1        0.00305   0.00152   0.00152   0.00000
 236       23D+2        0.00007   0.00007  -0.00000   0.00007
 237       23D-2        0.00000   0.00000   0.00000   0.00000
 238       24D 0        0.00000   0.00000   0.00000   0.00000
 239       24D+1        0.00000   0.00000   0.00000  -0.00000
 240       24D-1        0.00000   0.00000   0.00000   0.00000
 241       24D+2        0.00000   0.00000   0.00000   0.00000
 242       24D-2        0.00000   0.00000   0.00000   0.00000
 243       25D 0        0.00093   0.00039   0.00054  -0.00015
 244       25D+1        0.00676   0.00338   0.00338   0.00000
 245       25D-1        0.00676   0.00338   0.00338   0.00000
 246       25D+2        0.00016   0.00016  -0.00000   0.00016
 247       25D-2       -0.00000  -0.00000   0.00000  -0.00000
 248       26F 0        0.00010   0.00005   0.00005   0.00001
 249       26F+1        0.00004   0.00002   0.00002   0.00000
 250       26F-1        0.00004   0.00002   0.00002   0.00000
 251       26F+2        0.00000   0.00000   0.00000   0.00000
 252       26F-2        0.00000   0.00000   0.00000   0.00000
 253       26F+3        0.00000   0.00000   0.00000   0.00000
 254       26F-3        0.00000   0.00000   0.00000  -0.00000
 255       27F 0        0.00050   0.00027   0.00023   0.00005
 256       27F+1        0.00096   0.00048   0.00048   0.00000
 257       27F-1        0.00096   0.00048   0.00048   0.00000
 258       27F+2        0.00008   0.00008   0.00000   0.00008
 259       27F-2        0.00000   0.00000   0.00000   0.00000
 260       27F+3       -0.00000  -0.00000  -0.00000   0.00000
 261       27F-3       -0.00000  -0.00000  -0.00000   0.00000
          Condensed to atoms (all electrons):
               1          2
     1  Ti  20.640617   0.384398
     2  O    0.384398   8.590587
          Atomic-Atomic Spin Densities.
               1          2
     1  Ti   1.977618   0.008422
     2  O    0.008422   0.005538
 Mulliken charges and spin densities:
               1          2
     1  Ti   0.974985   1.986040
     2  O   -0.974985   0.013960
 Sum of Mulliken charges =  -0.00000   2.00000
 Mulliken charges and spin densities with hydrogens summed into heavy atoms:
               1          2
     1  Ti   0.974985   1.986040
     2  O   -0.974985   0.013960
 Electronic spatial extent (au):  <R**2>=            131.8173
 Charge=             -0.0000 electrons
 Dipole moment (field-independent basis, Debye):
    X=              0.0000    Y=             -0.0000    Z=              7.0104  Tot=              7.0104
 Quadrupole moment (field-independent basis, Debye-Ang):
   XX=            -22.1620   YY=            -22.1620   ZZ=            -31.2494
   XY=              0.0000   XZ=              0.0000   YZ=             -0.0000
 Traceless Quadrupole moment (field-independent basis, Debye-Ang):
   XX=              3.0291   YY=              3.0291   ZZ=             -6.0583
   XY=              0.0000   XZ=              0.0000   YZ=             -0.0000
 Octapole moment (field-independent basis, Debye-Ang**2):
  XXX=              0.0000  YYY=              0.0000  ZZZ=              6.5706  XYY=              0.0000
  XXY=             -0.0000  XXZ=              0.5479  XZZ=              0.0000  YZZ=             -0.0000
  YYZ=              0.5479  XYZ=              0.0000
 Hexadecapole moment (field-independent basis, Debye-Ang**3):
 XXXX=            -37.6919 YYYY=            -37.6919 ZZZZ=           -178.4835 XXXY=              0.0000
 XXXZ=              0.0000 YYYX=             -0.0000 YYYZ=              0.0000 ZZZX=              0.0000
 ZZZY=             -0.0000 XXYY=            -12.1595 XXZZ=            -34.7671 YYZZ=            -34.7671
 XXYZ=             -0.0000 YYXZ=              0.0000 ZZXY=              0.0000
 N-N= 4.901852059048D+01 E-N=-2.322906125192D+03  KE= 9.537593680884D+02
 Orbital energies and kinetic energies (alpha):
                                 1                 2
  10         O                -1.923769          6.961804
  11         O                -1.110936          3.047514
  12         O                -0.522500          2.489727
  13         O                -0.414575          1.999089
  14         O                -0.373306          1.999089
  15         O                -0.373306          4.089773
  16         O                -0.298268          0.942944
  17         V                -0.009442          0.306344
  18         V                -0.009442          0.306344
  19         V                 0.001277          0.299647
  20         V                 0.019641          0.257897
  21         V                 0.033326          0.389504
 Total kinetic energy from orbitals= 9.587920849367D+02
 FoFCou: FMM=F IPFlag=           8 FMFlag=           0 FMFlg1=           0
         NFxFlg=           0 DoJE=F BraDBF=T KetDBF=F FulRan=T
         wScrn=  0.000000 ICntrl=   2000500 IOpCl=  0 I1Cent=           5 NGrid=           0
         NMat0=    1 NMatS0=      1 NMatT0=    0 NMatD0=    1 NMtDS0=    0 NMtDT0=    0
 Symmetry not used in FoFCou.
                          Isotropic Fermi Contact Couplings
        Atom                 a.u.       MegaHertz       Gauss      10(-4) cm-1
     1  Ti(47)             3.01445    -380.40604    -135.73833    -126.88980
     2  O(17)              0.01001      -3.03482      -1.08290      -1.01231
 --------------------------------------------------------
       Center         ----  Spin Dipole Couplings  ----
                      3XX-RR        3YY-RR        3ZZ-RR
 --------------------------------------------------------
     1   Atom        0.427726      0.427726     -0.855452
     2   Atom       -0.029781     -0.029781      0.059563
 --------------------------------------------------------
                        XY            XZ            YZ
 --------------------------------------------------------
     1   Atom        0.000000      0.000000      0.000000
     2   Atom        0.000000      0.000000      0.000000
 --------------------------------------------------------


 ---------------------------------------------------------------------------------
              Anisotropic Spin Dipole Couplings in Principal Axis System
 ---------------------------------------------------------------------------------

       Atom             a.u.   MegaHertz   Gauss  10(-4) cm-1        Axes

              Baa    -0.8555    25.772     9.196     8.597  0.0000  0.0000  1.0000
     1 Ti(47) Bbb     0.4277   -12.886    -4.598    -4.298  1.0000  0.0000  0.0000
              Bcc     0.4277   -12.886    -4.598    -4.298 -0.0000  1.0000  0.0000
 
              Baa    -0.0298     2.155     0.769     0.719  1.0000  0.0000  0.0000
     2 O(17)  Bbb    -0.0298     2.155     0.769     0.719 -0.0000  1.0000  0.0000
              Bcc     0.0596    -4.310    -1.538    -1.438  0.0000  0.0000  1.0000
 

 ---------------------------------------------------------------------------------

 No NMR shielding tensors so no spin-rotation constants.
 Leave Link  601 at Wed Mar 14 14:23:35 2018, MaxMem= 21474836480 cpu:              16.8 elap:               0.6
 (Enter /home1/apps/gaussian/16rA.03/g16/l9999.exe)

 Test job not archived.
 1\1\GINC-C479-083\SP\ROCCSD(T)-RW\Gen\O1Ti1(3)\AANNABE\14-Mar-2018\0\\
 #P ROCCSD(T)=(maxcyc=150, Window=(7,0), SaveAmplitudes, ReadAmplitudes
 )/Gen 5d 7f SCF=(maxcycles=300) Integral(NoXCTest, DKHSO) MaxDisk=500G
 B Pop=Regular Guess=Read IOp(5/15=2)\\TiO\\0,3\Ti,0,0.,0.,0.\O,0,0.,0.
 ,1.9\\Version=ES64L-G16RevA.03\HF=-927.6513066\MP2=-928.3837016\MP3=-9
 28.3226519\PUHF=-927.6513066\PMP2-0=-928.3837016\MP4SDQ=-928.4167074\C
 CSD=-928.3628059\CCSD(T)=-928.4183847\RMSD=5.768e-09\PG=C*V [C*(O1Ti1)
 ]\\@


 THOSE WHO ASPIRE NOT TO GUESS AND DIVINE,
 BUT TO DISCOVER AND KNOW, WHO PROPOSE NOT TO DEVISE 
 MIMIC AND FABULOUS WORLDS OF THEIR OWN, BUT TO 
 EXAMINE AND DISSECT THE NATURE OF THIS VERY WORLD 
 ITSELF, MUST GO TO THE FACTS THEMSELVES FOR EVERYTHING.

                               -- FRANCIS BACON, 1620
 Job cpu time:       0 days  8 hours  8 minutes 38.4 seconds.
 Elapsed time:       0 days  0 hours 15 minutes 28.3 seconds.
 File lengths (MBytes):  RWF=  15339 Int=      0 D2E=      0 Chk=     58 Scr=      1
 Normal termination of Gaussian 16 at Wed Mar 14 14:23:35 2018.
