 Entering Gaussian System, Link 0=g16
 Initial command:
 /home1/apps/gaussian/16rA.03/g16/l1.exe "/tmp/Gau-65334.inp" -scrdir="/tmp/"
 Entering Link 1 = /home1/apps/gaussian/16rA.03/g16/l1.exe PID=     65335.
  
 Copyright (c) 1988,1990,1992,1993,1995,1998,2003,2009,2016,
            Gaussian, Inc.  All Rights Reserved.
  
 This is part of the Gaussian(R) 16 program.  It is based on
 the Gaussian(R) 09 system (copyright 2009, Gaussian, Inc.),
 the Gaussian(R) 03 system (copyright 2003, Gaussian, Inc.),
 the Gaussian(R) 98 system (copyright 1998, Gaussian, Inc.),
 the Gaussian(R) 94 system (copyright 1995, Gaussian, Inc.),
 the Gaussian 92(TM) system (copyright 1992, Gaussian, Inc.),
 the Gaussian 90(TM) system (copyright 1990, Gaussian, Inc.),
 the Gaussian 88(TM) system (copyright 1988, Gaussian, Inc.),
 the Gaussian 86(TM) system (copyright 1986, Carnegie Mellon
 University), and the Gaussian 82(TM) system (copyright 1983,
 Carnegie Mellon University). Gaussian is a federally registered
 trademark of Gaussian, Inc.
  
 This software contains proprietary and confidential information,
 including trade secrets, belonging to Gaussian, Inc.
  
 This software is provided under written license and may be
 used, copied, transmitted, or stored only in accord with that
 written license.
  
 The following legend is applicable only to US Government
 contracts under FAR:
  
                    RESTRICTED RIGHTS LEGEND
  
 Use, reproduction and disclosure by the US Government is
 subject to restrictions as set forth in subparagraphs (a)
 and (c) of the Commercial Computer Software - Restricted
 Rights clause in FAR 52.227-19.
  
 Gaussian, Inc.
 340 Quinnipiac St., Bldg. 40, Wallingford CT 06492
  
  
 ---------------------------------------------------------------
 Warning -- This program may not be used in any manner that
 competes with the business of Gaussian, Inc. or will provide
 assistance to any competitor of Gaussian, Inc.  The licensee
 of this program is prohibited from giving any competitor of
 Gaussian, Inc. access to this program.  By using this program,
 the user acknowledges that Gaussian, Inc. is engaged in the
 business of creating and licensing software in the field of
 computational chemistry and represents and warrants to the
 licensee that it is not a competitor of Gaussian, Inc. and that
 it will not use this program in any manner prohibited above.
 ---------------------------------------------------------------
  

 Cite this work as:
 Gaussian 16, Revision A.03,
 M. J. Frisch, G. W. Trucks, H. B. Schlegel, G. E. Scuseria, 
 M. A. Robb, J. R. Cheeseman, G. Scalmani, V. Barone, 
 G. A. Petersson, H. Nakatsuji, X. Li, M. Caricato, A. V. Marenich, 
 J. Bloino, B. G. Janesko, R. Gomperts, B. Mennucci, H. P. Hratchian, 
 J. V. Ortiz, A. F. Izmaylov, J. L. Sonnenberg, D. Williams-Young, 
 F. Ding, F. Lipparini, F. Egidi, J. Goings, B. Peng, A. Petrone, 
 T. Henderson, D. Ranasinghe, V. G. Zakrzewski, J. Gao, N. Rega, 
 G. Zheng, W. Liang, M. Hada, M. Ehara, K. Toyota, R. Fukuda, 
 J. Hasegawa, M. Ishida, T. Nakajima, Y. Honda, O. Kitao, H. Nakai, 
 T. Vreven, K. Throssell, J. A. Montgomery, Jr., J. E. Peralta, 
 F. Ogliaro, M. J. Bearpark, J. J. Heyd, E. N. Brothers, K. N. Kudin, 
 V. N. Staroverov, T. A. Keith, R. Kobayashi, J. Normand, 
 K. Raghavachari, A. P. Rendell, J. C. Burant, S. S. Iyengar, 
 J. Tomasi, M. Cossi, J. M. Millam, M. Klene, C. Adamo, R. Cammi, 
 J. W. Ochterski, R. L. Martin, K. Morokuma, O. Farkas, 
 J. B. Foresman, and D. J. Fox, Gaussian, Inc., Wallingford CT, 2016.
 
 ******************************************
 Gaussian 16:  ES64L-G16RevA.03 25-Dec-2016
                21-Feb-2018 
 ******************************************
 %mem=80GB
 %cpu=0-31
 SetSPE:  set environment variable "MP_BIND" = "yes"
 SetSPE:  set environment variable "MP_BLIST" = "0,1,2,3,4,5,6,7,8,9,10,11,12,13,14,15,16,17,18,19,20,21,22,23,24,25,26,27,28,29,30,31"
 Will use up to   32 processors via shared memory.
 %chk=ScO
 %rwf=/scratch/04843/aannabe/gaussian/
 ----------------------------------------------------------------------
 #P ROCCSD(T)=(maxcyc=150, Full, SaveAmplitudes, ReadAmplitudes)/Gen 5d
  7f SCF=(maxcycles=300) Integral(NoXCTest) MaxDisk=500GB Pop=Regular P
 seudo=Read Guess=Read
 ----------------------------------------------------------------------
 1/38=1,172=1/1;
 2/12=2,17=6,18=5,40=1/2;
 3/5=7,8=11,11=2,16=1,17=8,25=1,30=1,47=8,116=101/1,2,3;
 4/5=1/1;
 5/5=2,7=300,38=6/2;
 8/5=-1,6=4,9=120000,10=90,24=1/1,4;
 9/5=7,6=150,14=2,77=1/13;
 6//1;
 99/5=1,9=1/99;
 Leave Link    1 at Wed Feb 21 01:12:41 2018, MaxMem= 10737418240 cpu:               6.8 elap:               0.2
 (Enter /home1/apps/gaussian/16rA.03/g16/l101.exe)
 ---
 ScO
 ---
 Symbolic Z-matrix:
 Charge =  0 Multiplicity = 2
 Sc                    0.        0.        0. 
 O                     0.        0.        1.5 
 
 ITRead=  0  0
 MicOpt= -1 -1
 NAtoms=      2 NQM=        2 NQMF=       0 NMMI=      0 NMMIF=      0
                NMic=       0 NMicF=      0.
                    Isotopes and Nuclear Properties:
 (Nuclear quadrupole moments (NQMom) in fm**2, nuclear magnetic moments (NMagM)
  in nuclear magnetons)

  Atom         1           2
 IAtWgt=          45          16
 AtmWgt=  44.9559136  15.9949146
 NucSpn=           7           0
 AtZEff=  -0.0000000  -0.0000000
 NQMom=  -22.0000000   0.0000000
 NMagM=    4.7564830   0.0000000
 AtZNuc=  21.0000000   8.0000000
 Leave Link  101 at Wed Feb 21 01:12:41 2018, MaxMem= 10737418240 cpu:               2.9 elap:               0.1
 (Enter /home1/apps/gaussian/16rA.03/g16/l202.exe)
                          Input orientation:                          
 ---------------------------------------------------------------------
 Center     Atomic      Atomic             Coordinates (Angstroms)
 Number     Number       Type             X           Y           Z
 ---------------------------------------------------------------------
      1         21           0        0.000000    0.000000    0.000000
      2          8           0        0.000000    0.000000    1.500000
 ---------------------------------------------------------------------
 Stoichiometry    OSc(2)
 Framework group  C*V[C*(OSc)]
 Deg. of freedom     1
 Full point group                 C*V     NOp   4
 Largest Abelian subgroup         C2V     NOp   4
 Largest concise Abelian subgroup C1      NOp   1
                         Standard orientation:                         
 ---------------------------------------------------------------------
 Center     Atomic      Atomic             Coordinates (Angstroms)
 Number     Number       Type             X           Y           Z
 ---------------------------------------------------------------------
      1         21           0        0.000000    0.000000    0.413793
      2          8           0        0.000000    0.000000   -1.086207
 ---------------------------------------------------------------------
 Rotational constants (GHZ):           0.0000000          19.0390616          19.0390616
 Leave Link  202 at Wed Feb 21 01:12:42 2018, MaxMem= 10737418240 cpu:               0.7 elap:               0.1
 (Enter /home1/apps/gaussian/16rA.03/g16/l301.exe)
 General basis read from cards:  (5D, 7F)
 Centers:       1
 S 1 1.00
     Exponent=  8.4179090000D+06 Coefficients=  1.0000000000D+00
 S 1 1.00
     Exponent=  1.2603120000D+06 Coefficients=  1.0000000000D+00
 S 1 1.00
     Exponent=  2.8679840000D+05 Coefficients=  1.0000000000D+00
 S 1 1.00
     Exponent=  8.1234690000D+04 Coefficients=  1.0000000000D+00
 S 1 1.00
     Exponent=  2.6503110000D+04 Coefficients=  1.0000000000D+00
 S 1 1.00
     Exponent=  9.5687010000D+03 Coefficients=  1.0000000000D+00
 S 1 1.00
     Exponent=  3.7324970000D+03 Coefficients=  1.0000000000D+00
 S 1 1.00
     Exponent=  1.5484220000D+03 Coefficients=  1.0000000000D+00
 S 1 1.00
     Exponent=  6.7554200000D+02 Coefficients=  1.0000000000D+00
 S 1 1.00
     Exponent=  3.0725220000D+02 Coefficients=  1.0000000000D+00
 S 1 1.00
     Exponent=  1.4466720000D+02 Coefficients=  1.0000000000D+00
 S 1 1.00
     Exponent=  7.0043870000D+01 Coefficients=  1.0000000000D+00
 S 1 1.00
     Exponent=  3.4322500000D+01 Coefficients=  1.0000000000D+00
 S 1 1.00
     Exponent=  1.5612240000D+01 Coefficients=  1.0000000000D+00
 S 1 1.00
     Exponent=  7.7437220000D+00 Coefficients=  1.0000000000D+00
 S 1 1.00
     Exponent=  3.8442600000D+00 Coefficients=  1.0000000000D+00
 S 1 1.00
     Exponent=  1.7197660000D+00 Coefficients=  1.0000000000D+00
 S 1 1.00
     Exponent=  8.3252300000D-01 Coefficients=  1.0000000000D+00
 S 1 1.00
     Exponent=  3.8556400000D-01 Coefficients=  1.0000000000D+00
 S 1 1.00
     Exponent=  9.6700000000D-02 Coefficients=  1.0000000000D+00
 S 1 1.00
     Exponent=  4.7778000000D-02 Coefficients=  1.0000000000D+00
 S 1 1.00
     Exponent=  2.2363000000D-02 Coefficients=  1.0000000000D+00
 S 1 1.00
     Exponent=  3.1672000000D+00 Coefficients=  1.0000000000D+00
 S 1 1.00
     Exponent=  1.6879000000D+00 Coefficients=  1.0000000000D+00
 S 1 1.00
     Exponent=  1.0470000000D-02 Coefficients=  1.0000000000D+00
 P 1 1.00
     Exponent=  2.2640970000D+04 Coefficients=  1.0000000000D+00
 P 1 1.00
     Exponent=  5.3575450000D+03 Coefficients=  1.0000000000D+00
 P 1 1.00
     Exponent=  1.7403730000D+03 Coefficients=  1.0000000000D+00
 P 1 1.00
     Exponent=  6.6661630000D+02 Coefficients=  1.0000000000D+00
 P 1 1.00
     Exponent=  2.8363840000D+02 Coefficients=  1.0000000000D+00
 P 1 1.00
     Exponent=  1.2979760000D+02 Coefficients=  1.0000000000D+00
 P 1 1.00
     Exponent=  6.2679560000D+01 Coefficients=  1.0000000000D+00
 P 1 1.00
     Exponent=  3.1504410000D+01 Coefficients=  1.0000000000D+00
 P 1 1.00
     Exponent=  1.6235250000D+01 Coefficients=  1.0000000000D+00
 P 1 1.00
     Exponent=  8.5183240000D+00 Coefficients=  1.0000000000D+00
 P 1 1.00
     Exponent=  4.5190050000D+00 Coefficients=  1.0000000000D+00
 P 1 1.00
     Exponent=  2.3665910000D+00 Coefficients=  1.0000000000D+00
 P 1 1.00
     Exponent=  1.2152350000D+00 Coefficients=  1.0000000000D+00
 P 1 1.00
     Exponent=  6.1434800000D-01 Coefficients=  1.0000000000D+00
 P 1 1.00
     Exponent=  3.0074500000D-01 Coefficients=  1.0000000000D+00
 P 1 1.00
     Exponent=  1.2583400000D-01 Coefficients=  1.0000000000D+00
 P 1 1.00
     Exponent=  5.4719000000D-02 Coefficients=  1.0000000000D+00
 P 1 1.00
     Exponent=  2.3488000000D-02 Coefficients=  1.0000000000D+00
 P 1 1.00
     Exponent=  4.0719000000D+00 Coefficients=  1.0000000000D+00
 P 1 1.00
     Exponent=  9.9940000000D-01 Coefficients=  1.0000000000D+00
 P 1 1.00
     Exponent=  1.0080000000D-02 Coefficients=  1.0000000000D+00
 D 1 1.00
     Exponent=  1.4802800000D+02 Coefficients=  1.0000000000D+00
 D 1 1.00
     Exponent=  4.3852800000D+01 Coefficients=  1.0000000000D+00
 D 1 1.00
     Exponent=  1.6664600000D+01 Coefficients=  1.0000000000D+00
 D 1 1.00
     Exponent=  6.9789300000D+00 Coefficients=  1.0000000000D+00
 D 1 1.00
     Exponent=  3.1236900000D+00 Coefficients=  1.0000000000D+00
 D 1 1.00
     Exponent=  1.4468700000D+00 Coefficients=  1.0000000000D+00
 D 1 1.00
     Exponent=  6.6740700000D-01 Coefficients=  1.0000000000D+00
 D 1 1.00
     Exponent=  3.0163300000D-01 Coefficients=  1.0000000000D+00
 D 1 1.00
     Exponent=  1.3267400000D-01 Coefficients=  1.0000000000D+00
 D 1 1.00
     Exponent=  5.6739000000D-02 Coefficients=  1.0000000000D+00
 D 1 1.00
     Exponent=  2.3175000000D-02 Coefficients=  1.0000000000D+00
 D 1 1.00
     Exponent=  2.1282000000D+00 Coefficients=  1.0000000000D+00
 D 1 1.00
     Exponent=  9.6910000000D-01 Coefficients=  1.0000000000D+00
 D 1 1.00
     Exponent=  9.4700000000D-03 Coefficients=  1.0000000000D+00
 F 1 1.00
     Exponent=  2.7590000000D+00 Coefficients=  1.0000000000D+00
 F 1 1.00
     Exponent=  1.0490000000D+00 Coefficients=  1.0000000000D+00
 F 1 1.00
     Exponent=  3.9890000000D-01 Coefficients=  1.0000000000D+00
 F 1 1.00
     Exponent=  1.1060000000D-01 Coefficients=  1.0000000000D+00
 F 1 1.00
     Exponent=  3.0670000000D-02 Coefficients=  1.0000000000D+00
 G 1 1.00
     Exponent=  2.4852000000D+00 Coefficients=  1.0000000000D+00
 G 1 1.00
     Exponent=  9.0670000000D-01 Coefficients=  1.0000000000D+00
 G 1 1.00
     Exponent=  2.5300000000D-01 Coefficients=  1.0000000000D+00
 G 1 1.00
     Exponent=  7.0600000000D-02 Coefficients=  1.0000000000D+00
 H 1 1.00
     Exponent=  2.0405000000D+00 Coefficients=  1.0000000000D+00
 H 1 1.00
     Exponent=  4.9340000000D-01 Coefficients=  1.0000000000D+00
 H 1 1.00
     Exponent=  1.1931000000D-01 Coefficients=  1.0000000000D+00
 ****
 Centers:       2
 S 1 1.00
     Exponent=  6.1420000000D+04 Coefficients=  1.0000000000D+00
 S 1 1.00
     Exponent=  9.1990000000D+03 Coefficients=  1.0000000000D+00
 S 1 1.00
     Exponent=  2.0910000000D+03 Coefficients=  1.0000000000D+00
 S 1 1.00
     Exponent=  5.9090000000D+02 Coefficients=  1.0000000000D+00
 S 1 1.00
     Exponent=  1.9230000000D+02 Coefficients=  1.0000000000D+00
 S 1 1.00
     Exponent=  6.9320000000D+01 Coefficients=  1.0000000000D+00
 S 1 1.00
     Exponent=  2.6970000000D+01 Coefficients=  1.0000000000D+00
 S 1 1.00
     Exponent=  1.1100000000D+01 Coefficients=  1.0000000000D+00
 S 1 1.00
     Exponent=  4.6820000000D+00 Coefficients=  1.0000000000D+00
 S 1 1.00
     Exponent=  1.4280000000D+00 Coefficients=  1.0000000000D+00
 S 1 1.00
     Exponent=  5.5470000000D-01 Coefficients=  1.0000000000D+00
 S 1 1.00
     Exponent=  2.0670000000D-01 Coefficients=  1.0000000000D+00
 S 1 1.00
     Exponent=  1.2974000000D+01 Coefficients=  1.0000000000D+00
 S 1 1.00
     Exponent=  3.4900000000D+01 Coefficients=  1.0000000000D+00
 S 1 1.00
     Exponent=  9.3881000000D+01 Coefficients=  1.0000000000D+00
 S 1 1.00
     Exponent=  6.9590000000D-02 Coefficients=  1.0000000000D+00
 P 1 1.00
     Exponent=  6.3420000000D+01 Coefficients=  1.0000000000D+00
 P 1 1.00
     Exponent=  1.4660000000D+01 Coefficients=  1.0000000000D+00
 P 1 1.00
     Exponent=  4.4590000000D+00 Coefficients=  1.0000000000D+00
 P 1 1.00
     Exponent=  1.5310000000D+00 Coefficients=  1.0000000000D+00
 P 1 1.00
     Exponent=  5.3020000000D-01 Coefficients=  1.0000000000D+00
 P 1 1.00
     Exponent=  1.7500000000D-01 Coefficients=  1.0000000000D+00
 P 1 1.00
     Exponent=  1.4475000000D+01 Coefficients=  1.0000000000D+00
 P 1 1.00
     Exponent=  4.2730000000D+01 Coefficients=  1.0000000000D+00
 P 1 1.00
     Exponent=  1.2614000000D+02 Coefficients=  1.0000000000D+00
 P 1 1.00
     Exponent=  5.3480000000D-02 Coefficients=  1.0000000000D+00
 D 1 1.00
     Exponent=  3.7750000000D+00 Coefficients=  1.0000000000D+00
 D 1 1.00
     Exponent=  1.3000000000D+00 Coefficients=  1.0000000000D+00
 D 1 1.00
     Exponent=  4.4400000000D-01 Coefficients=  1.0000000000D+00
 D 1 1.00
     Exponent=  1.4927000000D+01 Coefficients=  1.0000000000D+00
 D 1 1.00
     Exponent=  5.7544000000D+01 Coefficients=  1.0000000000D+00
 D 1 1.00
     Exponent=  1.5400000000D-01 Coefficients=  1.0000000000D+00
 F 1 1.00
     Exponent=  2.6660000000D+00 Coefficients=  1.0000000000D+00
 F 1 1.00
     Exponent=  8.5900000000D-01 Coefficients=  1.0000000000D+00
 F 1 1.00
     Exponent=  2.6483000000D+01 Coefficients=  1.0000000000D+00
 F 1 1.00
     Exponent=  3.2400000000D-01 Coefficients=  1.0000000000D+00
 G 1 1.00
     Exponent=  1.8460000000D+00 Coefficients=  1.0000000000D+00
 G 1 1.00
     Exponent=  7.1400000000D-01 Coefficients=  1.0000000000D+00
 ****
 ======================================================================================================
                                       Pseudopotential Parameters
 ======================================================================================================
  Center     Atomic      Valence      Angular      Power
  Number     Number     Electrons     Momentum     of R      Exponent        Coefficient   SO-Coeffient
 ======================================================================================================
    1         21           11
                                      F and up 
                                                     1        8.6843244       11.00000000    0.00000000
                                                     2       12.9608105     1293.12711495    0.00000000
                                                     2        3.4272602      -59.34807006    0.00000000
                                                     2       13.9264987    -6626.33658022    0.00000000
                                                     2       14.1135521     5365.41708240    0.00000000
                                                     3        3.8783422       95.52756785    0.00000000
                                      S - F
                                                     2       14.1143229    -1492.86349923    0.00000000
                                                     2        4.4283560     1499.37242000    0.00000000
                                                     2        7.4604557     1088.20049735    0.00000000
                                                     2       10.2353388    -1981.91696501    0.00000000
                                                     2        4.5248959    -1710.45115474    0.00000000
                                                     2       13.0788594     2625.43810581    0.00000000
                                      P - F
                                                     2        9.8399764    -2070.12504374    0.00000000
                                                     2        7.2507207     5801.02991534    0.00000000
                                                     2       11.8197475     1554.97375552    0.00000000
                                                     2       14.0743327     -853.69420879    0.00000000
                                                     2        7.0846032    -4878.01776292    0.00000000
                                                     2       14.0716643      462.12967346    0.00000000
                                      D - F
                                                     2       11.2984945     -570.27953430    0.00000000
                                                     2        5.7211985     -549.43824610    0.00000000
                                                     2        6.5323409     1672.92599442    0.00000000
                                                     2        8.1143102    -2704.80905453    0.00000000
                                                     2        9.9572828     4666.19773963    0.00000000
                                                     2       10.2402945    -2524.96335631    0.00000000
    2          8            6
                                      P and up 
                                                     1       12.3099700        6.00000000    0.00000000
                                                     3       14.7696200       73.85984000    0.00000000
                                                     2       13.7141900      -47.87600000    0.00000000
                                      S - P
                                                     2       13.6551200       85.86406000    0.00000000
 ======================================================================================================
 Ernie: Thresh=  0.10000D-02 Tol=  0.10000D-05 Strict=F.
 There are   213 symmetry adapted cartesian basis functions of A1  symmetry.
 There are    56 symmetry adapted cartesian basis functions of A2  symmetry.
 There are   114 symmetry adapted cartesian basis functions of B1  symmetry.
 There are   114 symmetry adapted cartesian basis functions of B2  symmetry.
 There are   157 symmetry adapted basis functions of A1  symmetry.
 There are    47 symmetry adapted basis functions of A2  symmetry.
 There are    90 symmetry adapted basis functions of B1  symmetry.
 There are    90 symmetry adapted basis functions of B2  symmetry.
   384 basis functions,   497 primitive gaussians,   497 cartesian basis functions
     9 alpha electrons        8 beta electrons
       nuclear repulsion energy        23.2837972805 Hartrees.
 IExCor=    0 DFT=F Ex=HF Corr=None ExCW=0 ScaHFX=  1.000000
 ScaDFX=  1.000000  1.000000  1.000000  1.000000 ScalE2=  1.000000  1.000000
 IRadAn=      5 IRanWt=     -1 IRanGd=            0 ICorTp=0 IEmpDi=  4
 NAtoms=    2 NActive=    2 NUniq=    2 SFac= 1.00D+00 NAtFMM=   60 NAOKFM=F Big=F
 Integral buffers will be    131072 words long.
 Raffenetti 2 integral format.
 Two-electron integral symmetry is turned on.
 Leave Link  301 at Wed Feb 21 01:12:42 2018, MaxMem= 10737418240 cpu:               9.9 elap:               0.3
 (Enter /home1/apps/gaussian/16rA.03/g16/l302.exe)
 NPDir=0 NMtPBC=     1 NCelOv=     1 NCel=       1 NClECP=     1 NCelD=      1
         NCelK=      1 NCelE2=     1 NClLst=     1 CellRange=     0.0.
 One-electron integrals computed using PRISM.
 One-electron integral symmetry used in STVInt
   4 Symmetry operations used in ECPInt.
 ECPInt:  NShTT=    6105 NPrTT=    6105 LenC2=    5626 LenP2D=    5625.
 LDataN:  DoStor=T MaxTD1=10 Len=  848
 NBasis=   384 RedAO= T EigKep=  1.19D-06  NBF=   157    47    90    90
 NBsUse=   383 1.00D-06 EigRej=  7.74D-09 NBFU=   156    47    90    90
 Leave Link  302 at Wed Feb 21 01:12:45 2018, MaxMem= 10737418240 cpu:              97.9 elap:               3.1
 (Enter /home1/apps/gaussian/16rA.03/g16/l303.exe)
 DipDrv:  MaxL=1.
 Leave Link  303 at Wed Feb 21 01:12:45 2018, MaxMem= 10737418240 cpu:               3.8 elap:               0.2
 (Enter /home1/apps/gaussian/16rA.03/g16/l401.exe)
 Initial guess from the checkpoint file:  "ScO.chk"
 B after Tr=     0.000000    0.000000    0.000000
         Rot=    1.000000    0.000000    0.000000    0.000000 Ang=   0.00 deg.
 Guess basis will be translated and rotated to current coordinates.
 JPrj=2 DoOrth=T DoCkMO=T.
 Initial guess orbital symmetries:
       Occupied  (SG) (SG) (PI) (PI) (SG) (PI) (PI) (SG) (SG)
       Virtual   (PI) (PI) (SG) (SG) (DLTA) (DLTA) (PI) (PI) (SG)
                 (PI) (PI) (SG) (DLTA) (DLTA) (SG) (PI) (PI) (SG)
                 (PI) (PI) (SG) (PHI) (PHI) (DLTA) (DLTA) (PI)
                 (PI) (DLTA) (DLTA) (SG) (SG) (PI) (PI) (PI) (PI)
                 (SG) (SG) (SG) (DLTA) (DLTA) (PI) (PI) (?A) (?A)
                 (DLTA) (DLTA) (PHI) (PHI) (PI) (PI) (SG) (SG)
                 (PI) (PI) (DLTA) (DLTA) (PHI) (PHI) (SG) (PI)
                 (PI) (SG) (PI) (PI) (DLTA) (DLTA) (SG) (SG) (DLTA)
                 (DLTA) (PI) (PI) (SG) (SG) (PI) (PI) (PI) (PI)
                 (SG) (PHI) (PHI) (DLTA) (DLTA) (?A) (?A) (PI)
                 (PI) (SG) (DLTA) (DLTA) (SG) (PHI) (PHI) (PI)
                 (PI) (PHI) (PHI) (DLTA) (DLTA) (SG) (PI) (PI)
                 (DLTA) (DLTA) (DLTA) (DLTA) (SG) (PI) (PI) (SG)
                 (SG) (PI) (PI) (SG) (PI) (PI) (SG) (PI) (PI) (SG)
                 (SG) (DLTA) (DLTA) (SG) (PI) (PI) (PHI) (PHI)
                 (DLTA) (DLTA) (PHI) (PHI) (PI) (PI) (DLTA) (DLTA)
                 (SG) (PI) (PI) (DLTA) (DLTA) (SG) (PI) (PI) (?A)
                 (?A) (PHI) (PHI) (DLTA) (DLTA) (SG) (SG) (PI)
                 (PI) (PI) (PI) (SG) (SG) (DLTA) (DLTA) (PI) (PI)
                 (SG) (PI) (PI) (SG) (SG) (SG) (PI) (PI) (SG) (DLTA)
                 (DLTA) (PI) (PI) (SG) (SG) (PI) (PI) (SG) (SG)
                 (DLTA) (DLTA) (PI) (PI) (SG) (PI) (PI) (SG) (SG)
                 (DLTA) (DLTA) (PI) (PI) (SG) (PI) (PI) (SG) (SG)
                 (SG) (PI) (PI) (SG) (PI) (PI) (SG) (SG) (SG) (DLTA)
                 (DLTA) (PI) (PI) (SG) (SG) (PI) (PI) (SG) (PI)
                 (PI) (SG) (SG) (SG) (PI) (PI) (SG) (SG) (PI) (PI)
                 (SG) (SG) (SG) (PI) (PI) (SG) (SG) (SG) (PI) (PI)
                 (SG) (SG) (SG) (SG) (PI) (PI) (SG) (SG) (SG) (SG)
                 (SG) (SG) (DLTA) (SG) (SG) (DLTA) (SG) (SG) (SG)
                 (SG) (SG) (DLTA) (DLTA) (SG) (SG) (DLTA) (SG)
                 (SG) (SG) (DLTA) (SG) (SG) (DLTA) (DLTA) (?A)
                 (?A) (DLTA) (SG) (DLTA) (SG) (DLTA) (SG) (?A)
                 (SG) (?A) (DLTA) (SG) (DLTA) (SG) (DLTA) (SG)
                 (SG) (?A) (?A) (DLTA) (DLTA) (DLTA) (DLTA) (DLTA)
                 (DLTA) (DLTA) (DLTA) (?A) (?A) (DLTA) (DLTA) (DLTA)
                 (?A) (?A) (DLTA) (DLTA) (DLTA) (?A) (?A) (PI)
                 (PI) (PI) (PI) (PI) (PI) (PI) (PHI) (PI) (PI)
                 (PI) (PHI) (PI) (PI) (PHI) (PI) (PI) (PHI) (PHI)
                 (PI) (PI) (?B) (PHI) (PHI) (PI) (PI) (PHI) (PI)
                 (?B) (PHI) (?B) (PI) (PI) (PI) (PI) (PI) (PI)
                 (PI) (PHI) (PI) (PI) (PI) (PHI) (PI) (PI) (PHI)
                 (PI) (PI) (PHI) (PHI) (PI) (PI) (?B) (PHI) (PHI)
                 (PI) (PI) (PHI) (PI) (?B) (PHI) (?B)
 The electronic state of the initial guess is 2-SG.
 Leave Link  401 at Wed Feb 21 01:12:46 2018, MaxMem= 10737418240 cpu:              24.5 elap:               0.9
 (Enter /home1/apps/gaussian/16rA.03/g16/l502.exe)
 Keep R1 and R2 ints in memory in symmetry-blocked form, NReq=3425113631.
 FoFCou: FMM=F IPFlag=           8 FMFlag=           0 FMFlg1=           0
         NFxFlg=           0 DoJE=F BraDBF=F KetDBF=F FulRan=T
         wScrn=  0.000000 ICntrl=       600 IOpCl=  0 I1Cent=           0 NGrid=           0
         NMat0=    1 NMatS0=  73920 NMatT0=    0 NMatD0=    1 NMtDS0=    0 NMtDT0=    0
 Petite list used in FoFCou.
 Restricted open shell SCF:
 Using DIIS extrapolation, IDIIS=  1040.
 NGot= 10737418240 LenX=  9351085953 LenY=  9350838447
 Requested convergence on RMS density matrix=1.00D-08 within 300 cycles.
 Requested convergence on MAX density matrix=1.00D-06.
 Requested convergence on             energy=1.00D-06.
 No special actions if energy rises.

 Cycle   1  Pass 1  IDiag  1:
 E= -61.8474599577225    
 DIIS: error= 2.12D+00 at cycle   1 NSaved=   1.
 NSaved= 1 IEnMin= 1 EnMin= -61.8474599577225     IErMin= 1 ErrMin= 2.12D+00
 ErrMax= 2.12D+00  0.00D+00 EMaxC= 1.00D-01 BMatC= 7.24D+02 BMatP= 7.24D+02
 IDIUse=3 WtCom= 0.00D+00 WtEn= 1.00D+00
 Coeff-Com:  0.100D+01
 Coeff-En:   0.100D+01
 Coeff:      0.100D+01
 Gap=     0.080 Goal=   None    Shift=    0.000
 GapD=    0.080 DampG=0.500 DampE=0.125 DampFc=0.1250 IDamp=-1.
 Damping current iteration by 1.25D-01
 RMSDP=8.17D-03 MaxDP=1.25D+00              OVMax= 4.31D-03

 Cycle   2  Pass 1  IDiag  1:
 E= -61.8478870250198     Delta-E=       -0.000427067297 Rises=F Damp=T
 DIIS: error= 1.85D+00 at cycle   2 NSaved=   2.
 NSaved= 2 IEnMin= 2 EnMin= -61.8478870250198     IErMin= 2 ErrMin= 1.85D+00
 ErrMax= 1.85D+00  0.00D+00 EMaxC= 1.00D-01 BMatC= 5.54D+02 BMatP= 7.24D+02
 IDIUse=3 WtCom= 0.00D+00 WtEn= 1.00D+00
 Coeff-Com: -0.700D+01 0.800D+01
 Coeff-En:   0.000D+00 0.100D+01
 Coeff:      0.000D+00 0.100D+01
 Gap=     0.080 Goal=   None    Shift=    0.000
 RMSDP=7.17D-03 MaxDP=1.10D+00 DE=-4.27D-04 OVMax= 1.49D-03

 Cycle   3  Pass 1  IDiag  1:
 E= -61.8509270904559     Delta-E=       -0.003040065436 Rises=F Damp=F
 DIIS: error= 3.88D-04 at cycle   3 NSaved=   3.
 NSaved= 3 IEnMin= 3 EnMin= -61.8509270904559     IErMin= 3 ErrMin= 3.88D-04
 ErrMax= 3.88D-04  0.00D+00 EMaxC= 1.00D-01 BMatC= 1.26D-05 BMatP= 5.54D+02
 IDIUse=3 WtCom= 9.96D-01 WtEn= 3.88D-03
 Coeff-Com:  0.661D+00-0.755D+00 0.109D+01
 Coeff-En:   0.000D+00 0.000D+00 0.100D+01
 Coeff:      0.658D+00-0.752D+00 0.109D+01
 Gap=     0.080 Goal=   None    Shift=    0.000
 RMSDP=2.22D-04 MaxDP=2.98D-02 DE=-3.04D-03 OVMax= 2.85D-03

 Cycle   4  Pass 1  IDiag  1:
 E= -61.8509300230571     Delta-E=       -0.000002932601 Rises=F Damp=F
 DIIS: error= 4.68D-05 at cycle   4 NSaved=   4.
 NSaved= 4 IEnMin= 4 EnMin= -61.8509300230571     IErMin= 4 ErrMin= 4.68D-05
 ErrMax= 4.68D-05  0.00D+00 EMaxC= 1.00D-01 BMatC= 4.06D-07 BMatP= 1.26D-05
 IDIUse=1 WtCom= 1.00D+00 WtEn= 0.00D+00
 Coeff-Com:  0.983D+00-0.112D+01 0.146D+00 0.994D+00
 Coeff:      0.983D+00-0.112D+01 0.146D+00 0.994D+00
 Gap=     0.080 Goal=   None    Shift=    0.000
 RMSDP=4.69D-05 MaxDP=1.01D-02 DE=-2.93D-06 OVMax= 1.84D-03

 Cycle   5  Pass 1  IDiag  1:
 E= -61.8509306806842     Delta-E=       -0.000000657627 Rises=F Damp=F
 DIIS: error= 4.24D-05 at cycle   5 NSaved=   5.
 NSaved= 5 IEnMin= 5 EnMin= -61.8509306806842     IErMin= 5 ErrMin= 4.24D-05
 ErrMax= 4.24D-05  0.00D+00 EMaxC= 1.00D-01 BMatC= 2.52D-07 BMatP= 4.06D-07
 IDIUse=1 WtCom= 1.00D+00 WtEn= 0.00D+00
 Coeff-Com:  0.822D+00-0.940D+00 0.109D+00 0.453D+00 0.556D+00
 Coeff:      0.822D+00-0.940D+00 0.109D+00 0.453D+00 0.556D+00
 Gap=     0.080 Goal=   None    Shift=    0.000
 RMSDP=9.02D-06 MaxDP=1.77D-03 DE=-6.58D-07 OVMax= 6.62D-04

 Cycle   6  Pass 1  IDiag  1:
 E= -61.8509308021352     Delta-E=       -0.000000121451 Rises=F Damp=F
 DIIS: error= 2.21D-05 at cycle   6 NSaved=   6.
 NSaved= 6 IEnMin= 6 EnMin= -61.8509308021352     IErMin= 6 ErrMin= 2.21D-05
 ErrMax= 2.21D-05  0.00D+00 EMaxC= 1.00D-01 BMatC= 7.10D-08 BMatP= 2.52D-07
 IDIUse=1 WtCom= 1.00D+00 WtEn= 0.00D+00
 Coeff-Com:  0.669D+00-0.765D+00 0.106D+00-0.121D-02 0.935D-01 0.897D+00
 Coeff:      0.669D+00-0.765D+00 0.106D+00-0.121D-02 0.935D-01 0.897D+00
 Gap=     0.080 Goal=   None    Shift=    0.000
 RMSDP=3.59D-06 MaxDP=4.53D-04 DE=-1.21D-07 OVMax= 1.35D-04

 Cycle   7  Pass 1  IDiag  1:
 E= -61.8509308394032     Delta-E=       -0.000000037268 Rises=F Damp=F
 DIIS: error= 1.89D-05 at cycle   7 NSaved=   7.
 NSaved= 7 IEnMin= 7 EnMin= -61.8509308394032     IErMin= 7 ErrMin= 1.89D-05
 ErrMax= 1.89D-05  0.00D+00 EMaxC= 1.00D-01 BMatC= 5.04D-08 BMatP= 7.10D-08
 IDIUse=1 WtCom= 1.00D+00 WtEn= 0.00D+00
 Coeff-Com:  0.539D+00-0.615D+00 0.918D-01-0.930D-01-0.998D-01 0.404D-01
 Coeff-Com:  0.114D+01
 Coeff:      0.539D+00-0.615D+00 0.918D-01-0.930D-01-0.998D-01 0.404D-01
 Coeff:      0.114D+01
 Gap=     0.080 Goal=   None    Shift=    0.000
 RMSDP=5.71D-06 MaxDP=9.84D-04 DE=-3.73D-08 OVMax= 2.37D-04

 Cycle   8  Pass 1  IDiag  1:
 E= -61.8509309057171     Delta-E=       -0.000000066314 Rises=F Damp=F
 DIIS: error= 1.50D-05 at cycle   8 NSaved=   8.
 NSaved= 8 IEnMin= 8 EnMin= -61.8509309057171     IErMin= 8 ErrMin= 1.50D-05
 ErrMax= 1.50D-05  0.00D+00 EMaxC= 1.00D-01 BMatC= 2.91D-08 BMatP= 5.04D-08
 IDIUse=1 WtCom= 1.00D+00 WtEn= 0.00D+00
 Coeff-Com:  0.395D+00-0.451D+00 0.653D-01-0.740D-02-0.234D-01-0.272D+00
 Coeff-Com:  0.146D+00 0.115D+01
 Coeff:      0.395D+00-0.451D+00 0.653D-01-0.740D-02-0.234D-01-0.272D+00
 Coeff:      0.146D+00 0.115D+01
 Gap=     0.080 Goal=   None    Shift=    0.000
 RMSDP=5.76D-06 MaxDP=1.12D-03 DE=-6.63D-08 OVMax= 1.27D-04

 Cycle   9  Pass 1  IDiag  1:
 E= -61.8509309358402     Delta-E=       -0.000000030123 Rises=F Damp=F
 DIIS: error= 1.11D-05 at cycle   9 NSaved=   9.
 NSaved= 9 IEnMin= 9 EnMin= -61.8509309358402     IErMin= 9 ErrMin= 1.11D-05
 ErrMax= 1.11D-05  0.00D+00 EMaxC= 1.00D-01 BMatC= 1.64D-08 BMatP= 2.91D-08
 IDIUse=1 WtCom= 1.00D+00 WtEn= 0.00D+00
 Coeff-Com:  0.290D+00-0.332D+00 0.466D-01 0.123D-01 0.136D-01-0.607D-01
 Coeff-Com: -0.143D+00-0.361D-01 0.121D+01
 Coeff:      0.290D+00-0.332D+00 0.466D-01 0.123D-01 0.136D-01-0.607D-01
 Coeff:     -0.143D+00-0.361D-01 0.121D+01
 Gap=     0.080 Goal=   None    Shift=    0.000
 RMSDP=3.93D-06 MaxDP=6.85D-04 DE=-3.01D-08 OVMax= 1.24D-04

 Cycle  10  Pass 1  IDiag  1:
 E= -61.8509309571614     Delta-E=       -0.000000021321 Rises=F Damp=F
 DIIS: error= 8.10D-06 at cycle  10 NSaved=  10.
 NSaved=10 IEnMin=10 EnMin= -61.8509309571614     IErMin=10 ErrMin= 8.10D-06
 ErrMax= 8.10D-06  0.00D+00 EMaxC= 1.00D-01 BMatC= 8.50D-09 BMatP= 1.64D-08
 IDIUse=1 WtCom= 1.00D+00 WtEn= 0.00D+00
 Coeff-Com:  0.232D+00-0.266D+00 0.378D-01-0.355D-02-0.325D-03 0.204D-01
 Coeff-Com:  0.457D-01-0.318D+00 0.336D+00 0.915D+00
 Coeff:      0.232D+00-0.266D+00 0.378D-01-0.355D-02-0.325D-03 0.204D-01
 Coeff:      0.457D-01-0.318D+00 0.336D+00 0.915D+00
 Gap=     0.080 Goal=   None    Shift=    0.000
 RMSDP=2.10D-06 MaxDP=3.55D-04 DE=-2.13D-08 OVMax= 5.70D-05

 Cycle  11  Pass 1  IDiag  1:
 E= -61.8509309647748     Delta-E=       -0.000000007613 Rises=F Damp=F
 DIIS: error= 6.46D-06 at cycle  11 NSaved=  11.
 NSaved=11 IEnMin=11 EnMin= -61.8509309647748     IErMin=11 ErrMin= 6.46D-06
 ErrMax= 6.46D-06  0.00D+00 EMaxC= 1.00D-01 BMatC= 5.48D-09 BMatP= 8.50D-09
 IDIUse=1 WtCom= 1.00D+00 WtEn= 0.00D+00
 Coeff-Com:  0.166D+00-0.190D+00 0.271D-01-0.185D-02-0.153D-02-0.180D-01
 Coeff-Com:  0.377D-01-0.534D-01 0.223D+00-0.108D+01 0.189D+01
 Coeff:      0.166D+00-0.190D+00 0.271D-01-0.185D-02-0.153D-02-0.180D-01
 Coeff:      0.377D-01-0.534D-01 0.223D+00-0.108D+01 0.189D+01
 Gap=     0.080 Goal=   None    Shift=    0.000
 RMSDP=2.71D-06 MaxDP=5.43D-04 DE=-7.61D-09 OVMax= 6.74D-05

 Cycle  12  Pass 1  IDiag  1:
 E= -61.8509309716211     Delta-E=       -0.000000006846 Rises=F Damp=F
 DIIS: error= 4.70D-06 at cycle  12 NSaved=  12.
 NSaved=12 IEnMin=12 EnMin= -61.8509309716211     IErMin=12 ErrMin= 4.70D-06
 ErrMax= 4.70D-06  0.00D+00 EMaxC= 1.00D-01 BMatC= 2.80D-09 BMatP= 5.48D-09
 IDIUse=1 WtCom= 1.00D+00 WtEn= 0.00D+00
 Coeff-Com:  0.101D+00-0.116D+00 0.164D-01 0.245D-02 0.118D-02-0.409D-01
 Coeff-Com: -0.168D-01 0.110D+00 0.281D+00-0.158D+01 0.111D+01 0.113D+01
 Coeff:      0.101D+00-0.116D+00 0.164D-01 0.245D-02 0.118D-02-0.409D-01
 Coeff:     -0.168D-01 0.110D+00 0.281D+00-0.158D+01 0.111D+01 0.113D+01
 Gap=     0.080 Goal=   None    Shift=    0.000
 RMSDP=2.40D-06 MaxDP=4.01D-04 DE=-6.85D-09 OVMax= 6.62D-05

 Cycle  13  Pass 1  IDiag  1:
 E= -61.8509309761258     Delta-E=       -0.000000004505 Rises=F Damp=F
 DIIS: error= 2.81D-06 at cycle  13 NSaved=  13.
 NSaved=13 IEnMin=13 EnMin= -61.8509309761258     IErMin=13 ErrMin= 2.81D-06
 ErrMax= 2.81D-06  0.00D+00 EMaxC= 1.00D-01 BMatC= 1.03D-09 BMatP= 2.80D-09
 IDIUse=1 WtCom= 1.00D+00 WtEn= 0.00D+00
 Coeff-Com:  0.231D-01-0.264D-01 0.369D-02 0.188D-02 0.177D-02-0.112D-01
 Coeff-Com: -0.228D-01 0.260D-01 0.128D+00-0.151D+00-0.488D+00-0.186D+00
 Coeff-Com:  0.170D+01
 Coeff:      0.231D-01-0.264D-01 0.369D-02 0.188D-02 0.177D-02-0.112D-01
 Coeff:     -0.228D-01 0.260D-01 0.128D+00-0.151D+00-0.488D+00-0.186D+00
 Coeff:      0.170D+01
 Gap=     0.080 Goal=   None    Shift=    0.000
 RMSDP=2.96D-06 MaxDP=5.41D-04 DE=-4.50D-09 OVMax= 7.83D-05

 Cycle  14  Pass 1  IDiag  1:
 E= -61.8509309786108     Delta-E=       -0.000000002485 Rises=F Damp=F
 DIIS: error= 6.48D-07 at cycle  14 NSaved=  14.
 NSaved=14 IEnMin=14 EnMin= -61.8509309786108     IErMin=14 ErrMin= 6.48D-07
 ErrMax= 6.48D-07  0.00D+00 EMaxC= 1.00D-01 BMatC= 5.42D-11 BMatP= 1.03D-09
 IDIUse=1 WtCom= 1.00D+00 WtEn= 0.00D+00
 Large coefficients: NSaved= 14 BigCof=    0.00 CofMax=   10.00 Det=-4.11D-14
 Inversion failed.  Reducing to 13 matrices.
 Coeff-Com:  0.684D-10-0.434D-05 0.155D-04 0.194D-03 0.251D-02-0.146D-02
 Coeff-Com: -0.135D-01 0.376D-02 0.161D+00-0.199D+00-0.216D+00 0.140D+00
 Coeff-Com:  0.112D+01
 Coeff:      0.684D-10-0.434D-05 0.155D-04 0.194D-03 0.251D-02-0.146D-02
 Coeff:     -0.135D-01 0.376D-02 0.161D+00-0.199D+00-0.216D+00 0.140D+00
 Coeff:      0.112D+01
 Gap=     0.080 Goal=   None    Shift=    0.000
 RMSDP=8.64D-07 MaxDP=1.54D-04 DE=-2.49D-09 OVMax= 2.33D-05

 Cycle  15  Pass 1  IDiag  1:
 E= -61.8509309787495     Delta-E=       -0.000000000139 Rises=F Damp=F
 DIIS: error= 6.16D-09 at cycle  15 NSaved=  14.
 NSaved=14 IEnMin=14 EnMin= -61.8509309787495     IErMin=14 ErrMin= 6.16D-09
 ErrMax= 6.16D-09  0.00D+00 EMaxC= 1.00D-01 BMatC= 9.64D-15 BMatP= 5.42D-11
 IDIUse=1 WtCom= 1.00D+00 WtEn= 0.00D+00
 Coeff-Com:  0.129D-10 0.797D-05-0.246D-03-0.220D-03 0.152D-02 0.284D-02
 Coeff-Com: -0.586D-02-0.102D-01 0.309D-01 0.590D-01-0.631D-02-0.257D+00
 Coeff-Com:  0.381D+00 0.805D+00
 Coeff:      0.129D-10 0.797D-05-0.246D-03-0.220D-03 0.152D-02 0.284D-02
 Coeff:     -0.586D-02-0.102D-01 0.309D-01 0.590D-01-0.631D-02-0.257D+00
 Coeff:      0.381D+00 0.805D+00
 Gap=     0.080 Goal=   None    Shift=    0.000
 RMSDP=1.02D-08 MaxDP=2.15D-06 DE=-1.39D-10 OVMax= 5.48D-07

 Cycle  16  Pass 1  IDiag  1:
 E= -61.8509309787490     Delta-E=        0.000000000000 Rises=F Damp=F
 DIIS: error= 1.73D-09 at cycle  16 NSaved=  15.
 NSaved=15 IEnMin=14 EnMin= -61.8509309787495     IErMin=15 ErrMin= 1.73D-09
 ErrMax= 1.73D-09  0.00D+00 EMaxC= 1.00D-01 BMatC= 4.59D-16 BMatP= 9.64D-15
 IDIUse=1 WtCom= 1.00D+00 WtEn= 0.00D+00
 Coeff-Com: -0.262D-10-0.308D-06 0.257D-04-0.815D-05-0.334D-03-0.294D-03
 Coeff-Com:  0.189D-02 0.785D-03-0.162D-01 0.108D-01 0.189D-01 0.146D-01
 Coeff-Com: -0.144D+00-0.893D-01 0.120D+01
 Coeff:     -0.262D-10-0.308D-06 0.257D-04-0.815D-05-0.334D-03-0.294D-03
 Coeff:      0.189D-02 0.785D-03-0.162D-01 0.108D-01 0.189D-01 0.146D-01
 Coeff:     -0.144D+00-0.893D-01 0.120D+01
 Gap=     0.080 Goal=   None    Shift=    0.000
 RMSDP=8.43D-10 MaxDP=1.29D-07 DE= 4.83D-13 OVMax= 8.30D-08

 SCF Done:  E(ROHF) =  -61.8509309787     A.U. after   16 cycles
            NFock= 16  Conv=0.84D-09     -V/T= 3.0221
 <Sx>= 0.0000 <Sy>= 0.0000 <Sz>= 0.5000 <S**2>= 0.7500 S= 0.5000
 <L.S>=  0.00000000000    
 KE= 3.058723364555D+01 PE=-1.806966875194D+02 EE= 6.497472561459D+01
 Annihilation of the first spin contaminant:
 S**2 before annihilation     0.7500,   after     0.7500
 Leave Link  502 at Wed Feb 21 01:14:11 2018, MaxMem= 10737418240 cpu:            2247.4 elap:              84.6
 (Enter /home1/apps/gaussian/16rA.03/g16/l801.exe)
 Windowed orbitals will be sorted by symmetry type.
 GenMOA:  NOpAll=  4 NOp2=4 NOpUse=  4 JSym2X=1
 FoFJK:  IHMeth= 1 ICntrl=       0 DoSepK=F KAlg= 0 I1Cent=           0 FoldK=F
 IRaf=         0 NMat=       1 IRICut=       1 DoRegI=T DoRafI=F ISym2E= 1 IDoP0=0 IntGTp=1.
 FoFCou: FMM=F IPFlag=           8 FMFlag=      100000 FMFlg1=           0
         NFxFlg=           0 DoJE=F BraDBF=F KetDBF=F FulRan=T
         wScrn=  0.000000 ICntrl=         0 IOpCl=  1 I1Cent=           0 NGrid=           0
         NMat0=    1 NMatS0=      1 NMatT0=    0 NMatD0=    1 NMtDS0=    0 NMtDT0=    0
 Petite list used in FoFCou.
 <Sx>= 0.0000 <Sy>= 0.0000 <Sz>= 0.5000 <S**2>= 0.7500 S= 0.5000
 Range of M.O.s used for correlation:     1   383
 NBasis=   384 NAE=     9 NBE=     8 NFC=     0 NFV=     0
 NROrb=    383 NOA=     9 NOB=     8 NVA=   374 NVB=   375

 **** Warning!!: The largest alpha MO coefficient is  0.31730167D+03


 **** Warning!!: The largest beta MO coefficient is  0.31730029D+03

 Singles contribution to E2=   -0.1655036211D-03
 Leave Link  801 at Wed Feb 21 01:14:32 2018, MaxMem= 10737418240 cpu:             672.2 elap:              21.1
 (Enter /home1/apps/gaussian/16rA.03/g16/l804.exe)
 Open-shell transformation, MDV= 10737418240 ITran=4 ISComp=2.
 Unit  1 TFree=       4459634 TCopy=       3230129.
 Semi-Direct transformation.
 ModeAB=           4 MOrb=             9 LenV=   10733047346
 LASXX=     63702177 LTotXX=    63702177 LenRXX=   128059521
 LTotAB=    64357344 MaxLAS=   423370881 LenRXY=           0
 NonZer=   191761698 LenScr=   288771072 LnRSAI=   423370881
 LnScr1=   637547520 LExtra=    17918674 Total=   1495667668
 MaxDsk= 67108864000 SrtSym=           T ITran=            4
 DoSDTr:  NPSUse= 32
 JobTyp=1 Pass  1:  I=   1 to   9.
 (rs|ai) integrals will be sorted in core.
 Complete sort for first half transformation.
 First half transformation complete.
 Complete sort for second half transformation.
 Second half transformation complete.
 ModeAB=           4 MOrb=             8 LenV=   10733047346
 LASXX=     56573606 LTotXX=    56573606 LenRXX=   111007430
 LTotAB=    54433824 MaxLAS=   376329672 LenRXY=           0
 NonZer=   167581036 LenScr=   252357632 LnRSAI=   376329672
 LnScr1=   566708224 LExtra=   145978195 Total=   1452381153
 MaxDsk= 67108864000 SrtSym=           T ITran=            4
 DoSDTr:  NPSUse= 32
 JobTyp=2 Pass  1:  I=   1 to   8.
 (rs|ai) integrals will be sorted in core.
 Complete sort for first half transformation.
 First half transformation complete.
 Complete sort for second half transformation.
 Second half transformation complete.
 Spin components of T(2) and E(2):
     alpha-alpha T2 =       0.2825362555D-01 E2=     -0.9816372961D-01
     alpha-beta  T2 =       0.1202774195D+00 E2=     -0.5171516988D+00
     beta-beta   T2 =       0.2423049443D-01 E2=     -0.8954088015D-01
 ANorm=    0.1083010164D+01
 E2 =    -0.7050218122D+00 EUMP2 =    -0.62555952790928D+02
 (S**2,0)=  0.75000D+00           (S**2,1)=  0.75000D+00
 E(PUHF)=      -0.61850930979D+02        E(PMP2)=      -0.62555952791D+02
 Recovering and transforming amplitudes from chk file.
 B after Tr=     0.000000    0.000000    0.000000
         Rot=    1.000000    0.000000    0.000000    0.000000 Ang=   0.00 deg.
 Alpha occ  Sing. vals= 9.999981D-01 9.999970D-01 9.999970D-01 9.999968D-01 9.999963D-01 9.999945D-01 9.999738D-01 9.999692D-01 9.999692D-01
 Alpha occ  NOrbO=     9 NOrbN=     9 NSVal=     9 ThrEig=  0.900000.
 TrMax= 1.000000D+00 PrMax= 1.000000D+00 Trace(Pr)= 9.000000D+00
 B after Tr=     0.000000    0.000000    0.000000
         Rot=    1.000000    0.000000    0.000000    0.000000 Ang=   0.00 deg.
 Alpha virt Sing. vals= 1.000000D+00 1.000000D+00 1.000000D+00 1.000000D+00 1.000000D+00 1.000000D+00 1.000000D+00 1.000000D+00 1.000000D+00 1.000000D+00
 Alpha virt Sing. vals= 1.000000D+00 1.000000D+00 1.000000D+00 1.000000D+00 1.000000D+00 1.000000D+00 1.000000D+00 1.000000D+00 1.000000D+00 1.000000D+00
 Alpha virt Sing. vals= 1.000000D+00 1.000000D+00 1.000000D+00 1.000000D+00 1.000000D+00 1.000000D+00 1.000000D+00 1.000000D+00 1.000000D+00 1.000000D+00
 Alpha virt Sing. vals= 1.000000D+00 1.000000D+00 1.000000D+00 1.000000D+00 9.999999D-01 9.999999D-01 9.999999D-01 9.999999D-01 9.999999D-01 9.999999D-01
 Alpha virt Sing. vals= 9.999999D-01 9.999999D-01 9.999999D-01 9.999997D-01 9.999997D-01 9.999997D-01 9.999996D-01 9.999994D-01 9.999991D-01 9.999991D-01
 Alpha virt Sing. vals= 9.999991D-01 9.999990D-01 9.999990D-01 9.999990D-01 9.999990D-01 9.999978D-01 9.999976D-01 9.999976D-01 9.999974D-01 9.999967D-01
 Alpha virt Sing. vals= 9.999967D-01 9.999958D-01 9.999950D-01 9.999950D-01 9.999949D-01 9.999931D-01 9.999922D-01 9.999922D-01 9.999918D-01 9.999918D-01
 Alpha virt Sing. vals= 9.999916D-01 9.999905D-01 9.999905D-01 9.999888D-01 9.999883D-01 9.999877D-01 9.999877D-01 9.999860D-01 9.999856D-01 9.999856D-01
 Alpha virt Sing. vals= 9.999811D-01 9.999798D-01 9.999677D-01 9.999677D-01 9.999626D-01 9.999616D-01 9.999616D-01 9.999582D-01 9.999412D-01 9.999412D-01
 Alpha virt Sing. vals= 9.999392D-01 9.999280D-01 9.999221D-01 9.998960D-01 9.998896D-01 9.998896D-01 9.998846D-01 9.998846D-01 9.998355D-01 9.998237D-01
 Alpha virt Sing. vals= 9.998235D-01 9.998235D-01 9.997856D-01 9.997856D-01 9.997792D-01 9.997792D-01 9.997729D-01 9.997408D-01 9.997407D-01 9.997407D-01
 Alpha virt Sing. vals= 9.997367D-01 9.996471D-01 9.996471D-01 9.996018D-01 9.995818D-01 9.995473D-01 9.995473D-01 9.995255D-01 9.995058D-01 9.995058D-01
 Alpha virt Sing. vals= 9.993898D-01 9.993020D-01 9.993020D-01 9.992754D-01 9.992727D-01 9.992727D-01 9.991434D-01 9.991434D-01 9.991095D-01 9.991095D-01
 Alpha virt Sing. vals= 9.990494D-01 9.990494D-01 9.988478D-01 9.987989D-01 9.987989D-01 9.987830D-01 9.987756D-01 9.987756D-01 9.986720D-01 9.986720D-01
 Alpha virt Sing. vals= 9.984163D-01 9.983730D-01 9.983730D-01 9.982160D-01 9.982160D-01 9.981657D-01 9.981119D-01 9.981119D-01 9.980158D-01 9.980158D-01
 Alpha virt Sing. vals= 9.979161D-01 9.976838D-01 9.976838D-01 9.975194D-01 9.971880D-01 9.971880D-01 9.971633D-01 9.969396D-01 9.969396D-01 9.965029D-01
 Alpha virt Sing. vals= 9.962987D-01 9.955197D-01 9.950403D-01 9.950403D-01 9.949268D-01 9.949268D-01 9.947383D-01 9.947380D-01 9.947380D-01 9.946529D-01
 Alpha virt Sing. vals= 9.946529D-01 9.944507D-01 9.944507D-01 9.940353D-01 9.934675D-01 9.928836D-01 9.928836D-01 9.926660D-01 9.926660D-01 9.923410D-01
 Alpha virt Sing. vals= 9.923410D-01 9.918287D-01 9.918287D-01 9.910258D-01 9.894361D-01 9.894361D-01 9.884783D-01 9.860271D-01 9.860271D-01 9.853087D-01
 Alpha virt Sing. vals= 9.853087D-01 9.838716D-01 9.830893D-01 9.814258D-01 9.814258D-01 9.800730D-01 9.784902D-01 9.784902D-01 9.776741D-01 9.776741D-01
 Alpha virt Sing. vals= 9.776073D-01 9.776073D-01 9.771871D-01 9.771871D-01 9.767872D-01 9.767872D-01 9.767732D-01 9.767732D-01 9.752007D-01 9.744818D-01
 Alpha virt Sing. vals= 9.744818D-01 9.630336D-01 9.573327D-01 9.573327D-01 9.566390D-01 9.566390D-01 9.543747D-01 9.430293D-01 9.362759D-01 9.362759D-01
 Alpha virt Sing. vals= 9.358021D-01 9.358021D-01 9.350951D-01 9.350577D-01 9.350577D-01 9.341273D-01 9.341273D-01 9.306889D-01 9.195597D-01 9.195597D-01
 Alpha virt Sing. vals= 9.126151D-01 9.126151D-01 9.122968D-01 9.108979D-01 9.108979D-01 9.042113D-01 9.031249D-01 9.031249D-01 8.939563D-01 8.939563D-01
 Alpha virt Sing. vals= 8.934398D-01 8.934398D-01 8.928739D-01 8.916606D-01 8.916606D-01 8.852289D-01 8.852289D-01 8.531565D-01 5.392817D-01
 Alpha virt NOrbO=   249 NOrbN=   374 NSVal=   238 ThrEig=  0.900000.
 TrMax= 9.988334D-01 PrMax= 9.995440D-01 Trace(Pr)= 2.380000D+02
 B after Tr=     0.000000    0.000000    0.000000
         Rot=    1.000000    0.000000    0.000000    0.000000 Ang=   0.00 deg.
 Beta  occ  Sing. vals= 9.999978D-01 9.999970D-01 9.999970D-01 9.999966D-01 9.999949D-01 9.999738D-01 9.999692D-01 9.999692D-01
 Beta  occ  NOrbO=     8 NOrbN=     8 NSVal=     8 ThrEig=  0.900000.
 TrMax= 1.000000D+00 PrMax= 1.000000D+00 Trace(Pr)= 8.000000D+00
 B after Tr=     0.000000    0.000000    0.000000
         Rot=    1.000000    0.000000    0.000000    0.000000 Ang=   0.00 deg.
 Beta  virt Sing. vals= 1.000000D+00 1.000000D+00 1.000000D+00 1.000000D+00 1.000000D+00 1.000000D+00 1.000000D+00 1.000000D+00 1.000000D+00 1.000000D+00
 Beta  virt Sing. vals= 1.000000D+00 1.000000D+00 1.000000D+00 1.000000D+00 1.000000D+00 1.000000D+00 1.000000D+00 1.000000D+00 1.000000D+00 1.000000D+00
 Beta  virt Sing. vals= 1.000000D+00 1.000000D+00 1.000000D+00 1.000000D+00 1.000000D+00 1.000000D+00 1.000000D+00 1.000000D+00 1.000000D+00 1.000000D+00
 Beta  virt Sing. vals= 1.000000D+00 1.000000D+00 1.000000D+00 1.000000D+00 1.000000D+00 9.999999D-01 9.999999D-01 9.999999D-01 9.999999D-01 9.999999D-01
 Beta  virt Sing. vals= 9.999999D-01 9.999999D-01 9.999999D-01 9.999999D-01 9.999997D-01 9.999997D-01 9.999997D-01 9.999996D-01 9.999994D-01 9.999991D-01
 Beta  virt Sing. vals= 9.999991D-01 9.999991D-01 9.999990D-01 9.999990D-01 9.999990D-01 9.999990D-01 9.999978D-01 9.999976D-01 9.999976D-01 9.999974D-01
 Beta  virt Sing. vals= 9.999967D-01 9.999967D-01 9.999958D-01 9.999950D-01 9.999950D-01 9.999949D-01 9.999931D-01 9.999922D-01 9.999922D-01 9.999918D-01
 Beta  virt Sing. vals= 9.999918D-01 9.999916D-01 9.999905D-01 9.999905D-01 9.999888D-01 9.999883D-01 9.999877D-01 9.999877D-01 9.999860D-01 9.999856D-01
 Beta  virt Sing. vals= 9.999856D-01 9.999811D-01 9.999798D-01 9.999677D-01 9.999677D-01 9.999626D-01 9.999616D-01 9.999616D-01 9.999582D-01 9.999412D-01
 Beta  virt Sing. vals= 9.999412D-01 9.999391D-01 9.999280D-01 9.999221D-01 9.998960D-01 9.998896D-01 9.998896D-01 9.998846D-01 9.998846D-01 9.998353D-01
 Beta  virt Sing. vals= 9.998237D-01 9.998235D-01 9.998235D-01 9.997856D-01 9.997856D-01 9.997792D-01 9.997792D-01 9.997729D-01 9.997408D-01 9.997407D-01
 Beta  virt Sing. vals= 9.997407D-01 9.997365D-01 9.996471D-01 9.996471D-01 9.996018D-01 9.995818D-01 9.995473D-01 9.995473D-01 9.995255D-01 9.995058D-01
 Beta  virt Sing. vals= 9.995058D-01 9.993898D-01 9.993020D-01 9.993020D-01 9.992754D-01 9.992727D-01 9.992727D-01 9.991434D-01 9.991434D-01 9.991095D-01
 Beta  virt Sing. vals= 9.991095D-01 9.990494D-01 9.990494D-01 9.988478D-01 9.987989D-01 9.987989D-01 9.987830D-01 9.987756D-01 9.987756D-01 9.986720D-01
 Beta  virt Sing. vals= 9.986720D-01 9.984163D-01 9.983730D-01 9.983730D-01 9.982160D-01 9.982160D-01 9.981657D-01 9.981119D-01 9.981119D-01 9.980158D-01
 Beta  virt Sing. vals= 9.980158D-01 9.979160D-01 9.976838D-01 9.976838D-01 9.975193D-01 9.971880D-01 9.971880D-01 9.971633D-01 9.969396D-01 9.969396D-01
 Beta  virt Sing. vals= 9.965029D-01 9.962987D-01 9.955197D-01 9.950403D-01 9.950403D-01 9.949268D-01 9.949268D-01 9.947383D-01 9.947380D-01 9.947380D-01
 Beta  virt Sing. vals= 9.946529D-01 9.946529D-01 9.944507D-01 9.944507D-01 9.940352D-01 9.934675D-01 9.928836D-01 9.928836D-01 9.926660D-01 9.926660D-01
 Beta  virt Sing. vals= 9.923410D-01 9.923410D-01 9.918287D-01 9.918287D-01 9.910257D-01 9.894361D-01 9.894361D-01 9.884783D-01 9.860271D-01 9.860271D-01
 Beta  virt Sing. vals= 9.853087D-01 9.853087D-01 9.838716D-01 9.830891D-01 9.814258D-01 9.814258D-01 9.800730D-01 9.784902D-01 9.784902D-01 9.776741D-01
 Beta  virt Sing. vals= 9.776741D-01 9.776073D-01 9.776073D-01 9.771871D-01 9.771871D-01 9.767872D-01 9.767872D-01 9.767732D-01 9.767732D-01 9.752007D-01
 Beta  virt Sing. vals= 9.744818D-01 9.744818D-01 9.630334D-01 9.573327D-01 9.573327D-01 9.566390D-01 9.566390D-01 9.543748D-01 9.430293D-01 9.362759D-01
 Beta  virt Sing. vals= 9.362759D-01 9.358021D-01 9.358021D-01 9.350951D-01 9.350577D-01 9.350577D-01 9.341273D-01 9.341273D-01 9.306889D-01 9.195597D-01
 Beta  virt Sing. vals= 9.195597D-01 9.126151D-01 9.126151D-01 9.122968D-01 9.108979D-01 9.108979D-01 9.042112D-01 9.031249D-01 9.031249D-01 8.939563D-01
 Beta  virt Sing. vals= 8.939563D-01 8.934398D-01 8.934398D-01 8.928739D-01 8.916606D-01 8.916606D-01 8.852289D-01 8.852289D-01 8.531565D-01 5.392817D-01
 Beta  virt NOrbO=   250 NOrbN=   375 NSVal=   239 ThrEig=  0.900000.
 TrMax= 9.997488D-01 PrMax= 9.999297D-01 Trace(Pr)= 2.390000D+02
 Leave Link  804 at Wed Feb 21 01:25:47 2018, MaxMem= 10737418240 cpu:           21568.9 elap:             674.6
 (Enter /home1/apps/gaussian/16rA.03/g16/l913.exe)
 CIDS:  MDV= 10737418240.
 IFCWin=0 IBDFC=1 NFBD=     0     0 NFCmp=     0     0 NFFFC=     0     0
 Amplitudes recovered.
 Using DD4UQ or CC4UQ for all iterations.
 Keep R2 and R3 ints in memory in symmetry-blocked form, NReq=3425131966.
 FoFCou: FMM=F IPFlag=           8 FMFlag=           0 FMFlg1=           0
         NFxFlg=           0 DoJE=F BraDBF=F KetDBF=F FulRan=T
         wScrn=  0.000000 ICntrl=       600 IOpCl=  0 I1Cent=           0 NGrid=           0
         NMat0=    1 NMatS0=  73920 NMatT0=    0 NMatD0=    1 NMtDS0=    0 NMtDT0=    0
 Petite list used in FoFCou.
 CIDS: In Core Option IDoMem=           1.
 CCSD(T)
 =======
 Iterations= 150 Convergence= 0.100D-06
 Produce multiple copies of IABC intergrals
 Iteration Nr.   1
 **********************
 DD1Dir will call FoFMem   1 times, MxPair=       208
 NAB=    72 NAA=    36 NBB=    28.
 Maximum subspace dimension=  5
 A-vector RMS=  1.2494760D-04 Max=  1.1767084D-03 conv= 1.00D-05.
 RLE energy=       -0.6924692931
 DE(Corr)= -0.69228795     E(Corr)=     -62.543218930    
 NORM(A)=   0.10897727D+01
 Iteration Nr.   2
 **********************
 DD1Dir will call FoFMem   1 times, MxPair=       208
 NAB=    72 NAA=    36 NBB=    28.
 A-vector RMS=  6.9977189D-05 Max=  5.6593072D-04 conv= 1.00D-05.
 RLE energy=       -0.6923661831
 DE(Corr)= -0.69237419     E(CORR)=     -62.543305168     Delta=-8.62D-05
 NORM(A)=   0.10900110D+01
 Iteration Nr.   3
 **********************
 DD1Dir will call FoFMem   1 times, MxPair=       208
 NAB=    72 NAA=    36 NBB=    28.
 A-vector RMS=  3.3444786D-05 Max=  3.5534904D-04 conv= 1.00D-05.
 RLE energy=       -0.6928023632
 DE(Corr)= -0.69286036     E(CORR)=     -62.543791337     Delta=-4.86D-04
 NORM(A)=   0.10901273D+01
 Iteration Nr.   4
 **********************
 DD1Dir will call FoFMem   1 times, MxPair=       208
 NAB=    72 NAA=    36 NBB=    28.
 A-vector RMS=  2.5244482D-05 Max=  2.1543599D-04 conv= 1.00D-05.
 RLE energy=       -0.6927247475
 DE(Corr)= -0.69264682     E(CORR)=     -62.543577800     Delta= 2.14D-04
 NORM(A)=   0.10902096D+01
 Iteration Nr.   5
 **********************
 DD1Dir will call FoFMem   1 times, MxPair=       208
 NAB=    72 NAA=    36 NBB=    28.
 A-vector RMS=  6.9675936D-06 Max=  1.6698722D-04 conv= 1.00D-05.
 RLE energy=       -0.6927357464
 DE(Corr)= -0.69274384     E(CORR)=     -62.543674817     Delta=-9.70D-05
 NORM(A)=   0.10902644D+01
 Iteration Nr.   6
 **********************
 DD1Dir will call FoFMem   1 times, MxPair=       208
 NAB=    72 NAA=    36 NBB=    28.
 A-vector RMS=  3.9485630D-06 Max=  7.7196909D-05 conv= 1.00D-05.
 RLE energy=       -0.6927381094
 DE(Corr)= -0.69273630     E(CORR)=     -62.543667276     Delta= 7.54D-06
 NORM(A)=   0.10902971D+01
 Iteration Nr.   7
 **********************
 DD1Dir will call FoFMem   1 times, MxPair=       208
 NAB=    72 NAA=    36 NBB=    28.
 A-vector RMS=  1.4613300D-06 Max=  3.6052894D-05 conv= 1.00D-05.
 RLE energy=       -0.6927427555
 DE(Corr)= -0.69274209     E(CORR)=     -62.543673065     Delta=-5.79D-06
 NORM(A)=   0.10903078D+01
 Iteration Nr.   8
 **********************
 DD1Dir will call FoFMem   1 times, MxPair=       208
 NAB=    72 NAA=    36 NBB=    28.
 A-vector RMS=  6.3627630D-07 Max=  1.5302575D-05 conv= 1.00D-05.
 RLE energy=       -0.6927410165
 DE(Corr)= -0.69274129     E(CORR)=     -62.543672267     Delta= 7.98D-07
 NORM(A)=   0.10903117D+01
 Iteration Nr.   9
 **********************
 DD1Dir will call FoFMem   1 times, MxPair=       208
 NAB=    72 NAA=    36 NBB=    28.
 A-vector RMS=  2.8984339D-07 Max=  5.1775328D-06 conv= 1.00D-05.
 RLE energy=       -0.6927426042
 DE(Corr)= -0.69274261     E(CORR)=     -62.543673588     Delta=-1.32D-06
 NORM(A)=   0.10903134D+01
 Iteration Nr.  10
 **********************
 DD1Dir will call FoFMem   1 times, MxPair=       208
 NAB=    72 NAA=    36 NBB=    28.
 A-vector RMS=  1.2139948D-07 Max=  1.9084984D-06 conv= 1.00D-05.
 RLE energy=       -0.6927422151
 DE(Corr)= -0.69274216     E(CORR)=     -62.543673141     Delta= 4.46D-07
 NORM(A)=   0.10903139D+01
 Iteration Nr.  11
 **********************
 DD1Dir will call FoFMem   1 times, MxPair=       208
 NAB=    72 NAA=    36 NBB=    28.
 A-vector RMS=  6.9639122D-08 Max=  8.8790170D-07 conv= 1.00D-05.
 RLE energy=       -0.6927424767
 DE(Corr)= -0.69274250     E(CORR)=     -62.543673481     Delta=-3.40D-07
 NORM(A)=   0.10903141D+01
 Iteration Nr.  12
 **********************
 DD1Dir will call FoFMem   1 times, MxPair=       208
 NAB=    72 NAA=    36 NBB=    28.
 A-vector RMS=  3.3051610D-08 Max=  3.4378894D-07 conv= 1.00D-05.
 RLE energy=       -0.6927423744
 DE(Corr)= -0.69274234     E(CORR)=     -62.543673322     Delta= 1.59D-07
 NORM(A)=   0.10903142D+01
 Iteration Nr.  13
 **********************
 DD1Dir will call FoFMem   1 times, MxPair=       208
 NAB=    72 NAA=    36 NBB=    28.
 A-vector RMS=  1.5904627D-08 Max=  2.7654920D-07 conv= 1.00D-05.
 RLE energy=       -0.6927424513
 DE(Corr)= -0.69274246     E(CORR)=     -62.543673440     Delta=-1.18D-07
 NORM(A)=   0.10903142D+01
 Iteration Nr.  14
 **********************
 DD1Dir will call FoFMem   1 times, MxPair=       208
 NAB=    72 NAA=    36 NBB=    28.
 A-vector RMS=  1.0659185D-08 Max=  1.5563860D-07 conv= 1.00D-05.
 RLE energy=       -0.6927424222
 DE(Corr)= -0.69274241     E(CORR)=     -62.543673388     Delta= 5.18D-08
 NORM(A)=   0.10903143D+01
 CI/CC converged in   14 iterations to DelEn= 5.18D-08 Conv= 1.00D-07 ErrA1= 1.07D-08 Conv= 1.00D-05
 Wavefunction amplitudes converged. E(Corr)=     -62.543673388    
 Largest amplitude= 6.73D-02
 Time for triples=    77463.76 seconds.
 T4(CCSD)= -0.41623157D-01
 T5(CCSD)=  0.49362956D-02
 CCSD(T)= -0.62580360250D+02
 Discarding MO integrals.
 Leave Link  913 at Wed Feb 21 02:16:25 2018, MaxMem= 10737418240 cpu:           97151.7 elap:            3038.0
 (Enter /home1/apps/gaussian/16rA.03/g16/l601.exe)
 Copying SCF densities to generalized density rwf, IOpCl= 0 IROHF=1.

 **********************************************************************

            Population analysis using the SCF density.

 **********************************************************************

 Orbital symmetries:
       Occupied  (SG) (SG) (PI) (PI) (SG) (PI) (PI) (SG) (SG)
       Virtual   (PI) (PI) (SG) (SG) (DLTA) (DLTA) (PI) (PI) (SG)
                 (PI) (PI) (SG) (DLTA) (DLTA) (SG) (PI) (PI) (SG)
                 (PI) (PI) (SG) (PHI) (PHI) (DLTA) (DLTA) (PI)
                 (PI) (DLTA) (DLTA) (SG) (SG) (PI) (PI) (PI) (PI)
                 (SG) (DLTA) (DLTA) (PI) (PI) (SG) (SG) (DLTA)
                 (DLTA) (PI) (PI) (?A) (?A) (PHI) (PHI) (SG) (DLTA)
                 (DLTA) (PHI) (PHI) (SG) (PI) (PI) (SG) (PI) (PI)
                 (PI) (PI) (DLTA) (DLTA) (SG) (DLTA) (DLTA) (?B)
                 (?B) (PHI) (PHI) (SG) (PI) (PI) (?A) (?A) (SG)
                 (PI) (PI) (DLTA) (DLTA) (SG) (SG) (PI) (PI) (SG)
                 (PI) (PI) (?A) (?A) (PHI) (PHI) (DLTA) (DLTA)
                 (SG) (PI) (PI) (PHI) (PHI) (DLTA) (DLTA) (SG)
                 (PI) (PI) (DLTA) (DLTA) (PI) (PI) (SG) (PHI) (PHI)
                 (SG) (DLTA) (DLTA) (PI) (PI) (SG) (DLTA) (DLTA)
                 (SG) (SG) (PI) (PI) (PI) (PI) (SG) (?A) (?A) (?B)
                 (?B) (DLTA) (DLTA) (PHI) (PHI) (PI) (PI) (SG)
                 (DLTA) (DLTA) (PI) (PI) (SG) (PI) (PI) (DLTA)
                 (DLTA) (PHI) (PHI) (PI) (PI) (?A) (?A) (SG) (PHI)
                 (PHI) (SG) (?A) (?A) (DLTA) (DLTA) (SG) (PHI)
                 (PHI) (PI) (PI) (DLTA) (DLTA) (PHI) (PHI) (DLTA)
                 (DLTA) (SG) (PI) (PI) (SG) (SG) (PI) (PI) (DLTA)
                 (DLTA) (SG) (DLTA) (DLTA) (PI) (PI) (SG) (PI)
                 (PI) (PI) (PI) (SG) (SG) (PI) (PI) (PHI) (PHI)
                 (DLTA) (DLTA) (SG) (PI) (PI) (PI) (PI) (DLTA)
                 (DLTA) (SG) (?A) (?A) (PI) (PI) (SG) (PHI) (PHI)
                 (PI) (PI) (DLTA) (DLTA) (SG) (SG) (?B) (?B) (?A)
                 (?A) (PHI) (PHI) (DLTA) (DLTA) (?A) (?A) (PHI)
                 (PHI) (SG) (DLTA) (DLTA) (PI) (PI) (PHI) (PHI)
                 (SG) (PI) (PI) (DLTA) (DLTA) (SG) (DLTA) (DLTA)
                 (PI) (PI) (SG) (PI) (PI) (SG) (SG) (DLTA) (DLTA)
                 (PI) (PI) (SG) (PI) (PI) (SG) (SG) (PI) (PI) (SG)
                 (PI) (PI) (SG) (DLTA) (DLTA) (PI) (PI) (SG) (SG)
                 (SG) (DLTA) (DLTA) (PI) (PI) (SG) (PI) (PI) (SG)
                 (SG) (PI) (PI) (SG) (DLTA) (DLTA) (PI) (PI) (SG)
                 (SG) (PI) (PI) (SG) (PHI) (PHI) (DLTA) (DLTA)
                 (PI) (PI) (SG) (SG) (SG) (PI) (PI) (SG) (PI) (PI)
                 (SG) (DLTA) (DLTA) (PI) (PI) (SG) (DLTA) (DLTA)
                 (PI) (PI) (SG) (SG) (SG) (PI) (PI) (SG) (PI) (PI)
                 (SG) (SG) (SG) (SG) (DLTA) (DLTA) (PI) (PI) (SG)
                 (PI) (PI) (SG) (PI) (PI) (SG) (SG) (SG) (PI) (PI)
                 (SG) (SG) (SG) (PI) (PI) (SG) (SG) (SG) (PI) (PI)
                 (SG) (SG) (PI) (PI) (SG) (SG) (SG) (PI) (PI) (SG)
                 (SG) (SG) (SG) (SG) (SG) (SG)
 The electronic state is 2-SG.
 Alpha  occ. eigenvalues --   -2.60940  -1.68678  -1.58099  -1.58099  -1.11493
 Alpha  occ. eigenvalues --   -0.48042  -0.48042  -0.45056  -0.22474
 Alpha virt. eigenvalues --    0.00589   0.00589   0.01786   0.02094   0.02764
 Alpha virt. eigenvalues --    0.02764   0.02991   0.02991   0.03105   0.03663
 Alpha virt. eigenvalues --    0.03663   0.05738   0.07622   0.07622   0.09249
 Alpha virt. eigenvalues --    0.09249   0.09271   0.10095   0.11357   0.11357
 Alpha virt. eigenvalues --    0.11477   0.12570   0.12570   0.13052   0.13052
 Alpha virt. eigenvalues --    0.13400   0.13400   0.13910   0.13910   0.14855
 Alpha virt. eigenvalues --    0.21314   0.23502   0.23502   0.25823   0.25823
 Alpha virt. eigenvalues --    0.27620   0.27855   0.27855   0.31022   0.31022
 Alpha virt. eigenvalues --    0.31385   0.33366   0.33805   0.33805   0.33939
 Alpha virt. eigenvalues --    0.33939   0.35744   0.35744   0.36443   0.36443
 Alpha virt. eigenvalues --    0.38835   0.44393   0.44393   0.44681   0.44681
 Alpha virt. eigenvalues --    0.45170   0.45490   0.45490   0.57204   0.59004
 Alpha virt. eigenvalues --    0.59004   0.62921   0.62921   0.63089   0.63089
 Alpha virt. eigenvalues --    0.65525   0.72685   0.72685   0.72781   0.72781
 Alpha virt. eigenvalues --    0.72808   0.72808   0.73195   0.73613   0.73613
 Alpha virt. eigenvalues --    0.73798   0.73798   0.76154   0.78576   0.78576
 Alpha virt. eigenvalues --    0.79206   0.79206   0.88332   1.04187   1.18407
 Alpha virt. eigenvalues --    1.18407   1.22516   1.22990   1.22990   1.26748
 Alpha virt. eigenvalues --    1.26748   1.26917   1.26917   1.26935   1.26935
 Alpha virt. eigenvalues --    1.34162   1.40319   1.40319   1.40335   1.40335
 Alpha virt. eigenvalues --    1.42678   1.42678   1.48510   1.49438   1.49438
 Alpha virt. eigenvalues --    1.50060   1.50060   1.59010   1.59010   1.64933
 Alpha virt. eigenvalues --    1.76765   1.76765   1.79644   1.80359   1.80359
 Alpha virt. eigenvalues --    2.04636   2.04636   2.07388   2.21735   2.21735
 Alpha virt. eigenvalues --    2.33921   2.51532   2.53257   2.53257   2.82217
 Alpha virt. eigenvalues --    2.82217   2.88175   2.91839   2.91839   2.91860
 Alpha virt. eigenvalues --    2.91860   3.02684   3.02684   3.04138   3.04138
 Alpha virt. eigenvalues --    3.04173   3.04173   3.08636   3.13228   3.13228
 Alpha virt. eigenvalues --    3.18963   3.18963   3.37502   3.39252   3.39252
 Alpha virt. eigenvalues --    3.77689   3.77689   3.80277   3.80277   3.82969
 Alpha virt. eigenvalues --    3.82969   3.83778   3.83778   3.90732   3.97798
 Alpha virt. eigenvalues --    3.97798   4.06266   4.21827   4.21827   4.21985
 Alpha virt. eigenvalues --    4.21985   4.25000   4.34362   4.34362   4.34721
 Alpha virt. eigenvalues --    4.34721   4.46144   4.46144   4.61746   4.61746
 Alpha virt. eigenvalues --    4.66200   4.66200   4.71826   4.88667   4.88667
 Alpha virt. eigenvalues --    4.98100   5.39887   5.54690   5.54690   5.70122
 Alpha virt. eigenvalues --    5.70122   5.78427   5.82775   5.82775   5.83130
 Alpha virt. eigenvalues --    5.83130   5.91105   5.96706   5.96706   6.37300
 Alpha virt. eigenvalues --    6.37300   6.85853   7.26689   9.83680   9.83680
 Alpha virt. eigenvalues --    9.84212   9.84212  10.02716  10.02716  10.19671
 Alpha virt. eigenvalues --   10.37406  10.37406  10.46037  10.46037  10.46245
 Alpha virt. eigenvalues --   10.46245  10.57025  10.73852  10.73852  10.75682
 Alpha virt. eigenvalues --   10.75682  10.81123  10.89922  10.89922  10.99014
 Alpha virt. eigenvalues --   10.99014  10.99457  10.99457  11.00893  11.25733
 Alpha virt. eigenvalues --   11.43240  11.43240  11.44888  11.44888  11.49262
 Alpha virt. eigenvalues --   11.49262  11.58746  11.58746  11.77158  11.77158
 Alpha virt. eigenvalues --   11.79930  11.79930  11.85166  11.93363  11.93363
 Alpha virt. eigenvalues --   12.02252  12.02252  12.07130  12.07130  12.27138
 Alpha virt. eigenvalues --   12.42708  12.42708  12.49913  12.49913  12.68237
 Alpha virt. eigenvalues --   12.87974  12.87974  13.08871  13.08871  13.61938
 Alpha virt. eigenvalues --   13.81686  13.81686  14.29276  15.93274  18.44297
 Alpha virt. eigenvalues --   18.44297  18.52128  18.52128  18.68499  19.07398
 Alpha virt. eigenvalues --   19.07398  19.50974  22.90241  28.33213  28.33213
 Alpha virt. eigenvalues --   29.21164  32.19614  32.19614  32.44211  33.27450
 Alpha virt. eigenvalues --   33.27450  33.33404  33.33404  33.59014  34.81444
 Alpha virt. eigenvalues --   41.19665  46.82604  46.82604  47.10963  47.10963
 Alpha virt. eigenvalues --   47.83323  54.31929  54.31929  54.58338  68.13095
 Alpha virt. eigenvalues --   69.74814  69.74814  70.60114  71.70093  71.70093
 Alpha virt. eigenvalues --   71.74513  71.74513  71.92162  76.28632  93.97837
 Alpha virt. eigenvalues --   93.97837  94.22522 102.99384 102.99384 103.01360
 Alpha virt. eigenvalues --  103.01360 103.06912 103.06912 103.10332 121.52967
 Alpha virt. eigenvalues --  145.09676 154.51543 154.51543 155.24198 169.25220
 Alpha virt. eigenvalues --  169.25220 169.48065 192.01803 192.01803 192.04955
 Alpha virt. eigenvalues --  192.04955 192.18545 206.78513 206.78513 206.93957
 Alpha virt. eigenvalues --  206.93957 207.26809 210.00934 285.25754 318.90049
 Alpha virt. eigenvalues --  318.90049 319.11367 324.74089 324.74089 325.39765
 Alpha virt. eigenvalues --  357.99205 576.60198 612.14630 627.89800 627.89800
 Alpha virt. eigenvalues --  627.91806 627.91806 627.99743 629.99063 629.99063
 Alpha virt. eigenvalues --  630.19636 690.99246 690.99246 691.598681090.03844
 Alpha virt. eigenvalues -- 1195.314851312.379141312.379141312.558172262.37433
 Alpha virt. eigenvalues -- 2550.018392921.104782921.104782921.264435635.72111
 Alpha virt. eigenvalues -- 6141.046457127.119857127.119857127.25809**********
 Alpha virt. eigenvalues -- **************************************************
 Alpha virt. eigenvalues -- **************************************************
 Alpha virt. eigenvalues -- ****************************************
     Molecular Orbital Coefficients:
                           4         5         6         7         8
                           O         O         O         O         O
     Eigenvalues --    -1.58099  -1.11493  -0.48042  -0.48042  -0.45056
   1 1   Sc 1S          0.00000   0.00000   0.00000   0.00000   0.00000
   2        2S          0.00000  -0.00000   0.00000   0.00000  -0.00000
   3        3S          0.00000   0.00000   0.00000   0.00000   0.00000
   4        4S          0.00000  -0.00000   0.00000   0.00000  -0.00000
   5        5S          0.00000   0.00000   0.00000   0.00000   0.00000
   6        6S          0.00000  -0.00000   0.00000   0.00000  -0.00000
   7        7S          0.00000   0.00000   0.00000   0.00000   0.00000
   8        8S          0.00000  -0.00001   0.00000   0.00000  -0.00001
   9        9S          0.00000   0.00003   0.00000   0.00000   0.00004
  10       10S          0.00000  -0.00010   0.00000   0.00000  -0.00011
  11       11S          0.00000   0.00024   0.00000   0.00000   0.00028
  12       12S          0.00000  -0.00054   0.00000   0.00000  -0.00064
  13       13S          0.00000   0.00082   0.00000   0.00000   0.00110
  14       14S          0.00000   0.00204   0.00000   0.00000   0.00084
  15       15S          0.00000  -0.03664   0.00000   0.00000  -0.03097
  16       16S          0.00000   0.24029   0.00000   0.00000   0.20808
  17       17S          0.00000  -0.01710   0.00000   0.00000  -0.01936
  18       18S          0.00000  -0.14706   0.00000   0.00000  -0.14258
  19       19S          0.00000  -0.05890   0.00000   0.00000  -0.08820
  20       20S          0.00000  -0.02747   0.00000   0.00000  -0.05585
  21       21S          0.00000  -0.03071   0.00000   0.00000  -0.05778
  22       22S          0.00000   0.00520   0.00000   0.00000   0.01901
  23       23S          0.00000  -0.17526   0.00000   0.00000  -0.14232
  24       24S          0.00000   0.01887   0.00000   0.00000   0.00787
  25       25S          0.00000  -0.00063   0.00000   0.00000  -0.00179
  26       26PX        -0.00000   0.00000  -0.00000   0.00000   0.00000
  27       26PY         0.00000   0.00000   0.00000  -0.00000   0.00000
  28       26PZ         0.00000   0.00000   0.00000   0.00000   0.00000
  29       27PX         0.00000   0.00000   0.00000   0.00000   0.00000
  30       27PY         0.00000   0.00000   0.00000   0.00000   0.00000
  31       27PZ         0.00000  -0.00000   0.00000   0.00000  -0.00000
  32       28PX        -0.00000   0.00000  -0.00000   0.00000   0.00000
  33       28PY         0.00000   0.00000   0.00000  -0.00000   0.00000
  34       28PZ         0.00000   0.00000   0.00000   0.00000   0.00000
  35       29PX         0.00001   0.00000   0.00000   0.00000   0.00000
  36       29PY         0.00000   0.00000   0.00000   0.00000   0.00000
  37       29PZ         0.00000  -0.00001   0.00000   0.00000  -0.00000
  38       30PX        -0.00004   0.00000  -0.00001   0.00000   0.00000
  39       30PY         0.00000   0.00000   0.00000  -0.00001   0.00000
  40       30PZ         0.00000   0.00002   0.00000   0.00000   0.00001
  41       31PX         0.00014   0.00000   0.00002   0.00000   0.00000
  42       31PY         0.00000   0.00000   0.00000   0.00002   0.00000
  43       31PZ         0.00000  -0.00007   0.00000   0.00000  -0.00004
  44       32PX        -0.00039   0.00000  -0.00006   0.00000   0.00000
  45       32PY         0.00000   0.00000   0.00000  -0.00006   0.00000
  46       32PZ         0.00000   0.00021   0.00000   0.00000   0.00013
  47       33PX         0.00079   0.00000   0.00012   0.00000   0.00000
  48       33PY         0.00000   0.00000   0.00000   0.00012   0.00000
  49       33PZ         0.00000  -0.00045   0.00000   0.00000  -0.00031
  50       34PX         0.00115   0.00000   0.00012   0.00000   0.00000
  51       34PY         0.00000   0.00000   0.00000   0.00012   0.00000
  52       34PZ         0.00000  -0.00029   0.00000   0.00000   0.00019
  53       35PX        -0.03820   0.00000  -0.00551   0.00000   0.00000
  54       35PY         0.00000   0.00000   0.00000  -0.00551   0.00000
  55       35PZ         0.00000   0.01751   0.00000   0.00000   0.00729
  56       36PX         0.55995   0.00000   0.08994   0.00000   0.00000
  57       36PY         0.00000   0.00000   0.00000   0.08994   0.00000
  58       36PZ         0.00000  -0.26978   0.00000   0.00000  -0.12329
  59       37PX        -0.08756   0.00000  -0.00878   0.00000   0.00000
  60       37PY         0.00000   0.00000   0.00000  -0.00878   0.00000
  61       37PZ         0.00000   0.04359   0.00000   0.00000   0.02277
  62       38PX        -0.52436   0.00000  -0.10322   0.00000   0.00000
  63       38PY         0.00000   0.00000   0.00000  -0.10322   0.00000
  64       38PZ         0.00000   0.27144   0.00000   0.00000   0.16362
  65       39PX        -0.42625   0.00000  -0.07958   0.00000   0.00000
  66       39PY         0.00000   0.00000   0.00000  -0.07958   0.00000
  67       39PZ         0.00000   0.21798   0.00000   0.00000   0.12187
  68       40PX        -0.15498   0.00000  -0.02792   0.00000   0.00000
  69       40PY         0.00000   0.00000   0.00000  -0.02792   0.00000
  70       40PZ         0.00000   0.08037   0.00000   0.00000   0.04317
  71       41PX        -0.01119   0.00000  -0.03069   0.00000   0.00000
  72       41PY         0.00000   0.00000   0.00000  -0.03069   0.00000
  73       41PZ         0.00000   0.03300   0.00000   0.00000   0.06837
  74       42PX         0.00467   0.00000  -0.00987   0.00000   0.00000
  75       42PY         0.00000   0.00000   0.00000  -0.00987   0.00000
  76       42PZ         0.00000   0.01201   0.00000   0.00000   0.02287
  77       43PX        -0.00021   0.00000  -0.01263   0.00000   0.00000
  78       43PY         0.00000   0.00000   0.00000  -0.01263   0.00000
  79       43PZ         0.00000  -0.00188   0.00000   0.00000  -0.01304
  80       44PX        -0.49361   0.00000  -0.08335   0.00000   0.00000
  81       44PY         0.00000   0.00000   0.00000  -0.08335   0.00000
  82       44PZ         0.00000   0.23983   0.00000   0.00000   0.10939
  83       45PX         0.11522   0.00000   0.04268   0.00000   0.00000
  84       45PY         0.00000   0.00000   0.00000   0.04268   0.00000
  85       45PZ         0.00000  -0.07184   0.00000   0.00000  -0.06799
  86       46PX         0.00012   0.00000   0.00273   0.00000   0.00000
  87       46PY         0.00000   0.00000   0.00000   0.00273   0.00000
  88       46PZ         0.00000   0.00007   0.00000   0.00000   0.00171
  89       47D 0        0.00000   0.00000   0.00000   0.00000   0.00000
  90       47D+1        0.00000   0.00000  -0.00000   0.00000   0.00000
  91       47D-1        0.00000   0.00000   0.00000  -0.00000   0.00000
  92       47D+2        0.00000  -0.00000   0.00000   0.00000  -0.00000
  93       47D-2        0.00000   0.00000   0.00000   0.00000   0.00000
  94       48D 0        0.00000   0.00000   0.00000   0.00000  -0.00001
  95       48D+1       -0.00000   0.00000  -0.00001   0.00000   0.00000
  96       48D-1        0.00000   0.00000   0.00000  -0.00001   0.00000
  97       48D+2        0.00000   0.00000   0.00000   0.00000   0.00000
  98       48D-2        0.00000   0.00000   0.00000   0.00000   0.00000
  99       49D 0        0.00000  -0.00050   0.00000   0.00000  -0.00152
 100       49D+1       -0.00004   0.00000   0.00087   0.00000   0.00000
 101       49D-1        0.00000   0.00000   0.00000   0.00087   0.00000
 102       49D+2        0.00000  -0.00000   0.00000   0.00000  -0.00000
 103       49D-2        0.00000   0.00000   0.00000   0.00000   0.00000
 104       50D 0        0.00000   0.01320   0.00000   0.00000   0.04200
 105       50D+1        0.00118   0.00000  -0.02274   0.00000   0.00000
 106       50D-1        0.00000   0.00000   0.00000  -0.02274   0.00000
 107       50D+2        0.00000  -0.00000   0.00000   0.00000   0.00000
 108       50D-2        0.00000   0.00000   0.00000   0.00000   0.00000
 109       51D 0        0.00000   0.01599   0.00000   0.00000   0.05160
 110       51D+1        0.00092   0.00000  -0.02532   0.00000   0.00000
 111       51D-1        0.00000   0.00000   0.00000  -0.02532   0.00000
 112       51D+2        0.00000   0.00000   0.00000   0.00000  -0.00000
 113       51D-2        0.00000   0.00000   0.00000   0.00000   0.00000
 114       52D 0        0.00000   0.02980   0.00000   0.00000   0.08700
 115       52D+1       -0.00130   0.00000  -0.03723   0.00000   0.00000
 116       52D-1        0.00000   0.00000   0.00000  -0.03723   0.00000
 117       52D+2        0.00000   0.00000   0.00000   0.00000  -0.00000
 118       52D-2        0.00000   0.00000   0.00000   0.00000   0.00000
 119       53D 0        0.00000   0.04854   0.00000   0.00000   0.14337
 120       53D+1       -0.00405   0.00000  -0.07362   0.00000   0.00000
 121       53D-1        0.00000   0.00000   0.00000  -0.07362   0.00000
 122       53D+2        0.00000  -0.00000   0.00000   0.00000  -0.00000
 123       53D-2        0.00000   0.00000   0.00000   0.00000   0.00000
 124       54D 0        0.00000   0.04012   0.00000   0.00000   0.14772
 125       54D+1       -0.00522   0.00000  -0.08731   0.00000   0.00000
 126       54D-1        0.00000   0.00000   0.00000  -0.08731   0.00000
 127       54D+2        0.00000   0.00000   0.00000   0.00000   0.00000
 128       54D-2        0.00000   0.00000   0.00000   0.00000   0.00000
 129       55D 0        0.00000  -0.00209   0.00000   0.00000   0.04242
 130       55D+1       -0.00417   0.00000  -0.00667   0.00000   0.00000
 131       55D-1        0.00000   0.00000   0.00000  -0.00667   0.00000
 132       55D+2        0.00000   0.00000   0.00000   0.00000  -0.00000
 133       55D-2        0.00000   0.00000   0.00000   0.00000   0.00000
 134       56D 0        0.00000  -0.00110   0.00000   0.00000   0.01147
 135       56D+1       -0.00224   0.00000   0.00259   0.00000   0.00000
 136       56D-1        0.00000   0.00000   0.00000   0.00259   0.00000
 137       56D+2        0.00000   0.00000   0.00000   0.00000   0.00000
 138       56D-2        0.00000   0.00000   0.00000   0.00000   0.00000
 139       57D 0        0.00000   0.00107   0.00000   0.00000   0.00679
 140       57D+1       -0.00035   0.00000   0.00834   0.00000   0.00000
 141       57D-1        0.00000   0.00000   0.00000   0.00834   0.00000
 142       57D+2        0.00000  -0.00000   0.00000   0.00000  -0.00000
 143       57D-2        0.00000   0.00000   0.00000   0.00000   0.00000
 144       58D 0        0.00000   0.00767   0.00000   0.00000   0.02862
 145       58D+1        0.00398   0.00000  -0.02183   0.00000   0.00000
 146       58D-1        0.00000   0.00000   0.00000  -0.02183   0.00000
 147       58D+2        0.00000  -0.00000   0.00000   0.00000   0.00000
 148       58D-2        0.00000   0.00000   0.00000   0.00000   0.00000
 149       59D 0        0.00000   0.00656   0.00000   0.00000   0.03225
 150       59D+1        0.00698   0.00000  -0.02608   0.00000   0.00000
 151       59D-1        0.00000   0.00000   0.00000  -0.02608   0.00000
 152       59D+2        0.00000  -0.00000   0.00000   0.00000   0.00000
 153       59D-2        0.00000   0.00000   0.00000   0.00000   0.00000
 154       60D 0        0.00000  -0.00014   0.00000   0.00000  -0.00119
 155       60D+1        0.00007   0.00000  -0.00200   0.00000   0.00000
 156       60D-1        0.00000   0.00000   0.00000  -0.00200   0.00000
 157       60D+2        0.00000   0.00000   0.00000   0.00000   0.00000
 158       60D-2        0.00000   0.00000   0.00000   0.00000   0.00000
 159       61F 0        0.00000  -0.00172   0.00000   0.00000  -0.00344
 160       61F+1        0.00079   0.00000   0.00259   0.00000   0.00000
 161       61F-1        0.00000   0.00000   0.00000   0.00259   0.00000
 162       61F+2        0.00000  -0.00000   0.00000   0.00000  -0.00000
 163       61F-2        0.00000   0.00000   0.00000   0.00000   0.00000
 164       61F+3        0.00000   0.00000   0.00000   0.00000   0.00000
 165       61F-3        0.00000   0.00000   0.00000   0.00000   0.00000
 166       62F 0        0.00000  -0.00721   0.00000   0.00000  -0.01562
 167       62F+1        0.00266   0.00000   0.01089   0.00000   0.00000
 168       62F-1        0.00000   0.00000   0.00000   0.01089   0.00000
 169       62F+2        0.00000   0.00000   0.00000   0.00000   0.00000
 170       62F-2        0.00000   0.00000   0.00000   0.00000   0.00000
 171       62F+3        0.00000   0.00000  -0.00000   0.00000   0.00000
 172       62F-3        0.00000   0.00000   0.00000   0.00000   0.00000
 173       63F 0        0.00000  -0.00835   0.00000   0.00000  -0.01912
 174       63F+1        0.00456   0.00000   0.01608   0.00000   0.00000
 175       63F-1        0.00000   0.00000   0.00000   0.01608   0.00000
 176       63F+2        0.00000   0.00000   0.00000   0.00000   0.00000
 177       63F-2        0.00000   0.00000   0.00000   0.00000   0.00000
 178       63F+3        0.00000   0.00000   0.00000   0.00000   0.00000
 179       63F-3        0.00000   0.00000   0.00000  -0.00000   0.00000
 180       64F 0        0.00000   0.00053   0.00000   0.00000  -0.00720
 181       64F+1        0.00216   0.00000  -0.00776   0.00000   0.00000
 182       64F-1        0.00000   0.00000   0.00000  -0.00776   0.00000
 183       64F+2        0.00000  -0.00000   0.00000   0.00000  -0.00000
 184       64F-2        0.00000   0.00000   0.00000   0.00000   0.00000
 185       64F+3        0.00000   0.00000  -0.00000   0.00000   0.00000
 186       64F-3        0.00000   0.00000   0.00000   0.00000   0.00000
 187       65F 0        0.00000  -0.00064   0.00000   0.00000  -0.00394
 188       65F+1        0.00041   0.00000  -0.00359   0.00000   0.00000
 189       65F-1        0.00000   0.00000   0.00000  -0.00359   0.00000
 190       65F+2        0.00000   0.00000   0.00000   0.00000   0.00000
 191       65F-2        0.00000   0.00000   0.00000   0.00000   0.00000
 192       65F+3        0.00000   0.00000  -0.00000   0.00000   0.00000
 193       65F-3        0.00000   0.00000   0.00000   0.00000   0.00000
 194       66G 0        0.00000   0.00022   0.00000   0.00000   0.00060
 195       66G+1        0.00019   0.00000  -0.00044   0.00000   0.00000
 196       66G-1        0.00000   0.00000   0.00000  -0.00044   0.00000
 197       66G+2        0.00000  -0.00000   0.00000   0.00000  -0.00000
 198       66G-2        0.00000   0.00000   0.00000   0.00000   0.00000
 199       66G+3       -0.00000   0.00000   0.00000   0.00000   0.00000
 200       66G-3        0.00000   0.00000   0.00000   0.00000   0.00000
 201       66G+4        0.00000  -0.00000   0.00000   0.00000   0.00000
 202       66G-4        0.00000   0.00000   0.00000   0.00000   0.00000
 203       67G 0        0.00000   0.00109   0.00000   0.00000   0.00438
 204       67G+1        0.00033   0.00000  -0.00315   0.00000   0.00000
 205       67G-1        0.00000   0.00000   0.00000  -0.00315   0.00000
 206       67G+2        0.00000  -0.00000   0.00000   0.00000  -0.00000
[...]
 162       61F+2       -0.00000   0.00000  -0.00000   0.00000
 163       61F-2       -0.00000  -0.00000  -0.00000   0.00000
 164       61F+3       -0.00000  -0.00000  -0.00000   0.00000
 165       61F-3        0.00000   0.00000   0.00000   0.00000
 166       62F 0        0.00544   0.00272   0.00271   0.00001
 167       62F+1        0.00245   0.00122   0.00122   0.00000
 168       62F-1        0.00245   0.00122   0.00122   0.00000
 169       62F+2        0.00000   0.00000   0.00000   0.00000
 170       62F-2        0.00000   0.00000   0.00000   0.00000
 171       62F+3        0.00000   0.00000   0.00000  -0.00000
 172       62F-3        0.00000   0.00000   0.00000  -0.00000
 173       63F 0        0.00902   0.00448   0.00454  -0.00006
 174       63F+1        0.01092   0.00546   0.00546   0.00000
 175       63F-1        0.01092   0.00546   0.00546   0.00000
 176       63F+2        0.00000   0.00000   0.00000   0.00000
 177       63F-2        0.00000   0.00000  -0.00000   0.00000
 178       63F+3        0.00000   0.00000   0.00000   0.00000
 179       63F-3       -0.00000   0.00000  -0.00000   0.00000
 180       64F 0       -0.00354  -0.00180  -0.00173  -0.00007
 181       64F+1       -0.00501  -0.00251  -0.00251   0.00000
 182       64F-1       -0.00501  -0.00251  -0.00251   0.00000
 183       64F+2       -0.00000  -0.00000  -0.00000   0.00000
 184       64F-2       -0.00000  -0.00000  -0.00000  -0.00000
 185       64F+3        0.00000   0.00000   0.00000   0.00000
 186       64F-3       -0.00000  -0.00000  -0.00000  -0.00000
 187       65F 0       -0.00056  -0.00028  -0.00028   0.00000
 188       65F+1       -0.00053  -0.00027  -0.00027   0.00000
 189       65F-1       -0.00053  -0.00027  -0.00027  -0.00000
 190       65F+2        0.00000   0.00000  -0.00000   0.00000
 191       65F-2        0.00000   0.00000  -0.00000   0.00000
 192       65F+3        0.00000   0.00000   0.00000   0.00000
 193       65F-3        0.00000   0.00000   0.00000  -0.00000
 194       66G 0        0.00003   0.00002   0.00002   0.00000
 195       66G+1        0.00001   0.00001   0.00001  -0.00000
 196       66G-1        0.00001   0.00001   0.00001   0.00000
 197       66G+2        0.00000   0.00000   0.00000   0.00000
 198       66G-2        0.00000   0.00000   0.00000   0.00000
 199       66G+3       -0.00000   0.00000  -0.00000   0.00000
 200       66G-3        0.00000   0.00000   0.00000   0.00000
 201       66G+4       -0.00000  -0.00000  -0.00000  -0.00000
 202       66G-4       -0.00000  -0.00000  -0.00000   0.00000
 203       67G 0        0.00123   0.00061   0.00061  -0.00000
 204       67G+1        0.00074   0.00037   0.00037   0.00000
 205       67G-1        0.00074   0.00037   0.00037   0.00000
 206       67G+2       -0.00000  -0.00000  -0.00000  -0.00000
 207       67G-2       -0.00000  -0.00000  -0.00000   0.00000
 208       67G+3        0.00000   0.00000   0.00000   0.00000
 209       67G-3       -0.00000  -0.00000  -0.00000  -0.00000
 210       67G+4        0.00000   0.00000   0.00000   0.00000
 211       67G-4        0.00000   0.00000   0.00000   0.00000
 212       68G 0        0.00006   0.00003   0.00003  -0.00001
 213       68G+1        0.00034   0.00017   0.00017   0.00000
 214       68G-1        0.00034   0.00017   0.00017   0.00000
 215       68G+2        0.00000   0.00000   0.00000   0.00000
 216       68G-2        0.00000   0.00000   0.00000   0.00000
 217       68G+3       -0.00000  -0.00000  -0.00000  -0.00000
 218       68G-3        0.00000   0.00000   0.00000  -0.00000
 219       68G+4        0.00000   0.00000   0.00000   0.00000
 220       68G-4        0.00000   0.00000   0.00000  -0.00000
 221       69G 0       -0.00064  -0.00031  -0.00033   0.00001
 222       69G+1       -0.00056  -0.00028  -0.00028  -0.00000
 223       69G-1       -0.00056  -0.00028  -0.00028   0.00000
 224       69G+2       -0.00000  -0.00000  -0.00000   0.00000
 225       69G-2       -0.00000  -0.00000  -0.00000  -0.00000
 226       69G+3       -0.00000  -0.00000  -0.00000  -0.00000
 227       69G-3       -0.00000  -0.00000  -0.00000  -0.00000
 228       69G+4        0.00000   0.00000   0.00000   0.00000
 229       69G-4        0.00000   0.00000   0.00000  -0.00000
 230       70H 0        0.00005   0.00003   0.00003   0.00000
 231       70H+1        0.00002   0.00001   0.00001   0.00000
 232       70H-1        0.00002   0.00001   0.00001   0.00000
 233       70H+2       -0.00000  -0.00000  -0.00000  -0.00000
 234       70H-2       -0.00000  -0.00000  -0.00000  -0.00000
 235       70H+3       -0.00000  -0.00000  -0.00000  -0.00000
 236       70H-3       -0.00000  -0.00000  -0.00000  -0.00000
 237       70H+4        0.00000   0.00000   0.00000  -0.00000
 238       70H-4        0.00000   0.00000   0.00000  -0.00000
 239       70H+5        0.00000   0.00000   0.00000  -0.00000
 240       70H-5        0.00000   0.00000   0.00000   0.00000
 241       71H 0        0.00010   0.00005   0.00005   0.00000
 242       71H+1        0.00026   0.00013   0.00013   0.00000
 243       71H-1        0.00026   0.00013   0.00013  -0.00000
 244       71H+2        0.00000   0.00000   0.00000  -0.00000
 245       71H-2        0.00000   0.00000   0.00000  -0.00000
 246       71H+3        0.00000   0.00000   0.00000   0.00000
 247       71H-3        0.00000   0.00000   0.00000  -0.00000
 248       71H+4        0.00000   0.00000   0.00000  -0.00000
 249       71H-4        0.00000   0.00000   0.00000   0.00000
 250       71H+5       -0.00000  -0.00000  -0.00000   0.00000
 251       71H-5        0.00000   0.00000   0.00000  -0.00000
 252       72H 0       -0.00009  -0.00004  -0.00004  -0.00000
 253       72H+1        0.00027   0.00013   0.00013   0.00000
 254       72H-1        0.00027   0.00013   0.00013   0.00000
 255       72H+2       -0.00000  -0.00000  -0.00000   0.00000
 256       72H-2       -0.00000  -0.00000  -0.00000   0.00000
 257       72H+3       -0.00000  -0.00000   0.00000  -0.00000
 258       72H-3        0.00000   0.00000   0.00000  -0.00000
 259       72H+4        0.00000   0.00000   0.00000   0.00000
 260       72H-4        0.00000   0.00000   0.00000   0.00000
 261       72H+5        0.00000   0.00000   0.00000   0.00000
 262       72H-5        0.00000   0.00000   0.00000  -0.00000
 263 2   O  1S         -0.00000  -0.00000  -0.00000  -0.00000
 264        2S          0.00000   0.00000   0.00000   0.00000
 265        3S         -0.00000  -0.00000  -0.00000  -0.00000
 266        4S          0.00000   0.00000   0.00000   0.00000
 267        5S         -0.00000  -0.00000  -0.00000  -0.00000
 268        6S         -0.00008  -0.00004  -0.00004  -0.00000
 269        7S         -0.00066  -0.00033  -0.00033  -0.00000
 270        8S         -0.09261  -0.04640  -0.04621  -0.00019
 271        9S         -0.07676  -0.03846  -0.03830  -0.00015
 272       10S          0.42909   0.21493   0.21416   0.00077
 273       11S          1.06184   0.53143   0.53040   0.00103
 274       12S          0.60474   0.30099   0.30375  -0.00276
 275       13S          0.05603   0.02807   0.02796   0.00012
 276       14S          0.00039   0.00020   0.00019   0.00000
 277       15S          0.00003   0.00002   0.00002   0.00000
 278       16S          0.09958   0.05297   0.04661   0.00636
 279       17PX        -0.00016  -0.00008  -0.00008   0.00000
 280       17PY        -0.00016  -0.00008  -0.00008   0.00000
 281       17PZ        -0.00019  -0.00010  -0.00010  -0.00000
 282       18PX        -0.11342  -0.05671  -0.05671   0.00000
 283       18PY        -0.11342  -0.05671  -0.05671   0.00000
 284       18PZ        -0.13408  -0.06705  -0.06703  -0.00002
 285       19PX         0.13001   0.06501   0.06501   0.00000
 286       19PY         0.13001   0.06501   0.06501   0.00000
 287       19PZ         0.13802   0.06902   0.06900   0.00001
 288       20PX         0.44635   0.22318   0.22318   0.00000
 289       20PY         0.44635   0.22318   0.22318   0.00000
 290       20PZ         0.47798   0.23902   0.23896   0.00006
 291       21PX         0.68413   0.34206   0.34206   0.00000
 292       21PY         0.68413   0.34206   0.34206   0.00000
 293       21PZ         0.62496   0.31248   0.31248  -0.00000
 294       22PX         0.45883   0.22942   0.22942   0.00000
 295       22PY         0.45883   0.22942   0.22942   0.00000
 296       22PZ         0.24248   0.11992   0.12256  -0.00264
 297       23PX         0.13015   0.06507   0.06507  -0.00000
 298       23PY         0.13015   0.06507   0.06507   0.00000
 299       23PZ         0.15224   0.07613   0.07611   0.00002
 300       24PX         0.00060   0.00030   0.00030  -0.00000
 301       24PY         0.00060   0.00030   0.00030   0.00000
 302       24PZ         0.00070   0.00035   0.00035   0.00000
 303       25PX         0.00001   0.00000   0.00000   0.00000
 304       25PY         0.00001   0.00000   0.00000   0.00000
 305       25PZ         0.00001   0.00001   0.00001   0.00000
 306       26PX         0.04814   0.02407   0.02407   0.00000
 307       26PY         0.04814   0.02407   0.02407   0.00000
 308       26PZ         0.02718   0.01017   0.01702  -0.00685
 309       27D 0        0.00017   0.00009   0.00008   0.00000
 310       27D+1        0.00008   0.00004   0.00004   0.00000
 311       27D-1        0.00008   0.00004   0.00004   0.00000
 312       27D+2       -0.00000  -0.00000  -0.00000  -0.00000
 313       27D-2       -0.00000  -0.00000  -0.00000  -0.00000
 314       28D 0        0.00412   0.00209   0.00203   0.00005
 315       28D+1        0.00198   0.00099   0.00099   0.00000
 316       28D-1        0.00198   0.00099   0.00099   0.00000
 317       28D+2        0.00000   0.00000   0.00000   0.00000
 318       28D-2        0.00000   0.00000   0.00000   0.00000
 319       29D 0        0.00844   0.00448   0.00396   0.00051
 320       29D+1        0.01108   0.00554   0.00554  -0.00000
 321       29D-1        0.01108   0.00554   0.00554   0.00000
 322       29D+2        0.00000  -0.00000   0.00000  -0.00000
 323       29D-2        0.00000  -0.00000   0.00000  -0.00000
 324       30D 0        0.00000   0.00000   0.00000   0.00000
 325       30D+1        0.00000   0.00000   0.00000   0.00000
 326       30D-1        0.00000   0.00000   0.00000   0.00000
 327       30D+2        0.00000   0.00000   0.00000  -0.00000
 328       30D-2        0.00000   0.00000   0.00000  -0.00000
 329       31D 0       -0.00000  -0.00000  -0.00000  -0.00000
 330       31D+1       -0.00000  -0.00000  -0.00000   0.00000
 331       31D-1       -0.00000  -0.00000  -0.00000   0.00000
 332       31D+2       -0.00000  -0.00000  -0.00000  -0.00000
 333       31D-2       -0.00000  -0.00000  -0.00000   0.00000
 334       32D 0        0.00267   0.00122   0.00145  -0.00023
 335       32D+1        0.00433   0.00216   0.00216   0.00000
 336       32D-1        0.00433   0.00216   0.00216   0.00000
 337       32D+2        0.00000   0.00000   0.00000  -0.00000
 338       32D-2        0.00000   0.00000   0.00000  -0.00000
 339       33F 0        0.00009   0.00005   0.00005   0.00000
 340       33F+1        0.00003   0.00001   0.00001   0.00000
 341       33F-1        0.00003   0.00001   0.00001   0.00000
 342       33F+2        0.00000   0.00000   0.00000   0.00000
 343       33F-2        0.00000   0.00000   0.00000   0.00000
 344       33F+3        0.00000   0.00000  -0.00000   0.00000
 345       33F-3       -0.00000  -0.00000  -0.00000  -0.00000
 346       34F 0        0.00159   0.00082   0.00077   0.00005
 347       34F+1        0.00121   0.00060   0.00060   0.00000
 348       34F-1        0.00121   0.00060   0.00060   0.00000
 349       34F+2       -0.00000  -0.00000  -0.00000   0.00000
 350       34F-2       -0.00000  -0.00000  -0.00000   0.00000
 351       34F+3       -0.00000  -0.00000  -0.00000   0.00000
 352       34F-3       -0.00000  -0.00000  -0.00000  -0.00000
 353       35F 0        0.00000   0.00000   0.00000   0.00000
 354       35F+1        0.00000   0.00000   0.00000   0.00000
 355       35F-1        0.00000   0.00000   0.00000   0.00000
 356       35F+2        0.00000   0.00000   0.00000   0.00000
 357       35F-2        0.00000   0.00000   0.00000   0.00000
 358       35F+3        0.00000   0.00000   0.00000  -0.00000
 359       35F-3        0.00000   0.00000   0.00000   0.00000
 360       36F 0        0.00079   0.00056   0.00023   0.00034
 361       36F+1        0.00077   0.00039   0.00039   0.00000
 362       36F-1        0.00077   0.00039   0.00039   0.00000
 363       36F+2        0.00000   0.00000   0.00000  -0.00000
 364       36F-2        0.00000   0.00000   0.00000  -0.00000
 365       36F+3       -0.00000  -0.00000  -0.00000   0.00000
 366       36F-3       -0.00000  -0.00000  -0.00000  -0.00000
 367       37G 0        0.00007   0.00004   0.00004   0.00000
 368       37G+1        0.00004   0.00002   0.00002   0.00000
 369       37G-1        0.00004   0.00002   0.00002   0.00000
 370       37G+2        0.00000   0.00000   0.00000   0.00000
 371       37G-2        0.00000   0.00000   0.00000   0.00000
 372       37G+3       -0.00000  -0.00000  -0.00000   0.00000
 373       37G-3        0.00000   0.00000   0.00000   0.00000
 374       37G+4       -0.00000  -0.00000  -0.00000  -0.00000
 375       37G-4       -0.00000  -0.00000  -0.00000  -0.00000
 376       38G 0        0.00003   0.00001   0.00001  -0.00000
 377       38G+1        0.00030   0.00015   0.00015   0.00000
 378       38G-1        0.00030   0.00015   0.00015   0.00000
 379       38G+2       -0.00000   0.00000  -0.00000   0.00000
 380       38G-2       -0.00000   0.00000  -0.00000   0.00000
 381       38G+3        0.00000   0.00000   0.00000   0.00000
 382       38G-3        0.00000   0.00000   0.00000  -0.00000
 383       38G+4       -0.00000  -0.00000  -0.00000  -0.00000
 384       38G-4       -0.00000  -0.00000  -0.00000   0.00000
          Condensed to atoms (all electrons):
               1          2
     1  Sc   9.916948  -0.154727
     2  O   -0.154727   7.392506
          Atomic-Atomic Spin Densities.
               1          2
     1  Sc   1.012933  -0.009412
     2  O   -0.009412   0.005891
 Mulliken charges and spin densities:
               1          2
     1  Sc   1.237779   1.003521
     2  O   -1.237779  -0.003521
 Sum of Mulliken charges =  -0.00000   1.00000
 Mulliken charges and spin densities with hydrogens summed into heavy atoms:
               1          2
     1  Sc   1.237779   1.003521
     2  O   -1.237779  -0.003521
 Electronic spatial extent (au):  <R**2>=             87.9344
 Charge=             -0.0000 electrons
 Dipole moment (field-independent basis, Debye):
    X=              0.0000    Y=              0.0000    Z=              2.7194  Tot=              2.7194
 Quadrupole moment (field-independent basis, Debye-Ang):
   XX=            -22.0820   YY=            -22.0820   ZZ=            -31.0619
   XY=              0.0000   XZ=              0.0000   YZ=              0.0000
 Traceless Quadrupole moment (field-independent basis, Debye-Ang):
   XX=              2.9933   YY=              2.9933   ZZ=             -5.9867
   XY=              0.0000   XZ=              0.0000   YZ=              0.0000
 Octapole moment (field-independent basis, Debye-Ang**2):
  XXX=              0.0000  YYY=              0.0000  ZZZ=            -14.6508  XYY=              0.0000
  XXY=              0.0000  XXZ=             -4.7540  XZZ=              0.0000  YZZ=              0.0000
  YYZ=             -4.7540  XYZ=              0.0000
 Hexadecapole moment (field-independent basis, Debye-Ang**3):
 XXXX=            -51.9295 YYYY=            -51.9295 ZZZZ=           -162.1548 XXXY=              0.0000
 XXXZ=              0.0000 YYYX=              0.0000 YYYZ=              0.0000 ZZZX=              0.0000
 ZZZY=              0.0000 XXYY=            -17.3098 XXZZ=            -35.1760 YYZZ=            -35.1760
 XXYZ=              0.0000 YYXZ=              0.0000 ZZXY=              0.0000
 N-N= 2.328379728048D+01 E-N=-1.806966875463D+02  KE= 3.058723364555D+01
 Symmetry A1   KE= 1.406720715750D+01
 Symmetry A2   KE=-1.020276149570D-50
 Symmetry B1   KE= 8.260013243898D+00
 Symmetry B2   KE= 8.260013243622D+00
 Symmetry A1   SP= 1.000000000000D+00
 Symmetry A2   SP= 2.794526474497D-51
 Symmetry B1   SP= 3.319217224847D-17
 Symmetry B2   SP=-7.975196380166D-18
 Orbital energies and kinetic energies (alpha):
                                 1                 2
   4         O                -1.580985          2.048566
   5         O                -1.114927          1.366614
   6         O                -0.480419          2.081440
   7         O                -0.480419          2.081440
   8         O                -0.450561          2.683990
   9         O                -0.224743          0.273929
  10         V                 0.005887          0.059961
  11         V                 0.005887          0.059961
  12         V                 0.017861          0.039599
  13         V                 0.020944          0.029388
  14         V                 0.027641          0.031568
 Total kinetic energy from orbitals= 3.086116257222D+01
                          Isotropic Fermi Contact Couplings
        Atom                 a.u.       MegaHertz       Gauss      10(-4) cm-1
     1  Sc(45)             0.00121       1.31654       0.46977       0.43915
     2  O(17)              0.00005      -0.03076      -0.01097      -0.01026
 --------------------------------------------------------
       Center         ----  Spin Dipole Couplings  ----
                      3XX-RR        3YY-RR        3ZZ-RR
 --------------------------------------------------------
     1   Atom       -0.038215     -0.038215      0.076429
     2   Atom       -0.004294     -0.004294      0.008588
 --------------------------------------------------------
                        XY            XZ            YZ
 --------------------------------------------------------
     1   Atom        0.000000      0.000000      0.000000
     2   Atom        0.000000      0.000000      0.000000
 --------------------------------------------------------


 ---------------------------------------------------------------------------------
              Anisotropic Spin Dipole Couplings in Principal Axis System
 ---------------------------------------------------------------------------------

       Atom             a.u.   MegaHertz   Gauss  10(-4) cm-1        Axes

              Baa    -0.0382    -4.961    -1.770    -1.655 -0.0000  1.0000  0.0000
     1 Sc(45) Bbb    -0.0382    -4.961    -1.770    -1.655  1.0000  0.0000  0.0000
              Bcc     0.0764     9.922     3.540     3.309  0.0000  0.0000  1.0000
 
              Baa    -0.0043     0.311     0.111     0.104  1.0000  0.0000  0.0000
     2 O(17)  Bbb    -0.0043     0.311     0.111     0.104 -0.0000  1.0000  0.0000
              Bcc     0.0086    -0.621    -0.222    -0.207  0.0000  0.0000  1.0000
 

 ---------------------------------------------------------------------------------

 No NMR shielding tensors so no spin-rotation constants.
 Leave Link  601 at Wed Feb 21 02:16:33 2018, MaxMem= 10737418240 cpu:             226.6 elap:               7.4
 (Enter /home1/apps/gaussian/16rA.03/g16/l9999.exe)
 1\1\GINC-C426-042\SP\ROCCSD(T)-Full\Gen\O1Sc1(2)\AANNABE\21-Feb-2018\0
 \\#P ROCCSD(T)=(maxcyc=150, Full, SaveAmplitudes, ReadAmplitudes)/Gen 
 5d 7f SCF=(maxcycles=300) Integral(NoXCTest) MaxDisk=500GB Pop=Regular
  Pseudo=Read Guess=Read\\ScO\\0,2\Sc,0,0.,0.,0.\O,0,0.,0.,1.5\\Version
 =ES64L-G16RevA.03\State=2-SG\HF=-61.850931\MP2=-62.5559528\PUHF=-61.85
 0931\PMP2-0=-62.5559528\CCSD=-62.5436734\CCSD(T)=-62.5803602\RMSD=8.43
 4e-10\PG=C*V [C*(O1Sc1)]\\@


 E PUR SI MUOVE    -- GALILEO GALILEI
 Job cpu time:       1 days  9 hours 53 minutes 41.4 seconds.
 Elapsed time:       0 days  1 hours  3 minutes 50.8 seconds.
 File lengths (MBytes):  RWF=  11416 Int=      0 D2E=      0 Chk=     61 Scr=      1
 Normal termination of Gaussian 16 at Wed Feb 21 02:16:33 2018.
