 Entering Gaussian System, Link 0=g16
 Initial command:
 /home1/apps/gaussian/16rA.03/g16/l1.exe "/tmp/Gau-1983.inp" -scrdir="/tmp/"
 Entering Link 1 = /home1/apps/gaussian/16rA.03/g16/l1.exe PID=      1984.
  
 Copyright (c) 1988,1990,1992,1993,1995,1998,2003,2009,2016,
            Gaussian, Inc.  All Rights Reserved.
  
 This is part of the Gaussian(R) 16 program.  It is based on
 the Gaussian(R) 09 system (copyright 2009, Gaussian, Inc.),
 the Gaussian(R) 03 system (copyright 2003, Gaussian, Inc.),
 the Gaussian(R) 98 system (copyright 1998, Gaussian, Inc.),
 the Gaussian(R) 94 system (copyright 1995, Gaussian, Inc.),
 the Gaussian 92(TM) system (copyright 1992, Gaussian, Inc.),
 the Gaussian 90(TM) system (copyright 1990, Gaussian, Inc.),
 the Gaussian 88(TM) system (copyright 1988, Gaussian, Inc.),
 the Gaussian 86(TM) system (copyright 1986, Carnegie Mellon
 University), and the Gaussian 82(TM) system (copyright 1983,
 Carnegie Mellon University). Gaussian is a federally registered
 trademark of Gaussian, Inc.
  
 This software contains proprietary and confidential information,
 including trade secrets, belonging to Gaussian, Inc.
  
 This software is provided under written license and may be
 used, copied, transmitted, or stored only in accord with that
 written license.
  
 The following legend is applicable only to US Government
 contracts under FAR:
  
                    RESTRICTED RIGHTS LEGEND
  
 Use, reproduction and disclosure by the US Government is
 subject to restrictions as set forth in subparagraphs (a)
 and (c) of the Commercial Computer Software - Restricted
 Rights clause in FAR 52.227-19.
  
 Gaussian, Inc.
 340 Quinnipiac St., Bldg. 40, Wallingford CT 06492
  
  
 ---------------------------------------------------------------
 Warning -- This program may not be used in any manner that
 competes with the business of Gaussian, Inc. or will provide
 assistance to any competitor of Gaussian, Inc.  The licensee
 of this program is prohibited from giving any competitor of
 Gaussian, Inc. access to this program.  By using this program,
 the user acknowledges that Gaussian, Inc. is engaged in the
 business of creating and licensing software in the field of
 computational chemistry and represents and warrants to the
 licensee that it is not a competitor of Gaussian, Inc. and that
 it will not use this program in any manner prohibited above.
 ---------------------------------------------------------------
  

 Cite this work as:
 Gaussian 16, Revision A.03,
 M. J. Frisch, G. W. Trucks, H. B. Schlegel, G. E. Scuseria, 
 M. A. Robb, J. R. Cheeseman, G. Scalmani, V. Barone, 
 G. A. Petersson, H. Nakatsuji, X. Li, M. Caricato, A. V. Marenich, 
 J. Bloino, B. G. Janesko, R. Gomperts, B. Mennucci, H. P. Hratchian, 
 J. V. Ortiz, A. F. Izmaylov, J. L. Sonnenberg, D. Williams-Young, 
 F. Ding, F. Lipparini, F. Egidi, J. Goings, B. Peng, A. Petrone, 
 T. Henderson, D. Ranasinghe, V. G. Zakrzewski, J. Gao, N. Rega, 
 G. Zheng, W. Liang, M. Hada, M. Ehara, K. Toyota, R. Fukuda, 
 J. Hasegawa, M. Ishida, T. Nakajima, Y. Honda, O. Kitao, H. Nakai, 
 T. Vreven, K. Throssell, J. A. Montgomery, Jr., J. E. Peralta, 
 F. Ogliaro, M. J. Bearpark, J. J. Heyd, E. N. Brothers, K. N. Kudin, 
 V. N. Staroverov, T. A. Keith, R. Kobayashi, J. Normand, 
 K. Raghavachari, A. P. Rendell, J. C. Burant, S. S. Iyengar, 
 J. Tomasi, M. Cossi, J. M. Millam, M. Klene, C. Adamo, R. Cammi, 
 J. W. Ochterski, R. L. Martin, K. Morokuma, O. Farkas, 
 J. B. Foresman, and D. J. Fox, Gaussian, Inc., Wallingford CT, 2016.
 
 ******************************************
 Gaussian 16:  ES64L-G16RevA.03 25-Dec-2016
                11-Mar-2018 
 ******************************************
 %MEM=80GB
 %CPU=0-15
 SetSPE:  set environment variable "MP_BIND" = "yes"
 SetSPE:  set environment variable "MP_BLIST" = "0,1,2,3,4,5,6,7,8,9,10,11,12,13,14,15"
 Will use up to   16 processors via shared memory.
 %RWF=/scratch/04843/aannabe/gaussian/
 %Int=/scratch/04843/aannabe/gaussian/
 %D2E=/scratch/04843/aannabe/gaussian/
 %NoSave
 %CHK=TiO
 ----------------------------------------------------------------------
 #P ROCCSD(T)=(maxcyc=150, Full, SaveAmplitudes, ReadAmplitudes)/Gen 5d
  7f SCF=(maxcycles=300) Integral(NoXCTest) MaxDisk=500GB Pop=Regular P
 seudo=Read Guess=Read IOp(5/15=2)
 ----------------------------------------------------------------------
 1/38=1,172=1/1;
 2/12=2,17=6,18=5,40=1/2;
 3/5=7,8=11,11=2,16=1,17=8,25=1,30=1,47=8,116=101/1,2,3;
 4/5=1/1;
 5/5=2,7=300,15=2,38=6/2;
 8/5=-1,6=4,9=120000,10=90,24=1/1,4;
 9/5=7,6=150,14=2,77=1/13;
 6//1;
 99/5=1,9=1/99;
 Leave Link    1 at Sun Mar 11 05:40:24 2018, MaxMem= 10737418240 cpu:               5.0 elap:               0.3
 (Enter /home1/apps/gaussian/16rA.03/g16/l101.exe)
 ---
 TiO
 ---
 Symbolic Z-matrix:
 Charge =  0 Multiplicity = 3
 Ti                    0.        0.        0. 
 O                     0.        0.        1.9 
 
 ITRead=  0  0
 MicOpt= -1 -1
 NAtoms=      2 NQM=        2 NQMF=       0 NMMI=      0 NMMIF=      0
                NMic=       0 NMicF=      0.
                    Isotopes and Nuclear Properties:
 (Nuclear quadrupole moments (NQMom) in fm**2, nuclear magnetic moments (NMagM)
  in nuclear magnetons)

  Atom         1           2
 IAtWgt=          48          16
 AtmWgt=  47.9479467  15.9949146
 NucSpn=           0           0
 AtZEff=  -0.0000000  -0.0000000
 NQMom=    0.0000000   0.0000000
 NMagM=    0.0000000   0.0000000
 AtZNuc=  22.0000000   8.0000000
 Leave Link  101 at Sun Mar 11 05:40:24 2018, MaxMem= 10737418240 cpu:               1.5 elap:               0.1
 (Enter /home1/apps/gaussian/16rA.03/g16/l202.exe)
                          Input orientation:                          
 ---------------------------------------------------------------------
 Center     Atomic      Atomic             Coordinates (Angstroms)
 Number     Number       Type             X           Y           Z
 ---------------------------------------------------------------------
      1         22           0        0.000000    0.000000    0.000000
      2          8           0        0.000000    0.000000    1.900000
 ---------------------------------------------------------------------
 Stoichiometry    OTi(3)
 Framework group  C*V[C*(OTi)]
 Deg. of freedom     1
 Full point group                 C*V     NOp   4
 Largest Abelian subgroup         C2V     NOp   4
 Largest concise Abelian subgroup C1      NOp   1
                         Standard orientation:                         
 ---------------------------------------------------------------------
 Center     Atomic      Atomic             Coordinates (Angstroms)
 Number     Number       Type             X           Y           Z
 ---------------------------------------------------------------------
      1         22           0        0.000000    0.000000    0.506667
      2          8           0        0.000000    0.000000   -1.393333
 ---------------------------------------------------------------------
 Rotational constants (GHZ):           0.0000000          11.6721302          11.6721302
 Leave Link  202 at Sun Mar 11 05:40:25 2018, MaxMem= 10737418240 cpu:               0.4 elap:               0.1
 (Enter /home1/apps/gaussian/16rA.03/g16/l301.exe)
 General basis read from cards:  (5D, 7F)
 Centers:       1
 S 1 1.00
     Exponent=  3.0146430000D+06 Coefficients=  1.0000000000D+00
 S 1 1.00
     Exponent=  4.5143290000D+05 Coefficients=  1.0000000000D+00
 S 1 1.00
     Exponent=  1.0273380000D+05 Coefficients=  1.0000000000D+00
 S 1 1.00
     Exponent=  2.9098170000D+04 Coefficients=  1.0000000000D+00
 S 1 1.00
     Exponent=  9.4923300000D+03 Coefficients=  1.0000000000D+00
 S 1 1.00
     Exponent=  3.4263460000D+03 Coefficients=  1.0000000000D+00
 S 1 1.00
     Exponent=  1.3358960000D+03 Coefficients=  1.0000000000D+00
 S 1 1.00
     Exponent=  5.5350260000D+02 Coefficients=  1.0000000000D+00
 S 1 1.00
     Exponent=  2.4069250000D+02 Coefficients=  1.0000000000D+00
 S 1 1.00
     Exponent=  1.0872930000D+02 Coefficients=  1.0000000000D+00
 S 1 1.00
     Exponent=  5.0264570000D+01 Coefficients=  1.0000000000D+00
 S 1 1.00
     Exponent=  2.2580040000D+01 Coefficients=  1.0000000000D+00
 S 1 1.00
     Exponent=  1.0714320000D+01 Coefficients=  1.0000000000D+00
 S 1 1.00
     Exponent=  5.0935460000D+00 Coefficients=  1.0000000000D+00
 S 1 1.00
     Exponent=  2.2441830000D+00 Coefficients=  1.0000000000D+00
 S 1 1.00
     Exponent=  1.0595700000D+00 Coefficients=  1.0000000000D+00
 S 1 1.00
     Exponent=  4.6884900000D-01 Coefficients=  1.0000000000D+00
 S 1 1.00
     Exponent=  1.0614300000D-01 Coefficients=  1.0000000000D+00
 S 1 1.00
     Exponent=  5.5262000000D-02 Coefficients=  1.0000000000D+00
 S 1 1.00
     Exponent=  2.5465000000D-02 Coefficients=  1.0000000000D+00
 S 1 1.00
     Exponent=  2.9691000000D+00 Coefficients=  1.0000000000D+00
 S 1 1.00
     Exponent=  7.1050000000D-01 Coefficients=  1.0000000000D+00
 S 1 1.00
     Exponent=  1.1730000000D-02 Coefficients=  1.0000000000D+00
 P 1 1.00
     Exponent=  1.1912030000D+04 Coefficients=  1.0000000000D+00
 P 1 1.00
     Exponent=  2.8199470000D+03 Coefficients=  1.0000000000D+00
 P 1 1.00
     Exponent=  9.1594790000D+02 Coefficients=  1.0000000000D+00
 P 1 1.00
     Exponent=  3.5038420000D+02 Coefficients=  1.0000000000D+00
 P 1 1.00
     Exponent=  1.4848250000D+02 Coefficients=  1.0000000000D+00
 P 1 1.00
     Exponent=  6.7539440000D+01 Coefficients=  1.0000000000D+00
 P 1 1.00
     Exponent=  3.2303320000D+01 Coefficients=  1.0000000000D+00
 P 1 1.00
     Exponent=  1.5927860000D+01 Coefficients=  1.0000000000D+00
 P 1 1.00
     Exponent=  8.0380350000D+00 Coefficients=  1.0000000000D+00
 P 1 1.00
     Exponent=  4.0939160000D+00 Coefficients=  1.0000000000D+00
 P 1 1.00
     Exponent=  2.0223900000D+00 Coefficients=  1.0000000000D+00
 P 1 1.00
     Exponent=  9.7610200000D-01 Coefficients=  1.0000000000D+00
 P 1 1.00
     Exponent=  4.5959500000D-01 Coefficients=  1.0000000000D+00
 P 1 1.00
     Exponent=  1.7719500000D-01 Coefficients=  1.0000000000D+00
 P 1 1.00
     Exponent=  7.3442000000D-02 Coefficients=  1.0000000000D+00
 P 1 1.00
     Exponent=  2.9334000000D-02 Coefficients=  1.0000000000D+00
 P 1 1.00
     Exponent=  4.0234000000D+00 Coefficients=  1.0000000000D+00
 P 1 1.00
     Exponent=  9.4170000000D-01 Coefficients=  1.0000000000D+00
 P 1 1.00
     Exponent=  1.1720000000D-02 Coefficients=  1.0000000000D+00
 D 1 1.00
     Exponent=  6.4340200000D+01 Coefficients=  1.0000000000D+00
 D 1 1.00
     Exponent=  1.8841800000D+01 Coefficients=  1.0000000000D+00
 D 1 1.00
     Exponent=  6.7198300000D+00 Coefficients=  1.0000000000D+00
 D 1 1.00
     Exponent=  2.6561300000D+00 Coefficients=  1.0000000000D+00
 D 1 1.00
     Exponent=  1.0736800000D+00 Coefficients=  1.0000000000D+00
 D 1 1.00
     Exponent=  4.2055700000D-01 Coefficients=  1.0000000000D+00
 D 1 1.00
     Exponent=  1.5481700000D-01 Coefficients=  1.0000000000D+00
 D 1 1.00
     Exponent=  5.1490000000D-02 Coefficients=  1.0000000000D+00
 D 1 1.00
     Exponent=  2.3834000000D+00 Coefficients=  1.0000000000D+00
 D 1 1.00
     Exponent=  1.0775000000D+00 Coefficients=  1.0000000000D+00
 D 1 1.00
     Exponent=  1.7120000000D-02 Coefficients=  1.0000000000D+00
 F 1 1.00
     Exponent=  2.8376000000D+00 Coefficients=  1.0000000000D+00
 F 1 1.00
     Exponent=  9.6330000000D-01 Coefficients=  1.0000000000D+00
 F 1 1.00
     Exponent=  2.7880000000D-01 Coefficients=  1.0000000000D+00
 F 1 1.00
     Exponent=  8.0690000000D-02 Coefficients=  1.0000000000D+00
 G 1 1.00
     Exponent=  2.4639000000D+00 Coefficients=  1.0000000000D+00
 G 1 1.00
     Exponent=  7.0920000000D-01 Coefficients=  1.0000000000D+00
 G 1 1.00
     Exponent=  2.0413000000D-01 Coefficients=  1.0000000000D+00
 ****
 Centers:       2
 S 1 1.00
     Exponent=  1.5330000000D+04 Coefficients=  1.0000000000D+00
 S 1 1.00
     Exponent=  2.2990000000D+03 Coefficients=  1.0000000000D+00
 S 1 1.00
     Exponent=  5.2240000000D+02 Coefficients=  1.0000000000D+00
 S 1 1.00
     Exponent=  1.4730000000D+02 Coefficients=  1.0000000000D+00
 S 1 1.00
     Exponent=  4.7550000000D+01 Coefficients=  1.0000000000D+00
 S 1 1.00
     Exponent=  1.6760000000D+01 Coefficients=  1.0000000000D+00
 S 1 1.00
     Exponent=  6.2070000000D+00 Coefficients=  1.0000000000D+00
 S 1 1.00
     Exponent=  6.8820000000D-01 Coefficients=  1.0000000000D+00
 S 1 1.00
     Exponent=  1.7520000000D+00 Coefficients=  1.0000000000D+00
 S 1 1.00
     Exponent=  2.3840000000D-01 Coefficients=  1.0000000000D+00
 S 1 1.00
     Exponent=  7.8450000000D+00 Coefficients=  1.0000000000D+00
 S 1 1.00
     Exponent=  2.1032000000D+01 Coefficients=  1.0000000000D+00
 S 1 1.00
     Exponent=  7.3760000000D-02 Coefficients=  1.0000000000D+00
 P 1 1.00
     Exponent=  3.4460000000D+01 Coefficients=  1.0000000000D+00
 P 1 1.00
     Exponent=  7.7490000000D+00 Coefficients=  1.0000000000D+00
 P 1 1.00
     Exponent=  2.2800000000D+00 Coefficients=  1.0000000000D+00
 P 1 1.00
     Exponent=  7.1560000000D-01 Coefficients=  1.0000000000D+00
 P 1 1.00
     Exponent=  2.1400000000D-01 Coefficients=  1.0000000000D+00
 P 1 1.00
     Exponent=  1.5159000000D+01 Coefficients=  1.0000000000D+00
 P 1 1.00
     Exponent=  5.7437000000D+01 Coefficients=  1.0000000000D+00
 P 1 1.00
     Exponent=  5.9740000000D-02 Coefficients=  1.0000000000D+00
 D 1 1.00
     Exponent=  2.3140000000D+00 Coefficients=  1.0000000000D+00
 D 1 1.00
     Exponent=  6.4500000000D-01 Coefficients=  1.0000000000D+00
 D 1 1.00
     Exponent=  1.5858000000D+01 Coefficients=  1.0000000000D+00
 D 1 1.00
     Exponent=  2.1400000000D-01 Coefficients=  1.0000000000D+00
 F 1 1.00
     Exponent=  1.4280000000D+00 Coefficients=  1.0000000000D+00
 F 1 1.00
     Exponent=  5.0000000000D-01 Coefficients=  1.0000000000D+00
 ****
 ======================================================================================================
                                       Pseudopotential Parameters
 ======================================================================================================
  Center     Atomic      Valence      Angular      Power
  Number     Number     Electrons     Momentum     of R      Exponent        Coefficient   SO-Coeffient
 ======================================================================================================
    1         22           12
                                      D and up 
                                                     1       18.3957211       12.00000000    0.00000000
                                                     3       15.9450465      220.74865297    0.00000000
                                                     2       13.6293983      -94.28615824    0.00000000
                                                     2        5.0662686        0.18389023    0.00000000
                                      S - D
                                                     2       12.6984199      173.94228257    0.00000000
                                                     2        6.1746277       18.86342128    0.00000000
                                      P - D
                                                     2       12.6463478      111.45427009    0.00000000
                                                     2        5.3343546       11.15285659    0.00000000
    2          8            6
                                      P and up 
                                                     1       12.3099700        6.00000000    0.00000000
                                                     3       14.7696200       73.85984000    0.00000000
                                                     2       13.7141900      -47.87600000    0.00000000
                                      S - P
                                                     2       13.6551200       85.86406000    0.00000000
 ======================================================================================================
 Ernie: Thresh=  0.10000D-02 Tol=  0.10000D-05 Strict=F.
 There are   144 symmetry adapted cartesian basis functions of A1  symmetry.
 There are    30 symmetry adapted cartesian basis functions of A2  symmetry.
 There are    69 symmetry adapted cartesian basis functions of B1  symmetry.
 There are    69 symmetry adapted cartesian basis functions of B2  symmetry.
 There are   114 symmetry adapted basis functions of A1  symmetry.
 There are    27 symmetry adapted basis functions of A2  symmetry.
 There are    60 symmetry adapted basis functions of B1  symmetry.
 There are    60 symmetry adapted basis functions of B2  symmetry.
   261 basis functions,   312 primitive gaussians,   312 cartesian basis functions
    10 alpha electrons        8 beta electrons
       nuclear repulsion energy        20.0530311507 Hartrees.
 IExCor=    0 DFT=F Ex=HF Corr=None ExCW=0 ScaHFX=  1.000000
 ScaDFX=  1.000000  1.000000  1.000000  1.000000 ScalE2=  1.000000  1.000000
 IRadAn=      5 IRanWt=     -1 IRanGd=            0 ICorTp=0 IEmpDi=  4
 NAtoms=    2 NActive=    2 NUniq=    2 SFac= 1.00D+00 NAtFMM=   60 NAOKFM=F Big=F
 Integral buffers will be    131072 words long.
 Raffenetti 2 integral format.
 Two-electron integral symmetry is turned on.
 Leave Link  301 at Sun Mar 11 05:40:25 2018, MaxMem= 10737418240 cpu:               4.0 elap:               0.3
 (Enter /home1/apps/gaussian/16rA.03/g16/l302.exe)
 NPDir=0 NMtPBC=     1 NCelOv=     1 NCel=       1 NClECP=     1 NCelD=      1
         NCelK=      1 NCelE2=     1 NClLst=     1 CellRange=     0.0.
 One-electron integrals computed using PRISM.
 One-electron integral symmetry used in STVInt
   4 Symmetry operations used in ECPInt.
 ECPInt:  NShTT=    3828 NPrTT=    3828 LenC2=    3504 LenP2D=    3503.
 LDataN:  DoStor=T MaxTD1= 8 Len=  415
 NBasis=   261 RedAO= T EigKep=  1.90D-06  NBF=   114    27    60    60
 NBsUse=   253 1.00D-06 EigRej=  9.80D-08 NBFU=   111    26    58    58
 Leave Link  302 at Sun Mar 11 05:40:27 2018, MaxMem= 10737418240 cpu:              15.1 elap:               1.0
 (Enter /home1/apps/gaussian/16rA.03/g16/l303.exe)
 DipDrv:  MaxL=1.
 Leave Link  303 at Sun Mar 11 05:40:27 2018, MaxMem= 10737418240 cpu:               1.1 elap:               0.1
 (Enter /home1/apps/gaussian/16rA.03/g16/l401.exe)
 Initial guess from the checkpoint file:  "TiO.chk"
 B after Tr=     0.000000    0.000000    0.000000
         Rot=    1.000000    0.000000    0.000000    0.000000 Ang=   0.00 deg.
 Guess basis will be translated and rotated to current coordinates.
 GSVD:  received Info=                   1 from GESDD.
 JPrj=2 DoOrth=T DoCkMO=T.
 Initial guess orbital symmetries:
       Occupied  (SG) (SG) (PI) (PI) (SG) (SG) (PI) (PI) (SG) (?A)
       Virtual   (PI) (PI) (SG) (SG) (PI) (PI) (?A) (SG) (?A) (PI)
                 (PI) (SG) (?A) (SG) (SG) (PI) (PI) (?A) (PI) (PI)
                 (SG) (?A) (PI) (PI) (SG) (PI) (PI) (PHI) (PHI)
                 (SG) (DLTA) (DLTA) (SG) (PI) (PI) (SG) (SG) (?A)
                 (PI) (PI) (?A) (PI) (PI) (SG) (SG) (DLTA) (DLTA)
                 (PI) (PI) (SG) (?B) (?B) (PHI) (PHI) (DLTA) (DLTA)
                 (?C) (?C) (?C) (?C) (SG) (SG) (?A) (?A) (PI) (PI)
                 (SG) (PI) (PI) (SG) (PI) (PI) (?A) (SG) (?A) (PI)
                 (PI) (SG) (PHI) (PHI) (SG) (DLTA) (DLTA) (PI)
                 (PI) (?A) (?A) (SG) (SG) (PI) (PI) (?C) (?C) (DLTA)
                 (DLTA) (?B) (?B) (PHI) (PHI) (?C) (?C) (DLTA)
                 (DLTA) (SG) (SG) (PI) (PI) (SG) (PI) (PI) (PI)
                 (PI) (SG) (DLTA) (DLTA) (SG) (PI) (PI) (SG) (SG)
                 (PHI) (PHI) (?A) (?A) (PI) (PI) (DLTA) (DLTA)
                 (SG) (PI) (PI) (SG) (SG) (?C) (?C) (DLTA) (DLTA)
                 (?C) (?C) (PI) (PI) (SG) (SG) (PHI) (PHI) (?B)
                 (?B) (DLTA) (DLTA) (PI) (PI) (SG) (DLTA) (DLTA)
                 (PI) (PI) (SG) (PI) (PI) (SG) (SG) (SG) (PI) (PI)
                 (SG) (DLTA) (DLTA) (PI) (PI) (SG) (SG) (PI) (PI)
                 (SG) (SG) (DLTA) (DLTA) (PI) (PI) (SG) (PI) (PI)
                 (SG) (SG) (DLTA) (DLTA) (PI) (PI) (SG) (SG) (PI)
                 (PI) (SG) (SG) (PI) (PI) (SG) (SG) (PI) (PI) (SG)
                 (SG) (DLTA) (DLTA) (PI) (PI) (SG) (SG) (PI) (PI)
                 (SG) (PI) (PI) (SG) (SG) (SG) (PI) (PI) (SG) (SG)
                 (PI) (PI) (SG) (SG) (SG) (PI) (PI) (SG) (SG) (SG)
                 (PI) (PI) (SG) (SG) (SG) (SG) (PI) (PI) (SG) (SG)
                 (SG) (SG) (SG)
 Leave Link  401 at Sun Mar 11 05:40:28 2018, MaxMem= 10737418240 cpu:               7.4 elap:               0.5
 (Enter /home1/apps/gaussian/16rA.03/g16/l502.exe)
 Keep R1 and R2 ints in memory in symmetry-blocked form, NReq=734602573.
 FoFCou: FMM=F IPFlag=           8 FMFlag=           0 FMFlg1=           0
         NFxFlg=           0 DoJE=F BraDBF=F KetDBF=F FulRan=T
         wScrn=  0.000000 ICntrl=       600 IOpCl=  0 I1Cent=           0 NGrid=           0
         NMat0=    1 NMatS0=  34191 NMatT0=    0 NMatD0=    1 NMtDS0=    0 NMtDT0=    0
 Petite list used in FoFCou.
 Restricted open shell SCF:
 Using DIIS extrapolation, IDIIS=  1040.
 NGot= 10737418240 LenX= 10437151885 LenY= 10437054100
 Requested convergence on RMS density matrix=1.00D-08 within 300 cycles.
 Requested convergence on MAX density matrix=1.00D-06.
 Requested convergence on             energy=1.00D-06.
 No special actions if energy rises.

 Cycle   1  Pass 1  IDiag  1:
 E= -72.8520777780203    
 DIIS: error= 5.12D-01 at cycle   1 NSaved=   1.
 NSaved= 1 IEnMin= 1 EnMin= -72.8520777780203     IErMin= 1 ErrMin= 5.12D-01
 ErrMax= 5.12D-01  0.00D+00 EMaxC= 1.00D-01 BMatC= 1.86D+01 BMatP= 1.86D+01
 IDIUse=3 WtCom= 0.00D+00 WtEn= 1.00D+00
 Coeff-Com:  0.100D+01
 Coeff-En:   0.100D+01
 Coeff:      0.100D+01
 Gap=     0.123 Goal=   None    Shift=    0.000
 GapD=    0.123 DampG=1.000 DampE=0.125 DampFc=0.1250 IDamp=-1.
 Damping current iteration by 1.25D-01
 RMSDP=8.23D-03 MaxDP=8.37D-01              OVMax= 4.98D-02

 Cycle   2  Pass 1  IDiag  1:
 E= -72.9116575154832     Delta-E=       -0.059579737463 Rises=F Damp=T
 DIIS: error= 4.49D-01 at cycle   2 NSaved=   2.
 NSaved= 2 IEnMin= 2 EnMin= -72.9116575154832     IErMin= 2 ErrMin= 4.49D-01
 ErrMax= 4.49D-01  0.00D+00 EMaxC= 1.00D-01 BMatC= 1.43D+01 BMatP= 1.86D+01
 IDIUse=3 WtCom= 0.00D+00 WtEn= 1.00D+00
 Coeff-Com: -0.708D+01 0.808D+01
 Coeff-En:   0.000D+00 0.100D+01
 Coeff:      0.000D+00 0.100D+01
 Gap=     0.098 Goal=   None    Shift=    0.000
 RMSDP=7.21D-03 MaxDP=7.32D-01 DE=-5.96D-02 OVMax= 4.82D-02

 Cycle   3  Pass 1  IDiag  1:
 E= -73.3373275975025     Delta-E=       -0.425670082019 Rises=F Damp=F
 DIIS: error= 7.12D-03 at cycle   3 NSaved=   3.
 NSaved= 3 IEnMin= 3 EnMin= -73.3373275975025     IErMin= 3 ErrMin= 7.12D-03
 ErrMax= 7.12D-03  0.00D+00 EMaxC= 1.00D-01 BMatC= 5.93D-03 BMatP= 1.43D+01
 IDIUse=3 WtCom= 9.29D-01 WtEn= 7.12D-02
 Coeff-Com: -0.697D+00 0.782D+00 0.915D+00
 Coeff-En:   0.000D+00 0.000D+00 0.100D+01
 Coeff:     -0.647D+00 0.726D+00 0.921D+00
 Gap=     0.098 Goal=   None    Shift=    0.000
 RMSDP=4.88D-04 MaxDP=3.06D-02 DE=-4.26D-01 OVMax= 3.74D-02

 Cycle   4  Pass 1  IDiag  1:
 E= -73.3393420451649     Delta-E=       -0.002014447662 Rises=F Damp=F
 DIIS: error= 5.04D-03 at cycle   4 NSaved=   4.
 NSaved= 4 IEnMin= 4 EnMin= -73.3393420451649     IErMin= 4 ErrMin= 5.04D-03
 ErrMax= 5.04D-03  0.00D+00 EMaxC= 1.00D-01 BMatC= 2.77D-03 BMatP= 5.93D-03
 IDIUse=3 WtCom= 9.50D-01 WtEn= 5.04D-02
 Coeff-Com: -0.880D+00 0.998D+00 0.365D+00 0.517D+00
 Coeff-En:   0.000D+00 0.000D+00 0.131D+00 0.869D+00
 Coeff:     -0.836D+00 0.948D+00 0.353D+00 0.534D+00
 Gap=     0.098 Goal=   None    Shift=    0.000
 RMSDP=2.34D-04 MaxDP=1.65D-02 DE=-2.01D-03 OVMax= 3.53D-02

 Cycle   5  Pass 1  IDiag  1:
 E= -73.3408813514833     Delta-E=       -0.001539306318 Rises=F Damp=F
 DIIS: error= 4.49D-03 at cycle   5 NSaved=   5.
 NSaved= 5 IEnMin= 5 EnMin= -73.3408813514833     IErMin= 5 ErrMin= 4.49D-03
 ErrMax= 4.49D-03  0.00D+00 EMaxC= 1.00D-01 BMatC= 4.09D-04 BMatP= 2.77D-03
 IDIUse=3 WtCom= 9.55D-01 WtEn= 4.49D-02
 Coeff-Com: -0.706D+00 0.808D+00-0.200D+00 0.185D+00 0.913D+00
 Coeff-En:   0.000D+00 0.000D+00 0.000D+00 0.152D+00 0.848D+00
 Coeff:     -0.674D+00 0.772D+00-0.191D+00 0.183D+00 0.910D+00
 Gap=     0.099 Goal=   None    Shift=    0.000
 RMSDP=1.13D-04 MaxDP=1.17D-02 DE=-1.54D-03 OVMax= 2.98D-02

 Cycle   6  Pass 1  IDiag  1:
 E= -73.3415961887680     Delta-E=       -0.000714837285 Rises=F Damp=F
 DIIS: error= 2.93D-03 at cycle   6 NSaved=   6.
 NSaved= 6 IEnMin= 6 EnMin= -73.3415961887680     IErMin= 6 ErrMin= 2.93D-03
 ErrMax= 2.93D-03  0.00D+00 EMaxC= 1.00D-01 BMatC= 1.94D-04 BMatP= 4.09D-04
 IDIUse=3 WtCom= 9.71D-01 WtEn= 2.93D-02
 Coeff-Com: -0.605D+00 0.693D+00-0.192D+00 0.596D-01 0.524D+00 0.520D+00
 Coeff-En:   0.000D+00 0.000D+00 0.000D+00 0.000D+00 0.000D+00 0.100D+01
 Coeff:     -0.588D+00 0.673D+00-0.186D+00 0.578D-01 0.509D+00 0.534D+00
 Gap=     0.099 Goal=   None    Shift=    0.000
 RMSDP=6.09D-05 MaxDP=8.44D-03 DE=-7.15D-04 OVMax= 1.85D-02

 Cycle   7  Pass 1  IDiag  1:
 E= -73.3417629905449     Delta-E=       -0.000166801777 Rises=F Damp=F
 DIIS: error= 3.29D-03 at cycle   7 NSaved=   7.
 NSaved= 7 IEnMin= 7 EnMin= -73.3417629905449     IErMin= 6 ErrMin= 2.93D-03
 ErrMax= 3.29D-03  0.00D+00 EMaxC= 1.00D-01 BMatC= 1.38D-04 BMatP= 1.94D-04
 IDIUse=3 WtCom= 9.71D-01 WtEn= 2.93D-02
 Coeff-Com: -0.481D+00 0.550D+00-0.932D-01-0.634D-01-0.179D+00 0.228D+00
 Coeff-Com:  0.104D+01
 Coeff-En:   0.000D+00 0.000D+00 0.000D+00 0.000D+00 0.000D+00 0.930D-01
 Coeff-En:   0.907D+00
 Coeff:     -0.467D+00 0.534D+00-0.904D-01-0.615D-01-0.173D+00 0.224D+00
 Coeff:      0.103D+01
 Gap=     0.100 Goal=   None    Shift=    0.000
 RMSDP=5.41D-05 MaxDP=5.46D-03 DE=-1.67D-04 OVMax= 8.00D-03

 Cycle   8  Pass 1  IDiag  1:
 E= -73.3419841641713     Delta-E=       -0.000221173626 Rises=F Damp=F
 DIIS: error= 2.10D-03 at cycle   8 NSaved=   8.
 NSaved= 8 IEnMin= 8 EnMin= -73.3419841641713     IErMin= 8 ErrMin= 2.10D-03
 ErrMax= 2.10D-03  0.00D+00 EMaxC= 1.00D-01 BMatC= 6.44D-05 BMatP= 1.38D-04
 IDIUse=3 WtCom= 9.79D-01 WtEn= 2.10D-02
 Coeff-Com: -0.373D+00 0.426D+00-0.514D-01-0.124D-01-0.127D+00-0.526D-01
 Coeff-Com:  0.334D+00 0.856D+00
 Coeff-En:   0.000D+00 0.000D+00 0.000D+00 0.000D+00 0.000D+00 0.000D+00
 Coeff-En:   0.000D+00 0.100D+01
 Coeff:     -0.365D+00 0.417D+00-0.504D-01-0.122D-01-0.124D+00-0.515D-01
 Coeff:      0.327D+00 0.859D+00
 Gap=     0.100 Goal=   None    Shift=    0.000
 RMSDP=2.92D-05 MaxDP=3.77D-03 DE=-2.21D-04 OVMax= 6.10D-03

 Cycle   9  Pass 1  IDiag  1:
 E= -73.3420750287640     Delta-E=       -0.000090864593 Rises=F Damp=F
 DIIS: error= 1.69D-03 at cycle   9 NSaved=   9.
 NSaved= 9 IEnMin= 9 EnMin= -73.3420750287640     IErMin= 9 ErrMin= 1.69D-03
 ErrMax= 1.69D-03  0.00D+00 EMaxC= 1.00D-01 BMatC= 3.95D-05 BMatP= 6.44D-05
 IDIUse=3 WtCom= 9.83D-01 WtEn= 1.69D-02
 Coeff-Com: -0.159D+00 0.182D+00-0.283D-01 0.288D-01 0.632D-01-0.463D-01
 Coeff-Com: -0.277D+00-0.118D+01 0.241D+01
 Coeff-En:   0.000D+00 0.000D+00 0.000D+00 0.000D+00 0.000D+00 0.000D+00
 Coeff-En:   0.000D+00 0.000D+00 0.100D+01
 Coeff:     -0.156D+00 0.179D+00-0.278D-01 0.284D-01 0.621D-01-0.456D-01
 Coeff:     -0.273D+00-0.116D+01 0.239D+01
 Gap=     0.101 Goal=   None    Shift=    0.000
 RMSDP=6.47D-05 MaxDP=6.15D-03 DE=-9.09D-05 OVMax= 1.26D-02

 Cycle  10  Pass 1  IDiag  1:
 E= -73.3421865767639     Delta-E=       -0.000111548000 Rises=F Damp=F
 DIIS: error= 7.16D-04 at cycle  10 NSaved=  10.
 NSaved=10 IEnMin=10 EnMin= -73.3421865767639     IErMin=10 ErrMin= 7.16D-04
 ErrMax= 7.16D-04  0.00D+00 EMaxC= 1.00D-01 BMatC= 7.83D-06 BMatP= 3.95D-05
 IDIUse=3 WtCom= 9.93D-01 WtEn= 7.16D-03
 Coeff-Com: -0.473D-01 0.541D-01-0.120D-01 0.557D-03 0.140D-01 0.384D-01
 Coeff-Com:  0.296D-01-0.581D+00 0.171D+00 0.133D+01
 Coeff-En:   0.000D+00 0.000D+00 0.000D+00 0.000D+00 0.000D+00 0.000D+00
 Coeff-En:   0.000D+00 0.000D+00 0.000D+00 0.100D+01
 Coeff:     -0.469D-01 0.537D-01-0.119D-01 0.553D-03 0.139D-01 0.382D-01
 Coeff:      0.294D-01-0.577D+00 0.170D+00 0.133D+01
 Gap=     0.101 Goal=   None    Shift=    0.000
 RMSDP=4.27D-05 MaxDP=5.15D-03 DE=-1.12D-04 OVMax= 8.93D-03

 Cycle  11  Pass 1  IDiag  1:
 E= -73.3422152650549     Delta-E=       -0.000028688291 Rises=F Damp=F
 DIIS: error= 1.95D-04 at cycle  11 NSaved=  11.
 NSaved=11 IEnMin=11 EnMin= -73.3422152650549     IErMin=11 ErrMin= 1.95D-04
 ErrMax= 1.95D-04  0.00D+00 EMaxC= 1.00D-01 BMatC= 7.10D-07 BMatP= 7.83D-06
 IDIUse=3 WtCom= 9.98D-01 WtEn= 1.95D-03
 Coeff-Com: -0.144D-01 0.164D-01-0.208D-02-0.121D-01-0.394D-01 0.362D-01
 Coeff-Com:  0.186D+00 0.229D+00-0.777D+00 0.300D+00 0.108D+01
 Coeff-En:   0.000D+00 0.000D+00 0.000D+00 0.000D+00 0.000D+00 0.000D+00
 Coeff-En:   0.000D+00 0.000D+00 0.000D+00 0.000D+00 0.100D+01
 Coeff:     -0.144D-01 0.164D-01-0.207D-02-0.121D-01-0.394D-01 0.361D-01
 Coeff:      0.186D+00 0.228D+00-0.776D+00 0.300D+00 0.108D+01
 Gap=     0.102 Goal=   None    Shift=    0.000
 RMSDP=2.52D-05 MaxDP=3.22D-03 DE=-2.87D-05 OVMax= 3.62D-03

 Cycle  12  Pass 1  IDiag  1:
 E= -73.3422188000854     Delta-E=       -0.000003535031 Rises=F Damp=F
 DIIS: error= 5.04D-05 at cycle  12 NSaved=  12.
 NSaved=12 IEnMin=12 EnMin= -73.3422188000854     IErMin=12 ErrMin= 5.04D-05
 ErrMax= 5.04D-05  0.00D+00 EMaxC= 1.00D-01 BMatC= 1.15D-07 BMatP= 7.10D-07
 IDIUse=1 WtCom= 1.00D+00 WtEn= 0.00D+00
 Coeff-Com: -0.687D-02 0.783D-02-0.406D-04-0.219D-02-0.147D-01 0.170D-02
 Coeff-Com:  0.392D-01 0.888D-01-0.106D-01-0.357D+00-0.450D-02 0.126D+01
 Coeff:     -0.687D-02 0.783D-02-0.406D-04-0.219D-02-0.147D-01 0.170D-02
 Coeff:      0.392D-01 0.888D-01-0.106D-01-0.357D+00-0.450D-02 0.126D+01
 Gap=     0.102 Goal=   None    Shift=    0.000
 RMSDP=7.39D-06 MaxDP=6.99D-04 DE=-3.54D-06 OVMax= 2.12D-03

 Cycle  13  Pass 1  IDiag  1:
 E= -73.3422197034744     Delta-E=       -0.000000903389 Rises=F Damp=F
 DIIS: error= 3.18D-05 at cycle  13 NSaved=  13.
 NSaved=13 IEnMin=13 EnMin= -73.3422197034744     IErMin=13 ErrMin= 3.18D-05
 ErrMax= 3.18D-05  0.00D+00 EMaxC= 1.00D-01 BMatC= 6.33D-08 BMatP= 1.15D-07
 IDIUse=1 WtCom= 1.00D+00 WtEn= 0.00D+00
 Coeff-Com: -0.116D-01 0.132D-01-0.157D-02 0.301D-02 0.513D-02-0.918D-02
 Coeff-Com: -0.427D-01-0.102D+00 0.390D+00-0.292D+00-0.518D+00 0.712D+00
 Coeff-Com:  0.854D+00
 Coeff:     -0.116D-01 0.132D-01-0.157D-02 0.301D-02 0.513D-02-0.918D-02
 Coeff:     -0.427D-01-0.102D+00 0.390D+00-0.292D+00-0.518D+00 0.712D+00
 Coeff:      0.854D+00
 Gap=     0.102 Goal=   None    Shift=    0.000
 RMSDP=5.12D-06 MaxDP=4.19D-04 DE=-9.03D-07 OVMax= 8.91D-04

 Cycle  14  Pass 1  IDiag  1:
 E= -73.3422199235769     Delta-E=       -0.000000220103 Rises=F Damp=F
 DIIS: error= 5.42D-05 at cycle  14 NSaved=  14.
 NSaved=14 IEnMin=14 EnMin= -73.3422199235769     IErMin=13 ErrMin= 3.18D-05
 ErrMax= 5.42D-05  0.00D+00 EMaxC= 1.00D-01 BMatC= 7.91D-08 BMatP= 6.33D-08
 IDIUse=1 WtCom= 1.00D+00 WtEn= 0.00D+00
 Coeff-Com: -0.178D-01 0.204D-01-0.354D-02 0.432D-02 0.152D-01-0.854D-02
 Coeff-Com: -0.675D-01-0.205D+00 0.442D+00 0.109D-01-0.574D+00-0.293D+00
 Coeff-Com:  0.882D+00 0.795D+00
 Coeff:     -0.178D-01 0.204D-01-0.354D-02 0.432D-02 0.152D-01-0.854D-02
 Coeff:     -0.675D-01-0.205D+00 0.442D+00 0.109D-01-0.574D+00-0.293D+00
 Coeff:      0.882D+00 0.795D+00
 Gap=     0.101 Goal=   None    Shift=    0.000
 RMSDP=4.05D-06 MaxDP=2.41D-04 DE=-2.20D-07 OVMax= 8.91D-04

 Cycle  15  Pass 1  IDiag  1:
 E= -73.3422200712873     Delta-E=       -0.000000147710 Rises=F Damp=F
 DIIS: error= 7.91D-05 at cycle  15 NSaved=  15.
 NSaved=15 IEnMin=15 EnMin= -73.3422200712873     IErMin=13 ErrMin= 3.18D-05
 ErrMax= 7.91D-05  0.00D+00 EMaxC= 1.00D-01 BMatC= 8.96D-08 BMatP= 6.33D-08
 IDIUse=1 WtCom= 1.00D+00 WtEn= 0.00D+00
 Coeff-Com: -0.144D-01 0.164D-01-0.268D-02 0.203D-03 0.197D-02 0.476D-03
 Coeff-Com: -0.197D-02-0.474D-01 0.207D-01 0.115D+00-0.635D-01-0.327D+00
 Coeff-Com:  0.709D-01 0.255D+00 0.977D+00
 Coeff:     -0.144D-01 0.164D-01-0.268D-02 0.203D-03 0.197D-02 0.476D-03
 Coeff:     -0.197D-02-0.474D-01 0.207D-01 0.115D+00-0.635D-01-0.327D+00
 Coeff:      0.709D-01 0.255D+00 0.977D+00
 Gap=     0.102 Goal=   None    Shift=    0.000
 RMSDP=2.90D-06 MaxDP=2.25D-04 DE=-1.48D-07 OVMax= 6.43D-04

 Cycle  16  Pass 1  IDiag  1:
 E= -73.3422202349749     Delta-E=       -0.000000163688 Rises=F Damp=F
 DIIS: error= 6.48D-05 at cycle  16 NSaved=  16.
 NSaved=16 IEnMin=16 EnMin= -73.3422202349749     IErMin=13 ErrMin= 3.18D-05
 ErrMax= 6.48D-05  0.00D+00 EMaxC= 1.00D-01 BMatC= 6.00D-08 BMatP= 6.33D-08
 IDIUse=1 WtCom= 1.00D+00 WtEn= 0.00D+00
 Coeff-Com: -0.120D-01 0.137D-01-0.208D-02-0.112D-02-0.321D-02 0.300D-02
 Coeff-Com:  0.199D-01 0.116D-01-0.105D+00 0.107D+00 0.839D-01-0.223D+00
 Coeff-Com: -0.145D+00 0.258D-01 0.761D+00 0.464D+00
 Coeff:     -0.120D-01 0.137D-01-0.208D-02-0.112D-02-0.321D-02 0.300D-02
 Coeff:      0.199D-01 0.116D-01-0.105D+00 0.107D+00 0.839D-01-0.223D+00
 Coeff:     -0.145D+00 0.258D-01 0.761D+00 0.464D+00
 Gap=     0.102 Goal=   None    Shift=    0.000
 RMSDP=1.90D-06 MaxDP=1.95D-04 DE=-1.64D-07 OVMax= 2.82D-04

 Cycle  17  Pass 1  IDiag  1:
 E= -73.3422203098769     Delta-E=       -0.000000074902 Rises=F Damp=F
 DIIS: error= 5.49D-05 at cycle  17 NSaved=  17.
 NSaved=17 IEnMin=17 EnMin= -73.3422203098769     IErMin=13 ErrMin= 3.18D-05
 ErrMax= 5.49D-05  0.00D+00 EMaxC= 1.00D-01 BMatC= 3.99D-08 BMatP= 6.00D-08
 IDIUse=1 WtCom= 1.00D+00 WtEn= 0.00D+00
 Coeff-Com: -0.662D-02 0.757D-02-0.890D-03-0.952D-03-0.491D-02 0.170D-02
 Coeff-Com:  0.181D-01 0.291D-01-0.601D-01-0.568D-02 0.247D-01 0.779D-01
 Coeff-Com:  0.787D-03-0.887D-01-0.598D+00 0.679D-01 0.154D+01
 Coeff:     -0.662D-02 0.757D-02-0.890D-03-0.952D-03-0.491D-02 0.170D-02
 Coeff:      0.181D-01 0.291D-01-0.601D-01-0.568D-02 0.247D-01 0.779D-01
 Coeff:      0.787D-03-0.887D-01-0.598D+00 0.679D-01 0.154D+01
 Gap=     0.102 Goal=   None    Shift=    0.000
 RMSDP=1.56D-06 MaxDP=1.69D-04 DE=-7.49D-08 OVMax= 4.48D-04

 Cycle  18  Pass 1  IDiag  1:
 E= -73.3422204028633     Delta-E=       -0.000000092986 Rises=F Damp=F
 DIIS: error= 3.03D-05 at cycle  18 NSaved=  18.
 NSaved=18 IEnMin=18 EnMin= -73.3422204028633     IErMin=18 ErrMin= 3.03D-05
 ErrMax= 3.03D-05  0.00D+00 EMaxC= 1.00D-01 BMatC= 1.25D-08 BMatP= 3.99D-08
 IDIUse=1 WtCom= 1.00D+00 WtEn= 0.00D+00
 Coeff-Com: -0.191D-02 0.218D-02-0.341D-03 0.220D-03 0.924D-03-0.502D-03
 Coeff-Com: -0.426D-02-0.127D-01 0.269D-01-0.229D-02-0.371D-01-0.550D-02
 Coeff-Com:  0.721D-01 0.472D-01-0.129D+00-0.178D+00-0.339D+00 0.156D+01
 Coeff:     -0.191D-02 0.218D-02-0.341D-03 0.220D-03 0.924D-03-0.502D-03
 Coeff:     -0.426D-02-0.127D-01 0.269D-01-0.229D-02-0.371D-01-0.550D-02
 Coeff:      0.721D-01 0.472D-01-0.129D+00-0.178D+00-0.339D+00 0.156D+01
 Gap=     0.102 Goal=   None    Shift=    0.000
 RMSDP=1.44D-06 MaxDP=1.31D-04 DE=-9.30D-08 OVMax= 3.48D-04

 Cycle  19  Pass 1  IDiag  1:
 E= -73.3422204390158     Delta-E=       -0.000000036153 Rises=F Damp=F
 DIIS: error= 8.90D-06 at cycle  19 NSaved=  19.
 NSaved=19 IEnMin=19 EnMin= -73.3422204390158     IErMin=19 ErrMin= 8.90D-06
 ErrMax= 8.90D-06  0.00D+00 EMaxC= 1.00D-01 BMatC= 1.02D-09 BMatP= 1.25D-08
 IDIUse=1 WtCom= 1.00D+00 WtEn= 0.00D+00
 Coeff-Com: -0.517D-03 0.592D-03-0.118D-03 0.160D-03 0.796D-03-0.350D-03
 Coeff-Com: -0.310D-02-0.812D-02 0.142D-01 0.446D-02-0.159D-01-0.192D-01
 Coeff-Com:  0.273D-01 0.335D-01 0.464D-01-0.778D-01-0.374D+00 0.512D+00
 Coeff-Com:  0.859D+00
 Coeff:     -0.517D-03 0.592D-03-0.118D-03 0.160D-03 0.796D-03-0.350D-03
 Coeff:     -0.310D-02-0.812D-02 0.142D-01 0.446D-02-0.159D-01-0.192D-01
 Coeff:      0.273D-01 0.335D-01 0.464D-01-0.778D-01-0.374D+00 0.512D+00
 Coeff:      0.859D+00
 Gap=     0.102 Goal=   None    Shift=    0.000
 RMSDP=4.37D-07 MaxDP=3.59D-05 DE=-3.62D-08 OVMax= 8.85D-05

 Cycle  20  Pass 1  IDiag  1:
 E= -73.3422204417735     Delta-E=       -0.000000002758 Rises=F Damp=F
 DIIS: error= 2.34D-06 at cycle  20 NSaved=  20.
 NSaved=20 IEnMin=20 EnMin= -73.3422204417735     IErMin=20 ErrMin= 2.34D-06
 ErrMax= 2.34D-06  0.00D+00 EMaxC= 1.00D-01 BMatC= 8.46D-11 BMatP= 1.02D-09
 IDIUse=1 WtCom= 1.00D+00 WtEn= 0.00D+00
 Coeff-Com: -0.676D-04 0.774D-04-0.247D-04 0.468D-04 0.264D-03-0.114D-03
 Coeff-Com: -0.876D-03-0.225D-02 0.251D-02 0.412D-02-0.234D-02-0.125D-01
 Coeff-Com:  0.242D-02 0.124D-01 0.602D-01-0.126D-01-0.177D+00-0.169D-01
 Coeff-Com:  0.571D+00 0.571D+00
 Coeff:     -0.676D-04 0.774D-04-0.247D-04 0.468D-04 0.264D-03-0.114D-03
 Coeff:     -0.876D-03-0.225D-02 0.251D-02 0.412D-02-0.234D-02-0.125D-01
 Coeff:      0.242D-02 0.124D-01 0.602D-01-0.126D-01-0.177D+00-0.169D-01
 Coeff:      0.571D+00 0.571D+00
 Gap=     0.102 Goal=   None    Shift=    0.000
 RMSDP=1.75D-07 MaxDP=1.52D-05 DE=-2.76D-09 OVMax= 2.86D-05

 Cycle  21  Pass 1  IDiag  1:
 E= -73.3422204420098     Delta-E=       -0.000000000236 Rises=F Damp=F
 DIIS: error= 3.10D-07 at cycle  21 NSaved=  20.
 NSaved=20 IEnMin=20 EnMin= -73.3422204420098     IErMin=20 ErrMin= 3.10D-07
 ErrMax= 3.10D-07  0.00D+00 EMaxC= 1.00D-01 BMatC= 2.15D-12 BMatP= 8.46D-11
 IDIUse=1 WtCom= 1.00D+00 WtEn= 0.00D+00
 Coeff-Com: -0.368D-07 0.260D-05-0.164D-04-0.801D-04 0.224D-04 0.371D-03
 Coeff-Com:  0.971D-03-0.210D-02 0.628D-03 0.185D-02-0.122D-02-0.403D-02
 Coeff-Com: -0.173D-02 0.116D-01 0.107D-01 0.125D-01-0.103D+00 0.262D-01
 Coeff-Com:  0.213D+00 0.835D+00
 Coeff:     -0.368D-07 0.260D-05-0.164D-04-0.801D-04 0.224D-04 0.371D-03
 Coeff:      0.971D-03-0.210D-02 0.628D-03 0.185D-02-0.122D-02-0.403D-02
 Coeff:     -0.173D-02 0.116D-01 0.107D-01 0.125D-01-0.103D+00 0.262D-01
 Coeff:      0.213D+00 0.835D+00
 Gap=     0.102 Goal=   None    Shift=    0.000
 RMSDP=5.26D-08 MaxDP=4.58D-06 DE=-2.36D-10 OVMax= 6.42D-06

 Cycle  22  Pass 1  IDiag  1:
 E= -73.3422204420168     Delta-E=       -0.000000000007 Rises=F Damp=F
 DIIS: error= 2.47D-08 at cycle  22 NSaved=  20.
 NSaved=20 IEnMin=20 EnMin= -73.3422204420168     IErMin=20 ErrMin= 2.47D-08
 ErrMax= 2.47D-08  0.00D+00 EMaxC= 1.00D-01 BMatC= 1.09D-13 BMatP= 2.15D-12
 IDIUse=1 WtCom= 1.00D+00 WtEn= 0.00D+00
 Coeff-Com:  0.440D-06-0.869D-05-0.396D-04 0.206D-04 0.177D-03 0.486D-03
 Coeff-Com: -0.834D-03-0.200D-03 0.846D-03 0.737D-03-0.149D-02-0.176D-02
 Coeff-Com: -0.252D-02 0.459D-02 0.223D-01-0.274D-01-0.580D-01-0.578D-02
 Coeff-Com:  0.239D+00 0.829D+00
 Coeff:      0.440D-06-0.869D-05-0.396D-04 0.206D-04 0.177D-03 0.486D-03
 Coeff:     -0.834D-03-0.200D-03 0.846D-03 0.737D-03-0.149D-02-0.176D-02
 Coeff:     -0.252D-02 0.459D-02 0.223D-01-0.274D-01-0.580D-01-0.578D-02
 Coeff:      0.239D+00 0.829D+00
 Gap=     0.102 Goal=   None    Shift=    0.000
 RMSDP=2.35D-08 MaxDP=2.12D-06 DE=-6.95D-12 OVMax= 1.11D-06

 Cycle  23  Pass 1  IDiag  1:
 E= -73.3422204420171     Delta-E=       -0.000000000000 Rises=F Damp=F
 DIIS: error= 1.37D-08 at cycle  23 NSaved=  20.
 NSaved=20 IEnMin=20 EnMin= -73.3422204420171     IErMin=20 ErrMin= 1.37D-08
 ErrMax= 1.37D-08  0.00D+00 EMaxC= 1.00D-01 BMatC= 1.54D-14 BMatP= 1.09D-13
 IDIUse=1 WtCom= 1.00D+00 WtEn= 0.00D+00
 Coeff-Com: -0.854D-07 0.681D-06 0.909D-06-0.626D-05 0.142D-04 0.254D-04
 Coeff-Com: -0.108D-03 0.928D-04 0.368D-03 0.231D-04-0.284D-03-0.202D-02
 Coeff-Com: -0.271D-03 0.335D-02 0.713D-02-0.163D-01-0.319D-01-0.713D-01
 Coeff-Com:  0.171D+00 0.940D+00
 Coeff:     -0.854D-07 0.681D-06 0.909D-06-0.626D-05 0.142D-04 0.254D-04
 Coeff:     -0.108D-03 0.928D-04 0.368D-03 0.231D-04-0.284D-03-0.202D-02
 Coeff:     -0.271D-03 0.335D-02 0.713D-02-0.163D-01-0.319D-01-0.713D-01
 Coeff:      0.171D+00 0.940D+00
 Gap=     0.102 Goal=   None    Shift=    0.000
 RMSDP=5.37D-09 MaxDP=3.18D-07 DE=-3.41D-13 OVMax= 3.47D-07

 SCF Done:  E(ROHF) =  -73.3422204420     A.U. after   23 cycles
            NFock= 23  Conv=0.54D-08     -V/T= 3.0025
 <Sx>= 0.0000 <Sy>= 0.0000 <Sz>= 1.0000 <S**2>= 2.0000 S= 1.0000
 <L.S>=  0.00000000000    
 KE= 3.662505696386D+01 PE=-2.004687482594D+02 EE= 7.044843970289D+01
 Annihilation of the first spin contaminant:
 S**2 before annihilation     2.0000,   after     2.0000
 Leave Link  502 at Sun Mar 11 05:41:00 2018, MaxMem= 10737418240 cpu:             430.6 elap:              31.5
 (Enter /home1/apps/gaussian/16rA.03/g16/l801.exe)
 Windowed orbitals will be sorted by symmetry type.
 GenMOA:  NOpAll=  4 NOp2=4 NOpUse=  4 JSym2X=1
 FoFJK:  IHMeth= 1 ICntrl=       0 DoSepK=F KAlg= 0 I1Cent=           0 FoldK=F
 IRaf=         0 NMat=       1 IRICut=       1 DoRegI=T DoRafI=F ISym2E= 1 IDoP0=0 IntGTp=1.
 FoFCou: FMM=F IPFlag=           8 FMFlag=      100000 FMFlg1=           0
         NFxFlg=           0 DoJE=F BraDBF=F KetDBF=F FulRan=T
         wScrn=  0.000000 ICntrl=         0 IOpCl=  1 I1Cent=           0 NGrid=           0
         NMat0=    1 NMatS0=      1 NMatT0=    0 NMatD0=    1 NMtDS0=    0 NMtDT0=    0
 Petite list used in FoFCou.
 <Sx>= 0.0000 <Sy>= 0.0000 <Sz>= 1.0000 <S**2>= 2.0000 S= 1.0000
 Range of M.O.s used for correlation:     1   253
 NBasis=   261 NAE=    10 NBE=     8 NFC=     0 NFV=     0
 NROrb=    253 NOA=    10 NOB=     8 NVA=   243 NVB=   245

 **** Warning!!: The largest alpha MO coefficient is  0.25949484D+03


 **** Warning!!: The largest beta MO coefficient is  0.25944937D+03

 Singles contribution to E2=   -0.3105028142D-02
 Leave Link  801 at Sun Mar 11 05:41:07 2018, MaxMem= 10737418240 cpu:             100.4 elap:               6.3
 (Enter /home1/apps/gaussian/16rA.03/g16/l804.exe)
 Open-shell transformation, MDV= 10737418240 ITran=4 ISComp=2.
 Unit  1 TFree=       2061274 TCopy=        902168.
 Semi-Direct transformation.
 ModeAB=           4 MOrb=            10 LenV=   10735404296
 LASXX=     20543512 LTotXX=    20543512 LenRXX=    41437941
 LTotAB=    20894429 MaxLAS=   121779020 LenRXY=           0
 NonZer=    61981453 LenScr=    93733376 LnRSAI=   121779020
 LnScr1=   183429632 LExtra=     8565552 Total=    448945521
 MaxDsk= 67108864000 SrtSym=           T ITran=            4
 DoSDTr:  NPSUse= 16
 JobTyp=1 Pass  1:  I=   1 to  10.
 (rs|ai) integrals will be sorted in core.
 Complete sort for first half transformation.
 First half transformation complete.
 Begin second half transformation for I=  10.
 Complete sort for second half transformation.
 Second half transformation complete.
 ModeAB=           4 MOrb=             8 LenV=   10735404296
 LASXX=     16400518 LTotXX=    16400518 LenRXX=    31738830
 LTotAB=    15338312 MaxLAS=    97423216 LenRXY=           0
 NonZer=    48139348 LenScr=    72962048 LnRSAI=    97423216
 LnScr1=   146893824 LExtra=    50003493 Total=    399021411
 MaxDsk= 67108864000 SrtSym=           T ITran=            4
 DoSDTr:  NPSUse= 16
 JobTyp=2 Pass  1:  I=   1 to   8.
 (rs|ai) integrals will be sorted in core.
 Complete sort for first half transformation.
 First half transformation complete.
 Complete sort for second half transformation.
 Second half transformation complete.
 Spin components of T(2) and E(2):
     alpha-alpha T2 =       0.4065770406D-01 E2=     -0.1165477375D+00
     alpha-beta  T2 =       0.1559313183D+00 E2=     -0.5448570378D+00
     beta-beta   T2 =       0.3128310051D-01 E2=     -0.9231050561D-01
 ANorm=    0.1108816642D+01
 E2 =    -0.7568203091D+00 EUMP2 =    -0.74099040751135D+02
 (S**2,0)=  0.20000D+01           (S**2,1)=  0.20000D+01
 E(PUHF)=      -0.73342220442D+02        E(PMP2)=      -0.74099040751D+02
 Leave Link  804 at Sun Mar 11 05:43:10 2018, MaxMem= 10737418240 cpu:            1957.0 elap:             122.6
 (Enter /home1/apps/gaussian/16rA.03/g16/l913.exe)
 CIDS:  MDV= 10737418240.
 IFCWin=0 IBDFC=1 NFBD=     0     0 NFCmp=     0     0 NFFFC=     0     0
 Using original routines for 1st iteration.
 Using DD4UQ or CC4UQ for 2nd and later iterations.
 Keep R2 and R3 ints in memory in symmetry-blocked form, NReq=734616043.
 FoFCou: FMM=F IPFlag=           8 FMFlag=           0 FMFlg1=           0
         NFxFlg=           0 DoJE=F BraDBF=F KetDBF=F FulRan=T
         wScrn=  0.000000 ICntrl=       600 IOpCl=  0 I1Cent=           0 NGrid=           0
         NMat0=    1 NMatS0=  34191 NMatT0=    0 NMatD0=    1 NMtDS0=    0 NMtDT0=    0
 Petite list used in FoFCou.
 CIDS: In Core Option IDoMem=           1.
 CCSD(T)
 =======
 Iterations= 150 Convergence= 0.100D-06
 Produce multiple copies of IABC intergrals
 Iteration Nr.   1
 **********************
 DD1Dir will call FoFMem   1 times, MxPair=       234
 NAB=    80 NAA=    45 NBB=    28.
 DD1Dir will call FoFMem   1 times, MxPair=       234
 NAB=    80 NAA=    45 NBB=    28.
 MP4(R+Q)= -0.34320434D-01
 Maximum subspace dimension=  5
 A-vector RMS=  3.6648165D-04 Max=  4.7510795D-03 conv= 1.00D-05.
 RLE energy=       -0.7352559470
 E3=        0.56336928D-01        EROMP3=      -0.74042703823D+02
 E4(SDQ)=  -0.90743601D-01        ROMP4(SDQ)=  -0.74133447424D+02
 VARIATIONAL ENERGIES WITH THE FIRST-ORDER WAVEFUNCTION:
 DE(Corr)= -0.73462041     E(Corr)=     -74.076840854    
 NORM(A)=   0.10991561D+01
 Iteration Nr.   2
 **********************
 DD1Dir will call FoFMem   1 times, MxPair=       234
 NAB=    80 NAA=    45 NBB=    28.
 A-vector RMS=  9.5556192D-03 Max=  1.0658075D-01 conv= 1.00D-05.
 RLE energy=       -0.5470706117
 DE(Corr)= -0.66956923     E(CORR)=     -74.011789676     Delta= 6.51D-02
 NORM(A)=   0.12899533D+01
 Iteration Nr.   3
 **********************
 DD1Dir will call FoFMem   1 times, MxPair=       234
 NAB=    80 NAA=    45 NBB=    28.
 A-vector RMS=  3.9491555D-02 Max=  4.2767983D-01 conv= 1.00D-05.
 RLE energy=       -0.7359510590
 DE(Corr)= -0.87014347     E(CORR)=     -74.212363911     Delta=-2.01D-01
 NORM(A)=   0.10990084D+01
 Iteration Nr.   4
 **********************
 DD1Dir will call FoFMem   1 times, MxPair=       234
 NAB=    80 NAA=    45 NBB=    28.
 A-vector RMS=  8.4159770D-03 Max=  9.5240166D-02 conv= 1.00D-05.
 RLE energy=       -0.7372269861
 DE(Corr)= -0.68040288     E(CORR)=     -74.022623325     Delta= 1.90D-01
 NORM(A)=   0.11176713D+01
 Iteration Nr.   5
 **********************
 DD1Dir will call FoFMem   1 times, MxPair=       234
 NAB=    80 NAA=    45 NBB=    28.
 A-vector RMS=  2.7174852D-03 Max=  3.1940206D-02 conv= 1.00D-05.
 RLE energy=       -0.7224912890
 DE(Corr)= -0.71871930     E(CORR)=     -74.060939746     Delta=-3.83D-02
 NORM(A)=   0.12302304D+01
 Iteration Nr.   6
 **********************
 DD1Dir will call FoFMem   1 times, MxPair=       234
 NAB=    80 NAA=    45 NBB=    28.
 A-vector RMS=  8.5589116D-03 Max=  9.2671478D-02 conv= 1.00D-05.
 RLE energy=       -0.7360339510
 DE(Corr)= -0.79203092     E(CORR)=     -74.134251357     Delta=-7.33D-02
 NORM(A)=   0.11530591D+01
 Iteration Nr.   7
 **********************
 DD1Dir will call FoFMem   1 times, MxPair=       234
 NAB=    80 NAA=    45 NBB=    28.
 A-vector RMS=  3.4196050D-04 Max=  5.4955168D-03 conv= 1.00D-05.
 RLE energy=       -0.7372865672
 DE(Corr)= -0.73558177     E(CORR)=     -74.077802211     Delta= 5.64D-02
 NORM(A)=   0.11612881D+01
 Iteration Nr.   8
 **********************
 DD1Dir will call FoFMem   1 times, MxPair=       234
 NAB=    80 NAA=    45 NBB=    28.
 A-vector RMS=  3.8344239D-04 Max=  6.0644714D-03 conv= 1.00D-05.
 RLE energy=       -0.7358897853
 DE(Corr)= -0.73517562     E(CORR)=     -74.077396065     Delta= 4.06D-04
 NORM(A)=   0.11696609D+01
 Iteration Nr.   9
 **********************
 DD1Dir will call FoFMem   1 times, MxPair=       234
 NAB=    80 NAA=    45 NBB=    28.
 A-vector RMS=  6.1398811D-04 Max=  7.1947266D-03 conv= 1.00D-05.
 RLE energy=       -0.7367169781
 DE(Corr)= -0.73971535     E(CORR)=     -74.081935793     Delta=-4.54D-03
 NORM(A)=   0.11683113D+01
 Iteration Nr.  10
 **********************
 DD1Dir will call FoFMem   1 times, MxPair=       234
 NAB=    80 NAA=    45 NBB=    28.
 A-vector RMS=  1.0505303D-04 Max=  1.3542333D-03 conv= 1.00D-05.
 RLE energy=       -0.7371531611
 DE(Corr)= -0.73672466     E(CORR)=     -74.078945107     Delta= 2.99D-03
 NORM(A)=   0.11716779D+01
 Iteration Nr.  11
 **********************
 DD1Dir will call FoFMem   1 times, MxPair=       234
 NAB=    80 NAA=    45 NBB=    28.
 A-vector RMS=  1.2046155D-04 Max=  1.5463732D-03 conv= 1.00D-05.
 RLE energy=       -0.7371049823
 DE(Corr)= -0.73747448     E(CORR)=     -74.079694923     Delta=-7.50D-04
 NORM(A)=   0.11711677D+01
 Iteration Nr.  12
 **********************
 DD1Dir will call FoFMem   1 times, MxPair=       234
 NAB=    80 NAA=    45 NBB=    28.
 A-vector RMS=  3.6451047D-05 Max=  4.0566066D-04 conv= 1.00D-05.
 RLE energy=       -0.7373440476
 DE(Corr)= -0.73725686     E(CORR)=     -74.079477306     Delta= 2.18D-04
 NORM(A)=   0.11715047D+01
 Iteration Nr.  13
 **********************
 DD1Dir will call FoFMem   1 times, MxPair=       234
 NAB=    80 NAA=    45 NBB=    28.
 A-vector RMS=  6.1992765D-05 Max=  1.3603659D-03 conv= 1.00D-05.
 RLE energy=       -0.7372702702
 DE(Corr)= -0.73715167     E(CORR)=     -74.079372111     Delta= 1.05D-04
 NORM(A)=   0.11716612D+01
 Iteration Nr.  14
 **********************
 DD1Dir will call FoFMem   1 times, MxPair=       234
 NAB=    80 NAA=    45 NBB=    28.
 A-vector RMS=  1.5869099D-05 Max=  2.6025746D-04 conv= 1.00D-05.
 RLE energy=       -0.7372274292
 DE(Corr)= -0.73727641     E(CORR)=     -74.079496851     Delta=-1.25D-04
 NORM(A)=   0.11717412D+01
 Iteration Nr.  15
 **********************
 DD1Dir will call FoFMem   1 times, MxPair=       234
 NAB=    80 NAA=    45 NBB=    28.
 A-vector RMS=  2.4807313D-05 Max=  3.0115616D-04 conv= 1.00D-05.
 RLE energy=       -0.7373658265
 DE(Corr)= -0.73737147     E(CORR)=     -74.079591912     Delta=-9.51D-05
 NORM(A)=   0.11717921D+01
 Iteration Nr.  16
 **********************
 DD1Dir will call FoFMem   1 times, MxPair=       234
 NAB=    80 NAA=    45 NBB=    28.
 A-vector RMS=  2.0659687D-05 Max=  2.2160487D-04 conv= 1.00D-05.
 RLE energy=       -0.7372827839
 DE(Corr)= -0.73720844     E(CORR)=     -74.079428882     Delta= 1.63D-04
 NORM(A)=   0.11718486D+01
 Iteration Nr.  17
 **********************
 DD1Dir will call FoFMem   1 times, MxPair=       234
 NAB=    80 NAA=    45 NBB=    28.
 A-vector RMS=  7.6756671D-06 Max=  9.8159037D-05 conv= 1.00D-05.
 RLE energy=       -0.7373146127
 DE(Corr)= -0.73734307     E(CORR)=     -74.079563508     Delta=-1.35D-04
 NORM(A)=   0.11718563D+01
 Iteration Nr.  18
 **********************
 DD1Dir will call FoFMem   1 times, MxPair=       234
 NAB=    80 NAA=    45 NBB=    28.
 A-vector RMS=  4.8352901D-06 Max=  6.9034262D-05 conv= 1.00D-05.
 RLE energy=       -0.7373124375
 DE(Corr)= -0.73729744     E(CORR)=     -74.079517885     Delta= 4.56D-05
 NORM(A)=   0.11718646D+01
 Iteration Nr.  19
 **********************
 DD1Dir will call FoFMem   1 times, MxPair=       234
 NAB=    80 NAA=    45 NBB=    28.
 A-vector RMS=  3.4794722D-06 Max=  6.6495412D-05 conv= 1.00D-05.
 RLE energy=       -0.7373086301
 DE(Corr)= -0.73730343     E(CORR)=     -74.079523872     Delta=-5.99D-06
 NORM(A)=   0.11718679D+01
 Iteration Nr.  20
 **********************
 DD1Dir will call FoFMem   1 times, MxPair=       234
 NAB=    80 NAA=    45 NBB=    28.
 A-vector RMS=  3.3888687D-06 Max=  8.9568037D-05 conv= 1.00D-05.
 RLE energy=       -0.7373071559
 DE(Corr)= -0.73730913     E(CORR)=     -74.079529571     Delta=-5.70D-06
 NORM(A)=   0.11718677D+01
 Iteration Nr.  21
 **********************
 DD1Dir will call FoFMem   1 times, MxPair=       234
 NAB=    80 NAA=    45 NBB=    28.
 A-vector RMS=  1.5795708D-06 Max=  2.1531826D-05 conv= 1.00D-05.
 RLE energy=       -0.7373138640
 DE(Corr)= -0.73731093     E(CORR)=     -74.079531372     Delta=-1.80D-06
 NORM(A)=   0.11718567D+01
 Iteration Nr.  22
 **********************
 DD1Dir will call FoFMem   1 times, MxPair=       234
 NAB=    80 NAA=    45 NBB=    28.
 A-vector RMS=  2.0530491D-06 Max=  2.2155480D-05 conv= 1.00D-05.
 RLE energy=       -0.7373020581
 DE(Corr)= -0.73730016     E(CORR)=     -74.079520602     Delta= 1.08D-05
 NORM(A)=   0.11718546D+01
 Iteration Nr.  23
 **********************
 DD1Dir will call FoFMem   1 times, MxPair=       234
 NAB=    80 NAA=    45 NBB=    28.
 A-vector RMS=  1.7798134D-06 Max=  2.1111726D-05 conv= 1.00D-05.
 RLE energy=       -0.7373092916
 DE(Corr)= -0.73731602     E(CORR)=     -74.079536463     Delta=-1.59D-05
 NORM(A)=   0.11718459D+01
 Iteration Nr.  24
 **********************
 DD1Dir will call FoFMem   1 times, MxPair=       234
 NAB=    80 NAA=    45 NBB=    28.
 A-vector RMS=  9.8425755D-07 Max=  1.4430788D-05 conv= 1.00D-05.
 RLE energy=       -0.7373064744
 DE(Corr)= -0.73730441     E(CORR)=     -74.079524854     Delta= 1.16D-05
 NORM(A)=   0.11718363D+01
 Iteration Nr.  25
 **********************
 DD1Dir will call FoFMem   1 times, MxPair=       234
 NAB=    80 NAA=    45 NBB=    28.
 A-vector RMS=  5.6705455D-07 Max=  7.2296120D-06 conv= 1.00D-05.
 RLE energy=       -0.7373059851
 DE(Corr)= -0.73730679     E(CORR)=     -74.079527229     Delta=-2.38D-06
 NORM(A)=   0.11718318D+01
 Iteration Nr.  26
 **********************
 DD1Dir will call FoFMem   1 times, MxPair=       234
 NAB=    80 NAA=    45 NBB=    28.
 A-vector RMS=  5.8443930D-07 Max=  1.3277188D-05 conv= 1.00D-05.
 RLE energy=       -0.7373054200
 DE(Corr)= -0.73730662     E(CORR)=     -74.079527063     Delta= 1.65D-07
 NORM(A)=   0.11718265D+01
 Iteration Nr.  27
 **********************
 DD1Dir will call FoFMem   1 times, MxPair=       234
 NAB=    80 NAA=    45 NBB=    28.
 A-vector RMS=  4.0453826D-07 Max=  6.6550291D-06 conv= 1.00D-05.
 RLE energy=       -0.7373065302
 DE(Corr)= -0.73730643     E(CORR)=     -74.079526875     Delta= 1.88D-07
 NORM(A)=   0.11718212D+01
 Iteration Nr.  28
 **********************
 DD1Dir will call FoFMem   1 times, MxPair=       234
 NAB=    80 NAA=    45 NBB=    28.
 A-vector RMS=  4.8412436D-07 Max=  5.5580958D-06 conv= 1.00D-05.
 RLE energy=       -0.7373040476
 DE(Corr)= -0.73730398     E(CORR)=     -74.079524424     Delta= 2.45D-06
 NORM(A)=   0.11718204D+01
 Iteration Nr.  29
 **********************
 DD1Dir will call FoFMem   1 times, MxPair=       234
 NAB=    80 NAA=    45 NBB=    28.
 A-vector RMS=  3.8049470D-07 Max=  4.2567486D-06 conv= 1.00D-05.
 RLE energy=       -0.7373059515
 DE(Corr)= -0.73730716     E(CORR)=     -74.079527607     Delta=-3.18D-06
 NORM(A)=   0.11718186D+01
 Iteration Nr.  30
 **********************
 DD1Dir will call FoFMem   1 times, MxPair=       234
 NAB=    80 NAA=    45 NBB=    28.
 A-vector RMS=  2.2646336D-07 Max=  2.7656143D-06 conv= 1.00D-05.
 RLE energy=       -0.7373051347
 DE(Corr)= -0.73730422     E(CORR)=     -74.079524666     Delta= 2.94D-06
 NORM(A)=   0.11718182D+01
 Iteration Nr.  31
 **********************
 DD1Dir will call FoFMem   1 times, MxPair=       234
 NAB=    80 NAA=    45 NBB=    28.
 A-vector RMS=  1.6627931D-07 Max=  3.7212707D-06 conv= 1.00D-05.
 RLE energy=       -0.7373051552
 DE(Corr)= -0.73730521     E(CORR)=     -74.079525652     Delta=-9.87D-07
 NORM(A)=   0.11718181D+01
 Iteration Nr.  32
 **********************
 DD1Dir will call FoFMem   1 times, MxPair=       234
 NAB=    80 NAA=    45 NBB=    28.
 A-vector RMS=  8.3845095D-08 Max=  1.5053180D-06 conv= 1.00D-05.
 RLE energy=       -0.7373051153
 DE(Corr)= -0.73730513     E(CORR)=     -74.079525576     Delta= 7.62D-08
 NORM(A)=   0.11718181D+01
 CI/CC converged in   32 iterations to DelEn= 7.62D-08 Conv= 1.00D-07 ErrA1= 8.38D-08 Conv= 1.00D-05
 Wavefunction amplitudes converged. E(Corr)=     -74.079525576    
 Dominant configurations:
 ***********************
 Spin Case        I    J    A    B          Value
    AA            7        13            0.110591D+00
    AA           10        13           -0.141548D+00
    AA            9        25            0.140892D+00
    AA            8        24            0.140892D+00
 Largest amplitude= 1.42D-01
 Time for triples=    11639.67 seconds.
 T4(CCSD)= -0.84351421D-01
 T5(CCSD)=  0.27131969D-01
 CCSD(T)= -0.74136745029D+02
 Discarding MO integrals.
 Leave Link  913 at Sun Mar 11 06:03:55 2018, MaxMem= 10737418240 cpu:           19901.0 elap:            1245.2
 (Enter /home1/apps/gaussian/16rA.03/g16/l601.exe)
 Copying SCF densities to generalized density rwf, IOpCl= 0 IROHF=1.

 **********************************************************************

            Population analysis using the SCF density.

 **********************************************************************

 Orbital symmetries:
       Occupied  (SG) (SG) (PI) (PI) (SG) (SG) (PI) (PI) (?A) (SG)
       Virtual   (PI) (PI) (SG) (SG) (PI) (PI) (SG) (?A) (?A) (PI)
                 (PI) (SG) (?A) (SG) (PI) (PI) (SG) (?A) (PI) (PI)
                 (SG) (?A) (PI) (PI) (SG) (PI) (PI) (SG) (PHI)
                 (PHI) (DLTA) (DLTA) (SG) (PI) (PI) (SG) (SG) (?A)
                 (PI) (PI) (?A) (PI) (PI) (SG) (SG) (DLTA) (DLTA)
                 (PI) (PI) (?B) (?B) (?B) (PHI) (PHI) (DLTA) (DLTA)
                 (SG) (?C) (?C) (?C) (?C) (DLTA) (DLTA) (PI) (PI)
                 (SG) (SG) (PI) (PI) (SG) (PI) (PI) (SG) (?A) (PI)
                 (PI) (?A) (SG) (SG) (PHI) (PHI) (DLTA) (DLTA)
                 (PI) (PI) (DLTA) (DLTA) (SG) (PI) (PI) (SG) (?D)
                 (?D) (DLTA) (DLTA) (?E) (?E) (?D) (?D) (?D) (?D)
                 (DLTA) (DLTA) (SG) (SG) (PI) (PI) (SG) (PI) (PI)
                 (PI) (PI) (SG) (SG) (DLTA) (DLTA) (PI) (PI) (SG)
                 (SG) (PHI) (PHI) (DLTA) (DLTA) (PI) (PI) (SG)
                 (DLTA) (DLTA) (PI) (PI) (SG) (SG) (?F) (?F) (DLTA)
                 (DLTA) (?F) (?F) (?F) (?F) (SG) (SG) (PHI) (PHI)
                 (?E) (?E) (DLTA) (DLTA) (PI) (PI) (SG) (DLTA)
                 (DLTA) (PI) (PI) (SG) (PI) (PI) (SG) (SG) (SG)
                 (PI) (PI) (SG) (DLTA) (DLTA) (PI) (PI) (SG) (SG)
                 (SG) (PI) (PI) (SG) (DLTA) (DLTA) (PI) (PI) (SG)
                 (PI) (PI) (SG) (DLTA) (DLTA) (PI) (PI) (SG) (SG)
                 (SG) (PI) (PI) (SG) (PI) (PI) (SG) (SG) (SG) (PI)
                 (PI) (SG) (DLTA) (DLTA) (PI) (PI) (SG) (SG) (SG)
                 (PI) (PI) (SG) (PI) (PI) (SG) (SG) (SG) (PI) (PI)
                 (SG) (SG) (SG) (PI) (PI) (SG) (SG) (PI) (PI) (SG)
                 (SG) (SG) (PI) (PI) (SG) (SG) (SG) (SG) (PI) (PI)
                 (SG) (SG) (SG) (SG) (SG)
 Unable to determine electronic state:  an orbital has unidentified symmetry.
 Alpha  occ. eigenvalues --   -3.09059  -1.97716  -1.97716  -1.93121  -1.12340
 Alpha  occ. eigenvalues --   -0.52674  -0.41371  -0.37370  -0.37370  -0.29796
 Alpha virt. eigenvalues --   -0.00942  -0.00942   0.00024   0.01965   0.03326
 Alpha virt. eigenvalues --    0.03326   0.03716   0.04459   0.05028   0.05951
 Alpha virt. eigenvalues --    0.05951   0.06101   0.07494   0.10485   0.10485
 Alpha virt. eigenvalues --    0.10601   0.12618   0.16821   0.18286   0.18286
 Alpha virt. eigenvalues --    0.18887   0.20313   0.20313   0.20367   0.24405
 Alpha virt. eigenvalues --    0.27496   0.27496   0.29361   0.30030   0.30030
 Alpha virt. eigenvalues --    0.31071   0.31110   0.36505   0.39714   0.39714
 Alpha virt. eigenvalues --    0.40393   0.47683   0.56001   0.57268   0.57268
 Alpha virt. eigenvalues --    0.62075   0.64873   0.64873   0.69265   0.71296
 Alpha virt. eigenvalues --    0.83210   0.83291   0.87749   0.87749   0.95128
 Alpha virt. eigenvalues --    0.96022   0.96024   0.96436   0.96436   0.97504
 Alpha virt. eigenvalues --    0.98199   1.01681   1.01681   1.02081   1.03974
 Alpha virt. eigenvalues --    1.03974   1.18886   1.19288   1.20662   1.20662
 Alpha virt. eigenvalues --    1.23273   1.35965   1.52677   1.52677   1.62450
 Alpha virt. eigenvalues --    1.73623   1.73623   1.78775   1.79475   1.84175
 Alpha virt. eigenvalues --    1.84175   1.85761   1.91202   2.08970   2.24295
 Alpha virt. eigenvalues --    2.24295   2.31425   2.31496   2.46619   2.46619
 Alpha virt. eigenvalues --    2.53376   2.53476   2.62971   2.82319   2.82319
 Alpha virt. eigenvalues --    2.94229   3.10880   3.10880   3.16451   3.19772
 Alpha virt. eigenvalues --    3.32723   3.32730   3.34584   3.34584   3.37234
 Alpha virt. eigenvalues --    3.37234   3.43005   3.43314   3.51680   3.76518
 Alpha virt. eigenvalues --    3.79307   3.79307   3.97636   4.16820   4.16820
 Alpha virt. eigenvalues --    4.33560   4.33560   4.44531   4.76890   4.94603
 Alpha virt. eigenvalues --    4.98272   5.08950   5.08950   5.40477   5.73132
 Alpha virt. eigenvalues --    6.65222   6.65222   6.79095   6.79104   6.96737
 Alpha virt. eigenvalues --    6.96737   7.01038   7.18101   7.18103   7.35945
 Alpha virt. eigenvalues --    7.35945   7.75721   8.95667   9.13860   9.13860
 Alpha virt. eigenvalues --    9.15725   9.18055   9.27738   9.27738   9.35632
 Alpha virt. eigenvalues --    9.35632   9.48952   9.69575  10.89052  10.89055
 Alpha virt. eigenvalues --   10.89377  10.89377  10.91403  10.91921  11.01335
 Alpha virt. eigenvalues --   11.01335  11.09021  11.41936  11.42842  11.50650
 Alpha virt. eigenvalues --   11.50650  11.85832  14.86117  14.86117  15.42163
 Alpha virt. eigenvalues --   16.15402  18.86135  19.44764  19.44764  19.62280
 Alpha virt. eigenvalues --   24.09896  24.10278  24.14528  24.14528  24.40896
 Alpha virt. eigenvalues --   38.24885  39.27718  41.48174  41.48174  41.63160
 Alpha virt. eigenvalues --   43.74918  43.74918  43.80532  43.80532  43.96391
 Alpha virt. eigenvalues --   45.52009  45.52009  45.98379  60.78400  60.78915
 Alpha virt. eigenvalues --   60.81808  60.81808  61.02461  74.45262  80.62254
 Alpha virt. eigenvalues --   86.08742  86.08742  86.22205 118.90998 118.90998
 Alpha virt. eigenvalues --  119.28620 136.66196 145.35665 171.10377 171.10377
 Alpha virt. eigenvalues --  171.23435 225.54466 225.54669 225.56701 225.56701
 Alpha virt. eigenvalues --  225.69727 257.42544 258.77164 286.20772 286.20772
 Alpha virt. eigenvalues --  286.54156 341.01541 341.01541 341.14540 489.35196
 Alpha virt. eigenvalues --  554.91302 704.95040 704.95040 705.07570 981.21756
 Alpha virt. eigenvalues -- 1529.447471554.697451554.697451554.813232089.59508
 Alpha virt. eigenvalues -- 3771.064503771.064503771.166634732.710665659.62167
 Alpha virt. eigenvalues -- **************************************************
 Alpha virt. eigenvalues -- **************************************************
 Alpha virt. eigenvalues -- ******************************
     Molecular Orbital Coefficients:
                           4         5         6         7         8
                           O         O         O         O         O
     Eigenvalues --    -1.93121  -1.12340  -0.52674  -0.41371  -0.37370
   1 1   Ti 1S          0.00000   0.00000   0.00000   0.00000   0.00000
   2        2S          0.00000  -0.00000  -0.00000   0.00000   0.00000
   3        3S          0.00000   0.00000   0.00000   0.00000   0.00000
   4        4S          0.00000  -0.00000  -0.00000   0.00000   0.00000
   5        5S          0.00000   0.00000   0.00000   0.00000   0.00000
   6        6S          0.00000  -0.00000  -0.00001   0.00000   0.00000
   7        7S          0.00000   0.00001   0.00002   0.00000   0.00000
   8        8S          0.00000  -0.00004  -0.00007   0.00000   0.00000
   9        9S          0.00000   0.00011   0.00022   0.00000   0.00000
  10       10S          0.00000  -0.00032  -0.00062   0.00000   0.00000
  11       11S          0.00000   0.00093   0.00180   0.00000   0.00000
  12       12S          0.00000  -0.00282  -0.00549   0.00000   0.00000
  13       13S          0.00000  -0.00186  -0.00283   0.00000   0.00000
  14       14S          0.00000   0.03640   0.06685   0.00000   0.00000
  15       15S          0.00000  -0.00422  -0.01866   0.00000   0.00000
  16       16S          0.00000  -0.04442  -0.07907   0.00000   0.00000
  17       17S          0.00000  -0.00467  -0.03757   0.00000   0.00000
  18       18S          0.00000   0.02338   0.16064   0.00000   0.00000
  19       19S          0.00000  -0.00393   0.03758   0.00000   0.00000
  20       20S          0.00000   0.00042   0.01061   0.00000   0.00000
  21       21S          0.00000  -0.00921  -0.00889   0.00000   0.00000
  22       22S          0.00000  -0.04541  -0.09921   0.00000   0.00000
  23       23S          0.00000  -0.00011  -0.00068   0.00000   0.00000
  24       24PX         0.00000   0.00000   0.00000  -0.00000   0.00000
  25       24PY         0.00000   0.00000   0.00000   0.00000  -0.00000
  26       24PZ         0.00000   0.00000   0.00000   0.00000   0.00000
  27       25PX         0.00000   0.00000   0.00000   0.00000   0.00000
  28       25PY        -0.00000   0.00000   0.00000   0.00000   0.00000
  29       25PZ         0.00000  -0.00000  -0.00000   0.00000   0.00000
  30       26PX         0.00000   0.00000   0.00000  -0.00000   0.00000
  31       26PY         0.00002   0.00000   0.00000   0.00000  -0.00000
  32       26PZ         0.00000   0.00000   0.00000   0.00000   0.00000
  33       27PX         0.00000   0.00000   0.00000   0.00001   0.00000
  34       27PY        -0.00007   0.00000   0.00000   0.00000   0.00001
  35       27PZ         0.00000  -0.00001  -0.00001   0.00000   0.00000
  36       28PX         0.00000   0.00000   0.00000  -0.00002   0.00000
  37       28PY         0.00027   0.00000   0.00000   0.00000  -0.00002
  38       28PZ         0.00000   0.00004   0.00004   0.00000   0.00000
  39       29PX         0.00000   0.00000   0.00000   0.00008   0.00000
  40       29PY        -0.00098   0.00000   0.00000   0.00000   0.00008
  41       29PZ         0.00000  -0.00014  -0.00014   0.00000   0.00000
  42       30PX         0.00000   0.00000   0.00000  -0.00029   0.00000
  43       30PY         0.00350   0.00000   0.00000   0.00000  -0.00029
  44       30PZ         0.00000   0.00052   0.00049   0.00000   0.00000
  45       31PX         0.00000   0.00000   0.00000   0.00009   0.00000
  46       31PY         0.00047   0.00000   0.00000   0.00000   0.00009
  47       31PZ         0.00000   0.00003  -0.00014   0.00000   0.00000
  48       32PX         0.00000   0.00000   0.00000   0.00655   0.00000
  49       32PY        -0.09312   0.00000   0.00000   0.00000   0.00655
  50       32PZ         0.00000  -0.01378  -0.01151   0.00000   0.00000
  51       33PX         0.00000   0.00000   0.00000   0.00473   0.00000
  52       33PY         0.10534   0.00000   0.00000   0.00000   0.00473
  53       33PZ         0.00000   0.01311   0.00147   0.00000   0.00000
  54       34PX         0.00000   0.00000   0.00000  -0.02508   0.00000
  55       34PY         0.32117   0.00000   0.00000   0.00000  -0.02508
  56       34PZ         0.00000   0.04888   0.04470   0.00000   0.00000
  57       35PX         0.00000   0.00000   0.00000  -0.00018   0.00000
  58       35PY         0.60074   0.00000   0.00000   0.00000  -0.00018
  59       35PZ         0.00000   0.08037   0.03797   0.00000   0.00000
  60       36PX         0.00000   0.00000   0.00000  -0.02112   0.00000
  61       36PY         0.28607   0.00000   0.00000   0.00000  -0.02112
  62       36PZ         0.00000   0.03352   0.02331   0.00000   0.00000
  63       37PX         0.00000   0.00000   0.00000   0.03746   0.00000
  64       37PY         0.03351   0.00000   0.00000   0.00000   0.03746
  65       37PZ         0.00000  -0.00650  -0.03974   0.00000   0.00000
  66       38PX         0.00000   0.00000   0.00000   0.05436   0.00000
  67       38PY        -0.00398   0.00000   0.00000   0.00000   0.05436
  68       38PZ         0.00000  -0.00612  -0.03418   0.00000   0.00000
  69       39PX         0.00000   0.00000   0.00000  -0.00201   0.00000
  70       39PY         0.00136   0.00000   0.00000   0.00000  -0.00201
  71       39PZ         0.00000   0.00218   0.00425   0.00000   0.00000
  72       40PX         0.00000   0.00000   0.00000  -0.00715   0.00000
  73       40PY        -0.07874   0.00000   0.00000   0.00000  -0.00715
  74       40PZ         0.00000  -0.00855   0.00250   0.00000   0.00000
  75       41PX         0.00000   0.00000   0.00000  -0.04224   0.00000
  76       41PY        -0.12546   0.00000   0.00000   0.00000  -0.04224
  77       41PZ         0.00000  -0.00160   0.03681   0.00000   0.00000
  78       42PX         0.00000   0.00000   0.00000   0.00067   0.00000
  79       42PY        -0.00043   0.00000   0.00000   0.00000   0.00067
  80       42PZ         0.00000  -0.00052  -0.00242   0.00000   0.00000
  81       43D 0        0.00000  -0.00001  -0.00001   0.00000   0.00000
  82       43D+1        0.00000   0.00000   0.00000   0.00000   0.00000
  83       43D-1       -0.00000   0.00000   0.00000   0.00000   0.00000
  84       43D+2        0.00000   0.00000   0.00000   0.00000   0.00000
  85       43D-2        0.00000   0.00000   0.00000   0.00000   0.00000
  86       44D 0        0.00000   0.00148   0.00694   0.00000   0.00000
  87       44D+1        0.00000   0.00000   0.00000  -0.00448   0.00000
  88       44D-1        0.00009   0.00000   0.00000   0.00000  -0.00448
  89       44D+2        0.00000   0.00000  -0.00000   0.00000   0.00000
  90       44D-2        0.00000   0.00000   0.00000   0.00000   0.00000
  91       45D 0        0.00000   0.00733   0.03592   0.00000   0.00000
  92       45D+1        0.00000   0.00000   0.00000  -0.02345   0.00000
  93       45D-1        0.00025   0.00000   0.00000   0.00000  -0.02345
  94       45D+2        0.00000   0.00000  -0.00000   0.00000   0.00000
  95       45D-2        0.00000   0.00000   0.00000   0.00000   0.00000
  96       46D 0        0.00000   0.01934   0.07266   0.00000   0.00000
  97       46D+1        0.00000   0.00000   0.00000  -0.04185   0.00000
  98       46D-1        0.00391   0.00000   0.00000   0.00000  -0.04185
  99       46D+2        0.00000  -0.00000  -0.00000   0.00000   0.00000
 100       46D-2        0.00000   0.00000   0.00000   0.00000   0.00000
 101       47D 0        0.00000   0.01357   0.06319   0.00000   0.00000
 102       47D+1        0.00000   0.00000   0.00000  -0.03947   0.00000
 103       47D-1        0.00138   0.00000   0.00000   0.00000  -0.03947
 104       47D+2        0.00000  -0.00000  -0.00000   0.00000   0.00000
 105       47D-2        0.00000   0.00000   0.00000   0.00000   0.00000
 106       48D 0        0.00000   0.03385   0.15001   0.00000   0.00000
 107       48D+1        0.00000   0.00000   0.00000  -0.10071   0.00000
 108       48D-1        0.00742   0.00000   0.00000   0.00000  -0.10071
 109       48D+2        0.00000   0.00000  -0.00000   0.00000   0.00000
 110       48D-2        0.00000   0.00000   0.00000   0.00000   0.00000
 111       49D 0        0.00000   0.01258   0.08966   0.00000   0.00000
 112       49D+1        0.00000   0.00000   0.00000  -0.08070   0.00000
 113       49D-1        0.00288   0.00000   0.00000   0.00000  -0.08070
 114       49D+2        0.00000  -0.00000  -0.00000   0.00000   0.00000
 115       49D-2        0.00000   0.00000   0.00000   0.00000   0.00000
 116       50D 0        0.00000   0.00151   0.01373   0.00000   0.00000
 117       50D+1        0.00000   0.00000   0.00000  -0.02170   0.00000
 118       50D-1        0.00041   0.00000   0.00000   0.00000  -0.02170
 119       50D+2        0.00000   0.00000  -0.00000   0.00000   0.00000
 120       50D-2        0.00000   0.00000   0.00000   0.00000   0.00000
 121       51D 0        0.00000  -0.00358   0.00684   0.00000   0.00000
 122       51D+1        0.00000   0.00000   0.00000  -0.01096   0.00000
 123       51D-1       -0.00467   0.00000   0.00000   0.00000  -0.01096
 124       51D+2        0.00000   0.00000   0.00000   0.00000   0.00000
 125       51D-2        0.00000   0.00000   0.00000   0.00000   0.00000
 126       52D 0        0.00000   0.01427   0.06093   0.00000   0.00000
 127       52D+1        0.00000   0.00000   0.00000  -0.03839   0.00000
 128       52D-1        0.00285   0.00000   0.00000   0.00000  -0.03839
 129       52D+2        0.00000  -0.00000  -0.00000   0.00000   0.00000
 130       52D-2        0.00000   0.00000   0.00000   0.00000   0.00000
 131       53D 0        0.00000  -0.00023   0.00035   0.00000   0.00000
 132       53D+1        0.00000   0.00000   0.00000   0.00472   0.00000
 133       53D-1        0.00003   0.00000   0.00000   0.00000   0.00472
 134       53D+2        0.00000  -0.00000  -0.00000   0.00000   0.00000
 135       53D-2        0.00000   0.00000   0.00000   0.00000   0.00000
 136       54F 0        0.00000  -0.00023  -0.00107   0.00000   0.00000
 137       54F+1        0.00000   0.00000   0.00000   0.00080   0.00000
 138       54F-1        0.00016   0.00000   0.00000   0.00000   0.00080
 139       54F+2        0.00000   0.00000   0.00000   0.00000   0.00000
 140       54F-2        0.00000   0.00000   0.00000   0.00000   0.00000
 141       54F+3        0.00000   0.00000   0.00000  -0.00009   0.00000
 142       54F-3       -0.00233   0.00000   0.00000   0.00000   0.00009
 143       55F 0        0.00000  -0.00475  -0.00818   0.00000   0.00000
 144       55F+1        0.00000   0.00000   0.00000   0.00619   0.00000
 145       55F-1       -0.00178   0.00000   0.00000   0.00000   0.00619
 146       55F+2        0.00000   0.00000   0.00000   0.00000   0.00000
 147       55F-2        0.00000   0.00000   0.00000   0.00000   0.00000
 148       55F+3        0.00000   0.00000   0.00000  -0.00005   0.00000
 149       55F-3       -0.00485   0.00000   0.00000   0.00000   0.00005
 150       56F 0        0.00000  -0.00839  -0.01922   0.00000   0.00000
 151       56F+1        0.00000   0.00000   0.00000   0.01727   0.00000
 152       56F-1       -0.00268   0.00000   0.00000   0.00000   0.01727
 153       56F+2        0.00000  -0.00000  -0.00000   0.00000   0.00000
 154       56F-2        0.00000   0.00000   0.00000   0.00000   0.00000
 155       56F+3        0.00000   0.00000   0.00000   0.00003   0.00000
 156       56F-3       -0.00292   0.00000   0.00000   0.00000  -0.00003
 157       57F 0        0.00000  -0.00125  -0.00504   0.00000   0.00000
 158       57F+1        0.00000   0.00000   0.00000   0.00589   0.00000
 159       57F-1       -0.00034   0.00000   0.00000   0.00000   0.00589
 160       57F+2        0.00000   0.00000  -0.00000   0.00000   0.00000
 161       57F-2        0.00000   0.00000   0.00000   0.00000   0.00000
 162       57F+3        0.00000   0.00000   0.00000   0.00005   0.00000
 163       57F-3        0.00019   0.00000   0.00000   0.00000  -0.00005
 164       58G 0        0.00000   0.00023   0.00066   0.00000   0.00000
 165       58G+1        0.00000   0.00000   0.00000  -0.00017   0.00000
 166       58G-1        0.00001   0.00000   0.00000   0.00000  -0.00017
 167       58G+2        0.00000   0.00000   0.00000   0.00000   0.00000
 168       58G-2        0.00000   0.00000   0.00000   0.00000   0.00000
 169       58G+3        0.00000   0.00000   0.00000  -0.00005   0.00000
 170       58G-3       -0.00001   0.00000   0.00000   0.00000   0.00005
 171       58G+4        0.00000  -0.00002  -0.00006   0.00000   0.00000
 172       58G-4        0.00000   0.00000   0.00000   0.00000   0.00000
 173       59G 0        0.00000   0.00209   0.00300   0.00000   0.00000
 174       59G+1        0.00000   0.00000   0.00000  -0.00414   0.00000
 175       59G-1        0.00021   0.00000   0.00000   0.00000  -0.00414
 176       59G+2        0.00000   0.00000   0.00000   0.00000   0.00000
 177       59G-2        0.00000   0.00000   0.00000   0.00000   0.00000
 178       59G+3        0.00000   0.00000   0.00000  -0.00010   0.00000
 179       59G-3       -0.00011   0.00000   0.00000   0.00000   0.00010
 180       59G+4        0.00000  -0.00008  -0.00026   0.00000   0.00000
 181       59G-4        0.00000   0.00000   0.00000   0.00000   0.00000
 182       60G 0        0.00000   0.00289   0.00710   0.00000   0.00000
 183       60G+1        0.00000   0.00000   0.00000  -0.00320   0.00000
 184       60G-1        0.00046   0.00000   0.00000   0.00000  -0.00320
 185       60G+2        0.00000   0.00000   0.00000   0.00000   0.00000
 186       60G-2        0.00000   0.00000   0.00000   0.00000   0.00000
 187       60G+3        0.00000   0.00000   0.00000  -0.00002   0.00000
 188       60G-3       -0.00008   0.00000   0.00000   0.00000   0.00002
 189       60G+4        0.00000  -0.00003  -0.00022   0.00000   0.00000
 190       60G-4        0.00000   0.00000   0.00000   0.00000   0.00000
 191 2   O  1S          0.00000  -0.00000   0.00000   0.00000   0.00000
 192        2S          0.00000   0.00001  -0.00000   0.00000   0.00000
 193        3S          0.00000  -0.00005   0.00001   0.00000   0.00000
 194        4S          0.00000   0.00032  -0.00006   0.00000   0.00000
 195        5S          0.00000  -0.00335   0.00066   0.00000   0.00000
 196        6S          0.00000  -0.05053   0.01109   0.00000   0.00000
 197        7S          0.00000  -0.16509   0.03123   0.00000   0.00000
 198        8S          0.00000   0.54605  -0.09182   0.00000   0.00000
 199        9S          0.00000   0.15957  -0.02974   0.00000   0.00000
 200       10S          0.00000   0.38228  -0.12718   0.00000   0.00000
 201       11S          0.00000  -0.00100  -0.00575   0.00000   0.00000
 202       12S          0.00000   0.04854  -0.00963   0.00000   0.00000
 203       13S          0.00000   0.03599  -0.06831   0.00000   0.00000
 204       14PX         0.00000   0.00000   0.00000   0.00747   0.00000
 205       14PY         0.00009   0.00000   0.00000   0.00000   0.00747
 206       14PZ         0.00000   0.00043   0.00735   0.00000   0.00000
 207       15PX         0.00000   0.00000   0.00000   0.07761   0.00000
 208       15PY         0.00087   0.00000   0.00000   0.00000   0.07761
 209       15PZ         0.00000   0.00389   0.07656   0.00000   0.00000
 210       16PX         0.00000   0.00000   0.00000   0.24984   0.00000
 211       16PY         0.00263   0.00000   0.00000   0.00000   0.24984
 212       16PZ         0.00000   0.01101   0.24650   0.00000   0.00000
 213       17PX         0.00000   0.00000   0.00000   0.39529   0.00000
 214       17PY         0.00451   0.00000   0.00000   0.00000   0.39529
 215       17PZ         0.00000   0.02232   0.38908   0.00000   0.00000
 216       18PX         0.00000   0.00000   0.00000   0.34187   0.00000
 217       18PY         0.00461   0.00000   0.00000   0.00000   0.34187
 218       18PZ         0.00000   0.03734   0.30235   0.00000   0.00000
 219       19PX         0.00000   0.00000   0.00000   0.00433   0.00000
 220       19PY         0.00004   0.00000   0.00000   0.00000   0.00433
 221       19PZ         0.00000   0.00009   0.00434   0.00000   0.00000
 222       20PX         0.00000   0.00000   0.00000  -0.00197   0.00000
 223       20PY        -0.00002   0.00000   0.00000   0.00000  -0.00197
 224       20PZ         0.00000  -0.00012  -0.00194   0.00000   0.00000
 225       21PX         0.00000   0.00000   0.00000   0.06727   0.00000
 226       21PY         0.00082   0.00000   0.00000   0.00000   0.06727
 227       21PZ         0.00000   0.00449   0.04624   0.00000   0.00000
 228       22D 0        0.00000   0.00067   0.00439   0.00000   0.00000
 229       22D+1        0.00000   0.00000   0.00000   0.00340   0.00000
 230       22D-1        0.00026   0.00000   0.00000   0.00000   0.00340
 231       22D+2        0.00000   0.00000   0.00000   0.00000   0.00000
 232       22D-2        0.00000   0.00000   0.00000   0.00000   0.00000
 233       23D 0        0.00000   0.00715   0.01615   0.00000   0.00000
 234       23D+1        0.00000   0.00000   0.00000   0.01718   0.00000
 235       23D-1        0.00146   0.00000   0.00000   0.00000   0.01718
 236       23D+2        0.00000  -0.00000  -0.00000   0.00000   0.00000
 237       23D-2        0.00000   0.00000   0.00000   0.00000   0.00000
 238       24D 0        0.00000   0.00006   0.00024   0.00000   0.00000
 239       24D+1        0.00000   0.00000   0.00000   0.00022   0.00000
 240       24D-1        0.00002   0.00000   0.00000   0.00000   0.00022
 241       24D+2        0.00000   0.00000   0.00000   0.00000   0.00000
 242       24D-2        0.00000   0.00000   0.00000   0.00000   0.00000
[...]
  43       30PY         0.00033   0.00017   0.00017  -0.00000
  44       30PZ         0.00035   0.00017   0.00017   0.00000
  45       31PX         0.00012   0.00006   0.00006  -0.00000
  46       31PY         0.00012   0.00006   0.00006  -0.00000
  47       31PZ         0.00010   0.00005   0.00005   0.00000
  48       32PX        -0.05695  -0.02847  -0.02847   0.00000
  49       32PY        -0.05695  -0.02847  -0.02847   0.00000
  50       32PZ        -0.05826  -0.02933  -0.02892  -0.00041
  51       33PX         0.11994   0.05997   0.05997  -0.00000
  52       33PY         0.11994   0.05997   0.05997  -0.00000
  53       33PZ         0.12103   0.06163   0.05939   0.00224
  54       34PX         0.55203   0.27601   0.27601  -0.00000
  55       34PY         0.55203   0.27601   0.27601  -0.00000
  56       34PZ         0.56733   0.28508   0.28225   0.00283
  57       35PX         1.18921   0.59460   0.59460  -0.00000
  58       35PY         1.18921   0.59460   0.59460  -0.00000
  59       35PZ         1.15266   0.57903   0.57363   0.00540
  60       36PX         0.49834   0.24917   0.24917  -0.00000
  61       36PY         0.49834   0.24917   0.24917  -0.00000
  62       36PZ         0.47752   0.23574   0.24179  -0.00605
  63       37PX         0.05168   0.02584   0.02584  -0.00000
  64       37PY         0.05168   0.02584   0.02584  -0.00000
  65       37PZ         0.08557   0.06186   0.02370   0.03816
  66       38PX         0.02914   0.01457   0.01457  -0.00000
  67       38PY         0.02914   0.01457   0.01457  -0.00000
  68       38PZ         0.11568   0.11668  -0.00100   0.11768
  69       39PX        -0.00058  -0.00029  -0.00029   0.00000
  70       39PY        -0.00058  -0.00029  -0.00029   0.00000
  71       39PZ         0.01786   0.01790  -0.00005   0.01795
  72       40PX        -0.09058  -0.04529  -0.04529   0.00000
  73       40PY        -0.09058  -0.04529  -0.04529   0.00000
  74       40PZ        -0.09178  -0.04688  -0.04490  -0.00197
  75       41PX        -0.24650  -0.12325  -0.12325   0.00000
  76       41PY        -0.24650  -0.12325  -0.12325   0.00000
  77       41PZ        -0.20034  -0.10161  -0.09873  -0.00287
  78       42PX         0.00011   0.00006   0.00006  -0.00000
  79       42PY         0.00011   0.00006   0.00006  -0.00000
  80       42PZ        -0.00073  -0.00059  -0.00014  -0.00044
  81       43D 0       -0.00000  -0.00000  -0.00000  -0.00000
  82       43D+1       -0.00000  -0.00000  -0.00000   0.00000
  83       43D-1       -0.00000  -0.00000  -0.00000   0.00000
  84       43D+2       -0.00000  -0.00000   0.00000  -0.00000
  85       43D-2       -0.00000  -0.00000   0.00000  -0.00000
  86       44D 0        0.00108   0.00066   0.00042   0.00023
  87       44D+1        0.00034   0.00017   0.00017  -0.00000
  88       44D-1        0.00034   0.00017   0.00017  -0.00000
  89       44D+2        0.00415   0.00415   0.00000   0.00415
  90       44D-2        0.00000   0.00000  -0.00000   0.00000
  91       45D 0        0.01372   0.00835   0.00537   0.00297
  92       45D+1        0.00438   0.00219   0.00219  -0.00000
  93       45D-1        0.00438   0.00219   0.00219  -0.00000
  94       45D+2        0.05173   0.05173   0.00000   0.05173
  95       45D-2        0.00000   0.00000   0.00000   0.00000
  96       46D 0        0.04802   0.02869   0.01933   0.00937
  97       46D+1        0.01378   0.00689   0.00689  -0.00000
  98       46D-1        0.01378   0.00689   0.00689  -0.00000
  99       46D+2        0.16739   0.16739   0.00000   0.16739
 100       46D-2        0.00000   0.00000   0.00000   0.00000
 101       47D 0        0.05973   0.03548   0.02425   0.01123
 102       47D+1        0.01922   0.00961   0.00961  -0.00000
 103       47D-1        0.01922   0.00961   0.00961  -0.00000
 104       47D+2        0.17707   0.17707   0.00000   0.17707
 105       47D-2        0.00000   0.00000  -0.00000   0.00000
 106       48D 0        0.18214   0.10485   0.07729   0.02756
 107       48D+1        0.07320   0.03660   0.03660  -0.00000
 108       48D-1        0.07320   0.03660   0.03660  -0.00000
 109       48D+2        0.31423   0.31423   0.00000   0.31423
 110       48D-2        0.00000   0.00000   0.00000   0.00000
 111       49D 0        0.06271   0.03739   0.02532   0.01207
 112       49D+1        0.08028   0.04014   0.04014  -0.00000
 113       49D-1        0.08028   0.04014   0.04014  -0.00000
 114       49D+2        0.08745   0.08745   0.00000   0.08745
 115       49D-2        0.00000   0.00000   0.00000   0.00000
 116       50D 0       -0.00222  -0.00108  -0.00115   0.00007
 117       50D+1        0.01504   0.00752   0.00752  -0.00000
 118       50D-1        0.01504   0.00752   0.00752  -0.00000
 119       50D+2        0.00199   0.00199   0.00000   0.00199
 120       50D-2        0.00000   0.00000   0.00000   0.00000
 121       51D 0        0.00511   0.00359   0.00152   0.00207
 122       51D+1        0.00375   0.00188   0.00188  -0.00000
 123       51D-1        0.00375   0.00188   0.00188  -0.00000
 124       51D+2        0.02367   0.02367  -0.00000   0.02367
 125       51D-2        0.00000   0.00000  -0.00000   0.00000
 126       52D 0        0.05801   0.03448   0.02353   0.01095
 127       52D+1        0.01870   0.00935   0.00935  -0.00000
 128       52D-1        0.01870   0.00935   0.00935   0.00000
 129       52D+2        0.17146   0.17146  -0.00000   0.17146
 130       52D-2        0.00000   0.00000   0.00000   0.00000
 131       53D 0       -0.00012  -0.00007  -0.00005  -0.00002
 132       53D+1       -0.00110  -0.00055  -0.00055   0.00000
 133       53D-1       -0.00110  -0.00055  -0.00055   0.00000
 134       53D+2        0.00001   0.00001   0.00000   0.00001
 135       53D-2        0.00000   0.00000   0.00000   0.00000
 136       54F 0        0.00004   0.00002   0.00002   0.00000
 137       54F+1        0.00001   0.00001   0.00001  -0.00000
 138       54F-1        0.00001   0.00001   0.00001  -0.00000
 139       54F+2       -0.00000  -0.00000   0.00000  -0.00000
 140       54F-2       -0.00000  -0.00000   0.00000  -0.00000
 141       54F+3        0.00002   0.00001   0.00001  -0.00000
 142       54F-3        0.00002   0.00001   0.00001  -0.00000
 143       55F 0        0.00147   0.00074   0.00074   0.00000
 144       55F+1        0.00064   0.00032   0.00032  -0.00000
 145       55F-1        0.00064   0.00032   0.00032  -0.00000
 146       55F+2        0.00005   0.00005   0.00000   0.00005
 147       55F-2        0.00000   0.00000   0.00000   0.00000
 148       55F+3        0.00007   0.00004   0.00004  -0.00000
 149       55F-3        0.00007   0.00004   0.00004  -0.00000
 150       56F 0        0.00869   0.00431   0.00438  -0.00007
 151       56F+1        0.01007   0.00503   0.00503  -0.00000
 152       56F-1        0.01007   0.00503   0.00503  -0.00000
 153       56F+2        0.00039   0.00039   0.00000   0.00039
 154       56F-2        0.00000   0.00000   0.00000   0.00000
 155       56F+3        0.00003   0.00002   0.00002  -0.00000
 156       56F-3        0.00003   0.00002   0.00002  -0.00000
 157       57F 0       -0.00136  -0.00063  -0.00073   0.00009
 158       57F+1        0.00365   0.00183   0.00183  -0.00000
 159       57F-1        0.00365   0.00183   0.00183  -0.00000
 160       57F+2        0.00007   0.00007   0.00000   0.00007
 161       57F-2        0.00000   0.00000   0.00000   0.00000
 162       57F+3       -0.00000  -0.00000  -0.00000   0.00000
 163       57F-3       -0.00000  -0.00000  -0.00000   0.00000
 164       58G 0        0.00001   0.00000   0.00000   0.00000
 165       58G+1        0.00000   0.00000   0.00000  -0.00000
 166       58G-1        0.00000   0.00000   0.00000  -0.00000
 167       58G+2        0.00000   0.00000   0.00000   0.00000
 168       58G-2        0.00000   0.00000   0.00000   0.00000
 169       58G+3        0.00000   0.00000   0.00000  -0.00000
 170       58G-3        0.00000   0.00000   0.00000  -0.00000
 171       58G+4        0.00000   0.00000   0.00000   0.00000
 172       58G-4        0.00000   0.00000   0.00000   0.00000
 173       59G 0        0.00073   0.00037   0.00037  -0.00000
 174       59G+1        0.00061   0.00031   0.00031  -0.00000
 175       59G-1        0.00061   0.00031   0.00031  -0.00000
 176       59G+2        0.00002   0.00002   0.00000   0.00002
 177       59G-2        0.00000   0.00000   0.00000   0.00000
 178       59G+3        0.00000   0.00000   0.00000  -0.00000
 179       59G-3        0.00000   0.00000   0.00000  -0.00000
 180       59G+4        0.00001   0.00001   0.00000   0.00001
 181       59G-4        0.00000   0.00000   0.00000   0.00000
 182       60G 0        0.00060   0.00030   0.00030  -0.00000
 183       60G+1        0.00216   0.00108   0.00108  -0.00000
 184       60G-1        0.00216   0.00108   0.00108  -0.00000
 185       60G+2        0.00001   0.00001  -0.00000   0.00001
 186       60G-2        0.00000   0.00000   0.00000   0.00000
 187       60G+3        0.00000   0.00000   0.00000  -0.00000
 188       60G-3        0.00000   0.00000   0.00000  -0.00000
 189       60G+4        0.00000   0.00000   0.00000   0.00000
 190       60G-4        0.00000   0.00000   0.00000   0.00000
 191 2   O  1S         -0.00000  -0.00000  -0.00000  -0.00000
 192        2S          0.00000   0.00000   0.00000   0.00000
 193        3S         -0.00000  -0.00000  -0.00000  -0.00000
 194        4S          0.00001   0.00000   0.00000   0.00000
 195        5S         -0.00024  -0.00012  -0.00012  -0.00000
 196        6S         -0.01128  -0.00564  -0.00564  -0.00000
 197        7S         -0.10168  -0.05087  -0.05081  -0.00005
 198        8S          1.06428   0.53243   0.53185   0.00057
 199        9S          0.23565   0.11789   0.11776   0.00013
 200       10S          0.72682   0.36328   0.36354  -0.00026
 201       11S         -0.00014  -0.00007  -0.00006  -0.00001
 202       12S          0.00840   0.00420   0.00420   0.00000
 203       13S          0.06550   0.03693   0.02856   0.00837
 204       14PX         0.00166   0.00083   0.00083  -0.00000
 205       14PY         0.00166   0.00083   0.00083  -0.00000
 206       14PZ         0.00163   0.00082   0.00081   0.00001
 207       15PX         0.05601   0.02801   0.02801  -0.00000
 208       15PY         0.05601   0.02801   0.02801  -0.00000
 209       15PZ         0.05519   0.02768   0.02751   0.00017
 210       16PX         0.33232   0.16616   0.16616  -0.00000
 211       16PY         0.33232   0.16616   0.16616  -0.00000
 212       16PZ         0.32945   0.16522   0.16422   0.00100
 213       17PX         0.68468   0.34234   0.34234  -0.00000
 214       17PY         0.68468   0.34234   0.34234  -0.00000
 215       17PZ         0.68358   0.34270   0.34088   0.00183
 216       18PX         0.55796   0.27898   0.27898  -0.00000
 217       18PY         0.55796   0.27898   0.27898  -0.00000
 218       18PZ         0.44339   0.22108   0.22232  -0.00124
 219       19PX         0.00194   0.00097   0.00097  -0.00000
 220       19PY         0.00194   0.00097   0.00097  -0.00000
 221       19PZ         0.00194   0.00097   0.00097   0.00001
 222       20PX        -0.00027  -0.00013  -0.00013   0.00000
 223       20PY        -0.00027  -0.00013  -0.00013   0.00000
 224       20PZ        -0.00026  -0.00013  -0.00013  -0.00000
 225       21PX         0.06381   0.03190   0.03190  -0.00000
 226       21PY         0.06381   0.03190   0.03190  -0.00000
 227       21PZ         0.03693   0.02005   0.01688   0.00317
 228       22D 0        0.00029   0.00015   0.00014   0.00001
 229       22D+1        0.00016   0.00008   0.00008  -0.00000
 230       22D-1        0.00016   0.00008   0.00008  -0.00000
 231       22D+2        0.00000   0.00000   0.00000   0.00000
 232       22D-2        0.00000   0.00000   0.00000   0.00000
 233       23D 0        0.00388   0.00198   0.00190   0.00008
 234       23D+1        0.00302   0.00151   0.00151  -0.00000
 235       23D-1        0.00302   0.00151   0.00151  -0.00000
 236       23D+2        0.00006   0.00006  -0.00000   0.00006
 237       23D-2        0.00000   0.00000  -0.00000   0.00000
 238       24D 0        0.00000   0.00000   0.00000   0.00000
 239       24D+1        0.00000   0.00000   0.00000  -0.00000
 240       24D-1        0.00000   0.00000   0.00000  -0.00000
 241       24D+2        0.00000   0.00000   0.00000   0.00000
 242       24D-2        0.00000   0.00000   0.00000   0.00000
 243       25D 0        0.00021   0.00006   0.00016  -0.00010
 244       25D+1        0.00661   0.00330   0.00330  -0.00000
 245       25D-1        0.00661   0.00330   0.00330  -0.00000
 246       25D+2        0.00016   0.00016   0.00000   0.00016
 247       25D-2        0.00000   0.00000   0.00000   0.00000
 248       26F 0        0.00010   0.00005   0.00005   0.00001
 249       26F+1        0.00004   0.00002   0.00002  -0.00000
 250       26F-1        0.00004   0.00002   0.00002  -0.00000
 251       26F+2        0.00000   0.00000   0.00000   0.00000
 252       26F-2        0.00000   0.00000   0.00000   0.00000
 253       26F+3        0.00000   0.00000   0.00000   0.00000
 254       26F-3        0.00000   0.00000   0.00000  -0.00000
 255       27F 0        0.00039   0.00022   0.00018   0.00004
 256       27F+1        0.00094   0.00047   0.00047  -0.00000
 257       27F-1        0.00094   0.00047   0.00047  -0.00000
 258       27F+2        0.00008   0.00008  -0.00000   0.00008
 259       27F-2        0.00000   0.00000  -0.00000   0.00000
 260       27F+3       -0.00000  -0.00000  -0.00000   0.00000
 261       27F-3       -0.00000  -0.00000  -0.00000   0.00000
          Condensed to atoms (all electrons):
               1          2
     1  Ti  10.655503   0.382360
     2  O    0.382360   6.579778
          Atomic-Atomic Spin Densities.
               1          2
     1  Ti   1.976551   0.009427
     2  O    0.009427   0.004595
 Mulliken charges and spin densities:
               1          2
     1  Ti   0.962137   1.985978
     2  O   -0.962137   0.014022
 Sum of Mulliken charges =  -0.00000   2.00000
 Mulliken charges and spin densities with hydrogens summed into heavy atoms:
               1          2
     1  Ti   0.962137   1.985978
     2  O   -0.962137   0.014022
 Electronic spatial extent (au):  <R**2>=            107.6814
 Charge=             -0.0000 electrons
 Dipole moment (field-independent basis, Debye):
    X=              0.0000    Y=              0.0000    Z=              7.0533  Tot=              7.0533
 Quadrupole moment (field-independent basis, Debye-Ang):
   XX=            -21.7262   YY=            -21.7262   ZZ=            -30.6373
   XY=              0.0000   XZ=              0.0000   YZ=              0.0000
 Traceless Quadrupole moment (field-independent basis, Debye-Ang):
   XX=              2.9704   YY=              2.9704   ZZ=             -5.9407
   XY=              0.0000   XZ=              0.0000   YZ=              0.0000
 Octapole moment (field-independent basis, Debye-Ang**2):
  XXX=              0.0000  YYY=              0.0000  ZZZ=              7.3785  XYY=              0.0000
  XXY=              0.0000  XXZ=              0.7139  XZZ=              0.0000  YZZ=              0.0000
  YYZ=              0.7139  XYZ=              0.0000
 Hexadecapole moment (field-independent basis, Debye-Ang**3):
 XXXX=            -37.6178 YYYY=            -37.6178 ZZZZ=           -175.8929 XXXY=              0.0000
 XXXZ=              0.0000 YYYX=              0.0000 YYYZ=              0.0000 ZZZX=              0.0000
 ZZZY=              0.0000 XXYY=            -12.1427 XXZZ=            -34.3883 YYZZ=            -34.3883
 XXYZ=              0.0000 YYXZ=              0.0000 ZZXY=              0.0000
 N-N= 2.005303115065D+01 E-N=-2.004687482384D+02  KE= 3.662505696386D+01
 Symmetry A1   KE= 1.894442047751D+01
 Symmetry A2   KE= 1.222681766294D-31
 Symmetry B1   KE= 8.840318243547D+00
 Symmetry B2   KE= 8.840318242815D+00
 Symmetry A1   SP= 2.000000000000D+00
 Symmetry A2   SP= 2.999657082365D-32
 Symmetry B1   SP=-6.519958707357D-16
 Symmetry B2   SP=-6.575030399507D-16
 Orbital energies and kinetic energies (alpha):
                                 1                 2
   4         O                -1.931207          2.463211
   5         O                -1.123399          0.922129
   6         O                -0.526740          2.271433
   7         O                -0.413712          1.956948
   8         O                -0.373700          1.956948
   9         O                -0.373700          4.076056
  10         O                -0.297956          0.573634
  11         V                -0.009419          0.259880
  12         V                -0.009419          0.259880
  13         V                 0.000236          0.289308
  14         V                 0.019645          0.233954
  15         V                 0.033263          0.351772
 Total kinetic energy from orbitals= 4.127474676607D+01
                          Isotropic Fermi Contact Couplings
        Atom                 a.u.       MegaHertz       Gauss      10(-4) cm-1
     1  Ti(47)             0.00003      -0.00427      -0.00152      -0.00142
     2  O(17)              0.00002      -0.00491      -0.00175      -0.00164
 --------------------------------------------------------
       Center         ----  Spin Dipole Couplings  ----
                      3XX-RR        3YY-RR        3ZZ-RR
 --------------------------------------------------------
     1   Atom        0.456377      0.456377     -0.912753
     2   Atom       -0.027925     -0.027925      0.055850
 --------------------------------------------------------
                        XY            XZ            YZ
 --------------------------------------------------------
     1   Atom        0.000000      0.000000      0.000000
     2   Atom        0.000000      0.000000      0.000000
 --------------------------------------------------------


 ---------------------------------------------------------------------------------
              Anisotropic Spin Dipole Couplings in Principal Axis System
 ---------------------------------------------------------------------------------

       Atom             a.u.   MegaHertz   Gauss  10(-4) cm-1        Axes

              Baa    -0.9128    27.498     9.812     9.172  0.0000  0.0000  1.0000
     1 Ti(47) Bbb     0.4564   -13.749    -4.906    -4.586  1.0000  0.0000  0.0000
              Bcc     0.4564   -13.749    -4.906    -4.586 -0.0000  1.0000  0.0000
 
              Baa    -0.0279     2.021     0.721     0.674 -0.0000  1.0000  0.0000
     2 O(17)  Bbb    -0.0279     2.021     0.721     0.674  1.0000  0.0000  0.0000
              Bcc     0.0558    -4.041    -1.442    -1.348  0.0000  0.0000  1.0000
 

 ---------------------------------------------------------------------------------

 No NMR shielding tensors so no spin-rotation constants.
 Leave Link  601 at Sun Mar 11 06:03:58 2018, MaxMem= 10737418240 cpu:              53.4 elap:               3.5
 (Enter /home1/apps/gaussian/16rA.03/g16/l9999.exe)

 Test job not archived.
 1\1\GINC-C408-101\SP\ROCCSD(T)-Full\Gen\O1Ti1(3)\AANNABE\11-Mar-2018\0
 \\#P ROCCSD(T)=(maxcyc=150, Full, SaveAmplitudes, ReadAmplitudes)/Gen 
 5d 7f SCF=(maxcycles=300) Integral(NoXCTest) MaxDisk=500GB Pop=Regular
  Pseudo=Read Guess=Read IOp(5/15=2)\\TiO\\0,3\Ti,0,0.,0.,0.\O,0,0.,0.,
 1.9\\Version=ES64L-G16RevA.03\HF=-73.3422204\MP2=-74.0990408\MP3=-74.0
 427038\PUHF=-73.3422204\PMP2-0=-74.0990408\MP4SDQ=-74.1334474\CCSD=-74
 .0795256\CCSD(T)=-74.136745\RMSD=5.367e-09\PG=C*V [C*(O1Ti1)]\\@


 ACCORDING TO HEN3RY, LIFE IS MUCH LIKE A SEWER........
 YOU GET OUT OF IT JUST WHAT YOU PUT INTO IT...........
                         TOM LEHRER - (THE 3 IS SILENT)
 Job cpu time:       0 days  6 hours 14 minutes 41.8 seconds.
 Elapsed time:       0 days  0 hours 23 minutes 31.7 seconds.
 File lengths (MBytes):  RWF=   3532 Int=      0 D2E=      0 Chk=     22 Scr=      1
 Normal termination of Gaussian 16 at Sun Mar 11 06:03:59 2018.
