 Entering Gaussian System, Link 0=g16
 Initial command:
 /home1/apps/gaussian/16rA.03/g16/l1.exe "/tmp/Gau-273374.inp" -scrdir="/tmp/"
 Entering Link 1 = /home1/apps/gaussian/16rA.03/g16/l1.exe PID=    273375.
  
 Copyright (c) 1988,1990,1992,1993,1995,1998,2003,2009,2016,
            Gaussian, Inc.  All Rights Reserved.
  
 This is part of the Gaussian(R) 16 program.  It is based on
 the Gaussian(R) 09 system (copyright 2009, Gaussian, Inc.),
 the Gaussian(R) 03 system (copyright 2003, Gaussian, Inc.),
 the Gaussian(R) 98 system (copyright 1998, Gaussian, Inc.),
 the Gaussian(R) 94 system (copyright 1995, Gaussian, Inc.),
 the Gaussian 92(TM) system (copyright 1992, Gaussian, Inc.),
 the Gaussian 90(TM) system (copyright 1990, Gaussian, Inc.),
 the Gaussian 88(TM) system (copyright 1988, Gaussian, Inc.),
 the Gaussian 86(TM) system (copyright 1986, Carnegie Mellon
 University), and the Gaussian 82(TM) system (copyright 1983,
 Carnegie Mellon University). Gaussian is a federally registered
 trademark of Gaussian, Inc.
  
 This software contains proprietary and confidential information,
 including trade secrets, belonging to Gaussian, Inc.
  
 This software is provided under written license and may be
 used, copied, transmitted, or stored only in accord with that
 written license.
  
 The following legend is applicable only to US Government
 contracts under FAR:
  
                    RESTRICTED RIGHTS LEGEND
  
 Use, reproduction and disclosure by the US Government is
 subject to restrictions as set forth in subparagraphs (a)
 and (c) of the Commercial Computer Software - Restricted
 Rights clause in FAR 52.227-19.
  
 Gaussian, Inc.
 340 Quinnipiac St., Bldg. 40, Wallingford CT 06492
  
  
 ---------------------------------------------------------------
 Warning -- This program may not be used in any manner that
 competes with the business of Gaussian, Inc. or will provide
 assistance to any competitor of Gaussian, Inc.  The licensee
 of this program is prohibited from giving any competitor of
 Gaussian, Inc. access to this program.  By using this program,
 the user acknowledges that Gaussian, Inc. is engaged in the
 business of creating and licensing software in the field of
 computational chemistry and represents and warrants to the
 licensee that it is not a competitor of Gaussian, Inc. and that
 it will not use this program in any manner prohibited above.
 ---------------------------------------------------------------
  

 Cite this work as:
 Gaussian 16, Revision A.03,
 M. J. Frisch, G. W. Trucks, H. B. Schlegel, G. E. Scuseria, 
 M. A. Robb, J. R. Cheeseman, G. Scalmani, V. Barone, 
 G. A. Petersson, H. Nakatsuji, X. Li, M. Caricato, A. V. Marenich, 
 J. Bloino, B. G. Janesko, R. Gomperts, B. Mennucci, H. P. Hratchian, 
 J. V. Ortiz, A. F. Izmaylov, J. L. Sonnenberg, D. Williams-Young, 
 F. Ding, F. Lipparini, F. Egidi, J. Goings, B. Peng, A. Petrone, 
 T. Henderson, D. Ranasinghe, V. G. Zakrzewski, J. Gao, N. Rega, 
 G. Zheng, W. Liang, M. Hada, M. Ehara, K. Toyota, R. Fukuda, 
 J. Hasegawa, M. Ishida, T. Nakajima, Y. Honda, O. Kitao, H. Nakai, 
 T. Vreven, K. Throssell, J. A. Montgomery, Jr., J. E. Peralta, 
 F. Ogliaro, M. J. Bearpark, J. J. Heyd, E. N. Brothers, K. N. Kudin, 
 V. N. Staroverov, T. A. Keith, R. Kobayashi, J. Normand, 
 K. Raghavachari, A. P. Rendell, J. C. Burant, S. S. Iyengar, 
 J. Tomasi, M. Cossi, J. M. Millam, M. Klene, C. Adamo, R. Cammi, 
 J. W. Ochterski, R. L. Martin, K. Morokuma, O. Farkas, 
 J. B. Foresman, and D. J. Fox, Gaussian, Inc., Wallingford CT, 2016.
 
 ******************************************
 Gaussian 16:  ES64L-G16RevA.03 25-Dec-2016
                13-Mar-2018 
 ******************************************
 %MEM=80GB
 %CPU=0-15
 SetSPE:  set environment variable "MP_BIND" = "yes"
 SetSPE:  set environment variable "MP_BLIST" = "0,1,2,3,4,5,6,7,8,9,10,11,12,13,14,15"
 Will use up to   16 processors via shared memory.
 %RWF=/scratch/04843/aannabe/gaussian/
 %Int=/scratch/04843/aannabe/gaussian/
 %D2E=/scratch/04843/aannabe/gaussian/
 %NoSave
 %CHK=Ti
 ----------------------------------------------------------------------
 #P ROCCSD(T)=(maxcyc=150, Full)/Gen 5d 7f SCF=(maxcycles=300, NoVarAcc
 , VShift=200) MaxDisk=100GB Pop=Regular Pseudo=Read Guess=Read
 ----------------------------------------------------------------------
 1/38=1,172=1/1;
 2/12=2,17=6,18=5,40=1/2;
 3/5=7,8=11,11=2,16=1,17=8,25=1,30=1,116=101/1,2,3;
 4/5=1/1;
 5/5=2,7=300,10=200,38=6/2;
 8/5=-1,6=4,9=120000,10=90/1,4;
 9/5=7,6=150,14=2/13;
 6//1;
 99/5=1,9=1/99;
 Leave Link    1 at Tue Mar 13 12:42:38 2018, MaxMem= 10737418240 cpu:               3.9 elap:               0.3
 (Enter /home1/apps/gaussian/16rA.03/g16/l101.exe)
 --
 Ti
 --
 Symbolic Z-matrix:
 Charge =  0 Multiplicity = 3
 Ti                    0.        0.        0. 
 
 ITRead=  0
 MicOpt= -1
 NAtoms=      1 NQM=        1 NQMF=       0 NMMI=      0 NMMIF=      0
                NMic=       0 NMicF=      0.
                    Isotopes and Nuclear Properties:
 (Nuclear quadrupole moments (NQMom) in fm**2, nuclear magnetic moments (NMagM)
  in nuclear magnetons)

  Atom         1
 IAtWgt=          48
 AtmWgt=  47.9479467
 NucSpn=           0
 AtZEff=  -0.0000000
 NQMom=    0.0000000
 NMagM=    0.0000000
 AtZNuc=  22.0000000
 Leave Link  101 at Tue Mar 13 12:42:38 2018, MaxMem= 10737418240 cpu:               1.5 elap:               0.1
 (Enter /home1/apps/gaussian/16rA.03/g16/l202.exe)
                          Input orientation:                          
 ---------------------------------------------------------------------
 Center     Atomic      Atomic             Coordinates (Angstroms)
 Number     Number       Type             X           Y           Z
 ---------------------------------------------------------------------
      1         22           0        0.000000    0.000000    0.000000
 ---------------------------------------------------------------------
 Stoichiometry    Ti(3)
 Framework group  OH[O(Ti)]
 Deg. of freedom     0
 Full point group                 OH      NOp  48
 Largest Abelian subgroup         D2H     NOp   8
 Largest concise Abelian subgroup C1      NOp   1
                         Standard orientation:                         
 ---------------------------------------------------------------------
 Center     Atomic      Atomic             Coordinates (Angstroms)
 Number     Number       Type             X           Y           Z
 ---------------------------------------------------------------------
      1         22           0        0.000000    0.000000    0.000000
 ---------------------------------------------------------------------
 Leave Link  202 at Tue Mar 13 12:42:38 2018, MaxMem= 10737418240 cpu:               0.6 elap:               0.1
 (Enter /home1/apps/gaussian/16rA.03/g16/l301.exe)
 General basis read from cards:  (5D, 7F)
 Centers:       1
 S 1 1.00
     Exponent=  1.2264700000D+08 Coefficients=  1.0000000000D+00
 S 1 1.00
     Exponent=  2.1956200000D+07 Coefficients=  1.0000000000D+00
 S 1 1.00
     Exponent=  4.9023300000D+06 Coefficients=  1.0000000000D+00
 S 1 1.00
     Exponent=  1.3106000000D+06 Coefficients=  1.0000000000D+00
 S 1 1.00
     Exponent=  4.0522800000D+05 Coefficients=  1.0000000000D+00
 S 1 1.00
     Exponent=  1.4075700000D+05 Coefficients=  1.0000000000D+00
 S 1 1.00
     Exponent=  5.3625100000D+04 Coefficients=  1.0000000000D+00
 S 1 1.00
     Exponent=  2.1976200000D+04 Coefficients=  1.0000000000D+00
 S 1 1.00
     Exponent=  9.5396000000D+03 Coefficients=  1.0000000000D+00
 S 1 1.00
     Exponent=  4.3343700000D+03 Coefficients=  1.0000000000D+00
 S 1 1.00
     Exponent=  2.0428900000D+03 Coefficients=  1.0000000000D+00
 S 1 1.00
     Exponent=  9.9230800000D+02 Coefficients=  1.0000000000D+00
 S 1 1.00
     Exponent=  4.9444600000D+02 Coefficients=  1.0000000000D+00
 S 1 1.00
     Exponent=  2.5190700000D+02 Coefficients=  1.0000000000D+00
 S 1 1.00
     Exponent=  1.3090500000D+02 Coefficients=  1.0000000000D+00
 S 1 1.00
     Exponent=  6.9236800000D+01 Coefficients=  1.0000000000D+00
 S 1 1.00
     Exponent=  3.7184700000D+01 Coefficients=  1.0000000000D+00
 S 1 1.00
     Exponent=  2.0215700000D+01 Coefficients=  1.0000000000D+00
 S 1 1.00
     Exponent=  1.1076500000D+01 Coefficients=  1.0000000000D+00
 S 1 1.00
     Exponent=  6.0786700000D+00 Coefficients=  1.0000000000D+00
 S 1 1.00
     Exponent=  3.3127700000D+00 Coefficients=  1.0000000000D+00
 S 1 1.00
     Exponent=  1.7725000000D+00 Coefficients=  1.0000000000D+00
 S 1 1.00
     Exponent=  9.1737800000D-01 Coefficients=  1.0000000000D+00
 S 1 1.00
     Exponent=  4.6928300000D-01 Coefficients=  1.0000000000D+00
 S 1 1.00
     Exponent=  2.1926700000D-01 Coefficients=  1.0000000000D+00
 S 1 1.00
     Exponent=  1.0581100000D-01 Coefficients=  1.0000000000D+00
 S 1 1.00
     Exponent=  4.8443000000D-02 Coefficients=  1.0000000000D+00
 S 1 1.00
     Exponent=  2.2535000000D-02 Coefficients=  1.0000000000D+00
 S 1 1.00
     Exponent=  4.2553000000D+00 Coefficients=  1.0000000000D+00
 S 1 1.00
     Exponent=  1.2538000000D+00 Coefficients=  1.0000000000D+00
 S 1 1.00
     Exponent=  1.0480000000D-02 Coefficients=  1.0000000000D+00
 P 1 1.00
     Exponent=  5.9284900000D+04 Coefficients=  1.0000000000D+00
 P 1 1.00
     Exponent=  1.4323600000D+04 Coefficients=  1.0000000000D+00
 P 1 1.00
     Exponent=  4.5372200000D+03 Coefficients=  1.0000000000D+00
 P 1 1.00
     Exponent=  1.7265400000D+03 Coefficients=  1.0000000000D+00
 P 1 1.00
     Exponent=  7.4107500000D+02 Coefficients=  1.0000000000D+00
 P 1 1.00
     Exponent=  3.4380700000D+02 Coefficients=  1.0000000000D+00
 P 1 1.00
     Exponent=  1.6788400000D+02 Coefficients=  1.0000000000D+00
 P 1 1.00
     Exponent=  8.5039400000D+01 Coefficients=  1.0000000000D+00
 P 1 1.00
     Exponent=  4.4382900000D+01 Coefficients=  1.0000000000D+00
 P 1 1.00
     Exponent=  2.3792800000D+01 Coefficients=  1.0000000000D+00
 P 1 1.00
     Exponent=  1.3053600000D+01 Coefficients=  1.0000000000D+00
 P 1 1.00
     Exponent=  7.2687200000D+00 Coefficients=  1.0000000000D+00
 P 1 1.00
     Exponent=  4.0380500000D+00 Coefficients=  1.0000000000D+00
 P 1 1.00
     Exponent=  2.1929400000D+00 Coefficients=  1.0000000000D+00
 P 1 1.00
     Exponent=  1.1616200000D+00 Coefficients=  1.0000000000D+00
 P 1 1.00
     Exponent=  6.0325000000D-01 Coefficients=  1.0000000000D+00
 P 1 1.00
     Exponent=  3.0017400000D-01 Coefficients=  1.0000000000D+00
 P 1 1.00
     Exponent=  1.3013100000D-01 Coefficients=  1.0000000000D+00
 P 1 1.00
     Exponent=  5.7223000000D-02 Coefficients=  1.0000000000D+00
 P 1 1.00
     Exponent=  2.4910000000D-02 Coefficients=  1.0000000000D+00
 P 1 1.00
     Exponent=  5.7813000000D+00 Coefficients=  1.0000000000D+00
 P 1 1.00
     Exponent=  1.6500000000D+00 Coefficients=  1.0000000000D+00
 P 1 1.00
     Exponent=  1.0840000000D-02 Coefficients=  1.0000000000D+00
 D 1 1.00
     Exponent=  2.6124600000D+02 Coefficients=  1.0000000000D+00
 D 1 1.00
     Exponent=  7.7445400000D+01 Coefficients=  1.0000000000D+00
 D 1 1.00
     Exponent=  2.9687900000D+01 Coefficients=  1.0000000000D+00
 D 1 1.00
     Exponent=  1.2764200000D+01 Coefficients=  1.0000000000D+00
 D 1 1.00
     Exponent=  5.8299200000D+00 Coefficients=  1.0000000000D+00
 D 1 1.00
     Exponent=  2.7978300000D+00 Coefficients=  1.0000000000D+00
 D 1 1.00
     Exponent=  1.3638300000D+00 Coefficients=  1.0000000000D+00
 D 1 1.00
     Exponent=  6.6003700000D-01 Coefficients=  1.0000000000D+00
 D 1 1.00
     Exponent=  3.1369900000D-01 Coefficients=  1.0000000000D+00
 D 1 1.00
     Exponent=  1.4497800000D-01 Coefficients=  1.0000000000D+00
 D 1 1.00
     Exponent=  6.4772000000D-02 Coefficients=  1.0000000000D+00
 D 1 1.00
     Exponent=  2.7376000000D-02 Coefficients=  1.0000000000D+00
 D 1 1.00
     Exponent=  3.4534000000D+00 Coefficients=  1.0000000000D+00
 D 1 1.00
     Exponent=  1.9445000000D+00 Coefficients=  1.0000000000D+00
 D 1 1.00
     Exponent=  1.1570000000D-02 Coefficients=  1.0000000000D+00
 F 1 1.00
     Exponent=  5.0709000000D+00 Coefficients=  1.0000000000D+00
 F 1 1.00
     Exponent=  2.1837000000D+00 Coefficients=  1.0000000000D+00
 F 1 1.00
     Exponent=  9.4040000000D-01 Coefficients=  1.0000000000D+00
 F 1 1.00
     Exponent=  4.0490000000D-01 Coefficients=  1.0000000000D+00
 F 1 1.00
     Exponent=  1.2770000000D-01 Coefficients=  1.0000000000D+00
 F 1 1.00
     Exponent=  4.0270000000D-02 Coefficients=  1.0000000000D+00
 G 1 1.00
     Exponent=  4.0100000000D+00 Coefficients=  1.0000000000D+00
 G 1 1.00
     Exponent=  1.8192000000D+00 Coefficients=  1.0000000000D+00
 G 1 1.00
     Exponent=  8.2540000000D-01 Coefficients=  1.0000000000D+00
 G 1 1.00
     Exponent=  2.5440000000D-01 Coefficients=  1.0000000000D+00
 G 1 1.00
     Exponent=  7.8410000000D-02 Coefficients=  1.0000000000D+00
 H 1 1.00
     Exponent=  3.6168000000D+00 Coefficients=  1.0000000000D+00
 H 1 1.00
     Exponent=  1.5432000000D+00 Coefficients=  1.0000000000D+00
 H 1 1.00
     Exponent=  5.0440000000D-01 Coefficients=  1.0000000000D+00
 H 1 1.00
     Exponent=  1.6486000000D-01 Coefficients=  1.0000000000D+00
 I 1 1.00
     Exponent=  3.1547000000D+00 Coefficients=  1.0000000000D+00
 I 1 1.00
     Exponent=  9.8640000000D-01 Coefficients=  1.0000000000D+00
 I 1 1.00
     Exponent=  3.0842000000D-01 Coefficients=  1.0000000000D+00
 ****
 ======================================================================================================
                                       Pseudopotential Parameters
 ======================================================================================================
  Center     Atomic      Valence      Angular      Power
  Number     Number     Electrons     Momentum     of R      Exponent        Coefficient   SO-Coeffient
 ======================================================================================================
    1         22           12
                                      F and up 
                                                     1        8.5249928       12.00000000    0.00000000
                                                     2       15.2433413     2048.39512837    0.00000000
                                                     2        9.8260552     -812.71625987    0.00000000
                                                     2       13.7363863    -6663.62886396    0.00000000
                                                     2       12.6545051     5396.93874773    0.00000000
                                                     3        7.5479069      102.29991323    0.00000000
                                      S - F
                                                     2        6.0785437    -5355.67455847    0.00000000
                                                     2        6.6087036     4802.76911085    0.00000000
                                                     2        5.4080383     1304.66429039    0.00000000
                                                     2       10.4303760    -1133.61681175    0.00000000
                                                     2       18.4079625     -258.77562194    0.00000000
                                                     2       15.3842880      672.53886697    0.00000000
                                      P - F
                                                     2        9.6031986    56981.17339652    0.00000000
                                                     2        9.6627051    **************    0.00000000
                                                     2       15.0651591     1335.72576887    0.00000000
                                                     2       16.3659998     -813.49634683    0.00000000
                                                     2        7.8642018     -720.45341501    0.00000000
                                                     2       10.2545265      239.69852194    0.00000000
                                      D - F
                                                     2       10.5665082    -4262.72074057    0.00000000
                                                     2        2.7136838       -1.34753473    0.00000000
                                                     2        9.3378092     1569.82864567    0.00000000
                                                     2       31.6056069       -0.45387550    0.00000000
                                                     2       12.2803014     5034.44351544    0.00000000
                                                     2       13.3677017    -2350.67846378    0.00000000
 ======================================================================================================
 Ernie: Thresh=  0.10000D-02 Tol=  0.10000D-05 Strict=F.
 There are   136 symmetry adapted cartesian basis functions of AG  symmetry.
 There are    48 symmetry adapted cartesian basis functions of B1G symmetry.
 There are    48 symmetry adapted cartesian basis functions of B2G symmetry.
 There are    48 symmetry adapted cartesian basis functions of B3G symmetry.
 There are    18 symmetry adapted cartesian basis functions of AU  symmetry.
 There are    65 symmetry adapted cartesian basis functions of B1U symmetry.
 There are    65 symmetry adapted cartesian basis functions of B2U symmetry.
 There are    65 symmetry adapted cartesian basis functions of B3U symmetry.
 There are    88 symmetry adapted basis functions of AG  symmetry.
 There are    34 symmetry adapted basis functions of B1G symmetry.
 There are    34 symmetry adapted basis functions of B2G symmetry.
 There are    34 symmetry adapted basis functions of B3G symmetry.
 There are    14 symmetry adapted basis functions of AU  symmetry.
 There are    47 symmetry adapted basis functions of B1U symmetry.
 There are    47 symmetry adapted basis functions of B2U symmetry.
 There are    47 symmetry adapted basis functions of B3U symmetry.
   345 basis functions,   493 primitive gaussians,   493 cartesian basis functions
     7 alpha electrons        5 beta electrons
       nuclear repulsion energy         0.0000000000 Hartrees.
 IExCor=    0 DFT=F Ex=HF Corr=None ExCW=0 ScaHFX=  1.000000
 ScaDFX=  1.000000  1.000000  1.000000  1.000000 ScalE2=  1.000000  1.000000
 IRadAn=      5 IRanWt=     -1 IRanGd=            0 ICorTp=0 IEmpDi=  4
 NAtoms=    1 NActive=    1 NUniq=    1 SFac= 1.00D+00 NAtFMM=   60 NAOKFM=F Big=F
 Integral buffers will be    131072 words long.
 Raffenetti 2 integral format.
 Two-electron integral symmetry is turned on.
 Leave Link  301 at Tue Mar 13 12:42:39 2018, MaxMem= 10737418240 cpu:               4.5 elap:               0.3
 (Enter /home1/apps/gaussian/16rA.03/g16/l302.exe)
 NPDir=0 NMtPBC=     1 NCelOv=     1 NCel=       1 NClECP=     1 NCelD=      1
         NCelK=      1 NCelE2=     1 NClLst=     1 CellRange=     0.0.
 One-electron integrals computed using PRISM.
 One-electron integral symmetry used in STVInt
  48 Symmetry operations used in ECPInt.
 ECPInt:  NShTT=    3828 NPrTT=    3828 LenC2=    3829 LenP2D=    3828.
 LDataN:  DoStor=T MaxTD1=12 Len= 1566
 NBasis=   345 RedAO= T EigKep=  1.16D-06  NBF=    88    34    34    34    14    47    47    47
 NBsUse=   344 1.00D-06 EigRej=  2.08D-07 NBFU=    87    34    34    34    14    47    47    47
 Leave Link  302 at Tue Mar 13 12:43:12 2018, MaxMem= 10737418240 cpu:             526.3 elap:              32.9
 (Enter /home1/apps/gaussian/16rA.03/g16/l303.exe)
 DipDrv:  MaxL=1.
 Leave Link  303 at Tue Mar 13 12:43:12 2018, MaxMem= 10737418240 cpu:               2.1 elap:               0.2
 (Enter /home1/apps/gaussian/16rA.03/g16/l401.exe)
 Initial guess from the checkpoint file:  "Ti.chk"
 B after Tr=     0.000000    0.000000    0.000000
         Rot=    1.000000    0.000000    0.000000    0.000000 Ang=   0.00 deg.
 Guess basis will be translated and rotated to current coordinates.
 JPrj=2 DoOrth=T DoCkMO=T.
 Initial guess orbital symmetries:
       Occupied  (A1G) (?A) (?A) (?A) (A1G) (?B) (?B)
       Virtual   (T1U) (T1U) (T1U) (A1G) (?B) (?B) (?B) (?B) (?B)
                 (T1U) (T1U) (T1U) (?B) (?B) (?B) (A1G) (?B) (?B)
                 (?C) (?C) (?C) (?B) (?B) (?B) (?C) (?C) (?C) (?C)
                 (?C) (?C) (?C) (?B) (?B) (?B) (?B) (?B) (?D) (?D)
                 (?D) (?D) (?D) (?D) (?D) (?D) (?D) (?D) (?E) (?E)
                 (?E) (?E) (?E) (?E) (?E) (?E) (?E) (?E) (?B) (?B)
                 (?B) (?B) (?B) (A1G) (?F) (?F) (?F) (?F) (?F)
                 (?F) (?F) (?F) (?F) (?F) (?F) (T1U) (T1U) (T1U)
                 (?F) (?F) (?F) (?F) (?F) (?F) (?F) (?F) (?F) (?A)
                 (?A) (?A) (?A) (?A) (?A) (?A) (?B) (?B) (?B) (?B)
                 (?B) (?F) (?F) (?F) (?F) (?F) (?F) (?F) (?F) (?F)
                 (?F) (?F) (?F) (?F) (A1G) (T1U) (T1U) (T1U) (?F)
                 (?F) (?F) (?F) (?F) (?F) (?F) (?F) (?F) (?F) (?F)
                 (?B) (?B) (?B) (?B) (?B) (?F) (?F) (?F) (?F) (?F)
                 (?F) (?F) (?F) (?F) (?F) (?F) (?F) (?F) (?F) (?F)
                 (?F) (A1G) (T1U) (T1U) (T1U) (?F) (?F) (?F) (?F)
                 (?F) (?F) (?F) (?F) (?F) (?F) (?F) (?F) (?F) (?F)
                 (?F) (?F) (?F) (?F) (?F) (?F) (?F) (?F) (?F) (?F)
                 (?F) (?F) (?F) (?F) (?F) (?F) (?F) (?F) (?F) (?F)
                 (?F) (?F) (?F) (?F) (?F) (?F) (?F) (?F) (?F) (?F)
                 (?F) (A1G) (T1U) (T1U) (T1U) (?F) (?F) (?F) (?F)
                 (?F) (?F) (?F) (?F) (?F) (?F) (?F) (?F) (?F) (?F)
                 (?F) (?F) (?F) (T1U) (T1U) (T1U) (?F) (?F) (?F)
                 (?F) (?F) (?F) (?F) (?F) (?F) (?F) (?F) (?F) (?F)
                 (?F) (?F) (?F) (?F) (?F) (?F) (?F) (?F) (?F) (?F)
                 (?F) (?F) (?F) (?F) (?F) (?F) (?F) (?F) (?F) (?F)
                 (A1G) (?F) (?F) (?F) (?F) (?F) (T1U) (T1U) (T1U)
                 (A1G) (T1U) (T1U) (T1U) (?F) (?F) (?F) (?F) (?F)
                 (A1G) (T1U) (T1U) (T1U) (?F) (?F) (?F) (?F) (?F)
                 (A1G) (T1U) (T1U) (T1U) (A1G) (T1U) (T1U) (T1U)
                 (?F) (?F) (?F) (?F) (?F) (A1G) (T1U) (T1U) (T1U)
                 (A1G) (T1U) (T1U) (T1U) (?F) (?F) (?F) (?F) (?F)
                 (A1G) (T1U) (T1U) (T1U) (A1G) (T1U) (T1U) (T1U)
                 (A1G) (T1U) (T1U) (T1U) (A1G) (A1G) (T1U) (T1U)
                 (T1U) (A1G) (T1U) (T1U) (T1U) (A1G) (A1G) (T1U)
                 (T1U) (T1U) (A1G) (A1G) (A1G) (A1G) (A1G) (A1G)
 Leave Link  401 at Tue Mar 13 12:43:14 2018, MaxMem= 10737418240 cpu:              20.5 elap:               1.5
 (Enter /home1/apps/gaussian/16rA.03/g16/l502.exe)
 Keep R1 and R2 ints in memory in symmetry-blocked form, NReq=2007023064.
 FoFCou: FMM=F IPFlag=           0 FMFlag=           0 FMFlg1=           0
         NFxFlg=           0 DoJE=F BraDBF=F KetDBF=F FulRan=T
         wScrn=  0.000000 ICntrl=       600 IOpCl=  0 I1Cent=           0 NGrid=           0
         NMat0=    1 NMatS0=  59685 NMatT0=    0 NMatD0=    1 NMtDS0=    0 NMtDT0=    0
 Petite list used in FoFCou.
 Restricted open shell SCF:
 Using DIIS extrapolation, IDIIS=  1040.
 NGot= 10737418240 LenX= 10285402051 LenY= 10285158509
 Requested convergence on RMS density matrix=1.00D-08 within 300 cycles.
 Requested convergence on MAX density matrix=1.00D-06.
 Requested convergence on             energy=1.00D-06.
 Virtual orbitals will be shifted by   0.200 hartree.
 No special actions if energy rises.
 An orbital has undefined symmetry, so N**3 symmetry is turned off.

 Cycle   1  Pass 1  IDiag  1:
 Density matrix breaks symmetry, PCut= 1.00D-07
 Density matrix has no symmetry -- integrals replicated.
 E= -57.2459957031424    
 DIIS: error= 2.89D-01 at cycle   1 NSaved=   1.
 NSaved= 1 IEnMin= 1 EnMin= -57.2459957031424     IErMin= 1 ErrMin= 2.89D-01
 ErrMax= 2.89D-01  0.00D+00 EMaxC= 1.00D-01 BMatC= 7.80D+00 BMatP= 7.80D+00
 IDIUse=3 WtCom= 0.00D+00 WtEn= 1.00D+00
 Coeff-Com:  0.100D+01
 Coeff-En:   0.100D+01
 Coeff:      0.100D+01
 Gap=     0.060 Goal=   None    Shift=    0.200
 GapD=    0.060 DampG=0.500 DampE=0.125 DampFc=0.1250 IDamp=-1.
 Damping current iteration by 1.25D-01
 RMSDP=2.96D-03 MaxDP=3.14D-01              OVMax= 4.24D-02

 Cycle   2  Pass 1  IDiag  1:
 Density matrix breaks symmetry, PCut= 1.00D-07
 Density matrix has no symmetry -- integrals replicated.
 E= -57.2797718094320     Delta-E=       -0.033776106290 Rises=F Damp=T
 DIIS: error= 2.52D-01 at cycle   2 NSaved=   2.
 NSaved= 2 IEnMin= 2 EnMin= -57.2797718094320     IErMin= 2 ErrMin= 2.52D-01
 ErrMax= 2.52D-01  0.00D+00 EMaxC= 1.00D-01 BMatC= 5.99D+00 BMatP= 7.80D+00
 IDIUse=3 WtCom= 0.00D+00 WtEn= 1.00D+00
 Coeff-Com: -0.710D+01 0.810D+01
 Coeff-En:   0.000D+00 0.100D+01
 Coeff:      0.000D+00 0.100D+01
 Gap=     0.070 Goal=   None    Shift=    0.200
 RMSDP=2.60D-03 MaxDP=2.74D-01 DE=-3.38D-02 OVMax= 1.66D-03

 Cycle   3  Pass 1  IDiag  1:
 Density matrix breaks symmetry, PCut= 1.00D-07
 Density matrix has no symmetry -- integrals replicated.
 E= -57.5229115630737     Delta-E=       -0.243139753642 Rises=F Damp=F
 DIIS: error= 8.90D-03 at cycle   3 NSaved=   3.
 NSaved= 3 IEnMin= 3 EnMin= -57.5229115630737     IErMin= 3 ErrMin= 8.90D-03
 ErrMax= 8.90D-03  0.00D+00 EMaxC= 1.00D-01 BMatC= 3.71D-03 BMatP= 5.99D+00
 IDIUse=3 WtCom= 9.11D-01 WtEn= 8.90D-02
 Coeff-Com:  0.179D+01-0.207D+01 0.128D+01
 Coeff-En:   0.000D+00 0.000D+00 0.100D+01
 Coeff:      0.163D+01-0.189D+01 0.125D+01
 Gap=     0.080 Goal=   None    Shift=    0.200
 RMSDP=1.35D-04 MaxDP=1.46D-02 DE=-2.43D-01 OVMax= 3.86D-03

 Cycle   4  Pass 1  IDiag  1:
 Density matrix breaks symmetry, PCut= 1.00D-07
 Density matrix has no symmetry -- integrals replicated.
 E= -57.5231320284017     Delta-E=       -0.000220465328 Rises=F Damp=F
 DIIS: error= 2.05D-03 at cycle   4 NSaved=   4.
 NSaved= 4 IEnMin= 4 EnMin= -57.5231320284017     IErMin= 4 ErrMin= 2.05D-03
 ErrMax= 2.05D-03  0.00D+00 EMaxC= 1.00D-01 BMatC= 1.46D-04 BMatP= 3.71D-03
 IDIUse=3 WtCom= 9.79D-01 WtEn= 2.05D-02
 Coeff-Com:  0.127D+01-0.145D+01 0.190D+00 0.991D+00
 Coeff-En:   0.000D+00 0.000D+00 0.000D+00 0.100D+01
 Coeff:      0.125D+01-0.142D+01 0.186D+00 0.991D+00
 Gap=     0.078 Goal=   None    Shift=    0.200
 RMSDP=1.80D-05 MaxDP=2.78D-03 DE=-2.20D-04 OVMax= 7.92D-04

 Cycle   5  Pass 1  IDiag  1:
 Density matrix breaks symmetry, PCut= 1.00D-07
 Density matrix has no symmetry -- integrals replicated.
 E= -57.5231327344449     Delta-E=       -0.000000706043 Rises=F Damp=F
 DIIS: error= 1.94D-03 at cycle   5 NSaved=   5.
 NSaved= 5 IEnMin= 5 EnMin= -57.5231327344449     IErMin= 5 ErrMin= 1.94D-03
 ErrMax= 1.94D-03  0.00D+00 EMaxC= 1.00D-01 BMatC= 9.59D-05 BMatP= 1.46D-04
 IDIUse=3 WtCom= 9.81D-01 WtEn= 1.94D-02
 Coeff-Com:  0.103D+01-0.118D+01 0.191D+00-0.113D+00 0.107D+01
 Coeff-En:   0.000D+00 0.000D+00 0.000D+00 0.000D+00 0.100D+01
 Coeff:      0.101D+01-0.116D+01 0.188D+00-0.110D+00 0.107D+01
 Gap=     0.077 Goal=   None    Shift=    0.200
 RMSDP=7.65D-06 MaxDP=1.05D-03 DE=-7.06D-07 OVMax= 5.14D-04

 Cycle   6  Pass 1  IDiag  1:
 Density matrix breaks symmetry, PCut= 1.00D-07
 Density matrix has no symmetry -- integrals replicated.
 E= -57.5231381574339     Delta-E=       -0.000005422989 Rises=F Damp=F
 DIIS: error= 1.64D-03 at cycle   6 NSaved=   6.
 NSaved= 6 IEnMin= 6 EnMin= -57.5231381574339     IErMin= 6 ErrMin= 1.64D-03
 ErrMax= 1.64D-03  0.00D+00 EMaxC= 1.00D-01 BMatC= 6.45D-05 BMatP= 9.59D-05
 IDIUse=3 WtCom= 9.84D-01 WtEn= 1.64D-02
 Coeff-Com:  0.841D+00-0.961D+00 0.155D+00 0.663D-01-0.357D+00 0.126D+01
 Coeff-En:   0.000D+00 0.000D+00 0.000D+00 0.000D+00 0.000D+00 0.100D+01
 Coeff:      0.827D+00-0.945D+00 0.153D+00 0.652D-01-0.352D+00 0.125D+01
 Gap=     0.076 Goal=   None    Shift=    0.200
 RMSDP=6.02D-06 MaxDP=8.30D-04 DE=-5.42D-06 OVMax= 5.76D-04

 Cycle   7  Pass 1  IDiag  1:
 Density matrix breaks symmetry, PCut= 1.00D-07
 Density matrix has no symmetry -- integrals replicated.
 E= -57.5231428605573     Delta-E=       -0.000004703123 Rises=F Damp=F
 DIIS: error= 1.38D-03 at cycle   7 NSaved=   7.
 NSaved= 7 IEnMin= 7 EnMin= -57.5231428605573     IErMin= 7 ErrMin= 1.38D-03
 ErrMax= 1.38D-03  0.00D+00 EMaxC= 1.00D-01 BMatC= 4.38D-05 BMatP= 6.45D-05
 IDIUse=3 WtCom= 9.86D-01 WtEn= 1.38D-02
 Coeff-Com:  0.679D+00-0.776D+00 0.121D+00 0.157D+00-0.508D+00 0.214D+00
 Coeff-Com:  0.111D+01
 Coeff-En:   0.000D+00 0.000D+00 0.000D+00 0.000D+00 0.000D+00 0.000D+00
 Coeff-En:   0.100D+01
 Coeff:      0.670D+00-0.765D+00 0.119D+00 0.155D+00-0.501D+00 0.211D+00
 Coeff:      0.111D+01
 Gap=     0.076 Goal=   None    Shift=    0.200
 RMSDP=4.61D-06 MaxDP=6.06D-04 DE=-4.70D-06 OVMax= 5.73D-04

 Cycle   8  Pass 1  IDiag  1:
 Density matrix breaks symmetry, PCut= 1.00D-07
 Density matrix has no symmetry -- integrals replicated.
 E= -57.5231469219747     Delta-E=       -0.000004061417 Rises=F Damp=F
 DIIS: error= 1.13D-03 at cycle   8 NSaved=   8.
 NSaved= 8 IEnMin= 8 EnMin= -57.5231469219747     IErMin= 8 ErrMin= 1.13D-03
 ErrMax= 1.13D-03  0.00D+00 EMaxC= 1.00D-01 BMatC= 2.89D-05 BMatP= 4.38D-05
 IDIUse=3 WtCom= 9.89D-01 WtEn= 1.13D-02
 Coeff-Com:  0.244D+00-0.278D+00 0.475D-01-0.498D-01 0.176D+00 0.120D+01
 Coeff-Com: -0.549D+01 0.515D+01
 Coeff-En:   0.000D+00 0.000D+00 0.000D+00 0.000D+00 0.000D+00 0.000D+00
 Coeff-En:   0.000D+00 0.100D+01
 Coeff:      0.241D+00-0.275D+00 0.470D-01-0.493D-01 0.174D+00 0.119D+01
 Coeff:     -0.543D+01 0.510D+01
 Gap=     0.074 Goal=   None    Shift=    0.200
 RMSDP=1.22D-05 MaxDP=1.66D-03 DE=-4.06D-06 OVMax= 1.23D-03

 Cycle   9  Pass 1  IDiag  1:
 Density matrix breaks symmetry, PCut= 1.00D-07
 Density matrix has no symmetry -- integrals replicated.
 E= -57.5231531500348     Delta-E=       -0.000006228060 Rises=F Damp=F
 DIIS: error= 5.11D-04 at cycle   9 NSaved=   9.
 NSaved= 9 IEnMin= 9 EnMin= -57.5231531500348     IErMin= 9 ErrMin= 5.11D-04
 ErrMax= 5.11D-04  0.00D+00 EMaxC= 1.00D-01 BMatC= 4.54D-06 BMatP= 2.89D-05
 IDIUse=3 WtCom= 9.95D-01 WtEn= 5.11D-03
 Coeff-Com:  0.339D+00-0.388D+00 0.643D-01-0.291D-01 0.142D+00 0.890D+00
 Coeff-Com: -0.498D+01 0.530D+01-0.331D+00
 Coeff-En:   0.000D+00 0.000D+00 0.000D+00 0.000D+00 0.000D+00 0.000D+00
 Coeff-En:   0.000D+00 0.000D+00 0.100D+01
 Coeff:      0.338D+00-0.386D+00 0.639D-01-0.290D-01 0.141D+00 0.885D+00
 Coeff:     -0.496D+01 0.527D+01-0.324D+00
 Gap=     0.074 Goal=   None    Shift=    0.200
 RMSDP=2.76D-06 MaxDP=3.90D-04 DE=-6.23D-06 OVMax= 2.11D-04

 Cycle  10  Pass 1  IDiag  1:
 Density matrix breaks symmetry, PCut= 1.00D-07
 Density matrix has no symmetry -- integrals replicated.
 E= -57.5231534089466     Delta-E=       -0.000000258912 Rises=F Damp=F
 DIIS: error= 5.59D-04 at cycle  10 NSaved=  10.
 NSaved=10 IEnMin=10 EnMin= -57.5231534089466     IErMin= 9 ErrMin= 5.11D-04
 ErrMax= 5.59D-04  0.00D+00 EMaxC= 1.00D-01 BMatC= 7.27D-06 BMatP= 4.54D-06
 IDIUse=3 WtCom= 9.95D-01 WtEn= 5.11D-03
 Coeff-Com:  0.241D+00-0.275D+00 0.485D-01-0.897D-01 0.236D+00 0.102D+01
 Coeff-Com: -0.437D+01 0.377D+01-0.360D+00 0.785D+00
 Coeff-En:   0.000D+00 0.000D+00 0.000D+00 0.000D+00 0.000D+00 0.000D+00
 Coeff-En:   0.000D+00 0.000D+00 0.000D+00 0.100D+01
 Coeff:      0.240D+00-0.274D+00 0.482D-01-0.892D-01 0.235D+00 0.101D+01
 Coeff:     -0.435D+01 0.375D+01-0.359D+00 0.786D+00
 Gap=     0.074 Goal=   None    Shift=    0.200
 RMSDP=2.49D-06 MaxDP=3.14D-04 DE=-2.59D-07 OVMax= 3.16D-04

 Cycle  11  Pass 1  IDiag  1:
 Density matrix breaks symmetry, PCut= 1.00D-07
 Density matrix has no symmetry -- integrals replicated.
 E= -57.5231543007698     Delta-E=       -0.000000891823 Rises=F Damp=F
 DIIS: error= 4.24D-04 at cycle  11 NSaved=  11.
 NSaved=11 IEnMin=11 EnMin= -57.5231543007698     IErMin=11 ErrMin= 4.24D-04
 ErrMax= 4.24D-04  0.00D+00 EMaxC= 1.00D-01 BMatC= 3.84D-06 BMatP= 4.54D-06
 IDIUse=3 WtCom= 9.96D-01 WtEn= 4.24D-03
 Coeff-Com:  0.795D-01-0.908D-01 0.149D-01 0.331D-02-0.114D+00 0.347D+00
 Coeff-Com: -0.505D+00 0.172D+00-0.645D+00-0.875D+00 0.261D+01
 Coeff-En:   0.000D+00 0.000D+00 0.000D+00 0.000D+00 0.000D+00 0.000D+00
 Coeff-En:   0.000D+00 0.000D+00 0.000D+00 0.000D+00 0.100D+01
 Coeff:      0.792D-01-0.905D-01 0.149D-01 0.330D-02-0.113D+00 0.345D+00
 Coeff:     -0.502D+00 0.171D+00-0.642D+00-0.871D+00 0.261D+01
 Gap=     0.073 Goal=   None    Shift=    0.200
 RMSDP=4.62D-06 MaxDP=6.29D-04 DE=-8.92D-07 OVMax= 5.08D-04

 Cycle  12  Pass 1  IDiag  1:
 Density matrix breaks symmetry, PCut= 1.00D-07
 Density matrix has no symmetry -- integrals replicated.
 E= -57.5231552861164     Delta-E=       -0.000000985347 Rises=F Damp=F
 DIIS: error= 1.86D-04 at cycle  12 NSaved=  12.
 NSaved=12 IEnMin=12 EnMin= -57.5231552861164     IErMin=12 ErrMin= 1.86D-04
 ErrMax= 1.86D-04  0.00D+00 EMaxC= 1.00D-01 BMatC= 5.51D-07 BMatP= 3.84D-06
 IDIUse=3 WtCom= 9.98D-01 WtEn= 1.86D-03
 Coeff-Com:  0.450D-01-0.514D-01 0.819D-02 0.226D-02-0.398D-01-0.189D-01
 Coeff-Com: -0.213D+00 0.745D+00-0.105D+01 0.260D+00-0.907D+00 0.222D+01
 Coeff-En:   0.000D+00 0.000D+00 0.000D+00 0.000D+00 0.000D+00 0.000D+00
 Coeff-En:   0.000D+00 0.000D+00 0.000D+00 0.000D+00 0.000D+00 0.100D+01
 Coeff:      0.449D-01-0.513D-01 0.818D-02 0.226D-02-0.397D-01-0.188D-01
 Coeff:     -0.212D+00 0.744D+00-0.105D+01 0.259D+00-0.906D+00 0.221D+01
 Gap=     0.073 Goal=   None    Shift=    0.200
 RMSDP=1.17D-06 MaxDP=1.04D-04 DE=-9.85D-07 OVMax= 2.67D-04

 Cycle  13  Pass 1  IDiag  1:
 Density matrix breaks symmetry, PCut= 1.00D-07
 Density matrix has no symmetry -- integrals replicated.
 E= -57.5231555443774     Delta-E=       -0.000000258261 Rises=F Damp=F
 DIIS: error= 1.03D-04 at cycle  13 NSaved=  13.
 NSaved=13 IEnMin=13 EnMin= -57.5231555443774     IErMin=13 ErrMin= 1.03D-04
 ErrMax= 1.03D-04  0.00D+00 EMaxC= 1.00D-01 BMatC= 1.74D-07 BMatP= 5.51D-07
 IDIUse=3 WtCom= 9.99D-01 WtEn= 1.03D-03
 Coeff-Com:  0.324D-01-0.370D-01 0.644D-02-0.146D-01 0.614D-01-0.740D-01
 Coeff-Com: -0.374D+00 0.682D+00 0.650D-01 0.866D-01-0.522D+00-0.167D+01
 Coeff-Com:  0.276D+01
 Coeff-En:   0.000D+00 0.000D+00 0.000D+00 0.000D+00 0.000D+00 0.000D+00
 Coeff-En:   0.000D+00 0.000D+00 0.000D+00 0.000D+00 0.000D+00 0.000D+00
 Coeff-En:   0.100D+01
 Coeff:      0.323D-01-0.370D-01 0.643D-02-0.145D-01 0.613D-01-0.739D-01
 Coeff:     -0.374D+00 0.682D+00 0.649D-01 0.865D-01-0.521D+00-0.167D+01
 Coeff:      0.275D+01
 Gap=     0.073 Goal=   None    Shift=    0.200
 RMSDP=6.75D-07 MaxDP=7.02D-05 DE=-2.58D-07 OVMax= 1.35D-04

 Cycle  14  Pass 1  IDiag  1:
 Density matrix breaks symmetry, PCut= 1.00D-07
 Density matrix has no symmetry -- integrals replicated.
 E= -57.5231556193972     Delta-E=       -0.000000075020 Rises=F Damp=F
 DIIS: error= 6.84D-05 at cycle  14 NSaved=  14.
 NSaved=14 IEnMin=14 EnMin= -57.5231556193972     IErMin=14 ErrMin= 6.84D-05
 ErrMax= 6.84D-05  0.00D+00 EMaxC= 1.00D-01 BMatC= 8.15D-08 BMatP= 1.74D-07
 IDIUse=1 WtCom= 1.00D+00 WtEn= 0.00D+00
 Coeff-Com:  0.855D-02-0.977D-02 0.175D-02-0.587D-02 0.372D-01-0.470D-01
 Coeff-Com: -0.166D+00 0.179D+00 0.411D+00-0.216D+00 0.312D+00-0.185D+01
 Coeff-Com:  0.605D+00 0.174D+01
 Coeff:      0.855D-02-0.977D-02 0.175D-02-0.587D-02 0.372D-01-0.470D-01
 Coeff:     -0.166D+00 0.179D+00 0.411D+00-0.216D+00 0.312D+00-0.185D+01
 Coeff:      0.605D+00 0.174D+01
 Gap=     0.073 Goal=   None    Shift=    0.200
 RMSDP=6.87D-07 MaxDP=8.12D-05 DE=-7.50D-08 OVMax= 1.12D-04

 Cycle  15  Pass 1  IDiag  1:
 Density matrix breaks symmetry, PCut= 1.00D-07
 Density matrix has no symmetry -- integrals replicated.
 E= -57.5231556562572     Delta-E=       -0.000000036860 Rises=F Damp=F
 DIIS: error= 2.70D-05 at cycle  15 NSaved=  15.
 NSaved=15 IEnMin=15 EnMin= -57.5231556562572     IErMin=15 ErrMin= 2.70D-05
 ErrMax= 2.70D-05  0.00D+00 EMaxC= 1.00D-01 BMatC= 1.01D-08 BMatP= 8.15D-08
 IDIUse=1 WtCom= 1.00D+00 WtEn= 0.00D+00
 Coeff-Com: -0.263D-03 0.299D-03 0.667D-05-0.144D-02 0.276D-02 0.229D-01
 Coeff-Com: -0.127D+00 0.190D+00-0.201D+00 0.504D-01 0.295D-01 0.279D+00
 Coeff-Com: -0.409D-01-0.208D+01 0.287D+01
 Coeff:     -0.263D-03 0.299D-03 0.667D-05-0.144D-02 0.276D-02 0.229D-01
 Coeff:     -0.127D+00 0.190D+00-0.201D+00 0.504D-01 0.295D-01 0.279D+00
 Coeff:     -0.409D-01-0.208D+01 0.287D+01
 Gap=     0.073 Goal=   None    Shift=    0.200
 RMSDP=3.00D-07 MaxDP=2.64D-05 DE=-3.69D-08 OVMax= 6.48D-05

 Cycle  16  Pass 1  IDiag  1:
 Density matrix breaks symmetry, PCut= 1.00D-07
 Density matrix has no symmetry -- integrals replicated.
 E= -57.5231556658252     Delta-E=       -0.000000009568 Rises=F Damp=F
 DIIS: error= 7.44D-06 at cycle  16 NSaved=  16.
 NSaved=16 IEnMin=16 EnMin= -57.5231556658252     IErMin=16 ErrMin= 7.44D-06
 ErrMax= 7.44D-06  0.00D+00 EMaxC= 1.00D-01 BMatC= 1.15D-09 BMatP= 1.01D-08
 IDIUse=1 WtCom= 1.00D+00 WtEn= 0.00D+00
 Coeff-Com:  0.127D-03-0.146D-03 0.771D-04-0.163D-02 0.672D-02 0.616D-02
 Coeff-Com: -0.103D+00 0.174D+00-0.163D+00 0.679D-01-0.117D-01 0.245D+00
 Coeff-Com:  0.130D+00-0.193D+01 0.157D+01 0.101D+01
 Coeff:      0.127D-03-0.146D-03 0.771D-04-0.163D-02 0.672D-02 0.616D-02
 Coeff:     -0.103D+00 0.174D+00-0.163D+00 0.679D-01-0.117D-01 0.245D+00
 Coeff:      0.130D+00-0.193D+01 0.157D+01 0.101D+01
 Gap=     0.073 Goal=   None    Shift=    0.200
 RMSDP=1.14D-07 MaxDP=9.60D-06 DE=-9.57D-09 OVMax= 2.73D-05

 Cycle  17  Pass 1  IDiag  1:
 Density matrix breaks symmetry, PCut= 1.00D-07
 Density matrix has no symmetry -- integrals replicated.
 E= -57.5231556676672     Delta-E=       -0.000000001842 Rises=F Damp=F
 DIIS: error= 3.50D-06 at cycle  17 NSaved=  17.
 NSaved=17 IEnMin=17 EnMin= -57.5231556676672     IErMin=17 ErrMin= 3.50D-06
 ErrMax= 3.50D-06  0.00D+00 EMaxC= 1.00D-01 BMatC= 2.79D-10 BMatP= 1.15D-09
 IDIUse=1 WtCom= 1.00D+00 WtEn= 0.00D+00
 Coeff-Com:  0.516D-03-0.589D-03 0.111D-03-0.703D-03 0.642D-02-0.163D-01
 Coeff-Com: -0.169D-02 0.250D-01 0.186D-01 0.210D-01-0.579D-01-0.315D-02
 Coeff-Com:  0.383D+00-0.604D+00-0.114D+00-0.138D+01 0.272D+01
 Coeff:      0.516D-03-0.589D-03 0.111D-03-0.703D-03 0.642D-02-0.163D-01
 Coeff:     -0.169D-02 0.250D-01 0.186D-01 0.210D-01-0.579D-01-0.315D-02
 Coeff:      0.383D+00-0.604D+00-0.114D+00-0.138D+01 0.272D+01
 Gap=     0.073 Goal=   None    Shift=    0.200
 RMSDP=6.52D-08 MaxDP=7.41D-06 DE=-1.84D-09 OVMax= 1.26D-05

 Cycle  18  Pass 1  IDiag  1:
 Density matrix breaks symmetry, PCut= 1.00D-07
 Density matrix has no symmetry -- integrals replicated.
 E= -57.5231556681098     Delta-E=       -0.000000000443 Rises=F Damp=F
 DIIS: error= 2.31D-06 at cycle  18 NSaved=  18.
 NSaved=18 IEnMin=18 EnMin= -57.5231556681098     IErMin=18 ErrMin= 2.31D-06
 ErrMax= 2.31D-06  0.00D+00 EMaxC= 1.00D-01 BMatC= 9.67D-11 BMatP= 2.79D-10
 IDIUse=1 WtCom= 1.00D+00 WtEn= 0.00D+00
 Coeff-Com:  0.812D-04-0.930D-04 0.269D-04-0.388D-03 0.220D-02-0.993D-03
 Coeff-Com: -0.154D-01 0.246D-01-0.648D-02 0.861D-02-0.266D-01-0.111D-01
 Coeff-Com:  0.205D+00-0.398D+00 0.435D+00-0.687D+00-0.352D+00 0.182D+01
 Coeff:      0.812D-04-0.930D-04 0.269D-04-0.388D-03 0.220D-02-0.993D-03
 Coeff:     -0.154D-01 0.246D-01-0.648D-02 0.861D-02-0.266D-01-0.111D-01
 Coeff:      0.205D+00-0.398D+00 0.435D+00-0.687D+00-0.352D+00 0.182D+01
 Gap=     0.073 Goal=   None    Shift=    0.200
 RMSDP=3.86D-08 MaxDP=4.64D-06 DE=-4.43D-10 OVMax= 7.18D-06

 Cycle  19  Pass 1  IDiag  1:
 Density matrix breaks symmetry, PCut= 1.00D-07
 Density matrix has no symmetry -- integrals replicated.
 E= -57.5231556682457     Delta-E=       -0.000000000136 Rises=F Damp=F
 DIIS: error= 1.02D-06 at cycle  19 NSaved=  19.
 NSaved=19 IEnMin=19 EnMin= -57.5231556682457     IErMin=19 ErrMin= 1.02D-06
 ErrMax= 1.02D-06  0.00D+00 EMaxC= 1.00D-01 BMatC= 2.41D-11 BMatP= 9.67D-11
 IDIUse=1 WtCom= 1.00D+00 WtEn= 0.00D+00
 Coeff-Com: -0.934D-04 0.107D-03-0.995D-05-0.220D-03 0.766D-03 0.181D-02
 Coeff-Com: -0.129D-01 0.182D-01-0.129D-01 0.636D-02-0.108D-01-0.927D-02
 Coeff-Com:  0.114D+00-0.260D+00 0.385D+00-0.290D+00-0.458D+00 0.235D+00
 Coeff-Com:  0.129D+01
 Coeff:     -0.934D-04 0.107D-03-0.995D-05-0.220D-03 0.766D-03 0.181D-02
 Coeff:     -0.129D-01 0.182D-01-0.129D-01 0.636D-02-0.108D-01-0.927D-02
 Coeff:      0.114D+00-0.260D+00 0.385D+00-0.290D+00-0.458D+00 0.235D+00
 Coeff:      0.129D+01
 Gap=     0.073 Goal=   None    Shift=    0.200
 RMSDP=2.24D-08 MaxDP=2.86D-06 DE=-1.36D-10 OVMax= 3.98D-06

 Cycle  20  Pass 1  IDiag  1:
 Density matrix breaks symmetry, PCut= 1.00D-07
 Density matrix has no symmetry -- integrals replicated.
 E= -57.5231556682854     Delta-E=       -0.000000000040 Rises=F Damp=F
 DIIS: error= 4.30D-07 at cycle  20 NSaved=  20.
 NSaved=20 IEnMin=20 EnMin= -57.5231556682854     IErMin=20 ErrMin= 4.30D-07
 ErrMax= 4.30D-07  0.00D+00 EMaxC= 1.00D-01 BMatC= 7.11D-12 BMatP= 2.41D-11
 IDIUse=1 WtCom= 1.00D+00 WtEn= 0.00D+00
 Coeff-Com: -0.890D-04 0.102D-03-0.117D-04-0.144D-03 0.456D-03 0.128D-02
 Coeff-Com: -0.836D-02 0.119D-01-0.950D-02 0.479D-02-0.687D-02-0.763D-02
 Coeff-Com:  0.836D-01-0.191D+00 0.289D+00-0.220D+00-0.297D+00 0.136D+00
 Coeff-Com:  0.441D+00 0.772D+00
 Coeff:     -0.890D-04 0.102D-03-0.117D-04-0.144D-03 0.456D-03 0.128D-02
 Coeff:     -0.836D-02 0.119D-01-0.950D-02 0.479D-02-0.687D-02-0.763D-02
 Coeff:      0.836D-01-0.191D+00 0.289D+00-0.220D+00-0.297D+00 0.136D+00
 Coeff:      0.441D+00 0.772D+00
 Gap=     0.073 Goal=   None    Shift=    0.200
 RMSDP=1.38D-08 MaxDP=1.71D-06 DE=-3.97D-11 OVMax= 2.09D-06

 Cycle  21  Pass 1  IDiag  1:
 Density matrix breaks symmetry, PCut= 1.00D-07
 Density matrix has no symmetry -- integrals replicated.
 E= -57.5231556682965     Delta-E=       -0.000000000011 Rises=F Damp=F
 DIIS: error= 2.87D-07 at cycle  21 NSaved=  20.
 NSaved=20 IEnMin=20 EnMin= -57.5231556682965     IErMin=20 ErrMin= 2.87D-07
 ErrMax= 2.87D-07  0.00D+00 EMaxC= 1.00D-01 BMatC= 2.33D-12 BMatP= 7.11D-12
 IDIUse=1 WtCom= 1.00D+00 WtEn= 0.00D+00
 Coeff-Com: -0.331D-07 0.195D-05-0.570D-04 0.133D-03 0.565D-03-0.279D-02
 Coeff-Com:  0.412D-02-0.438D-02 0.260D-02-0.208D-02-0.395D-02 0.369D-01
 Coeff-Com: -0.880D-01 0.139D+00-0.106D+00-0.667D-01-0.516D-01-0.272D-02
 Coeff-Com:  0.599D-01 0.109D+01
 Coeff:     -0.331D-07 0.195D-05-0.570D-04 0.133D-03 0.565D-03-0.279D-02
 Coeff:      0.412D-02-0.438D-02 0.260D-02-0.208D-02-0.395D-02 0.369D-01
 Coeff:     -0.880D-01 0.139D+00-0.106D+00-0.667D-01-0.516D-01-0.272D-02
 Coeff:      0.599D-01 0.109D+01
 Gap=     0.073 Goal=   None    Shift=    0.200
 RMSDP=1.00D-08 MaxDP=1.02D-06 DE=-1.11D-11 OVMax= 1.05D-06

 Cycle  22  Pass 1  IDiag  1:
 Density matrix breaks symmetry, PCut= 1.00D-07
 Density matrix has no symmetry -- integrals replicated.
 E= -57.5231556682996     Delta-E=       -0.000000000003 Rises=F Damp=F
 DIIS: error= 1.13D-07 at cycle  22 NSaved=  20.
 NSaved=20 IEnMin=20 EnMin= -57.5231556682996     IErMin=20 ErrMin= 1.13D-07
 ErrMax= 1.13D-07  0.00D+00 EMaxC= 1.00D-01 BMatC= 6.21D-13 BMatP= 2.33D-12
 IDIUse=1 WtCom= 1.00D+00 WtEn= 0.00D+00
 Coeff-Com:  0.340D-06-0.220D-04 0.274D-04 0.332D-03-0.158D-02 0.289D-02
 Coeff-Com: -0.394D-02 0.228D-02-0.190D-02-0.334D-02 0.336D-01-0.782D-01
 Coeff-Com:  0.125D+00-0.102D+00-0.501D-01-0.666D-01-0.187D-01 0.627D-01
 Coeff-Com:  0.101D+01 0.904D-01
 Coeff:      0.340D-06-0.220D-04 0.274D-04 0.332D-03-0.158D-02 0.289D-02
 Coeff:     -0.394D-02 0.228D-02-0.190D-02-0.334D-02 0.336D-01-0.782D-01
 Coeff:      0.125D+00-0.102D+00-0.501D-01-0.666D-01-0.187D-01 0.627D-01
 Coeff:      0.101D+01 0.904D-01
 Gap=     0.073 Goal=   None    Shift=    0.200
 RMSDP=6.31D-09 MaxDP=5.62D-07 DE=-3.13D-12 OVMax= 5.81D-07

 Density matrix breaks symmetry, PCut= 1.00D-07
 Density matrix has no symmetry -- integrals replicated.
 SCF Done:  E(ROHF) =  -57.5231556683     A.U. after   22 cycles
            NFock= 22  Conv=0.63D-08     -V/T= 3.3024
 <Sx>= 0.0000 <Sy>= 0.0000 <Sz>= 1.0000 <S**2>= 2.0000 S= 1.0000
 <L.S>=  0.00000000000    
 KE= 2.498363763039D+01 PE=-1.219946228708D+02 EE= 3.948782957213D+01
 Annihilation of the first spin contaminant:
 S**2 before annihilation     2.0000,   after     2.0000
 Leave Link  502 at Tue Mar 13 12:50:28 2018, MaxMem= 10737418240 cpu:            6677.6 elap:             434.5
 (Enter /home1/apps/gaussian/16rA.03/g16/l801.exe)
 Windowed orbitals will be sorted by symmetry type.
 An orbital has undefined symmetry, so N**3 symmetry is turned off.
 Density matrix breaks symmetry, PCut= 1.00D-07
 Density matrix has no symmetry -- integrals replicated.
 GenMOA:  NOpAll= 48 NOp2=8 NOpUse=  1 JSym2X=2
 FoFJK:  IHMeth= 1 ICntrl=       0 DoSepK=F KAlg= 0 I1Cent=           0 FoldK=F
 IRaf=         0 NMat=       1 IRICut=       1 DoRegI=T DoRafI=F ISym2E= 2 IDoP0=0 IntGTp=1.
 FoFCou: FMM=F IPFlag=           0 FMFlag=      100000 FMFlg1=           0
         NFxFlg=           0 DoJE=F BraDBF=F KetDBF=F FulRan=T
         wScrn=  0.000000 ICntrl=         0 IOpCl=  1 I1Cent=           0 NGrid=           0
         NMat0=    1 NMatS0=      1 NMatT0=    0 NMatD0=    1 NMtDS0=    0 NMtDT0=    0
 Integrals replicated using symmetry in FoFCou.
 <Sx>= 0.0000 <Sy>= 0.0000 <Sz>= 1.0000 <S**2>= 2.0000 S= 1.0000
 Range of M.O.s used for correlation:     1   344
 NBasis=   345 NAE=     7 NBE=     5 NFC=     0 NFV=     0
 NROrb=    344 NOA=     7 NOB=     5 NVA=   337 NVB=   339

 **** Warning!!: The largest alpha MO coefficient is  0.29280151D+03


 **** Warning!!: The largest beta MO coefficient is  0.29280040D+03

 Singles contribution to E2=   -0.5059924856D-02
 Leave Link  801 at Tue Mar 13 12:54:00 2018, MaxMem= 10737418240 cpu:            3378.1 elap:             211.2
 (Enter /home1/apps/gaussian/16rA.03/g16/l804.exe)
 Open-shell transformation, MDV= 10737418240 ITran=4 ISComp=1.
 Unit  1 TFree=       3577917 TCopy=       2745414.
 Semi-Direct transformation.
 ModeAB=           2 MOrb=             7 LenV=   10733685534
 LASXX=    140360731 LTotXX=   140360731 LenRXX=   140360731
 LTotAB=   141644580 MaxLAS=   293224568 LenRXY=   293224568
 NonZer=   300600272 LenScr=   452669440 LnRSAI=           0
 LnScr1=           0 LExtra=     8514799 Total=    894769538
 MaxDsk= 13421772800 SrtSym=           F ITran=            4
 DoSDTr:  NPSUse= 16
 JobTyp=1 Pass  1:  I=   1 to   7.
 (rs|ai) integrals will be sorted in core.
 Complete sort for first half transformation.
 First half transformation complete.
 Complete sort for second half transformation.
 Second half transformation complete.
 ModeAB=           2 MOrb=             5 LenV=   10733685534
 LASXX=    100571185 LTotXX=   100571185 LenRXX=   209446120
 LTotAB=    97389630 MaxLAS=   209446120 LenRXY=    97389630
 NonZer=   214714480 LenScr=   323335168 LnRSAI=           0
 LnScr1=           0 LExtra=   442100098 Total=   1072271016
 MaxDsk= 13421772800 SrtSym=           F ITran=            4
 DoSDTr:  NPSUse= 16
 JobTyp=2 Pass  1:  I=   1 to   5.
 (rs|ai) integrals will be sorted in core.
 Complete sort for first half transformation.
 First half transformation complete.
 Complete sort for second half transformation.
 Second half transformation complete.
 SymMOI:  orbitals are not symmetric.
 Spin components of T(2) and E(2):
     alpha-alpha T2 =       0.1315039186D-01 E2=     -0.6518617787D-01
     alpha-beta  T2 =       0.7969227454D-01 E2=     -0.3255069729D+00
     beta-beta   T2 =       0.8924357450D-02 E2=     -0.4205155044D-01
 ANorm=    0.1050384861D+01
 E2 =    -0.4378046260D+00 EUMP2 =    -0.57960960294330D+02
 (S**2,0)=  0.20000D+01           (S**2,1)=  0.20000D+01
 E(PUHF)=      -0.57523155668D+02        E(PMP2)=      -0.57960960294D+02
 Leave Link  804 at Tue Mar 13 13:07:14 2018, MaxMem= 10737418240 cpu:           12665.2 elap:             794.1
 (Enter /home1/apps/gaussian/16rA.03/g16/l913.exe)
 CIDS:  MDV= 10737418240.
 IFCWin=0 IBDFC=1 NFBD=     0     0 NFCmp=     0     0 NFFFC=     0     0
 Using original routines for 1st iteration.
 Using DD4UQ or CC4UQ for 2nd and later iterations.
 Keep R2 and R3 ints in memory in symmetry-blocked form, NReq=2007042420.
 FoFCou: FMM=F IPFlag=           0 FMFlag=           0 FMFlg1=           0
         NFxFlg=           0 DoJE=F BraDBF=F KetDBF=F FulRan=T
         wScrn=  0.000000 ICntrl=       600 IOpCl=  0 I1Cent=           0 NGrid=           0
         NMat0=    1 NMatS0=  59685 NMatT0=    0 NMatD0=    1 NMtDS0=    0 NMtDT0=    0
 Petite list used in FoFCou.
 CIDS: In Core Option IDoMem=           1.
 CCSD(T)
 =======
 Iterations= 150 Convergence= 0.100D-06
 Produce multiple copies of IABC intergrals
 Iteration Nr.   1
 **********************
 DD1Dir will call FoFMem   1 times, MxPair=       102
 NAB=    35 NAA=    21 NBB=    10.
 DD1Dir will call FoFMem   1 times, MxPair=       102
 NAB=    35 NAA=    21 NBB=    10.
 MP4(R+Q)=  0.27312005D-01
 Maximum subspace dimension=  5
 A-vector RMS=  1.1649885D-04 Max=  4.4851261D-03 conv= 1.00D-05.
 RLE energy=       -0.4279101486
 E3=       -0.17238223D-01        EROMP3=      -0.57978198517D+02
 E4(SDQ)=   0.27244610D-03        ROMP4(SDQ)=  -0.57977926071D+02
 VARIATIONAL ENERGIES WITH THE FIRST-ORDER WAVEFUNCTION:
 DE(Corr)= -0.42767849     E(Corr)=     -57.950834162    
 NORM(A)=   0.10456439D+01
 Iteration Nr.   2
 **********************
 DD1Dir will call FoFMem   1 times, MxPair=       102
 NAB=    35 NAA=    21 NBB=    10.
 A-vector RMS=  2.1606646D-03 Max=  3.4842752D-02 conv= 1.00D-05.
 RLE energy=       -0.4331001905
 DE(Corr)= -0.44460861     E(CORR)=     -57.967764274     Delta=-1.69D-02
 NORM(A)=   0.10483382D+01
 Iteration Nr.   3
 **********************
 DD1Dir will call FoFMem   1 times, MxPair=       102
 NAB=    35 NAA=    21 NBB=    10.
 A-vector RMS=  1.6324308D-03 Max=  2.6812429D-02 conv= 1.00D-05.
 RLE energy=       -0.4415607041
 DE(Corr)= -0.44710593     E(CORR)=     -57.970261603     Delta=-2.50D-03
 NORM(A)=   0.10541268D+01
 Iteration Nr.   4
 **********************
 DD1Dir will call FoFMem   1 times, MxPair=       102
 NAB=    35 NAA=    21 NBB=    10.
 A-vector RMS=  1.2034689D-03 Max=  1.9426185D-02 conv= 1.00D-05.
 RLE energy=       -0.4567828745
 DE(Corr)= -0.44959479     E(CORR)=     -57.972750463     Delta=-2.49D-03
 NORM(A)=   0.10712434D+01
 Iteration Nr.   5
 **********************
 DD1Dir will call FoFMem   1 times, MxPair=       102
 NAB=    35 NAA=    21 NBB=    10.
 A-vector RMS=  1.4764306D-04 Max=  2.3853273D-03 conv= 1.00D-05.
 RLE energy=       -0.4560434026
 DE(Corr)= -0.45577717     E(CORR)=     -57.978932837     Delta=-6.18D-03
 NORM(A)=   0.10708628D+01
 Iteration Nr.   6
 **********************
 DD1Dir will call FoFMem   1 times, MxPair=       102
 NAB=    35 NAA=    21 NBB=    10.
 A-vector RMS=  6.6171964D-05 Max=  1.1984303D-03 conv= 1.00D-05.
 RLE energy=       -0.4551538799
 DE(Corr)= -0.45548951     E(CORR)=     -57.978645180     Delta= 2.88D-04
 NORM(A)=   0.10697880D+01
 Iteration Nr.   7
 **********************
 DD1Dir will call FoFMem   1 times, MxPair=       102
 NAB=    35 NAA=    21 NBB=    10.
 A-vector RMS=  4.7231880D-06 Max=  7.9515740D-05 conv= 1.00D-05.
 RLE energy=       -0.4551564054
 DE(Corr)= -0.45515045     E(CORR)=     -57.978306117     Delta= 3.39D-04
 NORM(A)=   0.10698169D+01
 Iteration Nr.   8
 **********************
 DD1Dir will call FoFMem   1 times, MxPair=       102
 NAB=    35 NAA=    21 NBB=    10.
 A-vector RMS=  2.3467463D-06 Max=  4.7064589D-05 conv= 1.00D-05.
 RLE energy=       -0.4551582203
 DE(Corr)= -0.45516047     E(CORR)=     -57.978316140     Delta=-1.00D-05
 NORM(A)=   0.10697908D+01
 Iteration Nr.   9
 **********************
 DD1Dir will call FoFMem   1 times, MxPair=       102
 NAB=    35 NAA=    21 NBB=    10.
 A-vector RMS=  6.1497944D-07 Max=  1.2944357D-05 conv= 1.00D-05.
 RLE energy=       -0.4551574116
 DE(Corr)= -0.45515581     E(CORR)=     -57.978311476     Delta= 4.66D-06
 NORM(A)=   0.10697922D+01
 Iteration Nr.  10
 **********************
 DD1Dir will call FoFMem   1 times, MxPair=       102
 NAB=    35 NAA=    21 NBB=    10.
 A-vector RMS=  6.8333019D-07 Max=  1.2468048D-05 conv= 1.00D-05.
 RLE energy=       -0.4551565249
 DE(Corr)= -0.45515703     E(CORR)=     -57.978312703     Delta=-1.23D-06
 NORM(A)=   0.10697902D+01
 Iteration Nr.  11
 **********************
 DD1Dir will call FoFMem   1 times, MxPair=       102
 NAB=    35 NAA=    21 NBB=    10.
 A-vector RMS=  1.4394573D-07 Max=  3.3715263D-06 conv= 1.00D-05.
 RLE energy=       -0.4551566572
 DE(Corr)= -0.45515639     E(CORR)=     -57.978312059     Delta= 6.44D-07
 NORM(A)=   0.10697919D+01
 Iteration Nr.  12
 **********************
 DD1Dir will call FoFMem   1 times, MxPair=       102
 NAB=    35 NAA=    21 NBB=    10.
 A-vector RMS=  4.6705372D-08 Max=  9.3772517D-07 conv= 1.00D-05.
 RLE energy=       -0.4551566467
 DE(Corr)= -0.45515661     E(CORR)=     -57.978312283     Delta=-2.24D-07
 NORM(A)=   0.10697922D+01
 Iteration Nr.  13
 **********************
 DD1Dir will call FoFMem   1 times, MxPair=       102
 NAB=    35 NAA=    21 NBB=    10.
 A-vector RMS=  1.2578892D-08 Max=  5.1348724D-07 conv= 1.00D-05.
 RLE energy=       -0.4551566040
 DE(Corr)= -0.45515660     E(CORR)=     -57.978312263     Delta= 1.95D-08
 NORM(A)=   0.10697922D+01
 CI/CC converged in   13 iterations to DelEn= 1.95D-08 Conv= 1.00D-07 ErrA1= 1.26D-08 Conv= 1.00D-05
 Wavefunction amplitudes converged. E(Corr)=     -57.978312263    
 Largest amplitude= 6.40D-02
 Time for triples=    13184.44 seconds.
 T4(CCSD)= -0.16709318D-01
 T5(CCSD)=  0.22848278D-03
 CCSD(T)= -0.57994793099D+02
 Discarding MO integrals.
 Leave Link  913 at Tue Mar 13 13:34:24 2018, MaxMem= 10737418240 cpu:           25869.5 elap:            1630.4
 (Enter /home1/apps/gaussian/16rA.03/g16/l601.exe)
 Copying SCF densities to generalized density rwf, IOpCl= 0 IROHF=1.
 SCF density gives NOpUse=  1 NOpAll= 48.
 Marking SCF density as not fully symmetric.

 **********************************************************************

            Population analysis using the SCF density.

 **********************************************************************

 Orbital symmetries:
       Occupied  (A1G) (?A) (?A) (?A) (A1G) (?B) (?B)
       Virtual   (T1U) (T1U) (T1U) (A1G) (?B) (?B) (?B) (?B) (?B)
                 (T1U) (T1U) (T1U) (?B) (?B) (?B) (A1G) (?B) (?B)
                 (?C) (?C) (?C) (?B) (?B) (?B) (?C) (?C) (?C) (?C)
                 (?C) (?C) (?C) (?B) (?B) (?B) (?B) (?B) (?D) (?D)
                 (?D) (?D) (?D) (?D) (?D) (?D) (?D) (?D) (?E) (?E)
                 (?E) (?E) (?E) (?E) (?E) (?E) (?E) (?E) (?B) (?B)
                 (?B) (?B) (?B) (A1G) (?F) (?F) (?F) (?F) (?F)
                 (?F) (?F) (?F) (?F) (?F) (?F) (T1U) (T1U) (T1U)
                 (?F) (?F) (?F) (?F) (?F) (?F) (?F) (?F) (?F) (?A)
                 (?A) (?A) (?A) (?A) (?A) (?A) (?B) (?B) (?B) (?B)
                 (?B) (?F) (?F) (?F) (?F) (?F) (?F) (?F) (?F) (?F)
                 (?F) (?F) (?F) (?F) (A1G) (T1U) (T1U) (T1U) (?F)
                 (?F) (?F) (?F) (?F) (?F) (?F) (?F) (?F) (?F) (?F)
                 (?B) (?B) (?B) (?B) (?B) (?F) (?F) (?F) (?F) (?F)
                 (?F) (?F) (?F) (?F) (?F) (?F) (?F) (?F) (?F) (?F)
                 (?F) (A1G) (T1U) (T1U) (T1U) (?F) (?F) (?F) (?F)
                 (?F) (?F) (?F) (?F) (?F) (?F) (?F) (?F) (?F) (?F)
                 (?F) (?F) (?F) (?F) (?F) (?F) (?F) (?F) (?F) (?F)
                 (?F) (?F) (?F) (?F) (?F) (?F) (?F) (?F) (?F) (?F)
                 (?F) (?F) (?F) (?F) (?F) (?F) (?F) (?F) (?F) (?F)
                 (?F) (A1G) (T1U) (T1U) (T1U) (?F) (?F) (?F) (?F)
                 (?F) (?F) (T1U) (T1U) (T1U) (?F) (?F) (?F) (?F)
                 (?F) (?F) (?F) (?F) (?F) (?F) (?F) (?F) (?F) (?F)
                 (?F) (?F) (?F) (?F) (?F) (?F) (?F) (?F) (?F) (?F)
                 (?F) (?F) (?F) (?F) (?F) (?F) (?F) (?F) (?F) (?F)
                 (?F) (?F) (?F) (?F) (?F) (?F) (?F) (?F) (?F) (?F)
                 (?F) (A1G) (T1U) (T1U) (T1U) (?F) (?F) (?F) (?F)
                 (?F) (T1U) (T1U) (T1U) (A1G) (?F) (?F) (?F) (?F)
                 (?F) (T1U) (T1U) (T1U) (A1G) (?F) (?F) (?F) (?F)
                 (?F) (T1U) (T1U) (T1U) (A1G) (T1U) (T1U) (T1U)
                 (A1G) (?F) (?F) (?F) (?F) (?F) (T1U) (T1U) (T1U)
                 (A1G) (T1U) (T1U) (T1U) (A1G) (?F) (?F) (?F) (?F)
                 (?F) (T1U) (T1U) (T1U) (A1G) (T1U) (T1U) (T1U)
                 (A1G) (T1U) (T1U) (T1U) (A1G) (A1G) (T1U) (T1U)
                 (T1U) (A1G) (T1U) (T1U) (T1U) (A1G) (A1G) (T1U)
                 (T1U) (T1U) (A1G) (A1G) (A1G) (A1G) (A1G) (A1G)
 Unable to determine electronic state:  an orbital has unidentified symmetry.
 Alpha  occ. eigenvalues --   -2.98820  -1.89615  -1.89615  -1.89615  -0.43836
 Alpha  occ. eigenvalues --   -0.43836  -0.23004
 Alpha virt. eigenvalues --    0.01358   0.01358   0.01358   0.02031   0.03479
 Alpha virt. eigenvalues --    0.03479   0.03479   0.03510   0.03510   0.04668
 Alpha virt. eigenvalues --    0.04668   0.04668   0.09442   0.09442   0.09442
 Alpha virt. eigenvalues --    0.10285   0.10777   0.10777   0.15258   0.15258
 Alpha virt. eigenvalues --    0.15258   0.15452   0.15452   0.15452   0.16882
 Alpha virt. eigenvalues --    0.16885   0.16885   0.16885   0.16889   0.16889
 Alpha virt. eigenvalues --    0.16889   0.27003   0.27003   0.31136   0.31136
 Alpha virt. eigenvalues --    0.31136   0.33182   0.40709   0.40709   0.40709
 Alpha virt. eigenvalues --    0.40731   0.40731   0.40738   0.40738   0.40738
 Alpha virt. eigenvalues --    0.40749   0.44279   0.44279   0.44279   0.54000
 Alpha virt. eigenvalues --    0.54000   0.54000   0.54210   0.54210   0.54210
 Alpha virt. eigenvalues --    0.54460   0.65157   0.65157   0.70040   0.70040
 Alpha virt. eigenvalues --    0.70040   0.91852   1.00558   1.00558   1.00558
 Alpha virt. eigenvalues --    1.00571   1.00571   1.00640   1.00640   1.00640
 Alpha virt. eigenvalues --    1.00666   1.00666   1.00666   1.18286   1.18286
 Alpha virt. eigenvalues --    1.18286   1.31826   1.31834   1.31834   1.31834
 Alpha virt. eigenvalues --    1.31844   1.31844   1.31849   1.31849   1.31849
 Alpha virt. eigenvalues --    1.48705   1.48705   1.48705   1.50148   1.50148
 Alpha virt. eigenvalues --    1.50148   1.51490   1.51490   1.51885   1.56306
 Alpha virt. eigenvalues --    1.56306   1.56306   2.17768   2.17805   2.17805
 Alpha virt. eigenvalues --    2.17805   2.17846   2.17846   2.17846   2.18002
 Alpha virt. eigenvalues --    2.18046   2.18046   2.18046   2.18061   2.18061
 Alpha virt. eigenvalues --    2.34670   2.87152   2.87152   2.87152   3.10390
 Alpha virt. eigenvalues --    3.10390   3.10390   3.10433   3.10433   3.10664
 Alpha virt. eigenvalues --    3.10664   3.10664   3.10749   3.10749   3.10749
 Alpha virt. eigenvalues --    3.29127   3.29127   3.32623   3.32623   3.32623
 Alpha virt. eigenvalues --    3.59610   3.59610   3.59610   3.61771   3.61771
 Alpha virt. eigenvalues --    3.61771   3.64433   3.86888   3.87039   3.87039
 Alpha virt. eigenvalues --    3.87039   3.87161   3.87161   3.87439   3.87439
 Alpha virt. eigenvalues --    3.87439   5.40860   6.13031   6.13031   6.13031
 Alpha virt. eigenvalues --    6.62375   6.62375   6.63952   6.63952   6.63952
 Alpha virt. eigenvalues --    6.97025   6.97153   6.97153   6.97153   6.97297
 Alpha virt. eigenvalues --    6.97297   6.97297   6.97846   6.97999   6.97999
 Alpha virt. eigenvalues --    6.97999   6.98050   6.98050   8.41017   8.41017
 Alpha virt. eigenvalues --    8.41017   8.42352   8.42352   8.42352   8.44002
 Alpha virt. eigenvalues --    8.99274   8.99274   8.99274   8.99356   8.99356
 Alpha virt. eigenvalues --    8.99831   8.99831   8.99831   9.00002   9.00002
 Alpha virt. eigenvalues --    9.00002   9.33089   9.33170   9.33170   9.33170
 Alpha virt. eigenvalues --    9.33237   9.33237   9.33374   9.33374   9.33374
 Alpha virt. eigenvalues --   11.03957  11.61028  11.61028  11.61028  12.30366
 Alpha virt. eigenvalues --   12.30366  12.30366  12.30415  12.30415  19.76055
 Alpha virt. eigenvalues --   20.19782  20.19782  20.19782  20.59586  20.59586
 Alpha virt. eigenvalues --   20.59586  20.59912  20.59912  20.59912  20.60320
 Alpha virt. eigenvalues --   21.12819  21.12819  21.12819  21.13036  21.13036
 Alpha virt. eigenvalues --   21.13107  21.13107  21.13107  21.13209  21.67334
 Alpha virt. eigenvalues --   21.67553  21.67553  21.67553  21.67801  21.67801
 Alpha virt. eigenvalues --   21.67801  21.68739  21.69002  21.69002  21.69002
 Alpha virt. eigenvalues --   21.69089  21.69089  21.73705  21.73705  21.73705
 Alpha virt. eigenvalues --   21.74809  21.74809  22.33395  22.33395  22.33395
 Alpha virt. eigenvalues --   22.33524  22.33524  22.34229  22.34229  22.34229
 Alpha virt. eigenvalues --   22.34497  22.34497  22.34497  33.27795  33.39395
 Alpha virt. eigenvalues --   33.39395  33.39395  37.01462  37.01462  37.01462
 Alpha virt. eigenvalues --   37.03021  37.03021  54.09568  54.09568  54.09568
 Alpha virt. eigenvalues --   57.67233  66.06391  66.06391  66.06391  66.07732
 Alpha virt. eigenvalues --   66.07732  88.00435  88.00435  88.00435 101.58296
 Alpha virt. eigenvalues --  140.97633 140.97633 140.97633 140.98344 140.98344
 Alpha virt. eigenvalues --  146.51984 146.51984 146.51984 180.24089 252.94631
 Alpha virt. eigenvalues --  252.94631 252.94631 323.96965 359.14123 359.14123
 Alpha virt. eigenvalues --  359.14123 359.14376 359.14376 455.47436 455.47436
 Alpha virt. eigenvalues --  455.47436 593.10318 856.16025 856.16025 856.16025
 Alpha virt. eigenvalues -- 1108.466301129.744021129.744021129.744021129.74456
 Alpha virt. eigenvalues -- 1129.744561681.648011681.648011681.648012116.54952
 Alpha virt. eigenvalues -- 3472.950813472.950813472.950814133.474227662.10690
 Alpha virt. eigenvalues -- 7662.106907662.106908272.96409********************
 Alpha virt. eigenvalues -- **************************************************
 Alpha virt. eigenvalues -- **************************************************
 Alpha virt. eigenvalues -- **************************************************
 Alpha virt. eigenvalues -- ********************
     Molecular Orbital Coefficients:
                           1         2         3         4         5
                       (A1G)--O      O         O         O     (A1G)--O
     Eigenvalues --    -2.98820  -1.89615  -1.89615  -1.89615  -0.43836
   1 1   Ti 1S          0.00000  -0.00000  -0.00000   0.00000  -0.00000
   2        2S         -0.00000   0.00000   0.00000  -0.00000   0.00000
   3        3S          0.00000  -0.00000  -0.00000   0.00000  -0.00000
   4        4S         -0.00000   0.00000   0.00000  -0.00000   0.00000
   5        5S          0.00000  -0.00000  -0.00000   0.00000  -0.00000
   6        6S         -0.00000   0.00000   0.00000  -0.00000   0.00000
   7        7S          0.00000  -0.00000  -0.00000   0.00000  -0.00000
   8        8S         -0.00001   0.00000   0.00000  -0.00000   0.00000
   9        9S          0.00002  -0.00000  -0.00000   0.00000  -0.00000
  10       10S         -0.00005   0.00000   0.00000  -0.00000   0.00001
  11       11S          0.00015  -0.00000  -0.00000   0.00000  -0.00003
  12       12S         -0.00039   0.00000   0.00000  -0.00000   0.00008
  13       13S          0.00100  -0.00000  -0.00000   0.00000  -0.00019
  14       14S         -0.00247   0.00000   0.00000  -0.00000   0.00048
  15       15S          0.00610  -0.00000  -0.00000   0.00000  -0.00119
  16       16S         -0.01544   0.00000   0.00000  -0.00000   0.00309
  17       17S          0.04204  -0.00000  -0.00000   0.00000  -0.00883
  18       18S         -0.12764   0.00000   0.00000  -0.00000   0.02887
  19       19S          0.35699  -0.00000  -0.00000   0.00000  -0.08829
  20       20S         -0.46548   0.00000   0.00000  -0.00000   0.13560
  21       21S          0.14375  -0.00000   0.00000  -0.00000  -0.02605
  22       22S          0.13865  -0.00000   0.00000  -0.00000  -0.01776
  23       23S          0.56312  -0.00000   0.00000  -0.00000  -0.16293
  24       24S          0.34563   0.00000   0.00000   0.00000  -0.25979
  25       25S          0.03365  -0.00000  -0.00000  -0.00000  -0.03217
  26       26S         -0.00146   0.00000   0.00000  -0.00000   0.40839
  27       27S          0.00054  -0.00000   0.00000   0.00000   0.59869
  28       28S         -0.00022  -0.00000  -0.00000  -0.00000   0.18267
  29       29S         -0.27324   0.00000  -0.00000   0.00000   0.04262
  30       30S          0.14611   0.00000  -0.00000   0.00000  -0.09448
  31       31S          0.00005   0.00000  -0.00000   0.00000   0.00076
  32       32PX         0.00000   0.00000   0.00000   0.00000  -0.00000
  33       32PY        -0.00000  -0.00000   0.00000   0.00000  -0.00000
  34       32PZ         0.00000   0.00000   0.00000  -0.00000   0.00000
  35       33PX        -0.00000  -0.00000  -0.00000  -0.00000   0.00000
  36       33PY         0.00000   0.00000  -0.00000  -0.00000   0.00000
  37       33PZ        -0.00000  -0.00000  -0.00000   0.00000  -0.00000
  38       34PX         0.00000   0.00000   0.00000   0.00000  -0.00000
  39       34PY        -0.00000  -0.00000   0.00000   0.00000  -0.00000
  40       34PZ         0.00000   0.00000   0.00000  -0.00000   0.00000
  41       35PX        -0.00000  -0.00000  -0.00000  -0.00000   0.00000
  42       35PY         0.00000   0.00000  -0.00000  -0.00000   0.00000
  43       35PZ        -0.00000  -0.00000  -0.00000   0.00000  -0.00000
  44       36PX         0.00000   0.00002   0.00000   0.00001  -0.00000
  45       36PY        -0.00000  -0.00001   0.00001   0.00001  -0.00000
  46       36PZ         0.00000   0.00000   0.00001  -0.00001   0.00000
  47       37PX        -0.00000  -0.00005  -0.00000  -0.00003   0.00000
  48       37PY         0.00000   0.00003  -0.00004  -0.00004   0.00000
  49       37PZ        -0.00000  -0.00002  -0.00005   0.00003  -0.00000
  50       38PX         0.00000   0.00016   0.00001   0.00009  -0.00000
  51       38PY        -0.00000  -0.00008   0.00011   0.00012  -0.00000
  52       38PZ         0.00000   0.00005   0.00015  -0.00010   0.00000
  53       39PX        -0.00000  -0.00049  -0.00004  -0.00028   0.00000
  54       39PY         0.00000   0.00025  -0.00035  -0.00038   0.00000
  55       39PZ         0.00000  -0.00014  -0.00045   0.00032  -0.00000
  56       40PX         0.00000   0.00164   0.00015   0.00094  -0.00000
  57       40PY        -0.00000  -0.00082   0.00116   0.00125  -0.00000
  58       40PZ        -0.00000   0.00048   0.00149  -0.00106   0.00000
  59       41PX        -0.00000  -0.00682  -0.00061  -0.00392   0.00000
  60       41PY        -0.00000   0.00343  -0.00482  -0.00522   0.00000
  61       41PZ        -0.00000  -0.00199  -0.00622   0.00443  -0.00000
  62       42PX         0.00000   0.02807   0.00251   0.01613  -0.00000
  63       42PY         0.00000  -0.01412   0.01984   0.02148  -0.00000
  64       42PZ         0.00000   0.00820   0.02559  -0.01825   0.00000
  65       43PX        -0.00000  -0.03072  -0.00275  -0.01765   0.00000
  66       43PY        -0.00000   0.01545  -0.02171  -0.02351   0.00000
  67       43PZ        -0.00000  -0.00897  -0.02800   0.01997  -0.00000
  68       44PX        -0.00000   0.07207   0.00645   0.04141   0.00000
  69       44PY        -0.00000  -0.03625   0.05094   0.05515   0.00000
  70       44PZ        -0.00000   0.02104   0.06568  -0.04684  -0.00000
  71       45PX         0.00000   0.17348   0.01552   0.09969  -0.00000
  72       45PY         0.00000  -0.08726   0.12263   0.13276  -0.00000
  73       45PZ         0.00000   0.05065   0.15810  -0.11275   0.00000
  74       46PX         0.00000   0.33564   0.03003   0.19287  -0.00000
  75       46PY        -0.00000  -0.16881   0.23725   0.25684  -0.00000
  76       46PZ         0.00000   0.09799   0.30588  -0.21815   0.00000
  77       47PX         0.00000   0.29839   0.02670   0.17146   0.00000
  78       47PY         0.00000  -0.15008   0.21092   0.22834   0.00000
  79       47PZ        -0.00000   0.08711   0.27193  -0.19393  -0.00000
  80       48PX         0.00000   0.09911   0.00887   0.05695  -0.00000
  81       48PY         0.00000  -0.04985   0.07005   0.07584  -0.00000
  82       48PZ        -0.00000   0.02893   0.09032  -0.06441   0.00000
  83       49PX        -0.00000   0.00847   0.00076   0.00487   0.00000
  84       49PY        -0.00000  -0.00426   0.00599   0.00648   0.00000
  85       49PZ         0.00000   0.00247   0.00772  -0.00551  -0.00000
  86       50PX         0.00000   0.00040   0.00004   0.00023  -0.00000
  87       50PY         0.00000  -0.00020   0.00028   0.00031  -0.00000
  88       50PZ        -0.00000   0.00012   0.00036  -0.00026   0.00000
  89       51PX        -0.00000   0.00013   0.00001   0.00008   0.00000
  90       51PY        -0.00000  -0.00007   0.00009   0.00010   0.00000
  91       51PZ         0.00000   0.00004   0.00012  -0.00009  -0.00000
  92       52PX         0.00000  -0.10077  -0.00902  -0.05790  -0.00000
  93       52PY         0.00000   0.05068  -0.07123  -0.07711  -0.00000
  94       52PZ         0.00000  -0.02942  -0.09183   0.06549   0.00000
  95       53PX        -0.00000   0.04550   0.00407   0.02614   0.00000
  96       53PY        -0.00000  -0.02288   0.03216   0.03482   0.00000
  97       53PZ        -0.00000   0.01328   0.04146  -0.02957  -0.00000
  98       54PX         0.00000  -0.00003  -0.00000  -0.00001  -0.00000
  99       54PY         0.00000   0.00001  -0.00002  -0.00002  -0.00000
 100       54PZ        -0.00000  -0.00001  -0.00002   0.00002   0.00000
 101       55D 0       -0.00000   0.00000   0.00000   0.00000   0.00000
 102       55D+1       -0.00000  -0.00000  -0.00000  -0.00000   0.00000
 103       55D-1        0.00000   0.00000   0.00000  -0.00000   0.00000
 104       55D+2        0.00000   0.00000  -0.00000   0.00000  -0.00000
 105       55D-2        0.00000  -0.00000   0.00000  -0.00000  -0.00000
 106       56D 0        0.00000  -0.00000  -0.00000  -0.00000  -0.00000
 107       56D+1       -0.00000   0.00000   0.00000   0.00000   0.00000
 108       56D-1       -0.00000  -0.00000  -0.00000   0.00000  -0.00000
 109       56D+2       -0.00000  -0.00000   0.00000  -0.00000   0.00000
 110       56D-2       -0.00000   0.00000  -0.00000   0.00000   0.00000
 111       57D 0        0.00000   0.00000   0.00000   0.00000   0.00000
 112       57D+1        0.00000  -0.00000  -0.00000  -0.00000   0.00000
 113       57D-1       -0.00000   0.00000   0.00000  -0.00000   0.00000
 114       57D+2        0.00000   0.00000  -0.00000  -0.00000  -0.00000
 115       57D-2        0.00000  -0.00000   0.00000  -0.00000  -0.00000
 116       58D 0       -0.00000  -0.00000  -0.00000   0.00000   0.00000
 117       58D+1       -0.00000   0.00000   0.00000  -0.00000  -0.00000
 118       58D-1        0.00000  -0.00000  -0.00000  -0.00000  -0.00000
 119       58D+2       -0.00000  -0.00000   0.00000   0.00000   0.00000
 120       58D-2       -0.00000   0.00000  -0.00000   0.00000   0.00000
 121       59D 0        0.00000  -0.00000   0.00000   0.00000  -0.00000
 122       59D+1        0.00000   0.00000  -0.00000   0.00000   0.00000
 123       59D-1       -0.00000   0.00000   0.00000  -0.00000  -0.00000
 124       59D+2        0.00000   0.00000  -0.00000  -0.00000  -0.00000
 125       59D-2        0.00000   0.00000   0.00000   0.00000   0.00000
 126       60D 0        0.00000   0.00000   0.00000  -0.00000  -0.00000
 127       60D+1        0.00000   0.00000  -0.00000   0.00000   0.00000
 128       60D-1       -0.00000   0.00000   0.00000   0.00000   0.00000
 129       60D+2        0.00000   0.00000  -0.00000  -0.00000  -0.00000
 130       60D-2        0.00000  -0.00000   0.00000   0.00000   0.00000
 131       61D 0        0.00000   0.00000   0.00000  -0.00000  -0.00000
 132       61D+1        0.00000   0.00000  -0.00000   0.00000   0.00000
 133       61D-1        0.00000   0.00000   0.00000   0.00000   0.00000
 134       61D+2        0.00000   0.00000   0.00000  -0.00000  -0.00000
 135       61D-2        0.00000  -0.00000   0.00000   0.00000   0.00000
 136       62D 0       -0.00000  -0.00000  -0.00000   0.00000   0.00000
 137       62D+1       -0.00000   0.00000   0.00000  -0.00000  -0.00000
 138       62D-1       -0.00000  -0.00000  -0.00000  -0.00000  -0.00000
 139       62D+2       -0.00000  -0.00000  -0.00000   0.00000   0.00000
 140       62D-2        0.00000   0.00000  -0.00000   0.00000  -0.00000
 141       63D 0       -0.00000  -0.00000  -0.00000   0.00000  -0.00000
 142       63D+1       -0.00000   0.00000  -0.00000  -0.00000   0.00000
 143       63D-1       -0.00000   0.00000   0.00000   0.00000   0.00000
 144       63D+2       -0.00000   0.00000  -0.00000  -0.00000  -0.00000
 145       63D-2        0.00000  -0.00000   0.00000   0.00000   0.00000
 146       64D 0       -0.00000  -0.00000   0.00000   0.00000   0.00000
 147       64D+1       -0.00000  -0.00000   0.00000   0.00000   0.00000
 148       64D-1       -0.00000  -0.00000   0.00000  -0.00000  -0.00000
 149       64D+2       -0.00000   0.00000   0.00000   0.00000   0.00000
 150       64D-2        0.00000   0.00000  -0.00000   0.00000   0.00000
 151       65D 0       -0.00000   0.00000  -0.00000  -0.00000  -0.00000
 152       65D+1       -0.00000   0.00000  -0.00000  -0.00000  -0.00000
 153       65D-1       -0.00000  -0.00000  -0.00000   0.00000   0.00000
 154       65D+2       -0.00000   0.00000  -0.00000  -0.00000  -0.00000
 155       65D-2        0.00000  -0.00000   0.00000   0.00000  -0.00000
 156       66D 0        0.00000  -0.00000   0.00000   0.00000   0.00000
 157       66D+1        0.00000   0.00000   0.00000   0.00000   0.00000
 158       66D-1        0.00000   0.00000  -0.00000   0.00000   0.00000
 159       66D+2        0.00000  -0.00000   0.00000   0.00000   0.00000
 160       66D-2       -0.00000   0.00000  -0.00000  -0.00000  -0.00000
 161       67D 0       -0.00000  -0.00000  -0.00000   0.00000   0.00000
 162       67D+1       -0.00000  -0.00000   0.00000  -0.00000  -0.00000
 163       67D-1        0.00000  -0.00000  -0.00000  -0.00000  -0.00000
 164       67D+2       -0.00000  -0.00000   0.00000   0.00000   0.00000
 165       67D-2       -0.00000   0.00000  -0.00000  -0.00000  -0.00000
 166       68D 0       -0.00000  -0.00000  -0.00000   0.00000   0.00000
 167       68D+1       -0.00000  -0.00000   0.00000  -0.00000  -0.00000
 168       68D-1       -0.00000  -0.00000  -0.00000  -0.00000  -0.00000
 169       68D+2       -0.00000  -0.00000   0.00000   0.00000   0.00000
 170       68D-2       -0.00000   0.00000  -0.00000  -0.00000  -0.00000
 171       69D 0       -0.00000   0.00000  -0.00000  -0.00000  -0.00000
 172       69D+1       -0.00000   0.00000  -0.00000  -0.00000  -0.00000
 173       69D-1       -0.00000  -0.00000   0.00000  -0.00000  -0.00000
 174       69D+2       -0.00000   0.00000  -0.00000  -0.00000  -0.00000
 175       69D-2       -0.00000  -0.00000   0.00000   0.00000   0.00000
 176       70F 0       -0.00000  -0.00007  -0.00020   0.00015   0.00000
 177       70F+1       -0.00000   0.00082   0.00007   0.00047  -0.00000
 178       70F-1        0.00000   0.00028  -0.00039  -0.00042   0.00000
 179       70F+2        0.00000   0.00025   0.00079  -0.00056   0.00000
 180       70F-2        0.00000  -0.00000   0.00000  -0.00000  -0.00000
 181       70F+3       -0.00000   0.00035   0.00003   0.00020   0.00000
 182       70F-3        0.00000   0.00036  -0.00050  -0.00054  -0.00000
 183       71F 0       -0.00000  -0.00016  -0.00050   0.00036   0.00000
 184       71F+1       -0.00000   0.00201   0.00018   0.00116   0.00000
 185       71F-1        0.00000   0.00067  -0.00095  -0.00103  -0.00000
 186       71F+2        0.00000   0.00062   0.00193  -0.00138  -0.00000
 187       71F-2        0.00000  -0.00000  -0.00000  -0.00000   0.00000
 188       71F+3        0.00000   0.00087   0.00008   0.00050  -0.00000
 189       71F-3        0.00000   0.00087  -0.00122  -0.00133   0.00000
 190       72F 0       -0.00000  -0.00029  -0.00092   0.00065  -0.00000
 191       72F+1       -0.00000   0.00369   0.00033   0.00212   0.00000
 192       72F-1        0.00000   0.00124  -0.00174  -0.00188   0.00000
 193       72F+2        0.00000   0.00114   0.00354  -0.00253   0.00000
 194       72F-2        0.00000  -0.00000   0.00000  -0.00000  -0.00000
 195       72F+3       -0.00000   0.00159   0.00014   0.00091  -0.00000
 196       72F-3        0.00000   0.00160  -0.00224  -0.00243  -0.00000
 197       73F 0       -0.00000  -0.00025  -0.00080   0.00057   0.00000
 198       73F+1       -0.00000   0.00321   0.00029   0.00184   0.00000
 199       73F-1        0.00000   0.00108  -0.00151  -0.00164  -0.00000
 200       73F+2        0.00000   0.00099   0.00308  -0.00220  -0.00000
 201       73F-2        0.00000  -0.00000   0.00000  -0.00000  -0.00000
 202       73F+3        0.00000   0.00138   0.00012   0.00079   0.00000
 203       73F-3        0.00000   0.00139  -0.00195  -0.00211   0.00000
 204       74F 0       -0.00000  -0.00005  -0.00015   0.00011  -0.00000
 205       74F+1        0.00000   0.00062   0.00006   0.00036   0.00000
 206       74F-1        0.00000   0.00021  -0.00029  -0.00032   0.00000
 207       74F+2       -0.00000   0.00019   0.00059  -0.00042   0.00000
 208       74F-2       -0.00000  -0.00000   0.00000   0.00000   0.00000
 209       74F+3        0.00000   0.00027   0.00002   0.00015   0.00000
 210       74F-3        0.00000   0.00027  -0.00038  -0.00041  -0.00000
 211       75F 0        0.00000   0.00001   0.00002  -0.00001   0.00000
 212       75F+1       -0.00000  -0.00007  -0.00001  -0.00004  -0.00000
 213       75F-1       -0.00000  -0.00002   0.00003   0.00004  -0.00000
 214       75F+2       -0.00000  -0.00002  -0.00007   0.00005  -0.00000
 215       75F-2        0.00000   0.00000  -0.00000  -0.00000  -0.00000
 216       75F+3       -0.00000  -0.00003  -0.00000  -0.00002  -0.00000
 217       75F-3        0.00000  -0.00003   0.00004   0.00005   0.00000
 218       76G 0       -0.00007  -0.00000   0.00000  -0.00000   0.00000
 219       76G+1       -0.00000   0.00000  -0.00000   0.00000  -0.00000
 220       76G-1       -0.00000  -0.00000   0.00000  -0.00000  -0.00000
 221       76G+2        0.00031  -0.00000   0.00000  -0.00000  -0.00000
 222       76G-2        0.00000   0.00000  -0.00000  -0.00000  -0.00000
 223       76G+3        0.00000   0.00000   0.00000   0.00000   0.00000
 224       76G-3       -0.00000  -0.00000   0.00000  -0.00000  -0.00000
 225       76G+4        0.00018   0.00000  -0.00000   0.00000  -0.00000
 226       76G-4        0.00000   0.00000  -0.00000  -0.00000  -0.00000
 227       77G 0       -0.00004  -0.00000  -0.00000   0.00000  -0.00006
 228       77G+1       -0.00000   0.00000   0.00000   0.00000  -0.00000
 229       77G-1       -0.00000  -0.00000  -0.00000   0.00000   0.00000
 230       77G+2        0.00020  -0.00000  -0.00000   0.00000   0.00026
 231       77G-2        0.00000  -0.00000   0.00000   0.00000   0.00000
 232       77G+3        0.00000  -0.00000  -0.00000  -0.00000   0.00000
 233       77G-3       -0.00000  -0.00000  -0.00000   0.00000   0.00000
 234       77G+4        0.00011  -0.00000   0.00000  -0.00000   0.00015
 235       77G-4        0.00000  -0.00000   0.00000   0.00000   0.00000
 236       78G 0       -0.00028   0.00000   0.00000  -0.00000  -0.00002
 237       78G+1       -0.00000   0.00000  -0.00000  -0.00000  -0.00000
 238       78G-1       -0.00000  -0.00000   0.00000  -0.00000  -0.00000
 239       78G+2        0.00123   0.00000  -0.00000  -0.00000   0.00008
 240       78G-2        0.00000   0.00000  -0.00000  -0.00000  -0.00000
 241       78G+3        0.00000   0.00000   0.00000  -0.00000  -0.00000
 242       78G-3       -0.00000   0.00000   0.00000  -0.00000  -0.00000
 243       78G+4        0.00070  -0.00000   0.00000  -0.00000   0.00004
 244       78G-4        0.00000   0.00000  -0.00000  -0.00000  -0.00000
 245       79G 0       -0.00010   0.00000   0.00000   0.00000   0.00010
 246       79G+1       -0.00000   0.00000   0.00000   0.00000   0.00000
 247       79G-1       -0.00000   0.00000  -0.00000   0.00000   0.00000
 248       79G+2        0.00044  -0.00000   0.00000   0.00000  -0.00044
 249       79G-2        0.00000   0.00000   0.00000   0.00000   0.00000
[...]
 109       56D+2        0.00001   0.00001  -0.00000   0.00001
 110       56D-2        0.00000   0.00000  -0.00000   0.00000
 111       57D 0       -0.00008  -0.00008  -0.00000  -0.00008
 112       57D+1       -0.00033  -0.00033   0.00000  -0.00033
 113       57D-1       -0.00000  -0.00000   0.00000  -0.00000
 114       57D+2       -0.00024  -0.00024  -0.00000  -0.00024
 115       57D-2       -0.00000  -0.00000   0.00000  -0.00000
 116       58D 0        0.00093   0.00093   0.00000   0.00093
 117       58D+1        0.00370   0.00370  -0.00000   0.00370
 118       58D-1        0.00000   0.00000  -0.00000   0.00000
 119       58D+2        0.00278   0.00278   0.00000   0.00278
 120       58D-2        0.00000   0.00000  -0.00000   0.00000
 121       59D 0        0.02097   0.02097   0.00000   0.02097
 122       59D+1        0.08387   0.08387   0.00000   0.08387
 123       59D-1        0.00000   0.00000  -0.00000   0.00000
 124       59D+2        0.06291   0.06291  -0.00000   0.06291
 125       59D-2        0.00000   0.00000   0.00000   0.00000
 126       60D 0        0.10462   0.10462   0.00000   0.10462
 127       60D+1        0.41847   0.41847   0.00000   0.41847
 128       60D-1        0.00000   0.00000  -0.00000   0.00000
 129       60D+2        0.31386   0.31386  -0.00000   0.31386
 130       60D-2        0.00000   0.00000   0.00000   0.00000
 131       61D 0        0.07969   0.07969   0.00000   0.07969
 132       61D+1        0.31875   0.31875   0.00000   0.31875
 133       61D-1        0.00000   0.00000   0.00000   0.00000
 134       61D+2        0.23906   0.23906  -0.00000   0.23906
 135       61D-2        0.00000   0.00000   0.00000   0.00000
 136       62D 0        0.06743   0.06743   0.00000   0.06743
 137       62D+1        0.26972   0.26972  -0.00000   0.26972
 138       62D-1        0.00000   0.00000   0.00000   0.00000
 139       62D+2        0.20229   0.20229   0.00000   0.20229
 140       62D-2        0.00000   0.00000  -0.00000   0.00000
 141       63D 0        0.05276   0.05276   0.00000   0.05276
 142       63D+1        0.21104   0.21104   0.00000   0.21104
 143       63D-1        0.00000   0.00000  -0.00000   0.00000
 144       63D+2        0.15828   0.15828  -0.00000   0.15828
 145       63D-2        0.00000   0.00000   0.00000   0.00000
 146       64D 0        0.01711   0.01711  -0.00000   0.01711
 147       64D+1        0.06846   0.06846   0.00000   0.06846
 148       64D-1        0.00000   0.00000   0.00000   0.00000
 149       64D+2        0.05134   0.05134  -0.00000   0.05134
 150       64D-2        0.00000   0.00000   0.00000   0.00000
 151       65D 0        0.00209   0.00209   0.00000   0.00209
 152       65D+1        0.00837   0.00837   0.00000   0.00837
 153       65D-1       -0.00000  -0.00000   0.00000  -0.00000
 154       65D+2        0.00628   0.00628   0.00000   0.00628
 155       65D-2       -0.00000  -0.00000   0.00000  -0.00000
 156       66D 0       -0.00003  -0.00003   0.00000  -0.00003
 157       66D+1       -0.00014  -0.00014   0.00000  -0.00014
 158       66D-1        0.00000   0.00000   0.00000   0.00000
 159       66D+2       -0.00010  -0.00010  -0.00000  -0.00010
 160       66D-2        0.00000   0.00000   0.00000   0.00000
 161       67D 0       -0.05153  -0.05153  -0.00000  -0.05153
 162       67D+1       -0.20614  -0.20614  -0.00000  -0.20614
 163       67D-1       -0.00000  -0.00000   0.00000  -0.00000
 164       67D+2       -0.15460  -0.15460   0.00000  -0.15460
 165       67D-2       -0.00000  -0.00000  -0.00000  -0.00000
 166       68D 0       -0.04397  -0.04397  -0.00000  -0.04397
 167       68D+1       -0.17588  -0.17588  -0.00000  -0.17588
 168       68D-1       -0.00000  -0.00000  -0.00000  -0.00000
 169       68D+2       -0.13191  -0.13191   0.00000  -0.13191
 170       68D-2       -0.00000  -0.00000  -0.00000  -0.00000
 171       69D 0        0.00001   0.00001  -0.00000   0.00001
 172       69D+1        0.00002   0.00002  -0.00000   0.00002
 173       69D-1       -0.00000  -0.00000  -0.00000  -0.00000
 174       69D+2        0.00002   0.00002  -0.00000   0.00002
 175       69D-2       -0.00000  -0.00000  -0.00000  -0.00000
 176       70F 0        0.00000   0.00000   0.00000   0.00000
 177       70F+1        0.00001   0.00000   0.00000   0.00000
 178       70F-1        0.00000   0.00000   0.00000   0.00000
 179       70F+2        0.00001   0.00000   0.00000  -0.00000
 180       70F-2        0.00000   0.00000   0.00000   0.00000
 181       70F+3        0.00000   0.00000   0.00000   0.00000
 182       70F-3        0.00001   0.00000   0.00000   0.00000
 183       71F 0        0.00000   0.00000   0.00000   0.00000
 184       71F+1        0.00003   0.00002   0.00002   0.00000
 185       71F-1        0.00001   0.00001   0.00001  -0.00000
 186       71F+2        0.00004   0.00002   0.00002   0.00000
 187       71F-2       -0.00000  -0.00000  -0.00000  -0.00000
 188       71F+3        0.00001   0.00000   0.00000   0.00000
 189       71F-3        0.00002   0.00001   0.00001   0.00000
 190       72F 0        0.00001   0.00000   0.00000   0.00000
 191       72F+1        0.00007   0.00004   0.00004   0.00000
 192       72F-1        0.00003   0.00002   0.00002   0.00000
 193       72F+2        0.00008   0.00004   0.00004   0.00000
 194       72F-2        0.00000   0.00000   0.00000   0.00000
 195       72F+3        0.00001   0.00001   0.00001   0.00000
 196       72F-3        0.00005   0.00003   0.00003   0.00000
 197       73F 0        0.00000   0.00000   0.00000   0.00000
 198       73F+1        0.00006   0.00003   0.00003   0.00000
 199       73F-1        0.00002   0.00001   0.00001   0.00000
 200       73F+2        0.00006   0.00003   0.00003  -0.00000
 201       73F-2        0.00000   0.00000   0.00000   0.00000
 202       73F+3        0.00001   0.00001   0.00001  -0.00000
 203       73F-3        0.00004   0.00002   0.00002  -0.00000
 204       74F 0        0.00000   0.00000   0.00000   0.00000
 205       74F+1        0.00000   0.00000   0.00000   0.00000
 206       74F-1        0.00000   0.00000   0.00000  -0.00000
 207       74F+2        0.00001   0.00000   0.00000  -0.00000
 208       74F-2        0.00000   0.00000   0.00000   0.00000
 209       74F+3        0.00000   0.00000   0.00000   0.00000
 210       74F-3        0.00000   0.00000   0.00000  -0.00000
 211       75F 0       -0.00000  -0.00000  -0.00000   0.00000
 212       75F+1       -0.00000  -0.00000  -0.00000   0.00000
 213       75F-1       -0.00000  -0.00000  -0.00000   0.00000
 214       75F+2       -0.00000  -0.00000  -0.00000   0.00000
 215       75F-2       -0.00000  -0.00000  -0.00000   0.00000
 216       75F+3       -0.00000  -0.00000  -0.00000   0.00000
 217       75F-3       -0.00000  -0.00000  -0.00000   0.00000
 218       76G 0        0.00000   0.00000   0.00000   0.00000
 219       76G+1        0.00000   0.00000   0.00000   0.00000
 220       76G-1        0.00000   0.00000   0.00000   0.00000
 221       76G+2        0.00000   0.00000   0.00000   0.00000
 222       76G-2        0.00000   0.00000   0.00000   0.00000
 223       76G+3        0.00000   0.00000   0.00000   0.00000
 224       76G-3        0.00000   0.00000   0.00000   0.00000
 225       76G+4        0.00000   0.00000   0.00000   0.00000
 226       76G-4        0.00000   0.00000   0.00000   0.00000
 227       77G 0        0.00000   0.00000   0.00000   0.00000
 228       77G+1        0.00000   0.00000   0.00000   0.00000
 229       77G-1        0.00000   0.00000  -0.00000   0.00000
 230       77G+2        0.00000   0.00000   0.00000   0.00000
 231       77G-2       -0.00000  -0.00000  -0.00000   0.00000
 232       77G+3        0.00001   0.00001  -0.00000   0.00001
 233       77G-3        0.00000   0.00000  -0.00000   0.00000
 234       77G+4        0.00000   0.00000   0.00000   0.00000
 235       77G-4        0.00000   0.00000  -0.00000   0.00000
 236       78G 0        0.00002   0.00002   0.00000   0.00002
 237       78G+1        0.00000   0.00000   0.00000   0.00000
 238       78G-1        0.00000   0.00000   0.00000   0.00000
 239       78G+2        0.00000   0.00000   0.00000   0.00000
 240       78G-2        0.00000   0.00000   0.00000   0.00000
 241       78G+3        0.00002   0.00002   0.00000   0.00002
 242       78G-3        0.00000   0.00000   0.00000   0.00000
 243       78G+4        0.00001   0.00001   0.00000   0.00001
 244       78G-4        0.00000   0.00000   0.00000   0.00000
 245       79G 0        0.00001   0.00001   0.00000   0.00001
 246       79G+1        0.00000   0.00000   0.00000   0.00000
 247       79G-1        0.00000   0.00000   0.00000   0.00000
 248       79G+2        0.00000   0.00000   0.00000   0.00000
 249       79G-2        0.00000   0.00000   0.00000   0.00000
 250       79G+3        0.00001   0.00001   0.00000   0.00001
 251       79G-3        0.00000   0.00000   0.00000   0.00000
 252       79G+4        0.00001   0.00000   0.00000   0.00000
 253       79G-4        0.00000   0.00000   0.00000   0.00000
 254       80G 0        0.00000   0.00000   0.00000   0.00000
 255       80G+1        0.00000   0.00000   0.00000   0.00000
 256       80G-1        0.00000   0.00000  -0.00000   0.00000
 257       80G+2        0.00000   0.00000   0.00000   0.00000
 258       80G-2        0.00000   0.00000   0.00000   0.00000
 259       80G+3        0.00000   0.00000   0.00000   0.00000
 260       80G-3        0.00000   0.00000  -0.00000   0.00000
 261       80G+4        0.00000   0.00000   0.00000   0.00000
 262       80G-4        0.00000   0.00000   0.00000   0.00000
 263       81H 0        0.00000   0.00000   0.00000   0.00000
 264       81H+1        0.00000   0.00000   0.00000   0.00000
 265       81H-1        0.00000   0.00000   0.00000   0.00000
 266       81H+2        0.00000   0.00000   0.00000   0.00000
 267       81H-2        0.00000   0.00000   0.00000   0.00000
 268       81H+3        0.00000   0.00000   0.00000   0.00000
 269       81H-3        0.00000   0.00000   0.00000   0.00000
 270       81H+4        0.00000   0.00000   0.00000   0.00000
 271       81H-4        0.00000   0.00000   0.00000   0.00000
 272       81H+5        0.00000   0.00000   0.00000   0.00000
 273       81H-5        0.00000   0.00000   0.00000   0.00000
 274       82H 0        0.00000   0.00000   0.00000  -0.00000
 275       82H+1        0.00000   0.00000   0.00000   0.00000
 276       82H-1        0.00000   0.00000   0.00000  -0.00000
 277       82H+2        0.00000   0.00000   0.00000  -0.00000
 278       82H-2       -0.00000  -0.00000  -0.00000  -0.00000
 279       82H+3        0.00000   0.00000   0.00000  -0.00000
 280       82H-3        0.00000   0.00000   0.00000   0.00000
 281       82H+4        0.00000   0.00000   0.00000  -0.00000
 282       82H-4       -0.00000  -0.00000  -0.00000  -0.00000
 283       82H+5        0.00000   0.00000   0.00000  -0.00000
 284       82H-5        0.00000   0.00000   0.00000  -0.00000
 285       83H 0        0.00000   0.00000   0.00000   0.00000
 286       83H+1        0.00000   0.00000   0.00000   0.00000
 287       83H-1        0.00000   0.00000   0.00000  -0.00000
 288       83H+2        0.00000   0.00000   0.00000   0.00000
 289       83H-2        0.00000   0.00000   0.00000   0.00000
 290       83H+3        0.00000   0.00000   0.00000   0.00000
 291       83H-3       -0.00000  -0.00000  -0.00000   0.00000
 292       83H+4        0.00000   0.00000   0.00000   0.00000
 293       83H-4        0.00000   0.00000   0.00000   0.00000
 294       83H+5       -0.00000  -0.00000  -0.00000   0.00000
 295       83H-5        0.00000   0.00000   0.00000   0.00000
 296       84H 0        0.00000   0.00000   0.00000   0.00000
 297       84H+1        0.00000   0.00000   0.00000   0.00000
 298       84H-1        0.00000   0.00000   0.00000   0.00000
 299       84H+2        0.00000   0.00000   0.00000   0.00000
 300       84H-2       -0.00000  -0.00000  -0.00000  -0.00000
 301       84H+3        0.00000   0.00000   0.00000   0.00000
 302       84H-3        0.00000   0.00000   0.00000   0.00000
 303       84H+4        0.00000   0.00000   0.00000   0.00000
 304       84H-4        0.00000   0.00000   0.00000  -0.00000
 305       84H+5        0.00000   0.00000   0.00000   0.00000
 306       84H-5        0.00000   0.00000   0.00000   0.00000
 307       85I 0        0.00000   0.00000   0.00000   0.00000
 308       85I+1        0.00000   0.00000   0.00000   0.00000
 309       85I-1        0.00000   0.00000   0.00000   0.00000
 310       85I+2        0.00000   0.00000   0.00000   0.00000
 311       85I-2        0.00000   0.00000   0.00000   0.00000
 312       85I+3        0.00000   0.00000   0.00000   0.00000
 313       85I-3        0.00000   0.00000   0.00000   0.00000
 314       85I+4        0.00000   0.00000   0.00000   0.00000
 315       85I-4        0.00000   0.00000   0.00000   0.00000
 316       85I+5        0.00000   0.00000   0.00000   0.00000
 317       85I-5        0.00000   0.00000   0.00000   0.00000
 318       85I+6        0.00000   0.00000   0.00000   0.00000
 319       85I-6        0.00000   0.00000   0.00000   0.00000
 320       86I 0        0.00000   0.00000   0.00000   0.00000
 321       86I+1        0.00000   0.00000   0.00000   0.00000
 322       86I-1        0.00000   0.00000   0.00000   0.00000
 323       86I+2        0.00000   0.00000   0.00000   0.00000
 324       86I-2        0.00000   0.00000   0.00000   0.00000
 325       86I+3        0.00000   0.00000   0.00000   0.00000
 326       86I-3       -0.00000  -0.00000  -0.00000   0.00000
 327       86I+4        0.00000   0.00000   0.00000   0.00000
 328       86I-4       -0.00000  -0.00000  -0.00000   0.00000
 329       86I+5        0.00000   0.00000  -0.00000   0.00000
 330       86I-5        0.00000   0.00000   0.00000   0.00000
 331       86I+6        0.00000   0.00000   0.00000   0.00000
 332       86I-6        0.00000   0.00000   0.00000   0.00000
 333       87I 0        0.00000   0.00000   0.00000  -0.00000
 334       87I+1       -0.00000  -0.00000   0.00000  -0.00000
 335       87I-1        0.00000   0.00000   0.00000   0.00000
 336       87I+2        0.00000   0.00000   0.00000  -0.00000
 337       87I-2        0.00000   0.00000   0.00000   0.00000
 338       87I+3       -0.00000  -0.00000   0.00000  -0.00000
 339       87I-3        0.00000   0.00000   0.00000   0.00000
 340       87I+4        0.00000   0.00000   0.00000  -0.00000
 341       87I-4        0.00000   0.00000   0.00000   0.00000
 342       87I+5       -0.00000  -0.00000   0.00000  -0.00000
 343       87I-5        0.00000   0.00000   0.00000   0.00000
 344       87I+6        0.00000   0.00000   0.00000  -0.00000
 345       87I-6        0.00000   0.00000   0.00000  -0.00000
          Condensed to atoms (all electrons):
               1
     1  Ti  12.000000
          Atomic-Atomic Spin Densities.
               1
     1  Ti   2.000000
 Mulliken charges and spin densities:
               1          2
     1  Ti  -0.000000   2.000000
 Sum of Mulliken charges =  -0.00000   2.00000
 Mulliken charges and spin densities with hydrogens summed into heavy atoms:
               1          2
     1  Ti  -0.000000   2.000000
 Electronic spatial extent (au):  <R**2>=             49.0503
 Charge=             -0.0000 electrons
 Dipole moment (field-independent basis, Debye):
    X=              0.0000    Y=              0.0000    Z=              0.0000  Tot=              0.0000
 Quadrupole moment (field-independent basis, Debye-Ang):
   XX=            -21.9915   YY=            -21.9915   ZZ=            -21.9915
   XY=              0.0000   XZ=             -0.0000   YZ=             -0.0000
 Traceless Quadrupole moment (field-independent basis, Debye-Ang):
   XX=              0.0000   YY=             -0.0000   ZZ=             -0.0000
   XY=              0.0000   XZ=             -0.0000   YZ=             -0.0000
 Octapole moment (field-independent basis, Debye-Ang**2):
  XXX=             -0.0000  YYY=             -0.0000  ZZZ=              0.0000  XYY=             -0.0000
  XXY=             -0.0000  XXZ=              0.0000  XZZ=             -0.0000  YZZ=             -0.0000
  YYZ=              0.0000  XYZ=              0.0000
 Hexadecapole moment (field-independent basis, Debye-Ang**3):
 XXXX=            -72.5852 YYYY=            -73.2522 ZZZZ=            -72.5853 XXXY=              0.0000
 XXXZ=             -0.0000 YYYX=              0.0000 YYYZ=             -0.0000 ZZZX=             -0.0000
 ZZZY=             -0.0000 XXYY=            -23.9728 XXZZ=            -24.6397 YYZZ=            -23.9728
 XXYZ=             -0.0000 YYXZ=             -0.0000 ZZXY=              0.0000
 N-N= 0.000000000000D+00 E-N=-1.219946236102D+02  KE= 2.498363763039D+01
 Orbital energies and kinetic energies (alpha):
                                 1                 2
   1         (A1G)--O         -2.988198          1.321041
   2         O                -1.896154          2.375521
   3         O                -1.896154          2.375521
   4         O                -1.896154          2.375521
   5         (A1G)--O         -0.438358          0.251735
   6         O                -0.438358          3.792481
   7         O                -0.230039          3.792481
   8         (T1U)--V          0.013584          0.052749
   9         (T1U)--V          0.013584          0.052749
  10         (T1U)--V          0.013584          0.052749
  11         (A1G)--V          0.020311          0.031982
  12         V                 0.034791          0.038632
 Total kinetic energy from orbitals= 3.256859873400D+01
                          Isotropic Fermi Contact Couplings
        Atom                 a.u.       MegaHertz       Gauss      10(-4) cm-1
     1  Ti(47)            -0.00000       0.00000       0.00000       0.00000
 --------------------------------------------------------
       Center         ----  Spin Dipole Couplings  ----
                      3XX-RR        3YY-RR        3ZZ-RR
 --------------------------------------------------------
     1   Atom       -0.000000     -0.000000      0.000000
 --------------------------------------------------------
                        XY            XZ            YZ
 --------------------------------------------------------
     1   Atom       -0.000000      0.000000     -0.000000
 --------------------------------------------------------


 ---------------------------------------------------------------------------------
              Anisotropic Spin Dipole Couplings in Principal Axis System
 ---------------------------------------------------------------------------------

       Atom             a.u.   MegaHertz   Gauss  10(-4) cm-1        Axes

              Baa    -0.0000     0.000     0.000     0.000  0.7763 -0.2067 -0.5955
     1 Ti(47) Bbb    -0.0000     0.000     0.000     0.000  0.2364  0.9712 -0.0291
              Bcc     0.0000    -0.000    -0.000    -0.000  0.5844 -0.1182  0.8028
 

 ---------------------------------------------------------------------------------

 No NMR shielding tensors so no spin-rotation constants.
 Leave Link  601 at Tue Mar 13 13:34:44 2018, MaxMem= 10737418240 cpu:             302.5 elap:              19.3
 (Enter /home1/apps/gaussian/16rA.03/g16/l9999.exe)
 1\1\GINC-C465-021\SP\ROCCSD(T)-Full\Gen\Ti1(3)\AANNABE\13-Mar-2018\0\\
 #P ROCCSD(T)=(maxcyc=150, Full)/Gen 5d 7f SCF=(maxcycles=300, NoVarAcc
 , VShift=200) MaxDisk=100GB Pop=Regular Pseudo=Read Guess=Read\\Ti\\0,
 3\Ti,0,0.,0.,0.\\Version=ES64L-G16RevA.03\HF=-57.5231557\MP2=-57.96096
 03\MP3=-57.9781985\PUHF=-57.5231557\PMP2-0=-57.9609603\MP4SDQ=-57.9779
 261\CCSD=-57.9783123\CCSD(T)=-57.9947931\RMSD=6.306e-09\PG=OH [O(Ti1)]
 \\@


 EDUCATION WITHOUT COMMON SENSE IS A LOAD OF BOOKS ON THE BACK OF AN ASS.
 Job cpu time:       0 days 13 hours 44 minutes 15.0 seconds.
 Elapsed time:       0 days  0 hours 52 minutes  5.0 seconds.
 File lengths (MBytes):  RWF=  24082 Int=      0 D2E=      0 Chk=     14 Scr=      1
 Normal termination of Gaussian 16 at Tue Mar 13 13:34:44 2018.
