 Entering Gaussian System, Link 0=g16
 Initial command:
 /home1/apps/gaussian/16rA.03/g16/l1.exe "/tmp/Gau-254520.inp" -scrdir="/tmp/"
 Entering Link 1 = /home1/apps/gaussian/16rA.03/g16/l1.exe PID=    254528.
  
 Copyright (c) 1988,1990,1992,1993,1995,1998,2003,2009,2016,
            Gaussian, Inc.  All Rights Reserved.
  
 This is part of the Gaussian(R) 16 program.  It is based on
 the Gaussian(R) 09 system (copyright 2009, Gaussian, Inc.),
 the Gaussian(R) 03 system (copyright 2003, Gaussian, Inc.),
 the Gaussian(R) 98 system (copyright 1998, Gaussian, Inc.),
 the Gaussian(R) 94 system (copyright 1995, Gaussian, Inc.),
 the Gaussian 92(TM) system (copyright 1992, Gaussian, Inc.),
 the Gaussian 90(TM) system (copyright 1990, Gaussian, Inc.),
 the Gaussian 88(TM) system (copyright 1988, Gaussian, Inc.),
 the Gaussian 86(TM) system (copyright 1986, Carnegie Mellon
 University), and the Gaussian 82(TM) system (copyright 1983,
 Carnegie Mellon University). Gaussian is a federally registered
 trademark of Gaussian, Inc.
  
 This software contains proprietary and confidential information,
 including trade secrets, belonging to Gaussian, Inc.
  
 This software is provided under written license and may be
 used, copied, transmitted, or stored only in accord with that
 written license.
  
 The following legend is applicable only to US Government
 contracts under FAR:
  
                    RESTRICTED RIGHTS LEGEND
  
 Use, reproduction and disclosure by the US Government is
 subject to restrictions as set forth in subparagraphs (a)
 and (c) of the Commercial Computer Software - Restricted
 Rights clause in FAR 52.227-19.
  
 Gaussian, Inc.
 340 Quinnipiac St., Bldg. 40, Wallingford CT 06492
  
  
 ---------------------------------------------------------------
 Warning -- This program may not be used in any manner that
 competes with the business of Gaussian, Inc. or will provide
 assistance to any competitor of Gaussian, Inc.  The licensee
 of this program is prohibited from giving any competitor of
 Gaussian, Inc. access to this program.  By using this program,
 the user acknowledges that Gaussian, Inc. is engaged in the
 business of creating and licensing software in the field of
 computational chemistry and represents and warrants to the
 licensee that it is not a competitor of Gaussian, Inc. and that
 it will not use this program in any manner prohibited above.
 ---------------------------------------------------------------
  

 Cite this work as:
 Gaussian 16, Revision A.03,
 M. J. Frisch, G. W. Trucks, H. B. Schlegel, G. E. Scuseria, 
 M. A. Robb, J. R. Cheeseman, G. Scalmani, V. Barone, 
 G. A. Petersson, H. Nakatsuji, X. Li, M. Caricato, A. V. Marenich, 
 J. Bloino, B. G. Janesko, R. Gomperts, B. Mennucci, H. P. Hratchian, 
 J. V. Ortiz, A. F. Izmaylov, J. L. Sonnenberg, D. Williams-Young, 
 F. Ding, F. Lipparini, F. Egidi, J. Goings, B. Peng, A. Petrone, 
 T. Henderson, D. Ranasinghe, V. G. Zakrzewski, J. Gao, N. Rega, 
 G. Zheng, W. Liang, M. Hada, M. Ehara, K. Toyota, R. Fukuda, 
 J. Hasegawa, M. Ishida, T. Nakajima, Y. Honda, O. Kitao, H. Nakai, 
 T. Vreven, K. Throssell, J. A. Montgomery, Jr., J. E. Peralta, 
 F. Ogliaro, M. J. Bearpark, J. J. Heyd, E. N. Brothers, K. N. Kudin, 
 V. N. Staroverov, T. A. Keith, R. Kobayashi, J. Normand, 
 K. Raghavachari, A. P. Rendell, J. C. Burant, S. S. Iyengar, 
 J. Tomasi, M. Cossi, J. M. Millam, M. Klene, C. Adamo, R. Cammi, 
 J. W. Ochterski, R. L. Martin, K. Morokuma, O. Farkas, 
 J. B. Foresman, and D. J. Fox, Gaussian, Inc., Wallingford CT, 2016.
 
 ******************************************
 Gaussian 16:  ES64L-G16RevA.03 25-Dec-2016
                19-Apr-2018 
 ******************************************
 %MEM=80GB
 %CPU=0-19
 SetSPE:  set environment variable "MP_BIND" = "yes"
 SetSPE:  set environment variable "MP_BLIST" = "0,1,2,3,4,5,6,7,8,9,10,11,12,13,14,15,16,17,18,19"
 Will use up to   20 processors via shared memory.
 %RWF=/scratch/04843/aannabe/gaussian/
 %Int=/scratch/04843/aannabe/gaussian/
 %D2E=/scratch/04843/aannabe/gaussian/
 %NoSave
 %CHK=ScO
 ----------------------------------------------------------------------
 #P ROCCSD(T)=(maxcyc=150, Full, SaveAmplitudes, ReadAmplitudes)/Gen 5d
  7f SCF=(maxcycles=300, VShift=400) Integral(NoXCTest) MaxDisk=500GB P
 op=Full Pseudo=Read Guess=Read
 ----------------------------------------------------------------------
 1/38=1,172=1/1;
 2/12=2,17=6,18=5,40=1/2;
 3/5=7,8=11,11=2,16=1,17=8,25=1,30=1,47=8,116=101/1,2,3;
 4/5=1/1;
 5/5=2,7=300,10=400,38=6/2;
 8/5=-1,6=4,9=120000,10=90,24=1/1,4;
 9/5=7,6=150,14=2,77=1/13;
 6/7=3/1;
 99/5=1,9=1/99;
 Leave Link    1 at Thu Apr 19 07:25:01 2018, MaxMem= 10737418240 cpu:               6.9 elap:               0.4
 (Enter /home1/apps/gaussian/16rA.03/g16/l101.exe)
 ---
 ScO
 ---
 Symbolic Z-matrix:
 Charge =  0 Multiplicity = 2
 Sc                    0.        0.        0. 
 O                     0.        0.        1.7 
 
 ITRead=  0  0
 MicOpt= -1 -1
 NAtoms=      2 NQM=        2 NQMF=       0 NMMI=      0 NMMIF=      0
                NMic=       0 NMicF=      0.
                    Isotopes and Nuclear Properties:
 (Nuclear quadrupole moments (NQMom) in fm**2, nuclear magnetic moments (NMagM)
  in nuclear magnetons)

  Atom         1           2
 IAtWgt=          45          16
 AtmWgt=  44.9559136  15.9949146
 NucSpn=           7           0
 AtZEff=  -0.0000000  -0.0000000
 NQMom=  -22.0000000   0.0000000
 NMagM=    4.7564830   0.0000000
 AtZNuc=  21.0000000   8.0000000
 Leave Link  101 at Thu Apr 19 07:25:02 2018, MaxMem= 10737418240 cpu:               2.2 elap:               0.1
 (Enter /home1/apps/gaussian/16rA.03/g16/l202.exe)
                          Input orientation:                          
 ---------------------------------------------------------------------
 Center     Atomic      Atomic             Coordinates (Angstroms)
 Number     Number       Type             X           Y           Z
 ---------------------------------------------------------------------
      1         21           0        0.000000    0.000000    0.000000
      2          8           0        0.000000    0.000000    1.700000
 ---------------------------------------------------------------------
 Stoichiometry    OSc(2)
 Framework group  C*V[C*(OSc)]
 Deg. of freedom     1
 Full point group                 C*V     NOp   4
 Largest Abelian subgroup         C2V     NOp   4
 Largest concise Abelian subgroup C1      NOp   1
                         Standard orientation:                         
 ---------------------------------------------------------------------
 Center     Atomic      Atomic             Coordinates (Angstroms)
 Number     Number       Type             X           Y           Z
 ---------------------------------------------------------------------
      1         21           0        0.000000    0.000000    0.468966
      2          8           0        0.000000    0.000000   -1.231034
 ---------------------------------------------------------------------
 Rotational constants (GHZ):           0.0000000          14.8227988          14.8227988
 Leave Link  202 at Thu Apr 19 07:25:02 2018, MaxMem= 10737418240 cpu:               0.6 elap:               0.1
 (Enter /home1/apps/gaussian/16rA.03/g16/l301.exe)
 General basis read from cards:  (5D, 7F)
 Centers:       1
 S 1 1.00
     Exponent=  8.5494290000D+03 Coefficients=  1.0000000000D+00
 S 1 1.00
     Exponent=  3.0859750000D+03 Coefficients=  1.0000000000D+00
 S 1 1.00
     Exponent=  1.2031720000D+03 Coefficients=  1.0000000000D+00
 S 1 1.00
     Exponent=  4.9848690000D+02 Coefficients=  1.0000000000D+00
 S 1 1.00
     Exponent=  2.1673600000D+02 Coefficients=  1.0000000000D+00
 S 1 1.00
     Exponent=  9.7874760000D+01 Coefficients=  1.0000000000D+00
 S 1 1.00
     Exponent=  4.5204330000D+01 Coefficients=  1.0000000000D+00
 S 1 1.00
     Exponent=  2.0211870000D+01 Coefficients=  1.0000000000D+00
 S 1 1.00
     Exponent=  9.5747510000D+00 Coefficients=  1.0000000000D+00
 S 1 1.00
     Exponent=  4.5403460000D+00 Coefficients=  1.0000000000D+00
 S 1 1.00
     Exponent=  1.9956870000D+00 Coefficients=  1.0000000000D+00
 S 1 1.00
     Exponent=  9.4221500000D-01 Coefficients=  1.0000000000D+00
 S 1 1.00
     Exponent=  4.1784500000D-01 Coefficients=  1.0000000000D+00
 S 1 1.00
     Exponent=  9.5761000000D-02 Coefficients=  1.0000000000D+00
 S 1 1.00
     Exponent=  5.1351000000D-02 Coefficients=  1.0000000000D+00
 S 1 1.00
     Exponent=  2.3878000000D-02 Coefficients=  1.0000000000D+00
 S 1 1.00
     Exponent=  2.6472000000D+00 Coefficients=  1.0000000000D+00
 S 1 1.00
     Exponent=  6.2170000000D-01 Coefficients=  1.0000000000D+00
 S 1 1.00
     Exponent=  1.1100000000D-02 Coefficients=  1.0000000000D+00
 P 1 1.00
     Exponent=  2.5075330000D+03 Coefficients=  1.0000000000D+00
 P 1 1.00
     Exponent=  8.1445710000D+02 Coefficients=  1.0000000000D+00
 P 1 1.00
     Exponent=  3.1151950000D+02 Coefficients=  1.0000000000D+00
 P 1 1.00
     Exponent=  1.3196170000D+02 Coefficients=  1.0000000000D+00
 P 1 1.00
     Exponent=  5.9987180000D+01 Coefficients=  1.0000000000D+00
 P 1 1.00
     Exponent=  2.8662500000D+01 Coefficients=  1.0000000000D+00
 P 1 1.00
     Exponent=  1.4108510000D+01 Coefficients=  1.0000000000D+00
 P 1 1.00
     Exponent=  7.1037060000D+00 Coefficients=  1.0000000000D+00
 P 1 1.00
     Exponent=  3.6092000000D+00 Coefficients=  1.0000000000D+00
 P 1 1.00
     Exponent=  1.7760700000D+00 Coefficients=  1.0000000000D+00
 P 1 1.00
     Exponent=  8.5476000000D-01 Coefficients=  1.0000000000D+00
 P 1 1.00
     Exponent=  4.0223900000D-01 Coefficients=  1.0000000000D+00
 P 1 1.00
     Exponent=  1.5468000000D-01 Coefficients=  1.0000000000D+00
 P 1 1.00
     Exponent=  6.4888000000D-02 Coefficients=  1.0000000000D+00
 P 1 1.00
     Exponent=  2.6301000000D-02 Coefficients=  1.0000000000D+00
 P 1 1.00
     Exponent=  3.4418000000D+00 Coefficients=  1.0000000000D+00
 P 1 1.00
     Exponent=  8.0840000000D-01 Coefficients=  1.0000000000D+00
 P 1 1.00
     Exponent=  1.0660000000D-02 Coefficients=  1.0000000000D+00
 D 1 1.00
     Exponent=  5.0654200000D+01 Coefficients=  1.0000000000D+00
 D 1 1.00
     Exponent=  1.4732500000D+01 Coefficients=  1.0000000000D+00
 D 1 1.00
     Exponent=  5.1804600000D+00 Coefficients=  1.0000000000D+00
 D 1 1.00
     Exponent=  2.0195900000D+00 Coefficients=  1.0000000000D+00
 D 1 1.00
     Exponent=  7.9921900000D-01 Coefficients=  1.0000000000D+00
 D 1 1.00
     Exponent=  3.0531600000D-01 Coefficients=  1.0000000000D+00
 D 1 1.00
     Exponent=  1.1044400000D-01 Coefficients=  1.0000000000D+00
 D 1 1.00
     Exponent=  3.7065000000D-02 Coefficients=  1.0000000000D+00
 D 1 1.00
     Exponent=  1.8520000000D+00 Coefficients=  1.0000000000D+00
 D 1 1.00
     Exponent=  7.8750000000D-01 Coefficients=  1.0000000000D+00
 D 1 1.00
     Exponent=  1.2440000000D-02 Coefficients=  1.0000000000D+00
 F 1 1.00
     Exponent=  2.1048000000D+00 Coefficients=  1.0000000000D+00
 F 1 1.00
     Exponent=  6.5870000000D-01 Coefficients=  1.0000000000D+00
 F 1 1.00
     Exponent=  1.6360000000D-01 Coefficients=  1.0000000000D+00
 F 1 1.00
     Exponent=  4.0630000000D-02 Coefficients=  1.0000000000D+00
 G 1 1.00
     Exponent=  1.7850000000D+00 Coefficients=  1.0000000000D+00
 G 1 1.00
     Exponent=  4.1120000000D-01 Coefficients=  1.0000000000D+00
 G 1 1.00
     Exponent=  9.4730000000D-02 Coefficients=  1.0000000000D+00
 ****
 Centers:       2
 S 1 1.00
     Exponent=  1.5330000000D+04 Coefficients=  1.0000000000D+00
 S 1 1.00
     Exponent=  2.2990000000D+03 Coefficients=  1.0000000000D+00
 S 1 1.00
     Exponent=  5.2240000000D+02 Coefficients=  1.0000000000D+00
 S 1 1.00
     Exponent=  1.4730000000D+02 Coefficients=  1.0000000000D+00
 S 1 1.00
     Exponent=  4.7550000000D+01 Coefficients=  1.0000000000D+00
 S 1 1.00
     Exponent=  1.6760000000D+01 Coefficients=  1.0000000000D+00
 S 1 1.00
     Exponent=  6.2070000000D+00 Coefficients=  1.0000000000D+00
 S 1 1.00
     Exponent=  6.8820000000D-01 Coefficients=  1.0000000000D+00
 S 1 1.00
     Exponent=  1.7520000000D+00 Coefficients=  1.0000000000D+00
 S 1 1.00
     Exponent=  2.3840000000D-01 Coefficients=  1.0000000000D+00
 S 1 1.00
     Exponent=  7.8450000000D+00 Coefficients=  1.0000000000D+00
 S 1 1.00
     Exponent=  2.1032000000D+01 Coefficients=  1.0000000000D+00
 S 1 1.00
     Exponent=  7.3760000000D-02 Coefficients=  1.0000000000D+00
 P 1 1.00
     Exponent=  3.4460000000D+01 Coefficients=  1.0000000000D+00
 P 1 1.00
     Exponent=  7.7490000000D+00 Coefficients=  1.0000000000D+00
 P 1 1.00
     Exponent=  2.2800000000D+00 Coefficients=  1.0000000000D+00
 P 1 1.00
     Exponent=  7.1560000000D-01 Coefficients=  1.0000000000D+00
 P 1 1.00
     Exponent=  2.1400000000D-01 Coefficients=  1.0000000000D+00
 P 1 1.00
     Exponent=  1.5159000000D+01 Coefficients=  1.0000000000D+00
 P 1 1.00
     Exponent=  5.7437000000D+01 Coefficients=  1.0000000000D+00
 P 1 1.00
     Exponent=  5.9740000000D-02 Coefficients=  1.0000000000D+00
 D 1 1.00
     Exponent=  2.3140000000D+00 Coefficients=  1.0000000000D+00
 D 1 1.00
     Exponent=  6.4500000000D-01 Coefficients=  1.0000000000D+00
 D 1 1.00
     Exponent=  1.5858000000D+01 Coefficients=  1.0000000000D+00
 D 1 1.00
     Exponent=  2.1400000000D-01 Coefficients=  1.0000000000D+00
 F 1 1.00
     Exponent=  1.4280000000D+00 Coefficients=  1.0000000000D+00
 F 1 1.00
     Exponent=  5.0000000000D-01 Coefficients=  1.0000000000D+00
 ****
 ======================================================================================================
                                       Pseudopotential Parameters
 ======================================================================================================
  Center     Atomic      Valence      Angular      Power
  Number     Number     Electrons     Momentum     of R      Exponent        Coefficient   SO-Coeffient
 ======================================================================================================
    1         21           11
                                      D and up 
                                                     1       16.0484864       11.00000000    0.00000000
                                                     3       14.0776444      176.53335005    0.00000000
                                                     2       11.9934867      -83.67342052    0.00000000
                                                     2        3.7511530        0.33106479    0.00000000
                                      S - D
                                                     2       11.4712714      153.95987029    0.00000000
                                                     2        5.0075674       14.96431856    0.00000000
                                      P - D
                                                     2       11.4449481       97.20944543    0.00000000
                                                     2        4.7850946       10.81621631    0.00000000
    2          8            6
                                      P and up 
                                                     1       12.3099700        6.00000000    0.00000000
                                                     3       14.7696200       73.85984000    0.00000000
                                                     2       13.7141900      -47.87600000    0.00000000
                                      S - P
                                                     2       13.6551200       85.86406000    0.00000000
 ======================================================================================================
 Ernie: Thresh=  0.10000D-02 Tol=  0.10000D-05 Strict=F.
 There are   139 symmetry adapted cartesian basis functions of A1  symmetry.
 There are    30 symmetry adapted cartesian basis functions of A2  symmetry.
 There are    68 symmetry adapted cartesian basis functions of B1  symmetry.
 There are    68 symmetry adapted cartesian basis functions of B2  symmetry.
 There are   109 symmetry adapted basis functions of A1  symmetry.
 There are    27 symmetry adapted basis functions of A2  symmetry.
 There are    59 symmetry adapted basis functions of B1  symmetry.
 There are    59 symmetry adapted basis functions of B2  symmetry.
   254 basis functions,   305 primitive gaussians,   305 cartesian basis functions
     9 alpha electrons        8 beta electrons
       nuclear repulsion energy        20.5445270122 Hartrees.
 IExCor=    0 DFT=F Ex=HF Corr=None ExCW=0 ScaHFX=  1.000000
 ScaDFX=  1.000000  1.000000  1.000000  1.000000 ScalE2=  1.000000  1.000000
 IRadAn=      5 IRanWt=     -1 IRanGd=            0 ICorTp=0 IEmpDi=  4
 NAtoms=    2 NActive=    2 NUniq=    2 SFac= 1.00D+00 NAtFMM=   60 NAOKFM=F Big=F
 Integral buffers will be    131072 words long.
 Raffenetti 2 integral format.
 Two-electron integral symmetry is turned on.
 Leave Link  301 at Thu Apr 19 07:25:03 2018, MaxMem= 10737418240 cpu:               5.0 elap:               0.3
 (Enter /home1/apps/gaussian/16rA.03/g16/l302.exe)
 NPDir=0 NMtPBC=     1 NCelOv=     1 NCel=       1 NClECP=     1 NCelD=      1
         NCelK=      1 NCelE2=     1 NClLst=     1 CellRange=     0.0.
 One-electron integrals computed using PRISM.
 One-electron integral symmetry used in STVInt
   4 Symmetry operations used in ECPInt.
 ECPInt:  NShTT=    3403 NPrTT=    3403 LenC2=    3183 LenP2D=    3182.
 LDataN:  DoStor=T MaxTD1= 8 Len=  415
 NBasis=   254 RedAO= T EigKep=  1.08D-06  NBF=   109    27    59    59
 NBsUse=   251 1.00D-06 EigRej=  6.57D-07 NBFU=   108    27    58    58
 Leave Link  302 at Thu Apr 19 07:25:04 2018, MaxMem= 10737418240 cpu:              19.1 elap:               1.1
 (Enter /home1/apps/gaussian/16rA.03/g16/l303.exe)
 DipDrv:  MaxL=1.
 Leave Link  303 at Thu Apr 19 07:25:05 2018, MaxMem= 10737418240 cpu:               1.4 elap:               0.1
 (Enter /home1/apps/gaussian/16rA.03/g16/l401.exe)
 Initial guess from the checkpoint file:  "ScO.chk"
 B after Tr=     0.000000    0.000000    0.000000
         Rot=    1.000000    0.000000    0.000000    0.000000 Ang=   0.00 deg.
 Guess basis will be translated and rotated to current coordinates.
 JPrj=2 DoOrth=T DoCkMO=T.
 Initial guess orbital symmetries:
       Occupied  (SG) (SG) (PI) (PI) (SG) (PI) (PI) (SG) (SG)
       Virtual   (PI) (PI) (SG) (SG) (DLTA) (DLTA) (PI) (PI) (SG)
                 (PI) (PI) (SG) (SG) (DLTA) (DLTA) (PI) (PI) (SG)
                 (PI) (PI) (DLTA) (DLTA) (PHI) (PHI) (SG) (PI)
                 (PI) (DLTA) (DLTA) (SG) (SG) (PI) (PI) (SG) (PI)
                 (PI) (SG) (PI) (PI) (DLTA) (DLTA) (?A) (?A) (PHI)
                 (PHI) (DLTA) (DLTA) (SG) (DLTA) (DLTA) (PI) (PI)
                 (PHI) (PHI) (SG) (PI) (PI) (SG) (SG) (PI) (PI)
                 (PI) (PI) (DLTA) (DLTA) (PHI) (PHI) (DLTA) (DLTA)
                 (PI) (PI) (SG) (?A) (?A) (SG) (DLTA) (DLTA) (PI)
                 (PI) (SG) (SG) (PI) (PI) (DLTA) (DLTA) (PHI) (PHI)
                 (?A) (?A) (SG) (PHI) (PHI) (PI) (PI) (SG) (SG)
                 (DLTA) (DLTA) (PI) (PI) (SG) (DLTA) (DLTA) (PI)
                 (PI) (PI) (PI) (SG) (SG) (DLTA) (DLTA) (PHI) (PHI)
                 (SG) (PI) (PI) (DLTA) (DLTA) (PI) (PI) (SG) (SG)
                 (?B) (?B) (PI) (PI) (PHI) (PHI) (?B) (?B) (?B)
                 (?B) (PI) (PI) (PHI) (PHI) (?B) (?B) (?B) (?B)
                 (?B) (?B) (?B) (?B) (?B) (?B) (?B) (?B) (?B) (?B)
                 (?B) (SG) (?B) (?B) (?B) (?B) (?B) (?B) (?B) (?B)
                 (?B) (?B) (?B) (?B) (?B) (?B) (?B) (SG) (?B) (?B)
                 (SG) (SG) (SG) (SG) (SG) (?B) (SG) (SG) (SG) (SG)
                 (SG) (SG) (SG) (SG) (SG) (?B) (SG) (SG) (SG) (SG)
                 (SG) (SG) (SG) (SG) (SG) (SG) (SG) (SG) (SG) (SG)
                 (?B) (?B) (?B) (SG) (?B) (?B) (?B) (?B) (?B) (SG)
                 (?B) (?B) (?B) (?B) (?B) (?B) (?B) (?B) (?B) (?B)
                 (?B) (?B) (?B) (?B) (?B) (?B) (?B) (?B) (?B) (PI)
                 (?B) (?B) (?B) (?B) (?B) (?B) (?B) (?B) (?B) (?B)
                 (?B) (PI)
 The electronic state of the initial guess is 2-SG.
 Leave Link  401 at Thu Apr 19 07:25:06 2018, MaxMem= 10737418240 cpu:              18.7 elap:               1.2
 (Enter /home1/apps/gaussian/16rA.03/g16/l502.exe)
 Keep R1 and R2 ints in memory in symmetry-blocked form, NReq=658655674.
 FoFCou: FMM=F IPFlag=           8 FMFlag=           0 FMFlg1=           0
         NFxFlg=           0 DoJE=F BraDBF=F KetDBF=F FulRan=T
         wScrn=  0.000000 ICntrl=       600 IOpCl=  0 I1Cent=           0 NGrid=           0
         NMat0=    1 NMatS0=  32385 NMatT0=    0 NMatD0=    1 NMtDS0=    0 NMtDT0=    0
 Petite list used in FoFCou.
 Restricted open shell SCF:
 Using DIIS extrapolation, IDIIS=  1040.
 NGot= 10737418240 LenX= 10468811225 LenY= 10468717759
 Requested convergence on RMS density matrix=1.00D-08 within 300 cycles.
 Requested convergence on MAX density matrix=1.00D-06.
 Requested convergence on             energy=1.00D-06.
 Virtual orbitals will be shifted by   0.400 hartree.
 No special actions if energy rises.
 An orbital has undefined symmetry, so N**3 symmetry is turned off.

 Cycle   1  Pass 1  IDiag  1:
 E= -61.6222548810948    
 DIIS: error= 2.11D-01 at cycle   1 NSaved=   1.
 NSaved= 1 IEnMin= 1 EnMin= -61.6222548810948     IErMin= 1 ErrMin= 2.11D-01
 ErrMax= 2.11D-01  0.00D+00 EMaxC= 1.00D-01 BMatC= 4.12D+00 BMatP= 4.12D+00
 IDIUse=3 WtCom= 0.00D+00 WtEn= 1.00D+00
 Coeff-Com:  0.100D+01
 Coeff-En:   0.100D+01
 Coeff:      0.100D+01
 Gap=     1.231 Goal=   None    Shift=    0.400
 GapD=    1.231 DampG=2.000 DampE=0.125 DampFc=0.2500 IDamp=-1.
 Damping current iteration by 2.50D-01
 RMSDP=1.21D-02 MaxDP=8.72D-01              OVMax= 9.15D-02

 Cycle   2  Pass 1  IDiag  1:
 E= -61.6833880514654     Delta-E=       -0.061133170371 Rises=F Damp=T
 DIIS: error= 1.58D-01 at cycle   2 NSaved=   2.
 NSaved= 2 IEnMin= 2 EnMin= -61.6833880514654     IErMin= 2 ErrMin= 1.58D-01
 ErrMax= 1.58D-01  0.00D+00 EMaxC= 1.00D-01 BMatC= 2.35D+00 BMatP= 4.12D+00
 IDIUse=3 WtCom= 0.00D+00 WtEn= 1.00D+00
 Coeff-Com: -0.307D+01 0.407D+01
 Coeff-En:   0.000D+00 0.100D+01
 Coeff:      0.000D+00 0.100D+01
 Gap=     0.080 Goal=   None    Shift=    0.400
 RMSDP=1.12D-02 MaxDP=8.33D-01 DE=-6.11D-02 OVMax= 3.32D-02

 Cycle   3  Pass 1  IDiag  1:
 E= -61.9075029513355     Delta-E=       -0.224114899870 Rises=F Damp=F
 DIIS: error= 1.12D-02 at cycle   3 NSaved=   3.
 NSaved= 3 IEnMin= 3 EnMin= -61.9075029513355     IErMin= 3 ErrMin= 1.12D-02
 ErrMax= 1.12D-02  0.00D+00 EMaxC= 1.00D-01 BMatC= 1.03D-02 BMatP= 2.35D+00
 IDIUse=3 WtCom= 8.88D-01 WtEn= 1.12D-01
 Coeff-Com:  0.367D+01-0.489D+01 0.222D+01
 Coeff-En:   0.000D+00 0.000D+00 0.100D+01
 Coeff:      0.326D+01-0.434D+01 0.208D+01
 Gap=     0.093 Goal=   None    Shift=    0.400
 RMSDP=2.43D-03 MaxDP=1.53D-01 DE=-2.24D-01 OVMax= 6.61D-02

 Cycle   4  Pass 1  IDiag  1:
 E= -61.9313327607579     Delta-E=       -0.023829809422 Rises=F Damp=F
 DIIS: error= 5.54D-03 at cycle   4 NSaved=   4.
 NSaved= 4 IEnMin= 4 EnMin= -61.9313327607579     IErMin= 4 ErrMin= 5.54D-03
 ErrMax= 5.54D-03  0.00D+00 EMaxC= 1.00D-01 BMatC= 2.14D-03 BMatP= 1.03D-02
 IDIUse=3 WtCom= 9.45D-01 WtEn= 5.54D-02
 Coeff-Com:  0.697D+00-0.926D+00-0.327D-01 0.126D+01
 Coeff-En:   0.000D+00 0.000D+00 0.000D+00 0.100D+01
 Coeff:      0.659D+00-0.875D+00-0.309D-01 0.125D+01
 Gap=     0.088 Goal=   None    Shift=    0.400
 RMSDP=7.79D-04 MaxDP=3.83D-02 DE=-2.38D-02 OVMax= 3.66D-02

 Cycle   5  Pass 1  IDiag  1:
 E= -61.9384926726412     Delta-E=       -0.007159911883 Rises=F Damp=F
 DIIS: error= 3.98D-03 at cycle   5 NSaved=   5.
 NSaved= 5 IEnMin= 5 EnMin= -61.9384926726412     IErMin= 5 ErrMin= 3.98D-03
 ErrMax= 3.98D-03  0.00D+00 EMaxC= 1.00D-01 BMatC= 8.45D-04 BMatP= 2.14D-03
 IDIUse=3 WtCom= 9.60D-01 WtEn= 3.98D-02
 Coeff-Com: -0.897D+00 0.119D+01-0.414D+00-0.899D+00 0.202D+01
 Coeff-En:   0.000D+00 0.000D+00 0.000D+00 0.000D+00 0.100D+01
 Coeff:     -0.861D+00 0.115D+01-0.398D+00-0.863D+00 0.198D+01
 Gap=     0.087 Goal=   None    Shift=    0.400
 RMSDP=4.31D-04 MaxDP=3.99D-02 DE=-7.16D-03 OVMax= 3.48D-02

 Cycle   6  Pass 1  IDiag  1:
 E= -61.9424273437020     Delta-E=       -0.003934671061 Rises=F Damp=F
 DIIS: error= 2.51D-03 at cycle   6 NSaved=   6.
 NSaved= 6 IEnMin= 6 EnMin= -61.9424273437020     IErMin= 6 ErrMin= 2.51D-03
 ErrMax= 2.51D-03  0.00D+00 EMaxC= 1.00D-01 BMatC= 3.77D-04 BMatP= 8.45D-04
 IDIUse=3 WtCom= 9.75D-01 WtEn= 2.51D-02
 Coeff-Com: -0.403D+00 0.536D+00-0.708D-01-0.435D+00-0.398D+00 0.177D+01
 Coeff-En:   0.000D+00 0.000D+00 0.000D+00 0.000D+00 0.000D+00 0.100D+01
 Coeff:     -0.393D+00 0.522D+00-0.690D-01-0.425D+00-0.388D+00 0.175D+01
 Gap=     0.089 Goal=   None    Shift=    0.400
 RMSDP=2.69D-04 MaxDP=1.13D-02 DE=-3.93D-03 OVMax= 2.56D-02

 Cycle   7  Pass 1  IDiag  1:
 E= -61.9444318783469     Delta-E=       -0.002004534645 Rises=F Damp=F
 DIIS: error= 1.75D-03 at cycle   7 NSaved=   7.
 NSaved= 7 IEnMin= 7 EnMin= -61.9444318783469     IErMin= 7 ErrMin= 1.75D-03
 ErrMax= 1.75D-03  0.00D+00 EMaxC= 1.00D-01 BMatC= 1.86D-04 BMatP= 3.77D-04
 IDIUse=3 WtCom= 9.82D-01 WtEn= 1.75D-02
 Coeff-Com: -0.143D+00 0.190D+00-0.153D-01-0.599D-01-0.443D+00 0.180D+00
 Coeff-Com:  0.129D+01
 Coeff-En:   0.000D+00 0.000D+00 0.000D+00 0.000D+00 0.000D+00 0.000D+00
 Coeff-En:   0.100D+01
 Coeff:     -0.140D+00 0.186D+00-0.151D-01-0.588D-01-0.435D+00 0.177D+00
 Coeff:      0.129D+01
 Gap=     0.089 Goal=   None    Shift=    0.400
 RMSDP=1.68D-04 MaxDP=7.42D-03 DE=-2.00D-03 OVMax= 1.84D-02

 Cycle   8  Pass 1  IDiag  1:
 E= -61.9453498590702     Delta-E=       -0.000917980723 Rises=F Damp=F
 DIIS: error= 1.30D-03 at cycle   8 NSaved=   8.
 NSaved= 8 IEnMin= 8 EnMin= -61.9453498590702     IErMin= 8 ErrMin= 1.30D-03
 ErrMax= 1.30D-03  0.00D+00 EMaxC= 1.00D-01 BMatC= 8.40D-05 BMatP= 1.86D-04
 IDIUse=3 WtCom= 9.87D-01 WtEn= 1.30D-02
 Coeff-Com: -0.188D-01 0.251D-01-0.290D-01 0.553D-01 0.231D+00-0.104D+01
 Coeff-Com: -0.502D-01 0.183D+01
 Coeff-En:   0.000D+00 0.000D+00 0.000D+00 0.000D+00 0.000D+00 0.000D+00
 Coeff-En:   0.000D+00 0.100D+01
 Coeff:     -0.185D-01 0.248D-01-0.286D-01 0.546D-01 0.228D+00-0.103D+01
 Coeff:     -0.495D-01 0.182D+01
 Gap=     0.089 Goal=   None    Shift=    0.400
 RMSDP=1.39D-04 MaxDP=6.44D-03 DE=-9.18D-04 OVMax= 1.60D-02

 Cycle   9  Pass 1  IDiag  1:
 E= -61.9458665740965     Delta-E=       -0.000516715026 Rises=F Damp=F
 DIIS: error= 8.62D-04 at cycle   9 NSaved=   9.
 NSaved= 9 IEnMin= 9 EnMin= -61.9458665740965     IErMin= 9 ErrMin= 8.62D-04
 ErrMax= 8.62D-04  0.00D+00 EMaxC= 1.00D-01 BMatC= 3.56D-05 BMatP= 8.40D-05
 IDIUse=3 WtCom= 9.91D-01 WtEn= 8.62D-03
 Coeff-Com: -0.968D-01 0.129D+00-0.492D-01-0.801D-01 0.307D+00-0.202D+00
 Coeff-Com: -0.346D+00-0.329D+00 0.167D+01
 Coeff-En:   0.000D+00 0.000D+00 0.000D+00 0.000D+00 0.000D+00 0.000D+00
 Coeff-En:   0.000D+00 0.000D+00 0.100D+01
 Coeff:     -0.959D-01 0.128D+00-0.488D-01-0.794D-01 0.304D+00-0.201D+00
 Coeff:     -0.343D+00-0.326D+00 0.166D+01
 Gap=     0.089 Goal=   None    Shift=    0.400
 RMSDP=6.92D-05 MaxDP=3.95D-03 DE=-5.17D-04 OVMax= 9.04D-03

 Cycle  10  Pass 1  IDiag  1:
 E= -61.9460289328344     Delta-E=       -0.000162358738 Rises=F Damp=F
 DIIS: error= 5.79D-04 at cycle  10 NSaved=  10.
 NSaved=10 IEnMin=10 EnMin= -61.9460289328344     IErMin=10 ErrMin= 5.79D-04
 ErrMax= 5.79D-04  0.00D+00 EMaxC= 1.00D-01 BMatC= 1.77D-05 BMatP= 3.56D-05
 IDIUse=3 WtCom= 9.94D-01 WtEn= 5.79D-03
 Coeff-Com: -0.749D-01 0.998D-01-0.374D-01-0.456D-01 0.151D+00-0.813D-01
 Coeff-Com:  0.429D-01 0.146D+00-0.191D+01 0.270D+01
 Coeff-En:   0.000D+00 0.000D+00 0.000D+00 0.000D+00 0.000D+00 0.000D+00
 Coeff-En:   0.000D+00 0.000D+00 0.000D+00 0.100D+01
 Coeff:     -0.745D-01 0.992D-01-0.372D-01-0.453D-01 0.150D+00-0.808D-01
 Coeff:      0.426D-01 0.146D+00-0.189D+01 0.269D+01
 Gap=     0.089 Goal=   None    Shift=    0.400
 RMSDP=4.70D-05 MaxDP=3.28D-03 DE=-1.62D-04 OVMax= 6.98D-03

 Cycle  11  Pass 1  IDiag  1:
 E= -61.9460927838606     Delta-E=       -0.000063851026 Rises=F Damp=F
 DIIS: error= 3.83D-04 at cycle  11 NSaved=  11.
 NSaved=11 IEnMin=11 EnMin= -61.9460927838606     IErMin=11 ErrMin= 3.83D-04
 ErrMax= 3.83D-04  0.00D+00 EMaxC= 1.00D-01 BMatC= 9.58D-06 BMatP= 1.77D-05
 IDIUse=3 WtCom= 9.96D-01 WtEn= 3.83D-03
 Coeff-Com: -0.470D-01 0.626D-01-0.321D-01 0.203D-02 0.152D+00-0.331D+00
 Coeff-Com:  0.168D+00 0.397D+00-0.700D+00-0.969D+00 0.230D+01
 Coeff-En:   0.000D+00 0.000D+00 0.000D+00 0.000D+00 0.000D+00 0.000D+00
 Coeff-En:   0.000D+00 0.000D+00 0.000D+00 0.000D+00 0.100D+01
 Coeff:     -0.468D-01 0.624D-01-0.320D-01 0.202D-02 0.152D+00-0.330D+00
 Coeff:      0.167D+00 0.396D+00-0.697D+00-0.965D+00 0.229D+01
 Gap=     0.089 Goal=   None    Shift=    0.400
 RMSDP=3.31D-05 MaxDP=2.70D-03 DE=-6.39D-05 OVMax= 5.58D-03

 Cycle  12  Pass 1  IDiag  1:
 E= -61.9461245599685     Delta-E=       -0.000031776108 Rises=F Damp=F
 DIIS: error= 2.36D-04 at cycle  12 NSaved=  12.
 NSaved=12 IEnMin=12 EnMin= -61.9461245599685     IErMin=12 ErrMin= 2.36D-04
 ErrMax= 2.36D-04  0.00D+00 EMaxC= 1.00D-01 BMatC= 5.49D-06 BMatP= 9.58D-06
 IDIUse=3 WtCom= 9.98D-01 WtEn= 2.36D-03
 Coeff-Com: -0.485D-01 0.647D-01-0.259D-01-0.264D-01 0.908D-01 0.429D-01
 Coeff-Com:  0.942D-05-0.560D+00 0.114D+01-0.427D+00-0.286D+01 0.361D+01
 Coeff-En:   0.000D+00 0.000D+00 0.000D+00 0.000D+00 0.000D+00 0.000D+00
 Coeff-En:   0.000D+00 0.000D+00 0.000D+00 0.000D+00 0.000D+00 0.100D+01
 Coeff:     -0.484D-01 0.645D-01-0.259D-01-0.263D-01 0.906D-01 0.428D-01
 Coeff:      0.940D-05-0.559D+00 0.114D+01-0.426D+00-0.286D+01 0.360D+01
 Gap=     0.089 Goal=   None    Shift=    0.400
 RMSDP=2.95D-05 MaxDP=2.11D-03 DE=-3.18D-05 OVMax= 4.61D-03

 Cycle  13  Pass 1  IDiag  1:
 E= -61.9461434144029     Delta-E=       -0.000018854434 Rises=F Damp=F
 DIIS: error= 2.18D-04 at cycle  13 NSaved=  13.
 NSaved=13 IEnMin=13 EnMin= -61.9461434144029     IErMin=13 ErrMin= 2.18D-04
 ErrMax= 2.18D-04  0.00D+00 EMaxC= 1.00D-01 BMatC= 3.34D-06 BMatP= 5.49D-06
 IDIUse=3 WtCom= 9.98D-01 WtEn= 2.18D-03
 Coeff-Com: -0.385D-01 0.512D-01-0.232D-01 0.595D-02-0.689D-02 0.922D-01
 Coeff-Com: -0.993D-01-0.511D-01-0.421D+00 0.184D+01-0.181D+01-0.204D+01
 Coeff-Com:  0.350D+01
 Coeff-En:   0.000D+00 0.000D+00 0.000D+00 0.000D+00 0.000D+00 0.000D+00
 Coeff-En:   0.000D+00 0.000D+00 0.000D+00 0.000D+00 0.000D+00 0.000D+00
 Coeff-En:   0.100D+01
 Coeff:     -0.384D-01 0.511D-01-0.232D-01 0.593D-02-0.688D-02 0.920D-01
 Coeff:     -0.991D-01-0.510D-01-0.420D+00 0.183D+01-0.180D+01-0.204D+01
 Coeff:      0.349D+01
 Gap=     0.089 Goal=   None    Shift=    0.400
 RMSDP=2.48D-05 MaxDP=1.71D-03 DE=-1.89D-05 OVMax= 3.95D-03

 Cycle  14  Pass 1  IDiag  1:
 E= -61.9461539844609     Delta-E=       -0.000010570058 Rises=F Damp=F
 DIIS: error= 1.88D-04 at cycle  14 NSaved=  14.
 NSaved=14 IEnMin=14 EnMin= -61.9461539844609     IErMin=14 ErrMin= 1.88D-04
 ErrMax= 1.88D-04  0.00D+00 EMaxC= 1.00D-01 BMatC= 2.06D-06 BMatP= 3.34D-06
 IDIUse=3 WtCom= 9.98D-01 WtEn= 1.88D-03
 Coeff-Com: -0.271D-01 0.361D-01-0.142D-01-0.940D-02 0.202D-01 0.356D-01
 Coeff-Com: -0.599D-01-0.593D-02 0.616D-01 0.492D-01-0.829D+00 0.171D+01
 Coeff-Com: -0.309D+01 0.312D+01
 Coeff-En:   0.000D+00 0.000D+00 0.000D+00 0.000D+00 0.000D+00 0.000D+00
 Coeff-En:   0.000D+00 0.000D+00 0.000D+00 0.000D+00 0.000D+00 0.000D+00
 Coeff-En:   0.000D+00 0.100D+01
 Coeff:     -0.271D-01 0.361D-01-0.142D-01-0.939D-02 0.202D-01 0.356D-01
 Coeff:     -0.598D-01-0.591D-02 0.615D-01 0.491D-01-0.828D+00 0.171D+01
 Coeff:     -0.309D+01 0.312D+01
 Gap=     0.089 Goal=   None    Shift=    0.400
 RMSDP=1.26D-05 MaxDP=1.18D-03 DE=-1.06D-05 OVMax= 3.01D-03

 Cycle  15  Pass 1  IDiag  1:
 E= -61.9461606804687     Delta-E=       -0.000006696008 Rises=F Damp=F
 DIIS: error= 1.39D-04 at cycle  15 NSaved=  15.
 NSaved=15 IEnMin=15 EnMin= -61.9461606804687     IErMin=15 ErrMin= 1.39D-04
 ErrMax= 1.39D-04  0.00D+00 EMaxC= 1.00D-01 BMatC= 1.20D-06 BMatP= 2.06D-06
 IDIUse=3 WtCom= 9.99D-01 WtEn= 1.39D-03
 Coeff-Com: -0.371D-02 0.494D-02-0.292D-02 0.297D-02-0.886D-03-0.157D-01
 Coeff-Com:  0.971D-01-0.217D+00 0.318D+00-0.465D-01-0.653D+00 0.554D-01
 Coeff-Com:  0.195D+01-0.494D+01 0.445D+01
 Coeff-En:   0.000D+00 0.000D+00 0.000D+00 0.000D+00 0.000D+00 0.000D+00
 Coeff-En:   0.000D+00 0.000D+00 0.000D+00 0.000D+00 0.000D+00 0.000D+00
 Coeff-En:   0.000D+00 0.000D+00 0.100D+01
 Coeff:     -0.370D-02 0.494D-02-0.292D-02 0.297D-02-0.885D-03-0.156D-01
 Coeff:      0.970D-01-0.217D+00 0.318D+00-0.465D-01-0.652D+00 0.553D-01
 Coeff:      0.195D+01-0.493D+01 0.445D+01
 Gap=     0.089 Goal=   None    Shift=    0.400
 RMSDP=1.17D-05 MaxDP=9.59D-04 DE=-6.70D-06 OVMax= 2.36D-03

 Cycle  16  Pass 1  IDiag  1:
 E= -61.9461654385644     Delta-E=       -0.000004758096 Rises=F Damp=F
 DIIS: error= 9.81D-05 at cycle  16 NSaved=  16.
 NSaved=16 IEnMin=16 EnMin= -61.9461654385644     IErMin=16 ErrMin= 9.81D-05
 ErrMax= 9.81D-05  0.00D+00 EMaxC= 1.00D-01 BMatC= 7.28D-07 BMatP= 1.20D-06
 IDIUse=1 WtCom= 1.00D+00 WtEn= 0.00D+00
 Coeff-Com: -0.304D-02 0.406D-02-0.288D-02 0.414D-02 0.611D-02-0.327D-01
 Coeff-Com:  0.565D-01-0.947D-01 0.113D+00 0.257D+00-0.741D+00-0.198D+00
 Coeff-Com:  0.190D+01-0.359D+01 0.228D+01 0.104D+01
 Coeff:     -0.304D-02 0.406D-02-0.288D-02 0.414D-02 0.611D-02-0.327D-01
 Coeff:      0.565D-01-0.947D-01 0.113D+00 0.257D+00-0.741D+00-0.198D+00
 Coeff:      0.190D+01-0.359D+01 0.228D+01 0.104D+01
 Gap=     0.089 Goal=   None    Shift=    0.400
 RMSDP=6.11D-06 MaxDP=6.68D-04 DE=-4.76D-06 OVMax= 1.71D-03

 Cycle  17  Pass 1  IDiag  1:
 E= -61.9461675870880     Delta-E=       -0.000002148524 Rises=F Damp=F
 DIIS: error= 7.16D-05 at cycle  17 NSaved=  17.
 NSaved=17 IEnMin=17 EnMin= -61.9461675870880     IErMin=17 ErrMin= 7.16D-05
 ErrMax= 7.16D-05  0.00D+00 EMaxC= 1.00D-01 BMatC= 4.20D-07 BMatP= 7.28D-07
 IDIUse=1 WtCom= 1.00D+00 WtEn= 0.00D+00
 Coeff-Com:  0.147D-02-0.196D-02 0.169D-02-0.446D-02 0.734D-03 0.287D-01
 Coeff-Com: -0.104D-01-0.689D-01 0.121D+00-0.209D+00 0.144D+00 0.355D+00
 Coeff-Com: -0.660D+00 0.525D+00 0.956D+00-0.585D+01 0.567D+01
 Coeff:      0.147D-02-0.196D-02 0.169D-02-0.446D-02 0.734D-03 0.287D-01
 Coeff:     -0.104D-01-0.689D-01 0.121D+00-0.209D+00 0.144D+00 0.355D+00
 Coeff:     -0.660D+00 0.525D+00 0.956D+00-0.585D+01 0.567D+01
 Gap=     0.089 Goal=   None    Shift=    0.400
 RMSDP=5.28D-06 MaxDP=5.44D-04 DE=-2.15D-06 OVMax= 1.25D-03

 Cycle  18  Pass 1  IDiag  1:
 E= -61.9461687426545     Delta-E=       -0.000001155566 Rises=F Damp=F
 DIIS: error= 5.27D-05 at cycle  18 NSaved=  18.
 NSaved=18 IEnMin=18 EnMin= -61.9461687426545     IErMin=18 ErrMin= 5.27D-05
 ErrMax= 5.27D-05  0.00D+00 EMaxC= 1.00D-01 BMatC= 2.46D-07 BMatP= 4.20D-07
 IDIUse=1 WtCom= 1.00D+00 WtEn= 0.00D+00
 Coeff-Com:  0.303D-03-0.406D-03 0.451D-03-0.778D-03-0.408D-03 0.393D-02
 Coeff-Com:  0.259D-01-0.719D-01 0.142D+00-0.258D+00 0.703D-01 0.480D+00
 Coeff-Com: -0.563D+00-0.106D+00 0.113D+01-0.297D+01 0.114D+01 0.197D+01
 Coeff:      0.303D-03-0.406D-03 0.451D-03-0.778D-03-0.408D-03 0.393D-02
 Coeff:      0.259D-01-0.719D-01 0.142D+00-0.258D+00 0.703D-01 0.480D+00
 Coeff:     -0.563D+00-0.106D+00 0.113D+01-0.297D+01 0.114D+01 0.197D+01
 Gap=     0.089 Goal=   None    Shift=    0.400
 RMSDP=3.37D-06 MaxDP=3.30D-04 DE=-1.16D-06 OVMax= 9.36D-04

 Cycle  19  Pass 1  IDiag  1:
 E= -61.9461693908454     Delta-E=       -0.000000648191 Rises=F Damp=F
 DIIS: error= 3.91D-05 at cycle  19 NSaved=  19.
 NSaved=19 IEnMin=19 EnMin= -61.9461693908454     IErMin=19 ErrMin= 3.91D-05
 ErrMax= 3.91D-05  0.00D+00 EMaxC= 1.00D-01 BMatC= 1.42D-07 BMatP= 2.46D-07
 IDIUse=1 WtCom= 1.00D+00 WtEn= 0.00D+00
 Coeff-Com: -0.360D-03 0.479D-03-0.811D-04-0.241D-02 0.339D-02 0.147D-01
 Coeff-Com: -0.364D-01 0.338D-01-0.868D-01 0.139D+00 0.716D-01-0.374D+00
 Coeff-Com:  0.325D+00 0.369D+00-0.540D+00-0.810D+00 0.382D+01-0.918D+01
 Coeff-Com:  0.725D+01
 Coeff:     -0.360D-03 0.479D-03-0.811D-04-0.241D-02 0.339D-02 0.147D-01
 Coeff:     -0.364D-01 0.338D-01-0.868D-01 0.139D+00 0.716D-01-0.374D+00
 Coeff:      0.325D+00 0.369D+00-0.540D+00-0.810D+00 0.382D+01-0.918D+01
 Coeff:      0.725D+01
 Gap=     0.089 Goal=   None    Shift=    0.400
 RMSDP=2.77D-06 MaxDP=2.82D-04 DE=-6.48D-07 OVMax= 6.74D-04

 Cycle  20  Pass 1  IDiag  1:
 E= -61.9461697481358     Delta-E=       -0.000000357290 Rises=F Damp=F
 DIIS: error= 2.89D-05 at cycle  20 NSaved=  20.
 NSaved=20 IEnMin=20 EnMin= -61.9461697481358     IErMin=20 ErrMin= 2.89D-05
 ErrMax= 2.89D-05  0.00D+00 EMaxC= 1.00D-01 BMatC= 8.05D-08 BMatP= 1.42D-07
 IDIUse=1 WtCom= 1.00D+00 WtEn= 0.00D+00
 Coeff-Com: -0.369D-03 0.492D-03-0.895D-04-0.244D-02 0.352D-02 0.147D-01
 Coeff-Com: -0.370D-01 0.345D-01-0.883D-01 0.145D+00 0.672D-01-0.380D+00
 Coeff-Com:  0.340D+00 0.361D+00-0.550D+00-0.778D+00 0.386D+01-0.945D+01
 Coeff-Com:  0.762D+01-0.152D+00
 Coeff:     -0.369D-03 0.492D-03-0.895D-04-0.244D-02 0.352D-02 0.147D-01
 Coeff:     -0.370D-01 0.345D-01-0.883D-01 0.145D+00 0.672D-01-0.380D+00
 Coeff:      0.340D+00 0.361D+00-0.550D+00-0.778D+00 0.386D+01-0.945D+01
 Coeff:      0.762D+01-0.152D+00
 Gap=     0.089 Goal=   None    Shift=    0.400
 RMSDP=1.95D-06 MaxDP=1.54D-04 DE=-3.57D-07 OVMax= 5.03D-04

 Cycle  21  Pass 1  IDiag  1:
 E= -61.9461699524583     Delta-E=       -0.000000204323 Rises=F Damp=F
 DIIS: error= 2.15D-05 at cycle  21 NSaved=  20.
 NSaved=20 IEnMin=20 EnMin= -61.9461699524583     IErMin=20 ErrMin= 2.15D-05
 ErrMax= 2.15D-05  0.00D+00 EMaxC= 1.00D-01 BMatC= 4.66D-08 BMatP= 8.05D-08
 IDIUse=1 WtCom= 1.00D+00 WtEn= 0.00D+00
 Coeff-Com:  0.187D-06 0.828D-05-0.570D-03 0.195D-03 0.627D-02-0.177D-01
 Coeff-Com:  0.158D-01-0.356D-01 0.962D-01-0.376D-01-0.153D+00 0.197D+00
 Coeff-Com:  0.133D+00-0.352D+00 0.678D-01 0.114D+01-0.303D+01 0.441D+01
 Coeff-Com: -0.785D+01 0.640D+01
 Coeff:      0.187D-06 0.828D-05-0.570D-03 0.195D-03 0.627D-02-0.177D-01
 Coeff:      0.158D-01-0.356D-01 0.962D-01-0.376D-01-0.153D+00 0.197D+00
 Coeff:      0.133D+00-0.352D+00 0.678D-01 0.114D+01-0.303D+01 0.441D+01
 Coeff:     -0.785D+01 0.640D+01
 Gap=     0.089 Goal=   None    Shift=    0.400
 DSYEVD-2 returned Info=         503 IAlg= 4 N=   251 NDim=   251 NE2=    41708037 trying  DSYEV.
 RMSDP=1.51D-06 MaxDP=9.71D-05 DE=-2.04D-07 OVMax= 3.72D-04

 Cycle  22  Pass 1  IDiag  1:
 E= -61.9461700724492     Delta-E=       -0.000000119991 Rises=F Damp=F
 DIIS: error= 1.59D-05 at cycle  22 NSaved=  20.
 NSaved=20 IEnMin=20 EnMin= -61.9461700724492     IErMin=20 ErrMin= 1.59D-05
 ErrMax= 1.59D-05  0.00D+00 EMaxC= 1.00D-01 BMatC= 2.67D-08 BMatP= 4.66D-08
 IDIUse=1 WtCom= 1.00D+00 WtEn= 0.00D+00
 Coeff-Com:  0.249D-03-0.219D-02 0.272D-02 0.717D-02-0.204D-01 0.160D-01
 Coeff-Com: -0.362D-01 0.102D+00-0.522D-01-0.148D+00 0.229D+00 0.324D-01
 Coeff-Com: -0.282D+00 0.325D+00 0.912D+00-0.383D+01 0.440D+01-0.293D+01
 Coeff-Com: -0.663D+00 0.293D+01
 Coeff:      0.249D-03-0.219D-02 0.272D-02 0.717D-02-0.204D-01 0.160D-01
 Coeff:     -0.362D-01 0.102D+00-0.522D-01-0.148D+00 0.229D+00 0.324D-01
 Coeff:     -0.282D+00 0.325D+00 0.912D+00-0.383D+01 0.440D+01-0.293D+01
 Coeff:     -0.663D+00 0.293D+01
 Gap=     0.089 Goal=   None    Shift=    0.400
 RMSDP=1.07D-06 MaxDP=7.38D-05 DE=-1.20D-07 OVMax= 2.74D-04

 Cycle  23  Pass 1  IDiag  1:
 E= -61.9461701395137     Delta-E=       -0.000000067065 Rises=F Damp=F
 DIIS: error= 1.20D-05 at cycle  23 NSaved=  20.
 NSaved=20 IEnMin=20 EnMin= -61.9461701395137     IErMin=20 ErrMin= 1.20D-05
 ErrMax= 1.20D-05  0.00D+00 EMaxC= 1.00D-01 BMatC= 1.55D-08 BMatP= 2.67D-08
 IDIUse=1 WtCom= 1.00D+00 WtEn= 0.00D+00
 Coeff-Com: -0.166D-03 0.676D-03 0.460D-03-0.640D-02 0.106D-01-0.238D-01
 Coeff-Com:  0.393D-01 0.233D-01-0.113D+00 0.895D-01 0.709D-01-0.176D+00
 Coeff-Com:  0.118D+00 0.585D+00-0.213D+01 0.201D+01 0.682D-01 0.426D+00
 Coeff-Com: -0.575D+01 0.575D+01
 Coeff:     -0.166D-03 0.676D-03 0.460D-03-0.640D-02 0.106D-01-0.238D-01
 Coeff:      0.393D-01 0.233D-01-0.113D+00 0.895D-01 0.709D-01-0.176D+00
 Coeff:      0.118D+00 0.585D+00-0.213D+01 0.201D+01 0.682D-01 0.426D+00
 Coeff:     -0.575D+01 0.575D+01
 Gap=     0.089 Goal=   None    Shift=    0.400
 RMSDP=8.57D-07 MaxDP=6.34D-05 DE=-6.71D-08 OVMax= 2.06D-04

 Cycle  24  Pass 1  IDiag  1:
 E= -61.9461701780663     Delta-E=       -0.000000038553 Rises=F Damp=F
 DIIS: error= 9.31D-06 at cycle  24 NSaved=  20.
 NSaved=20 IEnMin=20 EnMin= -61.9461701780663     IErMin=20 ErrMin= 9.31D-06
 ErrMax= 9.31D-06  0.00D+00 EMaxC= 1.00D-01 BMatC= 9.07D-09 BMatP= 1.55D-08
 IDIUse=1 WtCom= 1.00D+00 WtEn= 0.00D+00
 Coeff-Com:  0.200D-03 0.916D-04-0.528D-02 0.903D-02-0.168D-01 0.359D-01
 Coeff-Com: -0.408D-02-0.725D-01 0.901D-01 0.522D-02-0.137D+00 0.241D+00
 Coeff-Com:  0.128D+00-0.104D+01 0.140D+01-0.139D+01 0.143D+01-0.126D+01
 Coeff-Com: -0.227D+01 0.385D+01
 Coeff:      0.200D-03 0.916D-04-0.528D-02 0.903D-02-0.168D-01 0.359D-01
 Coeff:     -0.408D-02-0.725D-01 0.901D-01 0.522D-02-0.137D+00 0.241D+00
 Coeff:      0.128D+00-0.104D+01 0.140D+01-0.139D+01 0.143D+01-0.126D+01
 Coeff:     -0.227D+01 0.385D+01
 Gap=     0.089 Goal=   None    Shift=    0.400
 RMSDP=6.46D-07 MaxDP=5.00D-05 DE=-3.86D-08 OVMax= 1.58D-04

 Cycle  25  Pass 1  IDiag  1:
 E= -61.9461702007344     Delta-E=       -0.000000022668 Rises=F Damp=F
 DIIS: error= 7.24D-06 at cycle  25 NSaved=  20.
 NSaved=20 IEnMin=20 EnMin= -61.9461702007344     IErMin=20 ErrMin= 7.24D-06
 ErrMax= 7.24D-06  0.00D+00 EMaxC= 1.00D-01 BMatC= 5.35D-09 BMatP= 9.07D-09
 IDIUse=1 WtCom= 1.00D+00 WtEn= 0.00D+00
 Large coefficients: NSaved= 20 BigCof=   11.66 CofMax=   10.00 Det=-7.34D-13
 Inversion failed.  Reducing to 19 matrices.
 Large coefficients: NSaved= 19 BigCof=   11.66 CofMax=   10.00 Det=-7.34D-13
 Inversion failed.  Reducing to 18 matrices.
 Large coefficients: NSaved= 18 BigCof=   11.85 CofMax=   10.00 Det=-8.67D-13
 Inversion failed.  Reducing to 17 matrices.
 Large coefficients: NSaved= 17 BigCof=   10.72 CofMax=   10.00 Det=-1.06D-12
 Inversion failed.  Reducing to 16 matrices.
 Large coefficients: NSaved= 16 BigCof=   10.56 CofMax=   10.00 Det=-1.06D-12
 Inversion failed.  Reducing to 15 matrices.
 Large coefficients: NSaved= 15 BigCof=   10.50 CofMax=   10.00 Det=-1.07D-12
 Inversion failed.  Reducing to 14 matrices.
 Large coefficients: NSaved= 14 BigCof=   10.50 CofMax=   10.00 Det=-1.07D-12
 Inversion failed.  Reducing to 13 matrices.
 Large coefficients: NSaved= 13 BigCof=   10.45 CofMax=   10.00 Det=-1.07D-12
 Inversion failed.  Reducing to 12 matrices.
 Large coefficients: NSaved= 12 BigCof=   11.35 CofMax=   10.00 Det=-1.12D-12
 Inversion failed.  Reducing to 11 matrices.
 Large coefficients: NSaved= 11 BigCof=   11.18 CofMax=   10.00 Det=-1.14D-12
 Inversion failed.  Reducing to 10 matrices.
 Large coefficients: NSaved= 10 BigCof=   11.70 CofMax=   10.00 Det=-1.18D-12
 Inversion failed.  Reducing to  9 matrices.
 Large coefficients: NSaved=  9 BigCof=   11.69 CofMax=   10.00 Det=-1.18D-12
 Inversion failed.  Reducing to  8 matrices.
 Large coefficients: NSaved=  8 BigCof=   11.73 CofMax=   10.00 Det=-1.21D-12
 Inversion failed.  Reducing to  7 matrices.
 Large coefficients: NSaved=  7 BigCof=   11.55 CofMax=   10.00 Det=-1.23D-12
 Inversion failed.  Reducing to  6 matrices.
 Large coefficients: NSaved=  6 BigCof=   11.31 CofMax=   10.00 Det=-1.27D-12
 Inversion failed.  Reducing to  5 matrices.
 Coeff-Com:  0.196D+00-0.139D+01 0.447D+01-0.913D+01 0.686D+01
 Coeff:      0.196D+00-0.139D+01 0.447D+01-0.913D+01 0.686D+01
 Gap=     0.089 Goal=   None    Shift=    0.400
 DSYEVD-2 returned Info=       47879 IAlg= 4 N=   251 NDim=   251 NE2=    41708037 trying  DSYEV.
 RMSDP=6.31D-07 MaxDP=4.37D-05 DE=-2.27D-08 OVMax= 1.24D-04

 Cycle  26  Pass 1  IDiag  1:
 E= -61.9461702139092     Delta-E=       -0.000000013175 Rises=F Damp=F
 DIIS: error= 5.42D-06 at cycle  26 NSaved=   6.
 NSaved= 6 IEnMin= 6 EnMin= -61.9461702139092     IErMin= 6 ErrMin= 5.42D-06
 ErrMax= 5.42D-06  0.00D+00 EMaxC= 1.00D-01 BMatC= 3.28D-09 BMatP= 5.35D-09
 IDIUse=1 WtCom= 1.00D+00 WtEn= 0.00D+00
 Coeff-Com: -0.889D-01 0.249D+00 0.515D+00-0.381D+01 0.268D+01 0.145D+01
 Coeff:     -0.889D-01 0.249D+00 0.515D+00-0.381D+01 0.268D+01 0.145D+01
 Gap=     0.089 Goal=   None    Shift=    0.400
 RMSDP=4.29D-07 MaxDP=3.29D-05 DE=-1.32D-08 OVMax= 9.59D-05

 Cycle  27  Pass 1  IDiag  1:
 E= -61.9461702217954     Delta-E=       -0.000000007886 Rises=F Damp=F
 DIIS: error= 4.09D-06 at cycle  27 NSaved=   7.
 NSaved= 7 IEnMin= 7 EnMin= -61.9461702217954     IErMin= 7 ErrMin= 4.09D-06
 ErrMax= 4.09D-06  0.00D+00 EMaxC= 1.00D-01 BMatC= 1.96D-09 BMatP= 3.28D-09
 IDIUse=1 WtCom= 1.00D+00 WtEn= 0.00D+00
 Coeff-Com: -0.107D+00 0.460D+00-0.115D+01 0.546D+00-0.321D+00-0.449D+00
 Coeff-Com:  0.202D+01
 Coeff:     -0.107D+00 0.460D+00-0.115D+01 0.546D+00-0.321D+00-0.449D+00
 Coeff:      0.202D+01
 Gap=     0.089 Goal=   None    Shift=    0.400
 RMSDP=3.21D-07 MaxDP=2.60D-05 DE=-7.89D-09 OVMax= 7.37D-05

 Cycle  28  Pass 1  IDiag  1:
 E= -61.9461702266200     Delta-E=       -0.000000004825 Rises=F Damp=F
 DIIS: error= 2.98D-06 at cycle  28 NSaved=   8.
 NSaved= 8 IEnMin= 8 EnMin= -61.9461702266200     IErMin= 8 ErrMin= 2.98D-06
 ErrMax= 2.98D-06  0.00D+00 EMaxC= 1.00D-01 BMatC= 1.18D-09 BMatP= 1.96D-09
 IDIUse=1 WtCom= 1.00D+00 WtEn= 0.00D+00
 Coeff-Com:  0.518D+00-0.161D+01 0.311D+01-0.548D+01 0.469D+01 0.108D+01
 Coeff-Com: -0.730D+01 0.598D+01
 Coeff:      0.518D+00-0.161D+01 0.311D+01-0.548D+01 0.469D+01 0.108D+01
 Coeff:     -0.730D+01 0.598D+01
 Gap=     0.089 Goal=   None    Shift=    0.400
 RMSDP=3.23D-07 MaxDP=2.14D-05 DE=-4.82D-09 OVMax= 5.17D-05

 Cycle  29  Pass 1  IDiag  1:
 E= -61.9461702295524     Delta-E=       -0.000000002932 Rises=F Damp=F
 DIIS: error= 2.18D-06 at cycle  29 NSaved=   9.
 NSaved= 9 IEnMin= 9 EnMin= -61.9461702295524     IErMin= 9 ErrMin= 2.18D-06
 ErrMax= 2.18D-06  0.00D+00 EMaxC= 1.00D-01 BMatC= 6.77D-10 BMatP= 1.18D-09
 IDIUse=1 WtCom= 1.00D+00 WtEn= 0.00D+00
 Coeff-Com:  0.274D+00-0.569D+00 0.166D+01-0.404D+01 0.309D+01 0.813D+00
 Coeff-Com: -0.353D+01 0.140D+01 0.191D+01
 Coeff:      0.274D+00-0.569D+00 0.166D+01-0.404D+01 0.309D+01 0.813D+00
 Coeff:     -0.353D+01 0.140D+01 0.191D+01
 Gap=     0.089 Goal=   None    Shift=    0.400
 RMSDP=2.02D-07 MaxDP=1.61D-05 DE=-2.93D-09 OVMax= 3.89D-05

 Cycle  30  Pass 1  IDiag  1:
 E= -61.9461702311006     Delta-E=       -0.000000001548 Rises=F Damp=F
 DIIS: error= 1.66D-06 at cycle  30 NSaved=  10.
 NSaved=10 IEnMin=10 EnMin= -61.9461702311006     IErMin=10 ErrMin= 1.66D-06
 ErrMax= 1.66D-06  0.00D+00 EMaxC= 1.00D-01 BMatC= 4.00D-10 BMatP= 6.77D-10
 IDIUse=1 WtCom= 1.00D+00 WtEn= 0.00D+00
 Coeff-Com:  0.151D+00-0.407D+00 0.535D+00-0.588D+00 0.826D+00-0.350D+00
 Coeff-Com: -0.205D+01 0.332D+01-0.510D+01 0.466D+01
 Coeff:      0.151D+00-0.407D+00 0.535D+00-0.588D+00 0.826D+00-0.350D+00
 Coeff:     -0.205D+01 0.332D+01-0.510D+01 0.466D+01
 Gap=     0.089 Goal=   None    Shift=    0.400
 RMSDP=1.64D-07 MaxDP=1.26D-05 DE=-1.55D-09 OVMax= 3.00D-05

 Cycle  31  Pass 1  IDiag  1:
 E= -61.9461702320002     Delta-E=       -0.000000000900 Rises=F Damp=F
 DIIS: error= 1.30D-06 at cycle  31 NSaved=  11.
 NSaved=11 IEnMin=11 EnMin= -61.9461702320002     IErMin=11 ErrMin= 1.30D-06
 ErrMax= 1.30D-06  0.00D+00 EMaxC= 1.00D-01 BMatC= 2.37D-10 BMatP= 4.00D-10
 IDIUse=1 WtCom= 1.00D+00 WtEn= 0.00D+00
 Coeff-Com:  0.176D+00-0.415D+00 0.617D+00-0.109D+01 0.108D+01 0.978D+00
 Coeff-Com: -0.390D+01 0.308D+01-0.480D+00-0.269D+01 0.365D+01
 Coeff:      0.176D+00-0.415D+00 0.617D+00-0.109D+01 0.108D+01 0.978D+00
 Coeff:     -0.390D+01 0.308D+01-0.480D+00-0.269D+01 0.365D+01
 Gap=     0.089 Goal=   None    Shift=    0.400
 RMSDP=1.27D-07 MaxDP=1.01D-05 DE=-9.00D-10 OVMax= 2.30D-05

 Cycle  32  Pass 1  IDiag  1:
 E= -61.9461702325383     Delta-E=       -0.000000000538 Rises=F Damp=F
 DIIS: error= 9.70D-07 at cycle  32 NSaved=  12.
 NSaved=12 IEnMin=12 EnMin= -61.9461702325383     IErMin=12 ErrMin= 9.70D-07
 ErrMax= 9.70D-07  0.00D+00 EMaxC= 1.00D-01 BMatC= 1.41D-10 BMatP= 2.37D-10
 IDIUse=1 WtCom= 1.00D+00 WtEn= 0.00D+00
 Coeff-Com:  0.165D-01 0.919D-01-0.412D+00 0.682D+00-0.179D+00-0.316D+00
 Coeff-Com: -0.434D+00 0.134D+01-0.309D+01 0.428D+01-0.590D+01 0.492D+01
 Coeff:      0.165D-01 0.919D-01-0.412D+00 0.682D+00-0.179D+00-0.316D+00
 Coeff:     -0.434D+00 0.134D+01-0.309D+01 0.428D+01-0.590D+01 0.492D+01
 Gap=     0.089 Goal=   None    Shift=    0.400
 RMSDP=8.99D-08 MaxDP=7.41D-06 DE=-5.38D-10 OVMax= 1.72D-05

 Cycle  33  Pass 1  IDiag  1:
 E= -61.9461702328707     Delta-E=       -0.000000000332 Rises=F Damp=F
 DIIS: error= 7.10D-07 at cycle  33 NSaved=  13.
 NSaved=13 IEnMin=13 EnMin= -61.9461702328707     IErMin=13 ErrMin= 7.10D-07
 ErrMax= 7.10D-07  0.00D+00 EMaxC= 1.00D-01 BMatC= 8.34D-11 BMatP= 1.41D-10
 IDIUse=1 WtCom= 1.00D+00 WtEn= 0.00D+00
 Coeff-Com:  0.423D-01-0.428D-01-0.236D+00 0.658D+00-0.234D+00-0.219D+00
 Coeff-Com: -0.694D+00 0.165D+01-0.290D+01 0.283D+01-0.218D+01 0.259D-01
 Coeff-Com:  0.230D+01
 Coeff:      0.423D-01-0.428D-01-0.236D+00 0.658D+00-0.234D+00-0.219D+00
 Coeff:     -0.694D+00 0.165D+01-0.290D+01 0.283D+01-0.218D+01 0.259D-01
 Coeff:      0.230D+01
 Gap=     0.089 Goal=   None    Shift=    0.400
 RMSDP=7.70D-08 MaxDP=6.40D-06 DE=-3.32D-10 OVMax= 1.32D-05

 Cycle  34  Pass 1  IDiag  1:
 E= -61.9461702330674     Delta-E=       -0.000000000197 Rises=F Damp=F
 DIIS: error= 5.30D-07 at cycle  34 NSaved=  14.
 NSaved=14 IEnMin=14 EnMin= -61.9461702330674     IErMin=14 ErrMin= 5.30D-07
 ErrMax= 5.30D-07  0.00D+00 EMaxC= 1.00D-01 BMatC= 4.99D-11 BMatP= 8.34D-11
 IDIUse=1 WtCom= 1.00D+00 WtEn= 0.00D+00
 Large coefficients: NSaved= 14 BigCof=   10.09 CofMax=   10.00 Det=-1.23D-14
 Inversion failed.  Reducing to 13 matrices.
 Large coefficients: NSaved= 13 BigCof=   10.26 CofMax=   10.00 Det=-1.27D-14
 Inversion failed.  Reducing to 12 matrices.
 Large coefficients: NSaved= 12 BigCof=   10.22 CofMax=   10.00 Det=-1.28D-14
 Inversion failed.  Reducing to 11 matrices.
 Large coefficients: NSaved= 11 BigCof=   10.12 CofMax=   10.00 Det=-1.42D-14
 Inversion failed.  Reducing to 10 matrices.
 Coeff-Com:  0.491D-01 0.186D-01-0.207D+00 0.238D+00-0.221D+00 0.702D+00
 Coeff-Com: -0.183D+01 0.441D+01-0.997D+01 0.781D+01
 Coeff:      0.491D-01 0.186D-01-0.207D+00 0.238D+00-0.221D+00 0.702D+00
 Coeff:     -0.183D+01 0.441D+01-0.997D+01 0.781D+01
 Gap=     0.089 Goal=   None    Shift=    0.400
 RMSDP=5.32D-08 MaxDP=4.27D-06 DE=-1.97D-10 OVMax= 1.00D-05

 Cycle  35  Pass 1  IDiag  1:
 E= -61.9461702331865     Delta-E=       -0.000000000119 Rises=F Damp=F
 DIIS: error= 3.93D-07 at cycle  35 NSaved=  11.
 NSaved=11 IEnMin=11 EnMin= -61.9461702331865     IErMin=11 ErrMin= 3.93D-07
 ErrMax= 3.93D-07  0.00D+00 EMaxC= 1.00D-01 BMatC= 3.04D-11 BMatP= 4.99D-11
 IDIUse=1 WtCom= 1.00D+00 WtEn= 0.00D+00
 Coeff-Com:  0.111D+00-0.128D+00-0.132D+00 0.400D+00-0.814D+00 0.143D+01
 Coeff-Com: -0.251D+01 0.469D+01-0.798D+01 0.473D+01 0.121D+01
 Coeff:      0.111D+00-0.128D+00-0.132D+00 0.400D+00-0.814D+00 0.143D+01
 Coeff:     -0.251D+01 0.469D+01-0.798D+01 0.473D+01 0.121D+01
 Gap=     0.089 Goal=   None    Shift=    0.400
 RMSDP=4.53D-08 MaxDP=3.72D-06 DE=-1.19D-10 OVMax= 7.87D-06

 Cycle  36  Pass 1  IDiag  1:
 E= -61.9461702332570     Delta-E=       -0.000000000071 Rises=F Damp=F
 DIIS: error= 3.07D-07 at cycle  36 NSaved=  12.
 NSaved=12 IEnMin=12 EnMin= -61.9461702332570     IErMin=12 ErrMin= 3.07D-07
 ErrMax= 3.07D-07  0.00D+00 EMaxC= 1.00D-01 BMatC= 1.88D-11 BMatP= 3.04D-11
 IDIUse=1 WtCom= 1.00D+00 WtEn= 0.00D+00
 Coeff-Com:  0.616D-01-0.120D+00 0.646D-01 0.773D-01-0.441D+00 0.133D+01
 Coeff-Com: -0.245D+01 0.330D+01-0.488D+01 0.457D+01-0.421D+01 0.370D+01
 Coeff:      0.616D-01-0.120D+00 0.646D-01 0.773D-01-0.441D+00 0.133D+01
 Coeff:     -0.245D+01 0.330D+01-0.488D+01 0.457D+01-0.421D+01 0.370D+01
 Gap=     0.089 Goal=   None    Shift=    0.400
 RMSDP=3.61D-08 MaxDP=2.95D-06 DE=-7.06D-11 OVMax= 6.17D-06

 Cycle  37  Pass 1  IDiag  1:
 E= -61.9461702333000     Delta-E=       -0.000000000043 Rises=F Damp=F
 DIIS: error= 2.42D-07 at cycle  37 NSaved=  13.
 NSaved=13 IEnMin=13 EnMin= -61.9461702333000     IErMin=13 ErrMin= 2.42D-07
 ErrMax= 2.42D-07  0.00D+00 EMaxC= 1.00D-01 BMatC= 1.17D-11 BMatP= 1.88D-11
 IDIUse=1 WtCom= 1.00D+00 WtEn= 0.00D+00
 Coeff-Com:  0.303D-01-0.218D-01-0.480D-01 0.173D+00-0.449D+00 0.853D+00
 Coeff-Com: -0.139D+01 0.248D+01-0.470D+01 0.375D+01 0.459D+00-0.389D+01
 Coeff-Com:  0.377D+01
 Coeff:      0.303D-01-0.218D-01-0.480D-01 0.173D+00-0.449D+00 0.853D+00
 Coeff:     -0.139D+01 0.248D+01-0.470D+01 0.375D+01 0.459D+00-0.389D+01
 Coeff:      0.377D+01
 Gap=     0.089 Goal=   None    Shift=    0.400
 RMSDP=3.09D-08 MaxDP=2.88D-06 DE=-4.30D-11 OVMax= 4.82D-06

 Cycle  38  Pass 1  IDiag  1:
 E= -61.9461702333258     Delta-E=       -0.000000000026 Rises=F Damp=F
 DIIS: error= 1.93D-07 at cycle  38 NSaved=  14.
 NSaved=14 IEnMin=14 EnMin= -61.9461702333258     IErMin=14 ErrMin= 1.93D-07
 ErrMax= 1.93D-07  0.00D+00 EMaxC= 1.00D-01 BMatC= 7.25D-12 BMatP= 1.17D-11
 IDIUse=1 WtCom= 1.00D+00 WtEn= 0.00D+00
 Coeff-Com:  0.449D-01-0.201D-02-0.145D+00 0.198D+00-0.340D+00 0.619D+00
 Coeff-Com: -0.103D+01 0.203D+01-0.355D+01 0.168D+01 0.296D+01-0.334D+01
 Coeff-Com: -0.211D+01 0.398D+01
 Coeff:      0.449D-01-0.201D-02-0.145D+00 0.198D+00-0.340D+00 0.619D+00
 Coeff:     -0.103D+01 0.203D+01-0.355D+01 0.168D+01 0.296D+01-0.334D+01
 Coeff:     -0.211D+01 0.398D+01
 Gap=     0.089 Goal=   None    Shift=    0.400
 RMSDP=2.59D-08 MaxDP=2.57D-06 DE=-2.58D-11 OVMax= 3.70D-06

 Cycle  39  Pass 1  IDiag  1:
 E= -61.9461702333423     Delta-E=       -0.000000000016 Rises=F Damp=F
 DIIS: error= 1.51D-07 at cycle  39 NSaved=  15.
 NSaved=15 IEnMin=15 EnMin= -61.9461702333423     IErMin=15 ErrMin= 1.51D-07
 ErrMax= 1.51D-07  0.00D+00 EMaxC= 1.00D-01 BMatC= 4.48D-12 BMatP= 7.25D-12
 IDIUse=1 WtCom= 1.00D+00 WtEn= 0.00D+00
 Coeff-Com:  0.513D-01-0.928D-01 0.364D-01 0.127D+00-0.369D+00 0.662D+00
 Coeff-Com: -0.121D+01 0.165D+01-0.187D+01 0.103D+01 0.297D+00-0.492D-01
 Coeff-Com: -0.502D+00-0.252D+01 0.376D+01
 Coeff:      0.513D-01-0.928D-01 0.364D-01 0.127D+00-0.369D+00 0.662D+00
 Coeff:     -0.121D+01 0.165D+01-0.187D+01 0.103D+01 0.297D+00-0.492D-01
 Coeff:     -0.502D+00-0.252D+01 0.376D+01
 Gap=     0.089 Goal=   None    Shift=    0.400
 RMSDP=2.05D-08 MaxDP=2.19D-06 DE=-1.65D-11 OVMax= 2.87D-06

 Cycle  40  Pass 1  IDiag  1:
 E= -61.9461702333522     Delta-E=       -0.000000000010 Rises=F Damp=F
 DIIS: error= 1.21D-07 at cycle  40 NSaved=  16.
 NSaved=16 IEnMin=16 EnMin= -61.9461702333522     IErMin=16 ErrMin= 1.21D-07
 ErrMax= 1.21D-07  0.00D+00 EMaxC= 1.00D-01 BMatC= 2.78D-12 BMatP= 4.48D-12
 IDIUse=1 WtCom= 1.00D+00 WtEn= 0.00D+00
 Large coefficients: NSaved= 16 BigCof=    0.00 CofMax=   10.00 Det=-2.07D-16
 Inversion failed.  Reducing to 15 matrices.
 Coeff-Com:  0.849D-02-0.255D-01 0.449D-01-0.316D-01 0.189D+00-0.532D+00
 Coeff-Com:  0.101D+01-0.193D+01 0.118D+01 0.138D+01-0.255D+01 0.121D+01
 Coeff-Com:  0.220D+01-0.670D+01 0.553D+01
 Coeff:      0.849D-02-0.255D-01 0.449D-01-0.316D-01 0.189D+00-0.532D+00
 Coeff:      0.101D+01-0.193D+01 0.118D+01 0.138D+01-0.255D+01 0.121D+01
 Coeff:      0.220D+01-0.670D+01 0.553D+01
 Gap=     0.089 Goal=   None    Shift=    0.400
 DSYEVD-2 returned Info=         503 IAlg= 4 N=   251 NDim=   251 NE2=    41708037 trying  DSYEV.
 RMSDP=1.67D-08 MaxDP=1.89D-06 DE=-9.89D-12 OVMax= 2.28D-06

 Cycle  41  Pass 1  IDiag  1:
 E= -61.9461702333583     Delta-E=       -0.000000000006 Rises=F Damp=F
 DIIS: error= 9.83D-08 at cycle  41 NSaved=  16.
 NSaved=16 IEnMin=16 EnMin= -61.9461702333583     IErMin=16 ErrMin= 9.83D-08
 ErrMax= 9.83D-08  0.00D+00 EMaxC= 1.00D-01 BMatC= 1.74D-12 BMatP= 2.78D-12
 IDIUse=1 WtCom= 1.00D+00 WtEn= 0.00D+00
 Large coefficients: NSaved= 16 BigCof=    0.00 CofMax=   10.00 Det=-1.52D-16
 Inversion failed.  Reducing to 15 matrices.
 Coeff-Com:  0.132D-01-0.256D-01-0.176D-01 0.248D+00-0.489D+00 0.681D+00
 Coeff-Com: -0.106D+01 0.469D+00 0.752D+00-0.880D+00 0.463D+00 0.894D-02
 Coeff-Com: -0.652D+00-0.244D+01 0.393D+01
 Coeff:      0.132D-01-0.256D-01-0.176D-01 0.248D+00-0.489D+00 0.681D+00
 Coeff:     -0.106D+01 0.469D+00 0.752D+00-0.880D+00 0.463D+00 0.894D-02
 Coeff:     -0.652D+00-0.244D+01 0.393D+01
 Gap=     0.089 Goal=   None    Shift=    0.400
 RMSDP=1.33D-08 MaxDP=1.51D-06 DE=-6.07D-12 OVMax= 1.77D-06

 Cycle  42  Pass 1  IDiag  1:
 E= -61.9461702333622     Delta-E=       -0.000000000004 Rises=F Damp=F
 DIIS: error= 7.72D-08 at cycle  42 NSaved=  16.
 NSaved=16 IEnMin=16 EnMin= -61.9461702333622     IErMin=16 ErrMin= 7.72D-08
 ErrMax= 7.72D-08  0.00D+00 EMaxC= 1.00D-01 BMatC= 1.08D-12 BMatP= 1.74D-12
 IDIUse=1 WtCom= 1.00D+00 WtEn= 0.00D+00
 Large coefficients: NSaved= 16 BigCof=    0.00 CofMax=   10.00 Det=-1.20D-16
 Inversion failed.  Reducing to 15 matrices.
 Coeff-Com:  0.405D-01-0.464D-01 0.191D-01-0.209D+00 0.530D+00-0.678D+00
 Coeff-Com:  0.200D+00 0.760D+00-0.107D+01 0.383D+00-0.104D+01 0.238D+01
 Coeff-Com: -0.473D+00-0.474D+01 0.494D+01
 Coeff:      0.405D-01-0.464D-01 0.191D-01-0.209D+00 0.530D+00-0.678D+00
 Coeff:      0.200D+00 0.760D+00-0.107D+01 0.383D+00-0.104D+01 0.238D+01
 Coeff:     -0.473D+00-0.474D+01 0.494D+01
 Gap=     0.089 Goal=   None    Shift=    0.400
 RMSDP=1.12D-08 MaxDP=1.39D-06 DE=-3.88D-12 OVMax= 1.39D-06

 Cycle  43  Pass 1  IDiag  1:
 E= -61.9461702333646     Delta-E=       -0.000000000002 Rises=F Damp=F
 DIIS: error= 5.92D-08 at cycle  43 NSaved=  16.
 NSaved=16 IEnMin=16 EnMin= -61.9461702333646     IErMin=16 ErrMin= 5.92D-08
 ErrMax= 5.92D-08  0.00D+00 EMaxC= 1.00D-01 BMatC= 6.84D-13 BMatP= 1.08D-12
 IDIUse=1 WtCom= 1.00D+00 WtEn= 0.00D+00
 Large coefficients: NSaved= 16 BigCof=    0.00 CofMax=   10.00 Det=-8.44D-17
 Inversion failed.  Reducing to 15 matrices.
 Coeff-Com:  0.312D-01-0.213D-01 0.270D-02 0.132D-01-0.317D+00 0.177D+00
 Coeff-Com:  0.114D+01-0.207D+01 0.680D+00 0.231D+01-0.479D+01 0.391D+01
 Coeff-Com: -0.652D+00-0.367D+01 0.425D+01
 Coeff:      0.312D-01-0.213D-01 0.270D-02 0.132D-01-0.317D+00 0.177D+00
 Coeff:      0.114D+01-0.207D+01 0.680D+00 0.231D+01-0.479D+01 0.391D+01
 Coeff:     -0.652D+00-0.367D+01 0.425D+01
 Gap=     0.089 Goal=   None    Shift=    0.400
 DSYEVD-2 returned Info=       31940 IAlg= 4 N=   251 NDim=   251 NE2=    41708037 trying  DSYEV.
 RMSDP=8.93D-09 MaxDP=1.06D-06 DE=-2.43D-12 OVMax= 1.08D-06

 Cycle  44  Pass 1  IDiag  1:
 E= -61.9461702333660     Delta-E=       -0.000000000001 Rises=F Damp=F
 DIIS: error= 4.60D-08 at cycle  44 NSaved=  16.
 NSaved=16 IEnMin=16 EnMin= -61.9461702333660     IErMin=16 ErrMin= 4.60D-08
 ErrMax= 4.60D-08  0.00D+00 EMaxC= 1.00D-01 BMatC= 4.25D-13 BMatP= 6.84D-13
 IDIUse=1 WtCom= 1.00D+00 WtEn= 0.00D+00
 Large coefficients: NSaved= 16 BigCof=    0.00 CofMax=   10.00 Det=-9.80D-17
 Inversion failed.  Reducing to 15 matrices.
 Coeff-Com:  0.104D+00-0.240D+00 0.279D+00-0.306D+00-0.385D-01 0.701D+00
 Coeff-Com: -0.694D+00-0.655D-01 0.109D+01-0.252D+01 0.188D+01 0.360D+00
 Coeff-Com: -0.985D+00-0.199D+01 0.342D+01
 Coeff:      0.104D+00-0.240D+00 0.279D+00-0.306D+00-0.385D-01 0.701D+00
 Coeff:     -0.694D+00-0.655D-01 0.109D+01-0.252D+01 0.188D+01 0.360D+00
 Coeff:     -0.985D+00-0.199D+01 0.342D+01
 Gap=     0.089 Goal=   None    Shift=    0.400
 RMSDP=6.62D-09 MaxDP=7.97D-07 DE=-1.41D-12 OVMax= 8.35D-07

 SCF Done:  E(ROHF) =  -61.9461702334     A.U. after   44 cycles
            NFock= 44  Conv=0.66D-08     -V/T= 3.0434
 <Sx>= 0.0000 <Sy>= 0.0000 <Sz>= 0.5000 <S**2>= 0.7500 S= 0.5000
 <L.S>=  0.00000000000    
 KE= 3.031583343336D+01 PE=-1.751111502474D+02 EE= 6.230461956853D+01
 Annihilation of the first spin contaminant:
 S**2 before annihilation     0.7500,   after     0.7500
 Leave Link  502 at Thu Apr 19 07:25:46 2018, MaxMem= 10737418240 cpu:             621.3 elap:              38.8
 (Enter /home1/apps/gaussian/16rA.03/g16/l801.exe)
 Windowed orbitals will be sorted by symmetry type.
 An orbital has undefined symmetry, so N**3 symmetry is turned off.
 GenMOA:  NOpAll=  4 NOp2=4 NOpUse=  4 JSym2X=1
 FoFJK:  IHMeth= 1 ICntrl=       0 DoSepK=F KAlg= 0 I1Cent=           0 FoldK=F
 IRaf=         0 NMat=       1 IRICut=       1 DoRegI=T DoRafI=F ISym2E= 1 IDoP0=0 IntGTp=1.
 FoFCou: FMM=F IPFlag=           8 FMFlag=      100000 FMFlg1=           0
         NFxFlg=           0 DoJE=F BraDBF=F KetDBF=F FulRan=T
         wScrn=  0.000000 ICntrl=         0 IOpCl=  1 I1Cent=           0 NGrid=           0
         NMat0=    1 NMatS0=      1 NMatT0=    0 NMatD0=    1 NMtDS0=    0 NMtDT0=    0
 Petite list used in FoFCou.
 <Sx>= 0.0000 <Sy>= 0.0000 <Sz>= 0.5000 <S**2>= 0.7500 S= 0.5000
 Range of M.O.s used for correlation:     1   251
 NBasis=   254 NAE=     9 NBE=     8 NFC=     0 NFV=     0
 NROrb=    251 NOA=     9 NOB=     8 NVA=   242 NVB=   243

 **** Warning!!: The largest alpha MO coefficient is  0.35386486D+03


 **** Warning!!: The largest beta MO coefficient is  0.35389737D+03

 Singles contribution to E2=   -0.1953237297D-03
 Leave Link  801 at Thu Apr 19 07:25:52 2018, MaxMem= 10737418240 cpu:             110.4 elap:               5.6
 (Enter /home1/apps/gaussian/16rA.03/g16/l804.exe)
 Open-shell transformation, MDV= 10737418240 ITran=4 ISComp=1.
 Unit  1 TFree=       1917894 TCopy=       1476778.
 Semi-Direct transformation.
 ModeAB=           4 MOrb=             9 LenV=   10735457229
 LASXX=     69385212 LTotXX=    69385212 LenRXX=   139689810
 LTotAB=    70304598 MaxLAS=   104623326 LenRXY=           0
 NonZer=   209075022 LenScr=   314843136 LnRSAI=   104623326
 LnScr1=   157680640 LExtra=     7695470 Total=    724532382
 MaxDsk= 67108864000 SrtSym=           T ITran=            4
 DoSDTr:  NPSUse= 20
 JobTyp=1 Pass  1:  I=   1 to   9.
 (rs|ai) integrals will be sorted in core.
 Complete sort for first half transformation.
 First half transformation complete.
 Complete sort for second half transformation.
 Second half transformation complete.
 ModeAB=           4 MOrb=             8 LenV=   10735457229
 LASXX=     61816690 LTotXX=    61816690 LenRXX=   120034630
 LTotAB=    58217940 MaxLAS=    92998512 LenRXY=           0
 NonZer=   181851320 LenScr=   273847296 LnRSAI=    92998512
 LnScr1=   140267520 LExtra=   147385280 Total=    774533238
 MaxDsk= 67108864000 SrtSym=           T ITran=            4
 DoSDTr:  NPSUse= 20
 JobTyp=2 Pass  1:  I=   1 to   8.
 (rs|ai) integrals will be sorted in core.
 Complete sort for first half transformation.
 First half transformation complete.
 Complete sort for second half transformation.
 Second half transformation complete.
 SymMOI:  orbitals are not symmetric.
 Spin components of T(2) and E(2):
     alpha-alpha T2 =       0.3101579489D-01 E2=     -0.9681669702D-01
     alpha-beta  T2 =       0.1310549829D+00 E2=     -0.4963574069D+00
     beta-beta   T2 =       0.2680756513D-01 E2=     -0.8811296529D-01
 ANorm=    0.1090441512D+01
 E2 =    -0.6814823929D+00 EUMP2 =    -0.62627652626310D+02
 (S**2,0)=  0.75000D+00           (S**2,1)=  0.75000D+00
 E(PUHF)=      -0.61946170233D+02        E(PMP2)=      -0.62627652626D+02
 Recovering and transforming amplitudes from chk file.
 B after Tr=     0.000000    0.000000    0.000000
         Rot=    1.000000    0.000000    0.000000    0.000000 Ang=   0.00 deg.
 Alpha occ  Sing. vals= 1.171190D+00 1.064011D+00 1.064011D+00 1.033037D+00 9.792722D-01 9.521713D-01 9.135328D-01 9.135328D-01 8.736958D-01
 Alpha occ  NOrbO=     9 NOrbN=     9 NSVal=     8 ThrEig=  0.900000.
 TrMax= 9.872016D-01 PrMax= 1.000000D+00 Trace(Pr)= 8.000000D+00
 B after Tr=     0.000000    0.000000    0.000000
         Rot=    1.000000    0.000000    0.000000    0.000000 Ang=   0.00 deg.
 Alpha virt Sing. vals= 1.139066D+02 5.588523D+01 5.466263D+01 5.466263D+01 4.765169D+01 2.311226D+01 1.947604D+01 1.947604D+01 1.714236D+01 1.714236D+01
 Alpha virt Sing. vals= 1.622600D+01 1.622600D+01 1.454021D+01 1.152766D+01 7.296161D+00 6.857283D+00 6.857283D+00 5.642509D+00 5.642509D+00 4.882828D+00
 Alpha virt Sing. vals= 4.882828D+00 4.383958D+00 4.132960D+00 4.132960D+00 3.995078D+00 3.995078D+00 3.918784D+00 3.378814D+00 3.227131D+00 3.227131D+00
 Alpha virt Sing. vals= 2.684200D+00 2.684200D+00 2.543683D+00 1.852338D+00 1.852338D+00 1.802680D+00 1.674254D+00 1.645109D+00 1.645109D+00 1.534495D+00
 Alpha virt Sing. vals= 1.534495D+00 1.518532D+00 1.465692D+00 1.465692D+00 1.338430D+00 1.338430D+00 1.291639D+00 1.291639D+00 1.291388D+00 1.280696D+00
 Alpha virt Sing. vals= 1.280696D+00 1.266371D+00 1.266371D+00 1.231298D+00 1.176564D+00 1.176564D+00 1.152271D+00 1.105288D+00 1.105288D+00 1.092194D+00
 Alpha virt Sing. vals= 1.092194D+00 1.077803D+00 1.077803D+00 1.040766D+00 1.040766D+00 1.040565D+00 1.040565D+00 1.026535D+00 1.016618D+00 1.011247D+00
 Alpha virt Sing. vals= 1.011247D+00 1.009563D+00 1.007606D+00 1.007606D+00 1.003143D+00 1.003143D+00 1.003052D+00 1.002271D+00 1.002271D+00 1.002221D+00
 Alpha virt Sing. vals= 1.001053D+00 1.001053D+00 1.000748D+00 1.000748D+00 1.000296D+00 1.000112D+00 1.000038D+00 1.000038D+00 1.000008D+00 1.000006D+00
 Alpha virt Sing. vals= 1.000006D+00 1.000003D+00 1.000003D+00 1.000000D+00 1.000000D+00 1.000000D+00 1.000000D+00 1.000000D+00 1.000000D+00 9.999999D-01
 Alpha virt Sing. vals= 9.999998D-01 9.999997D-01 9.999995D-01 9.999995D-01 9.999984D-01 9.999980D-01 9.999980D-01 9.999955D-01 9.999928D-01 9.999906D-01
 Alpha virt Sing. vals= 9.999865D-01 9.999865D-01 9.999832D-01 9.999770D-01 9.999740D-01 9.999730D-01 9.999730D-01 9.999723D-01 9.999665D-01 9.999665D-01
 Alpha virt Sing. vals= 9.999596D-01 9.999366D-01 9.999366D-01 9.999286D-01 9.998881D-01 9.998881D-01 9.998777D-01 9.998391D-01 9.998391D-01 9.998291D-01
 Alpha virt Sing. vals= 9.998291D-01 9.997718D-01 9.997718D-01 9.997552D-01 9.997099D-01 9.997099D-01 9.996890D-01 9.996890D-01 9.996381D-01 9.995637D-01
 Alpha virt Sing. vals= 9.995637D-01 9.995332D-01 9.995058D-01 9.995058D-01 9.993644D-01 9.992355D-01 9.991199D-01 9.990609D-01 9.990609D-01 9.987905D-01
 Alpha virt Sing. vals= 9.987905D-01 9.986204D-01 9.986204D-01 9.985601D-01 9.983893D-01 9.983365D-01 9.981311D-01 9.981311D-01 9.974446D-01 9.970008D-01
 Alpha virt Sing. vals= 9.970008D-01 9.965176D-01 9.962244D-01 9.962244D-01 9.960641D-01 9.960641D-01 9.960619D-01 9.956032D-01 9.956032D-01 9.955697D-01
 Alpha virt Sing. vals= 9.952426D-01 9.952426D-01 9.949987D-01 9.949987D-01 9.949140D-01 9.937305D-01 9.936296D-01 9.936296D-01 9.934557D-01 9.934557D-01
 Alpha virt Sing. vals= 9.933916D-01 9.933916D-01 9.930902D-01 9.930089D-01 9.930089D-01 9.918752D-01 9.918752D-01 9.904721D-01 9.904721D-01 9.899129D-01
 Alpha virt Sing. vals= 9.888545D-01 9.888545D-01 9.880070D-01 9.850340D-01 9.837062D-01 9.827353D-01 9.827353D-01 9.785345D-01 9.785345D-01 9.748460D-01
 Alpha virt Sing. vals= 9.703456D-01 9.703456D-01 9.702118D-01 9.663969D-01 9.663969D-01 9.650527D-01 9.601359D-01 9.601359D-01 9.592875D-01 9.592875D-01
 Alpha virt Sing. vals= 9.557420D-01 9.481922D-01 9.481922D-01 9.413052D-01 9.388540D-01 9.388540D-01 9.281235D-01 9.281235D-01 9.166644D-01 9.166644D-01
 Alpha virt Sing. vals= 9.151176D-01 9.129671D-01 9.129671D-01 9.004107D-01 9.001261D-01 9.001261D-01 8.849866D-01 8.849866D-01 8.727394D-01 8.727394D-01
 Alpha virt Sing. vals= 8.635965D-01 8.591656D-01 8.591656D-01 8.420193D-01 8.155117D-01 8.155117D-01 8.014562D-01 7.886550D-01 7.042693D-01 6.996008D-01
 Alpha virt Sing. vals= 6.996008D-01 6.625596D-01
 Alpha virt NOrbO=   530 NOrbN=   242 NSVal=   226 ThrEig=  0.900000.
 TrMax= 9.547282D-01 PrMax= 1.000000D+00 Trace(Pr)= 2.260000D+02
 B after Tr=     0.000000    0.000000    0.000000
         Rot=    1.000000    0.000000    0.000000    0.000000 Ang=   0.00 deg.
 Beta  occ  Sing. vals= 1.165611D+00 1.064011D+00 1.064011D+00 1.022978D+00 9.575680D-01 9.135328D-01 9.135328D-01 8.708432D-01
 Beta  occ  NOrbO=     8 NOrbN=     8 NSVal=     7 ThrEig=  0.900000.
 TrMax= 9.785015D-01 PrMax= 1.000000D+00 Trace(Pr)= 7.000000D+00
 B after Tr=     0.000000    0.000000    0.000000
         Rot=    1.000000    0.000000    0.000000    0.000000 Ang=   0.00 deg.
 Beta  virt Sing. vals= 1.270781D+02 6.141038D+01 5.466263D+01 5.466263D+01 4.847368D+01 2.313032D+01 1.947604D+01 1.947604D+01 1.714236D+01 1.714236D+01
 Beta  virt Sing. vals= 1.622600D+01 1.622600D+01 1.559095D+01 1.154037D+01 7.374760D+00 6.857283D+00 6.857283D+00 5.642509D+00 5.642509D+00 4.882828D+00
 Beta  virt Sing. vals= 4.882828D+00 4.434845D+00 4.132960D+00 4.132960D+00 3.995078D+00 3.995078D+00 3.953966D+00 3.381480D+00 3.227131D+00 3.227131D+00
 Beta  virt Sing. vals= 2.684200D+00 2.684200D+00 2.549019D+00 1.852338D+00 1.852338D+00 1.819846D+00 1.690424D+00 1.645109D+00 1.645109D+00 1.534495D+00
 Beta  virt Sing. vals= 1.534495D+00 1.518637D+00 1.465692D+00 1.465692D+00 1.338430D+00 1.338430D+00 1.291639D+00 1.291639D+00 1.291442D+00 1.280696D+00
 Beta  virt Sing. vals= 1.280696D+00 1.266371D+00 1.266371D+00 1.236913D+00 1.176564D+00 1.176564D+00 1.152957D+00 1.105288D+00 1.105288D+00 1.092194D+00
 Beta  virt Sing. vals= 1.092194D+00 1.077803D+00 1.077803D+00 1.040766D+00 1.040766D+00 1.040565D+00 1.040565D+00 1.026822D+00 1.016859D+00 1.011247D+00
 Beta  virt Sing. vals= 1.011247D+00 1.010692D+00 1.007606D+00 1.007606D+00 1.003436D+00 1.003143D+00 1.003143D+00 1.002366D+00 1.002271D+00 1.002271D+00
 Beta  virt Sing. vals= 1.001053D+00 1.001053D+00 1.000748D+00 1.000748D+00 1.000322D+00 1.000134D+00 1.000038D+00 1.000038D+00 1.000008D+00 1.000006D+00
 Beta  virt Sing. vals= 1.000006D+00 1.000003D+00 1.000003D+00 1.000001D+00 1.000000D+00 1.000000D+00 1.000000D+00 1.000000D+00 1.000000D+00 9.999999D-01
 Beta  virt Sing. vals= 9.999998D-01 9.999998D-01 9.999995D-01 9.999995D-01 9.999988D-01 9.999980D-01 9.999980D-01 9.999955D-01 9.999932D-01 9.999906D-01
 Beta  virt Sing. vals= 9.999865D-01 9.999865D-01 9.999864D-01 9.999798D-01 9.999768D-01 9.999734D-01 9.999730D-01 9.999730D-01 9.999723D-01 9.999665D-01
 Beta  virt Sing. vals= 9.999665D-01 9.999502D-01 9.999366D-01 9.999366D-01 9.999223D-01 9.998929D-01 9.998881D-01 9.998881D-01 9.998473D-01 9.998391D-01
 Beta  virt Sing. vals= 9.998391D-01 9.998291D-01 9.998291D-01 9.997718D-01 9.997718D-01 9.997211D-01 9.997099D-01 9.997099D-01 9.996890D-01 9.996890D-01
 Beta  virt Sing. vals= 9.996046D-01 9.995637D-01 9.995637D-01 9.995058D-01 9.995058D-01 9.994568D-01 9.992922D-01 9.992320D-01 9.990609D-01 9.990609D-01
 Beta  virt Sing. vals= 9.987905D-01 9.987905D-01 9.986526D-01 9.986204D-01 9.986204D-01 9.985599D-01 9.983778D-01 9.981311D-01 9.981311D-01 9.981101D-01
 Beta  virt Sing. vals= 9.970008D-01 9.970008D-01 9.966042D-01 9.962244D-01 9.962244D-01 9.960641D-01 9.960641D-01 9.960624D-01 9.956032D-01 9.956032D-01
 Beta  virt Sing. vals= 9.955698D-01 9.952426D-01 9.952426D-01 9.949987D-01 9.949987D-01 9.948829D-01 9.937042D-01 9.936296D-01 9.936296D-01 9.934685D-01
 Beta  virt Sing. vals= 9.934557D-01 9.934557D-01 9.933916D-01 9.933916D-01 9.930089D-01 9.930089D-01 9.922875D-01 9.918752D-01 9.918752D-01 9.904721D-01
 Beta  virt Sing. vals= 9.904721D-01 9.888545D-01 9.888545D-01 9.879864D-01 9.850344D-01 9.833061D-01 9.827353D-01 9.827353D-01 9.785345D-01 9.785345D-01
 Beta  virt Sing. vals= 9.747365D-01 9.703456D-01 9.703456D-01 9.697700D-01 9.663969D-01 9.663969D-01 9.643948D-01 9.601359D-01 9.601359D-01 9.592875D-01
 Beta  virt Sing. vals= 9.592875D-01 9.517477D-01 9.481922D-01 9.481922D-01 9.413267D-01 9.388540D-01 9.388540D-01 9.281235D-01 9.281235D-01 9.166644D-01
 Beta  virt Sing. vals= 9.166644D-01 9.156250D-01 9.129671D-01 9.129671D-01 9.002810D-01 9.001261D-01 9.001261D-01 8.849866D-01 8.849866D-01 8.727394D-01
 Beta  virt Sing. vals= 8.727394D-01 8.636799D-01 8.591656D-01 8.591656D-01 8.421044D-01 8.155117D-01 8.155117D-01 8.005324D-01 7.857072D-01 7.031971D-01
 Beta  virt Sing. vals= 6.996008D-01 6.996008D-01 6.424961D-01
 Beta  virt NOrbO=   531 NOrbN=   243 NSVal=   227 ThrEig=  0.900000.
 TrMax= 9.547274D-01 PrMax= 1.000000D+00 Trace(Pr)= 2.270000D+02
 Leave Link  804 at Thu Apr 19 07:29:05 2018, MaxMem= 10737418240 cpu:            3847.2 elap:             193.0
 (Enter /home1/apps/gaussian/16rA.03/g16/l913.exe)
 CIDS:  MDV= 10737418240.
 IFCWin=0 IBDFC=1 NFBD=     0     0 NFCmp=     0     0 NFFFC=     0     0
 Amplitudes recovered.
 Using DD4UQ or CC4UQ for all iterations.
 Keep R2 and R3 ints in memory in symmetry-blocked form, NReq=658671200.
 FoFCou: FMM=F IPFlag=           8 FMFlag=           0 FMFlg1=           0
         NFxFlg=           0 DoJE=F BraDBF=F KetDBF=F FulRan=T
         wScrn=  0.000000 ICntrl=       600 IOpCl=  0 I1Cent=           0 NGrid=           0
         NMat0=    1 NMatS0=  32385 NMatT0=    0 NMatD0=    1 NMtDS0=    0 NMtDT0=    0
 Petite list used in FoFCou.
 CIDS: In Core Option IDoMem=           1.
 CCSD(T)
 =======
 Iterations= 150 Convergence= 0.100D-06
 Produce multiple copies of IABC intergrals
 Iteration Nr.   1
 **********************
 DD1Dir will call FoFMem   1 times, MxPair=       208
 NAB=    72 NAA=    36 NBB=    28.
 Maximum subspace dimension=  5
 A-vector RMS=  3.3828040D-03 Max=  3.7874195D-02 conv= 1.00D-05.
 RLE energy=       -0.6785997342
 DE(Corr)= -0.67791483     E(Corr)=     -62.624085064    
 NORM(A)=   0.10889141D+01
 Iteration Nr.   2
 **********************
 DD1Dir will call FoFMem   1 times, MxPair=       208
 NAB=    72 NAA=    36 NBB=    28.
 A-vector RMS=  4.1225690D-03 Max=  4.1348879D-02 conv= 1.00D-05.
 RLE energy=       -0.6470442571
 DE(Corr)= -0.64580400     E(CORR)=     -62.591974231     Delta= 3.21D-02
 NORM(A)=   0.10885804D+01
 Iteration Nr.   3
 **********************
 DD1Dir will call FoFMem   1 times, MxPair=       208
 NAB=    72 NAA=    36 NBB=    28.
 A-vector RMS=  2.2126754D-03 Max=  2.0963721D-02 conv= 1.00D-05.
 RLE energy=       -0.6700693344
 DE(Corr)= -0.67923561     E(CORR)=     -62.625405840     Delta=-3.34D-02
 NORM(A)=   0.10928725D+01
 Iteration Nr.   4
 **********************
 DD1Dir will call FoFMem   1 times, MxPair=       208
 NAB=    72 NAA=    36 NBB=    28.
 A-vector RMS=  1.5521094D-03 Max=  1.4677517D-02 conv= 1.00D-05.
 RLE energy=       -0.6704330549
 DE(Corr)= -0.66520989     E(CORR)=     -62.611380126     Delta= 1.40D-02
 NORM(A)=   0.10991943D+01
 Iteration Nr.   5
 **********************
 DD1Dir will call FoFMem   1 times, MxPair=       208
 NAB=    72 NAA=    36 NBB=    28.
 A-vector RMS=  3.3100901D-04 Max=  6.9135147D-03 conv= 1.00D-05.
 RLE energy=       -0.6707798827
 DE(Corr)= -0.67044136     E(CORR)=     -62.616611591     Delta=-5.23D-03
 NORM(A)=   0.11027193D+01
 Iteration Nr.   6
 **********************
 DD1Dir will call FoFMem   1 times, MxPair=       208
 NAB=    72 NAA=    36 NBB=    28.
 A-vector RMS=  2.1399251D-04 Max=  3.7880343D-03 conv= 1.00D-05.
 RLE energy=       -0.6708368115
 DE(Corr)= -0.67082864     E(CORR)=     -62.616998871     Delta=-3.87D-04
 NORM(A)=   0.11049987D+01
 Iteration Nr.   7
 **********************
 DD1Dir will call FoFMem   1 times, MxPair=       208
 NAB=    72 NAA=    36 NBB=    28.
 A-vector RMS=  1.1679879D-04 Max=  1.7876077D-03 conv= 1.00D-05.
 RLE energy=       -0.6711407344
 DE(Corr)= -0.67099487     E(CORR)=     -62.617165099     Delta=-1.66D-04
 NORM(A)=   0.11059671D+01
 Iteration Nr.   8
 **********************
 DD1Dir will call FoFMem   1 times, MxPair=       208
 NAB=    72 NAA=    36 NBB=    28.
 A-vector RMS=  6.6698667D-05 Max=  8.4747643D-04 conv= 1.00D-05.
 RLE energy=       -0.6708864182
 DE(Corr)= -0.67094534     E(CORR)=     -62.617115576     Delta= 4.95D-05
 NORM(A)=   0.11062397D+01
 Iteration Nr.   9
 **********************
 DD1Dir will call FoFMem   1 times, MxPair=       208
 NAB=    72 NAA=    36 NBB=    28.
 A-vector RMS=  4.0267851D-05 Max=  6.0975553D-04 conv= 1.00D-05.
 RLE energy=       -0.6710784682
 DE(Corr)= -0.67108783     E(CORR)=     -62.617258061     Delta=-1.42D-04
 NORM(A)=   0.11063298D+01
 Iteration Nr.  10
 **********************
 DD1Dir will call FoFMem   1 times, MxPair=       208
 NAB=    72 NAA=    36 NBB=    28.
 A-vector RMS=  2.0275867D-05 Max=  1.9852232D-04 conv= 1.00D-05.
 RLE energy=       -0.6709800097
 DE(Corr)= -0.67094369     E(CORR)=     -62.617113919     Delta= 1.44D-04
 NORM(A)=   0.11063925D+01
 Iteration Nr.  11
 **********************
 DD1Dir will call FoFMem   1 times, MxPair=       208
 NAB=    72 NAA=    36 NBB=    28.
 A-vector RMS=  1.6132711D-05 Max=  1.3236218D-04 conv= 1.00D-05.
 RLE energy=       -0.6710333973
 DE(Corr)= -0.67106379     E(CORR)=     -62.617234019     Delta=-1.20D-04
 NORM(A)=   0.11063738D+01
 Iteration Nr.  12
 **********************
 DD1Dir will call FoFMem   1 times, MxPair=       208
 NAB=    72 NAA=    36 NBB=    28.
 A-vector RMS=  7.0045004D-06 Max=  1.0768597D-04 conv= 1.00D-05.
 RLE energy=       -0.6710215069
 DE(Corr)= -0.67100778     E(CORR)=     -62.617178008     Delta= 5.60D-05
 NORM(A)=   0.11063910D+01
 Iteration Nr.  13
 **********************
 DD1Dir will call FoFMem   1 times, MxPair=       208
 NAB=    72 NAA=    36 NBB=    28.
 A-vector RMS=  3.9770811D-06 Max=  3.7226015D-05 conv= 1.00D-05.
 RLE energy=       -0.6710293478
 DE(Corr)= -0.67103000     E(CORR)=     -62.617200233     Delta=-2.22D-05
 NORM(A)=   0.11063919D+01
 Iteration Nr.  14
 **********************
 DD1Dir will call FoFMem   1 times, MxPair=       208
 NAB=    72 NAA=    36 NBB=    28.
 A-vector RMS=  1.4917308D-06 Max=  1.8404446D-05 conv= 1.00D-05.
 RLE energy=       -0.6710268975
 DE(Corr)= -0.67102643     E(CORR)=     -62.617196664     Delta= 3.57D-06
 NORM(A)=   0.11063920D+01
 Iteration Nr.  15
 **********************
 DD1Dir will call FoFMem   1 times, MxPair=       208
 NAB=    72 NAA=    36 NBB=    28.
 A-vector RMS=  1.7690019D-06 Max=  3.5095800D-05 conv= 1.00D-05.
 RLE energy=       -0.6710298764
 DE(Corr)= -0.67102854     E(CORR)=     -62.617198769     Delta=-2.11D-06
 NORM(A)=   0.11063915D+01
 Iteration Nr.  16
 **********************
 DD1Dir will call FoFMem   1 times, MxPair=       208
 NAB=    72 NAA=    36 NBB=    28.
 A-vector RMS=  8.1623030D-07 Max=  8.0324217D-06 conv= 1.00D-05.
 RLE energy=       -0.6710261029
 DE(Corr)= -0.67102632     E(CORR)=     -62.617196550     Delta= 2.22D-06
 NORM(A)=   0.11063915D+01
 Iteration Nr.  17
 **********************
 DD1Dir will call FoFMem   1 times, MxPair=       208
 NAB=    72 NAA=    36 NBB=    28.
 A-vector RMS=  6.8344094D-07 Max=  7.6479541D-06 conv= 1.00D-05.
 RLE energy=       -0.6710293160
 DE(Corr)= -0.67103004     E(CORR)=     -62.617200276     Delta=-3.73D-06
 NORM(A)=   0.11063902D+01
 Iteration Nr.  18
 **********************
 DD1Dir will call FoFMem   1 times, MxPair=       208
 NAB=    72 NAA=    36 NBB=    28.
 A-vector RMS=  4.7011268D-07 Max=  4.3781217D-06 conv= 1.00D-05.
 RLE energy=       -0.6710276200
 DE(Corr)= -0.67102674     E(CORR)=     -62.617196972     Delta= 3.30D-06
 NORM(A)=   0.11063897D+01
 Iteration Nr.  19
 **********************
 DD1Dir will call FoFMem   1 times, MxPair=       208
 NAB=    72 NAA=    36 NBB=    28.
 A-vector RMS=  2.1863340D-07 Max=  2.8714667D-06 conv= 1.00D-05.
 RLE energy=       -0.6710279871
 DE(Corr)= -0.67102827     E(CORR)=     -62.617198499     Delta=-1.53D-06
 NORM(A)=   0.11063889D+01
 Iteration Nr.  20
 **********************
 DD1Dir will call FoFMem   1 times, MxPair=       208
 NAB=    72 NAA=    36 NBB=    28.
 A-vector RMS=  1.6043329D-07 Max=  1.8048268D-06 conv= 1.00D-05.
 RLE energy=       -0.6710278442
 DE(Corr)= -0.67102776     E(CORR)=     -62.617197997     Delta= 5.02D-07
 NORM(A)=   0.11063884D+01
 Iteration Nr.  21
 **********************
 DD1Dir will call FoFMem   1 times, MxPair=       208
 NAB=    72 NAA=    36 NBB=    28.
 A-vector RMS=  8.1577590D-08 Max=  1.0826971D-06 conv= 1.00D-05.
 RLE energy=       -0.6710278763
 DE(Corr)= -0.67102782     E(CORR)=     -62.617198055     Delta=-5.83D-08
 NORM(A)=   0.11063881D+01
 CI/CC converged in   21 iterations to DelEn=-5.83D-08 Conv= 1.00D-07 ErrA1= 8.16D-08 Conv= 1.00D-05
[...]
               1          2
     1  Sc   9.653978   0.090727
     2  O    0.090727   7.164567
          Atomic-Atomic Spin Densities.
               1          2
     1  Sc   0.954410   0.020595
     2  O    0.020595   0.004400
 Mulliken charges and spin densities:
               1          2
     1  Sc   1.255295   0.975005
     2  O   -1.255295   0.024995
 Sum of Mulliken charges =  -0.00000   1.00000
 Mulliken charges and spin densities with hydrogens summed into heavy atoms:
               1          2
     1  Sc   1.255295   0.975005
     2  O   -1.255295   0.024995
 Electronic spatial extent (au):  <R**2>=             97.9537
 Charge=             -0.0000 electrons
 Dipole moment (field-independent basis, Debye):
    X=              0.0000    Y=              0.0000    Z=              4.8185  Tot=              4.8185
 Quadrupole moment (field-independent basis, Debye-Ang):
   XX=            -21.8723   YY=            -21.8723   ZZ=            -32.7126
   XY=              0.0000   XZ=              0.0000   YZ=              0.0000
 Traceless Quadrupole moment (field-independent basis, Debye-Ang):
   XX=              3.6134   YY=              3.6134   ZZ=             -7.2269
   XY=              0.0000   XZ=              0.0000   YZ=              0.0000
 Octapole moment (field-independent basis, Debye-Ang**2):
  XXX=              0.0000  YYY=             -0.0000  ZZZ=             -8.3118  XYY=              0.0000
  XXY=              0.0000  XXZ=             -2.7132  XZZ=              0.0000  YZZ=             -0.0000
  YYZ=             -2.7132  XYZ=              0.0000
 Hexadecapole moment (field-independent basis, Debye-Ang**3):
 XXXX=            -45.4701 YYYY=            -45.4701 ZZZZ=           -183.3804 XXXY=              0.0000
 XXXZ=              0.0000 YYYX=              0.0000 YYYZ=              0.0000 ZZZX=              0.0000
 ZZZY=              0.0000 XXYY=            -15.1567 XXZZ=            -36.8972 YYZZ=            -36.8972
 XXYZ=             -0.0000 YYXZ=              0.0000 ZZXY=              0.0000
 N-N= 2.054452701219D+01 E-N=-1.751111498981D+02  KE= 3.031583343336D+01
 Orbital energies and kinetic energies (alpha):
                                 1                 2
   1         O                -2.651871          1.295852
   2         O                -1.671344          1.954840
   3         O                -1.642276          2.131387
   4         O                -1.642276          2.131387
   5         O                -1.127067          1.115709
   6         O                -0.427578          2.451557
   7         O                -0.411458          1.956653
   8         O                -0.411458          1.956653
   9         O                -0.252140          0.327758
  10         V                -0.000554          0.108064
  11         V                -0.000554          0.108064
  12         V                 0.014642          0.056247
  13         V                 0.022235          0.045444
  14         V                 0.035237          0.062503
  15         V                 0.035237          0.062503
  16         V                 0.035774          0.110981
  17         V                 0.035774          0.110981
  18         V                 0.042014          0.124891
  19         V                 0.042014          0.124891
  20         V                 0.043779          0.050188
  21         V                 0.054416          0.337286
  22         V                 0.080755          0.957688
  23         V                 0.080755          0.957688
  24         V                 0.105278          0.207315
  25         V                 0.122552          0.399067
  26         V                 0.122552          0.399067
  27         V                 0.131070          0.308644
  28         V                 0.154213          0.196988
  29         V                 0.154213          0.196988
  30         V                 0.154369          0.247429
  31         V                 0.156741          0.687652
  32         V                 0.156741          0.687652
  33         V                 0.161159          0.180900
  34         V                 0.161159          0.180900
  35         V                 0.161550          0.944914
  36         V                 0.161550          0.944914
  37         V                 0.175064          0.593872
  38         V                 0.177727          0.538562
  39         V                 0.177727          0.538562
  40         V                 0.225955          1.930053
  41         V                 0.225955          1.930053
  42         V                 0.265083          0.683872
  43         V                 0.338248          0.447749
  44         V                 0.338248          0.447749
  45         V                 0.340262          0.818444
  46         V                 0.387077          0.731892
  47         V                 0.428157          0.852076
  48         V                 0.456928          1.688549
  49         V                 0.456928          1.688549
  50         V                 0.465960          0.836415
  51         V                 0.465960          0.836415
  52         V                 0.466891          0.550544
  53         V                 0.466891          0.550544
  54         V                 0.468986          0.517456
  55         V                 0.468986          0.517456
  56         V                 0.480671          0.518560
  57         V                 0.480671          0.518560
  58         V                 0.485134          1.283965
  59         V                 0.490946          1.111165
  60         V                 0.490946          1.111165
  61         V                 0.544673          1.059910
  62         V                 0.544673          1.059910
  63         V                 0.573959          1.030726
  64         V                 0.611053          0.787254
  65         V                 0.611053          0.787254
  66         V                 0.616687          0.776428
  67         V                 0.616687          0.776428
  68         V                 0.667478          1.441446
  69         V                 0.822271          1.278520
  70         V                 0.822271          1.278520
  71         V                 0.890466          1.027566
  72         V                 0.974784          1.231878
  73         V                 0.974784          1.231878
  74         V                 1.014632          1.076456
  75         V                 1.014632          1.076456
  76         V                 1.029939          1.395747
  77         V                 1.220930          2.292354
  78         V                 1.256656          3.226913
  79         V                 1.256656          3.226913
  80         V                 1.299400          3.173813
  81         V                 1.299400          3.173813
  82         V                 1.336250          2.238711
  83         V                 1.540091          2.536838
  84         V                 1.567559          2.384279
  85         V                 1.567559          2.384279
  86         V                 1.585716          2.551587
  87         V                 1.585716          2.551587
  88         V                 1.740373          2.574952
  89         V                 1.911243          2.232424
  90         V                 1.911243          2.232424
  91         V                 1.912075          2.315889
  92         V                 1.912075          2.315889
  93         V                 1.930939          2.330522
  94         V                 1.930939          2.330522
  95         V                 1.960766          2.515458
  96         V                 1.962772          2.751281
  97         V                 1.962772          2.751281
  98         V                 2.090262          2.948566
  99         V                 2.109967          2.937257
 100         V                 2.109967          2.937257
 101         V                 2.140936          3.185666
 102         V                 2.140936          3.185666
 103         V                 2.144214          2.729382
 104         V                 2.144214          2.729382
 105         V                 2.289061          2.402292
 106         V                 2.289061          2.402292
 107         V                 2.481533          2.956203
 108         V                 2.481533          2.956203
 109         V                 2.511778          3.076963
 110         V                 2.693080          3.104864
 111         V                 2.693080          3.104864
 112         V                 2.772645          3.118019
 113         V                 2.772645          3.118019
 114         V                 2.928585          4.343921
 115         V                 2.930171          5.917048
 116         V                 2.930171          5.917048
 117         V                 3.028899          5.796829
 118         V                 3.028899          5.796829
 119         V                 3.035397          5.123627
 120         V                 3.416225          4.346491
 121         V                 3.416225          4.346491
 122         V                 3.488523          4.950482
 123         V                 3.574631          4.750452
 124         V                 4.032410          5.564197
 125         V                 4.032410          5.564197
 126         V                 4.234735          5.680199
 127         V                 4.333804          7.594069
 128         V                 4.333804          7.594069
 129         V                 4.984020          7.680727
 130         V                 5.550730          6.972258
 131         V                 5.919523         10.300730
 132         V                 5.919523         10.300730
 133         V                 6.005167         10.266395
 134         V                 6.005167         10.266395
 135         V                 6.085977          9.495658
 136         V                 6.634257          7.461671
 137         V                 6.634257          7.461671
 138         V                 6.664093         10.642969
 139         V                 6.664093         10.642969
 140         V                 6.676381          9.662814
 141         V                 6.676381          9.662814
 142         V                 6.792843          8.619728
 143         V                 6.792843          8.619728
 144         V                 6.878751          8.846612
 145         V                 6.878751          8.846612
 146         V                 6.947002          9.458683
 147         V                 6.947002          9.458683
 148         V                 6.969600          8.797466
 149         V                 7.235191          9.762058
 150         V                 7.235191          9.762058
 151         V                 7.472718         10.369241
 152         V                 7.599505         10.472865
 153         V                 7.599505         10.472865
 154         V                 7.687590         10.682794
 155         V                 7.719621         10.177346
 156         V                 7.719621         10.177346
 157         V                 7.740037         10.184145
 158         V                 7.740037         10.184145
 159         V                 7.792546         10.230230
 160         V                 7.792546         10.230230
 161         V                 7.887549         10.336331
 162         V                 7.887549         10.336331
 163         V                 8.115981          9.429644
 164         V                 8.561871         11.229569
 165         V                 8.800171         10.751648
 166         V                 8.800171         10.751648
 167         V                 9.409083         11.320782
 168         V                11.177736         17.336021
 169         V                11.177736         17.336021
 170         V                11.272452         17.380317
 171         V                11.272452         17.380317
 172         V                11.491329         17.543803
 173         V                15.001753         22.944770
 174         V                15.001753         22.944770
 175         V                15.654277         21.929000
 176         V                16.436440         17.024274
 177         V                16.842906         17.430880
 178         V                17.979184         20.101189
 179         V                17.979184         20.101189
 180         V                18.466596         20.543368
 181         V                20.765270         31.215987
 182         V                20.765270         31.215987
 183         V                20.845090         31.259769
 184         V                20.845090         31.259769
 185         V                21.054630         31.360553
 186         V                34.742414         30.256659
 187         V                37.402983         37.163700
 188         V                37.402983         37.163700
 189         V                37.875462         37.567983
 190         V                38.425909         31.811694
 191         V                43.772139         58.209610
 192         V                43.772139         58.209610
 193         V                43.848625         58.277050
 194         V                43.848625         58.277050
 195         V                44.006092         58.392413
 196         V                45.643909         59.027278
 197         V                45.643909         59.027278
 198         V                46.252488         59.597127
 199         V                47.842430         71.646208
 200         V                47.842430         71.646208
 201         V                47.902282         71.684348
 202         V                47.902282         71.684348
 203         V                48.057589         71.749590
 204         V                70.837624         46.127765
 205         V                74.609647         61.169191
 206         V                76.588914         69.489126
 207         V                76.588914         69.489126
 208         V                77.029375         69.907603
 209         V               119.021242        139.020171
 210         V               119.021242        139.020171
 211         V               119.511377        139.470635
 212         V               128.055420         79.937768
 213         V               136.823652        118.395361
 214         V               151.758172        137.145762
 215         V               151.758172        137.145762
 216         V               152.176051        137.578724
 217         V               173.756618        222.304451
 218         V               173.756618        222.304451
 219         V               173.792042        222.334697
 220         V               173.792042        222.334697
 221         V               173.881023        222.411500
 222         V               229.508891        170.345841
 223         V               257.592163        231.738802
 224         V               286.309605        314.516979
 225         V               286.309605        314.516979
 226         V               286.744761        314.934614
 227         V               302.483710        281.089806
 228         V               302.483710        281.089806
 229         V               302.889923        281.504949
 230         V               436.557744        366.177183
 231         V               555.076524        520.267677
 232         V               625.936259        598.907467
 233         V               625.936259        598.907467
 234         V               626.318704        599.293020
 235         V               879.473246        799.044883
 236         V              1382.684101       1351.929160
 237         V              1382.684101       1351.929160
 238         V              1383.031699       1352.277562
 239         V              1529.603011       1488.542219
 240         V              1880.352984       1792.984028
 241         V              3367.443798       3334.718318
 242         V              3367.443798       3334.718318
 243         V              3367.747189       3335.021848
 244         V              4281.410528       4190.045436
 245         V              5659.763257       5616.019440
 246         V              9654.806972       9621.213931
 247         V              9654.806972       9621.213931
 248         V              9655.055912       9621.462880
 249         V             10491.255290      10397.860554
 250         V             28839.662987      28745.321391
 251         V             31586.345582      31541.779329
 Total kinetic energy from orbitals= 3.064359121121D+01
                          Isotropic Fermi Contact Couplings
        Atom                 a.u.       MegaHertz       Gauss      10(-4) cm-1
     1  Sc(45)             0.00003       0.03065       0.01093       0.01022
     2  O(17)              0.00004      -0.02136      -0.00762      -0.00712
 --------------------------------------------------------
       Center         ----  Spin Dipole Couplings  ----
                      3XX-RR        3YY-RR        3ZZ-RR
 --------------------------------------------------------
     1   Atom       -0.043419     -0.043419      0.086838
     2   Atom       -0.006953     -0.006953      0.013905
 --------------------------------------------------------
                        XY            XZ            YZ
 --------------------------------------------------------
     1   Atom        0.000000      0.000000      0.000000
     2   Atom        0.000000      0.000000      0.000000
 --------------------------------------------------------


 ---------------------------------------------------------------------------------
              Anisotropic Spin Dipole Couplings in Principal Axis System
 ---------------------------------------------------------------------------------

       Atom             a.u.   MegaHertz   Gauss  10(-4) cm-1        Axes

              Baa    -0.0434    -5.636    -2.011    -1.880  1.0000  0.0000  0.0000
     1 Sc(45) Bbb    -0.0434    -5.636    -2.011    -1.880 -0.0000  1.0000  0.0000
              Bcc     0.0868    11.273     4.022     3.760  0.0000  0.0000  1.0000
 
              Baa    -0.0070     0.503     0.180     0.168 -0.0000  1.0000  0.0000
     2 O(17)  Bbb    -0.0070     0.503     0.180     0.168  1.0000  0.0000  0.0000
              Bcc     0.0139    -1.006    -0.359    -0.336  0.0000  0.0000  1.0000
 

 ---------------------------------------------------------------------------------

 No NMR shielding tensors so no spin-rotation constants.
 Leave Link  601 at Thu Apr 19 07:50:12 2018, MaxMem= 10737418240 cpu:              85.1 elap:               5.1
 (Enter /home1/apps/gaussian/16rA.03/g16/l9999.exe)
 1\1\GINC-C469-092\SP\ROCCSD(T)-Full\Gen\O1Sc1(2)\AANNABE\19-Apr-2018\0
 \\#P ROCCSD(T)=(maxcyc=150, Full, SaveAmplitudes, ReadAmplitudes)/Gen 
 5d 7f SCF=(maxcycles=300, VShift=400) Integral(NoXCTest) MaxDisk=500GB
  Pop=Full Pseudo=Read Guess=Read\\ScO\\0,2\Sc,0,0.,0.,0.\O,0,0.,0.,1.7
 \\Version=ES64L-G16RevA.03\State=2-SG\HF=-61.9461702\MP2=-62.6276526\P
 UHF=-61.9461702\PMP2-0=-62.6276526\CCSD=-62.6171981\CCSD(T)=-62.657631
 1\RMSD=6.624e-09\PG=C*V [C*(O1Sc1)]\\@


 Some scientists claim that hydrogen, because it is so
 plentiful, is the basic building block of the universe. 
 I dispute that. I say that stupidity is far more
 abundant than hydrogen, and THAT is the basic building 
 block of the universe.
                   --Frank Zappa
 Job cpu time:       0 days  8 hours 16 minutes 43.3 seconds.
 Elapsed time:       0 days  0 hours 25 minutes  6.8 seconds.
 File lengths (MBytes):  RWF=  12036 Int=      0 D2E=      0 Chk=     91 Scr=      1
 Normal termination of Gaussian 16 at Thu Apr 19 07:50:13 2018.
