 Entering Gaussian System, Link 0=g16
 Initial command:
 /home1/apps/gaussian/16rA.03/g16/l1.exe "/tmp/Gau-126631.inp" -scrdir="/tmp/"
 Entering Link 1 = /home1/apps/gaussian/16rA.03/g16/l1.exe PID=    126632.
  
 Copyright (c) 1988,1990,1992,1993,1995,1998,2003,2009,2016,
            Gaussian, Inc.  All Rights Reserved.
  
 This is part of the Gaussian(R) 16 program.  It is based on
 the Gaussian(R) 09 system (copyright 2009, Gaussian, Inc.),
 the Gaussian(R) 03 system (copyright 2003, Gaussian, Inc.),
 the Gaussian(R) 98 system (copyright 1998, Gaussian, Inc.),
 the Gaussian(R) 94 system (copyright 1995, Gaussian, Inc.),
 the Gaussian 92(TM) system (copyright 1992, Gaussian, Inc.),
 the Gaussian 90(TM) system (copyright 1990, Gaussian, Inc.),
 the Gaussian 88(TM) system (copyright 1988, Gaussian, Inc.),
 the Gaussian 86(TM) system (copyright 1986, Carnegie Mellon
 University), and the Gaussian 82(TM) system (copyright 1983,
 Carnegie Mellon University). Gaussian is a federally registered
 trademark of Gaussian, Inc.
  
 This software contains proprietary and confidential information,
 including trade secrets, belonging to Gaussian, Inc.
  
 This software is provided under written license and may be
 used, copied, transmitted, or stored only in accord with that
 written license.
  
 The following legend is applicable only to US Government
 contracts under FAR:
  
                    RESTRICTED RIGHTS LEGEND
  
 Use, reproduction and disclosure by the US Government is
 subject to restrictions as set forth in subparagraphs (a)
 and (c) of the Commercial Computer Software - Restricted
 Rights clause in FAR 52.227-19.
  
 Gaussian, Inc.
 340 Quinnipiac St., Bldg. 40, Wallingford CT 06492
  
  
 ---------------------------------------------------------------
 Warning -- This program may not be used in any manner that
 competes with the business of Gaussian, Inc. or will provide
 assistance to any competitor of Gaussian, Inc.  The licensee
 of this program is prohibited from giving any competitor of
 Gaussian, Inc. access to this program.  By using this program,
 the user acknowledges that Gaussian, Inc. is engaged in the
 business of creating and licensing software in the field of
 computational chemistry and represents and warrants to the
 licensee that it is not a competitor of Gaussian, Inc. and that
 it will not use this program in any manner prohibited above.
 ---------------------------------------------------------------
  

 Cite this work as:
 Gaussian 16, Revision A.03,
 M. J. Frisch, G. W. Trucks, H. B. Schlegel, G. E. Scuseria, 
 M. A. Robb, J. R. Cheeseman, G. Scalmani, V. Barone, 
 G. A. Petersson, H. Nakatsuji, X. Li, M. Caricato, A. V. Marenich, 
 J. Bloino, B. G. Janesko, R. Gomperts, B. Mennucci, H. P. Hratchian, 
 J. V. Ortiz, A. F. Izmaylov, J. L. Sonnenberg, D. Williams-Young, 
 F. Ding, F. Lipparini, F. Egidi, J. Goings, B. Peng, A. Petrone, 
 T. Henderson, D. Ranasinghe, V. G. Zakrzewski, J. Gao, N. Rega, 
 G. Zheng, W. Liang, M. Hada, M. Ehara, K. Toyota, R. Fukuda, 
 J. Hasegawa, M. Ishida, T. Nakajima, Y. Honda, O. Kitao, H. Nakai, 
 T. Vreven, K. Throssell, J. A. Montgomery, Jr., J. E. Peralta, 
 F. Ogliaro, M. J. Bearpark, J. J. Heyd, E. N. Brothers, K. N. Kudin, 
 V. N. Staroverov, T. A. Keith, R. Kobayashi, J. Normand, 
 K. Raghavachari, A. P. Rendell, J. C. Burant, S. S. Iyengar, 
 J. Tomasi, M. Cossi, J. M. Millam, M. Klene, C. Adamo, R. Cammi, 
 J. W. Ochterski, R. L. Martin, K. Morokuma, O. Farkas, 
 J. B. Foresman, and D. J. Fox, Gaussian, Inc., Wallingford CT, 2016.
 
 ******************************************
 Gaussian 16:  ES64L-G16RevA.03 25-Dec-2016
                 7-Mar-2018 
 ******************************************
 %mem=80GB
 %cpu=0-31
 SetSPE:  set environment variable "MP_BIND" = "yes"
 SetSPE:  set environment variable "MP_BLIST" = "0,1,2,3,4,5,6,7,8,9,10,11,12,13,14,15,16,17,18,19,20,21,22,23,24,25,26,27,28,29,30,31"
 Will use up to   32 processors via shared memory.
 %chk=qz.chk
 %rwf=/scratch/04843/gwang18/feh/
 ----------------------------------------------------------------------
 #P ROCCSD(T)=(MaxCyc=150, Full)/Gen SCF=(maxcycle=400) Integral(DKHSO,
  NoXCTest) Pop=Regular MaxDisk=500GB Guess=Read IOp(5/15=2)
 ----------------------------------------------------------------------
 1/38=1,172=1/1;
 2/12=2,17=6,18=5,40=1/2;
 3/5=7,11=2,25=1,30=1,47=8,91=5,116=101/1,2,3;
 4/5=1/1;
 5/5=2,7=400,15=2,38=6/2;
 8/5=-1,6=4,9=120000,10=90/1,4;
 9/5=7,6=150,14=2/13;
 6//1;
 99/5=1,9=1/99;
 Leave Link    1 at Wed Mar  7 11:35:00 2018, MaxMem= 10737418240 cpu:               6.4 elap:               0.2
 (Enter /home1/apps/gaussian/16rA.03/g16/l101.exe)
 ---
 FeH
 ---
 Symbolic Z-matrix:
 Charge =  0 Multiplicity = 4
 Fe                    0.        0.        0. 
 H                     0.        0.        1.2 
 
 ITRead=  0  0
 MicOpt= -1 -1
 NAtoms=      2 NQM=        2 NQMF=       0 NMMI=      0 NMMIF=      0
                NMic=       0 NMicF=      0.
                    Isotopes and Nuclear Properties:
 (Nuclear quadrupole moments (NQMom) in fm**2, nuclear magnetic moments (NMagM)
  in nuclear magnetons)

  Atom         1           2
 IAtWgt=          56           1
 AtmWgt=  55.9349393   1.0078250
 NucSpn=           0           1
 AtZEff=  -0.0000000  -0.0000000
 NQMom=    0.0000000   0.0000000
 NMagM=    0.0000000   2.7928460
 AtZNuc=  26.0000000   1.0000000
 Leave Link  101 at Wed Mar  7 11:35:00 2018, MaxMem= 10737418240 cpu:               2.9 elap:               0.1
 (Enter /home1/apps/gaussian/16rA.03/g16/l202.exe)
                          Input orientation:                          
 ---------------------------------------------------------------------
 Center     Atomic      Atomic             Coordinates (Angstroms)
 Number     Number       Type             X           Y           Z
 ---------------------------------------------------------------------
      1         26           0        0.000000    0.000000    0.000000
      2          1           0        0.000000    0.000000    1.200000
 ---------------------------------------------------------------------
 Stoichiometry    FeH(4)
 Framework group  C*V[C*(HFe)]
 Deg. of freedom     1
 Full point group                 C*V     NOp   4
 Largest Abelian subgroup         C2V     NOp   4
 Largest concise Abelian subgroup C1      NOp   1
                         Standard orientation:                         
 ---------------------------------------------------------------------
 Center     Atomic      Atomic             Coordinates (Angstroms)
 Number     Number       Type             X           Y           Z
 ---------------------------------------------------------------------
      1         26           0        0.000000    0.000000    0.044444
      2          1           0        0.000000    0.000000   -1.155556
 ---------------------------------------------------------------------
 Rotational constants (GHZ):           0.0000000         354.5071018         354.5071018
 Leave Link  202 at Wed Mar  7 11:35:00 2018, MaxMem= 10737418240 cpu:               0.7 elap:               0.1
 (Enter /home1/apps/gaussian/16rA.03/g16/l301.exe)
 General basis read from cards:  (5D, 7F)
 Centers:       1
 S 1 1.00
     Exponent=  1.3277140000D+07 Coefficients=  1.0000000000D+00
 S 1 1.00
     Exponent=  1.9878880000D+06 Coefficients=  1.0000000000D+00
 S 1 1.00
     Exponent=  4.5238710000D+05 Coefficients=  1.0000000000D+00
 S 1 1.00
     Exponent=  1.2814370000D+05 Coefficients=  1.0000000000D+00
 S 1 1.00
     Exponent=  4.1809170000D+04 Coefficients=  1.0000000000D+00
 S 1 1.00
     Exponent=  1.5095330000D+04 Coefficients=  1.0000000000D+00
 S 1 1.00
     Exponent=  5.8884380000D+03 Coefficients=  1.0000000000D+00
 S 1 1.00
     Exponent=  2.4428760000D+03 Coefficients=  1.0000000000D+00
 S 1 1.00
     Exponent=  1.0658570000D+03 Coefficients=  1.0000000000D+00
 S 1 1.00
     Exponent=  4.8490960000D+02 Coefficients=  1.0000000000D+00
 S 1 1.00
     Exponent=  2.2845850000D+02 Coefficients=  1.0000000000D+00
 S 1 1.00
     Exponent=  1.1074530000D+02 Coefficients=  1.0000000000D+00
 S 1 1.00
     Exponent=  5.4431160000D+01 Coefficients=  1.0000000000D+00
 S 1 1.00
     Exponent=  2.5010960000D+01 Coefficients=  1.0000000000D+00
 S 1 1.00
     Exponent=  1.2592620000D+01 Coefficients=  1.0000000000D+00
 S 1 1.00
     Exponent=  6.3232020000D+00 Coefficients=  1.0000000000D+00
 S 1 1.00
     Exponent=  2.8833840000D+00 Coefficients=  1.0000000000D+00
 S 1 1.00
     Exponent=  1.3828680000D+00 Coefficients=  1.0000000000D+00
 S 1 1.00
     Exponent=  6.3220100000D-01 Coefficients=  1.0000000000D+00
 S 1 1.00
     Exponent=  1.4923800000D-01 Coefficients=  1.0000000000D+00
 S 1 1.00
     Exponent=  6.8494000000D-02 Coefficients=  1.0000000000D+00
 S 1 1.00
     Exponent=  3.0381000000D-02 Coefficients=  1.0000000000D+00
 S 1 1.00
     Exponent=  5.7900000000D+00 Coefficients=  1.0000000000D+00
 S 1 1.00
     Exponent=  1.7335000000D+00 Coefficients=  1.0000000000D+00
 S 1 1.00
     Exponent=  1.3480000000D-02 Coefficients=  1.0000000000D+00
 P 1 1.00
     Exponent=  3.8282050000D+04 Coefficients=  1.0000000000D+00
 P 1 1.00
     Exponent=  9.0615560000D+03 Coefficients=  1.0000000000D+00
 P 1 1.00
     Exponent=  2.9444500000D+03 Coefficients=  1.0000000000D+00
 P 1 1.00
     Exponent=  1.1281580000D+03 Coefficients=  1.0000000000D+00
 P 1 1.00
     Exponent=  4.8033800000D+02 Coefficients=  1.0000000000D+00
 P 1 1.00
     Exponent=  2.2013680000D+02 Coefficients=  1.0000000000D+00
 P 1 1.00
     Exponent=  1.0654820000D+02 Coefficients=  1.0000000000D+00
 P 1 1.00
     Exponent=  5.3742620000D+01 Coefficients=  1.0000000000D+00
 P 1 1.00
     Exponent=  2.7863180000D+01 Coefficients=  1.0000000000D+00
 P 1 1.00
     Exponent=  1.4743820000D+01 Coefficients=  1.0000000000D+00
 P 1 1.00
     Exponent=  7.8933510000D+00 Coefficients=  1.0000000000D+00
 P 1 1.00
     Exponent=  4.1794970000D+00 Coefficients=  1.0000000000D+00
 P 1 1.00
     Exponent=  2.1656690000D+00 Coefficients=  1.0000000000D+00
 P 1 1.00
     Exponent=  1.0972400000D+00 Coefficients=  1.0000000000D+00
 P 1 1.00
     Exponent=  5.3608500000D-01 Coefficients=  1.0000000000D+00
 P 1 1.00
     Exponent=  2.0245300000D-01 Coefficients=  1.0000000000D+00
 P 1 1.00
     Exponent=  8.1695000000D-02 Coefficients=  1.0000000000D+00
 P 1 1.00
     Exponent=  3.2614000000D-02 Coefficients=  1.0000000000D+00
 P 1 1.00
     Exponent=  8.3687000000D+00 Coefficients=  1.0000000000D+00
 P 1 1.00
     Exponent=  2.2601000000D+00 Coefficients=  1.0000000000D+00
 P 1 1.00
     Exponent=  1.3020000000D-02 Coefficients=  1.0000000000D+00
 D 1 1.00
     Exponent=  3.5099500000D+02 Coefficients=  1.0000000000D+00
 D 1 1.00
     Exponent=  1.0366700000D+02 Coefficients=  1.0000000000D+00
 D 1 1.00
     Exponent=  3.9704300000D+01 Coefficients=  1.0000000000D+00
 D 1 1.00
     Exponent=  1.7031000000D+01 Coefficients=  1.0000000000D+00
 D 1 1.00
     Exponent=  7.7890200000D+00 Coefficients=  1.0000000000D+00
 D 1 1.00
     Exponent=  3.6995500000D+00 Coefficients=  1.0000000000D+00
 D 1 1.00
     Exponent=  1.7553200000D+00 Coefficients=  1.0000000000D+00
 D 1 1.00
     Exponent=  8.1284500000D-01 Coefficients=  1.0000000000D+00
 D 1 1.00
     Exponent=  3.6144100000D-01 Coefficients=  1.0000000000D+00
 D 1 1.00
     Exponent=  1.5134600000D-01 Coefficients=  1.0000000000D+00
 D 1 1.00
     Exponent=  5.7513000000D-02 Coefficients=  1.0000000000D+00
 D 1 1.00
     Exponent=  5.4967000000D+00 Coefficients=  1.0000000000D+00
 D 1 1.00
     Exponent=  2.8925000000D+00 Coefficients=  1.0000000000D+00
 D 1 1.00
     Exponent=  2.1860000000D-02 Coefficients=  1.0000000000D+00
 F 1 1.00
     Exponent=  7.7828000000D+00 Coefficients=  1.0000000000D+00
 F 1 1.00
     Exponent=  3.2584000000D+00 Coefficients=  1.0000000000D+00
 F 1 1.00
     Exponent=  1.3641000000D+00 Coefficients=  1.0000000000D+00
 F 1 1.00
     Exponent=  4.5640000000D-01 Coefficients=  1.0000000000D+00
 F 1 1.00
     Exponent=  1.5270000000D-01 Coefficients=  1.0000000000D+00
 G 1 1.00
     Exponent=  6.3816000000D+00 Coefficients=  1.0000000000D+00
 G 1 1.00
     Exponent=  2.7717000000D+00 Coefficients=  1.0000000000D+00
 G 1 1.00
     Exponent=  1.0505000000D+00 Coefficients=  1.0000000000D+00
 G 1 1.00
     Exponent=  3.9815000000D-01 Coefficients=  1.0000000000D+00
 H 1 1.00
     Exponent=  5.8964000000D+00 Coefficients=  1.0000000000D+00
 H 1 1.00
     Exponent=  2.3448000000D+00 Coefficients=  1.0000000000D+00
 H 1 1.00
     Exponent=  9.3245000000D-01 Coefficients=  1.0000000000D+00
 ****
 Centers:       2
 S 1 1.00
     Exponent=  8.2640000000D+01 Coefficients=  1.0000000000D+00
 S 1 1.00
     Exponent=  1.2410000000D+01 Coefficients=  1.0000000000D+00
 S 1 1.00
     Exponent=  2.8240000000D+00 Coefficients=  1.0000000000D+00
 S 1 1.00
     Exponent=  7.9770000000D-01 Coefficients=  1.0000000000D+00
 S 1 1.00
     Exponent=  2.5810000000D-01 Coefficients=  1.0000000000D+00
 S 1 1.00
     Exponent=  8.9890000000D-02 Coefficients=  1.0000000000D+00
 S 1 1.00
     Exponent=  2.3630000000D-02 Coefficients=  1.0000000000D+00
 P 1 1.00
     Exponent=  2.2920000000D+00 Coefficients=  1.0000000000D+00
 P 1 1.00
     Exponent=  8.3800000000D-01 Coefficients=  1.0000000000D+00
 P 1 1.00
     Exponent=  2.9200000000D-01 Coefficients=  1.0000000000D+00
 P 1 1.00
     Exponent=  8.4800000000D-02 Coefficients=  1.0000000000D+00
 D 1 1.00
     Exponent=  2.0620000000D+00 Coefficients=  1.0000000000D+00
 D 1 1.00
     Exponent=  6.6200000000D-01 Coefficients=  1.0000000000D+00
 D 1 1.00
     Exponent=  1.9000000000D-01 Coefficients=  1.0000000000D+00
 F 1 1.00
     Exponent=  1.3970000000D+00 Coefficients=  1.0000000000D+00
 F 1 1.00
     Exponent=  3.6000000000D-01 Coefficients=  1.0000000000D+00
 ****
 Ernie: Thresh=  0.10000D-02 Tol=  0.10000D-05 Strict=F.
 There are   171 symmetry adapted cartesian basis functions of A1  symmetry.
 There are    45 symmetry adapted cartesian basis functions of A2  symmetry.
 There are    93 symmetry adapted cartesian basis functions of B1  symmetry.
 There are    93 symmetry adapted cartesian basis functions of B2  symmetry.
 There are   126 symmetry adapted basis functions of A1  symmetry.
 There are    38 symmetry adapted basis functions of A2  symmetry.
 There are    73 symmetry adapted basis functions of B1  symmetry.
 There are    73 symmetry adapted basis functions of B2  symmetry.
   310 basis functions,   402 primitive gaussians,   402 cartesian basis functions
    15 alpha electrons       12 beta electrons
       nuclear repulsion energy        11.4655062366 Hartrees.
 IExCor=    0 DFT=F Ex=HF Corr=None ExCW=0 ScaHFX=  1.000000
 ScaDFX=  1.000000  1.000000  1.000000  1.000000 ScalE2=  1.000000  1.000000
 IRadAn=      5 IRanWt=     -1 IRanGd=            0 ICorTp=0 IEmpDi=  4
 NAtoms=    2 NActive=    2 NUniq=    2 SFac= 1.00D+00 NAtFMM=   60 NAOKFM=F Big=F
 Integral buffers will be    131072 words long.
 Raffenetti 2 integral format.
 Two-electron integral symmetry is turned on.
 FoFCou: FMM=F IPFlag=           8 FMFlag=           0 FMFlg1=           0
         NFxFlg=           0 DoJE=F BraDBF=T KetDBF=T FulRan=T
         wScrn=  0.000000 ICntrl=       600 IOpCl=  3 I1Cent=           6 NGrid=           0
         NMat0=    1 NMatS0=      2 NMatT0=    0 NMatD0=    1 NMtDS0=    0 NMtDT0=    0
 Symmetry not used in FoFCou.
 Finite nuclear repulsion energy        11.4655062366.
 Leave Link  301 at Wed Mar  7 11:35:01 2018, MaxMem= 10737418240 cpu:              14.7 elap:               0.5
 (Enter /home1/apps/gaussian/16rA.03/g16/l302.exe)
 Using DK4 one-electron Hamiltonian with SO, DoBoet=T.
 NPDir=0 NMtPBC=     1 NCelOv=     1 NCel=       1 NClECP=     1 NCelD=      1
         NCelK=      1 NCelE2=     1 NClLst=     1 CellRange=     0.0.
 One-electron integrals computed using PRISM.
 One-electron integral symmetry used in STVInt
 FoFCou: FMM=F IPFlag=           8 FMFlag=      100000 FMFlg1=           0
         NFxFlg=           0 DoJE=T BraDBF=F KetDBF=T FulRan=T
         wScrn=  0.000000 ICntrl=       500 IOpCl=  0 I1Cent=           4 NGrid=           0
         NMat0=    1 NMatS0=      1 NMatT0=    0 NMatD0=    1 NMtDS0=    0 NMtDT0=    0
 Symmetry not used in FoFCou.
 UnConB:  Uncontracting AO basis from    310 functions to    310 functions (excluding duplicates).
 RelInt: Using uncontracted basis, NUnBas=   310 NBsUse=   310 0.100E-13 EigKep=  1.84D-07 EigRej= -1.00D+00
 NBasis=   310 RedAO= T EigKep=  1.52D-06  NBF=   126    38    73    73
 NBsUse=   306 1.00D-06 EigRej=  4.44D-07 NBFU=   124    38    72    72
 Leave Link  302 at Wed Mar  7 11:35:12 2018, MaxMem= 10737418240 cpu:             292.2 elap:              11.2
 (Enter /home1/apps/gaussian/16rA.03/g16/l303.exe)
 DipDrv:  MaxL=1.
 Leave Link  303 at Wed Mar  7 11:35:12 2018, MaxMem= 10737418240 cpu:               2.9 elap:               0.2
 (Enter /home1/apps/gaussian/16rA.03/g16/l401.exe)
 Initial guess from the checkpoint file:  "qz.chk"
 B after Tr=     0.000000    0.000000    0.000000
         Rot=    1.000000    0.000000    0.000000    0.000000 Ang=   0.00 deg.
 Guess basis will be translated and rotated to current coordinates.
 JPrj=2 DoOrth=T DoCkMO=T.
 Initial guess orbital symmetries:
       Occupied  (SG) (SG) (SG) (PI) (PI) (SG) (SG) (PI) (PI) (SG)
                 (?A) (SG) (PI) (PI) (?A)
       Virtual   (SG) (PI) (PI) (SG) (SG) (PI) (PI) (SG) (PI) (PI)
                 (DLTA) (DLTA) (SG) (SG) (SG) (PI) (PI) (SG) (PI)
                 (PI) (?A) (?A) (SG) (PI) (PI) (SG) (SG) (SG) (DLTA)
                 (DLTA) (PI) (PI) (PI) (PI) (SG) (PHI) (PHI) (SG)
                 (DLTA) (DLTA) (PI) (PI) (PI) (PI) (SG) (DLTA)
                 (DLTA) (SG) (SG) (PI) (PI) (SG) (SG) (?B) (?B)
                 (DLTA) (DLTA) (?B) (?B) (?B) (?B) (SG) (SG) (PI)
                 (PI) (DLTA) (DLTA) (PHI) (PHI) (?C) (?C) (DLTA)
                 (DLTA) (SG) (PI) (PI) (SG) (DLTA) (DLTA) (PI)
                 (PI) (SG) (PI) (PI) (SG) (SG) (?D) (?D) (DLTA)
                 (DLTA) (PI) (PI) (DLTA) (DLTA) (SG) (?D) (?D)
                 (SG) (PI) (PI) (SG) (?D) (?D) (?E) (?E) (DLTA)
                 (DLTA) (?D) (?D) (?E) (SG) (SG) (DLTA) (DLTA)
                 (PI) (PI) (SG) (PI) (PI) (SG) (?D) (?D) (DLTA)
                 (DLTA) (?D) (?D) (SG) (?D) (?D) (?F) (?F) (DLTA)
                 (DLTA) (?D) (?D) (?F) (DLTA) (DLTA) (PI) (PI)
                 (SG) (SG) (PI) (PI) (SG) (DLTA) (DLTA) (PI) (PI)
                 (SG) (SG) (SG) (PI) (PI) (SG) (DLTA) (DLTA) (PI)
                 (PI) (SG) (SG) (PI) (PI) (SG) (SG) (PI) (PI) (SG)
                 (DLTA) (DLTA) (PI) (PI) (SG) (PI) (PI) (SG) (SG)
                 (PI) (PI) (SG) (SG) (PI) (PI) (SG) (SG) (SG) (PI)
                 (PI) (SG) (SG) (PI) (PI) (SG) (SG) (SG) (SG) (SG)
                 (DLTA) (SG) (DLTA) (SG) (SG) (SG) (SG) (DLTA)
                 (SG) (SG) (DLTA) (SG) (DLTA) (SG) (?C) (SG) (DLTA)
                 (SG) (DLTA) (SG) (?C) (DLTA) (SG) (SG) (DLTA)
                 (DLTA) (SG) (DLTA) (SG) (?C) (?C) (DLTA) (DLTA)
                 (DLTA) (DLTA) (DLTA) (?C) (DLTA) (DLTA) (?C) (DLTA)
                 (DLTA) (DLTA) (DLTA) (?C) (?C) (PI) (PI) (PI)
                 (PI) (PI) (PHI) (PI) (PI) (PHI) (PI) (PI) (PHI)
                 (PI) (PI) (?G) (PHI) (PI) (PHI) (PI) (PHI) (PI)
                 (?G) (PHI) (?G) (PI) (PI) (PI) (PI) (PI) (PHI)
                 (PI) (PI) (PHI) (PI) (PI) (PHI) (PI) (PI) (?G)
                 (PHI) (PI) (PHI) (PI) (PHI) (PI) (?G) (PHI) (?G)
 Leave Link  401 at Wed Mar  7 11:35:13 2018, MaxMem= 10737418240 cpu:              16.5 elap:               0.6
 (Enter /home1/apps/gaussian/16rA.03/g16/l502.exe)
 Keep R1 and R2 ints in memory in symmetry-blocked form, NReq=1456552531.
 FoFCou: FMM=F IPFlag=           8 FMFlag=           0 FMFlg1=           0
         NFxFlg=           0 DoJE=F BraDBF=F KetDBF=F FulRan=T
         wScrn=  0.000000 ICntrl=       600 IOpCl=  0 I1Cent=           0 NGrid=           0
         NMat0=    1 NMatS0=  48205 NMatT0=    0 NMatD0=    1 NMtDS0=    0 NMtDT0=    0
 Petite list used in FoFCou.
 Restricted open shell SCF:
 Using DIIS extrapolation, IDIIS=  1040.
 NGot= 10737418240 LenX= 10147857266 LenY= 10147695221
 Requested convergence on RMS density matrix=1.00D-08 within 400 cycles.
 Requested convergence on MAX density matrix=1.00D-06.
 Requested convergence on             energy=1.00D-06.
 No special actions if energy rises.

 Cycle   1  Pass 1  IDiag  1:
 E= -1271.76791525486    
 DIIS: error= 1.04D+00 at cycle   1 NSaved=   1.
 NSaved= 1 IEnMin= 1 EnMin= -1271.76791525486     IErMin= 1 ErrMin= 1.04D+00
 ErrMax= 1.04D+00  0.00D+00 EMaxC= 1.00D-01 BMatC= 1.44D+02 BMatP= 1.44D+02
 IDIUse=3 WtCom= 0.00D+00 WtEn= 1.00D+00
 Coeff-Com:  0.100D+01
 Coeff-En:   0.100D+01
 Coeff:      0.100D+01
 Fock symm off for IB=3 I1=   69 I=  231 J=  102 Cut=1.00D-07 Err=1.07D-07
 Fock matrix is not symmetric: symmetry in diagonalization turned off.
 Gap=    -0.087 Goal=   None    Shift=    0.000
 GapD=   -0.087 DampG=0.250 DampE=0.125 DampFc=0.1250 IDamp=-1.
 Damping current iteration by 1.25D-01
 RMSDP=1.28D-03 MaxDP=7.94D-02              OVMax= 1.00D+00

 Cycle   2  Pass 1  IDiag  1:
 E= -1271.76798489655     Delta-E=       -0.000069641693 Rises=F Damp=T
 DIIS: error= 9.10D-01 at cycle   2 NSaved=   2.
 NSaved= 2 IEnMin= 2 EnMin= -1271.76798489655     IErMin= 2 ErrMin= 9.10D-01
 ErrMax= 9.10D-01  0.00D+00 EMaxC= 1.00D-01 BMatC= 1.10D+02 BMatP= 1.44D+02
 IDIUse=3 WtCom= 0.00D+00 WtEn= 1.00D+00
 Coeff-Com: -0.700D+01 0.800D+01
 Coeff-En:   0.000D+00 0.100D+01
 Coeff:      0.000D+00 0.100D+01
 Gap=     0.039 Goal=   None    Shift=    0.000
 RMSDP=1.12D-03 MaxDP=7.00D-02 DE=-6.96D-05 OVMax= 2.29D-02

 Cycle   3  Pass 1  IDiag  1:
 Density matrix breaks symmetry, PCut= 1.00D-07
 Density matrix has no symmetry -- integrals replicated.
 E= -1271.76817317802     Delta-E=       -0.000188281468 Rises=F Damp=F
 DIIS: error= 1.58D-03 at cycle   3 NSaved=   3.
 NSaved= 3 IEnMin= 3 EnMin= -1271.76817317802     IErMin= 3 ErrMin= 1.58D-03
 ErrMax= 1.58D-03  0.00D+00 EMaxC= 1.00D-01 BMatC= 1.78D-04 BMatP= 1.10D+02
 IDIUse=3 WtCom= 9.84D-01 WtEn= 1.58D-02
 Coeff-Com: -0.182D+01 0.208D+01 0.740D+00
 Coeff-En:   0.000D+00 0.351D+00 0.649D+00
 Coeff:     -0.179D+01 0.206D+01 0.738D+00
 Gap=     0.039 Goal=   None    Shift=    0.000
 RMSDP=9.04D-05 MaxDP=8.83D-03 DE=-1.88D-04 OVMax= 2.58D-02

 Cycle   4  Pass 1  IDiag  1:
 Density matrix breaks symmetry, PCut= 1.00D-07
 Density matrix has no symmetry -- integrals replicated.
 E= -1271.76838580711     Delta-E=       -0.000212629086 Rises=F Damp=F
 DIIS: error= 1.21D-03 at cycle   4 NSaved=   4.
 NSaved= 4 IEnMin= 4 EnMin= -1271.76838580711     IErMin= 4 ErrMin= 1.21D-03
 ErrMax= 1.21D-03  0.00D+00 EMaxC= 1.00D-01 BMatC= 8.11D-05 BMatP= 1.78D-04
 IDIUse=3 WtCom= 9.88D-01 WtEn= 1.21D-02
 Coeff-Com: -0.139D+01 0.159D+01 0.487D+00 0.315D+00
 Coeff-En:   0.000D+00 0.000D+00 0.357D+00 0.643D+00
 Coeff:     -0.137D+01 0.157D+01 0.485D+00 0.319D+00
 Gap=     0.040 Goal=   None    Shift=    0.000
 RMSDP=5.60D-05 MaxDP=4.81D-03 DE=-2.13D-04 OVMax= 1.58D-02

 Cycle   5  Pass 1  IDiag  1:
 Density matrix breaks symmetry, PCut= 1.00D-07
 Density matrix has no symmetry -- integrals replicated.
 E= -1271.76843717986     Delta-E=       -0.000051372753 Rises=F Damp=F
 DIIS: error= 9.75D-04 at cycle   5 NSaved=   5.
 NSaved= 5 IEnMin= 5 EnMin= -1271.76843717986     IErMin= 5 ErrMin= 9.75D-04
 ErrMax= 9.75D-04  0.00D+00 EMaxC= 1.00D-01 BMatC= 4.44D-05 BMatP= 8.11D-05
 IDIUse=3 WtCom= 9.90D-01 WtEn= 9.75D-03
 EnCoef did    18 forward-backward iterations
 Coeff-Com: -0.124D+01 0.141D+01 0.321D+00 0.239D+00 0.263D+00
 Coeff-En:   0.000D+00 0.000D+00 0.151D+00 0.473D+00 0.376D+00
 Coeff:     -0.122D+01 0.140D+01 0.319D+00 0.242D+00 0.264D+00
 Gap=     0.040 Goal=   None    Shift=    0.000
 RMSDP=2.31D-05 MaxDP=2.22D-03 DE=-5.14D-05 OVMax= 5.47D-03

 Cycle   6  Pass 1  IDiag  1:
 Density matrix breaks symmetry, PCut= 1.00D-07
 Density matrix has no symmetry -- integrals replicated.
 E= -1271.76845575712     Delta-E=       -0.000018577262 Rises=F Damp=F
 DIIS: error= 7.72D-04 at cycle   6 NSaved=   6.
 NSaved= 6 IEnMin= 6 EnMin= -1271.76845575712     IErMin= 6 ErrMin= 7.72D-04
 ErrMax= 7.72D-04  0.00D+00 EMaxC= 1.00D-01 BMatC= 3.32D-05 BMatP= 4.44D-05
 IDIUse=3 WtCom= 9.92D-01 WtEn= 7.72D-03
 Rare condition: small coef for last iteration:  0.000D+00
 Coeff-Com: -0.110D+01 0.126D+01 0.180D+00 0.144D+00 0.220D+00 0.298D+00
 Coeff-En:   0.000D+00 0.000D+00 0.399D-01 0.308D+00 0.209D+00 0.443D+00
 Coeff:     -0.110D+01 0.126D+01 0.180D+00 0.144D+00 0.220D+00 0.298D+00
 Gap=     0.039 Goal=   None    Shift=    0.000
 RMSDP=1.25D-05 MaxDP=1.14D-03 DE=-1.86D-05 OVMax= 2.58D-03

 Cycle   7  Pass 1  IDiag  1:
 Density matrix breaks symmetry, PCut= 1.00D-07
 Density matrix has no symmetry -- integrals replicated.
 E= -1271.76846577478     Delta-E=       -0.000010017665 Rises=F Damp=F
 DIIS: error= 6.95D-04 at cycle   7 NSaved=   7.
 NSaved= 7 IEnMin= 7 EnMin= -1271.76846577478     IErMin= 7 ErrMin= 6.95D-04
 ErrMax= 6.95D-04  0.00D+00 EMaxC= 1.00D-01 BMatC= 2.74D-05 BMatP= 3.32D-05
 IDIUse=3 WtCom= 9.93D-01 WtEn= 6.95D-03
 EnCoef did   100 forward-backward iterations
 Rare condition: small coef for last iteration:  0.000D+00
 Coeff-Com: -0.943D+00 0.108D+01 0.426D-01 0.422D-01 0.777D-01 0.246D+00
 Coeff-Com:  0.457D+00
 Coeff-En:   0.000D+00 0.000D+00 0.508D-01 0.273D+00 0.000D+00 0.501D-01
 Coeff-En:   0.626D+00
 Coeff:     -0.943D+00 0.108D+01 0.426D-01 0.422D-01 0.777D-01 0.246D+00
 Coeff:      0.457D+00
 Gap=     0.039 Goal=   None    Shift=    0.000
 RMSDP=9.66D-06 MaxDP=6.04D-04 DE=-1.00D-05 OVMax= 1.67D-03

 Cycle   8  Pass 1  IDiag  1:
 Density matrix breaks symmetry, PCut= 1.00D-07
 Density matrix has no symmetry -- integrals replicated.
 E= -1271.76847781625     Delta-E=       -0.000012041460 Rises=F Damp=F
 DIIS: error= 6.64D-04 at cycle   8 NSaved=   8.
 NSaved= 8 IEnMin= 8 EnMin= -1271.76847781625     IErMin= 8 ErrMin= 6.64D-04
 ErrMax= 6.64D-04  0.00D+00 EMaxC= 1.00D-01 BMatC= 2.00D-05 BMatP= 2.74D-05
 IDIUse=3 WtCom= 9.93D-01 WtEn= 6.64D-03
 EnCoef did    17 forward-backward iterations
 Coeff-Com: -0.833D+00 0.952D+00-0.783D-02 0.889D-03 0.515D-02 0.128D+00
 Coeff-Com:  0.419D+00 0.336D+00
 Coeff-En:   0.000D+00 0.000D+00 0.121D+00 0.392D+00 0.214D+00 0.000D+00
 Coeff-En:   0.000D+00 0.273D+00
 Coeff:     -0.828D+00 0.946D+00-0.698D-02 0.349D-02 0.653D-02 0.127D+00
 Coeff:      0.416D+00 0.336D+00
 Gap=     0.039 Goal=   None    Shift=    0.000
 RMSDP=1.08D-05 MaxDP=1.07D-03 DE=-1.20D-05 OVMax= 2.14D-03

 Cycle   9  Pass 1  IDiag  1:
 Density matrix breaks symmetry, PCut= 1.00D-07
 Density matrix has no symmetry -- integrals replicated.
 E= -1271.76848619895     Delta-E=       -0.000008382701 Rises=F Damp=F
 DIIS: error= 5.45D-04 at cycle   9 NSaved=   9.
 NSaved= 9 IEnMin= 9 EnMin= -1271.76848619895     IErMin= 9 ErrMin= 5.45D-04
 ErrMax= 5.45D-04  0.00D+00 EMaxC= 1.00D-01 BMatC= 1.49D-05 BMatP= 2.00D-05
 IDIUse=3 WtCom= 9.95D-01 WtEn= 5.45D-03
 EnCoef did    15 forward-backward iterations
 Coeff-Com: -0.776D+00 0.887D+00-0.176D-01-0.975D-02-0.146D-01 0.773D-01
 Coeff-Com:  0.333D+00 0.338D+00 0.183D+00
 Coeff-En:   0.000D+00 0.000D+00 0.116D+00 0.293D+00 0.774D-02 0.000D+00
 Coeff-En:   0.000D+00 0.000D+00 0.583D+00
 Coeff:     -0.772D+00 0.882D+00-0.169D-01-0.810D-02-0.145D-01 0.769D-01
 Coeff:      0.331D+00 0.336D+00 0.185D+00
 Gap=     0.039 Goal=   None    Shift=    0.000
 RMSDP=8.76D-06 MaxDP=1.03D-03 DE=-8.38D-06 OVMax= 1.77D-03

 Cycle  10  Pass 1  IDiag  1:
 E= -1271.76848956633     Delta-E=       -0.000003367384 Rises=F Damp=F
 DIIS: error= 5.02D-04 at cycle  10 NSaved=  10.
 NSaved=10 IEnMin=10 EnMin= -1271.76848956633     IErMin=10 ErrMin= 5.02D-04
 ErrMax= 5.02D-04  0.00D+00 EMaxC= 1.00D-01 BMatC= 1.29D-05 BMatP= 1.49D-05
 IDIUse=3 WtCom= 9.95D-01 WtEn= 5.02D-03
 EnCoef did   100 forward-backward iterations
 Coeff-Com: -0.411D+00 0.470D+00-0.460D-01-0.521D-01-0.914D-01-0.171D+00
 Coeff-Com: -0.254D+00 0.144D-02 0.546D+00 0.101D+01
 Coeff-En:   0.000D+00 0.000D+00 0.111D+00 0.270D+00 0.678D-02 0.000D+00
 Coeff-En:   0.000D+00 0.000D+00 0.000D+00 0.612D+00
 Coeff:     -0.409D+00 0.468D+00-0.453D-01-0.505D-01-0.909D-01-0.170D+00
 Coeff:     -0.253D+00 0.143D-02 0.543D+00 0.101D+01
 Gap=     0.039 Goal=   None    Shift=    0.000
 RMSDP=1.71D-05 MaxDP=9.45D-04 DE=-3.37D-06 OVMax= 1.94D-03

 Cycle  11  Pass 1  IDiag  1:
 Density matrix breaks symmetry, PCut= 1.00D-07
 Density matrix has no symmetry -- integrals replicated.
 E= -1271.76850486019     Delta-E=       -0.000015293861 Rises=F Damp=F
 DIIS: error= 2.67D-04 at cycle  11 NSaved=  11.
 NSaved=11 IEnMin=11 EnMin= -1271.76850486019     IErMin=11 ErrMin= 2.67D-04
 ErrMax= 2.67D-04  0.00D+00 EMaxC= 1.00D-01 BMatC= 3.52D-06 BMatP= 1.29D-05
 IDIUse=3 WtCom= 9.97D-01 WtEn= 2.67D-03
 EnCoef did     3 forward-backward iterations
 Coeff-Com: -0.282D+00 0.323D+00-0.315D-01-0.386D-01-0.727D-01-0.150D+00
 Coeff-Com: -0.249D+00-0.566D-01 0.348D+00 0.708D+00 0.502D+00
 Coeff-En:   0.000D+00 0.000D+00 0.132D+00 0.184D+00 0.000D+00 0.000D+00
 Coeff-En:   0.000D+00 0.000D+00 0.000D+00 0.000D+00 0.684D+00
 Coeff:     -0.281D+00 0.322D+00-0.311D-01-0.380D-01-0.725D-01-0.150D+00
 Coeff:     -0.248D+00-0.565D-01 0.347D+00 0.706D+00 0.503D+00
 Gap=     0.039 Goal=   None    Shift=    0.000
 RMSDP=8.94D-06 MaxDP=9.18D-04 DE=-1.53D-05 OVMax= 7.40D-04

 Cycle  12  Pass 1  IDiag  1:
 Density matrix breaks symmetry, PCut= 1.00D-07
 Density matrix has no symmetry -- integrals replicated.
 E= -1271.76850778624     Delta-E=       -0.000002926048 Rises=F Damp=F
 DIIS: error= 1.84D-04 at cycle  12 NSaved=  12.
 NSaved=12 IEnMin=12 EnMin= -1271.76850778624     IErMin=12 ErrMin= 1.84D-04
 ErrMax= 1.84D-04  0.00D+00 EMaxC= 1.00D-01 BMatC= 1.70D-06 BMatP= 3.52D-06
 IDIUse=3 WtCom= 9.98D-01 WtEn= 1.84D-03
 EnCoef did   100 forward-backward iterations
 Coeff-Com: -0.186D+00 0.212D+00-0.177D-01-0.240D-01-0.496D-01-0.110D+00
 Coeff-Com: -0.195D+00-0.723D-01 0.167D+00 0.386D+00 0.583D+00 0.305D+00
 Coeff-En:   0.000D+00 0.000D+00 0.145D+00 0.165D+00 0.428D-02 0.000D+00
 Coeff-En:   0.000D+00 0.000D+00 0.000D+00 0.000D+00 0.000D+00 0.686D+00
 Coeff:     -0.186D+00 0.212D+00-0.174D-01-0.236D-01-0.495D-01-0.109D+00
 Coeff:     -0.194D+00-0.722D-01 0.167D+00 0.385D+00 0.582D+00 0.306D+00
 Gap=     0.039 Goal=   None    Shift=    0.000
 RMSDP=1.04D-05 MaxDP=1.24D-03 DE=-2.93D-06 OVMax= 6.58D-04

 Cycle  13  Pass 1  IDiag  1:
 Density matrix breaks symmetry, PCut= 1.00D-07
 Density matrix has no symmetry -- integrals replicated.
 E= -1271.76850934280     Delta-E=       -0.000001556564 Rises=F Damp=F
 DIIS: error= 1.21D-04 at cycle  13 NSaved=  13.
 NSaved=13 IEnMin=13 EnMin= -1271.76850934280     IErMin=13 ErrMin= 1.21D-04
 ErrMax= 1.21D-04  0.00D+00 EMaxC= 1.00D-01 BMatC= 7.44D-07 BMatP= 1.70D-06
 IDIUse=3 WtCom= 9.99D-01 WtEn= 1.21D-03
 EnCoef did   100 forward-backward iterations
 Coeff-Com: -0.793D-01 0.906D-01-0.256D-02-0.660D-02-0.195D-01-0.497D-01
 Coeff-Com: -0.101D+00-0.643D-01-0.253D-01 0.164D-01 0.444D+00 0.441D+00
 Coeff-Com:  0.356D+00
 Coeff-En:   0.000D+00 0.000D+00 0.157D+00 0.152D+00 0.270D-02 0.141D-02
 Coeff-En:   0.308D-03 0.000D+00 0.000D+00 0.000D+00 0.000D+00 0.000D+00
 Coeff-En:   0.687D+00
 Coeff:     -0.792D-01 0.905D-01-0.237D-02-0.641D-02-0.195D-01-0.496D-01
 Coeff:     -0.101D+00-0.642D-01-0.253D-01 0.164D-01 0.444D+00 0.440D+00
 Coeff:      0.357D+00
 Gap=     0.039 Goal=   None    Shift=    0.000
 RMSDP=6.54D-06 MaxDP=5.79D-04 DE=-1.56D-06 OVMax= 5.94D-04

 Cycle  14  Pass 1  IDiag  1:
 Density matrix breaks symmetry, PCut= 1.00D-07
 Density matrix has no symmetry -- integrals replicated.
 E= -1271.76851033885     Delta-E=       -0.000000996050 Rises=F Damp=F
 DIIS: error= 5.11D-05 at cycle  14 NSaved=  14.
 NSaved=14 IEnMin=14 EnMin= -1271.76851033885     IErMin=14 ErrMin= 5.11D-05
 ErrMax= 5.11D-05  0.00D+00 EMaxC= 1.00D-01 BMatC= 1.32D-07 BMatP= 7.44D-07
 IDIUse=1 WtCom= 1.00D+00 WtEn= 0.00D+00
 Coeff-Com: -0.169D-01 0.194D-01 0.108D-03-0.447D-03-0.174D-04 0.125D-02
 Coeff-Com: -0.129D-02-0.948D-02-0.301D-01-0.504D-01-0.297D-01 0.304D-01
 Coeff-Com:  0.974D-01 0.990D+00
 Coeff:     -0.169D-01 0.194D-01 0.108D-03-0.447D-03-0.174D-04 0.125D-02
 Coeff:     -0.129D-02-0.948D-02-0.301D-01-0.504D-01-0.297D-01 0.304D-01
 Coeff:      0.974D-01 0.990D+00
 Gap=     0.039 Goal=   None    Shift=    0.000
 RMSDP=2.82D-06 MaxDP=1.58D-04 DE=-9.96D-07 OVMax= 3.19D-04

 Cycle  15  Pass 1  IDiag  1:
 Density matrix breaks symmetry, PCut= 1.00D-07
 Density matrix has no symmetry -- integrals replicated.
 E= -1271.76851054108     Delta-E=       -0.000000202229 Rises=F Damp=F
 DIIS: error= 1.16D-05 at cycle  15 NSaved=  15.
 NSaved=15 IEnMin=15 EnMin= -1271.76851054108     IErMin=15 ErrMin= 1.16D-05
 ErrMax= 1.16D-05  0.00D+00 EMaxC= 1.00D-01 BMatC= 6.38D-09 BMatP= 1.32D-07
 IDIUse=1 WtCom= 1.00D+00 WtEn= 0.00D+00
 Coeff-Com: -0.132D-02 0.151D-02-0.972D-03-0.420D-03 0.247D-02 0.855D-02
 Coeff-Com:  0.154D-01 0.861D-02 0.747D-02 0.362D-02-0.116D+00-0.105D+00
 Coeff-Com: -0.617D-01 0.371D+00 0.866D+00
 Coeff:     -0.132D-02 0.151D-02-0.972D-03-0.420D-03 0.247D-02 0.855D-02
 Coeff:      0.154D-01 0.861D-02 0.747D-02 0.362D-02-0.116D+00-0.105D+00
 Coeff:     -0.617D-01 0.371D+00 0.866D+00
 Gap=     0.039 Goal=   None    Shift=    0.000
 RMSDP=6.88D-07 MaxDP=3.93D-05 DE=-2.02D-07 OVMax= 8.36D-05

 Cycle  16  Pass 1  IDiag  1:
 Density matrix breaks symmetry, PCut= 1.00D-07
 Density matrix has no symmetry -- integrals replicated.
 E= -1271.76851055122     Delta-E=       -0.000000010135 Rises=F Damp=F
 DIIS: error= 1.01D-06 at cycle  16 NSaved=  16.
 NSaved=16 IEnMin=16 EnMin= -1271.76851055122     IErMin=16 ErrMin= 1.01D-06
 ErrMax= 1.01D-06  0.00D+00 EMaxC= 1.00D-01 BMatC= 9.18D-11 BMatP= 6.38D-09
 IDIUse=1 WtCom= 1.00D+00 WtEn= 0.00D+00
 Coeff-Com: -0.118D-02 0.135D-02-0.823D-03-0.427D-03 0.146D-02 0.542D-02
 Coeff-Com:  0.102D-01 0.640D-02 0.807D-02 0.773D-02-0.773D-01-0.737D-01
 Coeff-Com: -0.487D-01 0.187D+00 0.642D+00 0.332D+00
 Coeff:     -0.118D-02 0.135D-02-0.823D-03-0.427D-03 0.146D-02 0.542D-02
 Coeff:      0.102D-01 0.640D-02 0.807D-02 0.773D-02-0.773D-01-0.737D-01
 Coeff:     -0.487D-01 0.187D+00 0.642D+00 0.332D+00
 Gap=     0.039 Goal=   None    Shift=    0.000
 RMSDP=1.67D-07 MaxDP=2.04D-05 DE=-1.01D-08 OVMax= 3.38D-05

 Cycle  17  Pass 1  IDiag  1:
 Density matrix breaks symmetry, PCut= 1.00D-07
 Density matrix has no symmetry -- integrals replicated.
 E= -1271.76851055117     Delta-E=        0.000000000044 Rises=F Damp=F
 DIIS: error= 1.30D-06 at cycle  17 NSaved=  17.
 NSaved=17 IEnMin=16 EnMin= -1271.76851055122     IErMin=16 ErrMin= 1.01D-06
 ErrMax= 1.30D-06  0.00D+00 EMaxC= 1.00D-01 BMatC= 1.12D-10 BMatP= 9.18D-11
 IDIUse=1 WtCom= 1.00D+00 WtEn= 0.00D+00
 Coeff-Com: -0.190D-02 0.217D-02-0.317D-03-0.338D-03-0.617D-03-0.130D-02
 Coeff-Com: -0.175D-02 0.536D-04 0.470D-02 0.914D-02 0.761D-02 0.192D-02
 Coeff-Com: -0.621D-02-0.111D+00 0.857D-01 0.575D+00 0.437D+00
 Coeff:     -0.190D-02 0.217D-02-0.317D-03-0.338D-03-0.617D-03-0.130D-02
 Coeff:     -0.175D-02 0.536D-04 0.470D-02 0.914D-02 0.761D-02 0.192D-02
 Coeff:     -0.621D-02-0.111D+00 0.857D-01 0.575D+00 0.437D+00
 Gap=     0.039 Goal=   None    Shift=    0.000
 DSYEVD-2 returned Info=       70916 IAlg= 4 N=   306 NDim=   306 NE2=    33162401 trying  DSYEV.
 RMSDP=1.04D-07 MaxDP=1.20D-05 DE= 4.43D-11 OVMax= 1.98D-05

 Cycle  18  Pass 1  IDiag  1:
 Density matrix breaks symmetry, PCut= 1.00D-07
 Density matrix has no symmetry -- integrals replicated.
 E= -1271.76851055127     Delta-E=       -0.000000000101 Rises=F Damp=F
 DIIS: error= 1.36D-06 at cycle  18 NSaved=  18.
 NSaved=18 IEnMin=18 EnMin= -1271.76851055127     IErMin=16 ErrMin= 1.01D-06
 ErrMax= 1.36D-06  0.00D+00 EMaxC= 1.00D-01 BMatC= 8.21D-11 BMatP= 9.18D-11
 IDIUse=1 WtCom= 1.00D+00 WtEn= 0.00D+00
 Coeff-Com: -0.874D-03 0.999D-03-0.372D-05-0.458D-04-0.132D-03-0.700D-03
 Coeff-Com: -0.192D-02-0.113D-02 0.162D-02 0.434D-02 0.856D-02 0.473D-02
 Coeff-Com: -0.126D-02-0.713D-01-0.114D-01 0.222D+00 0.192D+00 0.654D+00
 Coeff:     -0.874D-03 0.999D-03-0.372D-05-0.458D-04-0.132D-03-0.700D-03
 Coeff:     -0.192D-02-0.113D-02 0.162D-02 0.434D-02 0.856D-02 0.473D-02
 Coeff:     -0.126D-02-0.713D-01-0.114D-01 0.222D+00 0.192D+00 0.654D+00
 Gap=     0.039 Goal=   None    Shift=    0.000
 RMSDP=6.86D-08 MaxDP=5.19D-06 DE=-1.01D-10 OVMax= 6.57D-06

 Cycle  19  Pass 1  IDiag  1:
 Density matrix breaks symmetry, PCut= 1.00D-07
 Density matrix has no symmetry -- integrals replicated.
 E= -1271.76851055138     Delta-E=       -0.000000000107 Rises=F Damp=F
 DIIS: error= 5.52D-07 at cycle  19 NSaved=  19.
 NSaved=19 IEnMin=19 EnMin= -1271.76851055138     IErMin=19 ErrMin= 5.52D-07
 ErrMax= 5.52D-07  0.00D+00 EMaxC= 1.00D-01 BMatC= 1.98D-11 BMatP= 8.21D-11
 IDIUse=1 WtCom= 1.00D+00 WtEn= 0.00D+00
 Coeff-Com: -0.283D-03 0.324D-03 0.959D-04 0.701D-04 0.194D-03-0.351D-04
 Coeff-Com: -0.126D-02-0.130D-02 0.607D-03 0.229D-02 0.391D-02 0.149D-02
 Coeff-Com: -0.145D-02-0.355D-01-0.172D-01 0.607D-01 0.631D-01 0.523D+00
 Coeff-Com:  0.401D+00
 Coeff:     -0.283D-03 0.324D-03 0.959D-04 0.701D-04 0.194D-03-0.351D-04
 Coeff:     -0.126D-02-0.130D-02 0.607D-03 0.229D-02 0.391D-02 0.149D-02
 Coeff:     -0.145D-02-0.355D-01-0.172D-01 0.607D-01 0.631D-01 0.523D+00
 Coeff:      0.401D+00
 Gap=     0.039 Goal=   None    Shift=    0.000
 RMSDP=6.72D-08 MaxDP=5.85D-06 DE=-1.07D-10 OVMax= 6.28D-06

 Cycle  20  Pass 1  IDiag  1:
 Density matrix breaks symmetry, PCut= 1.00D-07
 Density matrix has no symmetry -- integrals replicated.
 E= -1271.76851055141     Delta-E=       -0.000000000026 Rises=F Damp=F
 DIIS: error= 2.09D-07 at cycle  20 NSaved=  20.
 NSaved=20 IEnMin=20 EnMin= -1271.76851055141     IErMin=20 ErrMin= 2.09D-07
 ErrMax= 2.09D-07  0.00D+00 EMaxC= 1.00D-01 BMatC= 5.67D-12 BMatP= 1.98D-11
 IDIUse=1 WtCom= 1.00D+00 WtEn= 0.00D+00
 Coeff-Com:  0.782D-03-0.893D-03 0.212D-03 0.231D-03 0.761D-03 0.129D-02
 Coeff-Com:  0.406D-03-0.120D-02-0.743D-03-0.790D-03-0.718D-02-0.675D-02
 Coeff-Com: -0.335D-02 0.353D-01 0.353D-02-0.192D+00-0.153D+00-0.325D-01
 Coeff-Com:  0.797D+00 0.560D+00
 Coeff:      0.782D-03-0.893D-03 0.212D-03 0.231D-03 0.761D-03 0.129D-02
 Coeff:      0.406D-03-0.120D-02-0.743D-03-0.790D-03-0.718D-02-0.675D-02
 Coeff:     -0.335D-02 0.353D-01 0.353D-02-0.192D+00-0.153D+00-0.325D-01
 Coeff:      0.797D+00 0.560D+00
 Gap=     0.039 Goal=   None    Shift=    0.000
 RMSDP=5.98D-08 MaxDP=3.11D-06 DE=-2.59D-11 OVMax= 8.73D-06

 Cycle  21  Pass 1  IDiag  1:
 Density matrix breaks symmetry, PCut= 1.00D-07
 Density matrix has no symmetry -- integrals replicated.
 E= -1271.76851055139     Delta-E=        0.000000000016 Rises=F Damp=F
 DIIS: error= 5.07D-07 at cycle  21 NSaved=  20.
 NSaved=20 IEnMin=19 EnMin= -1271.76851055141     IErMin=19 ErrMin= 2.09D-07
 ErrMax= 5.07D-07  0.00D+00 EMaxC= 1.00D-01 BMatC= 1.72D-11 BMatP= 5.67D-12
 IDIUse=1 WtCom= 1.00D+00 WtEn= 0.00D+00
 Coeff-Com: -0.436D-08 0.134D-03 0.150D-03 0.685D-03 0.131D-02 0.586D-03
 Coeff-Com: -0.938D-03-0.180D-03 0.991D-04-0.989D-02-0.879D-02-0.337D-02
 Coeff-Com:  0.629D-01 0.240D-01-0.262D+00-0.222D+00-0.437D+00 0.750D+00
 Coeff-Com:  0.748D+00 0.355D+00
 Coeff:     -0.436D-08 0.134D-03 0.150D-03 0.685D-03 0.131D-02 0.586D-03
 Coeff:     -0.938D-03-0.180D-03 0.991D-04-0.989D-02-0.879D-02-0.337D-02
 Coeff:      0.629D-01 0.240D-01-0.262D+00-0.222D+00-0.437D+00 0.750D+00
 Coeff:      0.748D+00 0.355D+00
 Gap=     0.039 Goal=   None    Shift=    0.000
 RMSDP=8.05D-08 MaxDP=7.38D-06 DE= 1.64D-11 OVMax= 6.69D-06

 Cycle  22  Pass 1  IDiag  1:
 Density matrix breaks symmetry, PCut= 1.00D-07
 Density matrix has no symmetry -- integrals replicated.
 E= -1271.76851055142     Delta-E=       -0.000000000031 Rises=F Damp=F
 DIIS: error= 7.63D-08 at cycle  22 NSaved=  20.
 NSaved=20 IEnMin=20 EnMin= -1271.76851055142     IErMin=20 ErrMin= 7.63D-08
 ErrMax= 7.63D-08  0.00D+00 EMaxC= 1.00D-01 BMatC= 9.19D-13 BMatP= 5.67D-12
 IDIUse=1 WtCom= 1.00D+00 WtEn= 0.00D+00
 Coeff-Com:  0.391D-04 0.588D-04 0.414D-03 0.900D-03 0.692D-03-0.218D-03
 Coeff-Com:  0.253D-03 0.471D-03-0.818D-02-0.719D-02-0.308D-02 0.460D-01
 Coeff-Com:  0.344D-01-0.154D+00-0.140D+00-0.482D+00 0.311D+00 0.470D+00
 Coeff-Com:  0.394D+00 0.536D+00
 Coeff:      0.391D-04 0.588D-04 0.414D-03 0.900D-03 0.692D-03-0.218D-03
 Coeff:      0.253D-03 0.471D-03-0.818D-02-0.719D-02-0.308D-02 0.460D-01
 Coeff:      0.344D-01-0.154D+00-0.140D+00-0.482D+00 0.311D+00 0.470D+00
 Coeff:      0.394D+00 0.536D+00
 Gap=     0.039 Goal=   None    Shift=    0.000
 RMSDP=4.66D-08 MaxDP=4.67D-06 DE=-3.12D-11 OVMax= 2.37D-06

 Cycle  23  Pass 1  IDiag  1:
 Density matrix breaks symmetry, PCut= 1.00D-07
 Density matrix has no symmetry -- integrals replicated.
 E= -1271.76851055142     Delta-E=       -0.000000000001 Rises=F Damp=F
 DIIS: error= 8.36D-08 at cycle  23 NSaved=  20.
 NSaved=20 IEnMin=20 EnMin= -1271.76851055142     IErMin=19 ErrMin= 7.63D-08
 ErrMax= 8.36D-08  0.00D+00 EMaxC= 1.00D-01 BMatC= 1.28D-12 BMatP= 9.19D-13
 IDIUse=1 WtCom= 1.00D+00 WtEn= 0.00D+00
 Coeff-Com:  0.129D-04 0.188D-03 0.470D-03 0.555D-03 0.165D-03 0.337D-03
 Coeff-Com:  0.370D-03-0.487D-02-0.425D-02-0.196D-02 0.238D-01 0.299D-01
 Coeff-Com: -0.536D-01-0.566D-01-0.365D+00-0.132D-02 0.191D+00 0.295D+00
 Coeff-Com:  0.640D+00 0.306D+00
 Coeff:      0.129D-04 0.188D-03 0.470D-03 0.555D-03 0.165D-03 0.337D-03
 Coeff:      0.370D-03-0.487D-02-0.425D-02-0.196D-02 0.238D-01 0.299D-01
 Coeff:     -0.536D-01-0.566D-01-0.365D+00-0.132D-02 0.191D+00 0.295D+00
 Coeff:      0.640D+00 0.306D+00
 Gap=     0.039 Goal=   None    Shift=    0.000
 RMSDP=3.61D-08 MaxDP=3.27D-06 DE=-1.14D-12 OVMax= 1.77D-06

 Cycle  24  Pass 1  IDiag  1:
 Density matrix breaks symmetry, PCut= 1.00D-07
 Density matrix has no symmetry -- integrals replicated.
 E= -1271.76851055143     Delta-E=       -0.000000000003 Rises=F Damp=F
 DIIS: error= 1.95D-08 at cycle  24 NSaved=  20.
 NSaved=20 IEnMin=20 EnMin= -1271.76851055143     IErMin=20 ErrMin= 1.95D-08
 ErrMax= 1.95D-08  0.00D+00 EMaxC= 1.00D-01 BMatC= 4.25D-14 BMatP= 9.19D-13
 IDIUse=1 WtCom= 1.00D+00 WtEn= 0.00D+00
 Coeff-Com:  0.375D-04 0.102D-03 0.156D-03 0.938D-04 0.133D-03 0.123D-03
 Coeff-Com: -0.129D-02-0.112D-02-0.515D-03 0.616D-02 0.126D-01-0.129D-02
 Coeff-Com: -0.650D-02-0.138D+00-0.740D-01 0.172D-01 0.100D+00 0.286D+00
 Coeff-Com:  0.190D+00 0.609D+00
 Coeff:      0.375D-04 0.102D-03 0.156D-03 0.938D-04 0.133D-03 0.123D-03
 Coeff:     -0.129D-02-0.112D-02-0.515D-03 0.616D-02 0.126D-01-0.129D-02
 Coeff:     -0.650D-02-0.138D+00-0.740D-01 0.172D-01 0.100D+00 0.286D+00
 Coeff:      0.190D+00 0.609D+00
 Gap=     0.039 Goal=   None    Shift=    0.000
 RMSDP=2.64D-08 MaxDP=2.48D-06 DE=-2.73D-12 OVMax= 8.23D-07

 Cycle  25  Pass 1  IDiag  1:
 Density matrix breaks symmetry, PCut= 1.00D-07
 Density matrix has no symmetry -- integrals replicated.
 E= -1271.76851055143     Delta-E=       -0.000000000004 Rises=F Damp=F
 DIIS: error= 3.09D-08 at cycle  25 NSaved=  20.
 NSaved=20 IEnMin=20 EnMin= -1271.76851055143     IErMin=19 ErrMin= 1.95D-08
 ErrMax= 3.09D-08  0.00D+00 EMaxC= 1.00D-01 BMatC= 7.42D-14 BMatP= 4.25D-14
 IDIUse=1 WtCom= 1.00D+00 WtEn= 0.00D+00
 Coeff-Com:  0.135D-04 0.802D-04 0.878D-04 0.241D-04-0.224D-04-0.250D-03
 Coeff-Com: -0.193D-03-0.146D-03 0.136D-03 0.548D-02 0.139D-01 0.929D-02
 Coeff-Com: -0.321D-01-0.731D-01-0.390D-01 0.115D-01 0.898D-01 0.955D-01
 Coeff-Com:  0.613D+00 0.306D+00
 Coeff:      0.135D-04 0.802D-04 0.878D-04 0.241D-04-0.224D-04-0.250D-03
 Coeff:     -0.193D-03-0.146D-03 0.136D-03 0.548D-02 0.139D-01 0.929D-02
 Coeff:     -0.321D-01-0.731D-01-0.390D-01 0.115D-01 0.898D-01 0.955D-01
 Coeff:      0.613D+00 0.306D+00
 Gap=     0.039 Goal=   None    Shift=    0.000
 RMSDP=1.91D-08 MaxDP=1.71D-06 DE=-4.09D-12 OVMax= 6.35D-07

 Cycle  26  Pass 1  IDiag  1:
 Density matrix breaks symmetry, PCut= 1.00D-07
 Density matrix has no symmetry -- integrals replicated.
 E= -1271.76851055143     Delta-E=        0.000000000001 Rises=F Damp=F
 DIIS: error= 3.52D-09 at cycle  26 NSaved=  20.
 NSaved=20 IEnMin=19 EnMin= -1271.76851055143     IErMin=20 ErrMin= 3.52D-09
 ErrMax= 3.52D-09  0.00D+00 EMaxC= 1.00D-01 BMatC= 2.49D-15 BMatP= 4.25D-14
 IDIUse=1 WtCom= 1.00D+00 WtEn= 0.00D+00
 Large coefficients: NSaved= 20 BigCof=    0.00 CofMax=   10.00 Det=-9.61D-15
 Inversion failed.  Reducing to 19 matrices.
 Coeff-Com:  0.258D-05 0.580D-05 0.113D-04 0.121D-04 0.110D-05-0.341D-04
 Coeff-Com: -0.612D-03 0.134D-02 0.677D-02 0.520D-02 0.469D-02-0.199D-01
 Coeff-Com: -0.189D-01-0.107D-01-0.860D-02 0.831D-02 0.154D+00 0.150D+00
 Coeff-Com:  0.729D+00
 Coeff:      0.258D-05 0.580D-05 0.113D-04 0.121D-04 0.110D-05-0.341D-04
 Coeff:     -0.612D-03 0.134D-02 0.677D-02 0.520D-02 0.469D-02-0.199D-01
 Coeff:     -0.189D-01-0.107D-01-0.860D-02 0.831D-02 0.154D+00 0.150D+00
 Coeff:      0.729D+00
 Gap=     0.039 Goal=   None    Shift=    0.000
 RMSDP=5.42D-09 MaxDP=4.77D-07 DE= 9.09D-13 OVMax= 1.88D-07

 Density matrix breaks symmetry, PCut= 1.00D-07
 Density matrix has no symmetry -- integrals replicated.
 SCF Done:  E(ROHF) =  -1271.76851055     A.U. after   26 cycles
            NFock= 26  Conv=0.54D-08     -V/T= 1.9592
 <Sx>= 0.0000 <Sy>= 0.0000 <Sz>= 1.5000 <S**2>= 3.7500 S= 1.5000
 <L.S>=  0.00000000000    
 KE= 1.325902868229D+03 PE=-3.107904624435D+03 EE= 4.987677394181D+02
 Annihilation of the first spin contaminant:
 S**2 before annihilation     3.7500,   after     3.7500
 Leave Link  502 at Wed Mar  7 11:36:24 2018, MaxMem= 10737418240 cpu:            1463.9 elap:              71.4
 (Enter /home1/apps/gaussian/16rA.03/g16/l801.exe)
 Windowed orbitals will be sorted by symmetry type.
 An orbital has undefined symmetry, so N**3 symmetry is turned off.
 Density matrix breaks symmetry, PCut= 1.00D-07
 Density matrix has no symmetry -- integrals replicated.
 GenMOA:  NOpAll=  4 NOp2=4 NOpUse=  1 JSym2X=2
 FoFJK:  IHMeth= 1 ICntrl=       0 DoSepK=F KAlg= 0 I1Cent=           0 FoldK=F
 IRaf=         0 NMat=       1 IRICut=       1 DoRegI=T DoRafI=F ISym2E= 2 IDoP0=0 IntGTp=1.
 FoFCou: FMM=F IPFlag=           8 FMFlag=      100000 FMFlg1=           0
         NFxFlg=           0 DoJE=F BraDBF=F KetDBF=F FulRan=T
         wScrn=  0.000000 ICntrl=         0 IOpCl=  1 I1Cent=           0 NGrid=           0
         NMat0=    1 NMatS0=      1 NMatT0=    0 NMatD0=    1 NMtDS0=    0 NMtDT0=    0
 Integrals replicated using symmetry in FoFCou.
 <Sx>= 0.0000 <Sy>= 0.0000 <Sz>= 1.5000 <S**2>= 3.7500 S= 1.5000
 Range of M.O.s used for correlation:     1   306
 NBasis=   310 NAE=    15 NBE=    12 NFC=     0 NFV=     0
 NROrb=    306 NOA=    15 NOB=    12 NVA=   291 NVB=   294

 **** Warning!!: The largest alpha MO coefficient is  0.22849944D+03


 **** Warning!!: The largest beta MO coefficient is  0.22844289D+03

 Singles contribution to E2=   -0.7244681715D-02
 Leave Link  801 at Wed Mar  7 11:36:56 2018, MaxMem= 10737418240 cpu:            1016.9 elap:              31.8
 (Enter /home1/apps/gaussian/16rA.03/g16/l804.exe)
 Open-shell transformation, MDV= 10737418240 ITran=4 ISComp=1.
 Unit  1 TFree=       2906940 TCopy=       2284531.
 Semi-Direct transformation.
 ModeAB=           2 MOrb=            15 LenV=   10734534955
 LASXX=    208128765 LTotXX=   208128765 LenRXX=   208128765
 LTotAB=   210664935 MaxLAS=   371803770 LenRXY=   371803770
 NonZer=   416257530 LenScr=   626835456 LnRSAI=           0
 LnScr1=           0 LExtra=    25076524 Total=   1231844515
 MaxDsk= 67108864000 SrtSym=           F ITran=            4
 DoSDTr:  NPSUse= 32
 JobTyp=1 Pass  1:  I=   1 to  15.
 (rs|ai) integrals will be sorted in core.
 Complete sort for first half transformation.
 First half transformation complete.
 Begin second half transformation for I=  10.
 Begin second half transformation for I=  10.
 Complete sort for second half transformation.
 Second half transformation complete.
 ModeAB=           2 MOrb=            12 LenV=   10734534955
 LASXX=    167479017 LTotXX=   167479017 LenRXX=   297443016
 LTotAB=   153204516 MaxLAS=   297443016 LenRXY=   153204516
 NonZer=   334958034 LenScr=   504408064 LnRSAI=           0
 LnScr1=           0 LExtra=   605009059 Total=   1560064655
 MaxDsk= 67108864000 SrtSym=           F ITran=            4
 DoSDTr:  NPSUse= 32
 JobTyp=2 Pass  1:  I=   1 to  12.
 (rs|ai) integrals will be sorted in core.
 Complete sort for first half transformation.
 First half transformation complete.
 Begin second half transformation for I=  10.
 Begin second half transformation for I=  10.
 Complete sort for second half transformation.
 Second half transformation complete.
 SymMOI:  orbitals are not symmetric.
 Spin components of T(2) and E(2):
     alpha-alpha T2 =       0.3069103551D-01 E2=     -0.2413080544D+00
     alpha-beta  T2 =       0.9716831273D-01 E2=     -0.8449839313D+00
     beta-beta   T2 =       0.1233629595D-01 E2=     -0.1338671212D+00
 ANorm=    0.1069254030D+01
 E2 =    -0.1227403789D+01 EUMP2 =    -0.12729959143400D+04
 (S**2,0)=  0.37500D+01           (S**2,1)=  0.37500D+01
 E(PUHF)=      -0.12717685106D+04        E(PMP2)=      -0.12729959143D+04
 Leave Link  804 at Wed Mar  7 11:47:00 2018, MaxMem= 10737418240 cpu:           19292.8 elap:             603.5
 (Enter /home1/apps/gaussian/16rA.03/g16/l913.exe)
 CIDS:  MDV= 10737418240.
 IFCWin=0 IBDFC=1 NFBD=     0     0 NFCmp=     0     0 NFFFC=     0     0
 Using original routines for 1st iteration.
 Using DD4UQ or CC4UQ for 2nd and later iterations.
 Keep R2 and R3 ints in memory in symmetry-blocked form, NReq=1456579504.
 FoFCou: FMM=F IPFlag=           8 FMFlag=           0 FMFlg1=           0
         NFxFlg=           0 DoJE=F BraDBF=F KetDBF=F FulRan=T
         wScrn=  0.000000 ICntrl=       600 IOpCl=  0 I1Cent=           0 NGrid=           0
         NMat0=    1 NMatS0=  48205 NMatT0=    0 NMatD0=    1 NMtDS0=    0 NMtDT0=    0
 Petite list used in FoFCou.
 CIDS: In Core Option IDoMem=           1.
 CCSD(T)
 =======
 Iterations= 150 Convergence= 0.100D-06
 Produce multiple copies of IABC intergrals
 Iteration Nr.   1
 **********************
 DD1Dir will call FoFMem   1 times, MxPair=       532
 NAB=   180 NAA=   105 NBB=    66.
 DD1Dir will call FoFMem   1 times, MxPair=       532
 NAB=   180 NAA=   105 NBB=    66.
 MP4(R+Q)= -0.73235979D-01
 Maximum subspace dimension=  5
 A-vector RMS=  3.7034828D-04 Max=  6.1997333D-03 conv= 1.00D-05.
 RLE energy=       -1.2182539511
 E3=        0.82048555D-01        EROMP3=      -0.12729138658D+04
 E4(SDQ)=  -0.40434044D-01        ROMP4(SDQ)=  -0.12729542998D+04
 VARIATIONAL ENERGIES WITH THE FIRST-ORDER WAVEFUNCTION:
 DE(Corr)=  -1.2181841     E(Corr)=     -1272.9866947    
 NORM(A)=   0.10642645D+01
 Iteration Nr.   2
 **********************
 DD1Dir will call FoFMem   1 times, MxPair=       532
 NAB=   180 NAA=   105 NBB=    66.
 A-vector RMS=  2.1704173D-03 Max=  2.8712429D-02 conv= 1.00D-05.
 RLE energy=       -1.1959259944
 DE(Corr)=  -1.1351550     E(CORR)=     -1272.9036655     Delta= 8.30D-02
 NORM(A)=   0.10608390D+01
 Iteration Nr.   3
 **********************
 DD1Dir will call FoFMem   1 times, MxPair=       532
 NAB=   180 NAA=   105 NBB=    66.
 A-vector RMS=  1.5082752D-03 Max=  1.8592969D-02 conv= 1.00D-05.
 RLE energy=       -1.1882091543
 DE(Corr)=  -1.1460149     E(CORR)=     -1272.9145254     Delta=-1.09D-02
 NORM(A)=   0.10631143D+01
 Iteration Nr.   4
 **********************
 DD1Dir will call FoFMem   1 times, MxPair=       532
 NAB=   180 NAA=   105 NBB=    66.
 A-vector RMS=  1.2895311D-03 Max=  1.8032956D-02 conv= 1.00D-05.
 RLE energy=       -1.1690726641
 DE(Corr)=  -1.1537927     E(CORR)=     -1272.9223032     Delta=-7.78D-03
 NORM(A)=   0.10712309D+01
 Iteration Nr.   5
 **********************
 DD1Dir will call FoFMem   1 times, MxPair=       532
 NAB=   180 NAA=   105 NBB=    66.
 A-vector RMS=  3.8164355D-04 Max=  6.9225487D-03 conv= 1.00D-05.
 RLE energy=       -1.1718609861
 DE(Corr)=  -1.1715163     E(CORR)=     -1272.9400269     Delta=-1.77D-02
 NORM(A)=   0.10759184D+01
 Iteration Nr.   6
 **********************
 DD1Dir will call FoFMem   1 times, MxPair=       532
 NAB=   180 NAA=   105 NBB=    66.
 A-vector RMS=  2.6551123D-04 Max=  7.6930817D-03 conv= 1.00D-05.
 RLE energy=       -1.1718886842
 DE(Corr)=  -1.1712644     E(CORR)=     -1272.9397749     Delta= 2.52D-04
 NORM(A)=   0.10801852D+01
 Iteration Nr.   7
 **********************
 DD1Dir will call FoFMem   1 times, MxPair=       532
 NAB=   180 NAA=   105 NBB=    66.
 A-vector RMS=  1.7123748D-04 Max=  4.1638918D-03 conv= 1.00D-05.
 RLE energy=       -1.1718920575
 DE(Corr)=  -1.1718356     E(CORR)=     -1272.9403461     Delta=-5.71D-04
 NORM(A)=   0.10827958D+01
 Iteration Nr.   8
 **********************
 DD1Dir will call FoFMem   1 times, MxPair=       532
 NAB=   180 NAA=   105 NBB=    66.
 A-vector RMS=  1.4257082D-04 Max=  3.4406608D-03 conv= 1.00D-05.
 RLE energy=       -1.1719918198
 DE(Corr)=  -1.1721321     E(CORR)=     -1272.9406427     Delta=-2.97D-04
 NORM(A)=   0.10849125D+01
 Iteration Nr.   9
 **********************
 DD1Dir will call FoFMem   1 times, MxPair=       532
 NAB=   180 NAA=   105 NBB=    66.
 A-vector RMS=  8.0984541D-05 Max=  2.0164579D-03 conv= 1.00D-05.
 RLE energy=       -1.1721619880
 DE(Corr)=  -1.1720666     E(CORR)=     -1272.9405771     Delta= 6.55D-05
 NORM(A)=   0.10861016D+01
 Iteration Nr.  10
 **********************
 DD1Dir will call FoFMem   1 times, MxPair=       532
 NAB=   180 NAA=   105 NBB=    66.
 A-vector RMS=  3.1228505D-05 Max=  6.9410762D-04 conv= 1.00D-05.
 RLE energy=       -1.1720083898
 DE(Corr)=  -1.1720519     E(CORR)=     -1272.9405625     Delta= 1.46D-05
 NORM(A)=   0.10862965D+01
 Iteration Nr.  11
 **********************
 DD1Dir will call FoFMem   1 times, MxPair=       532
 NAB=   180 NAA=   105 NBB=    66.
 A-vector RMS=  2.1538010D-05 Max=  6.8721241D-04 conv= 1.00D-05.
 RLE energy=       -1.1721145364
 DE(Corr)=  -1.1721217     E(CORR)=     -1272.9406322     Delta=-6.97D-05
 NORM(A)=   0.10864487D+01
 Iteration Nr.  12
 **********************
 DD1Dir will call FoFMem   1 times, MxPair=       532
 NAB=   180 NAA=   105 NBB=    66.
 A-vector RMS=  1.5879891D-05 Max=  3.9824336D-04 conv= 1.00D-05.
 RLE energy=       -1.1720957108
 DE(Corr)=  -1.1720786     E(CORR)=     -1272.9405891     Delta= 4.31D-05
 NORM(A)=   0.10865980D+01
 Iteration Nr.  13
 **********************
 DD1Dir will call FoFMem   1 times, MxPair=       532
 NAB=   180 NAA=   105 NBB=    66.
 A-vector RMS=  1.1226821D-05 Max=  1.9257869D-04 conv= 1.00D-05.
 RLE energy=       -1.1721192053
 DE(Corr)=  -1.1721233     E(CORR)=     -1272.9406339     Delta=-4.48D-05
 NORM(A)=   0.10866336D+01
 Iteration Nr.  14
 **********************
 DD1Dir will call FoFMem   1 times, MxPair=       532
 NAB=   180 NAA=   105 NBB=    66.
 A-vector RMS=  8.2903330D-06 Max=  2.0767503D-04 conv= 1.00D-05.
 RLE energy=       -1.1721238406
 DE(Corr)=  -1.1721160     E(CORR)=     -1272.9406265     Delta= 7.33D-06
 NORM(A)=   0.10866694D+01
 Iteration Nr.  15
 **********************
 DD1Dir will call FoFMem   1 times, MxPair=       532
 NAB=   180 NAA=   105 NBB=    66.
 A-vector RMS=  4.8272688D-06 Max=  8.7272715D-05 conv= 1.00D-05.
 RLE energy=       -1.1721228879
 DE(Corr)=  -1.1721215     E(CORR)=     -1272.9406321     Delta=-5.54D-06
 NORM(A)=   0.10866944D+01
 Iteration Nr.  16
 **********************
 DD1Dir will call FoFMem   1 times, MxPair=       532
 NAB=   180 NAA=   105 NBB=    66.
 A-vector RMS=  4.0122927D-06 Max=  1.1701052D-04 conv= 1.00D-05.
 RLE energy=       -1.1721267322
 DE(Corr)=  -1.1721276     E(CORR)=     -1272.9406381     Delta=-6.05D-06
 NORM(A)=   0.10867080D+01
 Iteration Nr.  17
 **********************
 DD1Dir will call FoFMem   1 times, MxPair=       532
 NAB=   180 NAA=   105 NBB=    66.
 A-vector RMS=  2.1772131D-06 Max=  4.2807389D-05 conv= 1.00D-05.
 RLE energy=       -1.1721289837
 DE(Corr)=  -1.1721267     E(CORR)=     -1272.9406373     Delta= 8.42D-07
 NORM(A)=   0.10867238D+01
 Iteration Nr.  18
 **********************
 DD1Dir will call FoFMem   1 times, MxPair=       532
 NAB=   180 NAA=   105 NBB=    66.
 A-vector RMS=  1.5638532D-06 Max=  4.2379128D-05 conv= 1.00D-05.
 RLE energy=       -1.1721270756
 DE(Corr)=  -1.1721272     E(CORR)=     -1272.9406377     Delta=-4.48D-07
 NORM(A)=   0.10867364D+01
 Iteration Nr.  19
 **********************
 DD1Dir will call FoFMem   1 times, MxPair=       532
 NAB=   180 NAA=   105 NBB=    66.
 A-vector RMS=  1.2033416D-06 Max=  3.3817656D-05 conv= 1.00D-05.
 RLE energy=       -1.1721303878
 DE(Corr)=  -1.1721306     E(CORR)=     -1272.9406411     Delta=-3.41D-06
 NORM(A)=   0.10867458D+01
 Iteration Nr.  20
 **********************
 DD1Dir will call FoFMem   1 times, MxPair=       532
 NAB=   180 NAA=   105 NBB=    66.
 A-vector RMS=  8.2401336D-07 Max=  2.0882478D-05 conv= 1.00D-05.
 RLE energy=       -1.1721306438
 DE(Corr)=  -1.1721293     E(CORR)=     -1272.9406398     Delta= 1.33D-06
 NORM(A)=   0.10867598D+01
 Iteration Nr.  21
 **********************
 DD1Dir will call FoFMem   1 times, MxPair=       532
 NAB=   180 NAA=   105 NBB=    66.
 A-vector RMS=  5.7090604D-07 Max=  1.3838588D-05 conv= 1.00D-05.
 RLE energy=       -1.1721308226
 DE(Corr)=  -1.1721308     E(CORR)=     -1272.9406414     Delta=-1.57D-06
 NORM(A)=   0.10867681D+01
 Iteration Nr.  22
 **********************
 DD1Dir will call FoFMem   1 times, MxPair=       532
 NAB=   180 NAA=   105 NBB=    66.
 A-vector RMS=  4.1202165D-07 Max=  9.6069512D-06 conv= 1.00D-05.
 RLE energy=       -1.1721316664
 DE(Corr)=  -1.1721315     E(CORR)=     -1272.9406421     Delta=-7.16D-07
 NORM(A)=   0.10867730D+01
 Iteration Nr.  23
 **********************
 DD1Dir will call FoFMem   1 times, MxPair=       532
 NAB=   180 NAA=   105 NBB=    66.
 A-vector RMS=  2.7892411D-07 Max=  7.4416346D-06 conv= 1.00D-05.
 RLE energy=       -1.1721317806
 DE(Corr)=  -1.1721314     E(CORR)=     -1272.9406420     Delta= 1.33D-07
 NORM(A)=   0.10867769D+01
 Iteration Nr.  24
 **********************
 DD1Dir will call FoFMem   1 times, MxPair=       532
 NAB=   180 NAA=   105 NBB=    66.
 A-vector RMS=  1.5620379D-07 Max=  4.2847195D-06 conv= 1.00D-05.
 RLE energy=       -1.1721316011
 DE(Corr)=  -1.1721317     E(CORR)=     -1272.9406422     Delta=-2.58D-07
 NORM(A)=   0.10867786D+01
 Iteration Nr.  25
 **********************
 DD1Dir will call FoFMem   1 times, MxPair=       532
 NAB=   180 NAA=   105 NBB=    66.
 A-vector RMS=  1.1866734D-07 Max=  3.9743255D-06 conv= 1.00D-05.
 RLE energy=       -1.1721319084
 DE(Corr)=  -1.1721319     E(CORR)=     -1272.9406424     Delta=-2.19D-07
 NORM(A)=   0.10867794D+01
 Iteration Nr.  26
 **********************
 DD1Dir will call FoFMem   1 times, MxPair=       532
 NAB=   180 NAA=   105 NBB=    66.
 A-vector RMS=  8.2015867D-08 Max=  2.0969854D-06 conv= 1.00D-05.
 RLE energy=       -1.1721318022
 DE(Corr)=  -1.1721317     E(CORR)=     -1272.9406423     Delta= 1.87D-07
 NORM(A)=   0.10867797D+01
 Iteration Nr.  27
 **********************
 DD1Dir will call FoFMem   1 times, MxPair=       532
 NAB=   180 NAA=   105 NBB=    66.
 A-vector RMS=  3.6272750D-08 Max=  7.6327855D-07 conv= 1.00D-05.
 RLE energy=       -1.1721317680
 DE(Corr)=  -1.1721318     E(CORR)=     -1272.9406423     Delta=-9.38D-08
 NORM(A)=   0.10867798D+01
 CI/CC converged in   27 iterations to DelEn=-9.38D-08 Conv= 1.00D-07 ErrA1= 3.63D-08 Conv= 1.00D-05
 Wavefunction amplitudes converged. E(Corr)=     -1272.9406423    
 Dominant configurations:
 ***********************
 Spin Case        I    J    A    B          Value
    BB           12        17            0.105430D+00
 Largest amplitude= 1.05D-01
 Time for triples=   338799.32 seconds.
 T4(CCSD)= -0.34591980D-01
 T5(CCSD)=  0.25763308D-02
 CCSD(T)= -0.12729726580D+04
 Discarding MO integrals.
 Leave Link  913 at Wed Mar  7 15:35:18 2018, MaxMem= 10737418240 cpu:          434690.5 elap:           13697.5
 (Enter /home1/apps/gaussian/16rA.03/g16/l601.exe)
 Copying SCF densities to generalized density rwf, IOpCl= 0 IROHF=1.
 SCF density gives NOpUse=  1 NOpAll=  4.
 Marking SCF density as not fully symmetric.

 **********************************************************************

            Population analysis using the SCF density.

 **********************************************************************

 Orbital symmetries:
       Occupied  (SG) (SG) (SG) (PI) (PI) (SG) (SG) (PI) (PI) (SG)
                 (DLTA) (SG) (PI) (PI) (DLTA)
       Virtual   (SG) (PI) (PI) (SG) (SG) (SG) (PI) (PI) (DLTA)
                 (DLTA) (PI) (PI) (SG) (SG) (SG) (PI) (PI) (SG)
                 (PI) (PI) (DLTA) (DLTA) (SG) (PI) (PI) (SG) (SG)
                 (SG) (?A) (?A) (PI) (PI) (PHI) (PHI) (?A) (?A)
                 (PI) (PI) (SG) (PI) (PI) (SG) (PI) (PI) (SG) (DLTA)
                 (DLTA) (SG) (PI) (PI) (SG) (DLTA) (DLTA) (?B)
                 (?B) (?B) (?B) (SG) (SG) (DLTA) (DLTA) (PHI) (PHI)
                 (PI) (PI) (?C) (?C) (PI) (PI) (SG) (PI) (PI) (DLTA)
                 (DLTA) (DLTA) (DLTA) (SG) (PHI) (PHI) (SG) (PI)
                 (PI) (SG) (SG) (DLTA) (DLTA) (PI) (PI) (PI) (PI)
                 (SG) (DLTA) (DLTA) (SG) (PI) (PI) (SG) (PHI) (PHI)
                 (DLTA) (DLTA) (PI) (PI) (PHI) (PHI) (?D) (?D)
                 (?E) (?E) (?D) (DLTA) (DLTA) (?D) (?D) (?F) (?F)
                 (?F) (?F) (SG) (?F) (?F) (SG) (DLTA) (DLTA) (SG)
                 (PI) (PI) (PHI) (PHI) (SG) (DLTA) (DLTA) (SG)
                 (PI) (PI) (SG) (DLTA) (DLTA) (PI) (PI) (DLTA)
                 (DLTA) (SG) (PI) (PI) (PI) (PI) (SG) (SG) (PHI)
                 (PHI) (DLTA) (DLTA) (PI) (PI) (PI) (PI) (SG) (?C)
                 (?C) (PHI) (PHI) (DLTA) (DLTA) (?G) (?G) (?G)
                 (?E) (?E) (PHI) (PHI) (PI) (PI) (DLTA) (DLTA)
                 (SG) (PI) (PI) (SG) (DLTA) (DLTA) (PI) (PI) (SG)
                 (SG) (PI) (PI) (SG) (DLTA) (DLTA) (PI) (PI) (SG)
                 (SG) (PHI) (PHI) (DLTA) (DLTA) (PI) (PI) (SG)
                 (?C) (?C) (?B) (?B) (DLTA) (DLTA) (?B) (?B) (SG)
                 (?H) (?H) (?I) (?I) (?I) (?I) (DLTA) (DLTA) (?I)
                 (?I) (?H) (SG) (DLTA) (DLTA) (PI) (PI) (SG) (PI)
                 (PI) (SG) (DLTA) (DLTA) (PI) (PI) (SG) (SG) (PI)
                 (PI) (SG) (DLTA) (DLTA) (SG) (PI) (PI) (SG) (PI)
                 (PI) (SG) (SG) (PI) (PI) (DLTA) (DLTA) (PI) (PI)
                 (SG) (SG) (SG) (PI) (PI) (SG) (DLTA) (DLTA) (PI)
                 (PI) (SG) (SG) (PI) (PI) (SG) (SG) (PI) (PI) (SG)
                 (SG) (PI) (PI) (SG) (SG) (PI) (PI) (SG) (SG) (PI)
                 (PI) (SG) (SG) (SG) (SG) (SG) (SG)
 Unable to determine electronic state:  partially filled degenerate orbitals.
 Alpha  occ. eigenvalues -- -263.57795 -32.36271 -27.43278 -27.42695 -27.42695
 Alpha  occ. eigenvalues --   -4.26093  -2.82127  -2.79519  -2.79519  -0.55419
 Alpha  occ. eigenvalues --   -0.55419  -0.54934  -0.52860  -0.47968  -0.30422
 Alpha virt. eigenvalues --    0.00475   0.02254   0.02254   0.02590   0.04626
 Alpha virt. eigenvalues --    0.06267   0.06799   0.06799   0.06862   0.06873
 Alpha virt. eigenvalues --    0.07444   0.07444   0.09218   0.17173   0.18205
 Alpha virt. eigenvalues --    0.20917   0.20917   0.21834   0.22280   0.22280
 Alpha virt. eigenvalues --    0.22422   0.22570   0.29157   0.30178   0.30178
 Alpha virt. eigenvalues --    0.38971   0.53821   0.57814   0.58435   0.58435
 Alpha virt. eigenvalues --    0.58741   0.58939   0.60457   0.60457   0.62228
 Alpha virt. eigenvalues --    0.62822   0.64834   0.64834   0.66821   0.70146
 Alpha virt. eigenvalues --    0.70146   0.75668   0.82978   0.82978   0.83829
 Alpha virt. eigenvalues --    0.84038   0.84107   1.21236   1.28734   1.28734
 Alpha virt. eigenvalues --    1.32100   1.58553   1.60116   1.61895   1.61895
 Alpha virt. eigenvalues --    1.63404   1.63404   1.69152   1.73147   1.73501
 Alpha virt. eigenvalues --    1.73765   1.83544   1.83544   1.87226   1.87226
 Alpha virt. eigenvalues --    1.92484   1.92487   1.97105   1.97105   2.02569
 Alpha virt. eigenvalues --    2.06743   2.06743   2.08145   2.08337   2.11317
 Alpha virt. eigenvalues --    2.11733   2.12534   2.19064   2.19064   2.23781
 Alpha virt. eigenvalues --    2.46133   2.46133   2.67217   2.88611   3.29272
 Alpha virt. eigenvalues --    3.29743   3.32505   3.32505   3.73454   3.73454
 Alpha virt. eigenvalues --    3.75641   3.76459   3.78867   3.85493   4.11167
 Alpha virt. eigenvalues --    4.11167   4.20010   4.81981   4.81981   4.83704
 Alpha virt. eigenvalues --    4.85639   4.92627   4.92627   5.28454   5.28454
 Alpha virt. eigenvalues --    5.32677   5.32678   5.34934   5.34934   5.35086
 Alpha virt. eigenvalues --    5.38421   5.39677   5.40389   5.40398   5.46289
 Alpha virt. eigenvalues --    5.46289   5.52175   5.52175   5.70355   5.71892
 Alpha virt. eigenvalues --    5.71892   5.92550   5.95795   5.96836   6.33166
 Alpha virt. eigenvalues --    6.75334   6.75334   6.86500   6.86500   6.97223
 Alpha virt. eigenvalues --    7.93059   7.94372   7.95602   7.99481   7.99481
 Alpha virt. eigenvalues --    8.04377   8.09908   8.12094   8.14217   8.14217
 Alpha virt. eigenvalues --    8.78651   8.78785   8.80093   9.49030   9.49030
 Alpha virt. eigenvalues --    9.80646   9.80646  10.15623  10.89637  11.91417
 Alpha virt. eigenvalues --   11.91417  12.01293  12.04192  12.74704  12.74704
 Alpha virt. eigenvalues --   12.90921  12.90921  12.94814  13.56885  13.56898
 Alpha virt. eigenvalues --   13.58061  13.58061  13.72745  13.75177  14.12355
 Alpha virt. eigenvalues --   14.33325  14.33373  14.36557  14.36557  14.41059
 Alpha virt. eigenvalues --   14.41059  14.42645  14.42645  14.62814  14.64869
 Alpha virt. eigenvalues --   14.65141  14.89085  14.89085  15.42811  15.47724
 Alpha virt. eigenvalues --   15.51109  15.56444  15.56444  16.38955  17.24591
 Alpha virt. eigenvalues --   26.42032  26.42032  27.00730  27.60338  27.63945
 Alpha virt. eigenvalues --   27.66279  27.66279  27.70510  28.17544  29.28430
 Alpha virt. eigenvalues --   29.28430  29.33441  29.36090  29.75571  29.75571
 Alpha virt. eigenvalues --   31.04705  32.32019  32.32019  32.32581  32.32598
 Alpha virt. eigenvalues --   32.39259  32.41906  32.74569  32.74569  32.97674
 Alpha virt. eigenvalues --   35.85564  35.85596  35.88907  35.88907  35.88961
 Alpha virt. eigenvalues --   35.88961  35.99796  36.02420  36.11936  36.11936
 Alpha virt. eigenvalues --   36.29497  36.81701  46.97597  47.01313  47.03557
 Alpha virt. eigenvalues --   47.03557  47.45640  50.25615  50.25615  51.25875
 Alpha virt. eigenvalues --   80.89868  80.93093  80.95594  80.95594  81.32282
 Alpha virt. eigenvalues --   86.91212  94.84175  94.84175  96.07528 157.72362
 Alpha virt. eigenvalues --  157.74343 157.77383 157.77399 157.77399 158.11357
 Alpha virt. eigenvalues --  185.16528 185.16528 186.30236 216.11115 375.81598
 Alpha virt. eigenvalues --  375.81598 376.79551 376.80319 376.83721 376.83721
 Alpha virt. eigenvalues --  376.86803 377.14853 529.45049 787.34870 787.34870
 Alpha virt. eigenvalues --  788.381021173.422641173.424291173.448881173.44888
 Alpha virt. eigenvalues -- 1173.595691243.891191694.499921694.499921695.40438
 Alpha virt. eigenvalues -- 2805.910733733.937193733.937193734.686316084.72078
 Alpha virt. eigenvalues -- 8384.067058384.067058384.63189********************
 Alpha virt. eigenvalues -- **************************************************
 Alpha virt. eigenvalues -- **************************************************
 Alpha virt. eigenvalues -- **********
     Molecular Orbital Coefficients:
                           8         9        10        11        12
                           O         O         O         O         O
     Eigenvalues --    -2.79519  -2.79519  -0.55419  -0.55419  -0.54934
   1 1   Fe 1S          0.00000  -0.00000  -0.00000  -0.00000  -0.00000
   2        2S          0.00000  -0.00000  -0.00000  -0.00000  -0.00000
   3        3S          0.00000  -0.00000  -0.00001  -0.00000  -0.00001
   4        4S          0.00000  -0.00000  -0.00001  -0.00000  -0.00002
   5        5S          0.00000  -0.00000  -0.00003  -0.00000  -0.00006
   6        6S          0.00000  -0.00000  -0.00008  -0.00000  -0.00014
   7        7S          0.00000  -0.00000  -0.00019  -0.00000  -0.00035
   8        8S          0.00000  -0.00000  -0.00048  -0.00000  -0.00085
   9        9S          0.00000  -0.00000  -0.00114  -0.00000  -0.00202
  10       10S          0.00000  -0.00000  -0.00255  -0.00000  -0.00450
  11       11S          0.00000  -0.00000  -0.00486  -0.00000  -0.00863
  12       12S          0.00000  -0.00000  -0.00753  -0.00000  -0.01325
  13       13S          0.00000  -0.00000  -0.00517  -0.00000  -0.00934
  14       14S         -0.00000   0.00000   0.01038   0.00000   0.01894
  15       15S         -0.00000   0.00000   0.04226   0.00000   0.07390
  16       16S         -0.00000   0.00000   0.03260  -0.00000   0.07488
  17       17S          0.00000  -0.00000  -0.03827  -0.00000  -0.07411
  18       18S          0.00000  -0.00000  -0.09959   0.00000  -0.21157
  19       19S         -0.00000  -0.00000  -0.07833  -0.00000  -0.16931
  20       20S          0.00000  -0.00000   0.00420   0.00000   0.24630
  21       21S          0.00000  -0.00000  -0.03231   0.00000   0.40329
  22       22S         -0.00000   0.00000   0.00365  -0.00000   0.13754
  23       23S          0.00000  -0.00000   0.00732   0.00000  -0.00319
  24       24S         -0.00000   0.00000  -0.00453  -0.00000   0.01813
  25       25S          0.00000  -0.00000  -0.00290   0.00000  -0.00272
  26       26PX        -0.00002   0.00000  -0.00000   0.00000  -0.00000
  27       26PY        -0.00000  -0.00002   0.00000  -0.00000  -0.00000
  28       26PZ         0.00000  -0.00000  -0.00000  -0.00000  -0.00000
  29       27PX        -0.00007   0.00001  -0.00000   0.00000  -0.00000
  30       27PY        -0.00001  -0.00007   0.00000   0.00000   0.00000
  31       27PZ         0.00000  -0.00000  -0.00001  -0.00000  -0.00000
  32       28PX        -0.00028   0.00006  -0.00000   0.00000  -0.00000
  33       28PY        -0.00006  -0.00028   0.00000  -0.00000  -0.00000
  34       28PZ         0.00000  -0.00000  -0.00004  -0.00000  -0.00002
  35       29PX        -0.00108   0.00021  -0.00000   0.00000  -0.00000
  36       29PY        -0.00021  -0.00108   0.00000  -0.00000  -0.00000
  37       29PZ         0.00000  -0.00000  -0.00015  -0.00000  -0.00006
  38       30PX        -0.00379   0.00074  -0.00000   0.00000  -0.00000
  39       30PY        -0.00074  -0.00379   0.00000  -0.00000  -0.00000
  40       30PZ         0.00000  -0.00000  -0.00051  -0.00000  -0.00022
  41       31PX        -0.01158   0.00225  -0.00000   0.00000  -0.00000
  42       31PY        -0.00225  -0.01158   0.00000  -0.00000  -0.00000
  43       31PZ         0.00000  -0.00000  -0.00158  -0.00000  -0.00068
  44       32PX        -0.03108   0.00603  -0.00000   0.00000  -0.00000
  45       32PY        -0.00603  -0.03108   0.00000  -0.00000  -0.00000
  46       32PZ         0.00000  -0.00000  -0.00420  -0.00000  -0.00179
  47       33PX        -0.06748   0.01308  -0.00000   0.00000  -0.00000
  48       33PY        -0.01308  -0.06748   0.00000  -0.00000  -0.00000
  49       33PZ         0.00000  -0.00000  -0.00925  -0.00000  -0.00398
  50       34PX        -0.11656   0.02260  -0.00000   0.00000  -0.00000
  51       34PY        -0.02260  -0.11656   0.00000  -0.00000  -0.00000
  52       34PZ         0.00000  -0.00000  -0.01577  -0.00000  -0.00668
  53       35PX        -0.13386   0.02596  -0.00000   0.00000  -0.00000
  54       35PY        -0.02596  -0.13386   0.00000  -0.00000  -0.00000
  55       35PZ         0.00000  -0.00000  -0.01897  -0.00000  -0.00839
  56       36PX         0.04013  -0.00778  -0.00000  -0.00000   0.00000
  57       36PY         0.00778   0.04013  -0.00000   0.00000   0.00000
  58       36PZ        -0.00000   0.00000   0.00063  -0.00000  -0.00582
  59       37PX         0.17372  -0.03368   0.00000  -0.00000   0.00000
  60       37PY         0.03368   0.17372  -0.00000   0.00000   0.00000
  61       37PZ        -0.00000   0.00000   0.02792   0.00000   0.01277
  62       38PX         0.25591  -0.04962   0.00000  -0.00000   0.00000
  63       38PY         0.04962   0.25591  -0.00000   0.00000   0.00000
  64       38PZ        -0.00000   0.00000   0.03346   0.00000   0.00982
  65       39PX         0.37643  -0.07299   0.00000  -0.00000   0.00000
  66       39PY         0.07299   0.37643  -0.00000   0.00000   0.00000
  67       39PZ        -0.00000   0.00000   0.06190   0.00000   0.03099
  68       40PX         0.16190  -0.03139   0.00000  -0.00000   0.00000
  69       40PY         0.03139   0.16190  -0.00000  -0.00000  -0.00000
  70       40PZ        -0.00000   0.00000   0.02201  -0.00000   0.00494
  71       41PX         0.01875  -0.00364  -0.00000  -0.00000  -0.00000
  72       41PY         0.00364   0.01875   0.00000  -0.00000  -0.00000
  73       41PZ        -0.00000   0.00000  -0.01614  -0.00000  -0.02026
  74       42PX        -0.00239   0.00046  -0.00000  -0.00000  -0.00000
  75       42PY        -0.00046  -0.00239   0.00000  -0.00000  -0.00000
  76       42PZ        -0.00000   0.00000  -0.00055  -0.00000  -0.01359
  77       43PX         0.00104  -0.00020   0.00000   0.00000   0.00000
  78       43PY         0.00020   0.00104   0.00000  -0.00000  -0.00000
  79       43PZ         0.00000  -0.00000  -0.00081   0.00000  -0.00582
  80       44PX        -0.08351   0.01619  -0.00000   0.00000  -0.00000
  81       44PY        -0.01619  -0.08351   0.00000  -0.00000  -0.00000
  82       44PZ         0.00000  -0.00000  -0.00551   0.00000   0.00319
  83       45PX         0.14513  -0.02814   0.00000  -0.00000   0.00000
  84       45PY         0.02814   0.14513  -0.00000   0.00000  -0.00000
  85       45PZ        -0.00000   0.00000   0.03069   0.00000   0.01518
  86       46PX        -0.00032   0.00006   0.00000   0.00000   0.00000
  87       46PY        -0.00006  -0.00032   0.00000  -0.00000  -0.00000
  88       46PZ         0.00000  -0.00000   0.00052   0.00000   0.00011
  89       47D 0       -0.00000   0.00000   0.00023   0.00000  -0.00019
  90       47D+1       -0.00000   0.00000   0.00000   0.00000   0.00000
  91       47D-1       -0.00000  -0.00000  -0.00000  -0.00000   0.00000
  92       47D+2        0.00000   0.00000  -0.00000   0.00000  -0.00000
  93       47D-2        0.00000  -0.00000  -0.00000   0.00035   0.00000
  94       48D 0       -0.00000  -0.00000   0.00205   0.00000  -0.00167
  95       48D+1       -0.00000   0.00000   0.00000   0.00000   0.00000
  96       48D-1       -0.00000  -0.00000  -0.00000  -0.00000   0.00000
  97       48D+2        0.00000   0.00000  -0.00000   0.00000  -0.00000
  98       48D-2        0.00000  -0.00000  -0.00000   0.00315   0.00000
  99       49D 0       -0.00000   0.00000   0.01041   0.00000  -0.00846
 100       49D+1       -0.00002   0.00000   0.00000   0.00000   0.00000
 101       49D-1       -0.00000  -0.00002  -0.00000  -0.00000   0.00000
 102       49D+2        0.00000   0.00000  -0.00000   0.00000  -0.00000
 103       49D-2        0.00000  -0.00000  -0.00000   0.01599   0.00000
 104       50D 0       -0.00000   0.00000   0.03510   0.00000  -0.02853
 105       50D+1       -0.00000   0.00000   0.00000   0.00000   0.00000
 106       50D-1       -0.00000  -0.00000  -0.00000  -0.00000   0.00000
 107       50D+2        0.00000   0.00000  -0.00000   0.00000  -0.00000
 108       50D-2        0.00000  -0.00000  -0.00000   0.05402   0.00000
 109       51D 0       -0.00000  -0.00000   0.08810   0.00000  -0.07153
 110       51D+1       -0.00033   0.00006   0.00000   0.00000   0.00000
 111       51D-1       -0.00006  -0.00033  -0.00000  -0.00000   0.00000
 112       51D+2        0.00000   0.00000  -0.00000  -0.00000  -0.00000
 113       51D-2        0.00000  -0.00000  -0.00000   0.13504   0.00000
 114       52D 0        0.00000  -0.00000   0.16007   0.00000  -0.12766
 115       52D+1       -0.00200   0.00039   0.00000   0.00000   0.00000
 116       52D-1       -0.00039  -0.00200  -0.00000  -0.00000   0.00000
 117       52D+2        0.00000   0.00000  -0.00000  -0.00000  -0.00000
 118       52D-2        0.00000  -0.00000  -0.00000   0.23774   0.00000
 119       53D 0        0.00000  -0.00000   0.20344   0.00000  -0.16317
 120       53D+1       -0.00081   0.00016   0.00000   0.00000   0.00000
 121       53D-1       -0.00016  -0.00081  -0.00000  -0.00000   0.00000
 122       53D+2        0.00000   0.00000  -0.00000  -0.00000  -0.00000
 123       53D-2        0.00000   0.00000  -0.00000   0.30326   0.00000
 124       54D 0       -0.00000   0.00000   0.20275   0.00000  -0.16233
 125       54D+1        0.00203  -0.00039   0.00000   0.00000   0.00000
 126       54D-1        0.00039   0.00203  -0.00000  -0.00000   0.00000
 127       54D+2        0.00000   0.00000  -0.00000   0.00000  -0.00000
 128       54D-2        0.00000  -0.00000  -0.00000   0.29773   0.00000
 129       55D 0        0.00000  -0.00000   0.15388   0.00000  -0.12628
 130       55D+1        0.00213  -0.00041   0.00000   0.00000   0.00000
 131       55D-1        0.00041   0.00213   0.00000  -0.00000   0.00000
 132       55D+2        0.00000  -0.00000  -0.00000  -0.00000   0.00000
 133       55D-2        0.00000   0.00000  -0.00000   0.22403   0.00000
 134       56D 0        0.00000  -0.00000   0.05408   0.00000  -0.07103
 135       56D+1        0.00034  -0.00007   0.00000   0.00000   0.00000
 136       56D-1        0.00007   0.00034   0.00000   0.00000  -0.00000
 137       56D+2        0.00000  -0.00000  -0.00000  -0.00000  -0.00000
 138       56D-2        0.00000   0.00000  -0.00000   0.10552   0.00000
 139       57D 0        0.00000  -0.00000   0.00397   0.00000  -0.01889
 140       57D+1        0.00032  -0.00006   0.00000   0.00000   0.00000
 141       57D-1        0.00006   0.00032  -0.00000   0.00000  -0.00000
 142       57D+2        0.00000  -0.00000  -0.00000  -0.00000  -0.00000
 143       57D-2        0.00000   0.00000  -0.00000   0.01468   0.00000
 144       58D 0       -0.00000   0.00000  -0.00126  -0.00000   0.00024
 145       58D+1        0.00064  -0.00012  -0.00000   0.00000  -0.00000
 146       58D-1        0.00012   0.00064   0.00000  -0.00000  -0.00000
 147       58D+2        0.00000  -0.00000  -0.00000   0.00000  -0.00000
 148       58D-2        0.00000   0.00000  -0.00000   0.00055   0.00000
 149       59D 0       -0.00000   0.00000  -0.00544  -0.00000   0.00146
 150       59D+1        0.00139  -0.00027   0.00000   0.00000  -0.00000
 151       59D-1        0.00027   0.00139   0.00000  -0.00000   0.00000
 152       59D+2        0.00000  -0.00000  -0.00000   0.00000  -0.00000
 153       59D-2        0.00000  -0.00000  -0.00000   0.00065   0.00000
 154       60D 0       -0.00000   0.00000  -0.00011  -0.00000   0.00090
 155       60D+1       -0.00003   0.00001  -0.00000   0.00000  -0.00000
 156       60D-1       -0.00001  -0.00003  -0.00000   0.00000  -0.00000
 157       60D+2        0.00000  -0.00000   0.00000  -0.00000  -0.00000
 158       60D-2        0.00000   0.00000  -0.00000  -0.00056   0.00000
 159       61F 0        0.00000  -0.00000  -0.00040   0.00000  -0.00012
 160       61F+1       -0.00019   0.00004   0.00000   0.00000  -0.00000
 161       61F-1       -0.00004  -0.00019   0.00000  -0.00000   0.00000
 162       61F+2       -0.00000   0.00000   0.00000  -0.00000  -0.00000
 163       61F-2       -0.00000  -0.00000   0.00000   0.00001   0.00000
 164       61F+3       -0.00071   0.00014   0.00000  -0.00000   0.00000
 165       61F-3        0.00014   0.00071   0.00000   0.00000   0.00000
 166       62F 0       -0.00000  -0.00000  -0.00113  -0.00000  -0.00022
[...]
  94       48D 0        0.00023   0.00012   0.00012   0.00000
  95       48D+1        0.00017   0.00017   0.00000   0.00017
  96       48D-1        0.00017   0.00017   0.00000   0.00017
  97       48D+2        0.00017   0.00017  -0.00000   0.00017
  98       48D-2        0.00033   0.00017   0.00017   0.00000
  99       49D 0        0.00346   0.00173   0.00173  -0.00000
 100       49D+1        0.00255   0.00255   0.00000   0.00255
 101       49D-1        0.00255   0.00255   0.00000   0.00255
 102       49D+2        0.00258   0.00258   0.00000   0.00258
 103       49D-2        0.00490   0.00245   0.00245   0.00000
 104       50D 0        0.02501   0.01251   0.01251   0.00000
 105       50D+1        0.01839   0.01839   0.00000   0.01839
 106       50D-1        0.01839   0.01839   0.00000   0.01839
 107       50D+2        0.01859   0.01859  -0.00000   0.01859
 108       50D-2        0.03537   0.01768   0.01768   0.00000
 109       51D 0        0.10654   0.05327   0.05327   0.00000
 110       51D+1        0.07760   0.07760   0.00000   0.07760
 111       51D-1        0.07760   0.07760   0.00000   0.07760
 112       51D+2        0.07837   0.07837  -0.00000   0.07837
 113       51D-2        0.14909   0.07454   0.07454   0.00000
 114       52D 0        0.26901   0.13451   0.13451   0.00000
 115       52D+1        0.18875   0.18875   0.00000   0.18875
 116       52D-1        0.18875   0.18875   0.00000   0.18875
 117       52D+2        0.19061   0.19061   0.00000   0.19061
 118       52D-2        0.36215   0.18108   0.18108   0.00000
 119       53D 0        0.40978   0.20489   0.20489   0.00000
 120       53D+1        0.27794   0.27794  -0.00000   0.27794
 121       53D-1        0.27794   0.27794  -0.00000   0.27794
 122       53D+2        0.28000   0.28000  -0.00000   0.28000
 123       53D-2        0.53520   0.26760   0.26760   0.00000
 124       54D 0        0.42421   0.21210   0.21210   0.00000
 125       54D+1        0.25837   0.25837   0.00000   0.25837
 126       54D-1        0.25837   0.25837   0.00000   0.25837
 127       54D+2        0.25750   0.25750   0.00000   0.25750
 128       54D-2        0.51044   0.25522   0.25522   0.00000
 129       55D 0        0.28516   0.14258   0.14258   0.00000
 130       55D+1        0.13910   0.13909   0.00000   0.13909
 131       55D-1        0.13910   0.13909   0.00000   0.13909
 132       55D+2        0.13824   0.13824  -0.00000   0.13824
 133       55D-2        0.30569   0.15285   0.15285   0.00000
 134       56D 0        0.07491   0.03745   0.03745   0.00000
 135       56D+1        0.03023   0.03023   0.00000   0.03023
 136       56D-1        0.03023   0.03023   0.00000   0.03023
 137       56D+2        0.03141   0.03141   0.00000   0.03141
 138       56D-2        0.08899   0.04449   0.04449   0.00000
 139       57D 0        0.00373   0.00187   0.00187  -0.00000
 140       57D+1        0.00081   0.00081   0.00000   0.00081
 141       57D-1        0.00081   0.00081   0.00000   0.00081
 142       57D+2        0.00109   0.00109   0.00000   0.00109
 143       57D-2        0.00534   0.00267   0.00267  -0.00000
 144       58D 0       -0.00126  -0.00063  -0.00063  -0.00000
 145       58D+1        0.00048   0.00048  -0.00000   0.00048
 146       58D-1        0.00048   0.00048  -0.00000   0.00048
 147       58D+2        0.00042   0.00042   0.00000   0.00042
 148       58D-2        0.00073   0.00036   0.00036  -0.00000
 149       59D 0       -0.00734  -0.00367  -0.00367  -0.00000
 150       59D+1        0.00118   0.00118   0.00000   0.00118
 151       59D-1        0.00118   0.00118   0.00000   0.00118
 152       59D+2        0.00066   0.00066   0.00000   0.00066
 153       59D-2        0.00107   0.00053   0.00053  -0.00000
 154       60D 0       -0.00004  -0.00002  -0.00002  -0.00000
 155       60D+1        0.00000   0.00000  -0.00000   0.00000
 156       60D-1        0.00000   0.00000  -0.00000   0.00000
 157       60D+2       -0.00001  -0.00001   0.00000  -0.00001
 158       60D-2       -0.00006  -0.00003  -0.00003   0.00000
 159       61F 0        0.00001   0.00000   0.00000   0.00000
 160       61F+1        0.00000   0.00000   0.00000   0.00000
 161       61F-1        0.00000   0.00000   0.00000   0.00000
 162       61F+2       -0.00000  -0.00000  -0.00000  -0.00000
 163       61F-2        0.00000   0.00000   0.00000   0.00000
 164       61F+3        0.00000   0.00000   0.00000   0.00000
 165       61F-3        0.00000   0.00000   0.00000   0.00000
 166       62F 0        0.00006   0.00003   0.00003   0.00000
 167       62F+1        0.00000   0.00000   0.00000   0.00000
 168       62F-1        0.00000   0.00000   0.00000   0.00000
 169       62F+2       -0.00000  -0.00000   0.00000  -0.00000
 170       62F-2       -0.00000  -0.00000  -0.00000   0.00000
 171       62F+3        0.00001   0.00001   0.00001   0.00000
 172       62F-3        0.00001   0.00001   0.00001   0.00000
 173       63F 0        0.00075   0.00038   0.00038  -0.00000
 174       63F+1       -0.00000  -0.00000   0.00000  -0.00000
 175       63F-1       -0.00000  -0.00000   0.00000  -0.00000
 176       63F+2        0.00000   0.00000  -0.00000   0.00000
 177       63F-2        0.00001   0.00000   0.00000   0.00000
 178       63F+3        0.00003   0.00002   0.00002   0.00000
 179       63F-3        0.00003   0.00002   0.00002   0.00000
 180       64F 0        0.00265   0.00132   0.00132  -0.00000
 181       64F+1       -0.00000  -0.00001   0.00000  -0.00001
 182       64F-1       -0.00000  -0.00001   0.00000  -0.00001
 183       64F+2        0.00003   0.00003   0.00000   0.00003
 184       64F-2        0.00008   0.00004   0.00004   0.00000
 185       64F+3        0.00002   0.00001   0.00001   0.00000
 186       64F-3        0.00002   0.00001   0.00001   0.00000
 187       65F 0        0.00023   0.00012   0.00012  -0.00000
 188       65F+1       -0.00000  -0.00000   0.00000  -0.00000
 189       65F-1       -0.00000  -0.00000   0.00000  -0.00000
 190       65F+2        0.00002   0.00002   0.00000   0.00002
 191       65F-2        0.00007   0.00003   0.00003   0.00000
 192       65F+3        0.00000   0.00000   0.00000  -0.00000
 193       65F-3        0.00000   0.00000   0.00000  -0.00000
 194       66G 0        0.00000   0.00000   0.00000   0.00000
 195       66G+1        0.00000   0.00000   0.00000   0.00000
 196       66G-1        0.00000   0.00000   0.00000   0.00000
 197       66G+2        0.00000   0.00000  -0.00000   0.00000
 198       66G-2        0.00000   0.00000   0.00000   0.00000
 199       66G+3        0.00000   0.00000   0.00000   0.00000
 200       66G-3        0.00000   0.00000   0.00000   0.00000
 201       66G+4        0.00000   0.00000   0.00000   0.00000
 202       66G-4        0.00000   0.00000   0.00000   0.00000
 203       67G 0        0.00002   0.00001   0.00001  -0.00000
 204       67G+1        0.00000   0.00000   0.00000   0.00000
 205       67G-1        0.00000   0.00000   0.00000   0.00000
 206       67G+2        0.00000   0.00000  -0.00000   0.00000
 207       67G-2        0.00000   0.00000   0.00000   0.00000
 208       67G+3        0.00000   0.00000   0.00000   0.00000
 209       67G-3        0.00000   0.00000   0.00000   0.00000
 210       67G+4        0.00000   0.00000   0.00000   0.00000
 211       67G-4        0.00000   0.00000   0.00000   0.00000
 212       68G 0        0.00029   0.00015   0.00015  -0.00000
 213       68G+1        0.00002   0.00002   0.00000   0.00002
 214       68G-1        0.00002   0.00002   0.00000   0.00002
 215       68G+2        0.00001   0.00001   0.00000   0.00001
 216       68G-2        0.00000   0.00000   0.00000   0.00000
 217       68G+3        0.00000   0.00000   0.00000   0.00000
 218       68G-3        0.00000   0.00000   0.00000   0.00000
 219       68G+4        0.00000   0.00000   0.00000   0.00000
 220       68G-4        0.00000   0.00000   0.00000   0.00000
 221       69G 0        0.00046   0.00023   0.00023  -0.00000
 222       69G+1        0.00003   0.00003  -0.00000   0.00003
 223       69G-1        0.00003   0.00003  -0.00000   0.00003
 224       69G+2        0.00001   0.00001   0.00000   0.00001
 225       69G-2        0.00000   0.00000   0.00000   0.00000
 226       69G+3        0.00000   0.00000   0.00000   0.00000
 227       69G-3        0.00000   0.00000   0.00000   0.00000
 228       69G+4        0.00000   0.00000   0.00000   0.00000
 229       69G-4        0.00000   0.00000   0.00000  -0.00000
 230       70H 0        0.00000   0.00000   0.00000   0.00000
 231       70H+1        0.00000   0.00000   0.00000   0.00000
 232       70H-1        0.00000   0.00000   0.00000   0.00000
 233       70H+2        0.00000   0.00000   0.00000   0.00000
 234       70H-2        0.00000   0.00000   0.00000   0.00000
 235       70H+3        0.00000   0.00000   0.00000   0.00000
 236       70H-3        0.00000   0.00000   0.00000   0.00000
 237       70H+4        0.00000   0.00000   0.00000  -0.00000
 238       70H-4        0.00000   0.00000   0.00000  -0.00000
 239       70H+5        0.00000   0.00000   0.00000   0.00000
 240       70H-5        0.00000   0.00000   0.00000   0.00000
 241       71H 0        0.00001   0.00000   0.00000   0.00000
 242       71H+1        0.00000   0.00000  -0.00000   0.00000
 243       71H-1        0.00000   0.00000  -0.00000   0.00000
 244       71H+2        0.00000   0.00000   0.00000   0.00000
 245       71H-2        0.00000   0.00000   0.00000   0.00000
 246       71H+3        0.00000   0.00000   0.00000   0.00000
 247       71H-3        0.00000   0.00000   0.00000   0.00000
 248       71H+4        0.00000   0.00000   0.00000  -0.00000
 249       71H-4       -0.00000  -0.00000  -0.00000  -0.00000
 250       71H+5        0.00000   0.00000   0.00000  -0.00000
 251       71H-5        0.00000   0.00000   0.00000  -0.00000
 252       72H 0        0.00002   0.00001   0.00001  -0.00000
 253       72H+1        0.00000   0.00000   0.00000   0.00000
 254       72H-1        0.00000   0.00000   0.00000   0.00000
 255       72H+2        0.00000   0.00000   0.00000   0.00000
 256       72H-2        0.00000   0.00000   0.00000   0.00000
 257       72H+3       -0.00000  -0.00000  -0.00000   0.00000
 258       72H-3       -0.00000  -0.00000  -0.00000   0.00000
 259       72H+4        0.00000   0.00000   0.00000   0.00000
 260       72H-4        0.00000   0.00000   0.00000   0.00000
 261       72H+5       -0.00000  -0.00000  -0.00000   0.00000
 262       72H-5       -0.00000  -0.00000  -0.00000   0.00000
 263 2   H  1S          0.00023   0.00012   0.00012   0.00000
 264        2S          0.00613   0.00306   0.00306   0.00000
 265        3S          0.06473   0.03236   0.03236   0.00000
 266        4S          0.31394   0.15697   0.15697   0.00000
 267        5S          0.55595   0.27798   0.27798   0.00000
 268        6S          0.32910   0.16455   0.16455   0.00000
 269        7S          0.01362   0.00681   0.00681  -0.00000
 270        8PX         0.00032   0.00032   0.00001   0.00031
 271        8PY         0.00032   0.00032   0.00001   0.00031
 272        8PZ         0.00185   0.00092   0.00092   0.00000
 273        9PX         0.00160   0.00151   0.00010   0.00141
 274        9PY         0.00160   0.00151   0.00010   0.00141
 275        9PZ         0.00857   0.00429   0.00429  -0.00000
 276       10PX         0.00237   0.00213   0.00024   0.00188
 277       10PY         0.00237   0.00213   0.00024   0.00188
 278       10PZ        -0.00219  -0.00109  -0.00109  -0.00000
 279       11PX         0.00048   0.00036   0.00013   0.00023
 280       11PY         0.00048   0.00036   0.00013   0.00023
 281       11PZ        -0.00952  -0.00476  -0.00476  -0.00000
 282       12D 0        0.00070   0.00035   0.00035   0.00000
 283       12D+1        0.00016   0.00014   0.00001   0.00013
 284       12D-1        0.00016   0.00014   0.00001   0.00013
 285       12D+2        0.00001   0.00001   0.00000   0.00001
 286       12D-2        0.00003   0.00001   0.00001   0.00000
 287       13D 0        0.00145   0.00073   0.00073  -0.00000
 288       13D+1        0.00065   0.00046   0.00019   0.00027
 289       13D-1        0.00065   0.00046   0.00019   0.00027
 290       13D+2        0.00008   0.00008   0.00000   0.00008
 291       13D-2        0.00024   0.00012   0.00012   0.00000
 292       14D 0        0.00020   0.00010   0.00010  -0.00000
 293       14D+1        0.00028   0.00013   0.00015  -0.00002
 294       14D-1        0.00028   0.00013   0.00015  -0.00002
 295       14D+2        0.00018   0.00018  -0.00000   0.00018
 296       14D-2        0.00031   0.00015   0.00015   0.00000
 297       15F 0        0.00042   0.00021   0.00021  -0.00000
 298       15F+1        0.00008   0.00005   0.00003   0.00003
 299       15F-1        0.00008   0.00005   0.00003   0.00003
 300       15F+2        0.00002   0.00002  -0.00000   0.00002
 301       15F-2        0.00005   0.00003   0.00003   0.00000
 302       15F+3        0.00000  -0.00000   0.00000  -0.00000
 303       15F-3        0.00000  -0.00000   0.00000  -0.00000
 304       16F 0        0.00004   0.00002   0.00002  -0.00000
 305       16F+1        0.00018   0.00009   0.00009   0.00001
 306       16F-1        0.00018   0.00009   0.00009   0.00001
 307       16F+2        0.00000   0.00000   0.00000   0.00000
 308       16F-2       -0.00003  -0.00001  -0.00001   0.00000
 309       16F+3       -0.00000  -0.00000  -0.00000  -0.00000
 310       16F-3       -0.00000  -0.00000  -0.00000  -0.00000
          Condensed to atoms (all electrons):
               1          2
     1  Fe  25.440520   0.261137
     2  H    0.261137   1.037206
          Atomic-Atomic Spin Densities.
               1          2
     1  Fe   2.982932   0.008308
     2  H    0.008308   0.000452
 Mulliken charges and spin densities:
               1          2
     1  Fe   0.298343   2.991240
     2  H   -0.298343   0.008760
 Sum of Mulliken charges =  -0.00000   3.00000
 Mulliken charges and spin densities with hydrogens summed into heavy atoms:
               1          2
     1  Fe  -0.000000   3.000000
 Electronic spatial extent (au):  <R**2>=             42.2589
 Charge=             -0.0000 electrons
 Dipole moment (field-independent basis, Debye):
    X=              0.0000    Y=              0.0000    Z=              3.0015  Tot=              3.0015
 Quadrupole moment (field-independent basis, Debye-Ang):
   XX=            -17.0023   YY=            -17.0023   ZZ=            -16.1745
   XY=             -0.0000   XZ=              0.0000   YZ=              0.0000
 Traceless Quadrupole moment (field-independent basis, Debye-Ang):
   XX=             -0.2759   YY=             -0.2759   ZZ=              0.5519
   XY=             -0.0000   XZ=              0.0000   YZ=              0.0000
 Octapole moment (field-independent basis, Debye-Ang**2):
  XXX=              0.0000  YYY=              0.0000  ZZZ=              9.4139  XYY=              0.0000
  XXY=              0.0000  XXZ=              2.3340  XZZ=              0.0000  YZZ=              0.0000
  YYZ=              2.3340  XYZ=              0.0000
 Hexadecapole moment (field-independent basis, Debye-Ang**3):
 XXXX=            -29.9751 YYYY=            -29.9751 ZZZZ=            -37.0500 XXXY=             -0.0000
 XXXZ=              0.0000 YYYX=             -0.0000 YYYZ=              0.0000 ZZZX=              0.0000
 ZZZY=              0.0000 XXYY=            -10.2791 XXZZ=            -10.9164 YYZZ=            -10.9164
 XXYZ=              0.0000 YYXZ=              0.0000 ZZXY=             -0.0000
 N-N= 1.146550623660D+01 E-N=-3.107904624284D+03  KE= 1.325902868229D+03
 Orbital energies and kinetic energies (alpha):
                                 1                 2
   8         O                -2.795186         11.084358
   9         O                -2.795186         11.084358
  10         O                -0.554192          3.695205
  11         O                -0.554192          6.705122
  12         O                -0.549337          2.559474
  13         O                -0.528599          6.960989
  14         O                -0.479679          6.960989
  15         O                -0.304223          7.011969
  16         V                 0.004752          0.294612
  17         V                 0.022537          0.050616
  18         V                 0.022537          0.050616
  19         V                 0.025898          0.037377
  20         V                 0.046260          0.413655
 Total kinetic energy from orbitals= 1.346836816021D+03
 FoFCou: FMM=F IPFlag=           8 FMFlag=           0 FMFlg1=           0
         NFxFlg=           0 DoJE=F BraDBF=T KetDBF=F FulRan=T
         wScrn=  0.000000 ICntrl=   2000500 IOpCl=  0 I1Cent=           5 NGrid=           0
         NMat0=    1 NMatS0=      1 NMatT0=    0 NMatD0=    1 NMtDS0=    0 NMtDT0=    0
 Symmetry not used in FoFCou.
                          Isotropic Fermi Contact Couplings
        Atom                 a.u.       MegaHertz       Gauss      10(-4) cm-1
     1  Fe(57)             0.00000       0.00000       0.00000       0.00000
     2  H(1)               0.00000       0.00000       0.00000       0.00000
 --------------------------------------------------------
       Center         ----  Spin Dipole Couplings  ----
                      3XX-RR        3YY-RR        3ZZ-RR
 --------------------------------------------------------
     1   Atom        0.006738      0.006738     -0.013476
     2   Atom       -0.195638     -0.195638      0.391276
 --------------------------------------------------------
                        XY            XZ            YZ
 --------------------------------------------------------
     1   Atom       -0.000000     -0.000000     -0.000000
     2   Atom       -0.000000     -0.000000     -0.000000
 --------------------------------------------------------


 ---------------------------------------------------------------------------------
              Anisotropic Spin Dipole Couplings in Principal Axis System
 ---------------------------------------------------------------------------------

       Atom             a.u.   MegaHertz   Gauss  10(-4) cm-1        Axes

              Baa    -0.0135    -0.233    -0.083    -0.078  0.0000  0.0000  1.0000
     1 Fe(57) Bbb     0.0067     0.117     0.042     0.039  0.0572  0.9984 -0.0000
              Bcc     0.0067     0.117     0.042     0.039  0.9984 -0.0572 -0.0000
 
              Baa    -0.1956  -104.383   -37.246   -34.818  0.0355  0.9994  0.0000
     2 H(1)   Bbb    -0.1956  -104.383   -37.246   -34.818  0.9994 -0.0355  0.0000
              Bcc     0.3913   208.766    74.493    69.637 -0.0000 -0.0000  1.0000
 

 ---------------------------------------------------------------------------------

 No NMR shielding tensors so no spin-rotation constants.
 Leave Link  601 at Wed Mar  7 15:35:36 2018, MaxMem= 10737418240 cpu:             173.5 elap:               5.7
 (Enter /home1/apps/gaussian/16rA.03/g16/l9999.exe)

 Test job not archived.
 1\1\GINC-C414-123\SP\ROCCSD(T)-Full\Gen\Fe1H1(4)\GWANG18\07-Mar-2018\0
 \\#P ROCCSD(T)=(MaxCyc=150, Full)/Gen SCF=(maxcycle=400) Integral(DKHS
 O, NoXCTest) Pop=Regular MaxDisk=500GB Guess=Read IOp(5/15=2)\\FeH\\0,
 4\Fe,0,0.,0.,0.\H,0,0.,0.,1.2\\Version=ES64L-G16RevA.03\HF=-1271.76851
 06\MP2=-1272.9959143\MP3=-1272.9138658\PUHF=-1271.7685106\PMP2-0=-1272
 .9959143\MP4SDQ=-1272.9542998\CCSD=-1272.9406423\CCSD(T)=-1272.972658\
 RMSD=5.419e-09\PG=C*V [C*(H1Fe1)]\\@


 READER, WHETHER YOU BE DILETTANTE OR PROFESSOR ... SHOW YOURSELF TO BE
 MORE HUMAN THAN CRITICAL, AND THEN YOUR PLEASURE WILL INCREASE.
                                           -- DOMENICO SCARLATTI (1738)
 Job cpu time:       5 days  6 hours 56 minutes 31.9 seconds.
 Elapsed time:       0 days  4 hours  0 minutes 23.4 seconds.
 File lengths (MBytes):  RWF=  75141 Int=      0 D2E=      0 Chk=     12 Scr=      1
 Normal termination of Gaussian 16 at Wed Mar  7 15:35:37 2018.
