 Entering Gaussian System, Link 0=g16
 Initial command:
 /home1/apps/gaussian/16rA.03/g16/l1.exe "/tmp/Gau-176363.inp" -scrdir="/tmp/"
 Entering Link 1 = /home1/apps/gaussian/16rA.03/g16/l1.exe PID=    176364.
  
 Copyright (c) 1988,1990,1992,1993,1995,1998,2003,2009,2016,
            Gaussian, Inc.  All Rights Reserved.
  
 This is part of the Gaussian(R) 16 program.  It is based on
 the Gaussian(R) 09 system (copyright 2009, Gaussian, Inc.),
 the Gaussian(R) 03 system (copyright 2003, Gaussian, Inc.),
 the Gaussian(R) 98 system (copyright 1998, Gaussian, Inc.),
 the Gaussian(R) 94 system (copyright 1995, Gaussian, Inc.),
 the Gaussian 92(TM) system (copyright 1992, Gaussian, Inc.),
 the Gaussian 90(TM) system (copyright 1990, Gaussian, Inc.),
 the Gaussian 88(TM) system (copyright 1988, Gaussian, Inc.),
 the Gaussian 86(TM) system (copyright 1986, Carnegie Mellon
 University), and the Gaussian 82(TM) system (copyright 1983,
 Carnegie Mellon University). Gaussian is a federally registered
 trademark of Gaussian, Inc.
  
 This software contains proprietary and confidential information,
 including trade secrets, belonging to Gaussian, Inc.
  
 This software is provided under written license and may be
 used, copied, transmitted, or stored only in accord with that
 written license.
  
 The following legend is applicable only to US Government
 contracts under FAR:
  
                    RESTRICTED RIGHTS LEGEND
  
 Use, reproduction and disclosure by the US Government is
 subject to restrictions as set forth in subparagraphs (a)
 and (c) of the Commercial Computer Software - Restricted
 Rights clause in FAR 52.227-19.
  
 Gaussian, Inc.
 340 Quinnipiac St., Bldg. 40, Wallingford CT 06492
  
  
 ---------------------------------------------------------------
 Warning -- This program may not be used in any manner that
 competes with the business of Gaussian, Inc. or will provide
 assistance to any competitor of Gaussian, Inc.  The licensee
 of this program is prohibited from giving any competitor of
 Gaussian, Inc. access to this program.  By using this program,
 the user acknowledges that Gaussian, Inc. is engaged in the
 business of creating and licensing software in the field of
 computational chemistry and represents and warrants to the
 licensee that it is not a competitor of Gaussian, Inc. and that
 it will not use this program in any manner prohibited above.
 ---------------------------------------------------------------
  

 Cite this work as:
 Gaussian 16, Revision A.03,
 M. J. Frisch, G. W. Trucks, H. B. Schlegel, G. E. Scuseria, 
 M. A. Robb, J. R. Cheeseman, G. Scalmani, V. Barone, 
 G. A. Petersson, H. Nakatsuji, X. Li, M. Caricato, A. V. Marenich, 
 J. Bloino, B. G. Janesko, R. Gomperts, B. Mennucci, H. P. Hratchian, 
 J. V. Ortiz, A. F. Izmaylov, J. L. Sonnenberg, D. Williams-Young, 
 F. Ding, F. Lipparini, F. Egidi, J. Goings, B. Peng, A. Petrone, 
 T. Henderson, D. Ranasinghe, V. G. Zakrzewski, J. Gao, N. Rega, 
 G. Zheng, W. Liang, M. Hada, M. Ehara, K. Toyota, R. Fukuda, 
 J. Hasegawa, M. Ishida, T. Nakajima, Y. Honda, O. Kitao, H. Nakai, 
 T. Vreven, K. Throssell, J. A. Montgomery, Jr., J. E. Peralta, 
 F. Ogliaro, M. J. Bearpark, J. J. Heyd, E. N. Brothers, K. N. Kudin, 
 V. N. Staroverov, T. A. Keith, R. Kobayashi, J. Normand, 
 K. Raghavachari, A. P. Rendell, J. C. Burant, S. S. Iyengar, 
 J. Tomasi, M. Cossi, J. M. Millam, M. Klene, C. Adamo, R. Cammi, 
 J. W. Ochterski, R. L. Martin, K. Morokuma, O. Farkas, 
 J. B. Foresman, and D. J. Fox, Gaussian, Inc., Wallingford CT, 2016.
 
 ******************************************
 Gaussian 16:  ES64L-G16RevA.03 25-Dec-2016
                 7-Mar-2018 
 ******************************************
 %MEM=80GB
 %CPU=0-15
 SetSPE:  set environment variable "MP_BIND" = "yes"
 SetSPE:  set environment variable "MP_BLIST" = "0,1,2,3,4,5,6,7,8,9,10,11,12,13,14,15"
 Will use up to   16 processors via shared memory.
 %RWF=/scratch/04843/aannabe/gaussian/
 %Int=/scratch/04843/aannabe/gaussian/
 %D2E=/scratch/04843/aannabe/gaussian/
 %NoSave
 %CHK=ScO
 ----------------------------------------------------------------------
 #P ROCCSD(T)=(maxcyc=150, Full, SaveAmplitudes, ReadAmplitudes)/Gen 5d
  7f SCF=(maxcycles=300) Integral(NoXCTest) MaxDisk=500GB Pop=Regular P
 seudo=Read Guess=Read IOp(5/15=2)
 ----------------------------------------------------------------------
 1/38=1,172=1/1;
 2/12=2,17=6,18=5,40=1/2;
 3/5=7,8=11,11=2,16=1,17=8,25=1,30=1,47=8,116=101/1,2,3;
 4/5=1/1;
 5/5=2,7=300,15=2,38=6/2;
 8/5=-1,6=4,9=120000,10=90,24=1/1,4;
 9/5=7,6=150,14=2,77=1/13;
 6//1;
 99/5=1,9=1/99;
 Leave Link    1 at Wed Mar  7 11:25:02 2018, MaxMem= 10737418240 cpu:               4.7 elap:               0.3
 (Enter /home1/apps/gaussian/16rA.03/g16/l101.exe)
 ---
 ScO
 ---
 Symbolic Z-matrix:
 Charge =  0 Multiplicity = 2
 Sc                    0.        0.        0. 
 O                     0.        0.        1.7 
 
 ITRead=  0  0
 MicOpt= -1 -1
 NAtoms=      2 NQM=        2 NQMF=       0 NMMI=      0 NMMIF=      0
                NMic=       0 NMicF=      0.
                    Isotopes and Nuclear Properties:
 (Nuclear quadrupole moments (NQMom) in fm**2, nuclear magnetic moments (NMagM)
  in nuclear magnetons)

  Atom         1           2
 IAtWgt=          45          16
 AtmWgt=  44.9559136  15.9949146
 NucSpn=           7           0
 AtZEff=  -0.0000000  -0.0000000
 NQMom=  -22.0000000   0.0000000
 NMagM=    4.7564830   0.0000000
 AtZNuc=  21.0000000   8.0000000
 Leave Link  101 at Wed Mar  7 11:25:04 2018, MaxMem= 10737418240 cpu:               1.7 elap:               0.2
 (Enter /home1/apps/gaussian/16rA.03/g16/l202.exe)
                          Input orientation:                          
 ---------------------------------------------------------------------
 Center     Atomic      Atomic             Coordinates (Angstroms)
 Number     Number       Type             X           Y           Z
 ---------------------------------------------------------------------
      1         21           0        0.000000    0.000000    0.000000
      2          8           0        0.000000    0.000000    1.700000
 ---------------------------------------------------------------------
 Stoichiometry    OSc(2)
 Framework group  C*V[C*(OSc)]
 Deg. of freedom     1
 Full point group                 C*V     NOp   4
 Largest Abelian subgroup         C2V     NOp   4
 Largest concise Abelian subgroup C1      NOp   1
                         Standard orientation:                         
 ---------------------------------------------------------------------
 Center     Atomic      Atomic             Coordinates (Angstroms)
 Number     Number       Type             X           Y           Z
 ---------------------------------------------------------------------
      1         21           0        0.000000    0.000000    0.468966
      2          8           0        0.000000    0.000000   -1.231034
 ---------------------------------------------------------------------
 Rotational constants (GHZ):           0.0000000          14.8227988          14.8227988
 Leave Link  202 at Wed Mar  7 11:25:05 2018, MaxMem= 10737418240 cpu:               0.4 elap:               0.1
 (Enter /home1/apps/gaussian/16rA.03/g16/l301.exe)
 General basis read from cards:  (5D, 7F)
 Centers:       1
 S 1 1.00
     Exponent=  2.7152780000D+06 Coefficients=  1.0000000000D+00
 S 1 1.00
     Exponent=  4.0659840000D+05 Coefficients=  1.0000000000D+00
 S 1 1.00
     Exponent=  9.2530040000D+04 Coefficients=  1.0000000000D+00
 S 1 1.00
     Exponent=  2.6207920000D+04 Coefficients=  1.0000000000D+00
 S 1 1.00
     Exponent=  8.5494290000D+03 Coefficients=  1.0000000000D+00
 S 1 1.00
     Exponent=  3.0859750000D+03 Coefficients=  1.0000000000D+00
 S 1 1.00
     Exponent=  1.2031720000D+03 Coefficients=  1.0000000000D+00
 S 1 1.00
     Exponent=  4.9848690000D+02 Coefficients=  1.0000000000D+00
 S 1 1.00
     Exponent=  2.1673600000D+02 Coefficients=  1.0000000000D+00
 S 1 1.00
     Exponent=  9.7874760000D+01 Coefficients=  1.0000000000D+00
 S 1 1.00
     Exponent=  4.5204330000D+01 Coefficients=  1.0000000000D+00
 S 1 1.00
     Exponent=  2.0211870000D+01 Coefficients=  1.0000000000D+00
 S 1 1.00
     Exponent=  9.5747510000D+00 Coefficients=  1.0000000000D+00
 S 1 1.00
     Exponent=  4.5403460000D+00 Coefficients=  1.0000000000D+00
 S 1 1.00
     Exponent=  1.9956870000D+00 Coefficients=  1.0000000000D+00
 S 1 1.00
     Exponent=  9.4221500000D-01 Coefficients=  1.0000000000D+00
 S 1 1.00
     Exponent=  4.1784500000D-01 Coefficients=  1.0000000000D+00
 S 1 1.00
     Exponent=  9.5761000000D-02 Coefficients=  1.0000000000D+00
 S 1 1.00
     Exponent=  5.1351000000D-02 Coefficients=  1.0000000000D+00
 S 1 1.00
     Exponent=  2.3878000000D-02 Coefficients=  1.0000000000D+00
 S 1 1.00
     Exponent=  2.6472000000D+00 Coefficients=  1.0000000000D+00
 S 1 1.00
     Exponent=  6.2170000000D-01 Coefficients=  1.0000000000D+00
 S 1 1.00
     Exponent=  1.1100000000D-02 Coefficients=  1.0000000000D+00
 P 1 1.00
     Exponent=  1.0592190000D+04 Coefficients=  1.0000000000D+00
 P 1 1.00
     Exponent=  2.5075330000D+03 Coefficients=  1.0000000000D+00
 P 1 1.00
     Exponent=  8.1445710000D+02 Coefficients=  1.0000000000D+00
 P 1 1.00
     Exponent=  3.1151950000D+02 Coefficients=  1.0000000000D+00
 P 1 1.00
     Exponent=  1.3196170000D+02 Coefficients=  1.0000000000D+00
 P 1 1.00
     Exponent=  5.9987180000D+01 Coefficients=  1.0000000000D+00
 P 1 1.00
     Exponent=  2.8662500000D+01 Coefficients=  1.0000000000D+00
 P 1 1.00
     Exponent=  1.4108510000D+01 Coefficients=  1.0000000000D+00
 P 1 1.00
     Exponent=  7.1037060000D+00 Coefficients=  1.0000000000D+00
 P 1 1.00
     Exponent=  3.6092000000D+00 Coefficients=  1.0000000000D+00
 P 1 1.00
     Exponent=  1.7760700000D+00 Coefficients=  1.0000000000D+00
 P 1 1.00
     Exponent=  8.5476000000D-01 Coefficients=  1.0000000000D+00
 P 1 1.00
     Exponent=  4.0223900000D-01 Coefficients=  1.0000000000D+00
 P 1 1.00
     Exponent=  1.5468000000D-01 Coefficients=  1.0000000000D+00
 P 1 1.00
     Exponent=  6.4888000000D-02 Coefficients=  1.0000000000D+00
 P 1 1.00
     Exponent=  2.6301000000D-02 Coefficients=  1.0000000000D+00
 P 1 1.00
     Exponent=  3.4418000000D+00 Coefficients=  1.0000000000D+00
 P 1 1.00
     Exponent=  8.0840000000D-01 Coefficients=  1.0000000000D+00
 P 1 1.00
     Exponent=  1.0660000000D-02 Coefficients=  1.0000000000D+00
 D 1 1.00
     Exponent=  5.0654200000D+01 Coefficients=  1.0000000000D+00
 D 1 1.00
     Exponent=  1.4732500000D+01 Coefficients=  1.0000000000D+00
 D 1 1.00
     Exponent=  5.1804600000D+00 Coefficients=  1.0000000000D+00
 D 1 1.00
     Exponent=  2.0195900000D+00 Coefficients=  1.0000000000D+00
 D 1 1.00
     Exponent=  7.9921900000D-01 Coefficients=  1.0000000000D+00
 D 1 1.00
     Exponent=  3.0531600000D-01 Coefficients=  1.0000000000D+00
 D 1 1.00
     Exponent=  1.1044400000D-01 Coefficients=  1.0000000000D+00
 D 1 1.00
     Exponent=  3.7065000000D-02 Coefficients=  1.0000000000D+00
 D 1 1.00
     Exponent=  1.8520000000D+00 Coefficients=  1.0000000000D+00
 D 1 1.00
     Exponent=  7.8750000000D-01 Coefficients=  1.0000000000D+00
 D 1 1.00
     Exponent=  1.2440000000D-02 Coefficients=  1.0000000000D+00
 F 1 1.00
     Exponent=  2.1048000000D+00 Coefficients=  1.0000000000D+00
 F 1 1.00
     Exponent=  6.5870000000D-01 Coefficients=  1.0000000000D+00
 F 1 1.00
     Exponent=  1.6360000000D-01 Coefficients=  1.0000000000D+00
 F 1 1.00
     Exponent=  4.0630000000D-02 Coefficients=  1.0000000000D+00
 G 1 1.00
     Exponent=  1.7850000000D+00 Coefficients=  1.0000000000D+00
 G 1 1.00
     Exponent=  4.1120000000D-01 Coefficients=  1.0000000000D+00
 G 1 1.00
     Exponent=  9.4730000000D-02 Coefficients=  1.0000000000D+00
 ****
 Centers:       2
 S 1 1.00
     Exponent=  1.5330000000D+04 Coefficients=  1.0000000000D+00
 S 1 1.00
     Exponent=  2.2990000000D+03 Coefficients=  1.0000000000D+00
 S 1 1.00
     Exponent=  5.2240000000D+02 Coefficients=  1.0000000000D+00
 S 1 1.00
     Exponent=  1.4730000000D+02 Coefficients=  1.0000000000D+00
 S 1 1.00
     Exponent=  4.7550000000D+01 Coefficients=  1.0000000000D+00
 S 1 1.00
     Exponent=  1.6760000000D+01 Coefficients=  1.0000000000D+00
 S 1 1.00
     Exponent=  6.2070000000D+00 Coefficients=  1.0000000000D+00
 S 1 1.00
     Exponent=  6.8820000000D-01 Coefficients=  1.0000000000D+00
 S 1 1.00
     Exponent=  1.7520000000D+00 Coefficients=  1.0000000000D+00
 S 1 1.00
     Exponent=  2.3840000000D-01 Coefficients=  1.0000000000D+00
 S 1 1.00
     Exponent=  7.8450000000D+00 Coefficients=  1.0000000000D+00
 S 1 1.00
     Exponent=  2.1032000000D+01 Coefficients=  1.0000000000D+00
 S 1 1.00
     Exponent=  7.3760000000D-02 Coefficients=  1.0000000000D+00
 P 1 1.00
     Exponent=  3.4460000000D+01 Coefficients=  1.0000000000D+00
 P 1 1.00
     Exponent=  7.7490000000D+00 Coefficients=  1.0000000000D+00
 P 1 1.00
     Exponent=  2.2800000000D+00 Coefficients=  1.0000000000D+00
 P 1 1.00
     Exponent=  7.1560000000D-01 Coefficients=  1.0000000000D+00
 P 1 1.00
     Exponent=  2.1400000000D-01 Coefficients=  1.0000000000D+00
 P 1 1.00
     Exponent=  1.5159000000D+01 Coefficients=  1.0000000000D+00
 P 1 1.00
     Exponent=  5.7437000000D+01 Coefficients=  1.0000000000D+00
 P 1 1.00
     Exponent=  5.9740000000D-02 Coefficients=  1.0000000000D+00
 D 1 1.00
     Exponent=  2.3140000000D+00 Coefficients=  1.0000000000D+00
 D 1 1.00
     Exponent=  6.4500000000D-01 Coefficients=  1.0000000000D+00
 D 1 1.00
     Exponent=  1.5858000000D+01 Coefficients=  1.0000000000D+00
 D 1 1.00
     Exponent=  2.1400000000D-01 Coefficients=  1.0000000000D+00
 F 1 1.00
     Exponent=  1.4280000000D+00 Coefficients=  1.0000000000D+00
 F 1 1.00
     Exponent=  5.0000000000D-01 Coefficients=  1.0000000000D+00
 ****
 ======================================================================================================
                                       Pseudopotential Parameters
 ======================================================================================================
  Center     Atomic      Valence      Angular      Power
  Number     Number     Electrons     Momentum     of R      Exponent        Coefficient   SO-Coeffient
 ======================================================================================================
    1         21           11
                                      D and up 
                                                     1       15.8710617       11.00000000    0.00000000
                                                     3       13.9768604      174.58167915    0.00000000
                                                     2       11.8066501      -83.71912057    0.00000000
                                                     2        3.9221880        0.52123427    0.00000000
                                      S - D
                                                     2       11.5422245      153.95629784    0.00000000
                                                     2        5.0238907       14.97877074    0.00000000
                                      P - D
                                                     2       11.6976525       97.24695557    0.00000000
                                                     2        4.6025650       10.91156201    0.00000000
    2          8            6
                                      P and up 
                                                     1       12.3099700        6.00000000    0.00000000
                                                     3       14.7696200       73.85984000    0.00000000
                                                     2       13.7141900      -47.87600000    0.00000000
                                      S - P
                                                     2       13.6551200       85.86406000    0.00000000
 ======================================================================================================
 Ernie: Thresh=  0.10000D-02 Tol=  0.10000D-05 Strict=F.
 There are   144 symmetry adapted cartesian basis functions of A1  symmetry.
 There are    30 symmetry adapted cartesian basis functions of A2  symmetry.
 There are    69 symmetry adapted cartesian basis functions of B1  symmetry.
 There are    69 symmetry adapted cartesian basis functions of B2  symmetry.
 There are   114 symmetry adapted basis functions of A1  symmetry.
 There are    27 symmetry adapted basis functions of A2  symmetry.
 There are    60 symmetry adapted basis functions of B1  symmetry.
 There are    60 symmetry adapted basis functions of B2  symmetry.
   261 basis functions,   312 primitive gaussians,   312 cartesian basis functions
     9 alpha electrons        8 beta electrons
       nuclear repulsion energy        20.5445270122 Hartrees.
 IExCor=    0 DFT=F Ex=HF Corr=None ExCW=0 ScaHFX=  1.000000
 ScaDFX=  1.000000  1.000000  1.000000  1.000000 ScalE2=  1.000000  1.000000
 IRadAn=      5 IRanWt=     -1 IRanGd=            0 ICorTp=0 IEmpDi=  4
 NAtoms=    2 NActive=    2 NUniq=    2 SFac= 1.00D+00 NAtFMM=   60 NAOKFM=F Big=F
 Integral buffers will be    131072 words long.
 Raffenetti 2 integral format.
 Two-electron integral symmetry is turned on.
 Leave Link  301 at Wed Mar  7 11:25:06 2018, MaxMem= 10737418240 cpu:               4.0 elap:               0.3
 (Enter /home1/apps/gaussian/16rA.03/g16/l302.exe)
 NPDir=0 NMtPBC=     1 NCelOv=     1 NCel=       1 NClECP=     1 NCelD=      1
         NCelK=      1 NCelE2=     1 NClLst=     1 CellRange=     0.0.
 One-electron integrals computed using PRISM.
 One-electron integral symmetry used in STVInt
   4 Symmetry operations used in ECPInt.
 ECPInt:  NShTT=    3828 NPrTT=    3828 LenC2=    3542 LenP2D=    3541.
 LDataN:  DoStor=T MaxTD1= 8 Len=  415
 NBasis=   261 RedAO= T EigKep=  1.08D-06  NBF=   114    27    60    60
 NBsUse=   258 1.00D-06 EigRej=  6.57D-07 NBFU=   113    27    59    59
 Leave Link  302 at Wed Mar  7 11:25:07 2018, MaxMem= 10737418240 cpu:              15.3 elap:               1.0
 (Enter /home1/apps/gaussian/16rA.03/g16/l303.exe)
 DipDrv:  MaxL=1.
 Leave Link  303 at Wed Mar  7 11:25:07 2018, MaxMem= 10737418240 cpu:               1.2 elap:               0.2
 (Enter /home1/apps/gaussian/16rA.03/g16/l401.exe)
 Initial guess from the checkpoint file:  "ScO.chk"
 B after Tr=     0.000000    0.000000    0.000000
         Rot=    1.000000    0.000000    0.000000    0.000000 Ang=   0.00 deg.
 Guess basis will be translated and rotated to current coordinates.
 JPrj=2 DoOrth=T DoCkMO=T.
 Initial guess orbital symmetries:
       Occupied  (SG) (SG) (PI) (PI) (SG) (SG) (PI) (PI) (SG)
       Virtual   (PI) (PI) (SG) (SG) (DLTA) (DLTA) (PI) (PI) (PI)
                 (PI) (SG) (SG) (DLTA) (DLTA) (SG) (PI) (PI) (SG)
                 (PI) (PI) (SG) (PI) (PI) (PHI) (PHI) (DLTA) (DLTA)
                 (SG) (DLTA) (DLTA) (PI) (PI) (SG) (PI) (PI) (SG)
                 (SG) (SG) (DLTA) (DLTA) (PI) (PI) (DLTA) (DLTA)
                 (?A) (?A) (PHI) (PHI) (SG) (PI) (PI) (PI) (PI)
                 (SG) (PHI) (PHI) (DLTA) (DLTA) (SG) (PI) (PI)
                 (SG) (PI) (PI) (DLTA) (DLTA) (SG) (SG) (DLTA)
                 (DLTA) (PI) (PI) (SG) (SG) (PI) (PI) (PI) (PI)
                 (SG) (DLTA) (DLTA) (PHI) (PHI) (?A) (?A) (SG)
                 (PI) (PI) (SG) (DLTA) (DLTA) (PHI) (PHI) (PI)
                 (PI) (PHI) (PHI) (DLTA) (DLTA) (SG) (PI) (PI)
                 (DLTA) (DLTA) (SG) (DLTA) (DLTA) (PI) (PI) (SG)
                 (PI) (PI) (SG) (SG) (PI) (PI) (SG) (PI) (PI) (SG)
                 (SG) (DLTA) (DLTA) (PI) (PI) (SG) (PHI) (PHI)
                 (PHI) (PHI) (DLTA) (DLTA) (DLTA) (DLTA) (PI) (PI)
                 (PI) (PI) (SG) (DLTA) (DLTA) (SG) (PI) (PI) (SG)
                 (?A) (?A) (PHI) (PHI) (DLTA) (DLTA) (PI) (PI)
                 (SG) (SG) (PI) (PI) (SG) (DLTA) (DLTA) (PI) (PI)
                 (SG) (PI) (PI) (SG) (SG) (SG) (PI) (PI) (SG) (DLTA)
                 (DLTA) (PI) (PI) (SG) (SG) (PI) (PI) (SG) (SG)
                 (DLTA) (DLTA) (PI) (PI) (SG) (PI) (PI) (SG) (DLTA)
                 (DLTA) (PI) (PI) (SG) (SG) (SG) (PI) (PI) (SG)
                 (PI) (PI) (SG) (SG) (SG) (PI) (PI) (SG) (DLTA)
                 (DLTA) (PI) (PI) (SG) (SG) (SG) (PI) (PI) (SG)
                 (PI) (PI) (SG) (SG) (SG) (PI) (PI) (SG) (SG) (PI)
                 (PI) (SG) (SG) (SG) (PI) (PI) (SG) (SG) (SG) (PI)
                 (PI) (SG) (SG) (SG) (SG) (PI) (PI) (SG) (SG) (SG)
                 (SG) (SG)
 The electronic state of the initial guess is 2-SG.
 Leave Link  401 at Wed Mar  7 11:25:08 2018, MaxMem= 10737418240 cpu:               6.6 elap:               0.5
 (Enter /home1/apps/gaussian/16rA.03/g16/l502.exe)
 Keep R1 and R2 ints in memory in symmetry-blocked form, NReq=734602573.
 FoFCou: FMM=F IPFlag=           8 FMFlag=           0 FMFlg1=           0
         NFxFlg=           0 DoJE=F BraDBF=F KetDBF=F FulRan=T
         wScrn=  0.000000 ICntrl=       600 IOpCl=  0 I1Cent=           0 NGrid=           0
         NMat0=    1 NMatS0=  34191 NMatT0=    0 NMatD0=    1 NMtDS0=    0 NMtDT0=    0
 Petite list used in FoFCou.
 Restricted open shell SCF:
 Using DIIS extrapolation, IDIIS=  1040.
 NGot= 10737418240 LenX= 10437151885 LenY= 10437054100
 Requested convergence on RMS density matrix=1.00D-08 within 300 cycles.
 Requested convergence on MAX density matrix=1.00D-06.
 Requested convergence on             energy=1.00D-06.
 No special actions if energy rises.

 Cycle   1  Pass 1  IDiag  1:
 E= -61.9626246499298    
 DIIS: error= 1.06D-02 at cycle   1 NSaved=   1.
 NSaved= 1 IEnMin= 1 EnMin= -61.9626246499298     IErMin= 1 ErrMin= 1.06D-02
 ErrMax= 1.06D-02  0.00D+00 EMaxC= 1.00D-01 BMatC= 2.11D-02 BMatP= 2.11D-02
 IDIUse=3 WtCom= 8.94D-01 WtEn= 1.06D-01
 Coeff-Com:  0.100D+01
 Coeff-En:   0.100D+01
 Coeff:      0.100D+01
 Gap=     0.090 Goal=   None    Shift=    0.000
 GapD=    0.090 DampG=0.500 DampE=0.250 DampFc=0.1250 IDamp=-1.
 Damping current iteration by 1.25D-01
 RMSDP=2.93D-04 MaxDP=2.93D-02              OVMax= 5.25D-03

 Cycle   2  Pass 1  IDiag  1:
 E= -61.9628581733503     Delta-E=       -0.000233523421 Rises=F Damp=T
 DIIS: error= 9.35D-03 at cycle   2 NSaved=   2.
 NSaved= 2 IEnMin= 2 EnMin= -61.9628581733503     IErMin= 2 ErrMin= 9.35D-03
 ErrMax= 9.35D-03  0.00D+00 EMaxC= 1.00D-01 BMatC= 1.63D-02 BMatP= 2.11D-02
 IDIUse=3 WtCom= 9.06D-01 WtEn= 9.35D-02
 Coeff-Com: -0.712D+01 0.812D+01
 Coeff-En:   0.000D+00 0.100D+01
 Coeff:     -0.646D+01 0.746D+01
 Gap=     0.089 Goal=   None    Shift=    0.000
 RMSDP=2.96D-04 MaxDP=2.43D-02 DE=-2.34D-04 OVMax= 3.70D-02

 Cycle   3  Pass 1  IDiag  1:
 E= -61.9642982374128     Delta-E=       -0.001440064063 Rises=F Damp=F
 DIIS: error= 8.42D-04 at cycle   3 NSaved=   3.
 NSaved= 3 IEnMin= 3 EnMin= -61.9642982374128     IErMin= 3 ErrMin= 8.42D-04
 ErrMax= 8.42D-04  0.00D+00 EMaxC= 1.00D-01 BMatC= 8.09D-05 BMatP= 1.63D-02
 IDIUse=3 WtCom= 9.92D-01 WtEn= 8.42D-03
 Coeff-Com: -0.337D+01 0.383D+01 0.536D+00
 Coeff-En:   0.000D+00 0.000D+00 0.100D+01
 Coeff:     -0.334D+01 0.380D+01 0.539D+00
 Gap=     0.089 Goal=   None    Shift=    0.000
 RMSDP=1.34D-04 MaxDP=1.40D-02 DE=-1.44D-03 OVMax= 2.14D-02

 Cycle   4  Pass 1  IDiag  1:
 E= -61.9644690508066     Delta-E=       -0.000170813394 Rises=F Damp=F
 DIIS: error= 2.55D-04 at cycle   4 NSaved=   4.
 NSaved= 4 IEnMin= 4 EnMin= -61.9644690508066     IErMin= 4 ErrMin= 2.55D-04
 ErrMax= 2.55D-04  0.00D+00 EMaxC= 1.00D-01 BMatC= 8.16D-06 BMatP= 8.09D-05
 IDIUse=3 WtCom= 9.97D-01 WtEn= 2.55D-03
 Coeff-Com: -0.210D+01 0.239D+01 0.280D+00 0.431D+00
 Coeff-En:   0.000D+00 0.000D+00 0.000D+00 0.100D+01
 Coeff:     -0.209D+01 0.238D+01 0.279D+00 0.432D+00
 Gap=     0.089 Goal=   None    Shift=    0.000
 RMSDP=5.21D-05 MaxDP=7.86D-03 DE=-1.71D-04 OVMax= 5.23D-03

 Cycle   5  Pass 1  IDiag  1:
 E= -61.9644903610901     Delta-E=       -0.000021310283 Rises=F Damp=F
 DIIS: error= 1.79D-04 at cycle   5 NSaved=   5.
 NSaved= 5 IEnMin= 5 EnMin= -61.9644903610901     IErMin= 5 ErrMin= 1.79D-04
 ErrMax= 1.79D-04  0.00D+00 EMaxC= 1.00D-01 BMatC= 3.62D-06 BMatP= 8.16D-06
 IDIUse=3 WtCom= 9.98D-01 WtEn= 1.79D-03
 Coeff-Com: -0.123D+01 0.140D+01 0.706D-01-0.205D+00 0.964D+00
 Coeff-En:   0.000D+00 0.000D+00 0.000D+00 0.000D+00 0.100D+01
 Coeff:     -0.123D+01 0.140D+01 0.705D-01-0.205D+00 0.964D+00
 Gap=     0.089 Goal=   None    Shift=    0.000
 RMSDP=3.02D-05 MaxDP=2.54D-03 DE=-2.13D-05 OVMax= 4.56D-03

 Cycle   6  Pass 1  IDiag  1:
 E= -61.9645027687880     Delta-E=       -0.000012407698 Rises=F Damp=F
 DIIS: error= 1.24D-04 at cycle   6 NSaved=   6.
 NSaved= 6 IEnMin= 6 EnMin= -61.9645027687880     IErMin= 6 ErrMin= 1.24D-04
 ErrMax= 1.24D-04  0.00D+00 EMaxC= 1.00D-01 BMatC= 1.54D-06 BMatP= 3.62D-06
 IDIUse=3 WtCom= 9.99D-01 WtEn= 1.24D-03
 Coeff-Com: -0.447D+00 0.508D+00 0.282D-01-0.290D+00-0.481D+00 0.168D+01
 Coeff-En:   0.000D+00 0.000D+00 0.000D+00 0.000D+00 0.000D+00 0.100D+01
 Coeff:     -0.446D+00 0.507D+00 0.282D-01-0.289D+00-0.481D+00 0.168D+01
 Gap=     0.089 Goal=   None    Shift=    0.000
 RMSDP=3.16D-05 MaxDP=3.53D-03 DE=-1.24D-05 OVMax= 6.07D-03

 Cycle   7  Pass 1  IDiag  1:
 E= -61.9645114278308     Delta-E=       -0.000008659043 Rises=F Damp=F
 DIIS: error= 4.54D-05 at cycle   7 NSaved=   7.
 NSaved= 7 IEnMin= 7 EnMin= -61.9645114278308     IErMin= 7 ErrMin= 4.54D-05
 ErrMax= 4.54D-05  0.00D+00 EMaxC= 1.00D-01 BMatC= 2.34D-07 BMatP= 1.54D-06
 IDIUse=1 WtCom= 1.00D+00 WtEn= 0.00D+00
 Coeff-Com: -0.189D+00 0.215D+00 0.359D-01-0.188D-01-0.404D+00 0.281D+00
 Coeff-Com:  0.108D+01
 Coeff:     -0.189D+00 0.215D+00 0.359D-01-0.188D-01-0.404D+00 0.281D+00
 Coeff:      0.108D+01
 Gap=     0.089 Goal=   None    Shift=    0.000
 RMSDP=2.96D-05 MaxDP=3.60D-03 DE=-8.66D-06 OVMax= 2.36D-03

 Cycle   8  Pass 1  IDiag  1:
 E= -61.9645127391639     Delta-E=       -0.000001311333 Rises=F Damp=F
 DIIS: error= 1.96D-05 at cycle   8 NSaved=   8.
 NSaved= 8 IEnMin= 8 EnMin= -61.9645127391639     IErMin= 8 ErrMin= 1.96D-05
 ErrMax= 1.96D-05  0.00D+00 EMaxC= 1.00D-01 BMatC= 3.86D-08 BMatP= 2.34D-07
 IDIUse=1 WtCom= 1.00D+00 WtEn= 0.00D+00
 Coeff-Com:  0.202D-01-0.230D-01 0.267D-02 0.250D-01-0.192D-01-0.280D+00
 Coeff-Com:  0.252D+00 0.102D+01
 Coeff:      0.202D-01-0.230D-01 0.267D-02 0.250D-01-0.192D-01-0.280D+00
 Coeff:      0.252D+00 0.102D+01
 Gap=     0.090 Goal=   None    Shift=    0.000
 RMSDP=8.28D-06 MaxDP=9.29D-04 DE=-1.31D-06 OVMax= 1.64D-03

 Cycle   9  Pass 1  IDiag  1:
 E= -61.9645130278437     Delta-E=       -0.000000288680 Rises=F Damp=F
 DIIS: error= 4.79D-06 at cycle   9 NSaved=   9.
 NSaved= 9 IEnMin= 9 EnMin= -61.9645130278437     IErMin= 9 ErrMin= 4.79D-06
 ErrMax= 4.79D-06  0.00D+00 EMaxC= 1.00D-01 BMatC= 2.09D-09 BMatP= 3.86D-08
 IDIUse=1 WtCom= 1.00D+00 WtEn= 0.00D+00
 Coeff-Com:  0.403D-02-0.460D-02-0.880D-04 0.564D-02 0.391D-01 0.363D-01
 Coeff-Com: -0.180D+00-0.211D+00 0.131D+01
 Coeff:      0.403D-02-0.460D-02-0.880D-04 0.564D-02 0.391D-01 0.363D-01
 Coeff:     -0.180D+00-0.211D+00 0.131D+01
 Gap=     0.090 Goal=   None    Shift=    0.000
 RMSDP=1.87D-06 MaxDP=2.81D-04 DE=-2.89D-07 OVMax= 1.47D-04

 Cycle  10  Pass 1  IDiag  1:
 E= -61.9645130378327     Delta-E=       -0.000000009989 Rises=F Damp=F
 DIIS: error= 2.98D-06 at cycle  10 NSaved=  10.
 NSaved=10 IEnMin=10 EnMin= -61.9645130378327     IErMin=10 ErrMin= 2.98D-06
 ErrMax= 2.98D-06  0.00D+00 EMaxC= 1.00D-01 BMatC= 4.49D-10 BMatP= 2.09D-09
 IDIUse=1 WtCom= 1.00D+00 WtEn= 0.00D+00
 Coeff-Com: -0.207D-02 0.235D-02-0.807D-03-0.279D-02-0.345D-02 0.409D-01
 Coeff-Com: -0.148D-01-0.137D+00-0.203D+00 0.132D+01
 Coeff:     -0.207D-02 0.235D-02-0.807D-03-0.279D-02-0.345D-02 0.409D-01
 Coeff:     -0.148D-01-0.137D+00-0.203D+00 0.132D+01
 Gap=     0.090 Goal=   None    Shift=    0.000
 RMSDP=1.27D-06 MaxDP=2.10D-04 DE=-9.99D-09 OVMax= 6.07D-05

 Cycle  11  Pass 1  IDiag  1:
 E= -61.9645130401540     Delta-E=       -0.000000002321 Rises=F Damp=F
 DIIS: error= 1.27D-06 at cycle  11 NSaved=  11.
 NSaved=11 IEnMin=11 EnMin= -61.9645130401540     IErMin=11 ErrMin= 1.27D-06
 ErrMax= 1.27D-06  0.00D+00 EMaxC= 1.00D-01 BMatC= 1.31D-10 BMatP= 4.49D-10
 IDIUse=1 WtCom= 1.00D+00 WtEn= 0.00D+00
 Coeff-Com:  0.285D-03-0.318D-03-0.658D-03-0.267D-02-0.122D-01-0.637D-02
 Coeff-Com:  0.536D-01 0.551D-01-0.453D+00 0.267D+00 0.110D+01
 Coeff:      0.285D-03-0.318D-03-0.658D-03-0.267D-02-0.122D-01-0.637D-02
 Coeff:      0.536D-01 0.551D-01-0.453D+00 0.267D+00 0.110D+01
 Gap=     0.090 Goal=   None    Shift=    0.000
 RMSDP=7.15D-07 MaxDP=1.27D-04 DE=-2.32D-09 OVMax= 4.27D-05

 Cycle  12  Pass 1  IDiag  1:
 E= -61.9645130409056     Delta-E=       -0.000000000752 Rises=F Damp=F
 DIIS: error= 3.69D-07 at cycle  12 NSaved=  12.
 NSaved=12 IEnMin=12 EnMin= -61.9645130409056     IErMin=12 ErrMin= 3.69D-07
 ErrMax= 3.69D-07  0.00D+00 EMaxC= 1.00D-01 BMatC= 1.68D-11 BMatP= 1.31D-10
 IDIUse=1 WtCom= 1.00D+00 WtEn= 0.00D+00
 Coeff-Com: -0.543D-03 0.618D-03 0.245D-03 0.520D-03-0.666D-03-0.754D-02
 Coeff-Com:  0.489D-02 0.359D-01 0.144D-01-0.272D+00 0.241D-01 0.120D+01
 Coeff:     -0.543D-03 0.618D-03 0.245D-03 0.520D-03-0.666D-03-0.754D-02
 Coeff:      0.489D-02 0.359D-01 0.144D-01-0.272D+00 0.241D-01 0.120D+01
 Gap=     0.090 Goal=   None    Shift=    0.000
 RMSDP=1.99D-07 MaxDP=3.42D-05 DE=-7.52D-10 OVMax= 1.53D-05

 Cycle  13  Pass 1  IDiag  1:
 E= -61.9645130410138     Delta-E=       -0.000000000108 Rises=F Damp=F
 DIIS: error= 9.94D-08 at cycle  13 NSaved=  13.
 NSaved=13 IEnMin=13 EnMin= -61.9645130410138     IErMin=13 ErrMin= 9.94D-08
 ErrMax= 9.94D-08  0.00D+00 EMaxC= 1.00D-01 BMatC= 1.45D-12 BMatP= 1.68D-11
 IDIUse=1 WtCom= 1.00D+00 WtEn= 0.00D+00
 Coeff-Com: -0.537D-03 0.610D-03 0.130D-03 0.262D-03 0.947D-03 0.150D-02
 Coeff-Com: -0.606D-02-0.884D-02 0.478D-01-0.302D-01-0.115D+00 0.680D-01
 Coeff-Com:  0.104D+01
 Coeff:     -0.537D-03 0.610D-03 0.130D-03 0.262D-03 0.947D-03 0.150D-02
 Coeff:     -0.606D-02-0.884D-02 0.478D-01-0.302D-01-0.115D+00 0.680D-01
 Coeff:      0.104D+01
 Gap=     0.090 Goal=   None    Shift=    0.000
 RMSDP=7.99D-08 MaxDP=1.02D-05 DE=-1.08D-10 OVMax= 3.83D-06

 Cycle  14  Pass 1  IDiag  1:
 E= -61.9645130410199     Delta-E=       -0.000000000006 Rises=F Damp=F
 DIIS: error= 5.49D-08 at cycle  14 NSaved=  14.
 NSaved=14 IEnMin=14 EnMin= -61.9645130410199     IErMin=14 ErrMin= 5.49D-08
 ErrMax= 5.49D-08  0.00D+00 EMaxC= 1.00D-01 BMatC= 3.85D-13 BMatP= 1.45D-12
 IDIUse=1 WtCom= 1.00D+00 WtEn= 0.00D+00
 Coeff-Com: -0.934D-04 0.106D-03 0.693D-05-0.785D-04 0.294D-03 0.121D-02
 Coeff-Com: -0.199D-02-0.673D-02 0.127D-01 0.162D-01-0.358D-01-0.888D-01
 Coeff-Com:  0.264D+00 0.839D+00
 Coeff:     -0.934D-04 0.106D-03 0.693D-05-0.785D-04 0.294D-03 0.121D-02
 Coeff:     -0.199D-02-0.673D-02 0.127D-01 0.162D-01-0.358D-01-0.888D-01
 Coeff:      0.264D+00 0.839D+00
 Gap=     0.090 Goal=   None    Shift=    0.000
 RMSDP=3.80D-08 MaxDP=3.14D-06 DE=-6.05D-12 OVMax= 3.52D-06

 Cycle  15  Pass 1  IDiag  1:
 E= -61.9645130410220     Delta-E=       -0.000000000002 Rises=F Damp=F
 DIIS: error= 1.34D-08 at cycle  15 NSaved=  15.
 NSaved=15 IEnMin=15 EnMin= -61.9645130410220     IErMin=15 ErrMin= 1.34D-08
 ErrMax= 1.34D-08  0.00D+00 EMaxC= 1.00D-01 BMatC= 3.10D-14 BMatP= 3.85D-13
 IDIUse=1 WtCom= 1.00D+00 WtEn= 0.00D+00
 Coeff-Com:  0.353D-04-0.402D-04-0.979D-05-0.841D-04-0.654D-04 0.147D-03
 Coeff-Com:  0.377D-03-0.743D-03-0.265D-02 0.792D-02 0.481D-02-0.335D-01
 Coeff-Com: -0.758D-01 0.189D+00 0.911D+00
 Coeff:      0.353D-04-0.402D-04-0.979D-05-0.841D-04-0.654D-04 0.147D-03
 Coeff:      0.377D-03-0.743D-03-0.265D-02 0.792D-02 0.481D-02-0.335D-01
 Coeff:     -0.758D-01 0.189D+00 0.911D+00
 Gap=     0.090 Goal=   None    Shift=    0.000
 RMSDP=1.25D-08 MaxDP=8.37D-07 DE=-2.12D-12 OVMax= 9.80D-07

 Cycle  16  Pass 1  IDiag  1:
 E= -61.9645130410222     Delta-E=       -0.000000000000 Rises=F Damp=F
 DIIS: error= 4.17D-09 at cycle  16 NSaved=  16.
 NSaved=16 IEnMin=16 EnMin= -61.9645130410222     IErMin=16 ErrMin= 4.17D-09
 ErrMax= 4.17D-09  0.00D+00 EMaxC= 1.00D-01 BMatC= 2.84D-15 BMatP= 3.10D-14
 IDIUse=1 WtCom= 1.00D+00 WtEn= 0.00D+00
 Coeff-Com: -0.126D-04 0.144D-04 0.616D-05 0.139D-04-0.347D-04-0.770D-04
 Coeff-Com:  0.164D-03 0.593D-03-0.107D-02-0.161D-02 0.316D-02 0.908D-02
 Coeff-Com: -0.255D-01-0.977D-01 0.455D-02 0.111D+01
 Coeff:     -0.126D-04 0.144D-04 0.616D-05 0.139D-04-0.347D-04-0.770D-04
 Coeff:      0.164D-03 0.593D-03-0.107D-02-0.161D-02 0.316D-02 0.908D-02
 Coeff:     -0.255D-01-0.977D-01 0.455D-02 0.111D+01
 Gap=     0.090 Goal=   None    Shift=    0.000
 RMSDP=2.32D-09 MaxDP=1.57D-07 DE=-1.71D-13 OVMax= 3.40D-07

 SCF Done:  E(ROHF) =  -61.9645130410     A.U. after   16 cycles
            NFock= 16  Conv=0.23D-08     -V/T= 3.0429
 <Sx>= 0.0000 <Sy>= 0.0000 <Sz>= 0.5000 <S**2>= 0.7500 S= 0.5000
 <L.S>=  0.00000000000    
 KE= 3.033093224007D+01 PE=-1.751911057127D+02 EE= 6.235113341941D+01
 Annihilation of the first spin contaminant:
 S**2 before annihilation     0.7500,   after     0.7500
 Leave Link  502 at Wed Mar  7 11:25:36 2018, MaxMem= 10737418240 cpu:             385.7 elap:              27.3
 (Enter /home1/apps/gaussian/16rA.03/g16/l801.exe)
 Windowed orbitals will be sorted by symmetry type.
 GenMOA:  NOpAll=  4 NOp2=4 NOpUse=  4 JSym2X=1
 FoFJK:  IHMeth= 1 ICntrl=       0 DoSepK=F KAlg= 0 I1Cent=           0 FoldK=F
 IRaf=         0 NMat=       1 IRICut=       1 DoRegI=T DoRafI=F ISym2E= 1 IDoP0=0 IntGTp=1.
 FoFCou: FMM=F IPFlag=           8 FMFlag=      100000 FMFlg1=           0
         NFxFlg=           0 DoJE=F BraDBF=F KetDBF=F FulRan=T
         wScrn=  0.000000 ICntrl=         0 IOpCl=  1 I1Cent=           0 NGrid=           0
         NMat0=    1 NMatS0=      1 NMatT0=    0 NMatD0=    1 NMtDS0=    0 NMtDT0=    0
 Petite list used in FoFCou.
 <Sx>= 0.0000 <Sy>= 0.0000 <Sz>= 0.5000 <S**2>= 0.7500 S= 0.5000
 Range of M.O.s used for correlation:     1   258
 NBasis=   261 NAE=     9 NBE=     8 NFC=     0 NFV=     0
 NROrb=    258 NOA=     9 NOB=     8 NVA=   249 NVB=   250

 **** Warning!!: The largest alpha MO coefficient is  0.35388779D+03


 **** Warning!!: The largest beta MO coefficient is  0.35392017D+03

 Singles contribution to E2=   -0.2048432391D-03
 Leave Link  801 at Wed Mar  7 11:25:44 2018, MaxMem= 10737418240 cpu:             101.0 elap:               6.4
 (Enter /home1/apps/gaussian/16rA.03/g16/l804.exe)
 Open-shell transformation, MDV= 10737418240 ITran=4 ISComp=2.
 Unit  1 TFree=       2053648 TCopy=        917704.
 Semi-Direct transformation.
 ModeAB=           4 MOrb=             9 LenV=   10735345395
 LASXX=     19587894 LTotXX=    19587894 LenRXX=    39492189
 LTotAB=    19904295 MaxLAS=   112233870 LenRXY=           0
 NonZer=    59080083 LenScr=    89384960 LnRSAI=   112233870
 LnScr1=   169100288 LExtra=     8126851 Total=    418338158
 MaxDsk= 67108864000 SrtSym=           T ITran=            4
 DoSDTr:  NPSUse= 16
 JobTyp=1 Pass  1:  I=   1 to   9.
 (rs|ai) integrals will be sorted in core.
 Complete sort for first half transformation.
 First half transformation complete.
 Complete sort for second half transformation.
 Second half transformation complete.
 ModeAB=           4 MOrb=             8 LenV=   10735345395
 LASXX=     17386166 LTotXX=    17386166 LenRXX=    33807986
 LTotAB=    16421820 MaxLAS=    99763440 LenRXY=           0
 NonZer=    51194152 LenScr=    77552640 LnRSAI=    99763440
 LnScr1=   150405120 LExtra=    47619040 Total=    409148226
 MaxDsk= 67108864000 SrtSym=           T ITran=            4
 DoSDTr:  NPSUse= 16
 JobTyp=2 Pass  1:  I=   1 to   8.
 (rs|ai) integrals will be sorted in core.
 Complete sort for first half transformation.
 First half transformation complete.
 Complete sort for second half transformation.
 Second half transformation complete.
 Spin components of T(2) and E(2):
     alpha-alpha T2 =       0.3128033065D-01 E2=     -0.9739901613D-01
     alpha-beta  T2 =       0.1318518742D+00 E2=     -0.4981136837D+00
     beta-beta   T2 =       0.2699694701D-01 E2=     -0.8853276855D-01
 ANorm=    0.1091018209D+01
 E2 =    -0.6842503116D+00 EUMP2 =    -0.62648763352668D+02
 (S**2,0)=  0.75000D+00           (S**2,1)=  0.75000D+00
 E(PUHF)=      -0.61964513041D+02        E(PMP2)=      -0.62648763353D+02
 Leave Link  804 at Wed Mar  7 11:27:44 2018, MaxMem= 10737418240 cpu:            1910.4 elap:             119.6
 (Enter /home1/apps/gaussian/16rA.03/g16/l913.exe)
 CIDS:  MDV= 10737418240.
 IFCWin=0 IBDFC=1 NFBD=     0     0 NFCmp=     0     0 NFFFC=     0     0
 Using original routines for 1st iteration.
 Using DD4UQ or CC4UQ for 2nd and later iterations.
 Keep R2 and R3 ints in memory in symmetry-blocked form, NReq=734615681.
 FoFCou: FMM=F IPFlag=           8 FMFlag=           0 FMFlg1=           0
         NFxFlg=           0 DoJE=F BraDBF=F KetDBF=F FulRan=T
         wScrn=  0.000000 ICntrl=       600 IOpCl=  0 I1Cent=           0 NGrid=           0
         NMat0=    1 NMatS0=  34191 NMatT0=    0 NMatD0=    1 NMtDS0=    0 NMtDT0=    0
 Petite list used in FoFCou.
 CIDS: In Core Option IDoMem=           1.
 CCSD(T)
 =======
 Iterations= 150 Convergence= 0.100D-06
 Produce multiple copies of IABC intergrals
 Iteration Nr.   1
 **********************
 DD1Dir will call FoFMem   1 times, MxPair=       208
 NAB=    72 NAA=    36 NBB=    28.
 DD1Dir will call FoFMem   1 times, MxPair=       208
 NAB=    72 NAA=    36 NBB=    28.
 MP4(R+Q)= -0.82314274D-02
 Maximum subspace dimension=  5
 A-vector RMS=  1.1264345D-04 Max=  3.4854158D-03 conv= 1.00D-05.
 RLE energy=       -0.6659372231
 E3=        0.27029734D-01        EROMP3=      -0.62621733619D+02
 E4(SDQ)=  -0.37882107D-01        ROMP4(SDQ)=  -0.62659615726D+02
 VARIATIONAL ENERGIES WITH THE FIRST-ORDER WAVEFUNCTION:
 DE(Corr)= -0.66543341     E(Corr)=     -62.629946451    
 NORM(A)=   0.10844215D+01
 Iteration Nr.   2
 **********************
 DD1Dir will call FoFMem   1 times, MxPair=       208
 NAB=    72 NAA=    36 NBB=    28.
 A-vector RMS=  5.9089176D-03 Max=  5.8206092D-02 conv= 1.00D-05.
 RLE energy=       -0.6313419600
 DE(Corr)= -0.63610725     E(CORR)=     -62.600620295     Delta= 2.93D-02
 NORM(A)=   0.10907627D+01
 Iteration Nr.   3
 **********************
 DD1Dir will call FoFMem   1 times, MxPair=       208
 NAB=    72 NAA=    36 NBB=    28.
 A-vector RMS=  5.1440774D-03 Max=  5.0655180D-02 conv= 1.00D-05.
 RLE energy=       -0.6684044185
 DE(Corr)= -0.69634824     E(CORR)=     -62.660861283     Delta=-6.02D-02
 NORM(A)=   0.10843175D+01
 Iteration Nr.   4
 **********************
 DD1Dir will call FoFMem   1 times, MxPair=       208
 NAB=    72 NAA=    36 NBB=    28.
 A-vector RMS=  4.4771147D-03 Max=  4.4107490D-02 conv= 1.00D-05.
 RLE energy=       -0.6727922803
 DE(Corr)= -0.64677960     E(CORR)=     -62.611292641     Delta= 4.96D-02
 NORM(A)=   0.11012499D+01
 Iteration Nr.   5
 **********************
 DD1Dir will call FoFMem   1 times, MxPair=       208
 NAB=    72 NAA=    36 NBB=    28.
 A-vector RMS=  7.6322106D-04 Max=  7.0756860D-03 conv= 1.00D-05.
 RLE energy=       -0.6733203188
 DE(Corr)= -0.67717862     E(CORR)=     -62.641691664     Delta=-3.04D-02
 NORM(A)=   0.11040181D+01
 Iteration Nr.   6
 **********************
 DD1Dir will call FoFMem   1 times, MxPair=       208
 NAB=    72 NAA=    36 NBB=    28.
 A-vector RMS=  3.1800138D-04 Max=  3.9520283D-03 conv= 1.00D-05.
 RLE energy=       -0.6735379593
 DE(Corr)= -0.67475762     E(CORR)=     -62.639270661     Delta= 2.42D-03
 NORM(A)=   0.11052828D+01
 Iteration Nr.   7
 **********************
 DD1Dir will call FoFMem   1 times, MxPair=       208
 NAB=    72 NAA=    36 NBB=    28.
 A-vector RMS=  1.2762006D-04 Max=  2.3099428D-03 conv= 1.00D-05.
 RLE energy=       -0.6734619271
 DE(Corr)= -0.67324581     E(CORR)=     -62.637758848     Delta= 1.51D-03
 NORM(A)=   0.11064443D+01
 Iteration Nr.   8
 **********************
 DD1Dir will call FoFMem   1 times, MxPair=       208
 NAB=    72 NAA=    36 NBB=    28.
 A-vector RMS=  7.4916846D-05 Max=  1.0751742D-03 conv= 1.00D-05.
 RLE energy=       -0.6734201546
 DE(Corr)= -0.67341871     E(CORR)=     -62.637931752     Delta=-1.73D-04
 NORM(A)=   0.11068463D+01
 Iteration Nr.   9
 **********************
 DD1Dir will call FoFMem   1 times, MxPair=       208
 NAB=    72 NAA=    36 NBB=    28.
 A-vector RMS=  3.2217670D-05 Max=  4.0679606D-04 conv= 1.00D-05.
 RLE energy=       -0.6735330988
 DE(Corr)= -0.67343648     E(CORR)=     -62.637949523     Delta=-1.78D-05
 NORM(A)=   0.11070998D+01
 Iteration Nr.  10
 **********************
 DD1Dir will call FoFMem   1 times, MxPair=       208
 NAB=    72 NAA=    36 NBB=    28.
 A-vector RMS=  1.6698029D-05 Max=  1.4542664D-04 conv= 1.00D-05.
 RLE energy=       -0.6735002733
 DE(Corr)= -0.67344221     E(CORR)=     -62.637955248     Delta=-5.73D-06
 NORM(A)=   0.11070942D+01
 Iteration Nr.  11
 **********************
 DD1Dir will call FoFMem   1 times, MxPair=       208
 NAB=    72 NAA=    36 NBB=    28.
 A-vector RMS=  9.2629106D-06 Max=  1.1086124D-04 conv= 1.00D-05.
 RLE energy=       -0.6734840522
 DE(Corr)= -0.67348199     E(CORR)=     -62.637995028     Delta=-3.98D-05
 NORM(A)=   0.11070670D+01
 Iteration Nr.  12
 **********************
 DD1Dir will call FoFMem   1 times, MxPair=       208
 NAB=    72 NAA=    36 NBB=    28.
 A-vector RMS=  4.3766803D-06 Max=  3.7205830D-05 conv= 1.00D-05.
 RLE energy=       -0.6734849448
 DE(Corr)= -0.67347944     E(CORR)=     -62.637992481     Delta= 2.55D-06
 NORM(A)=   0.11070762D+01
 Iteration Nr.  13
 **********************
 DD1Dir will call FoFMem   1 times, MxPair=       208
 NAB=    72 NAA=    36 NBB=    28.
 A-vector RMS=  2.9463562D-06 Max=  5.2428585D-05 conv= 1.00D-05.
 RLE energy=       -0.6734870869
 DE(Corr)= -0.67348733     E(CORR)=     -62.638000369     Delta=-7.89D-06
 NORM(A)=   0.11070780D+01
 Iteration Nr.  14
 **********************
 DD1Dir will call FoFMem   1 times, MxPair=       208
 NAB=    72 NAA=    36 NBB=    28.
 A-vector RMS=  1.5744781D-06 Max=  1.4762167D-05 conv= 1.00D-05.
 RLE energy=       -0.6734842511
 DE(Corr)= -0.67348378     E(CORR)=     -62.637996825     Delta= 3.54D-06
 NORM(A)=   0.11070851D+01
 Iteration Nr.  15
 **********************
 DD1Dir will call FoFMem   1 times, MxPair=       208
 NAB=    72 NAA=    36 NBB=    28.
 A-vector RMS=  8.9451172D-07 Max=  1.5823832D-05 conv= 1.00D-05.
 RLE energy=       -0.6734886671
 DE(Corr)= -0.67348875     E(CORR)=     -62.638001795     Delta=-4.97D-06
 NORM(A)=   0.11070903D+01
 Iteration Nr.  16
 **********************
 DD1Dir will call FoFMem   1 times, MxPair=       208
 NAB=    72 NAA=    36 NBB=    28.
 A-vector RMS=  6.2418466D-07 Max=  6.6738768D-06 conv= 1.00D-05.
 RLE energy=       -0.6734866011
 DE(Corr)= -0.67348631     E(CORR)=     -62.637999350     Delta= 2.44D-06
 NORM(A)=   0.11070935D+01
 Iteration Nr.  17
 **********************
 DD1Dir will call FoFMem   1 times, MxPair=       208
 NAB=    72 NAA=    36 NBB=    28.
 A-vector RMS=  3.9030409D-07 Max=  4.2364326D-06 conv= 1.00D-05.
 RLE energy=       -0.6734882208
 DE(Corr)= -0.67348857     E(CORR)=     -62.638001611     Delta=-2.26D-06
 NORM(A)=   0.11070956D+01
 Iteration Nr.  18
 **********************
 DD1Dir will call FoFMem   1 times, MxPair=       208
 NAB=    72 NAA=    36 NBB=    28.
 A-vector RMS=  2.4422900D-07 Max=  2.3186727D-06 conv= 1.00D-05.
 RLE energy=       -0.6734877799
 DE(Corr)= -0.67348741     E(CORR)=     -62.638000449     Delta= 1.16D-06
 NORM(A)=   0.11070969D+01
 Iteration Nr.  19
 **********************
 DD1Dir will call FoFMem   1 times, MxPair=       208
 NAB=    72 NAA=    36 NBB=    28.
 A-vector RMS=  1.4397273D-07 Max=  1.4093659D-06 conv= 1.00D-05.
 RLE energy=       -0.6734880345
 DE(Corr)= -0.67348806     E(CORR)=     -62.638001097     Delta=-6.48D-07
 NORM(A)=   0.11070972D+01
 Iteration Nr.  20
 **********************
 DD1Dir will call FoFMem   1 times, MxPair=       208
 NAB=    72 NAA=    36 NBB=    28.
 A-vector RMS=  8.3917348D-08 Max=  7.6346683D-07 conv= 1.00D-05.
 RLE energy=       -0.6734878161
 DE(Corr)= -0.67348778     E(CORR)=     -62.638000818     Delta= 2.79D-07
 NORM(A)=   0.11070974D+01
 Iteration Nr.  21
 **********************
 DD1Dir will call FoFMem   1 times, MxPair=       208
 NAB=    72 NAA=    36 NBB=    28.
 A-vector RMS=  5.9526425D-08 Max=  7.1080988D-07 conv= 1.00D-05.
 RLE energy=       -0.6734880390
 DE(Corr)= -0.67348805     E(CORR)=     -62.638001096     Delta=-2.77D-07
 NORM(A)=   0.11070975D+01
 Iteration Nr.  22
 **********************
 DD1Dir will call FoFMem   1 times, MxPair=       208
 NAB=    72 NAA=    36 NBB=    28.
 A-vector RMS=  3.1125096D-08 Max=  2.7560504D-07 conv= 1.00D-05.
 RLE energy=       -0.6734879110
 DE(Corr)= -0.67348788     E(CORR)=     -62.638000917     Delta= 1.78D-07
 NORM(A)=   0.11070976D+01
 Iteration Nr.  23
 **********************
 DD1Dir will call FoFMem   1 times, MxPair=       208
 NAB=    72 NAA=    36 NBB=    28.
 A-vector RMS=  2.6571714D-08 Max=  4.0061222D-07 conv= 1.00D-05.
 RLE energy=       -0.6734880020
 DE(Corr)= -0.67348802     E(CORR)=     -62.638001061     Delta=-1.44D-07
 NORM(A)=   0.11070976D+01
 Iteration Nr.  24
 **********************
 DD1Dir will call FoFMem   1 times, MxPair=       208
 NAB=    72 NAA=    36 NBB=    28.
 A-vector RMS=  1.3165575D-08 Max=  1.6424931D-07 conv= 1.00D-05.
 RLE energy=       -0.6734879525
 DE(Corr)= -0.67348794     E(CORR)=     -62.638000983     Delta= 7.80D-08
 NORM(A)=   0.11070976D+01
 CI/CC converged in   24 iterations to DelEn= 7.80D-08 Conv= 1.00D-07 ErrA1= 1.32D-08 Conv= 1.00D-05
 Wavefunction amplitudes converged. E(Corr)=     -62.638000983    
 Largest amplitude= 8.33D-02
 Time for triples=    11648.84 seconds.
 T4(CCSD)= -0.50053419D-01
 T5(CCSD)=  0.92133582D-02
 CCSD(T)= -0.62678841044D+02
 Discarding MO integrals.
 Leave Link  913 at Wed Mar  7 11:46:17 2018, MaxMem= 10737418240 cpu:           17755.5 elap:            1111.2
 (Enter /home1/apps/gaussian/16rA.03/g16/l601.exe)
 Copying SCF densities to generalized density rwf, IOpCl= 0 IROHF=1.

 **********************************************************************

            Population analysis using the SCF density.

 **********************************************************************

 Orbital symmetries:
       Occupied  (SG) (SG) (PI) (PI) (SG) (SG) (PI) (PI) (SG)
       Virtual   (PI) (PI) (SG) (SG) (DLTA) (DLTA) (PI) (PI) (PI)
                 (PI) (SG) (SG) (DLTA) (DLTA) (SG) (PI) (PI) (SG)
                 (PI) (PI) (SG) (PI) (PI) (DLTA) (DLTA) (PHI) (PHI)
                 (SG) (DLTA) (DLTA) (PI) (PI) (SG) (PI) (PI) (SG)
                 (SG) (SG) (DLTA) (DLTA) (PI) (PI) (DLTA) (DLTA)
                 (?A) (?A) (PHI) (PHI) (SG) (PI) (PI) (PI) (PI)
                 (SG) (PHI) (PHI) (DLTA) (DLTA) (SG) (PI) (PI)
                 (SG) (PI) (PI) (DLTA) (DLTA) (SG) (SG) (DLTA)
                 (DLTA) (PI) (PI) (SG) (SG) (PI) (PI) (PI) (PI)
                 (SG) (DLTA) (DLTA) (PHI) (PHI) (?A) (?A) (SG)
                 (PI) (PI) (SG) (DLTA) (DLTA) (PHI) (PHI) (PI)
                 (PI) (PHI) (PHI) (DLTA) (DLTA) (SG) (PI) (PI)
                 (DLTA) (DLTA) (DLTA) (DLTA) (SG) (PI) (PI) (SG)
                 (PI) (PI) (SG) (SG) (PI) (PI) (SG) (PI) (PI) (SG)
                 (SG) (DLTA) (DLTA) (PI) (PI) (SG) (PHI) (PHI)
                 (PHI) (PHI) (DLTA) (DLTA) (DLTA) (DLTA) (PI) (PI)
                 (PI) (PI) (SG) (DLTA) (DLTA) (SG) (PI) (PI) (SG)
                 (?A) (?A) (PHI) (PHI) (DLTA) (DLTA) (PI) (PI)
                 (SG) (SG) (PI) (PI) (SG) (DLTA) (DLTA) (PI) (PI)
                 (SG) (PI) (PI) (SG) (SG) (SG) (PI) (PI) (SG) (DLTA)
                 (DLTA) (PI) (PI) (SG) (SG) (PI) (PI) (SG) (SG)
                 (DLTA) (DLTA) (PI) (PI) (SG) (PI) (PI) (SG) (DLTA)
                 (DLTA) (PI) (PI) (SG) (SG) (SG) (PI) (PI) (SG)
                 (PI) (PI) (SG) (SG) (SG) (PI) (PI) (SG) (DLTA)
                 (DLTA) (PI) (PI) (SG) (SG) (SG) (PI) (PI) (SG)
                 (PI) (PI) (SG) (SG) (SG) (PI) (PI) (SG) (SG) (PI)
                 (PI) (SG) (SG) (SG) (PI) (PI) (SG) (SG) (SG) (PI)
                 (PI) (SG) (SG) (SG) (SG) (PI) (PI) (SG) (SG) (SG)
                 (SG) (SG)
 The electronic state is 2-SG.
 Alpha  occ. eigenvalues --   -2.66619  -1.66284  -1.63277  -1.63277  -1.12653
 Alpha  occ. eigenvalues --   -0.42760  -0.41139  -0.41139  -0.25265
 Alpha virt. eigenvalues --   -0.00034  -0.00034   0.01443   0.02236   0.03535
 Alpha virt. eigenvalues --    0.03535   0.03581   0.03581   0.04202   0.04202
 Alpha virt. eigenvalues --    0.04381   0.05441   0.08080   0.08080   0.10503
 Alpha virt. eigenvalues --    0.12268   0.12268   0.13118   0.15423   0.15423
 Alpha virt. eigenvalues --    0.15430   0.15672   0.15672   0.16101   0.16101
 Alpha virt. eigenvalues --    0.16168   0.16168   0.17508   0.17778   0.17778
 Alpha virt. eigenvalues --    0.22557   0.22557   0.26481   0.33836   0.33836
 Alpha virt. eigenvalues --    0.33991   0.38654   0.42815   0.45648   0.45648
 Alpha virt. eigenvalues --    0.46590   0.46590   0.46700   0.46700   0.46930
 Alpha virt. eigenvalues --    0.46930   0.48090   0.48090   0.48472   0.49076
 Alpha virt. eigenvalues --    0.49076   0.54502   0.54502   0.57373   0.61169
 Alpha virt. eigenvalues --    0.61169   0.61723   0.61723   0.66751   0.82261
 Alpha virt. eigenvalues --    0.82261   0.89045   0.97479   0.97479   1.01487
 Alpha virt. eigenvalues --    1.01487   1.02926   1.21871   1.25444   1.25444
 Alpha virt. eigenvalues --    1.29746   1.29746   1.33387   1.53974   1.56736
 Alpha virt. eigenvalues --    1.56736   1.58534   1.58534   1.73956   1.91214
 Alpha virt. eigenvalues --    1.91214   1.91284   1.91284   1.93207   1.93207
 Alpha virt. eigenvalues --    1.96040   1.96407   1.96407   2.09040   2.11170
 Alpha virt. eigenvalues --    2.11170   2.14295   2.14295   2.14456   2.14456
 Alpha virt. eigenvalues --    2.28947   2.28947   2.48173   2.48173   2.51207
 Alpha virt. eigenvalues --    2.69322   2.69322   2.77337   2.77337   2.92387
 Alpha virt. eigenvalues --    2.92387   2.92693   3.02309   3.02309   3.03157
 Alpha virt. eigenvalues --    3.41716   3.41716   3.48520   3.56600   4.02410
 Alpha virt. eigenvalues --    4.02410   4.22719   4.33357   4.33357   4.98376
 Alpha virt. eigenvalues --    5.54855   5.90360   5.90360   5.98954   5.98954
 Alpha virt. eigenvalues --    6.07418   6.63435   6.63435   6.67009   6.67009
 Alpha virt. eigenvalues --    6.68032   6.68032   6.79474   6.79474   6.88023
 Alpha virt. eigenvalues --    6.88023   6.94903   6.94903   6.96489   7.23528
 Alpha virt. eigenvalues --    7.23528   7.47517   7.60139   7.60139   7.68831
 Alpha virt. eigenvalues --    7.72461   7.72461   7.74506   7.74506   7.79759
 Alpha virt. eigenvalues --    7.79759   7.89219   7.89219   8.08752   8.56112
 Alpha virt. eigenvalues --    8.76380   8.76380   9.37671  11.15210  11.15210
 Alpha virt. eigenvalues --   11.24692  11.24692  11.46608  15.00161  15.00161
 Alpha virt. eigenvalues --   15.65362  16.43153  16.77639  17.87628  17.87628
 Alpha virt. eigenvalues --   18.36409  20.71629  20.71629  20.79631  20.79631
 Alpha virt. eigenvalues --   21.00602  34.55324  37.12651  37.12651  37.60054
 Alpha virt. eigenvalues --   38.42522  43.77191  43.77191  43.84828  43.84828
 Alpha virt. eigenvalues --   44.00559  45.64368  45.64368  46.25161  47.72450
 Alpha virt. eigenvalues --   47.72450  47.78457  47.78457  47.94062  70.48574
 Alpha virt. eigenvalues --   74.60916  76.14092  76.14092  76.58331 119.02098
 Alpha virt. eigenvalues --  119.02098 119.51095 127.74731 136.82333 151.29202
 Alpha virt. eigenvalues --  151.29202 151.71054 173.66080 173.66080 173.69627
 Alpha virt. eigenvalues --  173.69627 173.78528 229.22867 257.59183 286.30930
 Alpha virt. eigenvalues --  286.30930 286.74435 302.07954 302.07954 302.48576
 Alpha virt. eigenvalues --  436.25470 555.07618 625.52598 625.52598 625.90834
 Alpha virt. eigenvalues --  878.788491381.064261381.064261381.411851529.60267
 Alpha virt. eigenvalues -- 1876.785693351.898123351.898123352.201694257.20462
 Alpha virt. eigenvalues -- 5659.762919408.205039408.205039408.45500**********
 Alpha virt. eigenvalues -- **************************************************
 Alpha virt. eigenvalues -- ****************************************
     Molecular Orbital Coefficients:
                           4         5         6         7         8
                           O         O         O         O         O
     Eigenvalues --    -1.63277  -1.12653  -0.42760  -0.41139  -0.41139
   1 1   Sc 1S          0.00000   0.00000   0.00000   0.00000   0.00000
   2        2S          0.00000  -0.00000  -0.00000   0.00000   0.00000
   3        3S          0.00000   0.00000   0.00000   0.00000   0.00000
   4        4S          0.00000  -0.00000  -0.00000   0.00000   0.00000
   5        5S          0.00000   0.00000   0.00000   0.00000   0.00000
   6        6S          0.00000  -0.00000  -0.00000   0.00000   0.00000
   7        7S          0.00000   0.00002   0.00002   0.00000   0.00000
   8        8S          0.00000  -0.00005  -0.00006   0.00000   0.00000
   9        9S          0.00000   0.00016   0.00017   0.00000   0.00000
  10       10S          0.00000  -0.00046  -0.00050   0.00000   0.00000
  11       11S          0.00000   0.00136   0.00150   0.00000   0.00000
  12       12S          0.00000  -0.00452  -0.00509   0.00000   0.00000
  13       13S          0.00000  -0.00134  -0.00244   0.00000   0.00000
  14       14S          0.00000   0.05557   0.07213   0.00000   0.00000
  15       15S          0.00000   0.00710   0.03393   0.00000   0.00000
  16       16S          0.00000  -0.10628  -0.16388   0.00000   0.00000
  17       17S          0.00000  -0.03650  -0.09006   0.00000   0.00000
  18       18S          0.00000  -0.01926   0.02985   0.00000   0.00000
  19       19S          0.00000  -0.01494  -0.01383   0.00000   0.00000
  20       20S          0.00000   0.00004   0.01214   0.00000   0.00000
  21       21S          0.00000  -0.02061  -0.04664   0.00000   0.00000
  22       22S          0.00000  -0.01472   0.01535   0.00000   0.00000
  23       23S          0.00000   0.00072  -0.00005   0.00000   0.00000
  24       24PX         0.00000   0.00000   0.00000   0.00000   0.00000
  25       24PY         0.00000   0.00000   0.00000   0.00000   0.00000
  26       24PZ         0.00000   0.00000  -0.00000   0.00000   0.00000
  27       25PX        -0.00000   0.00000   0.00000  -0.00000   0.00000
  28       25PY         0.00000   0.00000   0.00000   0.00000  -0.00000
  29       25PZ         0.00000  -0.00000   0.00000   0.00000   0.00000
  30       26PX         0.00002   0.00000   0.00000   0.00000   0.00000
  31       26PY         0.00000   0.00000   0.00000   0.00000   0.00000
  32       26PZ         0.00000   0.00000  -0.00000   0.00000   0.00000
  33       27PX        -0.00007   0.00000   0.00000  -0.00001   0.00000
  34       27PY         0.00000   0.00000   0.00000   0.00000  -0.00001
  35       27PZ         0.00000  -0.00002   0.00000   0.00000   0.00000
  36       28PX         0.00026   0.00000   0.00000   0.00002   0.00000
  37       28PY         0.00000   0.00000   0.00000   0.00000   0.00002
  38       28PZ         0.00000   0.00007   0.00000   0.00000   0.00000
  39       29PX        -0.00097   0.00000   0.00000  -0.00009   0.00000
  40       29PY         0.00000   0.00000   0.00000   0.00000  -0.00009
  41       29PZ         0.00000  -0.00026  -0.00003   0.00000   0.00000
  42       30PX         0.00383   0.00000   0.00000   0.00039   0.00000
  43       30PY         0.00000   0.00000   0.00000   0.00000   0.00039
  44       30PZ         0.00000   0.00111   0.00027   0.00000   0.00000
  45       31PX        -0.00428   0.00000   0.00000  -0.00044   0.00000
  46       31PY         0.00000   0.00000   0.00000   0.00000  -0.00044
  47       31PZ         0.00000  -0.00098   0.00041   0.00000   0.00000
  48       32PX        -0.07940   0.00000   0.00000  -0.00871   0.00000
  49       32PY         0.00000   0.00000   0.00000   0.00000  -0.00871
  50       32PZ         0.00000  -0.02814  -0.01912   0.00000   0.00000
  51       33PX         0.12496   0.00000   0.00000   0.01388   0.00000
  52       33PY         0.00000   0.00000   0.00000   0.00000   0.01388
  53       33PZ         0.00000   0.08470   0.11626   0.00000   0.00000
  54       34PX         0.32097   0.00000   0.00000   0.03557   0.00000
  55       34PY         0.00000   0.00000   0.00000   0.00000   0.03557
  56       34PZ         0.00000   0.11556   0.07293   0.00000   0.00000
  57       35PX         0.47960   0.00000   0.00000   0.06368   0.00000
  58       35PY         0.00000   0.00000   0.00000   0.00000   0.06368
  59       35PZ         0.00000   0.15703   0.13647   0.00000   0.00000
  60       36PX         0.28998   0.00000   0.00000   0.03194   0.00000
  61       36PY         0.00000   0.00000   0.00000   0.00000   0.03194
  62       36PZ         0.00000   0.09007   0.05376   0.00000   0.00000
  63       37PX         0.03607   0.00000   0.00000  -0.01480   0.00000
  64       37PY         0.00000   0.00000   0.00000   0.00000  -0.01480
  65       37PZ         0.00000   0.03203   0.03380   0.00000   0.00000
  66       38PX        -0.00597   0.00000   0.00000  -0.01632   0.00000
  67       38PY         0.00000   0.00000   0.00000   0.00000  -0.01632
  68       38PZ         0.00000   0.00622  -0.00315   0.00000   0.00000
  69       39PX         0.00141   0.00000   0.00000   0.01696   0.00000
  70       39PY         0.00000   0.00000   0.00000   0.00000   0.01696
  71       39PZ         0.00000   0.00077  -0.00680   0.00000   0.00000
  72       40PX        -0.10479   0.00000   0.00000  -0.01068   0.00000
  73       40PY         0.00000   0.00000   0.00000   0.00000  -0.01068
  74       40PZ         0.00000  -0.07881  -0.11353   0.00000   0.00000
  75       41PX        -0.00819   0.00000   0.00000  -0.00500   0.00000
  76       41PY         0.00000   0.00000   0.00000   0.00000  -0.00500
  77       41PZ         0.00000   0.00253  -0.04815   0.00000   0.00000
  78       42PX        -0.00047   0.00000   0.00000  -0.00378   0.00000
  79       42PY         0.00000   0.00000   0.00000   0.00000  -0.00378
  80       42PZ         0.00000  -0.00073  -0.00077   0.00000   0.00000
  81       43D 0        0.00000   0.00002   0.00007   0.00000   0.00000
  82       43D+1       -0.00000   0.00000   0.00000   0.00005   0.00000
  83       43D-1        0.00000   0.00000   0.00000   0.00000   0.00005
  84       43D+2        0.00000  -0.00000  -0.00000   0.00000   0.00000
  85       43D-2        0.00000   0.00000   0.00000   0.00000   0.00000
  86       44D 0        0.00000   0.00291   0.01028   0.00000   0.00000
  87       44D+1       -0.00000   0.00000   0.00000   0.00650   0.00000
  88       44D-1        0.00000   0.00000   0.00000   0.00000   0.00650
  89       44D+2        0.00000   0.00000  -0.00000   0.00000   0.00000
  90       44D-2        0.00000   0.00000   0.00000   0.00000   0.00000
  91       45D 0        0.00000   0.01337   0.04578   0.00000   0.00000
  92       45D+1       -0.00002   0.00000   0.00000   0.02916   0.00000
  93       45D-1        0.00000   0.00000   0.00000   0.00000   0.02916
  94       45D+2        0.00000  -0.00000  -0.00000   0.00000   0.00000
  95       45D-2        0.00000   0.00000   0.00000   0.00000   0.00000
  96       46D 0        0.00000  -0.00312   0.03558   0.00000   0.00000
  97       46D+1       -0.00330   0.00000   0.00000   0.01836   0.00000
  98       46D-1        0.00000   0.00000   0.00000   0.00000   0.01836
  99       46D+2        0.00000   0.00000  -0.00000   0.00000   0.00000
 100       46D-2        0.00000   0.00000   0.00000   0.00000   0.00000
 101       47D 0        0.00000  -0.44913  -0.64304   0.00000   0.00000
 102       47D+1       -0.06340   0.00000   0.00000  -0.43853   0.00000
 103       47D-1        0.00000   0.00000   0.00000   0.00000  -0.43853
 104       47D+2        0.00000   0.00000  -0.00000   0.00000   0.00000
 105       47D-2        0.00000   0.00000   0.00000   0.00000   0.00000
 106       48D 0        0.00000   0.02673   0.12732   0.00000   0.00000
 107       48D+1        0.00617   0.00000   0.00000   0.09410   0.00000
 108       48D-1        0.00000   0.00000   0.00000   0.00000   0.09410
 109       48D+2        0.00000   0.00000  -0.00000   0.00000   0.00000
 110       48D-2        0.00000   0.00000   0.00000   0.00000   0.00000
 111       49D 0        0.00000  -0.00135   0.04827   0.00000   0.00000
 112       49D+1        0.00231   0.00000   0.00000   0.04002   0.00000
 113       49D-1        0.00000   0.00000   0.00000   0.00000   0.04002
 114       49D+2        0.00000   0.00000  -0.00000   0.00000   0.00000
 115       49D-2        0.00000   0.00000   0.00000   0.00000   0.00000
 116       50D 0        0.00000   0.00199   0.01323   0.00000   0.00000
 117       50D+1        0.00100   0.00000   0.00000  -0.01023   0.00000
 118       50D-1        0.00000   0.00000   0.00000   0.00000  -0.01023
 119       50D+2        0.00000   0.00000  -0.00000   0.00000   0.00000
 120       50D-2        0.00000   0.00000   0.00000   0.00000   0.00000
 121       51D 0        0.00000   0.03454   0.06678   0.00000   0.00000
 122       51D+1        0.00237   0.00000   0.00000   0.04725   0.00000
 123       51D-1        0.00000   0.00000   0.00000   0.00000   0.04725
 124       51D+2        0.00000  -0.00000   0.00000   0.00000   0.00000
 125       51D-2        0.00000   0.00000   0.00000   0.00000   0.00000
 126       52D 0        0.00000   0.49663   0.79368   0.00000   0.00000
 127       52D+1        0.06723   0.00000   0.00000   0.53173   0.00000
 128       52D-1        0.00000   0.00000   0.00000   0.00000   0.53173
 129       52D+2        0.00000  -0.00000   0.00000   0.00000   0.00000
 130       52D-2        0.00000   0.00000   0.00000   0.00000   0.00000
 131       53D 0        0.00000  -0.00009   0.00021   0.00000   0.00000
 132       53D+1       -0.00012   0.00000   0.00000  -0.00013   0.00000
 133       53D-1        0.00000   0.00000   0.00000   0.00000  -0.00013
 134       53D+2        0.00000  -0.00000   0.00000   0.00000   0.00000
 135       53D-2        0.00000   0.00000   0.00000   0.00000   0.00000
 136       54F 0        0.00000  -0.00239  -0.00435   0.00000   0.00000
 137       54F+1       -0.00142   0.00000   0.00000  -0.00258   0.00000
 138       54F-1        0.00000   0.00000   0.00000   0.00000  -0.00258
 139       54F+2        0.00000   0.00000  -0.00000   0.00000   0.00000
 140       54F-2        0.00000   0.00000   0.00000   0.00000   0.00000
 141       54F+3       -0.00000   0.00000   0.00000  -0.00000   0.00000
 142       54F-3        0.00000   0.00000   0.00000   0.00000  -0.00000
 143       55F 0        0.00000  -0.01070  -0.01681   0.00000   0.00000
 144       55F+1       -0.00437   0.00000   0.00000  -0.01629   0.00000
 145       55F-1        0.00000   0.00000   0.00000   0.00000  -0.01629
 146       55F+2        0.00000   0.00000  -0.00000   0.00000   0.00000
 147       55F-2        0.00000   0.00000   0.00000   0.00000   0.00000
 148       55F+3       -0.00000   0.00000   0.00000   0.00000   0.00000
 149       55F-3        0.00000   0.00000   0.00000   0.00000   0.00000
 150       56F 0        0.00000  -0.00138  -0.01170   0.00000   0.00000
 151       56F+1       -0.00167   0.00000   0.00000  -0.00171   0.00000
 152       56F-1        0.00000   0.00000   0.00000   0.00000  -0.00171
 153       56F+2        0.00000  -0.00000   0.00000   0.00000   0.00000
 154       56F-2        0.00000   0.00000   0.00000   0.00000   0.00000
 155       56F+3       -0.00000   0.00000   0.00000   0.00000   0.00000
 156       56F-3        0.00000   0.00000   0.00000   0.00000   0.00000
 157       57F 0        0.00000  -0.00116  -0.00699   0.00000   0.00000
 158       57F+1       -0.00046   0.00000   0.00000   0.00713   0.00000
 159       57F-1        0.00000   0.00000   0.00000   0.00000   0.00713
 160       57F+2        0.00000   0.00000  -0.00000   0.00000   0.00000
 161       57F-2        0.00000   0.00000   0.00000   0.00000   0.00000
 162       57F+3       -0.00000   0.00000   0.00000   0.00000   0.00000
 163       57F-3        0.00000   0.00000   0.00000   0.00000  -0.00000
 164       58G 0        0.00000   0.00076   0.00074   0.00000   0.00000
 165       58G+1       -0.00008   0.00000   0.00000   0.00108   0.00000
 166       58G-1        0.00000   0.00000   0.00000   0.00000   0.00108
 167       58G+2        0.00000   0.00000  -0.00000   0.00000   0.00000
 168       58G-2        0.00000   0.00000   0.00000   0.00000   0.00000
 169       58G+3        0.00000   0.00000   0.00000  -0.00000   0.00000
 170       58G-3        0.00000   0.00000   0.00000   0.00000  -0.00000
 171       58G+4        0.00000   0.00000  -0.00000   0.00000   0.00000
 172       58G-4        0.00000   0.00000   0.00000   0.00000   0.00000
 173       59G 0        0.00000   0.00140   0.00080   0.00000   0.00000
 174       59G+1       -0.00000   0.00000   0.00000   0.00254   0.00000
 175       59G-1        0.00000   0.00000   0.00000   0.00000   0.00254
 176       59G+2        0.00000   0.00000  -0.00000   0.00000   0.00000
 177       59G-2        0.00000   0.00000   0.00000   0.00000   0.00000
 178       59G+3       -0.00000   0.00000   0.00000  -0.00000   0.00000
 179       59G-3        0.00000   0.00000   0.00000   0.00000  -0.00000
 180       59G+4        0.00000   0.00000  -0.00000   0.00000   0.00000
 181       59G-4        0.00000   0.00000   0.00000   0.00000   0.00000
 182       60G 0        0.00000   0.00066   0.00545   0.00000   0.00000
 183       60G+1        0.00047   0.00000   0.00000  -0.00583   0.00000
 184       60G-1        0.00000   0.00000   0.00000   0.00000  -0.00583
 185       60G+2        0.00000   0.00000  -0.00000   0.00000   0.00000
 186       60G-2        0.00000   0.00000   0.00000   0.00000   0.00000
 187       60G+3       -0.00000   0.00000   0.00000   0.00000   0.00000
 188       60G-3        0.00000   0.00000   0.00000   0.00000   0.00000
 189       60G+4        0.00000  -0.00000   0.00000   0.00000   0.00000
 190       60G-4        0.00000   0.00000   0.00000   0.00000   0.00000
 191 2   O  1S          0.00000  -0.00000   0.00000   0.00000   0.00000
 192        2S          0.00000   0.00001  -0.00000   0.00000   0.00000
 193        3S          0.00000  -0.00005   0.00001   0.00000   0.00000
 194        4S          0.00000   0.00032  -0.00005   0.00000   0.00000
 195        5S          0.00000  -0.00329   0.00053   0.00000   0.00000
 196        6S          0.00000  -0.04971   0.00903   0.00000   0.00000
 197        7S          0.00000  -0.16186   0.02533   0.00000   0.00000
 198        8S          0.00000   0.53268  -0.07203   0.00000   0.00000
 199        9S          0.00000   0.15437  -0.02447   0.00000   0.00000
 200       10S          0.00000   0.40865  -0.08666   0.00000   0.00000
 201       11S          0.00000  -0.00055  -0.00524   0.00000   0.00000
 202       12S          0.00000   0.04767  -0.00778   0.00000   0.00000
 203       13S          0.00000   0.06437  -0.02777   0.00000   0.00000
 204       14PX         0.00020   0.00000   0.00000  -0.00740   0.00000
 205       14PY         0.00000   0.00000   0.00000   0.00000  -0.00740
 206       14PZ         0.00000   0.00039   0.00772   0.00000   0.00000
 207       15PX         0.00205   0.00000   0.00000  -0.07684   0.00000
 208       15PY         0.00000   0.00000   0.00000   0.00000  -0.07684
 209       15PZ         0.00000   0.00322   0.08033   0.00000   0.00000
 210       16PX         0.00634   0.00000   0.00000  -0.24704   0.00000
 211       16PY         0.00000   0.00000   0.00000   0.00000  -0.24704
 212       16PZ         0.00000   0.00745   0.25829   0.00000   0.00000
 213       17PX         0.01076   0.00000   0.00000  -0.39305   0.00000
 214       17PY         0.00000   0.00000   0.00000   0.00000  -0.39305
 215       17PZ         0.00000   0.02132   0.41132   0.00000   0.00000
 216       18PX         0.00708   0.00000   0.00000  -0.36518   0.00000
 217       18PY         0.00000   0.00000   0.00000   0.00000  -0.36518
 218       18PZ         0.00000   0.05082   0.34168   0.00000   0.00000
 219       19PX         0.00010   0.00000   0.00000  -0.00431   0.00000
 220       19PY         0.00000   0.00000   0.00000   0.00000  -0.00431
 221       19PZ         0.00000  -0.00008   0.00454   0.00000   0.00000
 222       20PX        -0.00005   0.00000   0.00000   0.00195   0.00000
 223       20PY         0.00000   0.00000   0.00000   0.00000   0.00195
 224       20PZ         0.00000  -0.00011  -0.00203   0.00000   0.00000
 225       21PX         0.00235   0.00000   0.00000  -0.09218   0.00000
 226       21PY         0.00000   0.00000   0.00000   0.00000  -0.09218
 227       21PZ         0.00000   0.01448   0.07512   0.00000   0.00000
 228       22D 0        0.00000   0.00055   0.00477   0.00000   0.00000
 229       22D+1        0.00082   0.00000   0.00000  -0.00412   0.00000
 230       22D-1        0.00000   0.00000   0.00000   0.00000  -0.00412
 231       22D+2        0.00000   0.00000   0.00000   0.00000   0.00000
 232       22D-2        0.00000   0.00000   0.00000   0.00000   0.00000
 233       23D 0        0.00000   0.00719   0.02050   0.00000   0.00000
 234       23D+1        0.00300   0.00000   0.00000  -0.02312   0.00000
 235       23D-1        0.00000   0.00000   0.00000   0.00000  -0.02312
 236       23D+2        0.00000  -0.00000   0.00000   0.00000   0.00000
 237       23D-2        0.00000   0.00000   0.00000   0.00000   0.00000
 238       24D 0        0.00000   0.00006   0.00023   0.00000   0.00000
 239       24D+1        0.00004   0.00000   0.00000  -0.00026   0.00000
 240       24D-1        0.00000   0.00000   0.00000   0.00000  -0.00026
 241       24D+2        0.00000  -0.00000   0.00000   0.00000   0.00000
 242       24D-2        0.00000   0.00000   0.00000   0.00000   0.00000
 243       25D 0        0.00000   0.01160   0.02484   0.00000   0.00000
 244       25D+1        0.00123   0.00000   0.00000  -0.04168   0.00000
 245       25D-1        0.00000   0.00000   0.00000   0.00000  -0.04168
 246       25D+2        0.00000  -0.00000   0.00000   0.00000   0.00000
 247       25D-2        0.00000   0.00000   0.00000   0.00000   0.00000
 248       26F 0        0.00000   0.00036   0.00208   0.00000   0.00000
 249       26F+1        0.00070   0.00000   0.00000  -0.00145   0.00000
 250       26F-1        0.00000   0.00000   0.00000   0.00000  -0.00145
 251       26F+2        0.00000   0.00000  -0.00000   0.00000   0.00000
 252       26F-2        0.00000   0.00000   0.00000   0.00000   0.00000
 253       26F+3        0.00000   0.00000   0.00000  -0.00000   0.00000
 254       26F-3        0.00000   0.00000   0.00000   0.00000  -0.00000
 255       27F 0        0.00000   0.00123   0.00483   0.00000   0.00000
 256       27F+1        0.00065   0.00000   0.00000  -0.00985   0.00000
 257       27F-1        0.00000   0.00000   0.00000   0.00000  -0.00985
 258       27F+2        0.00000  -0.00000   0.00000   0.00000   0.00000
 259       27F-2        0.00000   0.00000   0.00000   0.00000   0.00000
 260       27F+3       -0.00000   0.00000   0.00000  -0.00000   0.00000
 261       27F-3        0.00000   0.00000   0.00000   0.00000  -0.00000
                           9        10        11        12        13
                           O         V         V         V         V
     Eigenvalues --    -0.25265  -0.00034  -0.00034   0.01443   0.02236
   1 1   Sc 1S          0.00000   0.00000   0.00000  -0.00000  -0.00000
   2        2S         -0.00000   0.00000   0.00000   0.00000   0.00000
   3        3S          0.00000   0.00000   0.00000  -0.00000  -0.00000
   4        4S         -0.00000   0.00000   0.00000   0.00000   0.00000
   5        5S          0.00000   0.00000   0.00000  -0.00000  -0.00000
   6        6S         -0.00001   0.00000   0.00000   0.00000   0.00000
   7        7S          0.00003   0.00000   0.00000  -0.00000  -0.00001
   8        8S         -0.00010   0.00000   0.00000   0.00001   0.00003
   9        9S          0.00031   0.00000   0.00000  -0.00002  -0.00009
  10       10S         -0.00091   0.00000   0.00000   0.00005   0.00024
  11       11S          0.00273   0.00000   0.00000  -0.00000  -0.00060
  12       12S         -0.00921   0.00000   0.00000  -0.00033   0.00176
  13       13S         -0.00311   0.00000   0.00000  -0.00775  -0.00548
  14       14S          0.12006   0.00000   0.00000   0.06538   0.02567
  15       15S          0.03752   0.00000   0.00000   0.19500   0.15123
  16       16S         -0.26465   0.00000   0.00000  -0.32248  -0.21084
  17       17S         -0.31819   0.00000   0.00000  -0.32552  -0.21823
  18       18S          0.31497   0.00000   0.00000   0.56558   0.46380
  19       19S          0.49796   0.00000   0.00000  -0.86608  -2.12495
  20       20S          0.20215   0.00000   0.00000   1.98885   2.52319
  21       21S         -0.06172   0.00000   0.00000  -0.16240  -0.11794
  22       22S          0.07774   0.00000   0.00000   0.39453   0.32875
  23       23S         -0.00715   0.00000   0.00000  -1.79192  -1.94233
  24       24PX         0.00000   0.00000  -0.00000   0.00000   0.00000
  25       24PY         0.00000  -0.00000   0.00000   0.00000   0.00000
  26       24PZ        -0.00000   0.00000   0.00000   0.00000  -0.00000
  27       25PX         0.00000   0.00000   0.00000   0.00000   0.00000
  28       25PY         0.00000   0.00000   0.00000   0.00000   0.00000
  29       25PZ         0.00000   0.00000   0.00000  -0.00000   0.00000
  30       26PX         0.00000   0.00000  -0.00000   0.00000   0.00000
  31       26PY         0.00000  -0.00000   0.00000   0.00000   0.00000
  32       26PZ        -0.00000   0.00000   0.00000   0.00001  -0.00000
  33       27PX         0.00000   0.00000   0.00002   0.00000   0.00000
  34       27PY         0.00000   0.00002   0.00000   0.00000   0.00000
  35       27PZ         0.00001   0.00000   0.00000  -0.00002   0.00001
  36       28PX         0.00000   0.00000  -0.00006   0.00000   0.00000
  37       28PY         0.00000  -0.00006   0.00000   0.00000   0.00000
  38       28PZ        -0.00002   0.00000   0.00000   0.00008  -0.00003
  39       29PX         0.00000   0.00000   0.00022   0.00000   0.00000
  40       29PY         0.00000   0.00022   0.00000   0.00000   0.00000
  41       29PZ         0.00009   0.00000   0.00000  -0.00027   0.00009
  42       30PX         0.00000   0.00000  -0.00075   0.00000   0.00000
  43       30PY         0.00000  -0.00075   0.00000   0.00000   0.00000
  44       30PZ        -0.00041   0.00000   0.00000   0.00081  -0.00032
  45       31PX         0.00000   0.00000   0.00155   0.00000   0.00000
  46       31PY         0.00000   0.00155   0.00000   0.00000   0.00000
  47       31PZ         0.00033   0.00000   0.00000  -0.00230   0.00062
  48       32PX         0.00000   0.00000   0.00400   0.00000   0.00000
  49       32PY         0.00000   0.00400   0.00000   0.00000   0.00000
  50       32PZ         0.01188   0.00000   0.00000   0.00683   0.00268
  51       33PX         0.00000   0.00000   0.05827   0.00000   0.00000
  52       33PY         0.00000   0.05827   0.00000   0.00000   0.00000
  53       33PZ        -0.03802   0.00000   0.00000  -0.15140   0.00983
  54       34PX         0.00000   0.00000  -0.03021   0.00000   0.00000
  55       34PY         0.00000  -0.03021   0.00000   0.00000   0.00000
  56       34PZ        -0.04684   0.00000   0.00000  -0.00482  -0.01997
  57       35PX         0.00000   0.00000   0.08171   0.00000   0.00000
  58       35PY         0.00000   0.08171   0.00000   0.00000   0.00000
  59       35PZ        -0.10715   0.00000   0.00000  -0.24003   0.11816
  60       36PX         0.00000   0.00000  -0.01182   0.00000   0.00000
  61       36PY         0.00000  -0.01182   0.00000   0.00000   0.00000
  62       36PZ        -0.07314   0.00000   0.00000  -0.06010   0.00405
  63       37PX         0.00000   0.00000  -0.00160   0.00000   0.00000
  64       37PY         0.00000  -0.00160   0.00000   0.00000   0.00000
  65       37PZ         0.11161   0.00000   0.00000   0.04672  -0.06430
  66       38PX         0.00000   0.00000   0.24809   0.00000   0.00000
  67       38PY         0.00000   0.24809   0.00000   0.00000   0.00000
  68       38PZ         0.33376   0.00000   0.00000  -0.15290   0.65726
  69       39PX         0.00000   0.00000  -0.01223   0.00000   0.00000
  70       39PY         0.00000  -0.01223   0.00000   0.00000   0.00000
  71       39PZ         0.07317   0.00000   0.00000   0.43365  -0.44311
  72       40PX         0.00000   0.00000  -0.06163   0.00000   0.00000
  73       40PY         0.00000  -0.06163   0.00000   0.00000   0.00000
  74       40PZ         0.03434   0.00000   0.00000   0.15396  -0.01025
  75       41PX         0.00000   0.00000  -0.14578   0.00000   0.00000
  76       41PY         0.00000  -0.14578   0.00000   0.00000   0.00000
  77       41PZ         0.03851   0.00000   0.00000   0.27432  -0.15399
  78       42PX         0.00000   0.00000   0.79168   0.00000   0.00000
  79       42PY         0.00000   0.79168   0.00000   0.00000   0.00000
  80       42PZ        -0.00230   0.00000   0.00000  -0.95657   0.63236
  81       43D 0       -0.00002   0.00000   0.00000  -0.00001  -0.00001
  82       43D+1        0.00000   0.00000   0.00002   0.00000   0.00000
  83       43D-1        0.00000   0.00002   0.00000   0.00000   0.00000
  84       43D+2       -0.00000   0.00000   0.00000  -0.00000  -0.00000
  85       43D-2        0.00000   0.00000   0.00000   0.00000   0.00000
  86       44D 0       -0.00374   0.00000   0.00000  -0.00185   0.00098
  87       44D+1        0.00000   0.00000   0.00287   0.00000   0.00000
  88       44D-1        0.00000   0.00287   0.00000   0.00000   0.00000
  89       44D+2       -0.00000   0.00000   0.00000  -0.00000  -0.00000
  90       44D-2        0.00000   0.00000   0.00000   0.00000   0.00000
  91       45D 0       -0.01641   0.00000   0.00000  -0.00840   0.00288
  92       45D+1        0.00000   0.00000   0.01293   0.00000   0.00000
  93       45D-1        0.00000   0.01293   0.00000   0.00000   0.00000
  94       45D+2       -0.00000   0.00000   0.00000  -0.00000  -0.00000
  95       45D-2        0.00000   0.00000   0.00000   0.00000   0.00000
  96       46D 0       -0.02377   0.00000   0.00000  -0.00326   0.05182
  97       46D+1        0.00000   0.00000   0.00841   0.00000   0.00000
  98       46D-1        0.00000   0.00841   0.00000   0.00000   0.00000
  99       46D+2       -0.00000   0.00000   0.00000  -0.00000   0.00000
 100       46D-2        0.00000   0.00000   0.00000   0.00000   0.00000
 101       47D 0       -0.00652   0.00000   0.00000   0.16244   0.87286
 102       47D+1        0.00000   0.00000  -0.11828   0.00000   0.00000
 103       47D-1        0.00000  -0.11828   0.00000   0.00000   0.00000
 104       47D+2       -0.00000   0.00000   0.00000  -0.00000   0.00000
 105       47D-2        0.00000   0.00000   0.00000   0.00000   0.00000
 106       48D 0       -0.06385   0.00000   0.00000  -0.01457   0.04747
 107       48D+1        0.00000   0.00000   0.04518   0.00000   0.00000
 108       48D-1        0.00000   0.04518   0.00000   0.00000   0.00000
 109       48D+2       -0.00000   0.00000   0.00000  -0.00000  -0.00000
 110       48D-2        0.00000   0.00000   0.00000   0.00000   0.00000
 111       49D 0       -0.03688   0.00000   0.00000  -0.04496  -0.03399
 112       49D+1        0.00000   0.00000   0.10411   0.00000   0.00000
 113       49D-1        0.00000   0.10411   0.00000   0.00000   0.00000
 114       49D+2       -0.00000   0.00000   0.00000  -0.00000  -0.00000
 115       49D-2        0.00000   0.00000   0.00000   0.00000   0.00000
 116       50D 0        0.00683   0.00000   0.00000  -0.04476   0.09015
[...]
  41       29PZ        -0.00003  -0.00002  -0.00002  -0.00000
  42       30PX         0.00038   0.00019   0.00019   0.00000
  43       30PY         0.00038   0.00019   0.00019   0.00000
  44       30PZ         0.00039   0.00020   0.00019   0.00000
  45       31PX        -0.00115  -0.00057  -0.00057   0.00000
  46       31PY        -0.00115  -0.00057  -0.00057   0.00000
  47       31PZ        -0.00115  -0.00058  -0.00057  -0.00001
  48       32PX        -0.04904  -0.02452  -0.02452   0.00000
  49       32PY        -0.04904  -0.02452  -0.02452   0.00000
  50       32PZ        -0.05105  -0.02575  -0.02529  -0.00046
  51       33PX         0.14370   0.07185   0.07185   0.00000
  52       33PY         0.14370   0.07185   0.07185   0.00000
  53       33PZ         0.16673   0.08465   0.08208   0.00256
  54       34PX         0.55222   0.27611   0.27611   0.00000
  55       34PY         0.55222   0.27611   0.27611   0.00000
  56       34PZ         0.57228   0.28809   0.28419   0.00390
  57       35PX         0.95381   0.47691   0.47691   0.00000
  58       35PY         0.95381   0.47691   0.47691   0.00000
  59       35PZ         0.85995   0.43225   0.42770   0.00455
  60       36PX         0.50563   0.25282   0.25282   0.00000
  61       36PY         0.50563   0.25282   0.25282   0.00000
  62       36PZ         0.46327   0.22824   0.23504  -0.00680
  63       37PX         0.04554   0.02277   0.02277   0.00000
  64       37PY         0.04554   0.02277   0.02277   0.00000
  65       37PZ         0.04794   0.04232   0.00562   0.03670
  66       38PX         0.00571   0.00285   0.00285   0.00000
  67       38PY         0.00571   0.00285   0.00285   0.00000
  68       38PZ         0.12955   0.13678  -0.00723   0.14401
  69       39PX        -0.00576  -0.00288  -0.00288   0.00000
  70       39PY        -0.00576  -0.00288  -0.00288   0.00000
  71       39PZ         0.02351   0.02460  -0.00110   0.02570
  72       40PX        -0.12470  -0.06235  -0.06235   0.00000
  73       40PY        -0.12470  -0.06235  -0.06235   0.00000
  74       40PZ        -0.14789  -0.07514  -0.07276  -0.00238
  75       41PX        -0.01657  -0.00829  -0.00829   0.00000
  76       41PY        -0.01657  -0.00829  -0.00829   0.00000
  77       41PZ         0.08571   0.04217   0.04354  -0.00138
  78       42PX         0.00060   0.00030   0.00030   0.00000
  79       42PY         0.00060   0.00030   0.00030   0.00000
  80       42PZ        -0.00049  -0.00047  -0.00002  -0.00045
  81       43D 0        0.00000   0.00000   0.00000   0.00000
  82       43D+1        0.00000   0.00000   0.00000   0.00000
  83       43D-1        0.00000   0.00000   0.00000   0.00000
  84       43D+2        0.00000   0.00000   0.00000   0.00000
  85       43D-2        0.00000   0.00000  -0.00000   0.00000
  86       44D 0        0.00167   0.00088   0.00079   0.00009
  87       44D+1        0.00058   0.00029   0.00029   0.00000
  88       44D-1        0.00058   0.00029   0.00029   0.00000
  89       44D+2        0.00000   0.00000  -0.00000   0.00000
  90       44D-2        0.00000   0.00000  -0.00000   0.00000
  91       45D 0        0.01785   0.00942   0.00843   0.00099
  92       45D+1        0.00632   0.00316   0.00316  -0.00000
  93       45D-1        0.00632   0.00316   0.00316   0.00000
  94       45D+2        0.00000   0.00000   0.00000   0.00000
  95       45D-2        0.00000   0.00000   0.00000   0.00000
  96       46D 0        0.02293   0.01269   0.01025   0.00244
  97       46D+1        0.00709   0.00355   0.00355   0.00000
  98       46D-1        0.00709   0.00355   0.00355   0.00000
  99       46D+2        0.00000   0.00000   0.00000   0.00000
 100       46D-2        0.00000   0.00000  -0.00000   0.00000
 101       47D 0       -0.75174  -0.37540  -0.37634   0.00094
 102       47D+1       -0.27307  -0.13653  -0.13653   0.00000
 103       47D-1       -0.27307  -0.13653  -0.13653   0.00000
 104       47D+2        0.00000   0.00000   0.00000   0.00000
 105       47D-2        0.00000   0.00000   0.00000   0.00000
 106       48D 0        0.14506   0.07764   0.06742   0.01022
 107       48D+1        0.09249   0.04624   0.04624   0.00000
 108       48D-1        0.09249   0.04624   0.04624   0.00000
 109       48D+2        0.00000   0.00000  -0.00000   0.00000
 110       48D-2        0.00000   0.00000   0.00000   0.00000
 111       49D 0        0.00336   0.00361  -0.00025   0.00386
 112       49D+1        0.04089   0.02044   0.02044   0.00000
 113       49D-1        0.04089   0.02044   0.02044   0.00000
 114       49D+2        0.00000   0.00000   0.00000   0.00000
 115       49D-2        0.00000   0.00000   0.00000   0.00000
 116       50D 0       -0.00274  -0.00147  -0.00127  -0.00020
 117       50D+1       -0.00512  -0.00256  -0.00256   0.00000
 118       50D-1       -0.00512  -0.00256  -0.00256  -0.00000
 119       50D+2        0.00000   0.00000   0.00000   0.00000
 120       50D-2        0.00000   0.00000   0.00000   0.00000
 121       51D 0        0.04989   0.02552   0.02437   0.00115
 122       51D+1        0.01916   0.00958   0.00958   0.00000
 123       51D-1        0.01916   0.00958   0.00958   0.00000
 124       51D+2       -0.00000  -0.00000  -0.00000   0.00000
 125       51D-2       -0.00000  -0.00000  -0.00000  -0.00000
 126       52D 0        0.91899   0.46267   0.45632   0.00634
 127       52D+1        0.33351   0.16675   0.16675   0.00000
 128       52D-1        0.33351   0.16675   0.16675   0.00000
 129       52D+2       -0.00000  -0.00000  -0.00000  -0.00000
 130       52D-2       -0.00000  -0.00000  -0.00000  -0.00000
 131       53D 0       -0.00003  -0.00002  -0.00001  -0.00000
 132       53D+1       -0.00002  -0.00001  -0.00001   0.00000
 133       53D-1       -0.00002  -0.00001  -0.00001   0.00000
 134       53D+2        0.00000   0.00000  -0.00000   0.00000
 135       53D-2        0.00000   0.00000  -0.00000   0.00000
 136       54F 0        0.00035   0.00018   0.00018   0.00000
 137       54F+1        0.00013   0.00006   0.00006  -0.00000
 138       54F-1        0.00013   0.00006   0.00006   0.00000
 139       54F+2       -0.00000  -0.00000  -0.00000  -0.00000
 140       54F-2        0.00000   0.00000   0.00000  -0.00000
 141       54F+3        0.00000   0.00000   0.00000   0.00000
 142       54F-3       -0.00000  -0.00000  -0.00000  -0.00000
 143       55F 0        0.00764   0.00383   0.00382   0.00001
 144       55F+1        0.00472   0.00236   0.00236   0.00000
 145       55F-1        0.00472   0.00236   0.00236   0.00000
 146       55F+2        0.00000   0.00000  -0.00000   0.00000
 147       55F-2        0.00000   0.00000  -0.00000   0.00000
 148       55F+3        0.00000   0.00000   0.00000  -0.00000
 149       55F-3        0.00000   0.00000   0.00000   0.00000
 150       56F 0       -0.00243  -0.00125  -0.00118  -0.00008
 151       56F+1        0.00133   0.00067   0.00067   0.00000
 152       56F-1        0.00133   0.00067   0.00067  -0.00000
 153       56F+2        0.00000   0.00000  -0.00000   0.00000
 154       56F-2        0.00000   0.00000  -0.00000   0.00000
 155       56F+3        0.00000   0.00000   0.00000   0.00000
 156       56F-3       -0.00000  -0.00000  -0.00000   0.00000
 157       57F 0       -0.00171  -0.00084  -0.00087   0.00003
 158       57F+1       -0.00198  -0.00099  -0.00099   0.00000
 159       57F-1       -0.00198  -0.00099  -0.00099   0.00000
 160       57F+2        0.00000   0.00000   0.00000   0.00000
 161       57F-2        0.00000   0.00000   0.00000   0.00000
 162       57F+3        0.00000   0.00000   0.00000  -0.00000
 163       57F-3        0.00000   0.00000  -0.00000   0.00000
 164       58G 0        0.00005   0.00003   0.00003  -0.00000
 165       58G+1        0.00003   0.00002   0.00002   0.00000
 166       58G-1        0.00003   0.00002   0.00002   0.00000
 167       58G+2        0.00000   0.00000   0.00000   0.00000
 168       58G-2        0.00000   0.00000   0.00000   0.00000
 169       58G+3       -0.00000  -0.00000  -0.00000   0.00000
 170       58G-3       -0.00000  -0.00000  -0.00000   0.00000
 171       58G+4        0.00000   0.00000   0.00000   0.00000
 172       58G-4        0.00000   0.00000   0.00000   0.00000
 173       59G 0        0.00077   0.00038   0.00039  -0.00001
 174       59G+1        0.00127   0.00064   0.00064  -0.00000
 175       59G-1        0.00127   0.00064   0.00064   0.00000
 176       59G+2        0.00000   0.00000   0.00000   0.00000
 177       59G-2        0.00000   0.00000   0.00000   0.00000
 178       59G+3       -0.00000  -0.00000  -0.00000  -0.00000
 179       59G-3        0.00000   0.00000  -0.00000   0.00000
 180       59G+4       -0.00000  -0.00000  -0.00000   0.00000
 181       59G-4       -0.00000  -0.00000  -0.00000   0.00000
 182       60G 0       -0.00191  -0.00096  -0.00096  -0.00000
 183       60G+1       -0.00253  -0.00127  -0.00127   0.00000
 184       60G-1       -0.00253  -0.00127  -0.00127   0.00000
 185       60G+2       -0.00000  -0.00000  -0.00000   0.00000
 186       60G-2       -0.00000  -0.00000   0.00000  -0.00000
 187       60G+3        0.00000   0.00000   0.00000   0.00000
 188       60G-3       -0.00000  -0.00000  -0.00000   0.00000
 189       60G+4        0.00000   0.00000   0.00000   0.00000
 190       60G-4        0.00000   0.00000   0.00000   0.00000
 191 2   O  1S         -0.00000  -0.00000  -0.00000  -0.00000
 192        2S          0.00000   0.00000   0.00000   0.00000
 193        3S         -0.00000  -0.00000  -0.00000  -0.00000
 194        4S          0.00001   0.00000   0.00000   0.00000
 195        5S         -0.00024  -0.00012  -0.00012  -0.00000
 196        6S         -0.01120  -0.00561  -0.00559  -0.00002
 197        7S         -0.10107  -0.05061  -0.05046  -0.00015
 198        8S          1.05480   0.52793   0.52687   0.00106
 199        9S          0.23137   0.11584   0.11553   0.00032
 200       10S          0.76972   0.38421   0.38552  -0.00131
 201       11S         -0.00019  -0.00010  -0.00010   0.00000
 202       12S          0.00835   0.00418   0.00417   0.00001
 203       13S          0.11216   0.06481   0.04734   0.01747
 204       14PX         0.00163   0.00082   0.00082   0.00000
 205       14PY         0.00163   0.00082   0.00082  -0.00000
 206       14PZ         0.00181   0.00091   0.00090   0.00000
 207       15PX         0.05518   0.02759   0.02759   0.00000
 208       15PY         0.05518   0.02759   0.02759   0.00000
 209       15PZ         0.06116   0.03062   0.03054   0.00007
 210       16PX         0.32870   0.16435   0.16435   0.00000
 211       16PY         0.32870   0.16435   0.16435   0.00000
 212       16PZ         0.36312   0.18177   0.18135   0.00042
 213       17PX         0.68692   0.34346   0.34346   0.00000
 214       17PY         0.68692   0.34346   0.34346   0.00000
 215       17PZ         0.73851   0.36954   0.36897   0.00056
 216       18PX         0.59147   0.29573   0.29573   0.00000
 217       18PY         0.59147   0.29573   0.29573   0.00000
 218       18PZ         0.43990   0.21919   0.22071  -0.00152
 219       19PX         0.00193   0.00096   0.00096   0.00000
 220       19PY         0.00193   0.00096   0.00096   0.00000
 221       19PZ         0.00214   0.00107   0.00107   0.00000
 222       20PX        -0.00026  -0.00013  -0.00013   0.00000
 223       20PY        -0.00026  -0.00013  -0.00013  -0.00000
 224       20PZ        -0.00029  -0.00014  -0.00014  -0.00000
 225       21PX         0.08194   0.04097   0.04097   0.00000
 226       21PY         0.08194   0.04097   0.04097   0.00000
 227       21PZ         0.05083   0.02943   0.02140   0.00802
 228       22D 0        0.00047   0.00024   0.00023   0.00001
 229       22D+1        0.00027   0.00013   0.00013   0.00000
 230       22D-1        0.00027   0.00013   0.00013   0.00000
 231       22D+2        0.00000   0.00000   0.00000  -0.00000
 232       22D-2        0.00000   0.00000   0.00000  -0.00000
 233       23D 0        0.00600   0.00304   0.00296   0.00008
 234       23D+1        0.00525   0.00263   0.00263   0.00000
 235       23D-1        0.00525   0.00263   0.00263  -0.00000
 236       23D+2       -0.00000  -0.00000  -0.00000   0.00000
 237       23D-2       -0.00000   0.00000  -0.00000   0.00000
 238       24D 0        0.00000   0.00000   0.00000   0.00000
 239       24D+1        0.00000   0.00000   0.00000  -0.00000
 240       24D-1        0.00000   0.00000   0.00000   0.00000
 241       24D+2       -0.00000   0.00000  -0.00000   0.00000
 242       24D-2        0.00000   0.00000   0.00000  -0.00000
 243       25D 0       -0.00357  -0.00179  -0.00178  -0.00002
 244       25D+1        0.01033   0.00516   0.00516   0.00000
 245       25D-1        0.01033   0.00516   0.00516   0.00000
 246       25D+2        0.00000  -0.00000   0.00000  -0.00000
 247       25D-2        0.00000  -0.00000   0.00000  -0.00000
 248       26F 0        0.00029   0.00015   0.00014   0.00001
 249       26F+1        0.00010   0.00005   0.00005   0.00000
 250       26F-1        0.00010   0.00005   0.00005   0.00000
 251       26F+2        0.00000   0.00000  -0.00000   0.00000
 252       26F-2        0.00000   0.00000  -0.00000   0.00000
 253       26F+3        0.00000   0.00000   0.00000  -0.00000
 254       26F-3        0.00000   0.00000   0.00000  -0.00000
 255       27F 0        0.00073   0.00040   0.00033   0.00007
 256       27F+1        0.00138   0.00069   0.00069   0.00000
 257       27F-1        0.00138   0.00069   0.00069   0.00000
 258       27F+2       -0.00000  -0.00000  -0.00000  -0.00000
 259       27F-2       -0.00000  -0.00000  -0.00000  -0.00000
 260       27F+3       -0.00000  -0.00000  -0.00000  -0.00000
 261       27F-3       -0.00000  -0.00000  -0.00000   0.00000
          Condensed to atoms (all electrons):
               1          2
     1  Sc   9.654738   0.090753
     2  O    0.090753   7.163755
          Atomic-Atomic Spin Densities.
               1          2
     1  Sc   0.954263   0.020639
     2  O    0.020639   0.004459
 Mulliken charges and spin densities:
               1          2
     1  Sc   1.254508   0.974902
     2  O   -1.254508   0.025098
 Sum of Mulliken charges =  -0.00000   1.00000
 Mulliken charges and spin densities with hydrogens summed into heavy atoms:
               1          2
     1  Sc   1.254508   0.974902
     2  O   -1.254508   0.025098
 Electronic spatial extent (au):  <R**2>=             97.7634
 Charge=             -0.0000 electrons
 Dipole moment (field-independent basis, Debye):
    X=              0.0000    Y=              0.0000    Z=              4.8557  Tot=              4.8557
 Quadrupole moment (field-independent basis, Debye-Ang):
   XX=            -21.8442   YY=            -21.8442   ZZ=            -32.5128
   XY=              0.0000   XZ=              0.0000   YZ=              0.0000
 Traceless Quadrupole moment (field-independent basis, Debye-Ang):
   XX=              3.5562   YY=              3.5562   ZZ=             -7.1124
   XY=              0.0000   XZ=              0.0000   YZ=              0.0000
 Octapole moment (field-independent basis, Debye-Ang**2):
  XXX=              0.0000  YYY=              0.0000  ZZZ=             -7.7806  XYY=              0.0000
  XXY=              0.0000  XXZ=             -2.6186  XZZ=              0.0000  YZZ=              0.0000
  YYZ=             -2.6186  XYZ=              0.0000
 Hexadecapole moment (field-independent basis, Debye-Ang**3):
 XXXX=            -45.2889 YYYY=            -45.2889 ZZZZ=           -181.4740 XXXY=              0.0000
 XXXZ=              0.0000 YYYX=              0.0000 YYYZ=              0.0000 ZZZX=              0.0000
 ZZZY=              0.0000 XXYY=            -15.0963 XXZZ=            -36.6036 YYZZ=            -36.6036
 XXYZ=              0.0000 YYXZ=              0.0000 ZZXY=              0.0000
 N-N= 2.054452701219D+01 E-N=-1.751911051624D+02  KE= 3.033093224007D+01
 Symmetry A1   KE= 1.397858533799D+01
 Symmetry A2   KE=-1.007821779952D-48
 Symmetry B1   KE= 8.176173451171D+00
 Symmetry B2   KE= 8.176173451175D+00
 Symmetry A1   SP= 1.000000000000D+00
 Symmetry A2   SP= 1.496091207302D-48
 Symmetry B1   SP= 7.790199748882D-18
 Symmetry B2   SP= 1.689664895085D-17
 Orbital energies and kinetic energies (alpha):
                                 1                 2
   4         O                -1.632766          2.128165
   5         O                -1.126532          1.119718
   6         O                -0.427600          2.454289
   7         O                -0.411394          1.959921
   8         O                -0.411394          1.959921
   9         O                -0.252652          0.334443
  10         V                -0.000336          0.107532
  11         V                -0.000336          0.107532
  12         V                 0.014427          0.057014
  13         V                 0.022361          0.044960
  14         V                 0.035347          0.062594
 Total kinetic energy from orbitals= 3.066537545299D+01
                          Isotropic Fermi Contact Couplings
        Atom                 a.u.       MegaHertz       Gauss      10(-4) cm-1
     1  Sc(45)             0.00003       0.03448       0.01230       0.01150
     2  O(17)              0.00004      -0.02179      -0.00778      -0.00727
 --------------------------------------------------------
       Center         ----  Spin Dipole Couplings  ----
                      3XX-RR        3YY-RR        3ZZ-RR
 --------------------------------------------------------
     1   Atom       -0.045992     -0.045992      0.091984
     2   Atom       -0.007119     -0.007119      0.014238
 --------------------------------------------------------
                        XY            XZ            YZ
 --------------------------------------------------------
     1   Atom        0.000000      0.000000      0.000000
     2   Atom        0.000000      0.000000      0.000000
 --------------------------------------------------------


 ---------------------------------------------------------------------------------
              Anisotropic Spin Dipole Couplings in Principal Axis System
 ---------------------------------------------------------------------------------

       Atom             a.u.   MegaHertz   Gauss  10(-4) cm-1        Axes

              Baa    -0.0460    -5.970    -2.130    -1.991 -0.0000  1.0000  0.0000
     1 Sc(45) Bbb    -0.0460    -5.970    -2.130    -1.991  1.0000  0.0000  0.0000
              Bcc     0.0920    11.941     4.261     3.983  0.0000  0.0000  1.0000
 
              Baa    -0.0071     0.515     0.184     0.172  1.0000  0.0000  0.0000
     2 O(17)  Bbb    -0.0071     0.515     0.184     0.172 -0.0000  1.0000  0.0000
              Bcc     0.0142    -1.030    -0.368    -0.344  0.0000  0.0000  1.0000
 

 ---------------------------------------------------------------------------------

 No NMR shielding tensors so no spin-rotation constants.
 Leave Link  601 at Wed Mar  7 11:46:20 2018, MaxMem= 10737418240 cpu:              53.4 elap:               3.5
 (Enter /home1/apps/gaussian/16rA.03/g16/l9999.exe)

 Test job not archived.
 1\1\GINC-C434-053\SP\ROCCSD(T)-Full\Gen\O1Sc1(2)\AANNABE\07-Mar-2018\0
 \\#P ROCCSD(T)=(maxcyc=150, Full, SaveAmplitudes, ReadAmplitudes)/Gen 
 5d 7f SCF=(maxcycles=300) Integral(NoXCTest) MaxDisk=500GB Pop=Regular
  Pseudo=Read Guess=Read IOp(5/15=2)\\ScO\\0,2\Sc,0,0.,0.,0.\O,0,0.,0.,
 1.7\\Version=ES64L-G16RevA.03\State=2-SG\HF=-61.964513\MP2=-62.6487634
 \MP3=-62.6217336\PUHF=-61.964513\PMP2-0=-62.6487634\MP4SDQ=-62.6596157
 \CCSD=-62.638001\CCSD(T)=-62.678841\RMSD=2.317e-09\PG=C*V [C*(O1Sc1)]\
 \@


 THE WISE MAN HAS THE POWER TO REASON AWAY
 WHAT A FOOL BELIEVES.
                     - DOOBIE BROTHERS
 Job cpu time:       0 days  5 hours 37 minutes 24.4 seconds.
 Elapsed time:       0 days  0 hours 21 minutes 10.8 seconds.
 File lengths (MBytes):  RWF=   3530 Int=      0 D2E=      0 Chk=     21 Scr=      1
 Normal termination of Gaussian 16 at Wed Mar  7 11:46:21 2018.
