 Entering Gaussian System, Link 0=g16
 Initial command:
 /home1/apps/gaussian/16rA.03/g16/l1.exe "/tmp/Gau-112549.inp" -scrdir="/tmp/"
 Entering Link 1 = /home1/apps/gaussian/16rA.03/g16/l1.exe PID=    112550.
  
 Copyright (c) 1988,1990,1992,1993,1995,1998,2003,2009,2016,
            Gaussian, Inc.  All Rights Reserved.
  
 This is part of the Gaussian(R) 16 program.  It is based on
 the Gaussian(R) 09 system (copyright 2009, Gaussian, Inc.),
 the Gaussian(R) 03 system (copyright 2003, Gaussian, Inc.),
 the Gaussian(R) 98 system (copyright 1998, Gaussian, Inc.),
 the Gaussian(R) 94 system (copyright 1995, Gaussian, Inc.),
 the Gaussian 92(TM) system (copyright 1992, Gaussian, Inc.),
 the Gaussian 90(TM) system (copyright 1990, Gaussian, Inc.),
 the Gaussian 88(TM) system (copyright 1988, Gaussian, Inc.),
 the Gaussian 86(TM) system (copyright 1986, Carnegie Mellon
 University), and the Gaussian 82(TM) system (copyright 1983,
 Carnegie Mellon University). Gaussian is a federally registered
 trademark of Gaussian, Inc.
  
 This software contains proprietary and confidential information,
 including trade secrets, belonging to Gaussian, Inc.
  
 This software is provided under written license and may be
 used, copied, transmitted, or stored only in accord with that
 written license.
  
 The following legend is applicable only to US Government
 contracts under FAR:
  
                    RESTRICTED RIGHTS LEGEND
  
 Use, reproduction and disclosure by the US Government is
 subject to restrictions as set forth in subparagraphs (a)
 and (c) of the Commercial Computer Software - Restricted
 Rights clause in FAR 52.227-19.
  
 Gaussian, Inc.
 340 Quinnipiac St., Bldg. 40, Wallingford CT 06492
  
  
 ---------------------------------------------------------------
 Warning -- This program may not be used in any manner that
 competes with the business of Gaussian, Inc. or will provide
 assistance to any competitor of Gaussian, Inc.  The licensee
 of this program is prohibited from giving any competitor of
 Gaussian, Inc. access to this program.  By using this program,
 the user acknowledges that Gaussian, Inc. is engaged in the
 business of creating and licensing software in the field of
 computational chemistry and represents and warrants to the
 licensee that it is not a competitor of Gaussian, Inc. and that
 it will not use this program in any manner prohibited above.
 ---------------------------------------------------------------
  

 Cite this work as:
 Gaussian 16, Revision A.03,
 M. J. Frisch, G. W. Trucks, H. B. Schlegel, G. E. Scuseria, 
 M. A. Robb, J. R. Cheeseman, G. Scalmani, V. Barone, 
 G. A. Petersson, H. Nakatsuji, X. Li, M. Caricato, A. V. Marenich, 
 J. Bloino, B. G. Janesko, R. Gomperts, B. Mennucci, H. P. Hratchian, 
 J. V. Ortiz, A. F. Izmaylov, J. L. Sonnenberg, D. Williams-Young, 
 F. Ding, F. Lipparini, F. Egidi, J. Goings, B. Peng, A. Petrone, 
 T. Henderson, D. Ranasinghe, V. G. Zakrzewski, J. Gao, N. Rega, 
 G. Zheng, W. Liang, M. Hada, M. Ehara, K. Toyota, R. Fukuda, 
 J. Hasegawa, M. Ishida, T. Nakajima, Y. Honda, O. Kitao, H. Nakai, 
 T. Vreven, K. Throssell, J. A. Montgomery, Jr., J. E. Peralta, 
 F. Ogliaro, M. J. Bearpark, J. J. Heyd, E. N. Brothers, K. N. Kudin, 
 V. N. Staroverov, T. A. Keith, R. Kobayashi, J. Normand, 
 K. Raghavachari, A. P. Rendell, J. C. Burant, S. S. Iyengar, 
 J. Tomasi, M. Cossi, J. M. Millam, M. Klene, C. Adamo, R. Cammi, 
 J. W. Ochterski, R. L. Martin, K. Morokuma, O. Farkas, 
 J. B. Foresman, and D. J. Fox, Gaussian, Inc., Wallingford CT, 2016.
 
 ******************************************
 Gaussian 16:  ES64L-G16RevA.03 25-Dec-2016
                25-Feb-2018 
 ******************************************
 %MEM=64GB
 %CPU=0-15
 SetSPE:  set environment variable "MP_BIND" = "yes"
 SetSPE:  set environment variable "MP_BLIST" = "0,1,2,3,4,5,6,7,8,9,10,11,12,13,14,15"
 Will use up to   16 processors via shared memory.
 %RWF=/scratch/04843/aannabe/gaussian/
 %Int=/scratch/04843/aannabe/gaussian/
 %D2E=/scratch/04843/aannabe/gaussian/
 %NoSave
 %CHK=MnH
 ----------------------------------------------------------------------
 #P ROCCSD(T)=(maxcyc=150, Full, SaveAmplitudes, ReadAmplitudes)/Gen 5d
  7f SCF=(maxcycles=300) Integral(NoXCTest) MaxDisk=500GB Pop=Regular P
 seudo=Read Guess=Read
 ----------------------------------------------------------------------
 1/38=1,172=1/1;
 2/12=2,17=6,18=5,40=1/2;
 3/5=7,8=11,11=2,16=1,17=8,25=1,30=1,47=8,116=101/1,2,3;
 4/5=1/1;
 5/5=2,7=300,38=6/2;
 8/5=-1,6=4,9=120000,10=90,24=1/1,4;
 9/5=7,6=150,14=2,77=1/13;
 6//1;
 99/5=1,9=1/99;
 Leave Link    1 at Sun Feb 25 22:32:15 2018, MaxMem=  8589934592 cpu:               3.5 elap:               0.2
 (Enter /home1/apps/gaussian/16rA.03/g16/l101.exe)
 ---
 MnH
 ---
 Symbolic Z-matrix:
 Charge =  0 Multiplicity = 7
 Mn                    0.        0.        0. 
 H                     0.        0.        1.2 
 
 ITRead=  0  0
 MicOpt= -1 -1
 NAtoms=      2 NQM=        2 NQMF=       0 NMMI=      0 NMMIF=      0
                NMic=       0 NMicF=      0.
                    Isotopes and Nuclear Properties:
 (Nuclear quadrupole moments (NQMom) in fm**2, nuclear magnetic moments (NMagM)
  in nuclear magnetons)

  Atom         1           2
 IAtWgt=          55           1
 AtmWgt=  54.9380463   1.0078250
 NucSpn=           5           1
 AtZEff=  -0.0000000  -0.0000000
 NQMom=   33.0000000   0.0000000
 NMagM=    3.4532000   2.7928460
 AtZNuc=  25.0000000   1.0000000
 Leave Link  101 at Sun Feb 25 22:32:15 2018, MaxMem=  8589934592 cpu:               1.5 elap:               0.1
 (Enter /home1/apps/gaussian/16rA.03/g16/l202.exe)
                          Input orientation:                          
 ---------------------------------------------------------------------
 Center     Atomic      Atomic             Coordinates (Angstroms)
 Number     Number       Type             X           Y           Z
 ---------------------------------------------------------------------
      1         25           0        0.000000    0.000000    0.000000
      2          1           0        0.000000    0.000000    1.200000
 ---------------------------------------------------------------------
 Stoichiometry    HMn(7)
 Framework group  C*V[C*(HMn)]
 Deg. of freedom     1
 Full point group                 C*V     NOp   4
 Largest Abelian subgroup         C2V     NOp   4
 Largest concise Abelian subgroup C1      NOp   1
                         Standard orientation:                         
 ---------------------------------------------------------------------
 Center     Atomic      Atomic             Coordinates (Angstroms)
 Number     Number       Type             X           Y           Z
 ---------------------------------------------------------------------
      1         25           0        0.000000    0.000000    0.046154
      2          1           0        0.000000    0.000000   -1.153846
 ---------------------------------------------------------------------
 Rotational constants (GHZ):           0.0000000         354.6209554         354.6209554
 Leave Link  202 at Sun Feb 25 22:32:15 2018, MaxMem=  8589934592 cpu:               0.3 elap:               0.1
 (Enter /home1/apps/gaussian/16rA.03/g16/l301.exe)
 General basis read from cards:  (5D, 7F)
 Centers:       1
 S 1 1.00
     Exponent=  1.2210500000D+07 Coefficients=  1.0000000000D+00
 S 1 1.00
     Exponent=  1.8281570000D+06 Coefficients=  1.0000000000D+00
 S 1 1.00
     Exponent=  4.1603030000D+05 Coefficients=  1.0000000000D+00
 S 1 1.00
     Exponent=  1.1784360000D+05 Coefficients=  1.0000000000D+00
 S 1 1.00
     Exponent=  3.8448140000D+04 Coefficients=  1.0000000000D+00
 S 1 1.00
     Exponent=  1.3881710000D+04 Coefficients=  1.0000000000D+00
 S 1 1.00
     Exponent=  5.4150020000D+03 Coefficients=  1.0000000000D+00
 S 1 1.00
     Exponent=  2.2464600000D+03 Coefficients=  1.0000000000D+00
 S 1 1.00
     Exponent=  9.8014630000D+02 Coefficients=  1.0000000000D+00
 S 1 1.00
     Exponent=  4.4589520000D+02 Coefficients=  1.0000000000D+00
 S 1 1.00
     Exponent=  2.1005580000D+02 Coefficients=  1.0000000000D+00
 S 1 1.00
     Exponent=  1.0180460000D+02 Coefficients=  1.0000000000D+00
 S 1 1.00
     Exponent=  5.0011260000D+01 Coefficients=  1.0000000000D+00
 S 1 1.00
     Exponent=  2.2939390000D+01 Coefficients=  1.0000000000D+00
 S 1 1.00
     Exponent=  1.1522640000D+01 Coefficients=  1.0000000000D+00
 S 1 1.00
     Exponent=  5.7763380000D+00 Coefficients=  1.0000000000D+00
 S 1 1.00
     Exponent=  2.6259590000D+00 Coefficients=  1.0000000000D+00
 S 1 1.00
     Exponent=  1.2603220000D+00 Coefficients=  1.0000000000D+00
 S 1 1.00
     Exponent=  5.7713000000D-01 Coefficients=  1.0000000000D+00
 S 1 1.00
     Exponent=  1.3658200000D-01 Coefficients=  1.0000000000D+00
 S 1 1.00
     Exponent=  6.3535000000D-02 Coefficients=  1.0000000000D+00
 S 1 1.00
     Exponent=  2.8521000000D-02 Coefficients=  1.0000000000D+00
 S 1 1.00
     Exponent=  5.3389000000D+00 Coefficients=  1.0000000000D+00
 S 1 1.00
     Exponent=  1.6013000000D+00 Coefficients=  1.0000000000D+00
 S 1 1.00
     Exponent=  1.2800000000D-02 Coefficients=  1.0000000000D+00
 P 1 1.00
     Exponent=  3.5005120000D+04 Coefficients=  1.0000000000D+00
 P 1 1.00
     Exponent=  8.2794620000D+03 Coefficients=  1.0000000000D+00
 P 1 1.00
     Exponent=  2.6884650000D+03 Coefficients=  1.0000000000D+00
 P 1 1.00
     Exponent=  1.0294900000D+03 Coefficients=  1.0000000000D+00
 P 1 1.00
     Exponent=  4.3807080000D+02 Coefficients=  1.0000000000D+00
 P 1 1.00
     Exponent=  2.0061530000D+02 Coefficients=  1.0000000000D+00
 P 1 1.00
     Exponent=  9.7007690000D+01 Coefficients=  1.0000000000D+00
 P 1 1.00
     Exponent=  4.8870520000D+01 Coefficients=  1.0000000000D+00
 P 1 1.00
     Exponent=  2.5292810000D+01 Coefficients=  1.0000000000D+00
 P 1 1.00
     Exponent=  1.3353820000D+01 Coefficients=  1.0000000000D+00
 P 1 1.00
     Exponent=  7.1317860000D+00 Coefficients=  1.0000000000D+00
 P 1 1.00
     Exponent=  3.7643650000D+00 Coefficients=  1.0000000000D+00
 P 1 1.00
     Exponent=  1.9462650000D+00 Coefficients=  1.0000000000D+00
 P 1 1.00
     Exponent=  9.8545500000D-01 Coefficients=  1.0000000000D+00
 P 1 1.00
     Exponent=  4.8186500000D-01 Coefficients=  1.0000000000D+00
 P 1 1.00
     Exponent=  1.8822219000D-01 Coefficients=  1.0000000000D+00
 P 1 1.00
     Exponent=  7.7539570000D-02 Coefficients=  1.0000000000D+00
 P 1 1.00
     Exponent=  3.1549450000D-02 Coefficients=  1.0000000000D+00
 P 1 1.00
     Exponent=  7.3423000000D+00 Coefficients=  1.0000000000D+00
 P 1 1.00
     Exponent=  1.9340000000D+00 Coefficients=  1.0000000000D+00
 P 1 1.00
     Exponent=  1.2840000000D-02 Coefficients=  1.0000000000D+00
 D 1 1.00
     Exponent=  3.1310900000D+02 Coefficients=  1.0000000000D+00
 D 1 1.00
     Exponent=  9.2527600000D+01 Coefficients=  1.0000000000D+00
 D 1 1.00
     Exponent=  3.5419100000D+01 Coefficients=  1.0000000000D+00
 D 1 1.00
     Exponent=  1.5157700000D+01 Coefficients=  1.0000000000D+00
 D 1 1.00
     Exponent=  6.9096400000D+00 Coefficients=  1.0000000000D+00
 D 1 1.00
     Exponent=  3.2725600000D+00 Coefficients=  1.0000000000D+00
 D 1 1.00
     Exponent=  1.5493600000D+00 Coefficients=  1.0000000000D+00
 D 1 1.00
     Exponent=  7.1709400000D-01 Coefficients=  1.0000000000D+00
 D 1 1.00
     Exponent=  3.1931000000D-01 Coefficients=  1.0000000000D+00
 D 1 1.00
     Exponent=  1.3415700000D-01 Coefficients=  1.0000000000D+00
 D 1 1.00
     Exponent=  5.1400000000D-02 Coefficients=  1.0000000000D+00
 D 1 1.00
     Exponent=  4.6851000000D+00 Coefficients=  1.0000000000D+00
 D 1 1.00
     Exponent=  2.4217000000D+00 Coefficients=  1.0000000000D+00
 D 1 1.00
     Exponent=  1.9690000000D-02 Coefficients=  1.0000000000D+00
 F 1 1.00
     Exponent=  6.6540000000D+00 Coefficients=  1.0000000000D+00
 F 1 1.00
     Exponent=  2.7676000000D+00 Coefficients=  1.0000000000D+00
 F 1 1.00
     Exponent=  1.1511000000D+00 Coefficients=  1.0000000000D+00
 F 1 1.00
     Exponent=  3.8120000000D-01 Coefficients=  1.0000000000D+00
 F 1 1.00
     Exponent=  1.2624000000D-01 Coefficients=  1.0000000000D+00
 G 1 1.00
     Exponent=  5.4683000000D+00 Coefficients=  1.0000000000D+00
 G 1 1.00
     Exponent=  2.3327000000D+00 Coefficients=  1.0000000000D+00
 G 1 1.00
     Exponent=  8.5200000000D-01 Coefficients=  1.0000000000D+00
 G 1 1.00
     Exponent=  3.1119000000D-01 Coefficients=  1.0000000000D+00
 H 1 1.00
     Exponent=  5.1185000000D+00 Coefficients=  1.0000000000D+00
 H 1 1.00
     Exponent=  1.9660000000D+00 Coefficients=  1.0000000000D+00
 H 1 1.00
     Exponent=  7.5513000000D-01 Coefficients=  1.0000000000D+00
 ****
 Centers:       2
 S 1 1.00
     Exponent=  8.2640000000D+01 Coefficients=  1.0000000000D+00
 S 1 1.00
     Exponent=  1.2410000000D+01 Coefficients=  1.0000000000D+00
 S 1 1.00
     Exponent=  2.8240000000D+00 Coefficients=  1.0000000000D+00
 S 1 1.00
     Exponent=  7.9770000000D-01 Coefficients=  1.0000000000D+00
 S 1 1.00
     Exponent=  2.5810000000D-01 Coefficients=  1.0000000000D+00
 S 1 1.00
     Exponent=  8.9890000000D-02 Coefficients=  1.0000000000D+00
 S 1 1.00
     Exponent=  2.3630000000D-02 Coefficients=  1.0000000000D+00
 P 1 1.00
     Exponent=  2.2920000000D+00 Coefficients=  1.0000000000D+00
 P 1 1.00
     Exponent=  8.3800000000D-01 Coefficients=  1.0000000000D+00
 P 1 1.00
     Exponent=  2.9200000000D-01 Coefficients=  1.0000000000D+00
 P 1 1.00
     Exponent=  8.4800000000D-02 Coefficients=  1.0000000000D+00
 D 1 1.00
     Exponent=  2.0620000000D+00 Coefficients=  1.0000000000D+00
 D 1 1.00
     Exponent=  6.6200000000D-01 Coefficients=  1.0000000000D+00
 D 1 1.00
     Exponent=  1.9000000000D-01 Coefficients=  1.0000000000D+00
 F 1 1.00
     Exponent=  1.3970000000D+00 Coefficients=  1.0000000000D+00
 F 1 1.00
     Exponent=  3.6000000000D-01 Coefficients=  1.0000000000D+00
 ****
 ======================================================================================================
                                       Pseudopotential Parameters
 ======================================================================================================
  Center     Atomic      Valence      Angular      Power
  Number     Number     Electrons     Momentum     of R      Exponent        Coefficient   SO-Coeffient
 ======================================================================================================
    1         25           15
                                      F and up 
                                                     1       18.4343224       15.00000000    0.00000000
                                                     2       12.7417521    31301.56494509    0.00000000
                                                     2       11.6741091    -4576.35463180    0.00000000
                                                     2       12.9037616    **************    0.00000000
                                                     2        4.9717187       -4.09339906    0.00000000
                                                     3        8.7926482      276.51483655    0.00000000
                                      S - F
                                                     2       13.5618787     2771.78238977    0.00000000
                                                     2        9.4481253    12553.69429672    0.00000000
                                                     2       10.7650385     1886.79316638    0.00000000
                                                     2       11.6534559    -9260.55332402    0.00000000
                                                     2        8.4807300    -8943.95003535    0.00000000
                                                     2        6.9670703     1041.73211249    0.00000000
                                      P - F
                                                     2       12.7134292    **************    0.00000000
                                                     2       18.0317451    **************    0.00000000
                                                     2       16.6827906    **************    0.00000000
                                                     2       13.1886712    16025.79106608    0.00000000
                                                     2       18.4286113    **************    0.00000000
                                                     2       12.9092897    14270.47832347    0.00000000
                                      D - F
                                                     2        8.1338423     -382.83904013    0.00000000
                                                     2       14.2869922     5676.99013005    0.00000000
                                                     2       11.1440663    35338.03440844    0.00000000
                                                     2       11.3767498    **************    0.00000000
                                                     2       18.2581823     3550.66026420    0.00000000
                                                     2       17.7314631    -5317.47975296    0.00000000
    2          1            1
                                      P and up 
                                                     2       21.7769666      -10.85192405    0.00000000
                                                     1       21.2435951        1.00000000    0.00000000
                                                     3       21.2435951       21.24359508    0.00000000
                                      S - P
                                                     2        1.0000000        0.00000000    0.00000000
 ======================================================================================================
 Ernie: Thresh=  0.10000D-02 Tol=  0.10000D-05 Strict=F.
 There are   171 symmetry adapted cartesian basis functions of A1  symmetry.
 There are    45 symmetry adapted cartesian basis functions of A2  symmetry.
 There are    93 symmetry adapted cartesian basis functions of B1  symmetry.
 There are    93 symmetry adapted cartesian basis functions of B2  symmetry.
 There are   126 symmetry adapted basis functions of A1  symmetry.
 There are    38 symmetry adapted basis functions of A2  symmetry.
 There are    73 symmetry adapted basis functions of B1  symmetry.
 There are    73 symmetry adapted basis functions of B2  symmetry.
   310 basis functions,   402 primitive gaussians,   402 cartesian basis functions
    11 alpha electrons        5 beta electrons
       nuclear repulsion energy         6.6147151365 Hartrees.
 IExCor=    0 DFT=F Ex=HF Corr=None ExCW=0 ScaHFX=  1.000000
 ScaDFX=  1.000000  1.000000  1.000000  1.000000 ScalE2=  1.000000  1.000000
 IRadAn=      5 IRanWt=     -1 IRanGd=            0 ICorTp=0 IEmpDi=  4
 NAtoms=    2 NActive=    2 NUniq=    2 SFac= 1.00D+00 NAtFMM=   60 NAOKFM=F Big=F
 Integral buffers will be    131072 words long.
 Raffenetti 2 integral format.
 Two-electron integral symmetry is turned on.
 Leave Link  301 at Sun Feb 25 22:32:16 2018, MaxMem=  8589934592 cpu:               4.4 elap:               0.3
 (Enter /home1/apps/gaussian/16rA.03/g16/l302.exe)
 NPDir=0 NMtPBC=     1 NCelOv=     1 NCel=       1 NClECP=     1 NCelD=      1
         NCelK=      1 NCelE2=     1 NClLst=     1 CellRange=     0.0.
 One-electron integrals computed using PRISM.
 One-electron integral symmetry used in STVInt
   4 Symmetry operations used in ECPInt.
 ECPInt:  NShTT=    3916 NPrTT=    3916 LenC2=    3880 LenP2D=    3879.
 LDataN:  DoStor=T MaxTD1=10 Len=  848
 NBasis=   310 RedAO= T EigKep=  1.11D-05  NBF=   126    38    73    73
 NBsUse=   303 1.00D-06 EigRej=  3.70D-07 NBFU=   123    38    71    71
 Leave Link  302 at Sun Feb 25 22:32:19 2018, MaxMem=  8589934592 cpu:              47.2 elap:               3.0
 (Enter /home1/apps/gaussian/16rA.03/g16/l303.exe)
 DipDrv:  MaxL=1.
 Leave Link  303 at Sun Feb 25 22:32:19 2018, MaxMem=  8589934592 cpu:               1.4 elap:               0.2
 (Enter /home1/apps/gaussian/16rA.03/g16/l401.exe)
 Initial guess from the checkpoint file:  "MnH.chk"
 B after Tr=     0.000000    0.000000    0.000000
         Rot=    1.000000    0.000000    0.000000    0.000000 Ang=   0.00 deg.
 Guess basis will be translated and rotated to current coordinates.
 JPrj=2 DoOrth=T DoCkMO=T.
 Initial guess orbital symmetries:
       Occupied  (SG) (SG) (PI) (PI) (SG) (SG) (PI) (PI) (DLTA)
                 (DLTA) (SG)
       Virtual   (PI) (PI) (SG) (SG) (PI) (PI) (DLTA) (DLTA) (SG)
                 (PI) (PI) (SG) (SG) (SG) (PI) (PI) (SG) (DLTA)
                 (DLTA) (PI) (PI) (SG) (PI) (PI) (SG) (SG) (SG)
                 (PHI) (PHI) (DLTA) (DLTA) (PI) (PI) (PI) (PI)
                 (SG) (SG) (DLTA) (DLTA) (PI) (PI) (DLTA) (DLTA)
                 (SG) (PI) (PI) (SG) (SG) (PI) (PI) (SG) (PHI)
                 (PHI) (DLTA) (DLTA) (PI) (PI) (SG) (PI) (PI) (SG)
                 (?A) (?A) (PHI) (PHI) (DLTA) (DLTA) (SG) (PI)
                 (PI) (DLTA) (DLTA) (PI) (PI) (SG) (SG) (DLTA)
                 (DLTA) (PI) (PI) (SG) (PI) (PI) (SG) (SG) (PHI)
                 (PHI) (DLTA) (DLTA) (PI) (PI) (DLTA) (DLTA) (SG)
                 (PI) (PI) (SG) (PI) (PI) (SG) (?A) (?A) (PHI)
                 (PHI) (DLTA) (DLTA) (PI) (PI) (SG) (SG) (SG) (DLTA)
                 (DLTA) (PI) (PI) (SG) (PI) (PI) (PHI) (PHI) (DLTA)
                 (DLTA) (SG) (PI) (PI) (SG) (?A) (?A) (PHI) (PHI)
                 (DLTA) (DLTA) (PI) (PI) (SG) (SG) (DLTA) (DLTA)
                 (PI) (PI) (SG) (PI) (PI) (SG) (SG) (DLTA) (DLTA)
                 (PI) (PI) (SG) (PI) (PI) (SG) (SG) (SG) (PI) (PI)
                 (SG) (DLTA) (DLTA) (PI) (PI) (SG) (SG) (PI) (PI)
                 (SG) (SG) (DLTA) (DLTA) (PI) (PI) (SG) (PI) (PI)
                 (SG) (SG) (PI) (PI) (SG) (SG) (PI) (PI) (SG) (SG)
                 (PI) (PI) (SG) (SG) (PI) (PI) (SG) (SG) (SG) (PI)
                 (PI) (SG) (SG) (SG) (SG) (SG) (DLTA) (SG) (DLTA)
                 (SG) (SG) (SG) (SG) (DLTA) (SG) (SG) (DLTA) (SG)
                 (DLTA) (SG) (?A) (SG) (DLTA) (SG) (DLTA) (SG)
                 (?A) (DLTA) (SG) (DLTA) (DLTA) (SG) (SG) (?A)
                 (DLTA) (?A) (DLTA) (DLTA) (DLTA) (DLTA) (DLTA)
                 (?A) (DLTA) (DLTA) (?A) (DLTA) (DLTA) (DLTA) (?A)
                 (DLTA) (?A) (PI) (PI) (PI) (PI) (PI) (PHI) (PI)
                 (PI) (PHI) (PI) (PI) (PI) (PHI) (PI) (?B) (PHI)
                 (PI) (PHI) (PI) (PHI) (?B) (PHI) (?B) (PI) (PI)
                 (PI) (PI) (PI) (PHI) (PI) (PI) (PHI) (PI) (PI)
                 (PI) (PHI) (PI) (?B) (PHI) (PI) (PHI) (PI) (PHI)
                 (?B) (PHI) (?B)
 The electronic state of the initial guess is 7-SG.
 Leave Link  401 at Sun Feb 25 22:32:19 2018, MaxMem=  8589934592 cpu:               8.1 elap:               0.6
 (Enter /home1/apps/gaussian/16rA.03/g16/l502.exe)
 Keep R1 and R2 ints in memory in symmetry-blocked form, NReq=1456552531.
 FoFCou: FMM=F IPFlag=           8 FMFlag=           0 FMFlg1=           0
         NFxFlg=           0 DoJE=F BraDBF=F KetDBF=F FulRan=T
         wScrn=  0.000000 ICntrl=       600 IOpCl=  0 I1Cent=           0 NGrid=           0
         NMat0=    1 NMatS0=  48205 NMatT0=    0 NMatD0=    1 NMtDS0=    0 NMtDT0=    0
 Petite list used in FoFCou.
 Restricted open shell SCF:
 Using DIIS extrapolation, IDIIS=  1040.
 NGot=  8589934592 LenX=  8000380050 LenY=  8000218005
 Requested convergence on RMS density matrix=1.00D-08 within 300 cycles.
 Requested convergence on MAX density matrix=1.00D-06.
 Requested convergence on             energy=1.00D-06.
 No special actions if energy rises.

 Cycle   1  Pass 1  IDiag  1:
 E= -103.935070520166    
 DIIS: error= 7.93D+00 at cycle   1 NSaved=   1.
 NSaved= 1 IEnMin= 1 EnMin= -103.935070520166     IErMin= 1 ErrMin= 7.93D+00
 ErrMax= 7.93D+00  0.00D+00 EMaxC= 1.00D-01 BMatC= 9.56D+03 BMatP= 9.56D+03
 IDIUse=3 WtCom= 0.00D+00 WtEn= 1.00D+00
 Coeff-Com:  0.100D+01
 Coeff-En:   0.100D+01
 Coeff:      0.100D+01
 Gap=     0.057 Goal=   None    Shift=    0.000
 GapD=    0.057 DampG=0.500 DampE=0.125 DampFc=0.1250 IDamp=-1.
 Damping current iteration by 1.25D-01
 RMSDP=1.94D-02 MaxDP=2.30D+00              OVMax= 4.30D-03

 Cycle   2  Pass 1  IDiag  1:
 E= -103.936875902899     Delta-E=       -0.001805382732 Rises=F Damp=T
 DIIS: error= 6.94D+00 at cycle   2 NSaved=   2.
 NSaved= 2 IEnMin= 2 EnMin= -103.936875902899     IErMin= 2 ErrMin= 6.94D+00
 ErrMax= 6.94D+00  0.00D+00 EMaxC= 1.00D-01 BMatC= 7.32D+03 BMatP= 9.56D+03
 IDIUse=3 WtCom= 0.00D+00 WtEn= 1.00D+00
 Coeff-Com: -0.700D+01 0.800D+01
 Coeff-En:   0.000D+00 0.100D+01
 Coeff:      0.000D+00 0.100D+01
 Gap=     0.056 Goal=   None    Shift=    0.000
 RMSDP=1.69D-02 MaxDP=2.01D+00 DE=-1.81D-03 OVMax= 6.15D-03

 Cycle   3  Pass 1  IDiag  1:
 E= -103.949506705998     Delta-E=       -0.012630803100 Rises=F Damp=F
 DIIS: error= 7.73D-04 at cycle   3 NSaved=   3.
 NSaved= 3 IEnMin= 3 EnMin= -103.949506705998     IErMin= 3 ErrMin= 7.73D-04
 ErrMax= 7.73D-04  0.00D+00 EMaxC= 1.00D-01 BMatC= 5.38D-05 BMatP= 7.32D+03
 IDIUse=3 WtCom= 9.92D-01 WtEn= 7.73D-03
 Coeff-Com: -0.136D+01 0.156D+01 0.805D+00
 Coeff-En:   0.000D+00 0.000D+00 0.100D+01
 Coeff:     -0.135D+01 0.155D+01 0.807D+00
 Gap=     0.056 Goal=   None    Shift=    0.000
 RMSDP=5.01D-04 MaxDP=4.84D-02 DE=-1.26D-02 OVMax= 7.08D-03

 Cycle   4  Pass 1  IDiag  1:
 E= -103.949538608777     Delta-E=       -0.000031902779 Rises=F Damp=F
 DIIS: error= 4.71D-04 at cycle   4 NSaved=   4.
 NSaved= 4 IEnMin= 4 EnMin= -103.949538608777     IErMin= 4 ErrMin= 4.71D-04
 ErrMax= 4.71D-04  0.00D+00 EMaxC= 1.00D-01 BMatC= 2.44D-05 BMatP= 5.38D-05
 IDIUse=3 WtCom= 9.95D-01 WtEn= 4.71D-03
 Coeff-Com: -0.951D+00 0.109D+01 0.386D+00 0.478D+00
 Coeff-En:   0.000D+00 0.000D+00 0.390D+00 0.610D+00
 Coeff:     -0.947D+00 0.108D+01 0.386D+00 0.478D+00
 Gap=     0.056 Goal=   None    Shift=    0.000
 RMSDP=4.28D-04 MaxDP=4.62D-02 DE=-3.19D-05 OVMax= 1.03D-02

 Cycle   5  Pass 1  IDiag  1:
 E= -103.949519571011     Delta-E=        0.000019037766 Rises=F Damp=F
 DIIS: error= 4.38D-04 at cycle   5 NSaved=   5.
 NSaved= 5 IEnMin= 4 EnMin= -103.949538608777     IErMin= 5 ErrMin= 4.38D-04
 ErrMax= 4.38D-04  0.00D+00 EMaxC= 1.00D-01 BMatC= 2.80D-05 BMatP= 2.44D-05
 IDIUse=3 WtCom= 3.23D-01 WtEn= 6.77D-01
 Coeff-Com: -0.861D+00 0.984D+00 0.267D-01 0.370D+00 0.481D+00
 Coeff-En:   0.000D+00 0.000D+00 0.000D+00 0.562D+00 0.438D+00
 Coeff:     -0.278D+00 0.318D+00 0.862D-02 0.500D+00 0.452D+00
 Gap=     0.056 Goal=   None    Shift=    0.000
 RMSDP=7.98D-04 MaxDP=8.94D-02 DE= 1.90D-05 OVMax= 1.03D-02

 Cycle   6  Pass 1  IDiag  1:
 E= -103.949556934328     Delta-E=       -0.000037363318 Rises=F Damp=F
 DIIS: error= 1.64D-04 at cycle   6 NSaved=   6.
 NSaved= 6 IEnMin= 6 EnMin= -103.949556934328     IErMin= 6 ErrMin= 1.64D-04
 ErrMax= 1.64D-04  0.00D+00 EMaxC= 1.00D-01 BMatC= 4.03D-06 BMatP= 2.44D-05
 IDIUse=3 WtCom= 9.98D-01 WtEn= 1.64D-03
 EnCoef did   100 forward-backward iterations
 Coeff-Com: -0.514D+00 0.587D+00-0.768D-02 0.184D+00 0.387D+00 0.363D+00
 Coeff-En:   0.000D+00 0.000D+00 0.436D-02 0.188D+00 0.347D+00 0.460D+00
 Coeff:     -0.513D+00 0.586D+00-0.766D-02 0.184D+00 0.387D+00 0.363D+00
 Gap=     0.056 Goal=   None    Shift=    0.000
 RMSDP=5.83D-04 MaxDP=5.53D-02 DE=-3.74D-05 OVMax= 3.97D-03

 Cycle   7  Pass 1  IDiag  1:
 E= -103.949557598857     Delta-E=       -0.000000664529 Rises=F Damp=F
 DIIS: error= 2.59D-04 at cycle   7 NSaved=   7.
 NSaved= 7 IEnMin= 7 EnMin= -103.949557598857     IErMin= 6 ErrMin= 1.64D-04
 ErrMax= 2.59D-04  0.00D+00 EMaxC= 1.00D-01 BMatC= 5.55D-06 BMatP= 4.03D-06
 IDIUse=3 WtCom= 9.98D-01 WtEn= 1.64D-03
 EnCoef did   100 forward-backward iterations
 Rare condition: small coef for last iteration:  0.848D-16
 Coeff-Com: -0.546D+00 0.625D+00-0.952D-01 0.570D-01 0.246D+00 0.912D-01
 Coeff-Com:  0.622D+00
 Coeff-En:   0.000D+00 0.000D+00 0.000D+00 0.129D+00 0.204D+00 0.324D+00
 Coeff-En:   0.343D+00
 Coeff:     -0.546D+00 0.625D+00-0.952D-01 0.570D-01 0.246D+00 0.912D-01
 Coeff:      0.622D+00
 Gap=     0.056 Goal=   None    Shift=    0.000
 RMSDP=1.21D-04 MaxDP=1.17D-02 DE=-6.65D-07 OVMax= 1.10D-03

 Cycle   8  Pass 1  IDiag  1:
 E= -103.949560995294     Delta-E=       -0.000003396437 Rises=F Damp=F
 DIIS: error= 1.90D-04 at cycle   8 NSaved=   8.
 NSaved= 8 IEnMin= 8 EnMin= -103.949560995294     IErMin= 6 ErrMin= 1.64D-04
 ErrMax= 1.90D-04  0.00D+00 EMaxC= 1.00D-01 BMatC= 3.66D-06 BMatP= 4.03D-06
 IDIUse=3 WtCom= 9.98D-01 WtEn= 1.64D-03
 EnCoef did   100 forward-backward iterations
 Rare condition: small coef for last iteration:  0.000D+00
 Coeff-Com: -0.514D+00 0.587D+00-0.879D-01 0.111D-01 0.141D+00 0.158D-01
 Coeff-Com:  0.429D+00 0.418D+00
 Coeff-En:   0.000D+00 0.000D+00 0.592D-02 0.141D+00 0.165D+00 0.277D+00
 Coeff-En:   0.000D+00 0.410D+00
 Coeff:     -0.514D+00 0.587D+00-0.879D-01 0.111D-01 0.141D+00 0.158D-01
 Coeff:      0.429D+00 0.418D+00
 Gap=     0.056 Goal=   None    Shift=    0.000
 RMSDP=3.28D-05 MaxDP=4.14D-03 DE=-3.40D-06 OVMax= 3.21D-04

 Cycle   9  Pass 1  IDiag  1:
 E= -103.949561565354     Delta-E=       -0.000000570060 Rises=F Damp=F
 DIIS: error= 2.01D-04 at cycle   9 NSaved=   9.
 NSaved= 9 IEnMin= 9 EnMin= -103.949561565354     IErMin= 6 ErrMin= 1.64D-04
 ErrMax= 2.01D-04  0.00D+00 EMaxC= 1.00D-01 BMatC= 3.12D-06 BMatP= 3.66D-06
 IDIUse=3 WtCom= 9.98D-01 WtEn= 1.64D-03
 EnCoef did   100 forward-backward iterations
 Coeff-Com: -0.447D+00 0.511D+00-0.740D-01-0.396D-01 0.244D-01-0.414D-01
 Coeff-Com:  0.196D+00 0.321D+00 0.550D+00
 Coeff-En:   0.000D+00 0.000D+00 0.156D-03 0.188D+00 0.348D+00 0.457D+00
 Coeff-En:   0.000D+00 0.000D+00 0.742D-02
 Coeff:     -0.446D+00 0.510D+00-0.739D-01-0.392D-01 0.249D-01-0.406D-01
 Coeff:      0.195D+00 0.321D+00 0.549D+00
 Gap=     0.056 Goal=   None    Shift=    0.000
 RMSDP=2.82D-05 MaxDP=2.04D-03 DE=-5.70D-07 OVMax= 1.87D-04

 Cycle  10  Pass 1  IDiag  1:
 E= -103.949562337078     Delta-E=       -0.000000771724 Rises=F Damp=F
 DIIS: error= 1.75D-04 at cycle  10 NSaved=  10.
 NSaved=10 IEnMin=10 EnMin= -103.949562337078     IErMin= 6 ErrMin= 1.64D-04
 ErrMax= 1.75D-04  0.00D+00 EMaxC= 1.00D-01 BMatC= 2.32D-06 BMatP= 3.12D-06
 IDIUse=3 WtCom= 9.98D-01 WtEn= 1.64D-03
 EnCoef did   100 forward-backward iterations
 Rare condition: small coef for last iteration: -0.113D-15
 Coeff-Com: -0.400D+00 0.457D+00-0.654D-01-0.597D-01-0.255D-01-0.614D-01
 Coeff-Com:  0.910D-01 0.251D+00 0.544D+00 0.268D+00
 Coeff-En:   0.000D+00 0.000D+00 0.146D-01 0.136D+00 0.157D+00 0.248D+00
 Coeff-En:   0.000D+00 0.000D+00 0.000D+00 0.444D+00
 Coeff:     -0.400D+00 0.457D+00-0.654D-01-0.597D-01-0.255D-01-0.614D-01
 Coeff:      0.910D-01 0.251D+00 0.544D+00 0.268D+00
 Gap=     0.056 Goal=   None    Shift=    0.000
 RMSDP=1.96D-05 MaxDP=1.64D-03 DE=-7.72D-07 OVMax= 8.83D-05

 Cycle  11  Pass 1  IDiag  1:
 E= -103.949562754167     Delta-E=       -0.000000417089 Rises=F Damp=F
 DIIS: error= 1.56D-04 at cycle  11 NSaved=  11.
 NSaved=11 IEnMin=11 EnMin= -103.949562754167     IErMin=11 ErrMin= 1.56D-04
 ErrMax= 1.56D-04  0.00D+00 EMaxC= 1.00D-01 BMatC= 1.88D-06 BMatP= 2.32D-06
 IDIUse=3 WtCom= 9.98D-01 WtEn= 1.56D-03
 EnCoef did   100 forward-backward iterations
 Coeff-Com: -0.386D+00 0.441D+00-0.629D-01-0.609D-01-0.313D-01-0.626D-01
 Coeff-Com:  0.752D-01 0.236D+00 0.516D+00 0.153D+00 0.182D+00
 Coeff-En:   0.000D+00 0.000D+00 0.313D-03 0.188D+00 0.348D+00 0.456D+00
 Coeff-En:   0.000D+00 0.000D+00 0.000D+00 0.000D+00 0.799D-02
 Coeff:     -0.385D+00 0.440D+00-0.628D-01-0.605D-01-0.307D-01-0.618D-01
 Coeff:      0.751D-01 0.235D+00 0.516D+00 0.153D+00 0.182D+00
 Gap=     0.056 Goal=   None    Shift=    0.000
 RMSDP=5.92D-06 MaxDP=4.59D-04 DE=-4.17D-07 OVMax= 3.16D-05

 Cycle  12  Pass 1  IDiag  1:
 E= -103.949562893185     Delta-E=       -0.000000139018 Rises=F Damp=F
 DIIS: error= 1.50D-04 at cycle  12 NSaved=  12.
 NSaved=12 IEnMin=12 EnMin= -103.949562893185     IErMin=12 ErrMin= 1.50D-04
 ErrMax= 1.50D-04  0.00D+00 EMaxC= 1.00D-01 BMatC= 1.73D-06 BMatP= 1.88D-06
 IDIUse=3 WtCom= 9.99D-01 WtEn= 1.50D-03
 EnCoef did   100 forward-backward iterations
 Rare condition: small coef for last iteration: -0.338D-15
 Coeff-Com: -0.218D+00 0.249D+00-0.351D-01-0.508D-01-0.472D-01-0.520D-01
 Coeff-Com: -0.125D-01 0.121D+00 0.232D+00-0.118D+01-0.267D+01 0.466D+01
 Coeff-En:   0.000D+00 0.000D+00 0.191D-01 0.135D+00 0.156D+00 0.228D+00
 Coeff-En:   0.000D+00 0.000D+00 0.000D+00 0.000D+00 0.000D+00 0.461D+00
 Coeff:     -0.218D+00 0.249D+00-0.351D-01-0.508D-01-0.472D-01-0.520D-01
 Coeff:     -0.125D-01 0.121D+00 0.232D+00-0.118D+01-0.267D+01 0.466D+01
 Gap=     0.056 Goal=   None    Shift=    0.000
 RMSDP=6.65D-05 MaxDP=5.33D-03 DE=-1.39D-07 OVMax= 3.14D-04

 Cycle  13  Pass 1  IDiag  1:
 E= -103.949563992727     Delta-E=       -0.000001099542 Rises=F Damp=F
 DIIS: error= 8.53D-05 at cycle  13 NSaved=  13.
 NSaved=13 IEnMin=13 EnMin= -103.949563992727     IErMin=13 ErrMin= 8.53D-05
 ErrMax= 8.53D-05  0.00D+00 EMaxC= 1.00D-01 BMatC= 5.59D-07 BMatP= 1.73D-06
 IDIUse=1 WtCom= 1.00D+00 WtEn= 0.00D+00
 Coeff-Com: -0.102D+00 0.117D+00-0.163D-01-0.247D-01-0.221D-01-0.260D-01
 Coeff-Com: -0.742D-02 0.665D-01 0.888D-01-0.126D+01-0.401D+01 0.549D+01
 Coeff-Com:  0.708D+00
 Coeff:     -0.102D+00 0.117D+00-0.163D-01-0.247D-01-0.221D-01-0.260D-01
 Coeff:     -0.742D-02 0.665D-01 0.888D-01-0.126D+01-0.401D+01 0.549D+01
 Coeff:      0.708D+00
 Gap=     0.056 Goal=   None    Shift=    0.000
 RMSDP=4.68D-05 MaxDP=3.83D-03 DE=-1.10D-06 OVMax= 2.18D-04

 Cycle  14  Pass 1  IDiag  1:
 E= -103.949564404943     Delta-E=       -0.000000412216 Rises=F Damp=F
 DIIS: error= 3.95D-05 at cycle  14 NSaved=  14.
 NSaved=14 IEnMin=14 EnMin= -103.949564404943     IErMin=14 ErrMin= 3.95D-05
 ErrMax= 3.95D-05  0.00D+00 EMaxC= 1.00D-01 BMatC= 1.22D-07 BMatP= 5.59D-07
 IDIUse=1 WtCom= 1.00D+00 WtEn= 0.00D+00
 Coeff-Com: -0.366D-01 0.418D-01-0.606D-02-0.309D-02 0.406D-02-0.395D-02
 Coeff-Com:  0.187D-01 0.399D-01 0.348D-01-0.625D+00-0.295D+01 0.323D+01
 Coeff-Com:  0.699D+00 0.553D+00
 Coeff:     -0.366D-01 0.418D-01-0.606D-02-0.309D-02 0.406D-02-0.395D-02
 Coeff:      0.187D-01 0.399D-01 0.348D-01-0.625D+00-0.295D+01 0.323D+01
 Coeff:      0.699D+00 0.553D+00
 Gap=     0.056 Goal=   None    Shift=    0.000
 RMSDP=2.58D-05 MaxDP=2.04D-03 DE=-4.12D-07 OVMax= 1.26D-04

 Cycle  15  Pass 1  IDiag  1:
 E= -103.949564504766     Delta-E=       -0.000000099823 Rises=F Damp=F
 DIIS: error= 1.43D-05 at cycle  15 NSaved=  15.
 NSaved=15 IEnMin=15 EnMin= -103.949564504766     IErMin=15 ErrMin= 1.43D-05
 ErrMax= 1.43D-05  0.00D+00 EMaxC= 1.00D-01 BMatC= 1.57D-08 BMatP= 1.22D-07
 IDIUse=1 WtCom= 1.00D+00 WtEn= 0.00D+00
 Coeff-Com: -0.248D-02 0.283D-02-0.623D-03 0.540D-02 0.119D-01 0.506D-02
 Coeff-Com:  0.221D-01 0.180D-01 0.609D-02-0.181D+00-0.161D+01 0.134D+01
 Coeff-Com:  0.453D+00 0.503D+00 0.420D+00
 Coeff:     -0.248D-02 0.283D-02-0.623D-03 0.540D-02 0.119D-01 0.506D-02
 Coeff:      0.221D-01 0.180D-01 0.609D-02-0.181D+00-0.161D+01 0.134D+01
 Coeff:      0.453D+00 0.503D+00 0.420D+00
 Gap=     0.056 Goal=   None    Shift=    0.000
 RMSDP=1.39D-05 MaxDP=1.11D-03 DE=-9.98D-08 OVMax= 6.50D-05

 Cycle  16  Pass 1  IDiag  1:
 E= -103.949564519480     Delta-E=       -0.000000014714 Rises=F Damp=F
 DIIS: error= 9.61D-07 at cycle  16 NSaved=  16.
 NSaved=16 IEnMin=16 EnMin= -103.949564519480     IErMin=16 ErrMin= 9.61D-07
 ErrMax= 9.61D-07  0.00D+00 EMaxC= 1.00D-01 BMatC= 7.84D-11 BMatP= 1.57D-08
 IDIUse=1 WtCom= 1.00D+00 WtEn= 0.00D+00
 Coeff-Com: -0.627D-02 0.716D-02-0.108D-02 0.640D-03 0.257D-02 0.643D-03
 Coeff-Com:  0.709D-02 0.612D-02 0.150D-01 0.884D-01 0.483D-02-0.203D+00
 Coeff-Com:  0.354D-01 0.770D-01 0.232D+00 0.734D+00
 Coeff:     -0.627D-02 0.716D-02-0.108D-02 0.640D-03 0.257D-02 0.643D-03
 Coeff:      0.709D-02 0.612D-02 0.150D-01 0.884D-01 0.483D-02-0.203D+00
 Coeff:      0.354D-01 0.770D-01 0.232D+00 0.734D+00
 Gap=     0.056 Goal=   None    Shift=    0.000
 RMSDP=1.52D-06 MaxDP=1.17D-04 DE=-1.47D-08 OVMax= 8.41D-06

 Cycle  17  Pass 1  IDiag  1:
 E= -103.949564519123     Delta-E=        0.000000000357 Rises=F Damp=F
 DIIS: error= 2.39D-06 at cycle  17 NSaved=  17.
 NSaved=17 IEnMin=16 EnMin= -103.949564519480     IErMin=16 ErrMin= 9.61D-07
 ErrMax= 2.39D-06  0.00D+00 EMaxC= 1.00D-01 BMatC= 4.60D-10 BMatP= 7.84D-11
 IDIUse=1 WtCom= 1.00D+00 WtEn= 0.00D+00
 Coeff-Com: -0.360D-02 0.412D-02-0.591D-03-0.381D-03-0.701D-04-0.350D-03
 Coeff-Com:  0.130D-02 0.170D-02 0.979D-02 0.691D-01 0.170D+00-0.256D+00
 Coeff-Com: -0.314D-01-0.269D-01 0.871D-01 0.522D+00 0.454D+00
 Coeff:     -0.360D-02 0.412D-02-0.591D-03-0.381D-03-0.701D-04-0.350D-03
 Coeff:      0.130D-02 0.170D-02 0.979D-02 0.691D-01 0.170D+00-0.256D+00
 Coeff:     -0.314D-01-0.269D-01 0.871D-01 0.522D+00 0.454D+00
 Gap=     0.056 Goal=   None    Shift=    0.000
 RMSDP=9.91D-07 MaxDP=7.93D-05 DE= 3.57D-10 OVMax= 6.13D-06

 Cycle  18  Pass 1  IDiag  1:
 E= -103.949564519414     Delta-E=       -0.000000000291 Rises=F Damp=F
 DIIS: error= 1.41D-06 at cycle  18 NSaved=  18.
 NSaved=18 IEnMin=16 EnMin= -103.949564519480     IErMin=16 ErrMin= 9.61D-07
 ErrMax= 1.41D-06  0.00D+00 EMaxC= 1.00D-01 BMatC= 1.52D-10 BMatP= 7.84D-11
 IDIUse=1 WtCom= 1.00D+00 WtEn= 0.00D+00
 Coeff-Com:  0.346D-03-0.396D-03 0.670D-04-0.259D-03-0.653D-03-0.235D-03
 Coeff-Com: -0.126D-02-0.103D-02 0.173D-02 0.197D-01 0.104D+00-0.108D+00
 Coeff-Com: -0.327D-01-0.501D-01-0.387D-02 0.217D+00 0.345D+00 0.511D+00
 Coeff:      0.346D-03-0.396D-03 0.670D-04-0.259D-03-0.653D-03-0.235D-03
 Coeff:     -0.126D-02-0.103D-02 0.173D-02 0.197D-01 0.104D+00-0.108D+00
 Coeff:     -0.327D-01-0.501D-01-0.387D-02 0.217D+00 0.345D+00 0.511D+00
 Gap=     0.056 Goal=   None    Shift=    0.000
 RMSDP=1.59D-06 MaxDP=1.26D-04 DE=-2.91D-10 OVMax= 7.19D-06

 Cycle  19  Pass 1  IDiag  1:
 E= -103.949564519557     Delta-E=       -0.000000000143 Rises=F Damp=F
 DIIS: error= 1.24D-07 at cycle  19 NSaved=  19.
 NSaved=19 IEnMin=19 EnMin= -103.949564519557     IErMin=19 ErrMin= 1.24D-07
 ErrMax= 1.24D-07  0.00D+00 EMaxC= 1.00D-01 BMatC= 1.43D-12 BMatP= 7.84D-11
 IDIUse=1 WtCom= 1.00D+00 WtEn= 0.00D+00
 Coeff-Com:  0.475D-03-0.543D-03 0.814D-04-0.467D-04-0.215D-03-0.557D-04
 Coeff-Com: -0.585D-03-0.435D-03-0.132D-03-0.135D-02 0.219D-01-0.992D-02
 Coeff-Com: -0.113D-01-0.224D-01-0.145D-01 0.371D-01 0.102D+00 0.223D+00
 Coeff-Com:  0.677D+00
 Coeff:      0.475D-03-0.543D-03 0.814D-04-0.467D-04-0.215D-03-0.557D-04
 Coeff:     -0.585D-03-0.435D-03-0.132D-03-0.135D-02 0.219D-01-0.992D-02
 Coeff:     -0.113D-01-0.224D-01-0.145D-01 0.371D-01 0.102D+00 0.223D+00
 Coeff:      0.677D+00
 Gap=     0.056 Goal=   None    Shift=    0.000
 RMSDP=6.50D-08 MaxDP=5.77D-06 DE=-1.43D-10 OVMax= 2.98D-07

 Cycle  20  Pass 1  IDiag  1:
 E= -103.949564519556     Delta-E=        0.000000000000 Rises=F Damp=F
 DIIS: error= 1.86D-07 at cycle  20 NSaved=  20.
 NSaved=20 IEnMin=19 EnMin= -103.949564519557     IErMin=19 ErrMin= 1.24D-07
 ErrMax= 1.86D-07  0.00D+00 EMaxC= 1.00D-01 BMatC= 2.64D-12 BMatP= 1.43D-12
 IDIUse=1 WtCom= 1.00D+00 WtEn= 0.00D+00
 Coeff-Com:  0.296D-03-0.338D-03 0.468D-04 0.888D-04 0.108D-03 0.732D-04
 Coeff-Com:  0.622D-04-0.138D-04-0.618D-03-0.436D-02-0.962D-02 0.157D-01
 Coeff-Com:  0.143D-02 0.886D-03-0.422D-02-0.269D-01-0.265D-01-0.207D-01
 Coeff-Com:  0.180D+00 0.894D+00
 Coeff:      0.296D-03-0.338D-03 0.468D-04 0.888D-04 0.108D-03 0.732D-04
 Coeff:      0.622D-04-0.138D-04-0.618D-03-0.436D-02-0.962D-02 0.157D-01
 Coeff:      0.143D-02 0.886D-03-0.422D-02-0.269D-01-0.265D-01-0.207D-01
 Coeff:      0.180D+00 0.894D+00
 Gap=     0.056 Goal=   None    Shift=    0.000
 RMSDP=7.58D-08 MaxDP=6.17D-06 DE= 3.84D-13 OVMax= 3.65D-07

 Cycle  21  Pass 1  IDiag  1:
 E= -103.949564519558     Delta-E=       -0.000000000002 Rises=F Damp=F
 DIIS: error= 1.14D-07 at cycle  21 NSaved=  20.
 NSaved=20 IEnMin=20 EnMin= -103.949564519558     IErMin=20 ErrMin= 1.14D-07
 ErrMax= 1.14D-07  0.00D+00 EMaxC= 1.00D-01 BMatC= 1.02D-12 BMatP= 1.43D-12
 IDIUse=1 WtCom= 1.00D+00 WtEn= 0.00D+00
 Large coefficients: NSaved= 20 BigCof=    0.00 CofMax=   10.00 Det=-3.76D-15
 Inversion failed.  Reducing to 19 matrices.
 Large coefficients: NSaved= 19 BigCof=    0.00 CofMax=   10.00 Det=-4.35D-15
 Inversion failed.  Reducing to 18 matrices.
 Large coefficients: NSaved= 18 BigCof=    0.00 CofMax=   10.00 Det=-4.47D-15
 Inversion failed.  Reducing to 17 matrices.
 Large coefficients: NSaved= 17 BigCof=    0.00 CofMax=   10.00 Det=-4.85D-15
 Inversion failed.  Reducing to 16 matrices.
 Large coefficients: NSaved= 16 BigCof=    0.00 CofMax=   10.00 Det=-4.98D-15
 Inversion failed.  Reducing to 15 matrices.
 Coeff-Com: -0.413D-05-0.108D-04-0.967D-04-0.405D-03 0.123D-02 0.413D-03
 Coeff-Com:  0.449D-04 0.175D-02 0.736D-03-0.886D-02-0.161D-01-0.334D-01
 Coeff-Com: -0.884D-01 0.420D+00 0.723D+00
 Coeff:     -0.413D-05-0.108D-04-0.967D-04-0.405D-03 0.123D-02 0.413D-03
 Coeff:      0.449D-04 0.175D-02 0.736D-03-0.886D-02-0.161D-01-0.334D-01
 Coeff:     -0.884D-01 0.420D+00 0.723D+00
 Gap=     0.056 Goal=   None    Shift=    0.000
 RMSDP=1.17D-07 MaxDP=9.40D-06 DE=-1.65D-12 OVMax= 5.56D-07

 Cycle  22  Pass 1  IDiag  1:
 E= -103.949564519559     Delta-E=       -0.000000000001 Rises=F Damp=F
 DIIS: error= 4.66D-09 at cycle  22 NSaved=  16.
 NSaved=16 IEnMin=16 EnMin= -103.949564519559     IErMin=16 ErrMin= 4.66D-09
 ErrMax= 4.66D-09  0.00D+00 EMaxC= 1.00D-01 BMatC= 2.68D-15 BMatP= 1.02D-12
 IDIUse=1 WtCom= 1.00D+00 WtEn= 0.00D+00
 Large coefficients: NSaved= 16 BigCof=    0.00 CofMax=   10.00 Det=-3.21D-15
 Inversion failed.  Reducing to 15 matrices.
 Coeff-Com: -0.528D-05-0.516D-04-0.211D-03-0.338D-03 0.743D-03 0.553D-03
 Coeff-Com:  0.207D-02 0.137D-02-0.545D-02-0.116D-01-0.268D-01-0.105D+00
 Coeff-Com:  0.171D+00 0.612D+00 0.362D+00
 Coeff:     -0.528D-05-0.516D-04-0.211D-03-0.338D-03 0.743D-03 0.553D-03
 Coeff:      0.207D-02 0.137D-02-0.545D-02-0.116D-01-0.268D-01-0.105D+00
 Coeff:      0.171D+00 0.612D+00 0.362D+00
 Gap=     0.056 Goal=   None    Shift=    0.000
 RMSDP=4.66D-09 MaxDP=6.48D-07 DE=-7.25D-13 OVMax= 1.05D-07

 SCF Done:  E(ROHF) =  -103.949564520     A.U. after   22 cycles
            NFock= 22  Conv=0.47D-08     -V/T= 2.8234
 <Sx>= 0.0000 <Sy>= 0.0000 <Sz>= 3.0000 <S**2>=12.0000 S= 3.0000
 <L.S>=  0.00000000000    
 KE= 5.700809842820D+01 PE=-2.505568361277D+02 EE= 8.298445804344D+01
 Annihilation of the first spin contaminant:
 S**2 before annihilation    12.0000,   after    12.0000
 Leave Link  502 at Sun Feb 25 22:33:28 2018, MaxMem=  8589934592 cpu:             971.3 elap:              68.3
 (Enter /home1/apps/gaussian/16rA.03/g16/l801.exe)
 Windowed orbitals will be sorted by symmetry type.
 GenMOA:  NOpAll=  4 NOp2=4 NOpUse=  4 JSym2X=1
 FoFJK:  IHMeth= 1 ICntrl=       0 DoSepK=F KAlg= 0 I1Cent=           0 FoldK=F
 IRaf=         0 NMat=       1 IRICut=       1 DoRegI=T DoRafI=F ISym2E= 1 IDoP0=0 IntGTp=1.
 FoFCou: FMM=F IPFlag=           8 FMFlag=      100000 FMFlg1=           0
         NFxFlg=           0 DoJE=F BraDBF=F KetDBF=F FulRan=T
         wScrn=  0.000000 ICntrl=         0 IOpCl=  1 I1Cent=           0 NGrid=           0
         NMat0=    1 NMatS0=      1 NMatT0=    0 NMatD0=    1 NMtDS0=    0 NMtDT0=    0
 Petite list used in FoFCou.
 <Sx>= 0.0000 <Sy>= 0.0000 <Sz>= 3.0000 <S**2>=12.0000 S= 3.0000
 Range of M.O.s used for correlation:     1   303
 NBasis=   310 NAE=    11 NBE=     5 NFC=     0 NFV=     0
 NROrb=    303 NOA=    11 NOB=     5 NVA=   292 NVB=   298

 **** Warning!!: The largest alpha MO coefficient is  0.10995014D+03


 **** Warning!!: The largest beta MO coefficient is  0.10954589D+03

 Singles contribution to E2=   -0.3323558235D-02
 Leave Link  801 at Sun Feb 25 22:33:47 2018, MaxMem=  8589934592 cpu:             307.2 elap:              19.2
 (Enter /home1/apps/gaussian/16rA.03/g16/l804.exe)
 Open-shell transformation, MDV=  8589934592 ITran=4 ISComp=2.
 Unit  1 TFree=       2917418 TCopy=       2119717.
 Semi-Direct transformation.
 ModeAB=           2 MOrb=            11 LenV=    8587056706
 LASXX=     38027501 LTotXX=    38027501 LenRXX=    38027501
 LTotAB=    38534382 MaxLAS=   269982999 LenRXY=   269982999
 NonZer=   275239140 LenScr=   414478336 LnRSAI=           0
 LnScr1=           0 LExtra=     9797603 Total=    732286439
 MaxDsk= 67108864000 SrtSym=           F ITran=            4
 DoSDTr:  NPSUse= 16
 JobTyp=1 Pass  1:  I=   1 to  11.
 (rs|ai) integrals will be sorted in core.
 Complete sort for first half transformation.
 First half transformation complete.
 Begin second half transformation for I=  10.
 Begin second half transformation for I=  10.
 Complete sort for second half transformation.
 Second half transformation complete.
 ModeAB=           2 MOrb=             5 LenV=    8587056706
 LASXX=     17582684 LTotXX=    17582684 LenRXX=   122719545
 LTotAB=    16519930 MaxLAS=   122719545 LenRXY=    16519930
 NonZer=   125108700 LenScr=   188424192 LnRSAI=           0
 LnScr1=           0 LExtra=   317808103 Total=    645471770
 MaxDsk= 67108864000 SrtSym=           F ITran=            4
 DoSDTr:  NPSUse= 16
 JobTyp=2 Pass  1:  I=   1 to   5.
 (rs|ai) integrals will be sorted in core.
 Complete sort for first half transformation.
 First half transformation complete.
 Complete sort for second half transformation.
 Second half transformation complete.
 Spin components of T(2) and E(2):
     alpha-alpha T2 =       0.2720974030D-01 E2=     -0.1626396421D+00
     alpha-beta  T2 =       0.5454708565D-01 E2=     -0.4116423374D+00
     beta-beta   T2 =       0.6691821116D-02 E2=     -0.4409200310D-01
 ANorm=    0.1044335286D+01
 E2 =    -0.6216975409D+00 EUMP2 =    -0.10457126206043D+03
 (S**2,0)=  0.12000D+02           (S**2,1)=  0.12000D+02
 E(PUHF)=      -0.10394956452D+03        E(PMP2)=      -0.10457126206D+03
 Recovering and transforming amplitudes from chk file.
 B after Tr=     0.000000    0.000000    0.000000
         Rot=    1.000000    0.000000    0.000000    0.000000 Ang=   0.00 deg.
 Alpha occ  Sing. vals= 9.999994D-01 9.999994D-01 9.999990D-01 9.999956D-01 9.999940D-01 9.999935D-01 9.999935D-01 9.999933D-01 9.999933D-01 9.999914D-01
 Alpha occ  Sing. vals= 9.999822D-01
 Alpha occ  NOrbO=    11 NOrbN=    11 NSVal=    11 ThrEig=  0.900000.
 TrMax= 1.000000D+00 PrMax= 1.000000D+00 Trace(Pr)= 1.100000D+01
 B after Tr=     0.000000    0.000000    0.000000
         Rot=    1.000000    0.000000    0.000000    0.000000 Ang=   0.00 deg.
 Alpha virt Sing. vals= 1.000000D+00 1.000000D+00 1.000000D+00 1.000000D+00 1.000000D+00 1.000000D+00 1.000000D+00 1.000000D+00 1.000000D+00 1.000000D+00
 Alpha virt Sing. vals= 1.000000D+00 1.000000D+00 1.000000D+00 1.000000D+00 1.000000D+00 1.000000D+00 1.000000D+00 1.000000D+00 1.000000D+00 1.000000D+00
 Alpha virt Sing. vals= 9.999999D-01 9.999999D-01 9.999999D-01 9.999999D-01 9.999999D-01 9.999998D-01 9.999997D-01 9.999996D-01 9.999996D-01 9.999995D-01
 Alpha virt Sing. vals= 9.999994D-01 9.999994D-01 9.999994D-01 9.999990D-01 9.999986D-01 9.999986D-01 9.999986D-01 9.999986D-01 9.999986D-01 9.999982D-01
 Alpha virt Sing. vals= 9.999976D-01 9.999976D-01 9.999974D-01 9.999965D-01 9.999965D-01 9.999965D-01 9.999954D-01 9.999944D-01 9.999944D-01 9.999942D-01
 Alpha virt Sing. vals= 9.999942D-01 9.999926D-01 9.999892D-01 9.999876D-01 9.999875D-01 9.999875D-01 9.999774D-01 9.999774D-01 9.999764D-01 9.999740D-01
 Alpha virt Sing. vals= 9.999740D-01 9.999739D-01 9.999739D-01 9.999737D-01 9.999585D-01 9.999387D-01 9.999387D-01 9.999275D-01 9.999184D-01 9.999158D-01
 Alpha virt Sing. vals= 9.999100D-01 9.999100D-01 9.999090D-01 9.999075D-01 9.999075D-01 9.998457D-01 9.998457D-01 9.998385D-01 9.998127D-01 9.998127D-01
 Alpha virt Sing. vals= 9.998050D-01 9.997939D-01 9.997939D-01 9.997922D-01 9.997922D-01 9.997827D-01 9.997826D-01 9.997826D-01 9.997460D-01 9.997460D-01
 Alpha virt Sing. vals= 9.996755D-01 9.996035D-01 9.995844D-01 9.995844D-01 9.995836D-01 9.995828D-01 9.995828D-01 9.995754D-01 9.995754D-01 9.995361D-01
 Alpha virt Sing. vals= 9.995361D-01 9.994944D-01 9.994873D-01 9.994873D-01 9.994858D-01 9.994858D-01 9.994330D-01 9.993240D-01 9.990081D-01 9.990081D-01
 Alpha virt Sing. vals= 9.987258D-01 9.986581D-01 9.986581D-01 9.985919D-01 9.985639D-01 9.985639D-01 9.983813D-01 9.983813D-01 9.979722D-01 9.979722D-01
 Alpha virt Sing. vals= 9.976898D-01 9.976320D-01 9.976320D-01 9.971357D-01 9.971357D-01 9.965758D-01 9.965758D-01 9.965741D-01 9.964546D-01 9.963249D-01
 Alpha virt Sing. vals= 9.960701D-01 9.960701D-01 9.959211D-01 9.959211D-01 9.958701D-01 9.958701D-01 9.958287D-01 9.952875D-01 9.951957D-01 9.951957D-01
 Alpha virt Sing. vals= 9.951917D-01 9.946301D-01 9.946301D-01 9.945687D-01 9.945687D-01 9.941134D-01 9.941134D-01 9.926179D-01 9.920412D-01 9.909159D-01
 Alpha virt Sing. vals= 9.909159D-01 9.862004D-01 9.862004D-01 9.858654D-01 9.844110D-01 9.844110D-01 9.841270D-01 9.821933D-01 9.821933D-01 9.812244D-01
 Alpha virt Sing. vals= 9.805490D-01 9.805490D-01 9.799688D-01 9.799688D-01 9.788539D-01 9.788539D-01 9.740579D-01 9.648019D-01 9.648019D-01 9.644496D-01
 Alpha virt Sing. vals= 9.644496D-01 9.615082D-01 9.535595D-01 9.535595D-01 9.515062D-01 9.465474D-01 9.419602D-01 9.373975D-01 9.373833D-01 9.373833D-01
 Alpha virt Sing. vals= 9.261731D-01 9.261731D-01 9.259329D-01 9.259329D-01 9.244486D-01 9.244486D-01 9.237261D-01 9.237261D-01 9.009792D-01 8.854885D-01
 Alpha virt Sing. vals= 8.721646D-01 8.721646D-01 8.518532D-01 8.518532D-01 8.469274D-01 8.469274D-01 8.326540D-01 7.970757D-01 7.970757D-01 6.549630D-01
 Alpha virt Sing. vals= 5.023638D-01
 Alpha virt NOrbO=   201 NOrbN=   292 NSVal=   189 ThrEig=  0.900000.
 TrMax= 9.980431D-01 PrMax= 9.998907D-01 Trace(Pr)= 1.890000D+02
 B after Tr=     0.000000    0.000000    0.000000
         Rot=    1.000000    0.000000    0.000000    0.000000 Ang=   0.00 deg.
 Beta  occ  Sing. vals= 9.999994D-01 9.999994D-01 9.999989D-01 9.999941D-01 9.999830D-01
 Beta  occ  NOrbO=     5 NOrbN=     5 NSVal=     5 ThrEig=  0.900000.
 TrMax= 1.000000D+00 PrMax= 1.000000D+00 Trace(Pr)= 5.000000D+00
 B after Tr=     0.000000    0.000000    0.000000
         Rot=    1.000000    0.000000    0.000000    0.000000 Ang=   0.00 deg.
 Beta  virt Sing. vals= 1.000000D+00 1.000000D+00 1.000000D+00 1.000000D+00 1.000000D+00 1.000000D+00 1.000000D+00 1.000000D+00 1.000000D+00 1.000000D+00
 Beta  virt Sing. vals= 1.000000D+00 1.000000D+00 1.000000D+00 1.000000D+00 1.000000D+00 1.000000D+00 1.000000D+00 1.000000D+00 1.000000D+00 1.000000D+00
 Beta  virt Sing. vals= 1.000000D+00 1.000000D+00 1.000000D+00 1.000000D+00 1.000000D+00 9.999999D-01 9.999999D-01 9.999999D-01 9.999999D-01 9.999999D-01
 Beta  virt Sing. vals= 9.999998D-01 9.999998D-01 9.999997D-01 9.999996D-01 9.999996D-01 9.999995D-01 9.999994D-01 9.999994D-01 9.999994D-01 9.999990D-01
 Beta  virt Sing. vals= 9.999986D-01 9.999986D-01 9.999986D-01 9.999986D-01 9.999985D-01 9.999982D-01 9.999976D-01 9.999976D-01 9.999974D-01 9.999965D-01
 Beta  virt Sing. vals= 9.999965D-01 9.999965D-01 9.999953D-01 9.999944D-01 9.999944D-01 9.999942D-01 9.999942D-01 9.999923D-01 9.999892D-01 9.999876D-01
 Beta  virt Sing. vals= 9.999873D-01 9.999873D-01 9.999774D-01 9.999774D-01 9.999764D-01 9.999740D-01 9.999740D-01 9.999739D-01 9.999739D-01 9.999736D-01
 Beta  virt Sing. vals= 9.999584D-01 9.999377D-01 9.999377D-01 9.999275D-01 9.999184D-01 9.999157D-01 9.999099D-01 9.999099D-01 9.999090D-01 9.999072D-01
 Beta  virt Sing. vals= 9.999072D-01 9.998453D-01 9.998453D-01 9.998384D-01 9.998126D-01 9.998126D-01 9.998050D-01 9.997939D-01 9.997939D-01 9.997922D-01
 Beta  virt Sing. vals= 9.997922D-01 9.997827D-01 9.997826D-01 9.997826D-01 9.997459D-01 9.997459D-01 9.996755D-01 9.996034D-01 9.995843D-01 9.995843D-01
 Beta  virt Sing. vals= 9.995836D-01 9.995828D-01 9.995828D-01 9.995752D-01 9.995752D-01 9.995361D-01 9.995361D-01 9.994940D-01 9.994873D-01 9.994873D-01
 Beta  virt Sing. vals= 9.994858D-01 9.994858D-01 9.994327D-01 9.993233D-01 9.990079D-01 9.990079D-01 9.987257D-01 9.986581D-01 9.986581D-01 9.985919D-01
 Beta  virt Sing. vals= 9.985614D-01 9.985614D-01 9.983812D-01 9.983812D-01 9.979720D-01 9.979720D-01 9.976897D-01 9.976320D-01 9.976320D-01 9.971357D-01
 Beta  virt Sing. vals= 9.971357D-01 9.965754D-01 9.965754D-01 9.965739D-01 9.964538D-01 9.963249D-01 9.960689D-01 9.960689D-01 9.959204D-01 9.959204D-01
 Beta  virt Sing. vals= 9.958701D-01 9.958701D-01 9.958286D-01 9.952875D-01 9.951957D-01 9.951957D-01 9.951917D-01 9.946301D-01 9.946301D-01 9.945687D-01
 Beta  virt Sing. vals= 9.945687D-01 9.941134D-01 9.941134D-01 9.926176D-01 9.920412D-01 9.909156D-01 9.909156D-01 9.862003D-01 9.862003D-01 9.858654D-01
 Beta  virt Sing. vals= 9.844110D-01 9.844110D-01 9.841270D-01 9.821933D-01 9.821933D-01 9.812237D-01 9.805489D-01 9.805489D-01 9.799687D-01 9.799687D-01
 Beta  virt Sing. vals= 9.788539D-01 9.788539D-01 9.740575D-01 9.648019D-01 9.648019D-01 9.644491D-01 9.644491D-01 9.615080D-01 9.535595D-01 9.535595D-01
 Beta  virt Sing. vals= 9.515060D-01 9.465475D-01 9.419602D-01 9.373975D-01 9.373833D-01 9.373833D-01 9.261731D-01 9.261731D-01 9.259329D-01 9.259329D-01
 Beta  virt Sing. vals= 9.244486D-01 9.244486D-01 9.237260D-01 9.237260D-01 9.009792D-01 8.854884D-01 8.721643D-01 8.721643D-01 8.518532D-01 8.518532D-01
 Beta  virt Sing. vals= 8.469274D-01 8.469274D-01 8.326538D-01 7.970757D-01 7.970757D-01 6.549625D-01 5.023640D-01
 Beta  virt NOrbO=   207 NOrbN=   298 NSVal=   195 ThrEig=  0.900000.
 TrMax= 9.976920D-01 PrMax= 9.998907D-01 Trace(Pr)= 1.950000D+02
 Leave Link  804 at Sun Feb 25 22:41:50 2018, MaxMem=  8589934592 cpu:            7723.7 elap:             483.2
 (Enter /home1/apps/gaussian/16rA.03/g16/l913.exe)
 CIDS:  MDV=  8589934592.
 IFCWin=0 IBDFC=1 NFBD=     0     0 NFCmp=     0     0 NFFFC=     0     0
 Amplitudes recovered.
 Using DD4UQ or CC4UQ for all iterations.
 Keep R2 and R3 ints in memory in symmetry-blocked form, NReq=1456566738.
 FoFCou: FMM=F IPFlag=           8 FMFlag=           0 FMFlg1=           0
         NFxFlg=           0 DoJE=F BraDBF=F KetDBF=F FulRan=T
         wScrn=  0.000000 ICntrl=       600 IOpCl=  0 I1Cent=           0 NGrid=           0
         NMat0=    1 NMatS0=  48205 NMatT0=    0 NMatD0=    1 NMtDS0=    0 NMtDT0=    0
 Petite list used in FoFCou.
 CIDS: In Core Option IDoMem=           1.
 CCSD(T)
 =======
 Iterations= 150 Convergence= 0.100D-06
 Produce multiple copies of IABC intergrals
 Iteration Nr.   1
 **********************
 DD1Dir will call FoFMem   1 times, MxPair=       176
 NAB=    55 NAA=    55 NBB=    10.
 Maximum subspace dimension=  5
 A-vector RMS=  1.1335421D-04 Max=  1.0006298D-03 conv= 1.00D-05.
 RLE energy=       -0.6221236709
 DE(Corr)= -0.62212787     E(Corr)=     -104.57169239    
 NORM(A)=   0.10604842D+01
 Iteration Nr.   2
 **********************
 DD1Dir will call FoFMem   1 times, MxPair=       176
 NAB=    55 NAA=    55 NBB=    10.
 A-vector RMS=  4.0469674D-05 Max=  6.2984356D-04 conv= 1.00D-05.
 RLE energy=       -0.6223753759
 DE(Corr)= -0.62236969     E(CORR)=     -104.57193421     Delta=-2.42D-04
 NORM(A)=   0.10607073D+01
 Iteration Nr.   3
 **********************
 DD1Dir will call FoFMem   1 times, MxPair=       176
 NAB=    55 NAA=    55 NBB=    10.
 A-vector RMS=  2.4568738D-05 Max=  2.7793120D-04 conv= 1.00D-05.
 RLE energy=       -0.6224579400
 DE(Corr)= -0.62244548     E(CORR)=     -104.57201000     Delta=-7.58D-05
 NORM(A)=   0.10608103D+01
 Iteration Nr.   4
 **********************
 DD1Dir will call FoFMem   1 times, MxPair=       176
 NAB=    55 NAA=    55 NBB=    10.
 A-vector RMS=  1.5371794D-05 Max=  2.2843633D-04 conv= 1.00D-05.
 RLE energy=       -0.6224609524
 DE(Corr)= -0.62245031     E(CORR)=     -104.57201483     Delta=-4.84D-06
 NORM(A)=   0.10609200D+01
 Iteration Nr.   5
 **********************
 DD1Dir will call FoFMem   1 times, MxPair=       176
 NAB=    55 NAA=    55 NBB=    10.
 A-vector RMS=  8.6768367D-06 Max=  1.1497301D-04 conv= 1.00D-05.
 RLE energy=       -0.6224868350
 DE(Corr)= -0.62247475     E(CORR)=     -104.57203927     Delta=-2.44D-05
 NORM(A)=   0.10610387D+01
 Iteration Nr.   6
 **********************
 DD1Dir will call FoFMem   1 times, MxPair=       176
 NAB=    55 NAA=    55 NBB=    10.
 A-vector RMS=  2.9875359D-06 Max=  3.1005111D-05 conv= 1.00D-05.
 RLE energy=       -0.6224986224
 DE(Corr)= -0.62249244     E(CORR)=     -104.57205696     Delta=-1.77D-05
 NORM(A)=   0.10610711D+01
 Iteration Nr.   7
 **********************
 DD1Dir will call FoFMem   1 times, MxPair=       176
 NAB=    55 NAA=    55 NBB=    10.
 A-vector RMS=  1.1984354D-06 Max=  1.1696930D-05 conv= 1.00D-05.
 RLE energy=       -0.6224987853
 DE(Corr)= -0.62249758     E(CORR)=     -104.57206210     Delta=-5.14D-06
 NORM(A)=   0.10610810D+01
 Iteration Nr.   8
 **********************
 DD1Dir will call FoFMem   1 times, MxPair=       176
 NAB=    55 NAA=    55 NBB=    10.
 A-vector RMS=  4.2195016D-07 Max=  5.7318593D-06 conv= 1.00D-05.
 RLE energy=       -0.6225001126
 DE(Corr)= -0.62249982     E(CORR)=     -104.57206434     Delta=-2.23D-06
 NORM(A)=   0.10610831D+01
 Iteration Nr.   9
 **********************
 DD1Dir will call FoFMem   1 times, MxPair=       176
 NAB=    55 NAA=    55 NBB=    10.
 A-vector RMS=  1.6309269D-07 Max=  2.1162526D-06 conv= 1.00D-05.
 RLE energy=       -0.6224999796
 DE(Corr)= -0.62249992     E(CORR)=     -104.57206444     Delta=-9.89D-08
 NORM(A)=   0.10610835D+01
 CI/CC converged in    9 iterations to DelEn=-9.89D-08 Conv= 1.00D-07 ErrA1= 1.63D-07 Conv= 1.00D-05
 Wavefunction amplitudes converged. E(Corr)=     -104.57206444    
 Largest amplitude= 7.81D-02
 Time for triples=    17773.25 seconds.
 T4(CCSD)= -0.19123632D-01
 T5(CCSD)=  0.11470176D-02
 CCSD(T)= -0.10459004105D+03
 Discarding MO integrals.
 Leave Link  913 at Sun Feb 25 23:04:28 2018, MaxMem=  8589934592 cpu:           21692.4 elap:            1357.6
 (Enter /home1/apps/gaussian/16rA.03/g16/l601.exe)
 Copying SCF densities to generalized density rwf, IOpCl= 0 IROHF=1.

 **********************************************************************

            Population analysis using the SCF density.

 **********************************************************************

 Orbital symmetries:
       Occupied  (SG) (SG) (PI) (PI) (SG) (SG) (PI) (PI) (DLTA)
                 (DLTA) (SG)
       Virtual   (PI) (PI) (SG) (SG) (SG) (DLTA) (DLTA) (PI) (PI)
                 (PI) (PI) (SG) (SG) (SG) (PI) (PI) (DLTA) (DLTA)
                 (PI) (PI) (SG) (SG) (PI) (PI) (SG) (DLTA) (DLTA)
                 (PHI) (PHI) (SG) (PI) (PI) (SG) (DLTA) (DLTA)
                 (PI) (PI) (SG) (PI) (PI) (SG) (PI) (PI) (SG) (DLTA)
                 (DLTA) (SG) (PI) (PI) (SG) (DLTA) (DLTA) (PI)
                 (PI) (PHI) (PHI) (?A) (?A) (DLTA) (DLTA) (PHI)
                 (PHI) (SG) (PI) (PI) (SG) (SG) (DLTA) (DLTA) (PI)
                 (PI) (PI) (PI) (PHI) (PHI) (SG) (DLTA) (DLTA)
                 (SG) (PI) (PI) (SG) (SG) (PI) (PI) (DLTA) (DLTA)
                 (DLTA) (DLTA) (SG) (PI) (PI) (SG) (PI) (PI) (SG)
                 (PHI) (PHI) (DLTA) (DLTA) (?B) (?B) (PHI) (PHI)
                 (?A) (?A) (?A) (?A) (PI) (PI) (DLTA) (DLTA) (PHI)
                 (PHI) (SG) (PI) (PI) (SG) (DLTA) (DLTA) (PI) (PI)
                 (SG) (PI) (PI) (SG) (SG) (PHI) (PHI) (DLTA) (DLTA)
                 (PI) (PI) (SG) (SG) (DLTA) (DLTA) (PI) (PI) (SG)
                 (DLTA) (DLTA) (PI) (PI) (PI) (PI) (SG) (PHI) (PHI)
                 (DLTA) (DLTA) (SG) (PI) (PI) (?A) (?A) (PHI) (PHI)
                 (DLTA) (DLTA) (SG) (PI) (PI) (?B) (?B) (?A) (?A)
                 (PHI) (PHI) (DLTA) (DLTA) (SG) (PI) (PI) (SG)
                 (PI) (PI) (DLTA) (DLTA) (SG) (PI) (PI) (SG) (SG)
                 (DLTA) (DLTA) (PI) (PI) (SG) (PHI) (PHI) (DLTA)
                 (DLTA) (PI) (PI) (SG) (?A) (?A) (PHI) (PHI) (DLTA)
                 (DLTA) (PI) (PI) (SG) (SG) (PI) (PI) (SG) (SG)
                 (?B) (?B) (?A) (?A) (PHI) (PHI) (DLTA) (DLTA)
                 (PI) (PI) (SG) (DLTA) (DLTA) (PI) (PI) (SG) (SG)
                 (PI) (PI) (SG) (DLTA) (DLTA) (PI) (PI) (SG) (SG)
                 (PI) (PI) (SG) (SG) (DLTA) (DLTA) (PI) (PI) (SG)
                 (SG) (PI) (PI) (SG) (SG) (DLTA) (DLTA) (PI) (PI)
                 (SG) (PI) (PI) (SG) (SG) (PI) (PI) (SG) (DLTA)
                 (DLTA) (PI) (PI) (SG) (SG) (PI) (PI) (SG) (SG)
                 (PI) (PI) (SG) (SG) (PI) (PI) (SG) (SG) (PI) (PI)
                 (SG) (SG) (PI) (PI) (SG) (SG) (SG) (SG) (SG) (SG)
 The electronic state is 7-SG.
 Alpha  occ. eigenvalues --   -4.23600  -2.79677  -2.78749  -2.78749  -0.68202
 Alpha  occ. eigenvalues --   -0.63692  -0.63692  -0.63562  -0.63562  -0.41119
 Alpha  occ. eigenvalues --   -0.23621
 Alpha virt. eigenvalues --    0.01296   0.01296   0.01894   0.03193   0.05127
 Alpha virt. eigenvalues --    0.05127   0.05738   0.05829   0.05829   0.06150
 Alpha virt. eigenvalues --    0.06150   0.08187   0.14019   0.15483   0.17795
 Alpha virt. eigenvalues --    0.17795   0.18578   0.18578   0.18964   0.18964
 Alpha virt. eigenvalues --    0.19796   0.27951   0.28817   0.28817   0.32802
 Alpha virt. eigenvalues --    0.46879   0.46879   0.47242   0.47242   0.47714
 Alpha virt. eigenvalues --    0.49988   0.49988   0.50870   0.50870   0.51355
 Alpha virt. eigenvalues --    0.57204   0.57204   0.61432   0.62017   0.62017
 Alpha virt. eigenvalues --    0.67557   0.77601   0.77601   0.78569   0.80995
 Alpha virt. eigenvalues --    0.80995   1.07743   1.19299   1.19299   1.23639
 Alpha virt. eigenvalues --    1.34155   1.34155   1.39365   1.39365   1.43157
 Alpha virt. eigenvalues --    1.43157   1.44921   1.44921   1.46198   1.46198
 Alpha virt. eigenvalues --    1.46471   1.46471   1.47975   1.63598   1.63598
 Alpha virt. eigenvalues --    1.63940   1.65800   1.71603   1.71603   1.78767
 Alpha virt. eigenvalues --    1.78767   1.89895   1.89895   1.91425   1.91425
 Alpha virt. eigenvalues --    1.96191   2.03427   2.03427   2.05380   2.24279
 Alpha virt. eigenvalues --    2.24279   2.61980   2.68988   3.15458   3.15458
 Alpha virt. eigenvalues --    3.17901   3.17901   3.23776   3.23776   3.32197
 Alpha virt. eigenvalues --    3.34055   3.34055   3.59267   3.63090   3.63090
 Alpha virt. eigenvalues --    3.75336   3.94806   3.94806   3.98638   3.98638
 Alpha virt. eigenvalues --    4.25798   4.25798   4.26545   4.26545   4.26680
 Alpha virt. eigenvalues --    4.26680   4.26686   4.26686   4.27956   4.27956
 Alpha virt. eigenvalues --    4.41876   4.41876   4.52303   4.52303   4.56472
 Alpha virt. eigenvalues --    4.85003   4.85003   4.99341   5.14116   5.14116
 Alpha virt. eigenvalues --    5.15844   5.15844   5.42888   5.89096   5.89096
 Alpha virt. eigenvalues --    5.92544   6.68742   6.81025   6.81025   7.00486
 Alpha virt. eigenvalues --    7.00486   7.09892   7.09892   7.16544   7.71762
 Alpha virt. eigenvalues --    7.74553   7.74553   7.85563   7.85563   8.28290
 Alpha virt. eigenvalues --    8.82892   8.82892   9.13651   9.13651   9.42518
 Alpha virt. eigenvalues --    9.42518   9.44731   9.94205   9.94205  10.12072
 Alpha virt. eigenvalues --   10.12072  10.26969  11.18985  11.18985  11.19002
 Alpha virt. eigenvalues --   11.19002  11.22111  11.22111  11.42128  11.42128
 Alpha virt. eigenvalues --   11.72145  11.86705  11.86705  11.88292  11.88292
 Alpha virt. eigenvalues --   11.88778  11.88778  11.99571  11.99571  12.18719
 Alpha virt. eigenvalues --   12.18719  12.69358  12.86923  12.86923  12.91927
 Alpha virt. eigenvalues --   13.14557  13.14557  13.63862  13.63862  13.80617
 Alpha virt. eigenvalues --   13.81426  13.81426  14.81911  16.01273  24.90030
 Alpha virt. eigenvalues --   24.90030  25.01588  25.01588  25.27449  25.32439
 Alpha virt. eigenvalues --   25.32439  25.40629  25.40629  26.08171  26.08171
 Alpha virt. eigenvalues --   26.59400  27.14075  27.14075  27.15432  27.15432
 Alpha virt. eigenvalues --   27.26413  27.26413  27.49077  27.49077  27.56047
 Alpha virt. eigenvalues --   28.48317  29.05775  29.05775  29.77981  30.14198
 Alpha virt. eigenvalues --   30.63687  30.63687  30.63688  30.63688  30.68693
 Alpha virt. eigenvalues --   30.68693  30.76783  30.76783  30.95799  30.95799
 Alpha virt. eigenvalues --   31.32959  43.47668  43.47668  43.58776  43.58776
 Alpha virt. eigenvalues --   43.87658  55.21069  60.39822  60.39822  61.01917
 Alpha virt. eigenvalues --   77.53104  77.53104  77.63003  77.63003  77.88466
 Alpha virt. eigenvalues --  106.02100 121.21666 121.21666 121.77166 164.14757
 Alpha virt. eigenvalues --  164.49964 164.49964 164.58043 164.58043 164.80473
 Alpha virt. eigenvalues --  207.18780 238.74915 238.74915 239.26878 412.00571
 Alpha virt. eigenvalues --  422.93424 422.93424 422.99511 422.99511 423.16055
 Alpha virt. eigenvalues --  472.05490 472.05490 472.54019 835.92044 954.98267
 Alpha virt. eigenvalues --  954.98267 955.430721345.107951345.107951345.14799
 Alpha virt. eigenvalues -- 1345.147991345.258131734.533422011.250232011.25023
 Alpha virt. eigenvalues -- 2011.658373700.728814498.009914498.009914498.37432
 Alpha virt. eigenvalues -- 8178.02920****************************************
 Alpha virt. eigenvalues -- **************************************************
 Alpha virt. eigenvalues -- **************************************************
 Alpha virt. eigenvalues -- ********************
     Molecular Orbital Coefficients:
                           1         2         3         4         5
                           O         O         O         O         O
     Eigenvalues --    -4.23600  -2.79677  -2.78749  -2.78749  -0.68202
   1 1   Mn 1S         -0.00000  -0.00000   0.00000   0.00000  -0.00000
   2        2S          0.00000   0.00000   0.00000   0.00000   0.00000
   3        3S         -0.00000  -0.00000   0.00000   0.00000  -0.00000
   4        4S          0.00000   0.00000   0.00000   0.00000   0.00000
   5        5S         -0.00001  -0.00000   0.00000   0.00000  -0.00000
   6        6S          0.00002   0.00000   0.00000   0.00000   0.00000
   7        7S         -0.00009  -0.00000   0.00000   0.00000  -0.00002
   8        8S          0.00029   0.00000   0.00000   0.00000   0.00006
   9        9S         -0.00087  -0.00001   0.00000   0.00000  -0.00017
  10       10S          0.00244   0.00003   0.00000   0.00000   0.00047
  11       11S         -0.00636  -0.00009   0.00000   0.00000  -0.00124
  12       12S          0.01495   0.00021   0.00000   0.00000   0.00296
  13       13S         -0.02970  -0.00044   0.00000   0.00000  -0.00611
  14       14S          0.03836   0.00080   0.00000   0.00000   0.00974
  15       15S          0.17398   0.00042   0.00000   0.00000   0.02456
  16       16S         -0.98956  -0.00255   0.00000   0.00000  -0.18579
  17       17S          1.12387   0.00349   0.00000   0.00000   0.20605
  18       18S          1.92790   0.00388   0.00000   0.00000   0.43187
  19       19S          0.09832  -0.00295   0.00000   0.00000   0.10988
  20       20S         -0.11366   0.02902   0.00000   0.00000  -0.20074
  21       21S         -0.02110   0.01695   0.00000   0.00000  -0.05958
  22       22S         -0.01378  -0.00074   0.00000   0.00000  -0.01395
  23       23S          0.08942  -0.00406   0.00000   0.00000   0.02508
  24       24S         -1.62019   0.00505   0.00000   0.00000  -0.31186
  25       25S         -0.00415  -0.00067   0.00000   0.00000   0.00386
  26       26PX         0.00000   0.00000   0.00000   0.00000   0.00000
  27       26PY         0.00000   0.00000   0.00000   0.00000   0.00000
  28       26PZ         0.00000   0.00000   0.00000   0.00000  -0.00000
  29       27PX         0.00000   0.00000  -0.00000   0.00000   0.00000
  30       27PY         0.00000   0.00000   0.00000  -0.00000   0.00000
  31       27PZ        -0.00000  -0.00000   0.00000   0.00000   0.00000
  32       28PX         0.00000   0.00000   0.00002   0.00000   0.00000
  33       28PY         0.00000   0.00000   0.00000   0.00002   0.00000
  34       28PZ         0.00000   0.00002   0.00000   0.00000  -0.00000
  35       29PX         0.00000   0.00000  -0.00009   0.00000   0.00000
  36       29PY         0.00000   0.00000   0.00000  -0.00009   0.00000
  37       29PZ        -0.00000  -0.00009   0.00000   0.00000   0.00002
  38       30PX         0.00000   0.00000   0.00033   0.00000   0.00000
  39       30PY         0.00000   0.00000   0.00000   0.00033   0.00000
  40       30PZ         0.00001   0.00033   0.00000   0.00000  -0.00006
  41       31PX         0.00000   0.00000  -0.00110   0.00000   0.00000
  42       31PY         0.00000   0.00000   0.00000  -0.00110   0.00000
  43       31PZ        -0.00004  -0.00107   0.00000   0.00000   0.00021
  44       32PX         0.00000   0.00000   0.00328   0.00000   0.00000
  45       32PY         0.00000   0.00000   0.00000   0.00328   0.00000
  46       32PZ         0.00011   0.00322   0.00000   0.00000  -0.00062
  47       33PX         0.00000   0.00000  -0.00894   0.00000   0.00000
  48       33PY         0.00000   0.00000   0.00000  -0.00894   0.00000
  49       33PZ        -0.00030  -0.00877   0.00000   0.00000   0.00171
  50       34PX         0.00000   0.00000   0.02042   0.00000   0.00000
  51       34PY         0.00000   0.00000   0.00000   0.02042   0.00000
  52       34PZ         0.00075   0.02001   0.00000   0.00000  -0.00404
  53       35PX         0.00000   0.00000  -0.01623   0.00000   0.00000
  54       35PY         0.00000   0.00000   0.00000  -0.01623   0.00000
  55       35PZ        -0.00199  -0.01547   0.00000   0.00000   0.00380
  56       36PX         0.00000   0.00000  -0.05430   0.00000   0.00000
  57       36PY         0.00000   0.00000   0.00000  -0.05430   0.00000
  58       36PZ        -0.01147  -0.05381   0.00000   0.00000   0.00814
  59       37PX         0.00000   0.00000   0.24191   0.00000   0.00000
  60       37PY         0.00000   0.00000   0.00000   0.24191   0.00000
  61       37PZ        -0.00644   0.24318   0.00000   0.00000  -0.05155
  62       38PX         0.00000   0.00000   0.19103   0.00000   0.00000
  63       38PY         0.00000   0.00000   0.00000   0.19103   0.00000
  64       38PZ         0.01098   0.18724   0.00000   0.00000  -0.03958
  65       39PX         0.00000   0.00000   0.40093   0.00000   0.00000
  66       39PY         0.00000   0.00000   0.00000   0.40093   0.00000
  67       39PZ        -0.02799   0.40371   0.00000   0.00000  -0.09723
  68       40PX         0.00000   0.00000   0.14718   0.00000   0.00000
  69       40PY         0.00000   0.00000   0.00000   0.14718   0.00000
  70       40PZ         0.05584   0.14273   0.00000   0.00000  -0.02440
  71       41PX         0.00000   0.00000   0.01528   0.00000   0.00000
  72       41PY         0.00000   0.00000   0.00000   0.01528   0.00000
  73       41PZ         0.07559  -0.00060   0.00000   0.00000   0.08837
  74       42PX         0.00000   0.00000  -0.00484   0.00000   0.00000
  75       42PY         0.00000   0.00000   0.00000  -0.00484   0.00000
  76       42PZ         0.01164  -0.01253   0.00000   0.00000   0.05084
  77       43PX         0.00000   0.00000   0.00155   0.00000   0.00000
  78       43PY         0.00000   0.00000   0.00000   0.00155   0.00000
  79       43PZ         0.00474   0.00305   0.00000   0.00000   0.01617
  80       44PX         0.00000   0.00000  -0.06397   0.00000   0.00000
  81       44PY         0.00000   0.00000   0.00000  -0.06397   0.00000
  82       44PZ         0.01508  -0.06503   0.00000   0.00000   0.01389
  83       45PX         0.00000   0.00000   0.19107   0.00000   0.00000
  84       45PY         0.00000   0.00000   0.00000   0.19107   0.00000
  85       45PZ        -0.00161   0.18795   0.00000   0.00000  -0.04156
  86       46PX         0.00000   0.00000  -0.00050   0.00000   0.00000
  87       46PY         0.00000   0.00000   0.00000  -0.00050   0.00000
  88       46PZ         0.00151  -0.00021   0.00000   0.00000   0.00022
  89       47D 0        0.00000  -0.00000   0.00000   0.00000   0.00003
  90       47D+1        0.00000   0.00000   0.00000   0.00000   0.00000
  91       47D-1        0.00000   0.00000   0.00000   0.00000   0.00000
  92       47D+2       -0.00000   0.00000   0.00000   0.00000   0.00000
  93       47D-2        0.00000   0.00000   0.00000   0.00000   0.00000
  94       48D 0       -0.00001   0.00001   0.00000   0.00000  -0.00028
  95       48D+1        0.00000   0.00000  -0.00000   0.00000   0.00000
  96       48D-1        0.00000   0.00000   0.00000  -0.00000   0.00000
  97       48D+2        0.00000  -0.00000   0.00000   0.00000  -0.00000
  98       48D-2        0.00000   0.00000   0.00000   0.00000   0.00000
  99       49D 0        0.00006  -0.00006   0.00000   0.00000   0.00194
 100       49D+1        0.00000   0.00000   0.00002   0.00000   0.00000
 101       49D-1        0.00000   0.00000   0.00000   0.00002   0.00000
 102       49D+2       -0.00000   0.00000   0.00000   0.00000   0.00000
 103       49D-2        0.00000   0.00000   0.00000   0.00000   0.00000
 104       50D 0       -0.00035   0.00038   0.00000   0.00000  -0.01219
 105       50D+1        0.00000   0.00000  -0.00010   0.00000   0.00000
 106       50D-1        0.00000   0.00000   0.00000  -0.00010   0.00000
 107       50D+2       -0.00000  -0.00000   0.00000   0.00000  -0.00000
 108       50D-2        0.00000   0.00000   0.00000   0.00000   0.00000
 109       51D 0        0.00173   0.00100   0.00000   0.00000  -0.07296
 110       51D+1        0.00000   0.00000  -0.00080   0.00000   0.00000
 111       51D-1        0.00000   0.00000   0.00000  -0.00080   0.00000
 112       51D+2        0.00000   0.00000   0.00000   0.00000   0.00000
 113       51D-2        0.00000   0.00000   0.00000   0.00000   0.00000
 114       52D 0        0.02054  -0.00290   0.00000   0.00000  -0.16860
 115       52D+1        0.00000   0.00000  -0.00284   0.00000   0.00000
 116       52D-1        0.00000   0.00000   0.00000  -0.00284   0.00000
 117       52D+2        0.00000   0.00000   0.00000   0.00000   0.00000
 118       52D-2        0.00000   0.00000   0.00000   0.00000   0.00000
 119       53D 0        0.01443  -0.00085   0.00000   0.00000  -0.11402
 120       53D+1        0.00000   0.00000  -0.00183   0.00000   0.00000
 121       53D-1        0.00000   0.00000   0.00000  -0.00183   0.00000
 122       53D+2        0.00000   0.00000   0.00000   0.00000   0.00000
 123       53D-2        0.00000   0.00000   0.00000   0.00000   0.00000
 124       54D 0       -0.01501  -0.00143   0.00000   0.00000  -0.08945
 125       54D+1        0.00000   0.00000  -0.00013   0.00000   0.00000
 126       54D-1        0.00000   0.00000   0.00000  -0.00013   0.00000
 127       54D+2       -0.00000  -0.00000   0.00000   0.00000  -0.00000
 128       54D-2        0.00000   0.00000   0.00000   0.00000   0.00000
 129       55D 0       -0.03291   0.00990   0.00000   0.00000  -0.07983
 130       55D+1        0.00000   0.00000   0.00191   0.00000   0.00000
 131       55D-1        0.00000   0.00000   0.00000   0.00191   0.00000
 132       55D+2       -0.00000   0.00000   0.00000   0.00000   0.00000
 133       55D-2        0.00000   0.00000   0.00000   0.00000   0.00000
 134       56D 0       -0.01349   0.00673   0.00000   0.00000  -0.02753
 135       56D+1        0.00000   0.00000   0.00106   0.00000   0.00000
 136       56D-1        0.00000   0.00000   0.00000   0.00106   0.00000
 137       56D+2       -0.00000   0.00000   0.00000   0.00000   0.00000
 138       56D-2        0.00000   0.00000   0.00000   0.00000   0.00000
 139       57D 0        0.00131   0.00176   0.00000   0.00000  -0.00256
 140       57D+1        0.00000   0.00000   0.00044   0.00000   0.00000
 141       57D-1        0.00000   0.00000   0.00000   0.00044   0.00000
 142       57D+2        0.00000  -0.00000   0.00000   0.00000  -0.00000
 143       57D-2        0.00000   0.00000   0.00000   0.00000   0.00000
 144       58D 0       -0.00903   0.00136   0.00000   0.00000   0.07644
 145       58D+1        0.00000   0.00000   0.00127   0.00000   0.00000
 146       58D-1        0.00000   0.00000   0.00000   0.00127   0.00000
 147       58D+2       -0.00000  -0.00000   0.00000   0.00000  -0.00000
 148       58D-2        0.00000   0.00000   0.00000   0.00000   0.00000
 149       59D 0       -0.02396   0.00567   0.00000   0.00000   0.06853
 150       59D+1        0.00000   0.00000   0.00193   0.00000   0.00000
 151       59D-1        0.00000   0.00000   0.00000   0.00193   0.00000
 152       59D+2       -0.00000  -0.00000   0.00000   0.00000  -0.00000
 153       59D-2        0.00000   0.00000   0.00000   0.00000   0.00000
 154       60D 0       -0.00097  -0.00040   0.00000   0.00000  -0.00055
 155       60D+1        0.00000   0.00000  -0.00002   0.00000   0.00000
 156       60D-1        0.00000   0.00000   0.00000  -0.00002   0.00000
 157       60D+2        0.00000   0.00000   0.00000   0.00000   0.00000
 158       60D-2        0.00000   0.00000   0.00000   0.00000   0.00000
 159       61F 0        0.00028   0.00007   0.00000   0.00000   0.00053
 160       61F+1        0.00000   0.00000  -0.00005   0.00000   0.00000
 161       61F-1        0.00000   0.00000   0.00000  -0.00005   0.00000
 162       61F+2       -0.00000   0.00000   0.00000   0.00000   0.00000
 163       61F-2        0.00000   0.00000   0.00000   0.00000   0.00000
 164       61F+3        0.00000   0.00000   0.00000   0.00000   0.00000
 165       61F-3        0.00000   0.00000   0.00000   0.00000   0.00000
 166       62F 0       -0.00098  -0.00025   0.00000   0.00000   0.00160
 167       62F+1        0.00000   0.00000  -0.00003   0.00000   0.00000
 168       62F-1        0.00000   0.00000   0.00000  -0.00003   0.00000
 169       62F+2       -0.00000   0.00000   0.00000   0.00000  -0.00000
 170       62F-2        0.00000   0.00000   0.00000   0.00000   0.00000
 171       62F+3        0.00000   0.00000   0.00000   0.00000   0.00000
 172       62F-3        0.00000   0.00000   0.00000   0.00000   0.00000
 173       63F 0        0.00243   0.00161   0.00000   0.00000   0.00655
 174       63F+1        0.00000   0.00000  -0.00072   0.00000   0.00000
 175       63F-1        0.00000   0.00000   0.00000  -0.00072   0.00000
 176       63F+2       -0.00000   0.00000   0.00000   0.00000   0.00000
 177       63F-2        0.00000   0.00000   0.00000   0.00000   0.00000
 178       63F+3        0.00000   0.00000   0.00000   0.00000   0.00000
 179       63F-3        0.00000   0.00000   0.00000   0.00000   0.00000
 180       64F 0        0.01332  -0.00339   0.00000   0.00000   0.01211
 181       64F+1        0.00000   0.00000  -0.00188   0.00000   0.00000
 182       64F-1        0.00000   0.00000   0.00000  -0.00188   0.00000
 183       64F+2        0.00000  -0.00000   0.00000   0.00000  -0.00000
 184       64F-2        0.00000   0.00000   0.00000   0.00000   0.00000
 185       64F+3        0.00000   0.00000  -0.00000   0.00000   0.00000
 186       64F-3        0.00000   0.00000   0.00000  -0.00000   0.00000
 187       65F 0        0.00291  -0.00145   0.00000   0.00000   0.00271
 188       65F+1        0.00000   0.00000  -0.00021   0.00000   0.00000
 189       65F-1        0.00000   0.00000   0.00000  -0.00021   0.00000
 190       65F+2       -0.00000  -0.00000   0.00000   0.00000  -0.00000
 191       65F-2        0.00000   0.00000   0.00000   0.00000   0.00000
 192       65F+3        0.00000   0.00000  -0.00000   0.00000   0.00000
 193       65F-3        0.00000   0.00000   0.00000  -0.00000   0.00000
 194       66G 0       -0.00016   0.00006   0.00000   0.00000   0.00003
 195       66G+1        0.00000   0.00000   0.00001   0.00000   0.00000
 196       66G-1        0.00000   0.00000   0.00000   0.00001   0.00000
 197       66G+2        0.00000  -0.00000   0.00000   0.00000  -0.00000
 198       66G-2        0.00000   0.00000   0.00000   0.00000   0.00000
 199       66G+3        0.00000   0.00000   0.00000   0.00000   0.00000
[...]
  93       47D-2       -0.00000  -0.00000   0.00000  -0.00000
  94       48D 0        0.00003   0.00003   0.00000   0.00003
  95       48D+1        0.00003   0.00003   0.00000   0.00003
  96       48D-1        0.00003   0.00003   0.00000   0.00003
  97       48D+2        0.00003   0.00003  -0.00000   0.00003
  98       48D-2        0.00003   0.00003   0.00000   0.00003
  99       49D 0       -0.00090  -0.00083  -0.00008  -0.00075
 100       49D+1       -0.00092  -0.00092  -0.00000  -0.00092
 101       49D-1       -0.00092  -0.00092  -0.00000  -0.00092
 102       49D+2       -0.00092  -0.00092  -0.00000  -0.00092
 103       49D-2       -0.00092  -0.00092  -0.00000  -0.00092
 104       50D 0        0.01384   0.01269   0.00115   0.01154
 105       50D+1        0.01417   0.01417   0.00000   0.01417
 106       50D-1        0.01417   0.01417   0.00000   0.01417
 107       50D+2        0.01420   0.01420  -0.00000   0.01420
 108       50D-2        0.01420   0.01420  -0.00000   0.01420
 109       51D 0        0.14480   0.13250   0.01230   0.12020
 110       51D+1        0.14621   0.14621   0.00000   0.14621
 111       51D-1        0.14621   0.14621   0.00000   0.14621
 112       51D+2        0.14609   0.14609  -0.00000   0.14609
 113       51D-2        0.14609   0.14609   0.00000   0.14609
 114       52D 0        0.47359   0.43186   0.04173   0.39012
 115       52D+1        0.46613   0.46612   0.00001   0.46612
 116       52D-1        0.46613   0.46612   0.00001   0.46612
 117       52D+2        0.46241   0.46241   0.00000   0.46241
 118       52D-2        0.46241   0.46241  -0.00000   0.46241
 119       53D 0        0.37189   0.33423   0.03766   0.29657
 120       53D+1        0.35574   0.35574   0.00000   0.35573
 121       53D-1        0.35574   0.35574   0.00000   0.35573
 122       53D+2        0.35372   0.35372   0.00000   0.35372
 123       53D-2        0.35372   0.35372   0.00000   0.35372
 124       54D 0        0.27130   0.23327   0.03803   0.19524
 125       54D+1        0.24549   0.24549   0.00000   0.24549
 126       54D-1        0.24549   0.24549   0.00000   0.24549
 127       54D+2        0.25017   0.25017   0.00000   0.25017
 128       54D-2        0.25017   0.25017   0.00000   0.25017
 129       55D 0        0.17982   0.14191   0.03791   0.10401
 130       55D+1        0.12957   0.12957  -0.00000   0.12957
 131       55D-1        0.12957   0.12957  -0.00000   0.12957
 132       55D+2        0.13193   0.13193   0.00000   0.13193
 133       55D-2        0.13193   0.13193   0.00000   0.13193
 134       56D 0        0.03458   0.02421   0.01038   0.01383
 135       56D+1        0.02095   0.02095  -0.00000   0.02095
 136       56D-1        0.02095   0.02095  -0.00000   0.02095
 137       56D+2        0.01925   0.01925  -0.00000   0.01925
 138       56D-2        0.01925   0.01925  -0.00000   0.01925
 139       57D 0        0.00127   0.00079   0.00047   0.00032
 140       57D+1        0.00069   0.00069  -0.00000   0.00069
 141       57D-1        0.00069   0.00069  -0.00000   0.00069
 142       57D+2        0.00044   0.00044  -0.00000   0.00044
 143       57D-2        0.00044   0.00044  -0.00000   0.00044
 144       58D 0       -0.18484  -0.16886  -0.01598  -0.15288
 145       58D+1       -0.18270  -0.18270  -0.00000  -0.18270
 146       58D-1       -0.18270  -0.18270  -0.00000  -0.18270
 147       58D+2       -0.18130  -0.18130  -0.00000  -0.18130
 148       58D-2       -0.18130  -0.18130  -0.00000  -0.18130
 149       59D 0       -0.21311  -0.19396  -0.01915  -0.17481
 150       59D+1       -0.20056  -0.20055  -0.00000  -0.20055
 151       59D-1       -0.20056  -0.20055  -0.00000  -0.20055
 152       59D+2       -0.19592  -0.19592  -0.00000  -0.19592
 153       59D-2       -0.19592  -0.19592  -0.00000  -0.19592
 154       60D 0        0.00009   0.00006   0.00003   0.00002
 155       60D+1       -0.00002  -0.00002   0.00000  -0.00002
 156       60D-1       -0.00002  -0.00002   0.00000  -0.00002
 157       60D+2       -0.00001  -0.00001  -0.00000  -0.00001
 158       60D-2       -0.00001  -0.00001  -0.00000  -0.00001
 159       61F 0        0.00001   0.00000   0.00000   0.00000
 160       61F+1        0.00000   0.00000   0.00000   0.00000
 161       61F-1        0.00000   0.00000   0.00000   0.00000
 162       61F+2        0.00000   0.00000  -0.00000   0.00000
 163       61F-2        0.00000   0.00000  -0.00000   0.00000
 164       61F+3        0.00000   0.00000  -0.00000   0.00000
 165       61F-3        0.00000   0.00000   0.00000   0.00000
 166       62F 0        0.00007   0.00004   0.00003   0.00000
 167       62F+1        0.00000   0.00000   0.00000   0.00000
 168       62F-1        0.00000   0.00000   0.00000   0.00000
 169       62F+2        0.00000   0.00000   0.00000   0.00000
 170       62F-2        0.00000   0.00000   0.00000   0.00000
 171       62F+3        0.00000   0.00000   0.00000   0.00000
 172       62F-3       -0.00000  -0.00000   0.00000  -0.00000
 173       63F 0        0.00103   0.00052   0.00051   0.00001
 174       63F+1        0.00001   0.00000   0.00000   0.00000
 175       63F-1        0.00001   0.00000   0.00000   0.00000
 176       63F+2       -0.00000  -0.00000   0.00000  -0.00000
 177       63F-2       -0.00000  -0.00000   0.00000  -0.00000
 178       63F+3        0.00000   0.00000   0.00000   0.00000
 179       63F-3        0.00000   0.00000   0.00000  -0.00000
 180       64F 0        0.00439   0.00228   0.00211   0.00018
 181       64F+1       -0.00000  -0.00000   0.00000  -0.00001
 182       64F-1       -0.00000  -0.00000   0.00000  -0.00001
 183       64F+2        0.00000   0.00000  -0.00000   0.00000
 184       64F-2        0.00000   0.00000  -0.00000   0.00000
 185       64F+3       -0.00000  -0.00000   0.00000  -0.00000
 186       64F-3       -0.00000   0.00000  -0.00000   0.00000
 187       65F 0        0.00087   0.00054   0.00033   0.00021
 188       65F+1       -0.00000  -0.00000  -0.00000  -0.00000
 189       65F-1       -0.00000  -0.00000  -0.00000  -0.00000
 190       65F+2        0.00000   0.00000  -0.00000   0.00000
 191       65F-2        0.00000   0.00000  -0.00000   0.00000
 192       65F+3        0.00000  -0.00000   0.00000  -0.00000
 193       65F-3        0.00000   0.00000  -0.00000   0.00000
 194       66G 0       -0.00000  -0.00000  -0.00000   0.00000
 195       66G+1        0.00000   0.00000  -0.00000   0.00000
 196       66G-1        0.00000   0.00000  -0.00000   0.00000
 197       66G+2        0.00000   0.00000  -0.00000   0.00000
 198       66G-2        0.00000   0.00000  -0.00000   0.00000
 199       66G+3        0.00000   0.00000   0.00000   0.00000
 200       66G-3        0.00000   0.00000  -0.00000   0.00000
 201       66G+4        0.00000   0.00000   0.00000   0.00000
 202       66G-4        0.00000   0.00000   0.00000   0.00000
 203       67G 0        0.00002   0.00001   0.00001   0.00000
 204       67G+1        0.00000   0.00000   0.00000   0.00000
 205       67G-1        0.00000   0.00000   0.00000   0.00000
 206       67G+2       -0.00000  -0.00000  -0.00000  -0.00000
 207       67G-2       -0.00000  -0.00000   0.00000  -0.00000
 208       67G+3        0.00000   0.00000  -0.00000   0.00000
 209       67G-3        0.00000   0.00000   0.00000  -0.00000
 210       67G+4       -0.00000  -0.00000  -0.00000  -0.00000
 211       67G-4        0.00000   0.00000  -0.00000   0.00000
 212       68G 0        0.00011   0.00006   0.00005   0.00001
 213       68G+1       -0.00000  -0.00000   0.00000  -0.00000
 214       68G-1       -0.00000  -0.00000   0.00000  -0.00000
 215       68G+2        0.00000   0.00000  -0.00000   0.00000
 216       68G-2        0.00000   0.00000  -0.00000   0.00000
 217       68G+3        0.00000   0.00000  -0.00000   0.00000
 218       68G-3        0.00000   0.00000   0.00000   0.00000
 219       68G+4        0.00000   0.00000   0.00000   0.00000
 220       68G-4        0.00000   0.00000   0.00000   0.00000
 221       69G 0        0.00026   0.00015   0.00010   0.00005
 222       69G+1       -0.00000  -0.00000  -0.00000  -0.00000
 223       69G-1       -0.00000  -0.00000  -0.00000  -0.00000
 224       69G+2        0.00000   0.00000  -0.00000   0.00000
 225       69G-2        0.00000   0.00000  -0.00000   0.00000
 226       69G+3        0.00000   0.00000  -0.00000   0.00000
 227       69G-3       -0.00000  -0.00000  -0.00000  -0.00000
 228       69G+4        0.00000   0.00000  -0.00000   0.00000
 229       69G-4        0.00000   0.00000  -0.00000   0.00000
 230       70H 0       -0.00000  -0.00000  -0.00000   0.00000
 231       70H+1        0.00000   0.00000  -0.00000   0.00000
 232       70H-1        0.00000   0.00000  -0.00000   0.00000
 233       70H+2        0.00000   0.00000   0.00000   0.00000
 234       70H-2        0.00000   0.00000   0.00000   0.00000
 235       70H+3       -0.00000  -0.00000  -0.00000  -0.00000
 236       70H-3       -0.00000  -0.00000   0.00000  -0.00000
 237       70H+4       -0.00000  -0.00000  -0.00000  -0.00000
 238       70H-4        0.00000   0.00000  -0.00000   0.00000
 239       70H+5       -0.00000  -0.00000  -0.00000  -0.00000
 240       70H-5        0.00000   0.00000  -0.00000   0.00000
 241       71H 0        0.00001   0.00001   0.00001   0.00000
 242       71H+1        0.00000   0.00000   0.00000   0.00000
 243       71H-1        0.00000   0.00000   0.00000   0.00000
 244       71H+2        0.00000   0.00000  -0.00000   0.00000
 245       71H-2        0.00000   0.00000  -0.00000   0.00000
 246       71H+3       -0.00000  -0.00000   0.00000  -0.00000
 247       71H-3        0.00000   0.00000  -0.00000   0.00000
 248       71H+4        0.00000   0.00000   0.00000   0.00000
 249       71H-4        0.00000   0.00000   0.00000   0.00000
 250       71H+5       -0.00000  -0.00000   0.00000  -0.00000
 251       71H-5       -0.00000  -0.00000  -0.00000  -0.00000
 252       72H 0       -0.00000  -0.00000   0.00000  -0.00000
 253       72H+1        0.00000   0.00000  -0.00000   0.00000
 254       72H-1        0.00000   0.00000  -0.00000   0.00000
 255       72H+2        0.00000   0.00000   0.00000   0.00000
 256       72H-2        0.00000   0.00000   0.00000   0.00000
 257       72H+3       -0.00000  -0.00000   0.00000  -0.00000
 258       72H-3        0.00000   0.00000  -0.00000   0.00000
 259       72H+4        0.00000   0.00000   0.00000   0.00000
 260       72H-4       -0.00000  -0.00000   0.00000  -0.00000
 261       72H+5       -0.00000  -0.00000   0.00000  -0.00000
 262       72H-5       -0.00000  -0.00000   0.00000  -0.00000
 263 2   H  1S          0.00006   0.00003   0.00003   0.00000
 264        2S          0.00702   0.00359   0.00343   0.00016
 265        3S          0.07040   0.03595   0.03445   0.00150
 266        4S          0.34564   0.17648   0.16917   0.00731
 267        5S          0.65996   0.34738   0.31258   0.03480
 268        6S          0.41442   0.22271   0.19172   0.03099
 269        7S          0.01254   0.00834   0.00419   0.00415
 270        8PX         0.00033   0.00032   0.00001   0.00031
 271        8PY         0.00033   0.00032   0.00001   0.00031
 272        8PZ         0.00171   0.00123   0.00049   0.00074
 273        9PX         0.00212   0.00200   0.00013   0.00187
 274        9PY         0.00212   0.00200   0.00013   0.00187
 275        9PZ         0.01058   0.00593   0.00466   0.00127
 276       10PX         0.00324   0.00252   0.00072   0.00180
 277       10PY         0.00324   0.00252   0.00072   0.00180
 278       10PZ         0.05809   0.02882   0.02927  -0.00045
 279       11PX         0.00062   0.00032   0.00031   0.00001
 280       11PY         0.00062   0.00032   0.00031   0.00001
 281       11PZ         0.02495   0.01707   0.00789   0.00918
 282       12D 0        0.00039   0.00029   0.00010   0.00019
 283       12D+1        0.00020   0.00018   0.00001   0.00017
 284       12D-1        0.00020   0.00018   0.00001   0.00017
 285       12D+2        0.00001   0.00001  -0.00000   0.00001
 286       12D-2        0.00001   0.00001  -0.00000   0.00001
 287       13D 0        0.00598   0.00302   0.00295   0.00007
 288       13D+1        0.00147   0.00116   0.00031   0.00085
 289       13D-1        0.00147   0.00116   0.00031   0.00085
 290       13D+2        0.00009   0.00009  -0.00000   0.00009
 291       13D-2        0.00009   0.00009  -0.00000   0.00009
 292       14D 0        0.01123   0.00552   0.00571  -0.00018
 293       14D+1        0.00094   0.00047   0.00048  -0.00001
 294       14D-1        0.00094   0.00047   0.00048  -0.00001
 295       14D+2       -0.00011  -0.00011   0.00000  -0.00011
 296       14D-2       -0.00011  -0.00011   0.00000  -0.00011
 297       15F 0       -0.00025  -0.00013  -0.00012  -0.00001
 298       15F+1        0.00016   0.00013   0.00002   0.00011
 299       15F-1        0.00016   0.00013   0.00002   0.00011
 300       15F+2        0.00004   0.00004   0.00000   0.00004
 301       15F-2        0.00004   0.00004  -0.00000   0.00004
 302       15F+3       -0.00000  -0.00000   0.00000  -0.00000
 303       15F-3        0.00000   0.00000  -0.00000   0.00000
 304       16F 0        0.00226   0.00121   0.00104   0.00017
 305       16F+1        0.00043   0.00025   0.00018   0.00007
 306       16F-1        0.00043   0.00025   0.00018   0.00007
 307       16F+2       -0.00014  -0.00014  -0.00000  -0.00014
 308       16F-2       -0.00014  -0.00014  -0.00000  -0.00014
 309       16F+3       -0.00000  -0.00000   0.00000  -0.00000
 310       16F-3       -0.00000  -0.00000  -0.00000  -0.00000
          Condensed to atoms (all electrons):
               1          2
     1  Mn  13.913745   0.442472
     2  H    0.442472   1.201310
          Atomic-Atomic Spin Densities.
               1          2
     1  Mn   5.874555   0.025369
     2  H    0.025369   0.074707
 Mulliken charges and spin densities:
               1          2
     1  Mn   0.643783   5.899924
     2  H   -0.643783   0.100076
 Sum of Mulliken charges =  -0.00000   6.00000
 Mulliken charges and spin densities with hydrogens summed into heavy atoms:
               1          2
     1  Mn  -0.000000   6.000000
 Electronic spatial extent (au):  <R**2>=             47.5254
 Charge=             -0.0000 electrons
 Dipole moment (field-independent basis, Debye):
    X=              0.0000    Y=              0.0000    Z=             -0.3650  Tot=              0.3650
 Quadrupole moment (field-independent basis, Debye-Ang):
   XX=            -15.9905   YY=            -15.9905   ZZ=            -25.3939
   XY=              0.0000   XZ=              0.0000   YZ=              0.0000
 Traceless Quadrupole moment (field-independent basis, Debye-Ang):
   XX=              3.1345   YY=              3.1345   ZZ=             -6.2689
   XY=              0.0000   XZ=              0.0000   YZ=              0.0000
 Octapole moment (field-independent basis, Debye-Ang**2):
  XXX=              0.0000  YYY=              0.0000  ZZZ=             -5.8549  XYY=              0.0000
  XXY=              0.0000  XXZ=             -2.4861  XZZ=              0.0000  YZZ=              0.0000
  YYZ=             -2.4861  XYZ=              0.0000
 Hexadecapole moment (field-independent basis, Debye-Ang**3):
 XXXX=            -28.0490 YYYY=            -28.0490 ZZZZ=            -86.3135 XXXY=              0.0000
 XXXZ=              0.0000 YYYX=              0.0000 YYYZ=              0.0000 ZZZX=              0.0000
 ZZZY=              0.0000 XXYY=             -9.3497 XXZZ=            -18.3820 YYZZ=            -18.3820
 XXYZ=              0.0000 YYXZ=              0.0000 ZZXY=              0.0000
 N-N= 6.614715136500D+00 E-N=-2.505568361126D+02  KE= 5.700809842820D+01
 Symmetry A1   KE= 2.487174248794D+01
 Symmetry A2   KE= 6.168626675058D+00
 Symmetry B1   KE= 1.298386463263D+01
 Symmetry B2   KE= 1.298386463271D+01
 Symmetry A1   SP= 3.000000000000D+00
 Symmetry A2   SP= 1.000000000000D+00
 Symmetry B1   SP= 1.000000000000D+00
 Symmetry B2   SP= 1.000000000000D+00
 Orbital energies and kinetic energies (alpha):
                                 1                 2
   1         O                -4.236000          1.976004
   2         O                -2.796769          3.372078
   3         O                -2.787490          3.414932
   4         O                -2.787490          3.414932
   5         O                -0.682024          1.240274
   6         O                -0.636921          3.985700
   7         O                -0.636921          6.154000
   8         O                -0.635622          6.154000
   9         O                -0.635622          6.168627
  10         O                -0.411194          6.168627
  11         O                -0.236206          1.540705
  12         V                 0.012963          0.054967
  13         V                 0.012963          0.054967
  14         V                 0.018943          0.027341
  15         V                 0.031930          0.043510
  16         V                 0.051266          0.068045
 Total kinetic energy from orbitals= 8.717975693460D+01
                          Isotropic Fermi Contact Couplings
        Atom                 a.u.       MegaHertz       Gauss      10(-4) cm-1
     1  Mn(55)             0.00102       0.18859       0.06729       0.06291
     2  H(1)               0.01068       7.95393       2.83816       2.65314
 --------------------------------------------------------
       Center         ----  Spin Dipole Couplings  ----
                      3XX-RR        3YY-RR        3ZZ-RR
 --------------------------------------------------------
     1   Atom       -0.105730     -0.105730      0.211460
     2   Atom       -0.344176     -0.344176      0.688352
 --------------------------------------------------------
                        XY            XZ            YZ
 --------------------------------------------------------
     1   Atom        0.000000      0.000000      0.000000
     2   Atom        0.000000      0.000000      0.000000
 --------------------------------------------------------


 ---------------------------------------------------------------------------------
              Anisotropic Spin Dipole Couplings in Principal Axis System
 ---------------------------------------------------------------------------------

       Atom             a.u.   MegaHertz   Gauss  10(-4) cm-1        Axes

              Baa    -0.1057   -13.950    -4.978    -4.653 -0.0000  1.0000  0.0000
     1 Mn(55) Bbb    -0.1057   -13.950    -4.978    -4.653  1.0000  0.0000  0.0000
              Bcc     0.2115    27.900     9.956     9.307  0.0000  0.0000  1.0000
 
              Baa    -0.3442  -183.636   -65.526   -61.254 -0.0000  1.0000  0.0000
     2 H(1)   Bbb    -0.3442  -183.636   -65.526   -61.254  1.0000  0.0000  0.0000
              Bcc     0.6884   367.272   131.052   122.509  0.0000  0.0000  1.0000
 

 ---------------------------------------------------------------------------------

 No NMR shielding tensors so no spin-rotation constants.
 Leave Link  601 at Sun Feb 25 23:04:34 2018, MaxMem=  8589934592 cpu:              86.8 elap:               5.6
 (Enter /home1/apps/gaussian/16rA.03/g16/l9999.exe)
 1\1\GINC-C407-032\SP\ROCCSD(T)-Full\Gen\H1Mn1(7)\AANNABE\25-Feb-2018\0
 \\#P ROCCSD(T)=(maxcyc=150, Full, SaveAmplitudes, ReadAmplitudes)/Gen 
 5d 7f SCF=(maxcycles=300) Integral(NoXCTest) MaxDisk=500GB Pop=Regular
  Pseudo=Read Guess=Read\\MnH\\0,7\Mn,0,0.,0.,0.\H,0,0.,0.,1.2\\Version
 =ES64L-G16RevA.03\State=7-SG\HF=-103.9495645\MP2=-104.5712621\PUHF=-10
 3.9495645\PMP2-0=-104.5712621\CCSD=-104.5720644\CCSD(T)=-104.590041\RM
 SD=4.660e-09\PG=C*V [C*(H1Mn1)]\\@


 IT TAKES GREATER CHARACTER TO CARRY OFF GOOD FORTUNE THAN BAD.
                     FRENCH PROVERB.
 Job cpu time:       0 days  8 hours 34 minutes 10.8 seconds.
 Elapsed time:       0 days  0 hours 32 minutes 18.6 seconds.
 File lengths (MBytes):  RWF=   7810 Int=      0 D2E=      0 Chk=     35 Scr=      1
 Normal termination of Gaussian 16 at Sun Feb 25 23:04:34 2018.
