 Entering Gaussian System, Link 0=g16
 Initial command:
 /home1/apps/gaussian/16rA.03/g16/l1.exe "/tmp/Gau-273493.inp" -scrdir="/tmp/"
 Entering Link 1 = /home1/apps/gaussian/16rA.03/g16/l1.exe PID=    273494.
  
 Copyright (c) 1988,1990,1992,1993,1995,1998,2003,2009,2016,
            Gaussian, Inc.  All Rights Reserved.
  
 This is part of the Gaussian(R) 16 program.  It is based on
 the Gaussian(R) 09 system (copyright 2009, Gaussian, Inc.),
 the Gaussian(R) 03 system (copyright 2003, Gaussian, Inc.),
 the Gaussian(R) 98 system (copyright 1998, Gaussian, Inc.),
 the Gaussian(R) 94 system (copyright 1995, Gaussian, Inc.),
 the Gaussian 92(TM) system (copyright 1992, Gaussian, Inc.),
 the Gaussian 90(TM) system (copyright 1990, Gaussian, Inc.),
 the Gaussian 88(TM) system (copyright 1988, Gaussian, Inc.),
 the Gaussian 86(TM) system (copyright 1986, Carnegie Mellon
 University), and the Gaussian 82(TM) system (copyright 1983,
 Carnegie Mellon University). Gaussian is a federally registered
 trademark of Gaussian, Inc.
  
 This software contains proprietary and confidential information,
 including trade secrets, belonging to Gaussian, Inc.
  
 This software is provided under written license and may be
 used, copied, transmitted, or stored only in accord with that
 written license.
  
 The following legend is applicable only to US Government
 contracts under FAR:
  
                    RESTRICTED RIGHTS LEGEND
  
 Use, reproduction and disclosure by the US Government is
 subject to restrictions as set forth in subparagraphs (a)
 and (c) of the Commercial Computer Software - Restricted
 Rights clause in FAR 52.227-19.
  
 Gaussian, Inc.
 340 Quinnipiac St., Bldg. 40, Wallingford CT 06492
  
  
 ---------------------------------------------------------------
 Warning -- This program may not be used in any manner that
 competes with the business of Gaussian, Inc. or will provide
 assistance to any competitor of Gaussian, Inc.  The licensee
 of this program is prohibited from giving any competitor of
 Gaussian, Inc. access to this program.  By using this program,
 the user acknowledges that Gaussian, Inc. is engaged in the
 business of creating and licensing software in the field of
 computational chemistry and represents and warrants to the
 licensee that it is not a competitor of Gaussian, Inc. and that
 it will not use this program in any manner prohibited above.
 ---------------------------------------------------------------
  

 Cite this work as:
 Gaussian 16, Revision A.03,
 M. J. Frisch, G. W. Trucks, H. B. Schlegel, G. E. Scuseria, 
 M. A. Robb, J. R. Cheeseman, G. Scalmani, V. Barone, 
 G. A. Petersson, H. Nakatsuji, X. Li, M. Caricato, A. V. Marenich, 
 J. Bloino, B. G. Janesko, R. Gomperts, B. Mennucci, H. P. Hratchian, 
 J. V. Ortiz, A. F. Izmaylov, J. L. Sonnenberg, D. Williams-Young, 
 F. Ding, F. Lipparini, F. Egidi, J. Goings, B. Peng, A. Petrone, 
 T. Henderson, D. Ranasinghe, V. G. Zakrzewski, J. Gao, N. Rega, 
 G. Zheng, W. Liang, M. Hada, M. Ehara, K. Toyota, R. Fukuda, 
 J. Hasegawa, M. Ishida, T. Nakajima, Y. Honda, O. Kitao, H. Nakai, 
 T. Vreven, K. Throssell, J. A. Montgomery, Jr., J. E. Peralta, 
 F. Ogliaro, M. J. Bearpark, J. J. Heyd, E. N. Brothers, K. N. Kudin, 
 V. N. Staroverov, T. A. Keith, R. Kobayashi, J. Normand, 
 K. Raghavachari, A. P. Rendell, J. C. Burant, S. S. Iyengar, 
 J. Tomasi, M. Cossi, J. M. Millam, M. Klene, C. Adamo, R. Cammi, 
 J. W. Ochterski, R. L. Martin, K. Morokuma, O. Farkas, 
 J. B. Foresman, and D. J. Fox, Gaussian, Inc., Wallingford CT, 2016.
 
 ******************************************
 Gaussian 16:  ES64L-G16RevA.03 25-Dec-2016
                 5-May-2018 
 ******************************************
 %mem=80GB
 %cpu=0-31
 SetSPE:  set environment variable "MP_BIND" = "yes"
 SetSPE:  set environment variable "MP_BLIST" = "0,1,2,3,4,5,6,7,8,9,10,11,12,13,14,15,16,17,18,19,20,21,22,23,24,25,26,27,28,29,30,31"
 Will use up to   32 processors via shared memory.
 %chk=qz.chk
 %rwf=/scratch/04843/gwang18/cuo/
 ----------------------------------------------------------------------
 #P ROCCSD(T)=(MaxCyc=150, Full)/Gen SCF=(maxcycle=400, vshift=200) Pse
 udo=Read Integral(NoXCTest) Pop=Regular MaxDisk=500GB Guess=Read IOp(5
 /15=2)
 ----------------------------------------------------------------------
 1/38=1,172=1/1;
 2/12=2,17=6,18=5,40=1/2;
 3/5=7,11=2,16=1,17=8,25=1,30=1,47=8,116=101/1,2,3;
 4/5=1/1;
 5/5=2,7=400,10=200,15=2,38=6/2;
 8/5=-1,6=4,9=120000,10=90/1,4;
 9/5=7,6=150,14=2/13;
 6//1;
 99/5=1,9=1/99;
 Leave Link    1 at Sat May  5 21:35:32 2018, MaxMem= 10737418240 cpu:               6.8 elap:               0.2
 (Enter /home1/apps/gaussian/16rA.03/g16/l101.exe)
 ---
 CuO
 ---
 Symbolic Z-matrix:
 Charge =  0 Multiplicity = 2
 Cu                    0.        0.        0. 
 O                     0.        0.        1.6 
 
 ITRead=  0  0
 MicOpt= -1 -1
 NAtoms=      2 NQM=        2 NQMF=       0 NMMI=      0 NMMIF=      0
                NMic=       0 NMicF=      0.
                    Isotopes and Nuclear Properties:
 (Nuclear quadrupole moments (NQMom) in fm**2, nuclear magnetic moments (NMagM)
  in nuclear magnetons)

  Atom         1           2
 IAtWgt=          63          16
 AtmWgt=  62.9295992  15.9949146
 NucSpn=           3           0
 AtZEff=  -0.0000000  -0.0000000
 NQMom=  -22.0000000   0.0000000
 NMagM=    2.2233000   0.0000000
 AtZNuc=  29.0000000   8.0000000
 Leave Link  101 at Sat May  5 21:35:33 2018, MaxMem= 10737418240 cpu:               3.0 elap:               0.1
 (Enter /home1/apps/gaussian/16rA.03/g16/l202.exe)
                          Input orientation:                          
 ---------------------------------------------------------------------
 Center     Atomic      Atomic             Coordinates (Angstroms)
 Number     Number       Type             X           Y           Z
 ---------------------------------------------------------------------
      1         29           0        0.000000    0.000000    0.000000
      2          8           0        0.000000    0.000000    1.600000
 ---------------------------------------------------------------------
 Stoichiometry    CuO(2)
 Framework group  C*V[C*(OCu)]
 Deg. of freedom     1
 Full point group                 C*V     NOp   4
 Largest Abelian subgroup         C2V     NOp   4
 Largest concise Abelian subgroup C1      NOp   1
                         Standard orientation:                         
 ---------------------------------------------------------------------
 Center     Atomic      Atomic             Coordinates (Angstroms)
 Number     Number       Type             X           Y           Z
 ---------------------------------------------------------------------
      1         29           0        0.000000    0.000000    0.345946
      2          8           0        0.000000    0.000000   -1.254054
 ---------------------------------------------------------------------
 Rotational constants (GHZ):           0.0000000          15.4793335          15.4793335
 Leave Link  202 at Sat May  5 21:35:33 2018, MaxMem= 10737418240 cpu:               0.8 elap:               0.1
 (Enter /home1/apps/gaussian/16rA.03/g16/l301.exe)
 General basis read from cards:  (5D, 7F)
 Centers:       1
 S 1 1.00
     Exponent=  1.6665490000D+07 Coefficients=  1.0000000000D+00
 S 1 1.00
     Exponent=  2.4952130000D+06 Coefficients=  1.0000000000D+00
 S 1 1.00
     Exponent=  5.6785070000D+05 Coefficients=  1.0000000000D+00
 S 1 1.00
     Exponent=  1.6085310000D+05 Coefficients=  1.0000000000D+00
 S 1 1.00
     Exponent=  5.2481860000D+04 Coefficients=  1.0000000000D+00
 S 1 1.00
     Exponent=  1.8948850000D+04 Coefficients=  1.0000000000D+00
 S 1 1.00
     Exponent=  7.3916550000D+03 Coefficients=  1.0000000000D+00
 S 1 1.00
     Exponent=  3.0665170000D+03 Coefficients=  1.0000000000D+00
 S 1 1.00
     Exponent=  1.3379940000D+03 Coefficients=  1.0000000000D+00
 S 1 1.00
     Exponent=  6.0878300000D+02 Coefficients=  1.0000000000D+00
 S 1 1.00
     Exponent=  2.8689800000D+02 Coefficients=  1.0000000000D+00
 S 1 1.00
     Exponent=  1.3915300000D+02 Coefficients=  1.0000000000D+00
 S 1 1.00
     Exponent=  6.8494550000D+01 Coefficients=  1.0000000000D+00
 S 1 1.00
     Exponent=  3.1601080000D+01 Coefficients=  1.0000000000D+00
 S 1 1.00
     Exponent=  1.5991580000D+01 Coefficients=  1.0000000000D+00
 S 1 1.00
     Exponent=  8.0565100000D+00 Coefficients=  1.0000000000D+00
 S 1 1.00
     Exponent=  3.6903290000D+00 Coefficients=  1.0000000000D+00
 S 1 1.00
     Exponent=  1.7629020000D+00 Coefficients=  1.0000000000D+00
 S 1 1.00
     Exponent=  8.0126900000D-01 Coefficients=  1.0000000000D+00
 S 1 1.00
     Exponent=  1.8424300000D-01 Coefficients=  1.0000000000D+00
 S 1 1.00
     Exponent=  8.1793000000D-02 Coefficients=  1.0000000000D+00
 S 1 1.00
     Exponent=  3.5303000000D-02 Coefficients=  1.0000000000D+00
 S 1 1.00
     Exponent=  7.2310000000D+00 Coefficients=  1.0000000000D+00
 S 1 1.00
     Exponent=  1.9080000000D+00 Coefficients=  1.0000000000D+00
 S 1 1.00
     Exponent=  1.5240000000D-02 Coefficients=  1.0000000000D+00
 P 1 1.00
     Exponent=  4.8218410000D+04 Coefficients=  1.0000000000D+00
 P 1 1.00
     Exponent=  1.1420550000D+04 Coefficients=  1.0000000000D+00
 P 1 1.00
     Exponent=  3.7135690000D+03 Coefficients=  1.0000000000D+00
 P 1 1.00
     Exponent=  1.4237620000D+03 Coefficients=  1.0000000000D+00
 P 1 1.00
     Exponent=  6.0660410000D+02 Coefficients=  1.0000000000D+00
 P 1 1.00
     Exponent=  2.7825640000D+02 Coefficients=  1.0000000000D+00
 P 1 1.00
     Exponent=  1.3484490000D+02 Coefficients=  1.0000000000D+00
 P 1 1.00
     Exponent=  6.8122540000D+01 Coefficients=  1.0000000000D+00
 P 1 1.00
     Exponent=  3.5400880000D+01 Coefficients=  1.0000000000D+00
 P 1 1.00
     Exponent=  1.8790290000D+01 Coefficients=  1.0000000000D+00
 P 1 1.00
     Exponent=  1.0083560000D+01 Coefficients=  1.0000000000D+00
 P 1 1.00
     Exponent=  5.3461200000D+00 Coefficients=  1.0000000000D+00
 P 1 1.00
     Exponent=  2.7752280000D+00 Coefficients=  1.0000000000D+00
 P 1 1.00
     Exponent=  1.4075640000D+00 Coefficients=  1.0000000000D+00
 P 1 1.00
     Exponent=  6.8721300000D-01 Coefficients=  1.0000000000D+00
 P 1 1.00
     Exponent=  2.4682200000D-01 Coefficients=  1.0000000000D+00
 P 1 1.00
     Exponent=  9.6220000000D-02 Coefficients=  1.0000000000D+00
 P 1 1.00
     Exponent=  3.7037000000D-02 Coefficients=  1.0000000000D+00
 P 1 1.00
     Exponent=  1.1921800000D+01 Coefficients=  1.0000000000D+00
 P 1 1.00
     Exponent=  3.2325000000D+00 Coefficients=  1.0000000000D+00
 P 1 1.00
     Exponent=  1.4260000000D-02 Coefficients=  1.0000000000D+00
 D 1 1.00
     Exponent=  5.2788600000D+02 Coefficients=  1.0000000000D+00
 D 1 1.00
     Exponent=  1.5873300000D+02 Coefficients=  1.0000000000D+00
 D 1 1.00
     Exponent=  6.1555600000D+01 Coefficients=  1.0000000000D+00
 D 1 1.00
     Exponent=  2.6883400000D+01 Coefficients=  1.0000000000D+00
 D 1 1.00
     Exponent=  1.2517500000D+01 Coefficients=  1.0000000000D+00
 D 1 1.00
     Exponent=  6.0697700000D+00 Coefficients=  1.0000000000D+00
 D 1 1.00
     Exponent=  2.9583190000D+00 Coefficients=  1.0000000000D+00
 D 1 1.00
     Exponent=  1.4141220000D+00 Coefficients=  1.0000000000D+00
 D 1 1.00
     Exponent=  6.5332900000D-01 Coefficients=  1.0000000000D+00
 D 1 1.00
     Exponent=  2.8669200000D-01 Coefficients=  1.0000000000D+00
 D 1 1.00
     Exponent=  1.1501400000D-01 Coefficients=  1.0000000000D+00
 D 1 1.00
     Exponent=  8.4804000000D+00 Coefficients=  1.0000000000D+00
 D 1 1.00
     Exponent=  4.4553000000D+00 Coefficients=  1.0000000000D+00
 D 1 1.00
     Exponent=  4.6140000000D-02 Coefficients=  1.0000000000D+00
 F 1 1.00
     Exponent=  1.1946300000D+01 Coefficients=  1.0000000000D+00
 F 1 1.00
     Exponent=  5.0345000000D+00 Coefficients=  1.0000000000D+00
 F 1 1.00
     Exponent=  2.1217000000D+00 Coefficients=  1.0000000000D+00
 F 1 1.00
     Exponent=  7.3910000000D-01 Coefficients=  1.0000000000D+00
 F 1 1.00
     Exponent=  2.5747000000D-01 Coefficients=  1.0000000000D+00
 G 1 1.00
     Exponent=  9.5934000000D+00 Coefficients=  1.0000000000D+00
 G 1 1.00
     Exponent=  4.3083000000D+00 Coefficients=  1.0000000000D+00
 G 1 1.00
     Exponent=  1.7760000000D+00 Coefficients=  1.0000000000D+00
 G 1 1.00
     Exponent=  7.3212000000D-01 Coefficients=  1.0000000000D+00
 H 1 1.00
     Exponent=  8.5704000000D+00 Coefficients=  1.0000000000D+00
 H 1 1.00
     Exponent=  3.7909000000D+00 Coefficients=  1.0000000000D+00
 H 1 1.00
     Exponent=  1.6768100000D+00 Coefficients=  1.0000000000D+00
 ****
 Centers:       2
 S 1 1.00
     Exponent=  6.1420000000D+04 Coefficients=  1.0000000000D+00
 S 1 1.00
     Exponent=  9.1990000000D+03 Coefficients=  1.0000000000D+00
 S 1 1.00
     Exponent=  2.0910000000D+03 Coefficients=  1.0000000000D+00
 S 1 1.00
     Exponent=  5.9090000000D+02 Coefficients=  1.0000000000D+00
 S 1 1.00
     Exponent=  1.9230000000D+02 Coefficients=  1.0000000000D+00
 S 1 1.00
     Exponent=  6.9320000000D+01 Coefficients=  1.0000000000D+00
 S 1 1.00
     Exponent=  2.6970000000D+01 Coefficients=  1.0000000000D+00
 S 1 1.00
     Exponent=  1.1100000000D+01 Coefficients=  1.0000000000D+00
 S 1 1.00
     Exponent=  4.6820000000D+00 Coefficients=  1.0000000000D+00
 S 1 1.00
     Exponent=  1.4280000000D+00 Coefficients=  1.0000000000D+00
 S 1 1.00
     Exponent=  5.5470000000D-01 Coefficients=  1.0000000000D+00
 S 1 1.00
     Exponent=  2.0670000000D-01 Coefficients=  1.0000000000D+00
 S 1 1.00
     Exponent=  1.2974000000D+01 Coefficients=  1.0000000000D+00
 S 1 1.00
     Exponent=  3.4900000000D+01 Coefficients=  1.0000000000D+00
 S 1 1.00
     Exponent=  9.3881000000D+01 Coefficients=  1.0000000000D+00
 S 1 1.00
     Exponent=  6.9590000000D-02 Coefficients=  1.0000000000D+00
 P 1 1.00
     Exponent=  6.3420000000D+01 Coefficients=  1.0000000000D+00
 P 1 1.00
     Exponent=  1.4660000000D+01 Coefficients=  1.0000000000D+00
 P 1 1.00
     Exponent=  4.4590000000D+00 Coefficients=  1.0000000000D+00
 P 1 1.00
     Exponent=  1.5310000000D+00 Coefficients=  1.0000000000D+00
 P 1 1.00
     Exponent=  5.3020000000D-01 Coefficients=  1.0000000000D+00
 P 1 1.00
     Exponent=  1.7500000000D-01 Coefficients=  1.0000000000D+00
 P 1 1.00
     Exponent=  1.4475000000D+01 Coefficients=  1.0000000000D+00
 P 1 1.00
     Exponent=  4.2730000000D+01 Coefficients=  1.0000000000D+00
 P 1 1.00
     Exponent=  1.2614000000D+02 Coefficients=  1.0000000000D+00
 P 1 1.00
     Exponent=  5.3480000000D-02 Coefficients=  1.0000000000D+00
 D 1 1.00
     Exponent=  3.7750000000D+00 Coefficients=  1.0000000000D+00
 D 1 1.00
     Exponent=  1.3000000000D+00 Coefficients=  1.0000000000D+00
 D 1 1.00
     Exponent=  4.4400000000D-01 Coefficients=  1.0000000000D+00
 D 1 1.00
     Exponent=  1.4927000000D+01 Coefficients=  1.0000000000D+00
 D 1 1.00
     Exponent=  5.7544000000D+01 Coefficients=  1.0000000000D+00
 D 1 1.00
     Exponent=  1.5400000000D-01 Coefficients=  1.0000000000D+00
 F 1 1.00
     Exponent=  2.6660000000D+00 Coefficients=  1.0000000000D+00
 F 1 1.00
     Exponent=  8.5900000000D-01 Coefficients=  1.0000000000D+00
 F 1 1.00
     Exponent=  2.6483000000D+01 Coefficients=  1.0000000000D+00
 F 1 1.00
     Exponent=  3.2400000000D-01 Coefficients=  1.0000000000D+00
 G 1 1.00
     Exponent=  1.8460000000D+00 Coefficients=  1.0000000000D+00
 G 1 1.00
     Exponent=  7.1400000000D-01 Coefficients=  1.0000000000D+00
 ****
 ======================================================================================================
                                       Pseudopotential Parameters
 ======================================================================================================
  Center     Atomic      Valence      Angular      Power
  Number     Number     Electrons     Momentum     of R      Exponent        Coefficient   SO-Coeffient
 ======================================================================================================
    1         29           19
                                      D and up 
                                                     1       31.5381126       19.00000000    0.00000000
                                                     3       31.0692553      599.22413998    0.00000000
                                                     2       30.5903587     -244.68915484    0.00000000
                                                     2       14.0514106       -1.29349526    0.00000000
                                      S - D
                                                     2       12.7723592       66.27560813    0.00000000
                                                     2       29.3556224      370.71371825    0.00000000
                                      P - D
                                                     2       12.5247148       49.76265057    0.00000000
                                                     2       33.5169454      271.66281028    0.00000000
    2          8            6
                                      P and up 
                                                     1       12.3099744        6.00000000    0.00000000
                                                     3       14.7696229       73.85984616    0.00000000
                                                     2       13.7141954      -47.87600504    0.00000000
                                      S - P
                                                     2       13.6551200       85.86406526    0.00000000
 ======================================================================================================
 Ernie: Thresh=  0.10000D-02 Tol=  0.10000D-05 Strict=F.
 There are   213 symmetry adapted cartesian basis functions of A1  symmetry.
 There are    56 symmetry adapted cartesian basis functions of A2  symmetry.
 There are   114 symmetry adapted cartesian basis functions of B1  symmetry.
 There are   114 symmetry adapted cartesian basis functions of B2  symmetry.
 There are   157 symmetry adapted basis functions of A1  symmetry.
 There are    47 symmetry adapted basis functions of A2  symmetry.
 There are    90 symmetry adapted basis functions of B1  symmetry.
 There are    90 symmetry adapted basis functions of B2  symmetry.
   384 basis functions,   497 primitive gaussians,   497 cartesian basis functions
    13 alpha electrons       12 beta electrons
       nuclear repulsion energy        37.7038762780 Hartrees.
 IExCor=    0 DFT=F Ex=HF Corr=None ExCW=0 ScaHFX=  1.000000
 ScaDFX=  1.000000  1.000000  1.000000  1.000000 ScalE2=  1.000000  1.000000
 IRadAn=      5 IRanWt=     -1 IRanGd=            0 ICorTp=0 IEmpDi=  4
 NAtoms=    2 NActive=    2 NUniq=    2 SFac= 1.00D+00 NAtFMM=   60 NAOKFM=F Big=F
 Integral buffers will be    131072 words long.
 Raffenetti 2 integral format.
 Two-electron integral symmetry is turned on.
 Leave Link  301 at Sat May  5 21:35:33 2018, MaxMem= 10737418240 cpu:               9.3 elap:               0.3
 (Enter /home1/apps/gaussian/16rA.03/g16/l302.exe)
 NPDir=0 NMtPBC=     1 NCelOv=     1 NCel=       1 NClECP=     1 NCelD=      1
         NCelK=      1 NCelE2=     1 NClLst=     1 CellRange=     0.0.
 One-electron integrals computed using PRISM.
 One-electron integral symmetry used in STVInt
   4 Symmetry operations used in ECPInt.
 ECPInt:  NShTT=    6105 NPrTT=    6105 LenC2=    5500 LenP2D=    5499.
 LDataN:  DoStor=T MaxTD1=10 Len=  848
 NBasis=   384 RedAO= T EigKep=  1.48D-06  NBF=   157    47    90    90
 NBsUse=   383 1.00D-06 EigRej=  4.54D-07 NBFU=   156    47    90    90
 Leave Link  302 at Sat May  5 21:35:36 2018, MaxMem= 10737418240 cpu:              79.4 elap:               2.5
 (Enter /home1/apps/gaussian/16rA.03/g16/l303.exe)
 DipDrv:  MaxL=1.
 Leave Link  303 at Sat May  5 21:35:36 2018, MaxMem= 10737418240 cpu:               3.9 elap:               0.2
 (Enter /home1/apps/gaussian/16rA.03/g16/l401.exe)
 Initial guess from the checkpoint file:  "qz.chk"
 B after Tr=     0.000000    0.000000    0.000000
         Rot=    1.000000    0.000000    0.000000    0.000000 Ang=   0.00 deg.
 Guess basis will be translated and rotated to current coordinates.
 JPrj=2 DoOrth=T DoCkMO=T.
 Initial guess orbital symmetries:
       Occupied  (SG) (SG) (PI) (PI) (SG) (?A) (SG) (?A) (DLTA)
                 (DLTA) (?A) (SG) (?A)
       Virtual   (SG) (PI) (PI) (SG) (SG) (PI) (PI) (?B) (?B) (?B)
                 (?B) (SG) (PI) (PI) (SG) (PI) (PI) (PI) (PI) (SG)
                 (SG) (SG) (?C) (?C) (?C) (?C) (?C) (PI) (PI) (PI)
                 (PI) (SG) (?A) (?A) (?A) (?A) (SG) (SG) (PHI)
                 (PHI) (?D) (?D) (?D) (PI) (PI) (SG) (PHI) (PHI)
                 (PI) (PI) (?E) (?E) (?E) (?E) (?E) (?E) (PI) (PI)
                 (?E) (?E) (SG) (PI) (PI) (SG) (PI) (PI) (SG) (PI)
                 (PI) (SG) (PHI) (PHI) (DLTA) (DLTA) (PI) (PI)
                 (SG) (SG) (?F) (PI) (PI) (DLTA) (DLTA) (PHI) (PHI)
                 (?G) (?G) (DLTA) (DLTA) (?H) (?H) (?F) (?F) (?H)
                 (?H) (PI) (?F) (PI) (?F) (?F) (SG) (PI) (PI) (SG)
                 (SG) (PI) (PI) (SG) (PHI) (PHI) (DLTA) (DLTA)
                 (PI) (PI) (SG) (PI) (PI) (SG) (?I) (?I) (?I) (PI)
                 (PI) (SG) (?G) (?G) (PHI) (PHI) (DLTA) (DLTA)
                 (PI) (PI) (SG) (PI) (PI) (SG) (SG) (PHI) (PHI)
                 (DLTA) (DLTA) (PI) (PI) (SG) (PI) (PI) (SG) (DLTA)
                 (DLTA) (PI) (PI) (SG) (SG) (SG) (?G) (?G) (PHI)
                 (PHI) (DLTA) (DLTA) (PI) (PI) (SG) (?J) (?J) (PI)
                 (PI) (?J) (PI) (PI) (SG) (PI) (PI) (SG) (DLTA)
                 (DLTA) (PI) (PI) (SG) (SG) (SG) (PI) (PI) (SG)
                 (PI) (PI) (SG) (SG) (SG) (DLTA) (DLTA) (PI) (PI)
                 (SG) (PI) (PI) (SG) (SG) (SG) (PI) (PI) (SG) (PI)
                 (PI) (SG) (SG) (SG) (DLTA) (DLTA) (PI) (PI) (SG)
                 (PI) (PI) (SG) (SG) (PI) (PI) (SG) (SG) (SG) (PI)
                 (PI) (SG) (SG) (SG) (PI) (PI) (SG) (SG) (PI) (PI)
                 (SG) (SG) (SG) (SG) (PI) (PI) (SG) (SG) (SG) (SG)
                 (SG) (SG) (SG) (DLTA) (SG) (SG) (SG) (SG) (SG)
                 (DLTA) (SG) (DLTA) (SG) (SG) (DLTA) (SG) (SG)
                 (?G) (DLTA) (SG) (DLTA) (?G) (SG) (DLTA) (SG)
                 (SG) (DLTA) (SG) (DLTA) (SG) (?G) (DLTA) (DLTA)
                 (SG) (DLTA) (DLTA) (SG) (SG) (SG) (DLTA) (SG)
                 (?G) (DLTA) (?G) (?G) (DLTA) (DLTA) (DLTA) (DLTA)
                 (?G) (DLTA) (DLTA) (?G) (DLTA) (DLTA) (DLTA) (?G)
                 (DLTA) (DLTA) (DLTA) (DLTA) (DLTA) (?G) (DLTA)
                 (?G) (?G) (PI) (PI) (PI) (PI) (PI) (PI) (PHI)
                 (PI) (PI) (PHI) (PI) (PI) (PHI) (PI) (?K) (PHI)
                 (PI) (PI) (PHI) (PI) (PI) (PHI) (PI) (PI) (PI)
                 (PHI) (PI) (PHI) (?K) (PHI) (?K) (PI) (PI) (PI)
                 (PI) (PI) (PI) (PHI) (PI) (PI) (PHI) (PI) (PI)
                 (PHI) (PI) (?K) (PHI) (PI) (PI) (PHI) (PI) (PI)
                 (PHI) (PI) (PI) (PI) (PHI) (PI) (PHI) (?K) (PHI)
                 (?K)
 Leave Link  401 at Sat May  5 21:35:37 2018, MaxMem= 10737418240 cpu:              25.4 elap:               0.9
 (Enter /home1/apps/gaussian/16rA.03/g16/l502.exe)
 Keep R1 and R2 ints in memory in symmetry-blocked form, NReq=3425113631.
 FoFCou: FMM=F IPFlag=           8 FMFlag=           0 FMFlg1=           0
         NFxFlg=           0 DoJE=F BraDBF=F KetDBF=F FulRan=T
         wScrn=  0.000000 ICntrl=       600 IOpCl=  0 I1Cent=           0 NGrid=           0
         NMat0=    1 NMatS0=  73920 NMatT0=    0 NMatD0=    1 NMtDS0=    0 NMtDT0=    0
 Petite list used in FoFCou.
 Restricted open shell SCF:
 Using DIIS extrapolation, IDIIS=  1040.
 NGot= 10737418240 LenX=  9351085953 LenY=  9350838447
 Requested convergence on RMS density matrix=1.00D-08 within 400 cycles.
 Requested convergence on MAX density matrix=1.00D-06.
 Requested convergence on             energy=1.00D-06.
 Virtual orbitals will be shifted by   0.200 hartree.
 No special actions if energy rises.

 Cycle   1  Pass 1  IDiag  1:
 E= -211.027833786179    
 DIIS: error= 5.23D-01 at cycle   1 NSaved=   1.
 NSaved= 1 IEnMin= 1 EnMin= -211.027833786179     IErMin= 1 ErrMin= 5.23D-01
 ErrMax= 5.23D-01  0.00D+00 EMaxC= 1.00D-01 BMatC= 3.21D+01 BMatP= 3.21D+01
 IDIUse=3 WtCom= 0.00D+00 WtEn= 1.00D+00
 Coeff-Com:  0.100D+01
 Coeff-En:   0.100D+01
 Coeff:      0.100D+01
 Gap=     0.095 Goal=   None    Shift=    0.200
 GapD=    0.095 DampG=0.500 DampE=0.125 DampFc=0.1250 IDamp=-1.
 Damping current iteration by 1.25D-01
 RMSDP=1.48D-03 MaxDP=1.02D-01              OVMax= 3.84D-03

 Cycle   2  Pass 1  IDiag  1:
 E= -211.028014728983     Delta-E=       -0.000180942804 Rises=F Damp=T
 DIIS: error= 4.57D-01 at cycle   2 NSaved=   2.
 NSaved= 2 IEnMin= 2 EnMin= -211.028014728983     IErMin= 2 ErrMin= 4.57D-01
 ErrMax= 4.57D-01  0.00D+00 EMaxC= 1.00D-01 BMatC= 2.46D+01 BMatP= 3.21D+01
 IDIUse=3 WtCom= 0.00D+00 WtEn= 1.00D+00
 Coeff-Com: -0.700D+01 0.800D+01
 Coeff-En:   0.000D+00 0.100D+01
 Coeff:      0.000D+00 0.100D+01
 Gap=     0.095 Goal=   None    Shift=    0.200
 RMSDP=1.33D-03 MaxDP=8.79D-02 DE=-1.81D-04 OVMax= 6.68D-04

 Cycle   3  Pass 1  IDiag  1:
 E= -211.029319793167     Delta-E=       -0.001305064184 Rises=F Damp=F
 DIIS: error= 1.95D-04 at cycle   3 NSaved=   3.
 NSaved= 3 IEnMin= 3 EnMin= -211.029319793167     IErMin= 3 ErrMin= 1.95D-04
 ErrMax= 1.95D-04  0.00D+00 EMaxC= 1.00D-01 BMatC= 9.15D-06 BMatP= 2.46D+01
 IDIUse=3 WtCom= 9.98D-01 WtEn= 1.95D-03
 Coeff-Com: -0.470D+00 0.537D+00 0.933D+00
 Coeff-En:   0.000D+00 0.000D+00 0.100D+01
 Coeff:     -0.469D+00 0.536D+00 0.933D+00
 Gap=     0.094 Goal=   None    Shift=    0.200
 RMSDP=7.00D-05 MaxDP=5.12D-03 DE=-1.31D-03 OVMax= 4.10D-04

 Cycle   4  Pass 1  IDiag  1:
 E= -211.029323779861     Delta-E=       -0.000003986694 Rises=F Damp=F
 DIIS: error= 1.05D-04 at cycle   4 NSaved=   4.
 NSaved= 4 IEnMin= 4 EnMin= -211.029323779861     IErMin= 4 ErrMin= 1.05D-04
 ErrMax= 1.05D-04  0.00D+00 EMaxC= 1.00D-01 BMatC= 1.07D-06 BMatP= 9.15D-06
 IDIUse=3 WtCom= 9.99D-01 WtEn= 1.05D-03
 Coeff-Com: -0.439D+00 0.502D+00-0.129D+00 0.107D+01
 Coeff-En:   0.000D+00 0.000D+00 0.000D+00 0.100D+01
 Coeff:     -0.439D+00 0.501D+00-0.129D+00 0.107D+01
 Gap=     0.095 Goal=   None    Shift=    0.200
 RMSDP=1.63D-05 MaxDP=1.31D-03 DE=-3.99D-06 OVMax= 1.97D-04

 Cycle   5  Pass 1  IDiag  1:
 E= -211.029324198700     Delta-E=       -0.000000418838 Rises=F Damp=F
 DIIS: error= 9.19D-05 at cycle   5 NSaved=   5.
 NSaved= 5 IEnMin= 5 EnMin= -211.029324198700     IErMin= 5 ErrMin= 9.19D-05
 ErrMax= 9.19D-05  0.00D+00 EMaxC= 1.00D-01 BMatC= 7.12D-07 BMatP= 1.07D-06
 IDIUse=1 WtCom= 1.00D+00 WtEn= 0.00D+00
 Coeff-Com: -0.411D+00 0.469D+00-0.138D+00 0.388D+00 0.691D+00
 Coeff:     -0.411D+00 0.469D+00-0.138D+00 0.388D+00 0.691D+00
 Gap=     0.094 Goal=   None    Shift=    0.200
 RMSDP=4.23D-06 MaxDP=3.39D-04 DE=-4.19D-07 OVMax= 8.44D-05

 Cycle   6  Pass 1  IDiag  1:
 E= -211.029324304481     Delta-E=       -0.000000105782 Rises=F Damp=F
 DIIS: error= 8.44D-05 at cycle   6 NSaved=   6.
 NSaved= 6 IEnMin= 6 EnMin= -211.029324304481     IErMin= 6 ErrMin= 8.44D-05
 ErrMax= 8.44D-05  0.00D+00 EMaxC= 1.00D-01 BMatC= 5.22D-07 BMatP= 7.12D-07
 IDIUse=1 WtCom= 1.00D+00 WtEn= 0.00D+00
 Coeff-Com: -0.382D+00 0.436D+00-0.937D-01 0.351D-03 0.248D+00 0.791D+00
 Coeff:     -0.382D+00 0.436D+00-0.937D-01 0.351D-03 0.248D+00 0.791D+00
 Gap=     0.094 Goal=   None    Shift=    0.200
 RMSDP=1.76D-06 MaxDP=1.33D-04 DE=-1.06D-07 OVMax= 5.30D-05

 Cycle   7  Pass 1  IDiag  1:
 E= -211.029324346655     Delta-E=       -0.000000042174 Rises=F Damp=F
 DIIS: error= 7.88D-05 at cycle   7 NSaved=   7.
 NSaved= 7 IEnMin= 7 EnMin= -211.029324346655     IErMin= 7 ErrMin= 7.88D-05
 ErrMax= 7.88D-05  0.00D+00 EMaxC= 1.00D-01 BMatC= 4.46D-07 BMatP= 5.22D-07
 IDIUse=1 WtCom= 1.00D+00 WtEn= 0.00D+00
 Coeff-Com: -0.351D+00 0.402D+00-0.635D-01-0.122D+00-0.371D-01 0.288D+00
 Coeff-Com:  0.885D+00
 Coeff:     -0.351D+00 0.402D+00-0.635D-01-0.122D+00-0.371D-01 0.288D+00
 Coeff:      0.885D+00
 Gap=     0.094 Goal=   None    Shift=    0.200
 RMSDP=1.01D-06 MaxDP=9.52D-05 DE=-4.22D-08 OVMax= 4.36D-05

 Cycle   8  Pass 1  IDiag  1:
 E= -211.029324393314     Delta-E=       -0.000000046659 Rises=F Damp=F
 DIIS: error= 7.30D-05 at cycle   8 NSaved=   8.
 NSaved= 8 IEnMin= 8 EnMin= -211.029324393314     IErMin= 8 ErrMin= 7.30D-05
 ErrMax= 7.30D-05  0.00D+00 EMaxC= 1.00D-01 BMatC= 3.78D-07 BMatP= 4.46D-07
 IDIUse=1 WtCom= 1.00D+00 WtEn= 0.00D+00
 Coeff-Com: -0.310D+00 0.354D+00-0.607D-01-0.306D-01 0.860D-02-0.111D+00
 Coeff-Com: -0.387D+00 0.154D+01
 Coeff:     -0.310D+00 0.354D+00-0.607D-01-0.306D-01 0.860D-02-0.111D+00
 Coeff:     -0.387D+00 0.154D+01
 Gap=     0.094 Goal=   None    Shift=    0.200
 RMSDP=1.01D-06 MaxDP=1.34D-04 DE=-4.67D-08 OVMax= 5.75D-05

 Cycle   9  Pass 1  IDiag  1:
 E= -211.029324448001     Delta-E=       -0.000000054687 Rises=F Damp=F
 DIIS: error= 6.44D-05 at cycle   9 NSaved=   9.
 NSaved= 9 IEnMin= 9 EnMin= -211.029324448001     IErMin= 9 ErrMin= 6.44D-05
 ErrMax= 6.44D-05  0.00D+00 EMaxC= 1.00D-01 BMatC= 2.95D-07 BMatP= 3.78D-07
 IDIUse=1 WtCom= 1.00D+00 WtEn= 0.00D+00
 Coeff-Com: -0.241D+00 0.276D+00-0.478D-01-0.203D-01-0.299D-01 0.379D-01
 Coeff-Com:  0.904D-02-0.121D+01 0.223D+01
 Coeff:     -0.241D+00 0.276D+00-0.478D-01-0.203D-01-0.299D-01 0.379D-01
 Coeff:      0.904D-02-0.121D+01 0.223D+01
 Gap=     0.094 Goal=   None    Shift=    0.200
 RMSDP=1.48D-06 MaxDP=2.17D-04 DE=-5.47D-08 OVMax= 7.39D-05

 Cycle  10  Pass 1  IDiag  1:
 E= -211.029324512681     Delta-E=       -0.000000064680 Rises=F Damp=F
 DIIS: error= 5.19D-05 at cycle  10 NSaved=  10.
 NSaved=10 IEnMin=10 EnMin= -211.029324512681     IErMin=10 ErrMin= 5.19D-05
 ErrMax= 5.19D-05  0.00D+00 EMaxC= 1.00D-01 BMatC= 1.86D-07 BMatP= 2.95D-07
 IDIUse=1 WtCom= 1.00D+00 WtEn= 0.00D+00
 Coeff-Com: -0.192D+00 0.220D+00-0.344D-01-0.711D-01-0.573D-01 0.340D+00
 Coeff-Com:  0.781D+00-0.211D+01 0.746D+00 0.138D+01
 Coeff:     -0.192D+00 0.220D+00-0.344D-01-0.711D-01-0.573D-01 0.340D+00
 Coeff:      0.781D+00-0.211D+01 0.746D+00 0.138D+01
 Gap=     0.094 Goal=   None    Shift=    0.200
 RMSDP=1.19D-06 MaxDP=1.64D-04 DE=-6.47D-08 OVMax= 6.76D-05

 Cycle  11  Pass 1  IDiag  1:
 E= -211.029324556106     Delta-E=       -0.000000043425 Rises=F Damp=F
 DIIS: error= 4.13D-05 at cycle  11 NSaved=  11.
 NSaved=11 IEnMin=11 EnMin= -211.029324556106     IErMin=11 ErrMin= 4.13D-05
 ErrMax= 4.13D-05  0.00D+00 EMaxC= 1.00D-01 BMatC= 1.18D-07 BMatP= 1.86D-07
 IDIUse=1 WtCom= 1.00D+00 WtEn= 0.00D+00
 Coeff-Com: -0.945D-01 0.108D+00-0.172D-01-0.331D-01 0.109D-01 0.826D-01
 Coeff-Com:  0.214D+00-0.552D+00 0.518D+00-0.236D+01 0.312D+01
 Coeff:     -0.945D-01 0.108D+00-0.172D-01-0.331D-01 0.109D-01 0.826D-01
 Coeff:      0.214D+00-0.552D+00 0.518D+00-0.236D+01 0.312D+01
 Gap=     0.094 Goal=   None    Shift=    0.200
 RMSDP=2.11D-06 MaxDP=3.06D-04 DE=-4.34D-08 OVMax= 1.08D-04

 Cycle  12  Pass 1  IDiag  1:
 E= -211.029324605491     Delta-E=       -0.000000049384 Rises=F Damp=F
 DIIS: error= 2.30D-05 at cycle  12 NSaved=  12.
 NSaved=12 IEnMin=12 EnMin= -211.029324605491     IErMin=12 ErrMin= 2.30D-05
 ErrMax= 2.30D-05  0.00D+00 EMaxC= 1.00D-01 BMatC= 3.50D-08 BMatP= 1.18D-07
 IDIUse=1 WtCom= 1.00D+00 WtEn= 0.00D+00
 Coeff-Com: -0.616D-01 0.704D-01-0.112D-01-0.163D-01 0.117D-01 0.527D-02
 Coeff-Com:  0.266D-01-0.164D+00 0.921D+00-0.312D+01 0.270D+01 0.634D+00
 Coeff:     -0.616D-01 0.704D-01-0.112D-01-0.163D-01 0.117D-01 0.527D-02
 Coeff:      0.266D-01-0.164D+00 0.921D+00-0.312D+01 0.270D+01 0.634D+00
 Gap=     0.094 Goal=   None    Shift=    0.200
 RMSDP=9.18D-07 MaxDP=1.20D-04 DE=-4.94D-08 OVMax= 5.71D-05

 Cycle  13  Pass 1  IDiag  1:
 E= -211.029324619910     Delta-E=       -0.000000014419 Rises=F Damp=F
 DIIS: error= 1.45D-05 at cycle  13 NSaved=  13.
 NSaved=13 IEnMin=13 EnMin= -211.029324619910     IErMin=13 ErrMin= 1.45D-05
 ErrMax= 1.45D-05  0.00D+00 EMaxC= 1.00D-01 BMatC= 1.41D-08 BMatP= 3.50D-08
 IDIUse=1 WtCom= 1.00D+00 WtEn= 0.00D+00
 Coeff-Com: -0.389D-01 0.444D-01-0.768D-02-0.608D-02-0.370D-02 0.203D-01
 Coeff-Com:  0.453D-01-0.334D+00 0.693D+00-0.858D+00 0.611D+00-0.105D+01
 Coeff-Com:  0.189D+01
 Coeff:     -0.389D-01 0.444D-01-0.768D-02-0.608D-02-0.370D-02 0.203D-01
 Coeff:      0.453D-01-0.334D+00 0.693D+00-0.858D+00 0.611D+00-0.105D+01
 Coeff:      0.189D+01
 Gap=     0.094 Goal=   None    Shift=    0.200
 RMSDP=5.84D-07 MaxDP=7.67D-05 DE=-1.44D-08 OVMax= 3.75D-05

 Cycle  14  Pass 1  IDiag  1:
 E= -211.029324625815     Delta-E=       -0.000000005905 Rises=F Damp=F
 DIIS: error= 9.30D-06 at cycle  14 NSaved=  14.
 NSaved=14 IEnMin=14 EnMin= -211.029324625815     IErMin=14 ErrMin= 9.30D-06
 ErrMax= 9.30D-06  0.00D+00 EMaxC= 1.00D-01 BMatC= 5.63D-09 BMatP= 1.41D-08
 IDIUse=1 WtCom= 1.00D+00 WtEn= 0.00D+00
 Coeff-Com: -0.195D-01 0.223D-01-0.351D-02-0.983D-02-0.429D-02 0.474D-01
 Coeff-Com:  0.148D+00-0.455D+00 0.270D+00 0.315D+00-0.230D+00-0.402D+00
 Coeff-Com: -0.737D+00 0.206D+01
 Coeff:     -0.195D-01 0.223D-01-0.351D-02-0.983D-02-0.429D-02 0.474D-01
 Coeff:      0.148D+00-0.455D+00 0.270D+00 0.315D+00-0.230D+00-0.402D+00
 Coeff:     -0.737D+00 0.206D+01
 Gap=     0.094 Goal=   None    Shift=    0.200
 RMSDP=4.81D-07 MaxDP=6.44D-05 DE=-5.91D-09 OVMax= 2.84D-05

 Cycle  15  Pass 1  IDiag  1:
 E= -211.029324628585     Delta-E=       -0.000000002770 Rises=F Damp=F
 DIIS: error= 4.89D-06 at cycle  15 NSaved=  15.
 NSaved=15 IEnMin=15 EnMin= -211.029324628585     IErMin=15 ErrMin= 4.89D-06
 ErrMax= 4.89D-06  0.00D+00 EMaxC= 1.00D-01 BMatC= 1.60D-09 BMatP= 5.63D-09
 IDIUse=1 WtCom= 1.00D+00 WtEn= 0.00D+00
 Coeff-Com: -0.120D-01 0.137D-01-0.200D-02-0.878D-02-0.373D-03 0.386D-01
 Coeff-Com:  0.137D+00-0.436D+00 0.205D+00 0.188D+00 0.738D-01-0.252D+00
 Coeff-Com: -0.547D+00 0.274D+00 0.133D+01
 Coeff:     -0.120D-01 0.137D-01-0.200D-02-0.878D-02-0.373D-03 0.386D-01
 Coeff:      0.137D+00-0.436D+00 0.205D+00 0.188D+00 0.738D-01-0.252D+00
 Coeff:     -0.547D+00 0.274D+00 0.133D+01
 Gap=     0.094 Goal=   None    Shift=    0.200
 RMSDP=2.15D-07 MaxDP=2.71D-05 DE=-2.77D-09 OVMax= 1.50D-05

 Cycle  16  Pass 1  IDiag  1:
 E= -211.029324629368     Delta-E=       -0.000000000783 Rises=F Damp=F
 DIIS: error= 2.95D-06 at cycle  16 NSaved=  16.
 NSaved=16 IEnMin=16 EnMin= -211.029324629368     IErMin=16 ErrMin= 2.95D-06
 ErrMax= 2.95D-06  0.00D+00 EMaxC= 1.00D-01 BMatC= 5.74D-10 BMatP= 1.60D-09
 IDIUse=1 WtCom= 1.00D+00 WtEn= 0.00D+00
 Coeff-Com: -0.480D-02 0.549D-02-0.908D-03-0.911D-03-0.180D-02 0.480D-02
 Coeff-Com:  0.655D-02-0.429D-01 0.146D+00-0.313D+00 0.201D+00 0.879D-01
 Coeff-Com:  0.159D+00-0.250D+00-0.147D+01 0.247D+01
 Coeff:     -0.480D-02 0.549D-02-0.908D-03-0.911D-03-0.180D-02 0.480D-02
 Coeff:      0.655D-02-0.429D-01 0.146D+00-0.313D+00 0.201D+00 0.879D-01
 Coeff:      0.159D+00-0.250D+00-0.147D+01 0.247D+01
 Gap=     0.094 Goal=   None    Shift=    0.200
 RMSDP=1.78D-07 MaxDP=2.38D-05 DE=-7.83D-10 OVMax= 1.10D-05

 Cycle  17  Pass 1  IDiag  1:
 E= -211.029324629702     Delta-E=       -0.000000000334 Rises=F Damp=F
 DIIS: error= 1.36D-06 at cycle  17 NSaved=  17.
 NSaved=17 IEnMin=17 EnMin= -211.029324629702     IErMin=17 ErrMin= 1.36D-06
 ErrMax= 1.36D-06  0.00D+00 EMaxC= 1.00D-01 BMatC= 1.20D-10 BMatP= 5.74D-10
 IDIUse=1 WtCom= 1.00D+00 WtEn= 0.00D+00
 Coeff-Com: -0.996D-03 0.114D-02-0.225D-03 0.734D-03-0.856D-03-0.245D-02
 Coeff-Com: -0.122D-01-0.331D-02 0.125D+00-0.265D+00 0.138D+00 0.546D-01
 Coeff-Com:  0.201D+00-0.900D-01-0.133D+01 0.120D+01 0.992D+00
 Coeff:     -0.996D-03 0.114D-02-0.225D-03 0.734D-03-0.856D-03-0.245D-02
 Coeff:     -0.122D-01-0.331D-02 0.125D+00-0.265D+00 0.138D+00 0.546D-01
 Coeff:      0.201D+00-0.900D-01-0.133D+01 0.120D+01 0.992D+00
 Gap=     0.094 Goal=   None    Shift=    0.200
 RMSDP=1.02D-07 MaxDP=1.32D-05 DE=-3.34D-10 OVMax= 6.77D-06

 Cycle  18  Pass 1  IDiag  1:
 E= -211.029324629792     Delta-E=       -0.000000000090 Rises=F Damp=F
 DIIS: error= 4.26D-07 at cycle  18 NSaved=  18.
 NSaved=18 IEnMin=18 EnMin= -211.029324629792     IErMin=18 ErrMin= 4.26D-07
 ErrMax= 4.26D-07  0.00D+00 EMaxC= 1.00D-01 BMatC= 1.36D-11 BMatP= 1.20D-10
 IDIUse=1 WtCom= 1.00D+00 WtEn= 0.00D+00
 Coeff-Com:  0.137D-03-0.156D-03 0.507D-04-0.643D-03 0.490D-03 0.409D-02
 Coeff-Com:  0.113D-01-0.658D-01 0.698D-01-0.274D-01 0.424D-01-0.404D-01
 Coeff-Com: -0.102D+00 0.228D+00 0.136D+00-0.297D+00-0.130D+01 0.234D+01
 Coeff:      0.137D-03-0.156D-03 0.507D-04-0.643D-03 0.490D-03 0.409D-02
 Coeff:      0.113D-01-0.658D-01 0.698D-01-0.274D-01 0.424D-01-0.404D-01
 Coeff:     -0.102D+00 0.228D+00 0.136D+00-0.297D+00-0.130D+01 0.234D+01
 Gap=     0.094 Goal=   None    Shift=    0.200
 RMSDP=3.92D-08 MaxDP=4.39D-06 DE=-9.04D-11 OVMax= 3.20D-06

 Cycle  19  Pass 1  IDiag  1:
 E= -211.029324629807     Delta-E=       -0.000000000015 Rises=F Damp=F
 DIIS: error= 1.22D-07 at cycle  19 NSaved=  19.
 NSaved=19 IEnMin=19 EnMin= -211.029324629807     IErMin=19 ErrMin= 1.22D-07
 ErrMax= 1.22D-07  0.00D+00 EMaxC= 1.00D-01 BMatC= 1.53D-12 BMatP= 1.36D-11
 IDIUse=1 WtCom= 1.00D+00 WtEn= 0.00D+00
 Large coefficients: NSaved= 19 BigCof=    0.00 CofMax=   10.00 Det=-9.58D-15
 Inversion failed.  Reducing to 18 matrices.
 Large coefficients: NSaved= 18 BigCof=    0.00 CofMax=   10.00 Det=-9.80D-15
 Inversion failed.  Reducing to 17 matrices.
 Large coefficients: NSaved= 17 BigCof=    0.00 CofMax=   10.00 Det=-9.80D-15
 Inversion failed.  Reducing to 16 matrices.
 Large coefficients: NSaved= 16 BigCof=    0.00 CofMax=   10.00 Det=-9.87D-15
 Inversion failed.  Reducing to 15 matrices.
 Coeff-Com:  0.320D-03 0.471D-03 0.127D-03-0.201D-01 0.422D-01-0.532D-01
 Coeff-Com:  0.324D-01 0.414D-01-0.709D-01 0.420D-01-0.960D-01 0.340D+00
 Coeff-Com: -0.489D+00-0.493D+00 0.172D+01
 Coeff:      0.320D-03 0.471D-03 0.127D-03-0.201D-01 0.422D-01-0.532D-01
 Coeff:      0.324D-01 0.414D-01-0.709D-01 0.420D-01-0.960D-01 0.340D+00
 Coeff:     -0.489D+00-0.493D+00 0.172D+01
 Gap=     0.094 Goal=   None    Shift=    0.200
 RMSDP=7.90D-09 MaxDP=1.18D-06 DE=-1.48D-11 OVMax= 1.23D-06

 Cycle  20  Pass 1  IDiag  1:
 E= -211.029324629810     Delta-E=       -0.000000000002 Rises=F Damp=F
 DIIS: error= 6.84D-08 at cycle  20 NSaved=  16.
 NSaved=16 IEnMin=16 EnMin= -211.029324629810     IErMin=16 ErrMin= 6.84D-08
 ErrMax= 6.84D-08  0.00D+00 EMaxC= 1.00D-01 BMatC= 3.32D-13 BMatP= 1.53D-12
 IDIUse=1 WtCom= 1.00D+00 WtEn= 0.00D+00
 Large coefficients: NSaved= 16 BigCof=    0.00 CofMax=   10.00 Det=-4.72D-15
 Inversion failed.  Reducing to 15 matrices.
 Coeff-Com:  0.204D-03 0.818D-03-0.996D-02 0.250D-01-0.350D-01 0.113D-01
 Coeff-Com:  0.397D-01-0.520D-01 0.211D-01-0.368D-01 0.131D+00-0.107D+00
 Coeff-Com: -0.106D+00-0.337D+00 0.146D+01
 Coeff:      0.204D-03 0.818D-03-0.996D-02 0.250D-01-0.350D-01 0.113D-01
 Coeff:      0.397D-01-0.520D-01 0.211D-01-0.368D-01 0.131D+00-0.107D+00
 Coeff:     -0.106D+00-0.337D+00 0.146D+01
 Gap=     0.094 Goal=   None    Shift=    0.200
 RMSDP=3.10D-09 MaxDP=5.03D-07 DE=-2.30D-12 OVMax= 5.89D-07

 SCF Done:  E(ROHF) =  -211.029324630     A.U. after   20 cycles
            NFock= 20  Conv=0.31D-08     -V/T= 2.4876
 <Sx>= 0.0000 <Sy>= 0.0000 <Sz>= 0.5000 <S**2>= 0.7500 S= 0.5000
 <L.S>=  0.00000000000    
 KE= 1.418570996554D+02 PE=-5.982542929222D+02 EE= 2.076639923590D+02
 Annihilation of the first spin contaminant:
 S**2 before annihilation     0.7500,   after     0.7500
 Leave Link  502 at Sat May  5 21:37:10 2018, MaxMem= 10737418240 cpu:            2407.9 elap:              93.5
 (Enter /home1/apps/gaussian/16rA.03/g16/l801.exe)
 Windowed orbitals will be sorted by symmetry type.
 GenMOA:  NOpAll=  4 NOp2=4 NOpUse=  4 JSym2X=1
 FoFJK:  IHMeth= 1 ICntrl=       0 DoSepK=F KAlg= 0 I1Cent=           0 FoldK=F
 IRaf=         0 NMat=       1 IRICut=       1 DoRegI=T DoRafI=F ISym2E= 1 IDoP0=0 IntGTp=1.
 FoFCou: FMM=F IPFlag=           8 FMFlag=      100000 FMFlg1=           0
         NFxFlg=           0 DoJE=F BraDBF=F KetDBF=F FulRan=T
         wScrn=  0.000000 ICntrl=         0 IOpCl=  1 I1Cent=           0 NGrid=           0
         NMat0=    1 NMatS0=      1 NMatT0=    0 NMatD0=    1 NMtDS0=    0 NMtDT0=    0
 Petite list used in FoFCou.
 <Sx>= 0.0000 <Sy>= 0.0000 <Sz>= 0.5000 <S**2>= 0.7500 S= 0.5000
 Range of M.O.s used for correlation:     1   383
 NBasis=   384 NAE=    13 NBE=    12 NFC=     0 NFV=     0
 NROrb=    383 NOA=    13 NOB=    12 NVA=   370 NVB=   371

 **** Warning!!: The largest alpha MO coefficient is  0.28172896D+03


 **** Warning!!: The largest beta MO coefficient is  0.28173061D+03

 Singles contribution to E2=   -0.3706971960D-02
 Leave Link  801 at Sat May  5 21:37:31 2018, MaxMem= 10737418240 cpu:             654.8 elap:              20.5
 (Enter /home1/apps/gaussian/16rA.03/g16/l804.exe)
 Open-shell transformation, MDV= 10737418240 ITran=4 ISComp=2.
 Unit  1 TFree=       4458914 TCopy=       3230913.
 Semi-Direct transformation.
 ModeAB=           4 MOrb=            13 LenV=   10733076598
 LASXX=     90809188 LTotXX=    90809188 LenRXX=   182565052
 LTotAB=    91755864 MaxLAS=   598137228 LenRXY=           0
 NonZer=   273374240 LenScr=   411669504 LnRSAI=   598137228
 LnScr1=   900724736 LExtra=    34621350 Total=   2127717870
 MaxDsk= 67108864000 SrtSym=           T ITran=            4
 DoSDTr:  NPSUse= 32
 JobTyp=1 Pass  1:  I=   1 to  13.
 (rs|ai) integrals will be sorted in core.
 Complete sort for first half transformation.
 First half transformation complete.
 Begin second half transformation for I=  10.
 Complete sort for second half transformation.
 Second half transformation complete.
 ModeAB=           4 MOrb=            12 LenV=   10733076598
 LASXX=     84062982 LTotXX=    84062982 LenRXX=   163301974
 LTotAB=    79238992 MaxLAS=   552126672 LenRXY=           0
 NonZer=   247364956 LenScr=   372502528 LnRSAI=   552126672
 LnScr1=   831437824 LExtra=   217186402 Total=   2136555400
 MaxDsk= 67108864000 SrtSym=           T ITran=            4
 DoSDTr:  NPSUse= 32
 JobTyp=2 Pass  1:  I=   1 to  12.
 (rs|ai) integrals will be sorted in core.
 Complete sort for first half transformation.
 First half transformation complete.
 Begin second half transformation for I=  10.
 Complete sort for second half transformation.
 Second half transformation complete.
 Spin components of T(2) and E(2):
     alpha-alpha T2 =       0.3323170548D-01 E2=     -0.2105792982D+00
     alpha-beta  T2 =       0.1356966656D+00 E2=     -0.9467207561D+00
     beta-beta   T2 =       0.3068812044D-01 E2=     -0.1952567400D+00
 ANorm=    0.1096033108D+01
 E2 =    -0.1356263766D+01 EUMP2 =    -0.21238558839612D+03
 (S**2,0)=  0.75000D+00           (S**2,1)=  0.75000D+00
 E(PUHF)=      -0.21102932463D+03        E(PMP2)=      -0.21238558840D+03
 Leave Link  804 at Sat May  5 21:50:10 2018, MaxMem= 10737418240 cpu:           24258.4 elap:             758.5
 (Enter /home1/apps/gaussian/16rA.03/g16/l913.exe)
 CIDS:  MDV= 10737418240.
 IFCWin=0 IBDFC=1 NFBD=     0     0 NFCmp=     0     0 NFFFC=     0     0
 Using original routines for 1st iteration.
 Using DD4UQ or CC4UQ for 2nd and later iterations.
 Keep R2 and R3 ints in memory in symmetry-blocked form, NReq=3425138542.
 FoFCou: FMM=F IPFlag=           8 FMFlag=           0 FMFlg1=           0
         NFxFlg=           0 DoJE=F BraDBF=F KetDBF=F FulRan=T
         wScrn=  0.000000 ICntrl=       600 IOpCl=  0 I1Cent=           0 NGrid=           0
         NMat0=    1 NMatS0=  73920 NMatT0=    0 NMatD0=    1 NMtDS0=    0 NMtDT0=    0
 Petite list used in FoFCou.
 CIDS: In Core Option IDoMem=           1.
 CCSD(T)
 =======
 Iterations= 150 Convergence= 0.100D-06
 Produce multiple copies of IABC intergrals
 Iteration Nr.   1
 **********************
 DD1Dir will call FoFMem   1 times, MxPair=       456
 NAB=   156 NAA=    78 NBB=    66.
 DD1Dir will call FoFMem   1 times, MxPair=       456
 NAB=   156 NAA=    78 NBB=    66.
 MP4(R+Q)= -0.22508919D+00
 Maximum subspace dimension=  5
 A-vector RMS=  1.3279029D-04 Max=  3.2715176D-03 conv= 1.00D-05.
 RLE energy=       -1.3664043283
 E3=        0.21491048D+00        EROMP3=      -0.21217067791D+03
 E4(SDQ)=  -0.17318586D+00        ROMP4(SDQ)=  -0.21234386377D+03
 VARIATIONAL ENERGIES WITH THE FIRST-ORDER WAVEFUNCTION:
 DE(Corr)=  -1.3663298     E(Corr)=     -212.39565446    
 NORM(A)=   0.10969964D+01
 Iteration Nr.   2
 **********************
 DD1Dir will call FoFMem   1 times, MxPair=       456
 NAB=   156 NAA=    78 NBB=    66.
 A-vector RMS=  4.5575865D-03 Max=  5.7709880D-02 conv= 1.00D-05.
 RLE energy=       -1.3270169770
 DE(Corr)=  -1.1356321     E(CORR)=     -212.16495673     Delta= 2.31D-01
 NORM(A)=   0.10893243D+01
 Iteration Nr.   3
 **********************
 DD1Dir will call FoFMem   1 times, MxPair=       456
 NAB=   156 NAA=    78 NBB=    66.
 A-vector RMS=  3.2679998D-03 Max=  4.3230951D-02 conv= 1.00D-05.
 RLE energy=       -1.2812791346
 DE(Corr)=  -1.1578583     E(CORR)=     -212.18718289     Delta=-2.22D-02
 NORM(A)=   0.10853523D+01
 Iteration Nr.   4
 **********************
 DD1Dir will call FoFMem   1 times, MxPair=       456
 NAB=   156 NAA=    78 NBB=    66.
 A-vector RMS=  2.5481050D-03 Max=  3.7059920D-02 conv= 1.00D-05.
 RLE energy=       -1.1288420261
 DE(Corr)=  -1.1861190     E(CORR)=     -212.21544360     Delta=-2.83D-02
 NORM(A)=   0.11226686D+01
 Iteration Nr.   5
 **********************
 DD1Dir will call FoFMem   1 times, MxPair=       456
 NAB=   156 NAA=    78 NBB=    66.
 A-vector RMS=  3.4718913D-03 Max=  3.9621946D-02 conv= 1.00D-05.
 RLE energy=       -1.2365636915
 DE(Corr)=  -1.3101096     E(CORR)=     -212.33943422     Delta=-1.24D-01
 NORM(A)=   0.11274435D+01
 Iteration Nr.   6
 **********************
 DD1Dir will call FoFMem   1 times, MxPair=       456
 NAB=   156 NAA=    78 NBB=    66.
 A-vector RMS=  1.0008245D-03 Max=  1.6660688D-02 conv= 1.00D-05.
 RLE energy=       -1.2407648110
 DE(Corr)=  -1.2343589     E(CORR)=     -212.26368348     Delta= 7.58D-02
 NORM(A)=   0.11248214D+01
 Iteration Nr.   7
 **********************
 DD1Dir will call FoFMem   1 times, MxPair=       456
 NAB=   156 NAA=    78 NBB=    66.
 A-vector RMS=  3.2637257D-04 Max=  4.5796445D-03 conv= 1.00D-05.
 RLE energy=       -1.2340415737
 DE(Corr)=  -1.2306880     E(CORR)=     -212.26001263     Delta= 3.67D-03
 NORM(A)=   0.11291958D+01
 Iteration Nr.   8
 **********************
 DD1Dir will call FoFMem   1 times, MxPair=       456
 NAB=   156 NAA=    78 NBB=    66.
 A-vector RMS=  2.7055697D-04 Max=  4.0560197D-03 conv= 1.00D-05.
 RLE energy=       -1.2342998333
 DE(Corr)=  -1.2351100     E(CORR)=     -212.26443466     Delta=-4.42D-03
 NORM(A)=   0.11329046D+01
 Iteration Nr.   9
 **********************
 DD1Dir will call FoFMem   1 times, MxPair=       456
 NAB=   156 NAA=    78 NBB=    66.
 A-vector RMS=  1.3893368D-04 Max=  1.8028465D-03 conv= 1.00D-05.
 RLE energy=       -1.2348525438
 DE(Corr)=  -1.2346845     E(CORR)=     -212.26400913     Delta= 4.26D-04
 NORM(A)=   0.11362185D+01
 Iteration Nr.  10
 **********************
 DD1Dir will call FoFMem   1 times, MxPair=       456
 NAB=   156 NAA=    78 NBB=    66.
 A-vector RMS=  7.7153262D-05 Max=  9.3468447D-04 conv= 1.00D-05.
 RLE energy=       -1.2351163685
 DE(Corr)=  -1.2349059     E(CORR)=     -212.26423051     Delta=-2.21D-04
 NORM(A)=   0.11369536D+01
 Iteration Nr.  11
 **********************
 DD1Dir will call FoFMem   1 times, MxPair=       456
 NAB=   156 NAA=    78 NBB=    66.
 A-vector RMS=  4.7601066D-05 Max=  7.7138766D-04 conv= 1.00D-05.
 RLE energy=       -1.2347835508
 DE(Corr)=  -1.2348846     E(CORR)=     -212.26420928     Delta= 2.12D-05
 NORM(A)=   0.11369397D+01
 Iteration Nr.  12
 **********************
 DD1Dir will call FoFMem   1 times, MxPair=       456
 NAB=   156 NAA=    78 NBB=    66.
 A-vector RMS=  2.8967042D-05 Max=  4.9042399D-04 conv= 1.00D-05.
 RLE energy=       -1.2351000845
 DE(Corr)=  -1.2350448     E(CORR)=     -212.26436946     Delta=-1.60D-04
 NORM(A)=   0.11367791D+01
 Iteration Nr.  13
 **********************
 DD1Dir will call FoFMem   1 times, MxPair=       456
 NAB=   156 NAA=    78 NBB=    66.
 A-vector RMS=  1.8961584D-05 Max=  2.4004018D-04 conv= 1.00D-05.
 RLE energy=       -1.2348683139
 DE(Corr)=  -1.2347922     E(CORR)=     -212.26411684     Delta= 2.53D-04
 NORM(A)=   0.11367128D+01
 Iteration Nr.  14
 **********************
 DD1Dir will call FoFMem   1 times, MxPair=       456
 NAB=   156 NAA=    78 NBB=    66.
 A-vector RMS=  1.2433706D-05 Max=  2.0875215D-04 conv= 1.00D-05.
 RLE energy=       -1.2349193169
 DE(Corr)=  -1.2349620     E(CORR)=     -212.26428668     Delta=-1.70D-04
 NORM(A)=   0.11366433D+01
 Iteration Nr.  15
 **********************
 DD1Dir will call FoFMem   1 times, MxPair=       456
 NAB=   156 NAA=    78 NBB=    66.
 A-vector RMS=  7.8321324D-06 Max=  1.7623846D-04 conv= 1.00D-05.
 RLE energy=       -1.2348977725
 DE(Corr)=  -1.2348864     E(CORR)=     -212.26421103     Delta= 7.57D-05
 NORM(A)=   0.11365946D+01
 Iteration Nr.  16
 **********************
 DD1Dir will call FoFMem   1 times, MxPair=       456
 NAB=   156 NAA=    78 NBB=    66.
 A-vector RMS=  6.0882028D-06 Max=  1.1832339D-04 conv= 1.00D-05.
 RLE energy=       -1.2348916915
 DE(Corr)=  -1.2348950     E(CORR)=     -212.26421968     Delta=-8.65D-06
 NORM(A)=   0.11365554D+01
 Iteration Nr.  17
 **********************
 DD1Dir will call FoFMem   1 times, MxPair=       456
 NAB=   156 NAA=    78 NBB=    66.
 A-vector RMS=  5.3071814D-06 Max=  1.1812978D-04 conv= 1.00D-05.
 RLE energy=       -1.2348845505
 DE(Corr)=  -1.2348949     E(CORR)=     -212.26421954     Delta= 1.32D-07
 NORM(A)=   0.11365063D+01
 Iteration Nr.  18
 **********************
 DD1Dir will call FoFMem   1 times, MxPair=       456
 NAB=   156 NAA=    78 NBB=    66.
 A-vector RMS=  4.1413233D-06 Max=  6.5967045D-05 conv= 1.00D-05.
 RLE energy=       -1.2348931593
 DE(Corr)=  -1.2348908     E(CORR)=     -212.26421545     Delta= 4.09D-06
 NORM(A)=   0.11364655D+01
 Iteration Nr.  19
 **********************
 DD1Dir will call FoFMem   1 times, MxPair=       456
 NAB=   156 NAA=    78 NBB=    66.
 A-vector RMS=  3.3604610D-06 Max=  6.0761971D-05 conv= 1.00D-05.
 RLE energy=       -1.2348744868
 DE(Corr)=  -1.2348762     E(CORR)=     -212.26420081     Delta= 1.46D-05
 NORM(A)=   0.11364609D+01
 Iteration Nr.  20
 **********************
 DD1Dir will call FoFMem   1 times, MxPair=       456
 NAB=   156 NAA=    78 NBB=    66.
 A-vector RMS=  2.1415155D-06 Max=  3.7132814D-05 conv= 1.00D-05.
 RLE energy=       -1.2348905612
 DE(Corr)=  -1.2348951     E(CORR)=     -212.26421975     Delta=-1.89D-05
 NORM(A)=   0.11364493D+01
 Iteration Nr.  21
 **********************
 DD1Dir will call FoFMem   1 times, MxPair=       456
 NAB=   156 NAA=    78 NBB=    66.
 A-vector RMS=  1.4987774D-06 Max=  1.7016746D-05 conv= 1.00D-05.
 RLE energy=       -1.2348843556
 DE(Corr)=  -1.2348792     E(CORR)=     -212.26420386     Delta= 1.59D-05
 NORM(A)=   0.11364496D+01
 Iteration Nr.  22
 **********************
 DD1Dir will call FoFMem   1 times, MxPair=       456
 NAB=   156 NAA=    78 NBB=    66.
 A-vector RMS=  1.3236898D-06 Max=  2.2622841D-05 conv= 1.00D-05.
 RLE energy=       -1.2348837087
 DE(Corr)=  -1.2348851     E(CORR)=     -212.26420976     Delta=-5.90D-06
 NORM(A)=   0.11364499D+01
 Iteration Nr.  23
 **********************
 DD1Dir will call FoFMem   1 times, MxPair=       456
 NAB=   156 NAA=    78 NBB=    66.
 A-vector RMS=  8.5538301D-07 Max=  1.3041660D-05 conv= 1.00D-05.
 RLE energy=       -1.2348853113
 DE(Corr)=  -1.2348865     E(CORR)=     -212.26421110     Delta=-1.35D-06
 NORM(A)=   0.11364502D+01
 Iteration Nr.  24
 **********************
 DD1Dir will call FoFMem   1 times, MxPair=       456
 NAB=   156 NAA=    78 NBB=    66.
 A-vector RMS=  4.5198214D-07 Max=  7.8389045D-06 conv= 1.00D-05.
 RLE energy=       -1.2348858710
 DE(Corr)=  -1.2348851     E(CORR)=     -212.26420975     Delta= 1.36D-06
 NORM(A)=   0.11364517D+01
 Iteration Nr.  25
 **********************
 DD1Dir will call FoFMem   1 times, MxPair=       456
 NAB=   156 NAA=    78 NBB=    66.
 A-vector RMS=  3.6807385D-07 Max=  6.0964250D-06 conv= 1.00D-05.
 RLE energy=       -1.2348843016
 DE(Corr)=  -1.2348848     E(CORR)=     -212.26420940     Delta= 3.42D-07
 NORM(A)=   0.11364543D+01
 Iteration Nr.  26
 **********************
 DD1Dir will call FoFMem   1 times, MxPair=       456
 NAB=   156 NAA=    78 NBB=    66.
 A-vector RMS=  3.1533237D-07 Max=  4.8110499D-06 conv= 1.00D-05.
 RLE energy=       -1.2348864292
 DE(Corr)=  -1.2348868     E(CORR)=     -212.26421142     Delta=-2.02D-06
 NORM(A)=   0.11364557D+01
 Iteration Nr.  27
 **********************
 DD1Dir will call FoFMem   1 times, MxPair=       456
 NAB=   156 NAA=    78 NBB=    66.
 A-vector RMS=  2.5779460D-07 Max=  3.8563142D-06 conv= 1.00D-05.
 RLE energy=       -1.2348855276
 DE(Corr)=  -1.2348850     E(CORR)=     -212.26420964     Delta= 1.78D-06
 NORM(A)=   0.11364572D+01
 Iteration Nr.  28
 **********************
 DD1Dir will call FoFMem   1 times, MxPair=       456
 NAB=   156 NAA=    78 NBB=    66.
 A-vector RMS=  1.8376259D-07 Max=  3.1840758D-06 conv= 1.00D-05.
 RLE energy=       -1.2348855619
 DE(Corr)=  -1.2348860     E(CORR)=     -212.26421066     Delta=-1.02D-06
 NORM(A)=   0.11364585D+01
 Iteration Nr.  29
 **********************
 DD1Dir will call FoFMem   1 times, MxPair=       456
 NAB=   156 NAA=    78 NBB=    66.
 A-vector RMS=  1.7515367D-07 Max=  2.9968610D-06 conv= 1.00D-05.
 RLE energy=       -1.2348860587
 DE(Corr)=  -1.2348863     E(CORR)=     -212.26421088     Delta=-2.24D-07
 NORM(A)=   0.11364589D+01
 Iteration Nr.  30
 **********************
 DD1Dir will call FoFMem   1 times, MxPair=       456
 NAB=   156 NAA=    78 NBB=    66.
 A-vector RMS=  1.3089382D-07 Max=  2.3533999D-06 conv= 1.00D-05.
 RLE energy=       -1.2348860941
 DE(Corr)=  -1.2348858     E(CORR)=     -212.26421047     Delta= 4.14D-07
 NORM(A)=   0.11364597D+01
 Iteration Nr.  31
 **********************
 DD1Dir will call FoFMem   1 times, MxPair=       456
 NAB=   156 NAA=    78 NBB=    66.
 A-vector RMS=  7.6856202D-08 Max=  1.8132417D-06 conv= 1.00D-05.
 RLE energy=       -1.2348858306
 DE(Corr)=  -1.2348859     E(CORR)=     -212.26421052     Delta=-5.30D-08
 NORM(A)=   0.11364602D+01
 CI/CC converged in   31 iterations to DelEn=-5.30D-08 Conv= 1.00D-07 ErrA1= 7.69D-08 Conv= 1.00D-05
 Wavefunction amplitudes converged. E(Corr)=     -212.26421052    
 Dominant configurations:
 ***********************
 Spin Case        I    J    A    B          Value
    BB           12        13            0.131011D+00
    BB           10        18           -0.107751D+00
 Largest amplitude= 1.31D-01
 Time for triples=   200730.77 seconds.
 T4(CCSD)= -0.67782819D-01
 T5(CCSD)=  0.17114173D-01
 CCSD(T)= -0.21231487917D+03
 Discarding MO integrals.
 Leave Link  913 at Sun May  6 00:10:02 2018, MaxMem= 10737418240 cpu:          266999.7 elap:            8391.7
 (Enter /home1/apps/gaussian/16rA.03/g16/l601.exe)
 Copying SCF densities to generalized density rwf, IOpCl= 0 IROHF=1.

 **********************************************************************

            Population analysis using the SCF density.

 **********************************************************************

 Orbital symmetries:
       Occupied  (SG) (SG) (PI) (PI) (SG) (?A) (SG) (?A) (DLTA)
                 (DLTA) (?A) (SG) (?A)
       Virtual   (SG) (PI) (PI) (SG) (SG) (PI) (PI) (?B) (?B) (?B)
                 (SG) (PI) (PI) (SG) (SG) (PI) (PI) (PI) (PI) (SG)
                 (?C) (?C) (?C) (PI) (PI) (?D) (?D) (?D) (?D) (PI)
                 (PI) (SG) (PI) (PI) (SG) (?E) (?E) (?E) (?E) (SG)
                 (DLTA) (DLTA) (PI) (PI) (DLTA) (DLTA) (SG) (PI)
                 (PI) (?F) (PHI) (PHI) (?F) (?F) (?F) (PI) (?F)
                 (?F) (PI) (?F) (SG) (PI) (PI) (SG) (PI) (PI) (PI)
                 (SG) (PI) (DLTA) (DLTA) (PHI) (PHI) (PI) (DLTA)
                 (DLTA) (PI) (SG) (PI) (PI) (PHI) (PHI) (?G) (?G)
                 (?H) (?H) (?H) (?G) (?G) (?I) (?J) (?J) (?J) (?J)
                 (SG) (?J) (?J) (?I) (?I) (?I) (PI) (?I) (?I) (PI)
                 (?I) (?I) (?I) (PI) (PI) (SG) (PI) (PI) (SG) (PI)
                 (PI) (SG) (DLTA) (DLTA) (PI) (PI) (SG) (PHI) (PHI)
                 (DLTA) (DLTA) (PI) (PI) (SG) (SG) (?G) (?G) (PHI)
                 (PHI) (DLTA) (DLTA) (?A) (?A) (?G) (?G) (?K) (?K)
                 (PHI) (PHI) (?A) (?A) (DLTA) (DLTA) (SG) (PI)
                 (PI) (SG) (?L) (?L) (PHI) (PHI) (?L) (?L) (?L)
                 (PI) (PI) (?L) (PHI) (PHI) (?L) (?L) (?L) (?L)
                 (?L) (PI) (PI) (PI) (PI) (SG) (DLTA) (DLTA) (PI)
                 (PI) (SG) (PI) (PI) (SG) (SG) (PHI) (PHI) (DLTA)
                 (DLTA) (PI) (PI) (SG) (?G) (?G) (PHI) (PHI) (DLTA)
                 (DLTA) (PI) (PI) (SG) (?G) (?G) (?K) (?K) (PHI)
                 (PHI) (DLTA) (DLTA) (SG) (PI) (PI) (SG) (DLTA)
                 (DLTA) (PI) (PI) (SG) (PI) (PI) (SG) (PI) (PI)
                 (SG) (SG) (PHI) (PHI) (DLTA) (DLTA) (PI) (PI)
                 (SG) (DLTA) (DLTA) (PI) (PI) (SG) (DLTA) (DLTA)
                 (PI) (PI) (SG) (SG) (PI) (PI) (?G) (?G) (PHI)
                 (PHI) (DLTA) (DLTA) (PI) (PI) (SG) (SG) (?K) (?K)
                 (?G) (?G) (PHI) (PHI) (DLTA) (DLTA) (PI) (PI)
                 (SG) (SG) (PI) (PI) (SG) (DLTA) (DLTA) (PI) (PI)
                 (SG) (PI) (PI) (SG) (?E) (?E) (?L) (?L) (?E) (?E)
                 (?L) (SG) (SG) (DLTA) (DLTA) (PI) (PI) (SG) (PI)
                 (PI) (SG) (PI) (PI) (SG) (DLTA) (DLTA) (PI) (PI)
                 (SG) (SG) (SG) (PI) (PI) (SG) (DLTA) (DLTA) (PI)
                 (PI) (SG) (PI) (PI) (SG) (SG) (SG) (PI) (PI) (SG)
                 (SG) (DLTA) (DLTA) (PI) (PI) (SG) (SG) (PI) (PI)
                 (SG) (PI) (PI) (SG) (SG) (SG) (PI) (PI) (SG) (DLTA)
                 (DLTA) (PI) (PI) (SG) (SG) (SG) (PI) (PI) (SG)
                 (SG) (SG) (PI) (PI) (SG) (SG) (PI) (PI) (SG) (SG)
                 (SG) (PI) (PI) (SG) (SG) (SG) (PI) (PI) (SG) (SG)
                 (SG) (SG) (SG) (SG)
 Unable to determine electronic state:  an orbital has unidentified symmetry.
 Alpha  occ. eigenvalues --   -5.26584  -3.44027  -3.43175  -3.42741  -1.26290
 Alpha  occ. eigenvalues --   -0.61109  -0.57677  -0.56674  -0.53113  -0.53111
 Alpha  occ. eigenvalues --   -0.47822  -0.42149  -0.39273
 Alpha virt. eigenvalues --   -0.00844   0.02614   0.02747   0.03590   0.04583
 Alpha virt. eigenvalues --    0.09092   0.09391   0.11903   0.13525   0.13535
 Alpha virt. eigenvalues --    0.14373   0.14407   0.14853   0.19122   0.21536
 Alpha virt. eigenvalues --    0.22596   0.23103   0.26830   0.27348   0.33848
 Alpha virt. eigenvalues --    0.42161   0.43801   0.43807   0.45019   0.45890
 Alpha virt. eigenvalues --    0.55653   0.56504   0.56762   0.63698   0.64279
 Alpha virt. eigenvalues --    0.65247   0.66620   0.80767   0.81685   0.93188
 Alpha virt. eigenvalues --    0.93243   0.96166   0.97621   0.97635   0.98043
 Alpha virt. eigenvalues --    1.09072   1.09074   1.16144   1.16605   1.19356
 Alpha virt. eigenvalues --    1.19362   1.23827   1.29724   1.31445   1.42432
 Alpha virt. eigenvalues --    1.43952   1.43952   1.60701   1.61767   1.62457
 Alpha virt. eigenvalues --    1.71821   1.72754   1.72768   1.73745   1.80036
 Alpha virt. eigenvalues --    2.15522   2.17517   2.20103   2.42057   2.45046
 Alpha virt. eigenvalues --    2.45717   2.80764   2.85653   2.85782   2.92481
 Alpha virt. eigenvalues --    2.92483   2.94345   2.94345   2.96541   2.97075
 Alpha virt. eigenvalues --    2.97078   2.97410   3.08799   3.20265   3.22247
 Alpha virt. eigenvalues --    3.30582   3.30584   3.39362   3.39362   3.41148
 Alpha virt. eigenvalues --    3.61791   3.61812   3.73546   3.73546   3.93222
 Alpha virt. eigenvalues --    4.04716   4.05265   4.05481   4.07373   4.09897
 Alpha virt. eigenvalues --    4.14457   4.14497   4.28181   4.29945   4.31361
 Alpha virt. eigenvalues --    4.35865   4.36782   4.36963   4.38913   4.60652
 Alpha virt. eigenvalues --    4.82367   4.82386   4.86063   4.90031   5.35581
 Alpha virt. eigenvalues --    5.63638   5.66626   5.88546   6.44075   6.44632
 Alpha virt. eigenvalues --    6.59705   6.73722   6.73723   6.85280   6.85910
 Alpha virt. eigenvalues --    7.07293   7.52482   7.52482   7.64117   7.64119
 Alpha virt. eigenvalues --    8.05193   8.06187   8.49026   9.12497   9.14121
 Alpha virt. eigenvalues --    9.14121   9.19125   9.19125   9.26272   9.26279
 Alpha virt. eigenvalues --    9.27149   9.30385   9.33055   9.33055   9.33501
 Alpha virt. eigenvalues --    9.33501   9.38474   9.38474   9.42281   9.45692
 Alpha virt. eigenvalues --    9.77487   9.77492   9.87807  10.12320  10.15069
 Alpha virt. eigenvalues --   10.36535  10.68174  10.68174  10.76924  10.76927
 Alpha virt. eigenvalues --   10.86790  10.93552  10.93817  11.29162  11.33368
 Alpha virt. eigenvalues --   11.43986  11.91518  11.91518  12.08639  12.08672
 Alpha virt. eigenvalues --   12.65876  12.67065  12.68048  12.68138  12.72948
 Alpha virt. eigenvalues --   13.08193  13.13526  13.46178  13.82388  13.82390
 Alpha virt. eigenvalues --   13.87781  13.88211  13.88698  14.18705  14.19381
 Alpha virt. eigenvalues --   14.74891  15.04128  18.39525  18.39525  18.48372
 Alpha virt. eigenvalues --   18.48373  18.89546  18.90039  19.38171  21.62079
 Alpha virt. eigenvalues --   21.62079  21.66253  21.66253  21.79771  21.79775
 Alpha virt. eigenvalues --   21.90196  21.90626  21.95215  23.47304  23.47304
 Alpha virt. eigenvalues --   23.47368  23.47368  23.49932  23.49932  23.63139
 Alpha virt. eigenvalues --   23.63142  23.76963  23.91713  23.92159  24.66185
 Alpha virt. eigenvalues --   25.91947  25.91947  26.01132  26.01576  26.13481
 Alpha virt. eigenvalues --   27.28154  27.28678  27.81245  27.94119  28.00508
 Alpha virt. eigenvalues --   29.16789  34.34825  45.03523  45.03523  45.09970
 Alpha virt. eigenvalues --   45.09972  45.29173  45.29581  45.39724  45.43707
 Alpha virt. eigenvalues --   45.43708  45.60909  45.61356  45.81903  46.70652
 Alpha virt. eigenvalues --   46.70699  46.92032  46.95919  47.60525  49.23975
 Alpha virt. eigenvalues --   49.27247  49.27728  49.70319  49.70319  49.73600
 Alpha virt. eigenvalues --   49.73600  49.83420  49.83425  49.91151  49.91581
 Alpha virt. eigenvalues --   49.97113  52.82204  54.30298  54.30298  54.30897
 Alpha virt. eigenvalues --   54.30897  54.32543  54.32543  54.39396  54.39398
 Alpha virt. eigenvalues --   54.54396  54.54834  54.74024  67.74359  69.39546
 Alpha virt. eigenvalues --   69.44808  70.50278  76.86571  76.86572  76.95034
 Alpha virt. eigenvalues --   76.95487  77.09570  85.23860  85.24329  85.44067
 Alpha virt. eigenvalues --  102.94842 102.94884 102.96553 102.96968 103.01344
 Alpha virt. eigenvalues --  103.04183 103.05321 113.30873 121.13666 133.03496
 Alpha virt. eigenvalues --  133.03496 133.11719 133.12128 133.25200 143.81362
 Alpha virt. eigenvalues --  143.81790 144.01705 154.19660 154.23547 155.13097
 Alpha virt. eigenvalues --  206.71209 206.71233 206.83011 206.84650 207.11227
 Alpha virt. eigenvalues --  209.53316 218.57739 243.74596 243.74939 243.92428
 Alpha virt. eigenvalues --  264.46490 264.46491 264.53771 264.54049 264.65790
 Alpha virt. eigenvalues --  324.45263 324.47835 325.27491 357.52987 381.65730
 Alpha virt. eigenvalues --  423.81253 423.81503 423.94612 611.68797 664.72245
 Alpha virt. eigenvalues --  664.72245 664.77760 664.77884 664.86720 687.22721
 Alpha virt. eigenvalues --  690.73217 690.74573 691.63621 765.21470 765.21635
 Alpha virt. eigenvalues --  765.322021089.582531292.915511450.041021450.04199
 Alpha virt. eigenvalues -- 1450.130452176.561832176.561832176.597732176.59809
 Alpha virt. eigenvalues -- 2176.657002261.931262540.989922922.649562922.65007
 Alpha virt. eigenvalues -- 2922.726225238.970276140.631946366.043986366.04421
 Alpha virt. eigenvalues -- 6366.11071****************************************
 Alpha virt. eigenvalues -- **************************************************
 Alpha virt. eigenvalues -- **************************************************
 Alpha virt. eigenvalues -- **************************************************
     Molecular Orbital Coefficients:
                           8         9        10        11        12
                           O         O         O         O         O
     Eigenvalues --    -0.56674  -0.53113  -0.53111  -0.47822  -0.42149
   1 1   Cu 1S          0.00000   0.00000   0.00000   0.00000   0.00000
   2        2S          0.00000  -0.00000   0.00000   0.00000  -0.00000
   3        3S          0.00000   0.00000   0.00000   0.00000   0.00000
   4        4S          0.00000  -0.00000   0.00000   0.00000  -0.00000
   5        5S          0.00000   0.00000   0.00000   0.00000   0.00000
   6        6S          0.00000  -0.00000   0.00000   0.00000  -0.00000
   7        7S          0.00000   0.00000   0.00000   0.00000   0.00000
   8        8S          0.00000  -0.00000   0.00000   0.00000  -0.00000
   9        9S          0.00000   0.00000   0.00000   0.00000   0.00001
  10       10S          0.00000  -0.00000   0.00000   0.00000  -0.00004
  11       11S          0.00000   0.00000   0.00000   0.00000   0.00012
  12       12S          0.00000  -0.00001   0.00000   0.00000  -0.00039
  13       13S          0.00000   0.00004   0.00000   0.00000   0.00185
  14       14S          0.00000  -0.00031   0.00000   0.00000  -0.01425
  15       15S          0.00000   0.00052   0.00000   0.00000   0.02492
  16       16S          0.00000   0.00255   0.00000   0.00000   0.12141
  17       17S          0.00000  -0.00095   0.00000   0.00000  -0.04722
  18       18S          0.00000  -0.00315   0.00000   0.00000  -0.15930
  19       19S          0.00000  -0.00249   0.00000   0.00000  -0.11590
  20       20S          0.00000   0.00409   0.00000   0.00000   0.21326
  21       21S          0.00000   0.00127   0.00000   0.00000   0.21634
  22       22S          0.00000  -0.00002   0.00000   0.00000   0.02905
  23       23S          0.00000  -0.00140   0.00000   0.00000  -0.06817
  24       24S          0.00000   0.00004   0.00000   0.00000   0.00591
  25       25S          0.00000   0.00002   0.00000   0.00000   0.00049
  26       26PX         0.00000   0.00000   0.00000   0.00000   0.00000
  27       26PY         0.00000   0.00000   0.00000   0.00000   0.00000
  28       26PZ         0.00000  -0.00000   0.00000   0.00000  -0.00000
  29       27PX        -0.00000   0.00000   0.00000   0.00000   0.00000
  30       27PY         0.00000   0.00000   0.00000  -0.00000   0.00000
  31       27PZ         0.00000   0.00000   0.00000   0.00000   0.00000
  32       28PX         0.00000   0.00000   0.00000   0.00000   0.00000
  33       28PY         0.00000   0.00000   0.00000   0.00000   0.00000
  34       28PZ         0.00000  -0.00000   0.00000   0.00000  -0.00000
  35       29PX        -0.00000   0.00000   0.00000   0.00000   0.00000
  36       29PY         0.00000   0.00000   0.00000  -0.00000   0.00000
  37       29PZ         0.00000   0.00000   0.00000   0.00000   0.00000
  38       30PX         0.00000   0.00000   0.00000   0.00000   0.00000
  39       30PY         0.00000   0.00000   0.00000   0.00000   0.00000
  40       30PZ         0.00000  -0.00000   0.00000   0.00000  -0.00000
  41       31PX        -0.00000   0.00000   0.00000   0.00000   0.00000
  42       31PY         0.00000   0.00000   0.00000  -0.00001   0.00000
  43       31PZ         0.00000   0.00000   0.00000   0.00000   0.00002
  44       32PX         0.00001   0.00000   0.00000   0.00000   0.00000
  45       32PY         0.00000   0.00000   0.00000   0.00005   0.00000
  46       32PZ         0.00000  -0.00000   0.00000   0.00000  -0.00006
  47       33PX        -0.00002   0.00000   0.00000   0.00000   0.00000
  48       33PY         0.00000   0.00000   0.00000  -0.00018   0.00000
  49       33PZ         0.00000   0.00001   0.00000   0.00000   0.00023
  50       34PX        -0.00001   0.00000   0.00000   0.00000   0.00000
  51       34PY         0.00000   0.00000   0.00000   0.00009   0.00000
  52       34PZ         0.00000   0.00000   0.00000   0.00000  -0.00000
  53       35PX         0.00058   0.00000   0.00000   0.00000   0.00000
  54       35PY         0.00000   0.00000   0.00000   0.00345   0.00000
  55       35PZ         0.00000  -0.00022   0.00000   0.00000  -0.00569
  56       36PX         0.00044   0.00000   0.00000   0.00000   0.00000
  57       36PY         0.00000   0.00000   0.00000  -0.00195   0.00000
  58       36PZ         0.00000  -0.00023   0.00000   0.00000  -0.00146
  59       37PX        -0.00205   0.00000   0.00000   0.00000   0.00000
  60       37PY         0.00000   0.00000   0.00000  -0.01051   0.00000
  61       37PZ         0.00000   0.00079   0.00000   0.00000   0.01842
  62       38PX        -0.00481   0.00000   0.00000   0.00000   0.00000
  63       38PY         0.00000   0.00000   0.00000  -0.01216   0.00000
  64       38PZ         0.00000   0.00135   0.00000   0.00000   0.02530
  65       39PX        -0.00397   0.00000   0.00000   0.00000   0.00000
  66       39PY         0.00000   0.00000   0.00000  -0.03207   0.00000
  67       39PZ         0.00000   0.00146   0.00000   0.00000   0.04716
  68       40PX         0.00013   0.00000   0.00000   0.00000   0.00000
  69       40PY         0.00000   0.00000   0.00000  -0.00255   0.00000
  70       40PZ         0.00000   0.00016   0.00000   0.00000   0.00550
  71       41PX         0.01420   0.00000   0.00000   0.00000   0.00000
  72       41PY         0.00000   0.00000   0.00000   0.04229   0.00000
  73       41PZ         0.00000  -0.00289   0.00000   0.00000  -0.06897
  74       42PX         0.01115   0.00000   0.00000   0.00000   0.00000
  75       42PY         0.00000   0.00000   0.00000   0.04259   0.00000
  76       42PZ         0.00000  -0.00125   0.00000   0.00000  -0.03582
  77       43PX        -0.00327   0.00000   0.00000   0.00000   0.00000
  78       43PY         0.00000   0.00000   0.00000   0.00270   0.00000
  79       43PZ         0.00000  -0.00010   0.00000   0.00000   0.00132
  80       44PX        -0.00005   0.00000   0.00000   0.00000   0.00000
  81       44PY         0.00000   0.00000   0.00000   0.00349   0.00000
  82       44PZ         0.00000   0.00011   0.00000   0.00000  -0.00131
  83       45PX         0.00057   0.00000   0.00000   0.00000   0.00000
  84       45PY         0.00000   0.00000   0.00000  -0.01552   0.00000
  85       45PZ         0.00000  -0.00006   0.00000   0.00000   0.01364
  86       46PX         0.00033   0.00000   0.00000   0.00000   0.00000
  87       46PY         0.00000   0.00000   0.00000  -0.00153   0.00000
  88       46PZ         0.00000  -0.00002   0.00000   0.00000  -0.00115
  89       47D 0        0.00000   0.00000   0.00000   0.00000  -0.00002
  90       47D+1        0.00003   0.00000   0.00000   0.00000   0.00000
  91       47D-1        0.00000   0.00000   0.00000   0.00002   0.00000
  92       47D+2        0.00000   0.00003   0.00000   0.00000  -0.00000
  93       47D-2        0.00000   0.00000   0.00003   0.00000   0.00000
  94       48D 0        0.00000  -0.00000   0.00000   0.00000   0.00013
  95       48D+1       -0.00020   0.00000   0.00000   0.00000   0.00000
  96       48D-1        0.00000   0.00000   0.00000  -0.00010   0.00000
  97       48D+2        0.00000  -0.00021   0.00000   0.00000   0.00000
  98       48D-2        0.00000   0.00000  -0.00021   0.00000   0.00000
  99       49D 0        0.00000   0.00015   0.00000   0.00000  -0.00671
 100       49D+1        0.01085   0.00000   0.00000   0.00000   0.00000
 101       49D-1        0.00000   0.00000   0.00000   0.00541   0.00000
 102       49D+2        0.00000   0.01107   0.00000   0.00000  -0.00013
 103       49D-2        0.00000   0.00000   0.01107   0.00000   0.00000
 104       50D 0        0.00000   0.00070   0.00000   0.00000  -0.03147
 105       50D+1        0.05106   0.00000   0.00000   0.00000   0.00000
 106       50D-1        0.00000   0.00000   0.00000   0.02549   0.00000
 107       50D+2        0.00000   0.05206   0.00000   0.00000  -0.00063
 108       50D-2        0.00000   0.00000   0.05209   0.00000   0.00000
 109       51D 0        0.00000   0.00124   0.00000   0.00000  -0.05818
 110       51D+1        0.09349   0.00000   0.00000   0.00000   0.00000
 111       51D-1        0.00000   0.00000   0.00000   0.04656   0.00000
 112       51D+2        0.00000   0.09548   0.00000   0.00000  -0.00118
 113       51D-2        0.00000   0.00000   0.09553   0.00000   0.00000
 114       52D 0        0.00000   0.00180   0.00000   0.00000  -0.09754
 115       52D+1        0.15239   0.00000   0.00000   0.00000   0.00000
 116       52D-1        0.00000   0.00000   0.00000   0.07466   0.00000
 117       52D+2        0.00000   0.15625   0.00000   0.00000  -0.00208
 118       52D-2        0.00000   0.00000   0.15633   0.00000   0.00000
 119       53D 0        0.00000   0.00351   0.00000   0.00000  -0.16646
 120       53D+1        0.26735   0.00000   0.00000   0.00000   0.00000
 121       53D-1        0.00000   0.00000   0.00000   0.13184   0.00000
 122       53D+2        0.00000   0.27266   0.00000   0.00000  -0.00341
 123       53D-2        0.00000   0.00000   0.27279   0.00000   0.00000
 124       54D 0        0.00000   0.00409   0.00000   0.00000  -0.18149
 125       54D+1        0.29199   0.00000   0.00000   0.00000   0.00000
 126       54D-1        0.00000   0.00000   0.00000   0.14567   0.00000
 127       54D+2        0.00000   0.29694   0.00000   0.00000  -0.00349
 128       54D-2        0.00000   0.00000   0.29709   0.00000   0.00000
 129       55D 0        0.00000   0.00336   0.00000   0.00000  -0.14379
 130       55D+1        0.23573   0.00000   0.00000   0.00000   0.00000
 131       55D-1        0.00000   0.00000   0.00000   0.11126   0.00000
 132       55D+2        0.00000   0.23811   0.00000   0.00000  -0.00300
 133       55D-2        0.00000   0.00000   0.23822   0.00000   0.00000
 134       56D 0        0.00000   0.00269   0.00000   0.00000  -0.08110
 135       56D+1        0.14323   0.00000   0.00000   0.00000   0.00000
 136       56D-1        0.00000   0.00000   0.00000   0.06554   0.00000
 137       56D+2        0.00000   0.14638   0.00000   0.00000  -0.00113
 138       56D-2        0.00000   0.00000   0.14645   0.00000   0.00000
 139       57D 0        0.00000   0.00071   0.00000   0.00000  -0.03953
 140       57D+1        0.03827   0.00000   0.00000   0.00000   0.00000
 141       57D-1        0.00000   0.00000   0.00000   0.02296   0.00000
 142       57D+2        0.00000   0.04183   0.00000   0.00000   0.00043
 143       57D-2        0.00000   0.00000   0.04185   0.00000   0.00000
 144       58D 0        0.00000   0.00071   0.00000   0.00000  -0.02447
 145       58D+1        0.04251   0.00000   0.00000   0.00000   0.00000
 146       58D-1        0.00000   0.00000   0.00000   0.02181   0.00000
 147       58D+2        0.00000   0.04292   0.00000   0.00000  -0.00043
 148       58D-2        0.00000   0.00000   0.04294   0.00000   0.00000
 149       59D 0        0.00000   0.00083   0.00000   0.00000  -0.02143
 150       59D+1        0.04017   0.00000   0.00000   0.00000   0.00000
 151       59D-1        0.00000   0.00000   0.00000   0.02164   0.00000
 152       59D+2        0.00000   0.04022   0.00000   0.00000  -0.00030
 153       59D-2        0.00000   0.00000   0.04024   0.00000   0.00000
 154       60D 0        0.00000   0.00008   0.00000   0.00000  -0.00482
 155       60D+1        0.00286   0.00000   0.00000   0.00000   0.00000
 156       60D-1        0.00000   0.00000   0.00000   0.00116   0.00000
 157       60D+2        0.00000   0.00061   0.00000   0.00000  -0.00010
 158       60D-2        0.00000   0.00000   0.00061   0.00000   0.00000
 159       61F 0        0.00000  -0.00000   0.00000   0.00000  -0.00027
 160       61F+1        0.00026   0.00000   0.00000   0.00000   0.00000
 161       61F-1        0.00000   0.00000   0.00000   0.00020   0.00000
 162       61F+2        0.00000   0.00022   0.00000   0.00000  -0.00001
 163       61F-2        0.00000   0.00000   0.00022   0.00000   0.00000
 164       61F+3       -0.00000   0.00000   0.00000   0.00000   0.00000
 165       61F-3        0.00000   0.00000   0.00000   0.00000   0.00000
 166       62F 0        0.00000   0.00000   0.00000   0.00000  -0.00090
 167       62F+1        0.00062   0.00000   0.00000   0.00000   0.00000
 168       62F-1        0.00000   0.00000   0.00000   0.00071   0.00000
 169       62F+2        0.00000   0.00057   0.00000   0.00000  -0.00002
 170       62F-2        0.00000   0.00000   0.00057   0.00000   0.00000
 171       62F+3       -0.00001   0.00000   0.00000   0.00000   0.00000
 172       62F-3        0.00000   0.00000   0.00000  -0.00001   0.00000
 173       63F 0        0.00000   0.00000   0.00000   0.00000  -0.00224
 174       63F+1        0.00163   0.00000   0.00000   0.00000   0.00000
 175       63F-1        0.00000   0.00000   0.00000   0.00190   0.00000
 176       63F+2        0.00000   0.00149   0.00000   0.00000  -0.00014
 177       63F-2        0.00000   0.00000   0.00149   0.00000   0.00000
 178       63F+3        0.00000   0.00000   0.00000   0.00000   0.00000
 179       63F-3        0.00000   0.00000   0.00000   0.00002   0.00000
 180       64F 0        0.00000   0.00003   0.00000   0.00000  -0.00939
 181       64F+1        0.00340   0.00000   0.00000   0.00000   0.00000
 182       64F-1        0.00000   0.00000   0.00000   0.00798   0.00000
 183       64F+2        0.00000   0.00393   0.00000   0.00000  -0.00020
 184       64F-2        0.00000   0.00000   0.00393   0.00000   0.00000
 185       64F+3       -0.00017   0.00000   0.00000   0.00000   0.00000
 186       64F-3        0.00000   0.00000   0.00000  -0.00008   0.00000
 187       65F 0        0.00000   0.00009   0.00000   0.00000  -0.01337
 188       65F+1        0.00694   0.00000   0.00000   0.00000   0.00000
 189       65F-1        0.00000   0.00000   0.00000   0.00973   0.00000
 190       65F+2        0.00000   0.00571   0.00000   0.00000  -0.00099
 191       65F-2        0.00000   0.00000   0.00572   0.00000   0.00000
 192       65F+3       -0.00022   0.00000   0.00000   0.00000   0.00000
 193       65F-3        0.00000   0.00000   0.00000   0.00014   0.00000
 194       66G 0        0.00000   0.00001   0.00000   0.00000   0.00007
 195       66G+1       -0.00004   0.00000   0.00000   0.00000   0.00000
 196       66G-1        0.00000   0.00000   0.00000  -0.00003   0.00000
 197       66G+2        0.00000  -0.00002   0.00000   0.00000  -0.00001
 198       66G-2        0.00000   0.00000  -0.00002   0.00000   0.00000
 199       66G+3        0.00001   0.00000   0.00000   0.00000   0.00000
 200       66G-3        0.00000   0.00000   0.00000   0.00001   0.00000
 201       66G+4        0.00000   0.00002   0.00000   0.00000  -0.00000
 202       66G-4        0.00000   0.00000   0.00002   0.00000   0.00000
 203       67G 0        0.00000   0.00001   0.00000   0.00000  -0.00004
 204       67G+1       -0.00002   0.00000   0.00000   0.00000   0.00000
 205       67G-1        0.00000   0.00000   0.00000  -0.00003   0.00000
 206       67G+2        0.00000   0.00004   0.00000   0.00000  -0.00001
 207       67G-2        0.00000   0.00000   0.00004   0.00000   0.00000
 208       67G+3        0.00005   0.00000   0.00000   0.00000   0.00000
 209       67G-3        0.00000   0.00000   0.00000   0.00002   0.00000
 210       67G+4        0.00000   0.00007   0.00000   0.00000  -0.00000
 211       67G-4        0.00000   0.00000   0.00007   0.00000   0.00000
 212       68G 0        0.00000   0.00004   0.00000   0.00000   0.00012
 213       68G+1        0.00059   0.00000   0.00000   0.00000   0.00000
 214       68G-1        0.00000   0.00000   0.00000  -0.00002   0.00000
[...]
 164       61F+3        0.00000   0.00000   0.00000  -0.00000
 165       61F-3        0.00000   0.00000   0.00000   0.00000
 166       62F 0        0.00001   0.00001   0.00001   0.00000
 167       62F+1        0.00001   0.00000   0.00000   0.00000
 168       62F-1        0.00001   0.00000   0.00000   0.00000
 169       62F+2        0.00000   0.00000   0.00000   0.00000
 170       62F-2        0.00000   0.00000   0.00000   0.00000
 171       62F+3        0.00000   0.00000   0.00000  -0.00000
 172       62F-3        0.00000   0.00000   0.00000   0.00000
 173       63F 0        0.00015   0.00008   0.00008   0.00000
 174       63F+1        0.00004   0.00003   0.00000   0.00003
 175       63F-1        0.00008   0.00004   0.00004   0.00000
 176       63F+2        0.00001   0.00001   0.00001   0.00000
 177       63F-2        0.00001   0.00001   0.00001   0.00000
 178       63F+3        0.00000   0.00000   0.00000   0.00000
 179       63F-3        0.00000   0.00000   0.00000   0.00000
 180       64F 0        0.00310   0.00155   0.00155   0.00000
 181       64F+1        0.00089   0.00092  -0.00004   0.00096
 182       64F-1        0.00195   0.00097   0.00097  -0.00000
 183       64F+2        0.00006   0.00003   0.00003   0.00000
 184       64F-2        0.00006   0.00003   0.00003   0.00000
 185       64F+3        0.00000   0.00000   0.00000  -0.00000
 186       64F-3        0.00000   0.00000   0.00000  -0.00000
 187       65F 0        0.00138   0.00069   0.00069   0.00000
 188       65F+1        0.00191   0.00215  -0.00024   0.00239
 189       65F-1        0.00570   0.00285   0.00285   0.00000
 190       65F+2        0.00008   0.00004   0.00004   0.00000
 191       65F-2        0.00007   0.00004   0.00004   0.00000
 192       65F+3        0.00000   0.00000   0.00000   0.00000
 193       65F-3        0.00000   0.00000   0.00000  -0.00000
 194       66G 0        0.00000   0.00000   0.00000   0.00000
 195       66G+1       -0.00000   0.00000  -0.00000   0.00000
 196       66G-1        0.00000   0.00000   0.00000   0.00000
 197       66G+2       -0.00000  -0.00000  -0.00000   0.00000
 198       66G-2       -0.00000  -0.00000  -0.00000   0.00000
 199       66G+3        0.00000   0.00000   0.00000   0.00000
 200       66G-3        0.00000   0.00000   0.00000   0.00000
 201       66G+4        0.00000   0.00000   0.00000   0.00000
 202       66G-4        0.00000   0.00000   0.00000   0.00000
 203       67G 0       -0.00000  -0.00000  -0.00000   0.00000
 204       67G+1        0.00000   0.00000  -0.00000   0.00000
 205       67G-1        0.00000   0.00000   0.00000   0.00000
 206       67G+2        0.00000   0.00000   0.00000   0.00000
 207       67G-2        0.00000   0.00000   0.00000   0.00000
 208       67G+3        0.00000   0.00000   0.00000   0.00000
 209       67G-3        0.00000   0.00000   0.00000   0.00000
 210       67G+4        0.00000   0.00000   0.00000  -0.00000
 211       67G-4        0.00000   0.00000   0.00000   0.00000
 212       68G 0        0.00006   0.00003   0.00003   0.00000
 213       68G+1        0.00001   0.00001   0.00000   0.00001
 214       68G-1        0.00002   0.00001   0.00001   0.00000
 215       68G+2        0.00000   0.00000   0.00000   0.00000
 216       68G-2        0.00000   0.00000   0.00000   0.00000
 217       68G+3        0.00000   0.00000   0.00000  -0.00000
 218       68G-3        0.00000   0.00000   0.00000   0.00000
 219       68G+4        0.00000   0.00000   0.00000   0.00000
 220       68G-4        0.00000   0.00000   0.00000   0.00000
 221       69G 0        0.00076   0.00038   0.00038  -0.00000
 222       69G+1        0.00026   0.00023   0.00003   0.00020
 223       69G-1        0.00049   0.00025   0.00025   0.00000
 224       69G+2        0.00000   0.00000   0.00000  -0.00000
 225       69G-2        0.00000   0.00000   0.00000   0.00000
 226       69G+3        0.00000   0.00000   0.00000  -0.00000
 227       69G-3        0.00000   0.00000   0.00000   0.00000
 228       69G+4        0.00000   0.00000   0.00000   0.00000
 229       69G-4        0.00000   0.00000   0.00000   0.00000
 230       70H 0        0.00000   0.00000   0.00000  -0.00000
 231       70H+1        0.00000   0.00000   0.00000   0.00000
 232       70H-1        0.00000   0.00000   0.00000   0.00000
 233       70H+2        0.00000   0.00000   0.00000  -0.00000
 234       70H-2        0.00000   0.00000   0.00000   0.00000
 235       70H+3        0.00000   0.00000   0.00000   0.00000
 236       70H-3        0.00000   0.00000   0.00000   0.00000
 237       70H+4        0.00000   0.00000   0.00000  -0.00000
 238       70H-4        0.00000   0.00000   0.00000   0.00000
 239       70H+5        0.00000   0.00000   0.00000   0.00000
 240       70H-5        0.00000   0.00000   0.00000   0.00000
 241       71H 0       -0.00000  -0.00000  -0.00000   0.00000
 242       71H+1       -0.00000  -0.00000  -0.00000  -0.00000
 243       71H-1       -0.00000  -0.00000  -0.00000   0.00000
 244       71H+2       -0.00000  -0.00000  -0.00000  -0.00000
 245       71H-2       -0.00000  -0.00000  -0.00000   0.00000
 246       71H+3       -0.00000  -0.00000  -0.00000   0.00000
 247       71H-3       -0.00000  -0.00000  -0.00000   0.00000
 248       71H+4       -0.00000  -0.00000  -0.00000   0.00000
 249       71H-4       -0.00000  -0.00000  -0.00000   0.00000
 250       71H+5       -0.00000  -0.00000  -0.00000  -0.00000
 251       71H-5       -0.00000  -0.00000  -0.00000   0.00000
 252       72H 0        0.00006   0.00003   0.00003   0.00000
 253       72H+1        0.00001   0.00001   0.00000   0.00001
 254       72H-1        0.00002   0.00001   0.00001   0.00000
 255       72H+2        0.00000   0.00000   0.00000  -0.00000
 256       72H-2        0.00000   0.00000   0.00000   0.00000
 257       72H+3        0.00000   0.00000   0.00000  -0.00000
 258       72H-3        0.00000   0.00000   0.00000   0.00000
 259       72H+4        0.00000   0.00000   0.00000   0.00000
 260       72H-4        0.00000   0.00000   0.00000   0.00000
 261       72H+5        0.00000   0.00000   0.00000   0.00000
 262       72H-5        0.00000   0.00000   0.00000   0.00000
 263 2   O  1S         -0.00000  -0.00000  -0.00000  -0.00000
 264        2S          0.00000   0.00000   0.00000   0.00000
 265        3S         -0.00000  -0.00000  -0.00000   0.00000
 266        4S          0.00000   0.00000   0.00000   0.00000
 267        5S         -0.00000  -0.00000  -0.00000   0.00000
 268        6S         -0.00008  -0.00004  -0.00004   0.00000
 269        7S         -0.00074  -0.00037  -0.00037   0.00000
 270        8S         -0.09355  -0.04677  -0.04677   0.00000
 271        9S         -0.07705  -0.03853  -0.03853   0.00000
 272       10S          0.43821   0.21911   0.21911   0.00000
 273       11S          1.09444   0.54722   0.54722   0.00000
 274       12S          0.55245   0.27622   0.27622   0.00000
 275       13S          0.05672   0.02836   0.02836   0.00000
 276       14S          0.00044   0.00022   0.00022   0.00000
 277       15S          0.00003   0.00002   0.00002  -0.00000
 278       16S          0.03121   0.01561   0.01561  -0.00000
 279       17PX        -0.00010  -0.00010  -0.00000  -0.00010
 280       17PY        -0.00018  -0.00009  -0.00009   0.00000
 281       17PZ        -0.00019  -0.00010  -0.00010   0.00000
 282       18PX        -0.07425  -0.07312  -0.00113  -0.07200
 283       18PY        -0.13276  -0.06638  -0.06638  -0.00000
 284       18PZ        -0.13525  -0.06763  -0.06763   0.00000
 285       19PX         0.08749   0.08624   0.00124   0.08500
 286       19PY         0.15832   0.07916   0.07916   0.00000
 287       19PZ         0.14417   0.07208   0.07208   0.00000
 288       20PX         0.29432   0.28949   0.00484   0.28465
 289       20PY         0.52809   0.26404   0.26404   0.00000
 290       20PZ         0.49602   0.24801   0.24801   0.00000
 291       21PX         0.41340   0.40319   0.01021   0.39298
 292       21PY         0.76434   0.38217   0.38217   0.00000
 293       21PZ         0.70075   0.35038   0.35038   0.00000
 294       22PX         0.19268   0.18939   0.00329   0.18610
 295       22PY         0.43869   0.21934   0.21934   0.00000
 296       22PZ         0.36193   0.18097   0.18097   0.00000
 297       23PX         0.08549   0.08420   0.00128   0.08292
 298       23PY         0.15306   0.07653   0.07653   0.00000
 299       23PZ         0.15409   0.07705   0.07705   0.00000
 300       24PX         0.00039   0.00039   0.00001   0.00038
 301       24PY         0.00071   0.00035   0.00035   0.00000
 302       24PZ         0.00071   0.00035   0.00035   0.00000
 303       25PX         0.00001   0.00001   0.00000   0.00001
 304       25PY         0.00001   0.00000   0.00000  -0.00000
 305       25PZ         0.00001   0.00001   0.00001   0.00000
 306       26PX         0.00560   0.00606  -0.00046   0.00651
 307       26PY         0.03497   0.01748   0.01748   0.00000
 308       26PZ         0.03057   0.01528   0.01528   0.00000
 309       27D 0        0.00009   0.00004   0.00004   0.00000
 310       27D+1        0.00004   0.00002   0.00001   0.00001
 311       27D-1        0.00004   0.00002   0.00002   0.00000
 312       27D+2        0.00000   0.00000   0.00000  -0.00000
 313       27D-2        0.00000   0.00000   0.00000   0.00000
 314       28D 0        0.00189   0.00094   0.00094   0.00000
 315       28D+1        0.00096   0.00052   0.00044   0.00007
 316       28D-1        0.00098   0.00049   0.00049   0.00000
 317       28D+2        0.00004   0.00002   0.00002   0.00000
 318       28D-2        0.00004   0.00002   0.00002   0.00000
 319       29D 0        0.00407   0.00203   0.00203   0.00000
 320       29D+1        0.00476   0.00238   0.00238   0.00001
 321       29D-1        0.00423   0.00212   0.00212   0.00000
 322       29D+2        0.00042   0.00021   0.00021   0.00000
 323       29D-2        0.00041   0.00020   0.00020   0.00000
 324       30D 0        0.00000   0.00000   0.00000   0.00000
 325       30D+1        0.00000   0.00000   0.00000   0.00000
 326       30D-1        0.00000   0.00000   0.00000   0.00000
 327       30D+2        0.00000   0.00000   0.00000   0.00000
 328       30D-2        0.00000   0.00000   0.00000   0.00000
 329       31D 0       -0.00000  -0.00000  -0.00000   0.00000
 330       31D+1       -0.00000  -0.00000  -0.00000  -0.00000
 331       31D-1       -0.00000  -0.00000  -0.00000   0.00000
 332       31D+2       -0.00000  -0.00000  -0.00000   0.00000
 333       31D-2       -0.00000  -0.00000  -0.00000   0.00000
 334       32D 0       -0.00058  -0.00029  -0.00029   0.00000
 335       32D+1        0.00085   0.00056   0.00029   0.00026
 336       32D-1        0.00123   0.00061   0.00061   0.00000
 337       32D+2       -0.00005  -0.00003  -0.00003   0.00000
 338       32D-2       -0.00007  -0.00003  -0.00003   0.00000
 339       33F 0        0.00003   0.00001   0.00001   0.00000
 340       33F+1        0.00002   0.00001   0.00001   0.00001
 341       33F-1        0.00001   0.00001   0.00001   0.00000
 342       33F+2        0.00000   0.00000   0.00000   0.00000
 343       33F-2        0.00000   0.00000   0.00000   0.00000
 344       33F+3        0.00001   0.00001   0.00000   0.00001
 345       33F-3        0.00000   0.00000   0.00000   0.00000
 346       34F 0        0.00102   0.00051   0.00051   0.00000
 347       34F+1        0.00087   0.00044   0.00043   0.00002
 348       34F-1        0.00073   0.00037   0.00037   0.00000
 349       34F+2        0.00012   0.00006   0.00006   0.00000
 350       34F-2        0.00011   0.00005   0.00005   0.00000
 351       34F+3        0.00004   0.00004   0.00000   0.00004
 352       34F-3        0.00002   0.00001   0.00001   0.00000
 353       35F 0        0.00000   0.00000   0.00000   0.00000
 354       35F+1        0.00000   0.00000   0.00000   0.00000
 355       35F-1        0.00000   0.00000   0.00000   0.00000
 356       35F+2        0.00000   0.00000   0.00000   0.00000
 357       35F-2        0.00000   0.00000   0.00000   0.00000
 358       35F+3        0.00000   0.00000   0.00000   0.00000
 359       35F-3        0.00000   0.00000   0.00000   0.00000
 360       36F 0        0.00032   0.00016   0.00016   0.00000
 361       36F+1        0.00062   0.00029   0.00033  -0.00004
 362       36F-1        0.00029   0.00015   0.00015   0.00000
 363       36F+2        0.00022   0.00011   0.00011   0.00000
 364       36F-2        0.00021   0.00010   0.00010   0.00000
 365       36F+3        0.00002   0.00002   0.00000   0.00002
 366       36F-3        0.00001   0.00001   0.00001   0.00000
 367       37G 0        0.00005   0.00002   0.00002   0.00000
 368       37G+1        0.00003   0.00001   0.00001  -0.00000
 369       37G-1        0.00003   0.00001   0.00001   0.00000
 370       37G+2        0.00000   0.00000   0.00000   0.00000
 371       37G-2        0.00000   0.00000   0.00000   0.00000
 372       37G+3        0.00000   0.00000   0.00000   0.00000
 373       37G-3        0.00000   0.00000   0.00000   0.00000
 374       37G+4       -0.00000  -0.00000  -0.00000   0.00000
 375       37G-4       -0.00000  -0.00000  -0.00000   0.00000
 376       38G 0        0.00028   0.00014   0.00014   0.00000
 377       38G+1        0.00032   0.00015   0.00017  -0.00002
 378       38G-1        0.00026   0.00013   0.00013   0.00000
 379       38G+2        0.00009   0.00004   0.00004   0.00000
 380       38G-2        0.00009   0.00004   0.00004   0.00000
 381       38G+3        0.00000   0.00000   0.00000   0.00000
 382       38G-3        0.00000   0.00000   0.00000   0.00000
 383       38G+4        0.00000   0.00000   0.00000  -0.00000
 384       38G-4        0.00000   0.00000   0.00000   0.00000
          Condensed to atoms (all electrons):
               1          2
     1  Cu  18.166575   0.103101
     2  O    0.103101   6.627224
          Atomic-Atomic Spin Densities.
               1          2
     1  Cu   0.045171  -0.012009
     2  O   -0.012009   0.978847
 Mulliken charges and spin densities:
               1          2
     1  Cu   0.730324   0.033162
     2  O   -0.730324   0.966838
 Sum of Mulliken charges =  -0.00000   1.00000
 Mulliken charges and spin densities with hydrogens summed into heavy atoms:
               1          2
     1  Cu   0.730324   0.033162
     2  O   -0.730324   0.966838
 Electronic spatial extent (au):  <R**2>=             81.1426
 Charge=             -0.0000 electrons
 Dipole moment (field-independent basis, Debye):
    X=              0.0000    Y=              0.0000    Z=              5.2484  Tot=              5.2484
 Quadrupole moment (field-independent basis, Debye-Ang):
   XX=            -15.9168   YY=            -17.4362   ZZ=            -19.5420
   XY=              0.0000   XZ=              0.0000   YZ=              0.0000
 Traceless Quadrupole moment (field-independent basis, Debye-Ang):
   XX=              1.7149   YY=              0.1954   ZZ=             -1.9103
   XY=              0.0000   XZ=              0.0000   YZ=              0.0000
 Octapole moment (field-independent basis, Debye-Ang**2):
  XXX=              0.0000  YYY=              0.0000  ZZZ=             21.6606  XYY=              0.0000
  XXY=              0.0000  XXZ=              3.5756  XZZ=              0.0000  YZZ=              0.0000
  YYZ=              5.1876  XYZ=              0.0000
 Hexadecapole moment (field-independent basis, Debye-Ang**3):
 XXXX=            -13.5663 YYYY=            -16.7489 ZZZZ=            -85.2492 XXXY=              0.0000
 XXXZ=              0.0000 YYYX=              0.0000 YYYZ=              0.0000 ZZZX=              0.0000
 ZZZY=              0.0000 XXYY=             -5.0538 XXZZ=            -13.9017 YYZZ=            -16.5466
 XXYZ=              0.0000 YYXZ=              0.0000 ZZXY=              0.0000
 N-N= 3.770387627805D+01 E-N=-5.982542936575D+02  KE= 1.418570996554D+02
 Symmetry A1   KE= 5.803688613172D+01
 Symmetry A2   KE= 1.896598344724D+01
 Symmetry B1   KE= 3.119690291728D+01
 Symmetry B2   KE= 3.365732716056D+01
 Symmetry A1   SP=-1.301322493613D-16
 Symmetry A2   SP= 0.000000000000D+00
 Symmetry B1   SP= 1.000000000000D+00
 Symmetry B2   SP=-1.493056665293D-17
 Orbital energies and kinetic energies (alpha):
                                 1                 2
   8         O                -0.566744          9.173686
   9         O                -0.531130          9.477258
  10         O                -0.531110          9.482992
  11         O                -0.478223          4.006579
  12         O                -0.421493          4.611907
  13         O                -0.392730          2.700665
  14         V                -0.008441          0.338986
  15         V                 0.026144          0.048818
  16         V                 0.027470          0.057773
  17         V                 0.035902          0.104390
  18         V                 0.045831          0.262682
 Total kinetic energy from orbitals= 1.445577648404D+02
                          Isotropic Fermi Contact Couplings
        Atom                 a.u.       MegaHertz       Gauss      10(-4) cm-1
     1  Cu(63)            -0.00000      -0.00000      -0.00000      -0.00000
     2  O(17)              0.00000      -0.00000      -0.00000      -0.00000
 --------------------------------------------------------
       Center         ----  Spin Dipole Couplings  ----
                      3XX-RR        3YY-RR        3ZZ-RR
 --------------------------------------------------------
     1   Atom        0.078554     -0.212130      0.133576
     2   Atom        3.235674     -1.620563     -1.615111
 --------------------------------------------------------
                        XY            XZ            YZ
 --------------------------------------------------------
     1   Atom        0.000000      0.000000      0.000000
     2   Atom        0.000000      0.000000      0.000000
 --------------------------------------------------------


 ---------------------------------------------------------------------------------
              Anisotropic Spin Dipole Couplings in Principal Axis System
 ---------------------------------------------------------------------------------

       Atom             a.u.   MegaHertz   Gauss  10(-4) cm-1        Axes

              Baa    -0.2121   -30.034   -10.717   -10.018 -0.0000  1.0000  0.0000
     1 Cu(63) Bbb     0.0786    11.122     3.969     3.710  1.0000  0.0000  0.0000
              Bcc     0.1336    18.912     6.748     6.308  0.0000  0.0000  1.0000
 
              Baa    -1.6206   117.263    41.842    39.115 -0.0000  1.0000  0.0000
     2 O(17)  Bbb    -1.6151   116.868    41.702    38.983  0.0000  0.0000  1.0000
              Bcc     3.2357  -234.131   -83.544   -78.098  1.0000  0.0000  0.0000
 

 ---------------------------------------------------------------------------------

 No NMR shielding tensors so no spin-rotation constants.
 Leave Link  601 at Sun May  6 00:10:12 2018, MaxMem= 10737418240 cpu:             237.6 elap:               7.8
 (Enter /home1/apps/gaussian/16rA.03/g16/l9999.exe)

 Test job not archived.
 1\1\GINC-C451-113\SP\ROCCSD(T)-Full\Gen\Cu1O1(2)\GWANG18\06-May-2018\0
 \\#P ROCCSD(T)=(MaxCyc=150, Full)/Gen SCF=(maxcycle=400, vshift=200) P
 seudo=Read Integral(NoXCTest) Pop=Regular MaxDisk=500GB Guess=Read IOp
 (5/15=2)\\CuO\\0,2\Cu,0,0.,0.,0.\O,0,0.,0.,1.6\\Version=ES64L-G16RevA.
 03\HF=-211.0293246\MP2=-212.3855884\MP3=-212.1706779\PUHF=-211.0293246
 \PMP2-0=-212.3855884\MP4SDQ=-212.3438638\CCSD=-212.2642105\CCSD(T)=-21
 2.3148792\RMSD=3.100e-09\PG=C*V [C*(O1Cu1)]\\@


 TOWERING GENIUS DISDAINS A BEATEN PATH.  IT SEEKS 
 REGIONS HITHERTO UNEXPLORED.

                                -- ABRAHAM LINCOLN
 Job cpu time:       3 days  9 hours 51 minutes 34.4 seconds.
 Elapsed time:       0 days  2 hours 34 minutes 36.7 seconds.
 File lengths (MBytes):  RWF=  16412 Int=      0 D2E=      0 Chk=     19 Scr=      1
 Normal termination of Gaussian 16 at Sun May  6 00:10:13 2018.
