 Entering Gaussian System, Link 0=g16
 Initial command:
 /home1/apps/gaussian/16rA.03/g16/l1.exe "/tmp/Gau-215085.inp" -scrdir="/tmp/"
 Entering Link 1 = /home1/apps/gaussian/16rA.03/g16/l1.exe PID=    215086.
  
 Copyright (c) 1988,1990,1992,1993,1995,1998,2003,2009,2016,
            Gaussian, Inc.  All Rights Reserved.
  
 This is part of the Gaussian(R) 16 program.  It is based on
 the Gaussian(R) 09 system (copyright 2009, Gaussian, Inc.),
 the Gaussian(R) 03 system (copyright 2003, Gaussian, Inc.),
 the Gaussian(R) 98 system (copyright 1998, Gaussian, Inc.),
 the Gaussian(R) 94 system (copyright 1995, Gaussian, Inc.),
 the Gaussian 92(TM) system (copyright 1992, Gaussian, Inc.),
 the Gaussian 90(TM) system (copyright 1990, Gaussian, Inc.),
 the Gaussian 88(TM) system (copyright 1988, Gaussian, Inc.),
 the Gaussian 86(TM) system (copyright 1986, Carnegie Mellon
 University), and the Gaussian 82(TM) system (copyright 1983,
 Carnegie Mellon University). Gaussian is a federally registered
 trademark of Gaussian, Inc.
  
 This software contains proprietary and confidential information,
 including trade secrets, belonging to Gaussian, Inc.
  
 This software is provided under written license and may be
 used, copied, transmitted, or stored only in accord with that
 written license.
  
 The following legend is applicable only to US Government
 contracts under FAR:
  
                    RESTRICTED RIGHTS LEGEND
  
 Use, reproduction and disclosure by the US Government is
 subject to restrictions as set forth in subparagraphs (a)
 and (c) of the Commercial Computer Software - Restricted
 Rights clause in FAR 52.227-19.
  
 Gaussian, Inc.
 340 Quinnipiac St., Bldg. 40, Wallingford CT 06492
  
  
 ---------------------------------------------------------------
 Warning -- This program may not be used in any manner that
 competes with the business of Gaussian, Inc. or will provide
 assistance to any competitor of Gaussian, Inc.  The licensee
 of this program is prohibited from giving any competitor of
 Gaussian, Inc. access to this program.  By using this program,
 the user acknowledges that Gaussian, Inc. is engaged in the
 business of creating and licensing software in the field of
 computational chemistry and represents and warrants to the
 licensee that it is not a competitor of Gaussian, Inc. and that
 it will not use this program in any manner prohibited above.
 ---------------------------------------------------------------
  

 Cite this work as:
 Gaussian 16, Revision A.03,
 M. J. Frisch, G. W. Trucks, H. B. Schlegel, G. E. Scuseria, 
 M. A. Robb, J. R. Cheeseman, G. Scalmani, V. Barone, 
 G. A. Petersson, H. Nakatsuji, X. Li, M. Caricato, A. V. Marenich, 
 J. Bloino, B. G. Janesko, R. Gomperts, B. Mennucci, H. P. Hratchian, 
 J. V. Ortiz, A. F. Izmaylov, J. L. Sonnenberg, D. Williams-Young, 
 F. Ding, F. Lipparini, F. Egidi, J. Goings, B. Peng, A. Petrone, 
 T. Henderson, D. Ranasinghe, V. G. Zakrzewski, J. Gao, N. Rega, 
 G. Zheng, W. Liang, M. Hada, M. Ehara, K. Toyota, R. Fukuda, 
 J. Hasegawa, M. Ishida, T. Nakajima, Y. Honda, O. Kitao, H. Nakai, 
 T. Vreven, K. Throssell, J. A. Montgomery, Jr., J. E. Peralta, 
 F. Ogliaro, M. J. Bearpark, J. J. Heyd, E. N. Brothers, K. N. Kudin, 
 V. N. Staroverov, T. A. Keith, R. Kobayashi, J. Normand, 
 K. Raghavachari, A. P. Rendell, J. C. Burant, S. S. Iyengar, 
 J. Tomasi, M. Cossi, J. M. Millam, M. Klene, C. Adamo, R. Cammi, 
 J. W. Ochterski, R. L. Martin, K. Morokuma, O. Farkas, 
 J. B. Foresman, and D. J. Fox, Gaussian, Inc., Wallingford CT, 2016.
 
 ******************************************
 Gaussian 16:  ES64L-G16RevA.03 25-Dec-2016
                 5-Mar-2018 
 ******************************************
 %MEM=80GB
 %CPU=0-15
 SetSPE:  set environment variable "MP_BIND" = "yes"
 SetSPE:  set environment variable "MP_BLIST" = "0,1,2,3,4,5,6,7,8,9,10,11,12,13,14,15"
 Will use up to   16 processors via shared memory.
 %RWF=/scratch/04843/aannabe/gaussian/
 %Int=/scratch/04843/aannabe/gaussian/
 %D2E=/scratch/04843/aannabe/gaussian/
 %NoSave
 %CHK=ScO
 ----------------------------------------------------------------------
 #P ROCCSD(T)=(maxcyc=150, Full, SaveAmplitudes, ReadAmplitudes)/Gen 5d
  7f SCF=(maxcycles=300) Integral(NoXCTest) MaxDisk=500GB Pop=Regular P
 seudo=Read Guess=Read IOp(5/15=2)
 ----------------------------------------------------------------------
 1/38=1,172=1/1;
 2/12=2,17=6,18=5,40=1/2;
 3/5=7,8=11,11=2,16=1,17=8,25=1,30=1,47=8,116=101/1,2,3;
 4/5=1/1;
 5/5=2,7=300,15=2,38=6/2;
 8/5=-1,6=4,9=120000,10=90,24=1/1,4;
 9/5=7,6=150,14=2,77=1/13;
 6//1;
 99/5=1,9=1/99;
 Leave Link    1 at Mon Mar  5 18:03:14 2018, MaxMem= 10737418240 cpu:               4.6 elap:               0.3
 (Enter /home1/apps/gaussian/16rA.03/g16/l101.exe)
 ---
 ScO
 ---
 Symbolic Z-matrix:
 Charge =  0 Multiplicity = 2
 Sc                    0.        0.        0. 
 O                     0.        0.        1.7 
 
 ITRead=  0  0
 MicOpt= -1 -1
 NAtoms=      2 NQM=        2 NQMF=       0 NMMI=      0 NMMIF=      0
                NMic=       0 NMicF=      0.
                    Isotopes and Nuclear Properties:
 (Nuclear quadrupole moments (NQMom) in fm**2, nuclear magnetic moments (NMagM)
  in nuclear magnetons)

  Atom         1           2
 IAtWgt=          45          16
 AtmWgt=  44.9559136  15.9949146
 NucSpn=           7           0
 AtZEff=  -0.0000000  -0.0000000
 NQMom=  -22.0000000   0.0000000
 NMagM=    4.7564830   0.0000000
 AtZNuc=  21.0000000   8.0000000
 Leave Link  101 at Mon Mar  5 18:03:18 2018, MaxMem= 10737418240 cpu:               1.5 elap:               0.2
 (Enter /home1/apps/gaussian/16rA.03/g16/l202.exe)
                          Input orientation:                          
 ---------------------------------------------------------------------
 Center     Atomic      Atomic             Coordinates (Angstroms)
 Number     Number       Type             X           Y           Z
 ---------------------------------------------------------------------
      1         21           0        0.000000    0.000000    0.000000
      2          8           0        0.000000    0.000000    1.700000
 ---------------------------------------------------------------------
 Stoichiometry    OSc(2)
 Framework group  C*V[C*(OSc)]
 Deg. of freedom     1
 Full point group                 C*V     NOp   4
 Largest Abelian subgroup         C2V     NOp   4
 Largest concise Abelian subgroup C1      NOp   1
                         Standard orientation:                         
 ---------------------------------------------------------------------
 Center     Atomic      Atomic             Coordinates (Angstroms)
 Number     Number       Type             X           Y           Z
 ---------------------------------------------------------------------
      1         21           0        0.000000    0.000000    0.468966
      2          8           0        0.000000    0.000000   -1.231034
 ---------------------------------------------------------------------
 Rotational constants (GHZ):           0.0000000          14.8227988          14.8227988
 Leave Link  202 at Mon Mar  5 18:03:19 2018, MaxMem= 10737418240 cpu:               0.3 elap:               0.1
 (Enter /home1/apps/gaussian/16rA.03/g16/l301.exe)
 General basis read from cards:  (5D, 7F)
 Centers:       1
 S 1 1.00
     Exponent=  2.7152780000D+06 Coefficients=  1.0000000000D+00
 S 1 1.00
     Exponent=  4.0659840000D+05 Coefficients=  1.0000000000D+00
 S 1 1.00
     Exponent=  9.2530040000D+04 Coefficients=  1.0000000000D+00
 S 1 1.00
     Exponent=  2.6207920000D+04 Coefficients=  1.0000000000D+00
 S 1 1.00
     Exponent=  8.5494290000D+03 Coefficients=  1.0000000000D+00
 S 1 1.00
     Exponent=  3.0859750000D+03 Coefficients=  1.0000000000D+00
 S 1 1.00
     Exponent=  1.2031720000D+03 Coefficients=  1.0000000000D+00
 S 1 1.00
     Exponent=  4.9848690000D+02 Coefficients=  1.0000000000D+00
 S 1 1.00
     Exponent=  2.1673600000D+02 Coefficients=  1.0000000000D+00
 S 1 1.00
     Exponent=  9.7874760000D+01 Coefficients=  1.0000000000D+00
 S 1 1.00
     Exponent=  4.5204330000D+01 Coefficients=  1.0000000000D+00
 S 1 1.00
     Exponent=  2.0211870000D+01 Coefficients=  1.0000000000D+00
 S 1 1.00
     Exponent=  9.5747510000D+00 Coefficients=  1.0000000000D+00
 S 1 1.00
     Exponent=  4.5403460000D+00 Coefficients=  1.0000000000D+00
 S 1 1.00
     Exponent=  1.9956870000D+00 Coefficients=  1.0000000000D+00
 S 1 1.00
     Exponent=  9.4221500000D-01 Coefficients=  1.0000000000D+00
 S 1 1.00
     Exponent=  4.1784500000D-01 Coefficients=  1.0000000000D+00
 S 1 1.00
     Exponent=  9.5761000000D-02 Coefficients=  1.0000000000D+00
 S 1 1.00
     Exponent=  5.1351000000D-02 Coefficients=  1.0000000000D+00
 S 1 1.00
     Exponent=  2.3878000000D-02 Coefficients=  1.0000000000D+00
 S 1 1.00
     Exponent=  2.6472000000D+00 Coefficients=  1.0000000000D+00
 S 1 1.00
     Exponent=  6.2170000000D-01 Coefficients=  1.0000000000D+00
 S 1 1.00
     Exponent=  1.1100000000D-02 Coefficients=  1.0000000000D+00
 P 1 1.00
     Exponent=  1.0592190000D+04 Coefficients=  1.0000000000D+00
 P 1 1.00
     Exponent=  2.5075330000D+03 Coefficients=  1.0000000000D+00
 P 1 1.00
     Exponent=  8.1445710000D+02 Coefficients=  1.0000000000D+00
 P 1 1.00
     Exponent=  3.1151950000D+02 Coefficients=  1.0000000000D+00
 P 1 1.00
     Exponent=  1.3196170000D+02 Coefficients=  1.0000000000D+00
 P 1 1.00
     Exponent=  5.9987180000D+01 Coefficients=  1.0000000000D+00
 P 1 1.00
     Exponent=  2.8662500000D+01 Coefficients=  1.0000000000D+00
 P 1 1.00
     Exponent=  1.4108510000D+01 Coefficients=  1.0000000000D+00
 P 1 1.00
     Exponent=  7.1037060000D+00 Coefficients=  1.0000000000D+00
 P 1 1.00
     Exponent=  3.6092000000D+00 Coefficients=  1.0000000000D+00
 P 1 1.00
     Exponent=  1.7760700000D+00 Coefficients=  1.0000000000D+00
 P 1 1.00
     Exponent=  8.5476000000D-01 Coefficients=  1.0000000000D+00
 P 1 1.00
     Exponent=  4.0223900000D-01 Coefficients=  1.0000000000D+00
 P 1 1.00
     Exponent=  1.5468000000D-01 Coefficients=  1.0000000000D+00
 P 1 1.00
     Exponent=  6.4888000000D-02 Coefficients=  1.0000000000D+00
 P 1 1.00
     Exponent=  2.6301000000D-02 Coefficients=  1.0000000000D+00
 P 1 1.00
     Exponent=  3.4418000000D+00 Coefficients=  1.0000000000D+00
 P 1 1.00
     Exponent=  8.0840000000D-01 Coefficients=  1.0000000000D+00
 P 1 1.00
     Exponent=  1.0660000000D-02 Coefficients=  1.0000000000D+00
 D 1 1.00
     Exponent=  5.0654200000D+01 Coefficients=  1.0000000000D+00
 D 1 1.00
     Exponent=  1.4732500000D+01 Coefficients=  1.0000000000D+00
 D 1 1.00
     Exponent=  5.1804600000D+00 Coefficients=  1.0000000000D+00
 D 1 1.00
     Exponent=  2.0195900000D+00 Coefficients=  1.0000000000D+00
 D 1 1.00
     Exponent=  7.9921900000D-01 Coefficients=  1.0000000000D+00
 D 1 1.00
     Exponent=  3.0531600000D-01 Coefficients=  1.0000000000D+00
 D 1 1.00
     Exponent=  1.1044400000D-01 Coefficients=  1.0000000000D+00
 D 1 1.00
     Exponent=  3.7065000000D-02 Coefficients=  1.0000000000D+00
 D 1 1.00
     Exponent=  1.8520000000D+00 Coefficients=  1.0000000000D+00
 D 1 1.00
     Exponent=  7.8750000000D-01 Coefficients=  1.0000000000D+00
 D 1 1.00
     Exponent=  1.2440000000D-02 Coefficients=  1.0000000000D+00
 F 1 1.00
     Exponent=  2.1048000000D+00 Coefficients=  1.0000000000D+00
 F 1 1.00
     Exponent=  6.5870000000D-01 Coefficients=  1.0000000000D+00
 F 1 1.00
     Exponent=  1.6360000000D-01 Coefficients=  1.0000000000D+00
 F 1 1.00
     Exponent=  4.0630000000D-02 Coefficients=  1.0000000000D+00
 G 1 1.00
     Exponent=  1.7850000000D+00 Coefficients=  1.0000000000D+00
 G 1 1.00
     Exponent=  4.1120000000D-01 Coefficients=  1.0000000000D+00
 G 1 1.00
     Exponent=  9.4730000000D-02 Coefficients=  1.0000000000D+00
 ****
 Centers:       2
 S 1 1.00
     Exponent=  1.5330000000D+04 Coefficients=  1.0000000000D+00
 S 1 1.00
     Exponent=  2.2990000000D+03 Coefficients=  1.0000000000D+00
 S 1 1.00
     Exponent=  5.2240000000D+02 Coefficients=  1.0000000000D+00
 S 1 1.00
     Exponent=  1.4730000000D+02 Coefficients=  1.0000000000D+00
 S 1 1.00
     Exponent=  4.7550000000D+01 Coefficients=  1.0000000000D+00
 S 1 1.00
     Exponent=  1.6760000000D+01 Coefficients=  1.0000000000D+00
 S 1 1.00
     Exponent=  6.2070000000D+00 Coefficients=  1.0000000000D+00
 S 1 1.00
     Exponent=  6.8820000000D-01 Coefficients=  1.0000000000D+00
 S 1 1.00
     Exponent=  1.7520000000D+00 Coefficients=  1.0000000000D+00
 S 1 1.00
     Exponent=  2.3840000000D-01 Coefficients=  1.0000000000D+00
 S 1 1.00
     Exponent=  7.8450000000D+00 Coefficients=  1.0000000000D+00
 S 1 1.00
     Exponent=  2.1032000000D+01 Coefficients=  1.0000000000D+00
 S 1 1.00
     Exponent=  7.3760000000D-02 Coefficients=  1.0000000000D+00
 P 1 1.00
     Exponent=  3.4460000000D+01 Coefficients=  1.0000000000D+00
 P 1 1.00
     Exponent=  7.7490000000D+00 Coefficients=  1.0000000000D+00
 P 1 1.00
     Exponent=  2.2800000000D+00 Coefficients=  1.0000000000D+00
 P 1 1.00
     Exponent=  7.1560000000D-01 Coefficients=  1.0000000000D+00
 P 1 1.00
     Exponent=  2.1400000000D-01 Coefficients=  1.0000000000D+00
 P 1 1.00
     Exponent=  1.5159000000D+01 Coefficients=  1.0000000000D+00
 P 1 1.00
     Exponent=  5.7437000000D+01 Coefficients=  1.0000000000D+00
 P 1 1.00
     Exponent=  5.9740000000D-02 Coefficients=  1.0000000000D+00
 D 1 1.00
     Exponent=  2.3140000000D+00 Coefficients=  1.0000000000D+00
 D 1 1.00
     Exponent=  6.4500000000D-01 Coefficients=  1.0000000000D+00
 D 1 1.00
     Exponent=  1.5858000000D+01 Coefficients=  1.0000000000D+00
 D 1 1.00
     Exponent=  2.1400000000D-01 Coefficients=  1.0000000000D+00
 F 1 1.00
     Exponent=  1.4280000000D+00 Coefficients=  1.0000000000D+00
 F 1 1.00
     Exponent=  5.0000000000D-01 Coefficients=  1.0000000000D+00
 ****
 ======================================================================================================
                                       Pseudopotential Parameters
 ======================================================================================================
  Center     Atomic      Valence      Angular      Power
  Number     Number     Electrons     Momentum     of R      Exponent        Coefficient   SO-Coeffient
 ======================================================================================================
    1         21           11
                                      D and up 
                                                     1       16.0329867       11.00000000    0.00000000
                                                     3       14.0886961      176.36285342    0.00000000
                                                     2       11.9069766      -83.68643284    0.00000000
                                                     2        3.6497651        0.44399753    0.00000000
                                      S - D
                                                     2       11.5075950      153.96296864    0.00000000
                                                     2        5.0410402       14.92860892    0.00000000
                                      P - D
                                                     2       11.4627925       97.21711637    0.00000000
                                                     2        4.7640754       10.84896441    0.00000000
    2          8            6
                                      P and up 
                                                     1       12.3099700        6.00000000    0.00000000
                                                     3       14.7696200       73.85984000    0.00000000
                                                     2       13.7141900      -47.87600000    0.00000000
                                      S - P
                                                     2       13.6551200       85.86406000    0.00000000
 ======================================================================================================
 Ernie: Thresh=  0.10000D-02 Tol=  0.10000D-05 Strict=F.
 There are   144 symmetry adapted cartesian basis functions of A1  symmetry.
 There are    30 symmetry adapted cartesian basis functions of A2  symmetry.
 There are    69 symmetry adapted cartesian basis functions of B1  symmetry.
 There are    69 symmetry adapted cartesian basis functions of B2  symmetry.
 There are   114 symmetry adapted basis functions of A1  symmetry.
 There are    27 symmetry adapted basis functions of A2  symmetry.
 There are    60 symmetry adapted basis functions of B1  symmetry.
 There are    60 symmetry adapted basis functions of B2  symmetry.
   261 basis functions,   312 primitive gaussians,   312 cartesian basis functions
     9 alpha electrons        8 beta electrons
       nuclear repulsion energy        20.5445270122 Hartrees.
 IExCor=    0 DFT=F Ex=HF Corr=None ExCW=0 ScaHFX=  1.000000
 ScaDFX=  1.000000  1.000000  1.000000  1.000000 ScalE2=  1.000000  1.000000
 IRadAn=      5 IRanWt=     -1 IRanGd=            0 ICorTp=0 IEmpDi=  4
 NAtoms=    2 NActive=    2 NUniq=    2 SFac= 1.00D+00 NAtFMM=   60 NAOKFM=F Big=F
 Integral buffers will be    131072 words long.
 Raffenetti 2 integral format.
 Two-electron integral symmetry is turned on.
 Leave Link  301 at Mon Mar  5 18:03:20 2018, MaxMem= 10737418240 cpu:               4.1 elap:               0.3
 (Enter /home1/apps/gaussian/16rA.03/g16/l302.exe)
 NPDir=0 NMtPBC=     1 NCelOv=     1 NCel=       1 NClECP=     1 NCelD=      1
         NCelK=      1 NCelE2=     1 NClLst=     1 CellRange=     0.0.
 One-electron integrals computed using PRISM.
 One-electron integral symmetry used in STVInt
   4 Symmetry operations used in ECPInt.
 ECPInt:  NShTT=    3828 NPrTT=    3828 LenC2=    3542 LenP2D=    3541.
 LDataN:  DoStor=T MaxTD1= 8 Len=  415
 NBasis=   261 RedAO= T EigKep=  1.08D-06  NBF=   114    27    60    60
 NBsUse=   258 1.00D-06 EigRej=  6.57D-07 NBFU=   113    27    59    59
 Leave Link  302 at Mon Mar  5 18:03:24 2018, MaxMem= 10737418240 cpu:              15.3 elap:               1.0
 (Enter /home1/apps/gaussian/16rA.03/g16/l303.exe)
 DipDrv:  MaxL=1.
 Leave Link  303 at Mon Mar  5 18:03:25 2018, MaxMem= 10737418240 cpu:               1.2 elap:               0.2
 (Enter /home1/apps/gaussian/16rA.03/g16/l401.exe)
 Initial guess from the checkpoint file:  "ScO.chk"
 B after Tr=     0.000000    0.000000    0.000000
         Rot=    1.000000    0.000000    0.000000    0.000000 Ang=   0.00 deg.
 Guess basis will be translated and rotated to current coordinates.
 JPrj=2 DoOrth=T DoCkMO=T.
 Initial guess orbital symmetries:
       Occupied  (SG) (SG) (PI) (PI) (SG) (SG) (PI) (PI) (SG)
       Virtual   (PI) (PI) (SG) (SG) (DLTA) (DLTA) (PI) (PI) (PI)
                 (PI) (SG) (SG) (DLTA) (DLTA) (SG) (PI) (PI) (SG)
                 (PI) (PI) (SG) (PI) (PI) (PHI) (PHI) (DLTA) (DLTA)
                 (SG) (DLTA) (DLTA) (PI) (PI) (SG) (PI) (PI) (SG)
                 (SG) (SG) (DLTA) (DLTA) (PI) (PI) (DLTA) (DLTA)
                 (?A) (?A) (PHI) (PHI) (SG) (PI) (PI) (PI) (PI)
                 (SG) (PHI) (PHI) (DLTA) (DLTA) (SG) (PI) (PI)
                 (SG) (PI) (PI) (DLTA) (DLTA) (SG) (SG) (DLTA)
                 (DLTA) (PI) (PI) (SG) (SG) (PI) (PI) (PI) (PI)
                 (SG) (DLTA) (DLTA) (PHI) (PHI) (?A) (?A) (SG)
                 (PI) (PI) (SG) (DLTA) (DLTA) (PHI) (PHI) (PI)
                 (PI) (PHI) (PHI) (DLTA) (DLTA) (SG) (PI) (PI)
                 (DLTA) (DLTA) (SG) (DLTA) (DLTA) (PI) (PI) (SG)
                 (PI) (PI) (SG) (SG) (PI) (PI) (SG) (PI) (PI) (SG)
                 (SG) (DLTA) (DLTA) (PI) (PI) (SG) (PHI) (PHI)
                 (PHI) (PHI) (DLTA) (DLTA) (DLTA) (DLTA) (PI) (PI)
                 (PI) (PI) (SG) (DLTA) (DLTA) (SG) (PI) (PI) (SG)
                 (?A) (?A) (PHI) (PHI) (DLTA) (DLTA) (PI) (PI)
                 (SG) (SG) (PI) (PI) (SG) (DLTA) (DLTA) (PI) (PI)
                 (SG) (PI) (PI) (SG) (SG) (SG) (PI) (PI) (SG) (DLTA)
                 (DLTA) (PI) (PI) (SG) (SG) (PI) (PI) (SG) (SG)
                 (DLTA) (DLTA) (PI) (PI) (SG) (PI) (PI) (SG) (DLTA)
                 (DLTA) (PI) (PI) (SG) (SG) (SG) (PI) (PI) (SG)
                 (PI) (PI) (SG) (SG) (SG) (PI) (PI) (SG) (DLTA)
                 (DLTA) (PI) (PI) (SG) (SG) (SG) (PI) (PI) (SG)
                 (PI) (PI) (SG) (SG) (SG) (PI) (PI) (SG) (SG) (PI)
                 (PI) (SG) (SG) (SG) (PI) (PI) (SG) (SG) (SG) (PI)
                 (PI) (SG) (SG) (SG) (SG) (PI) (PI) (SG) (SG) (SG)
                 (SG) (SG)
 The electronic state of the initial guess is 2-SG.
 Leave Link  401 at Mon Mar  5 18:03:26 2018, MaxMem= 10737418240 cpu:               6.5 elap:               0.5
 (Enter /home1/apps/gaussian/16rA.03/g16/l502.exe)
 Keep R1 and R2 ints in memory in symmetry-blocked form, NReq=734602573.
 FoFCou: FMM=F IPFlag=           8 FMFlag=           0 FMFlg1=           0
         NFxFlg=           0 DoJE=F BraDBF=F KetDBF=F FulRan=T
         wScrn=  0.000000 ICntrl=       600 IOpCl=  0 I1Cent=           0 NGrid=           0
         NMat0=    1 NMatS0=  34191 NMatT0=    0 NMatD0=    1 NMtDS0=    0 NMtDT0=    0
 Petite list used in FoFCou.
 Restricted open shell SCF:
 Using DIIS extrapolation, IDIIS=  1040.
 NGot= 10737418240 LenX= 10437151885 LenY= 10437054100
 Requested convergence on RMS density matrix=1.00D-08 within 300 cycles.
 Requested convergence on MAX density matrix=1.00D-06.
 Requested convergence on             energy=1.00D-06.
 No special actions if energy rises.

 Cycle   1  Pass 1  IDiag  1:
 E= -61.9632576300694    
 DIIS: error= 3.48D-03 at cycle   1 NSaved=   1.
 NSaved= 1 IEnMin= 1 EnMin= -61.9632576300694     IErMin= 1 ErrMin= 3.48D-03
 ErrMax= 3.48D-03  0.00D+00 EMaxC= 1.00D-01 BMatC= 9.27D-04 BMatP= 9.27D-04
 IDIUse=3 WtCom= 9.65D-01 WtEn= 3.48D-02
 Coeff-Com:  0.100D+01
 Coeff-En:   0.100D+01
 Coeff:      0.100D+01
 Gap=     0.090 Goal=   None    Shift=    0.000
 GapD=    0.090 DampG=0.500 DampE=1.000 DampFc=0.5000 IDamp=-1.
 Damping current iteration by 5.00D-01
 RMSDP=1.44D-04 MaxDP=1.57D-02              OVMax= 3.24D-03

 Cycle   2  Pass 1  IDiag  1:
 E= -61.9633296324937     Delta-E=       -0.000072002424 Rises=F Damp=T
 DIIS: error= 1.81D-03 at cycle   2 NSaved=   2.
 NSaved= 2 IEnMin= 2 EnMin= -61.9633296324937     IErMin= 2 ErrMin= 1.81D-03
 ErrMax= 1.81D-03  0.00D+00 EMaxC= 1.00D-01 BMatC= 2.39D-04 BMatP= 9.27D-04
 IDIUse=3 WtCom= 9.82D-01 WtEn= 1.81D-02
 Coeff-Com: -0.100D+01 0.200D+01
 Coeff-En:   0.000D+00 0.100D+01
 Coeff:     -0.984D+00 0.198D+01
 Gap=     0.089 Goal=   None    Shift=    0.000
 RMSDP=7.04D-05 MaxDP=6.78D-03 DE=-7.20D-05 OVMax= 4.35D-03

 Cycle   3  Pass 1  IDiag  1:
 E= -61.9633985658322     Delta-E=       -0.000068933338 Rises=F Damp=F
 DIIS: error= 3.22D-04 at cycle   3 NSaved=   3.
 NSaved= 3 IEnMin= 3 EnMin= -61.9633985658322     IErMin= 3 ErrMin= 3.22D-04
 ErrMax= 3.22D-04  0.00D+00 EMaxC= 1.00D-01 BMatC= 8.03D-06 BMatP= 2.39D-04
 IDIUse=3 WtCom= 9.97D-01 WtEn= 3.22D-03
 Coeff-Com: -0.494D+00 0.953D+00 0.541D+00
 Coeff-En:   0.000D+00 0.000D+00 0.100D+01
 Coeff:     -0.492D+00 0.950D+00 0.542D+00
 Gap=     0.089 Goal=   None    Shift=    0.000
 RMSDP=2.18D-05 MaxDP=1.90D-03 DE=-6.89D-05 OVMax= 2.93D-03

 Cycle   4  Pass 1  IDiag  1:
 E= -61.9634060219391     Delta-E=       -0.000007456107 Rises=F Damp=F
 DIIS: error= 5.54D-05 at cycle   4 NSaved=   4.
 NSaved= 4 IEnMin= 4 EnMin= -61.9634060219391     IErMin= 4 ErrMin= 5.54D-05
 ErrMax= 5.54D-05  0.00D+00 EMaxC= 1.00D-01 BMatC= 3.50D-07 BMatP= 8.03D-06
 IDIUse=1 WtCom= 1.00D+00 WtEn= 0.00D+00
 Coeff-Com: -0.127D+00 0.238D+00 0.202D+00 0.687D+00
 Coeff:     -0.127D+00 0.238D+00 0.202D+00 0.687D+00
 Gap=     0.089 Goal=   None    Shift=    0.000
 RMSDP=9.38D-06 MaxDP=1.33D-03 DE=-7.46D-06 OVMax= 1.13D-03

 Cycle   5  Pass 1  IDiag  1:
 E= -61.9634066137708     Delta-E=       -0.000000591832 Rises=F Damp=F
 DIIS: error= 1.31D-05 at cycle   5 NSaved=   5.
 NSaved= 5 IEnMin= 5 EnMin= -61.9634066137708     IErMin= 5 ErrMin= 1.31D-05
 ErrMax= 1.31D-05  0.00D+00 EMaxC= 1.00D-01 BMatC= 2.99D-08 BMatP= 3.50D-07
 IDIUse=1 WtCom= 1.00D+00 WtEn= 0.00D+00
 Coeff-Com:  0.274D-01-0.527D-01-0.546D-01-0.444D-01 0.112D+01
 Coeff:      0.274D-01-0.527D-01-0.546D-01-0.444D-01 0.112D+01
 Gap=     0.089 Goal=   None    Shift=    0.000
 RMSDP=5.62D-06 MaxDP=4.82D-04 DE=-5.92D-07 OVMax= 7.10D-04

 Cycle   6  Pass 1  IDiag  1:
 E= -61.9634067447067     Delta-E=       -0.000000130936 Rises=F Damp=F
 DIIS: error= 5.44D-06 at cycle   6 NSaved=   6.
 NSaved= 6 IEnMin= 6 EnMin= -61.9634067447067     IErMin= 6 ErrMin= 5.44D-06
 ErrMax= 5.44D-06  0.00D+00 EMaxC= 1.00D-01 BMatC= 3.94D-09 BMatP= 2.99D-08
 IDIUse=1 WtCom= 1.00D+00 WtEn= 0.00D+00
 Coeff-Com:  0.152D-02-0.283D-02-0.101D-01-0.374D-01-0.585D-01 0.111D+01
 Coeff:      0.152D-02-0.283D-02-0.101D-01-0.374D-01-0.585D-01 0.111D+01
 Gap=     0.089 Goal=   None    Shift=    0.000
 RMSDP=5.42D-06 MaxDP=7.48D-04 DE=-1.31D-07 OVMax= 3.31D-04

 Cycle   7  Pass 1  IDiag  1:
 E= -61.9634067624795     Delta-E=       -0.000000017773 Rises=F Damp=F
 DIIS: error= 1.78D-06 at cycle   7 NSaved=   7.
 NSaved= 7 IEnMin= 7 EnMin= -61.9634067624795     IErMin= 7 ErrMin= 1.78D-06
 ErrMax= 1.78D-06  0.00D+00 EMaxC= 1.00D-01 BMatC= 7.82D-10 BMatP= 3.94D-09
 IDIUse=1 WtCom= 1.00D+00 WtEn= 0.00D+00
 Coeff-Com: -0.478D-02 0.915D-02 0.671D-02-0.144D-02-0.131D+00 0.195D+00
 Coeff-Com:  0.927D+00
 Coeff:     -0.478D-02 0.915D-02 0.671D-02-0.144D-02-0.131D+00 0.195D+00
 Coeff:      0.927D+00
 Gap=     0.089 Goal=   None    Shift=    0.000
 RMSDP=3.28D-06 MaxDP=4.01D-04 DE=-1.78D-08 OVMax= 1.67D-04

 Cycle   8  Pass 1  IDiag  1:
 E= -61.9634067662366     Delta-E=       -0.000000003757 Rises=F Damp=F
 DIIS: error= 7.10D-07 at cycle   8 NSaved=   8.
 NSaved= 8 IEnMin= 8 EnMin= -61.9634067662366     IErMin= 8 ErrMin= 7.10D-07
 ErrMax= 7.10D-07  0.00D+00 EMaxC= 1.00D-01 BMatC= 1.36D-10 BMatP= 7.82D-10
 IDIUse=1 WtCom= 1.00D+00 WtEn= 0.00D+00
 Coeff-Com: -0.202D-03 0.411D-03 0.120D-02-0.971D-03-0.114D-02-0.139D+00
 Coeff-Com:  0.211D+00 0.929D+00
 Coeff:     -0.202D-03 0.411D-03 0.120D-02-0.971D-03-0.114D-02-0.139D+00
 Coeff:      0.211D+00 0.929D+00
 Gap=     0.089 Goal=   None    Shift=    0.000
 RMSDP=9.44D-07 MaxDP=1.30D-04 DE=-3.76D-09 OVMax= 6.61D-05

 Cycle   9  Pass 1  IDiag  1:
 E= -61.9634067669972     Delta-E=       -0.000000000761 Rises=F Damp=F
 DIIS: error= 2.05D-07 at cycle   9 NSaved=   9.
 NSaved= 9 IEnMin= 9 EnMin= -61.9634067669972     IErMin= 9 ErrMin= 2.05D-07
 ErrMax= 2.05D-07  0.00D+00 EMaxC= 1.00D-01 BMatC= 7.29D-12 BMatP= 1.36D-10
 IDIUse=1 WtCom= 1.00D+00 WtEn= 0.00D+00
 Coeff-Com:  0.291D-03-0.564D-03 0.155D-03 0.135D-02 0.211D-02-0.740D-02
 Coeff-Com: -0.692D-01-0.468D-01 0.112D+01
 Coeff:      0.291D-03-0.564D-03 0.155D-03 0.135D-02 0.211D-02-0.740D-02
 Coeff:     -0.692D-01-0.468D-01 0.112D+01
 Gap=     0.089 Goal=   None    Shift=    0.000
 RMSDP=1.62D-07 MaxDP=2.55D-05 DE=-7.61D-10 OVMax= 1.34D-05

 Cycle  10  Pass 1  IDiag  1:
 E= -61.9634067670331     Delta-E=       -0.000000000036 Rises=F Damp=F
 DIIS: error= 9.82D-08 at cycle  10 NSaved=  10.
 NSaved=10 IEnMin=10 EnMin= -61.9634067670331     IErMin=10 ErrMin= 9.82D-08
 ErrMax= 9.82D-08  0.00D+00 EMaxC= 1.00D-01 BMatC= 8.73D-13 BMatP= 7.29D-12
 IDIUse=1 WtCom= 1.00D+00 WtEn= 0.00D+00
 Coeff-Com:  0.438D-04-0.893D-04 0.441D-04 0.881D-03-0.512D-03 0.754D-02
 Coeff-Com: -0.228D-01-0.768D-01 0.107D+00 0.984D+00
 Coeff:      0.438D-04-0.893D-04 0.441D-04 0.881D-03-0.512D-03 0.754D-02
 Coeff:     -0.228D-01-0.768D-01 0.107D+00 0.984D+00
 Gap=     0.089 Goal=   None    Shift=    0.000
 RMSDP=7.20D-08 MaxDP=1.30D-05 DE=-3.59D-11 OVMax= 3.82D-06

 Cycle  11  Pass 1  IDiag  1:
 E= -61.9634067670358     Delta-E=       -0.000000000003 Rises=F Damp=F
 DIIS: error= 4.27D-08 at cycle  11 NSaved=  11.
 NSaved=11 IEnMin=11 EnMin= -61.9634067670358     IErMin=11 ErrMin= 4.27D-08
 ErrMax= 4.27D-08  0.00D+00 EMaxC= 1.00D-01 BMatC= 1.60D-13 BMatP= 8.73D-13
 IDIUse=1 WtCom= 1.00D+00 WtEn= 0.00D+00
 Coeff-Com: -0.747D-08-0.811D-07-0.429D-04 0.183D-04 0.157D-03 0.106D-02
 Coeff-Com:  0.626D-02-0.169D-02-0.132D+00 0.181D+00 0.945D+00
 Coeff:     -0.747D-08-0.811D-07-0.429D-04 0.183D-04 0.157D-03 0.106D-02
 Coeff:      0.626D-02-0.169D-02-0.132D+00 0.181D+00 0.945D+00
 Gap=     0.089 Goal=   None    Shift=    0.000
 RMSDP=2.65D-08 MaxDP=4.80D-06 DE=-2.73D-12 OVMax= 1.55D-06

 Cycle  12  Pass 1  IDiag  1:
 E= -61.9634067670368     Delta-E=       -0.000000000001 Rises=F Damp=F
 DIIS: error= 2.44D-08 at cycle  12 NSaved=  12.
 NSaved=12 IEnMin=12 EnMin= -61.9634067670368     IErMin=12 ErrMin= 2.44D-08
 ErrMax= 2.44D-08  0.00D+00 EMaxC= 1.00D-01 BMatC= 3.49D-14 BMatP= 1.60D-13
 IDIUse=1 WtCom= 1.00D+00 WtEn= 0.00D+00
 Coeff-Com: -0.164D-07 0.127D-05-0.305D-04-0.170D-03 0.266D-03-0.154D-02
 Coeff-Com:  0.471D-02 0.165D-01-0.292D-01-0.173D+00 0.118D-01 0.117D+01
 Coeff:     -0.164D-07 0.127D-05-0.305D-04-0.170D-03 0.266D-03-0.154D-02
 Coeff:      0.471D-02 0.165D-01-0.292D-01-0.173D+00 0.118D-01 0.117D+01
 Gap=     0.089 Goal=   None    Shift=    0.000
 RMSDP=6.98D-09 MaxDP=1.17D-06 DE=-9.38D-13 OVMax= 3.84D-07

 Cycle  13  Pass 1  IDiag  1:
 E= -61.9634067670367     Delta-E=        0.000000000000 Rises=F Damp=F
 DIIS: error= 1.29D-08 at cycle  13 NSaved=  13.
 NSaved=13 IEnMin=12 EnMin= -61.9634067670368     IErMin=13 ErrMin= 1.29D-08
 ErrMax= 1.29D-08  0.00D+00 EMaxC= 1.00D-01 BMatC= 8.22D-15 BMatP= 3.49D-14
 IDIUse=1 WtCom= 1.00D+00 WtEn= 0.00D+00
 Coeff-Com: -0.731D-05 0.138D-04 0.226D-04 0.687D-04-0.236D-03 0.202D-03
 Coeff-Com: -0.289D-02-0.410D-02 0.364D-01 0.368D-02-0.245D+00-0.343D+00
 Coeff-Com:  0.155D+01
 Coeff:     -0.731D-05 0.138D-04 0.226D-04 0.687D-04-0.236D-03 0.202D-03
 Coeff:     -0.289D-02-0.410D-02 0.364D-01 0.368D-02-0.245D+00-0.343D+00
 Coeff:      0.155D+01
 Gap=     0.089 Goal=   None    Shift=    0.000
 RMSDP=4.35D-09 MaxDP=5.42D-07 DE= 9.95D-14 OVMax= 2.17D-07

 SCF Done:  E(ROHF) =  -61.9634067670     A.U. after   13 cycles
            NFock= 13  Conv=0.44D-08     -V/T= 3.0437
 <Sx>= 0.0000 <Sy>= 0.0000 <Sz>= 0.5000 <S**2>= 0.7500 S= 0.5000
 <L.S>=  0.00000000000    
 KE= 3.031954599883D+01 PE=-1.751551679902D+02 EE= 6.232768821215D+01
 Annihilation of the first spin contaminant:
 S**2 before annihilation     0.7500,   after     0.7500
 Leave Link  502 at Mon Mar  5 18:03:52 2018, MaxMem= 10737418240 cpu:             369.3 elap:              25.7
 (Enter /home1/apps/gaussian/16rA.03/g16/l801.exe)
 Windowed orbitals will be sorted by symmetry type.
 GenMOA:  NOpAll=  4 NOp2=4 NOpUse=  4 JSym2X=1
 FoFJK:  IHMeth= 1 ICntrl=       0 DoSepK=F KAlg= 0 I1Cent=           0 FoldK=F
 IRaf=         0 NMat=       1 IRICut=       1 DoRegI=T DoRafI=F ISym2E= 1 IDoP0=0 IntGTp=1.
 FoFCou: FMM=F IPFlag=           8 FMFlag=      100000 FMFlg1=           0
         NFxFlg=           0 DoJE=F BraDBF=F KetDBF=F FulRan=T
         wScrn=  0.000000 ICntrl=         0 IOpCl=  1 I1Cent=           0 NGrid=           0
         NMat0=    1 NMatS0=      1 NMatT0=    0 NMatD0=    1 NMtDS0=    0 NMtDT0=    0
 Petite list used in FoFCou.
 <Sx>= 0.0000 <Sy>= 0.0000 <Sz>= 0.5000 <S**2>= 0.7500 S= 0.5000
 Range of M.O.s used for correlation:     1   258
 NBasis=   261 NAE=     9 NBE=     8 NFC=     0 NFV=     0
 NROrb=    258 NOA=     9 NOB=     8 NVA=   249 NVB=   250

 **** Warning!!: The largest alpha MO coefficient is  0.35390097D+03


 **** Warning!!: The largest beta MO coefficient is  0.35393321D+03

 Singles contribution to E2=   -0.2025174340D-03
 Leave Link  801 at Mon Mar  5 18:03:58 2018, MaxMem= 10737418240 cpu:             100.9 elap:               6.3
 (Enter /home1/apps/gaussian/16rA.03/g16/l804.exe)
 Open-shell transformation, MDV= 10737418240 ITran=4 ISComp=2.
 Unit  1 TFree=       2053648 TCopy=        917704.
 Semi-Direct transformation.
 ModeAB=           4 MOrb=             9 LenV=   10735345395
 LASXX=     19587894 LTotXX=    19587894 LenRXX=    39492189
 LTotAB=    19904295 MaxLAS=   112233870 LenRXY=           0
 NonZer=    59080083 LenScr=    89384960 LnRSAI=   112233870
 LnScr1=   169100288 LExtra=     8126851 Total=    418338158
 MaxDsk= 67108864000 SrtSym=           T ITran=            4
 DoSDTr:  NPSUse= 16
 JobTyp=1 Pass  1:  I=   1 to   9.
 (rs|ai) integrals will be sorted in core.
 Complete sort for first half transformation.
 First half transformation complete.
 Complete sort for second half transformation.
 Second half transformation complete.
 ModeAB=           4 MOrb=             8 LenV=   10735345395
 LASXX=     17386166 LTotXX=    17386166 LenRXX=    33807986
 LTotAB=    16421820 MaxLAS=    99763440 LenRXY=           0
 NonZer=    51194152 LenScr=    77552640 LnRSAI=    99763440
 LnScr1=   150405120 LExtra=    47619040 Total=    409148226
 MaxDsk= 67108864000 SrtSym=           T ITran=            4
 DoSDTr:  NPSUse= 16
 JobTyp=2 Pass  1:  I=   1 to   8.
 (rs|ai) integrals will be sorted in core.
 Complete sort for first half transformation.
 First half transformation complete.
 Complete sort for second half transformation.
 Second half transformation complete.
 Spin components of T(2) and E(2):
     alpha-alpha T2 =       0.3114403816D-01 E2=     -0.9710111612D-01
     alpha-beta  T2 =       0.1313913063D+00 E2=     -0.4970316850D+00
     beta-beta   T2 =       0.2688553277D-01 E2=     -0.8827792872D-01
 ANorm=    0.1090692874D+01
 E2 =    -0.6826132473D+00 EUMP2 =    -0.62646020014301D+02
 (S**2,0)=  0.75000D+00           (S**2,1)=  0.75000D+00
 E(PUHF)=      -0.61963406767D+02        E(PMP2)=      -0.62646020014D+02
 Leave Link  804 at Mon Mar  5 18:06:02 2018, MaxMem= 10737418240 cpu:            1965.7 elap:             123.3
 (Enter /home1/apps/gaussian/16rA.03/g16/l913.exe)
 CIDS:  MDV= 10737418240.
 IFCWin=0 IBDFC=1 NFBD=     0     0 NFCmp=     0     0 NFFFC=     0     0
 Using original routines for 1st iteration.
 Using DD4UQ or CC4UQ for 2nd and later iterations.
 Keep R2 and R3 ints in memory in symmetry-blocked form, NReq=734615681.
 FoFCou: FMM=F IPFlag=           8 FMFlag=           0 FMFlg1=           0
         NFxFlg=           0 DoJE=F BraDBF=F KetDBF=F FulRan=T
         wScrn=  0.000000 ICntrl=       600 IOpCl=  0 I1Cent=           0 NGrid=           0
         NMat0=    1 NMatS0=  34191 NMatT0=    0 NMatD0=    1 NMtDS0=    0 NMtDT0=    0
 Petite list used in FoFCou.
 CIDS: In Core Option IDoMem=           1.
 CCSD(T)
 =======
 Iterations= 150 Convergence= 0.100D-06
 Produce multiple copies of IABC intergrals
 Iteration Nr.   1
 **********************
 DD1Dir will call FoFMem   1 times, MxPair=       208
 NAB=    72 NAA=    36 NBB=    28.
 DD1Dir will call FoFMem   1 times, MxPair=       208
 NAB=    72 NAA=    36 NBB=    28.
 MP4(R+Q)= -0.80878200D-02
 Maximum subspace dimension=  5
 A-vector RMS=  1.1210962D-04 Max=  3.4938094D-03 conv= 1.00D-05.
 RLE energy=       -0.6644109706
 E3=        0.26770548D-01        EROMP3=      -0.62619249467D+02
 E4(SDQ)=  -0.37503238D-01        ROMP4(SDQ)=  -0.62656752705D+02
 VARIATIONAL ENERGIES WITH THE FIRST-ORDER WAVEFUNCTION:
 DE(Corr)= -0.66391210     E(Corr)=     -62.627318863    
 NORM(A)=   0.10841378D+01
 Iteration Nr.   2
 **********************
 DD1Dir will call FoFMem   1 times, MxPair=       208
 NAB=    72 NAA=    36 NBB=    28.
 A-vector RMS=  5.8785274D-03 Max=  5.7971520D-02 conv= 1.00D-05.
 RLE energy=       -0.6299826678
 DE(Corr)= -0.63488816     E(CORR)=     -62.598294931     Delta= 2.90D-02
 NORM(A)=   0.10905222D+01
 Iteration Nr.   3
 **********************
 DD1Dir will call FoFMem   1 times, MxPair=       208
 NAB=    72 NAA=    36 NBB=    28.
 A-vector RMS=  5.1484888D-03 Max=  5.0783011D-02 conv= 1.00D-05.
 RLE energy=       -0.6668930799
 DE(Corr)= -0.69486531     E(CORR)=     -62.658272076     Delta=-6.00D-02
 NORM(A)=   0.10840388D+01
 Iteration Nr.   4
 **********************
 DD1Dir will call FoFMem   1 times, MxPair=       208
 NAB=    72 NAA=    36 NBB=    28.
 A-vector RMS=  4.4565393D-03 Max=  4.3952165D-02 conv= 1.00D-05.
 RLE energy=       -0.6713215527
 DE(Corr)= -0.64547121     E(CORR)=     -62.608877977     Delta= 4.94D-02
 NORM(A)=   0.11008416D+01
 Iteration Nr.   5
 **********************
 DD1Dir will call FoFMem   1 times, MxPair=       208
 NAB=    72 NAA=    36 NBB=    28.
 A-vector RMS=  7.5407752D-04 Max=  6.9981223D-03 conv= 1.00D-05.
 RLE energy=       -0.6718368628
 DE(Corr)= -0.67562403     E(CORR)=     -62.639030794     Delta=-3.02D-02
 NORM(A)=   0.11036341D+01
 Iteration Nr.   6
 **********************
 DD1Dir will call FoFMem   1 times, MxPair=       208
 NAB=    72 NAA=    36 NBB=    28.
 A-vector RMS=  3.1726446D-04 Max=  3.9430137D-03 conv= 1.00D-05.
 RLE energy=       -0.6720530416
 DE(Corr)= -0.67326996     E(CORR)=     -62.636676730     Delta= 2.35D-03
 NORM(A)=   0.11048914D+01
 Iteration Nr.   7
 **********************
 DD1Dir will call FoFMem   1 times, MxPair=       208
 NAB=    72 NAA=    36 NBB=    28.
 A-vector RMS=  1.2688379D-04 Max=  2.3005727D-03 conv= 1.00D-05.
 RLE energy=       -0.6719792870
 DE(Corr)= -0.67176465     E(CORR)=     -62.635171418     Delta= 1.51D-03
 NORM(A)=   0.11060444D+01
 Iteration Nr.   8
 **********************
 DD1Dir will call FoFMem   1 times, MxPair=       208
 NAB=    72 NAA=    36 NBB=    28.
 A-vector RMS=  7.4354497D-05 Max=  1.0667140D-03 conv= 1.00D-05.
 RLE energy=       -0.6719372070
 DE(Corr)= -0.67193469     E(CORR)=     -62.635341455     Delta=-1.70D-04
 NORM(A)=   0.11064438D+01
 Iteration Nr.   9
 **********************
 DD1Dir will call FoFMem   1 times, MxPair=       208
 NAB=    72 NAA=    36 NBB=    28.
 A-vector RMS=  3.1884066D-05 Max=  4.0178165D-04 conv= 1.00D-05.
 RLE energy=       -0.6720483982
 DE(Corr)= -0.67195388     E(CORR)=     -62.635360645     Delta=-1.92D-05
 NORM(A)=   0.11066924D+01
 Iteration Nr.  10
 **********************
 DD1Dir will call FoFMem   1 times, MxPair=       208
 NAB=    72 NAA=    36 NBB=    28.
 A-vector RMS=  1.6484634D-05 Max=  1.4357861D-04 conv= 1.00D-05.
 RLE energy=       -0.6720163935
 DE(Corr)= -0.67195919     E(CORR)=     -62.635365957     Delta=-5.31D-06
 NORM(A)=   0.11066873D+01
 Iteration Nr.  11
 **********************
 DD1Dir will call FoFMem   1 times, MxPair=       208
 NAB=    72 NAA=    36 NBB=    28.
 A-vector RMS=  9.1139868D-06 Max=  1.1028522D-04 conv= 1.00D-05.
 RLE energy=       -0.6720003210
 DE(Corr)= -0.67199833     E(CORR)=     -62.635405099     Delta=-3.91D-05
 NORM(A)=   0.11066606D+01
 Iteration Nr.  12
 **********************
 DD1Dir will call FoFMem   1 times, MxPair=       208
 NAB=    72 NAA=    36 NBB=    28.
 A-vector RMS=  4.3372669D-06 Max=  3.6534331D-05 conv= 1.00D-05.
 RLE energy=       -0.6720014032
 DE(Corr)= -0.67199600     E(CORR)=     -62.635402770     Delta= 2.33D-06
 NORM(A)=   0.11066696D+01
 Iteration Nr.  13
 **********************
 DD1Dir will call FoFMem   1 times, MxPair=       208
 NAB=    72 NAA=    36 NBB=    28.
 A-vector RMS=  2.8764405D-06 Max=  5.0217848D-05 conv= 1.00D-05.
 RLE energy=       -0.6720033677
 DE(Corr)= -0.67200360     E(CORR)=     -62.635410363     Delta=-7.59D-06
 NORM(A)=   0.11066716D+01
 Iteration Nr.  14
 **********************
 DD1Dir will call FoFMem   1 times, MxPair=       208
 NAB=    72 NAA=    36 NBB=    28.
 A-vector RMS=  1.5524227D-06 Max=  1.4349397D-05 conv= 1.00D-05.
 RLE energy=       -0.6720006909
 DE(Corr)= -0.67200028     E(CORR)=     -62.635407044     Delta= 3.32D-06
 NORM(A)=   0.11066786D+01
 Iteration Nr.  15
 **********************
 DD1Dir will call FoFMem   1 times, MxPair=       208
 NAB=    72 NAA=    36 NBB=    28.
 A-vector RMS=  8.8267992D-07 Max=  1.5599051D-05 conv= 1.00D-05.
 RLE energy=       -0.6720050092
 DE(Corr)= -0.67200508     E(CORR)=     -62.635411849     Delta=-4.80D-06
 NORM(A)=   0.11066837D+01
 Iteration Nr.  16
 **********************
 DD1Dir will call FoFMem   1 times, MxPair=       208
 NAB=    72 NAA=    36 NBB=    28.
 A-vector RMS=  6.1313208D-07 Max=  6.6243050D-06 conv= 1.00D-05.
 RLE energy=       -0.6720029754
 DE(Corr)= -0.67200270     E(CORR)=     -62.635409469     Delta= 2.38D-06
 NORM(A)=   0.11066870D+01
 Iteration Nr.  17
 **********************
 DD1Dir will call FoFMem   1 times, MxPair=       208
 NAB=    72 NAA=    36 NBB=    28.
 A-vector RMS=  3.8736629D-07 Max=  4.1836719D-06 conv= 1.00D-05.
 RLE energy=       -0.6720045839
 DE(Corr)= -0.67200492     E(CORR)=     -62.635411692     Delta=-2.22D-06
 NORM(A)=   0.11066890D+01
 Iteration Nr.  18
 **********************
 DD1Dir will call FoFMem   1 times, MxPair=       208
 NAB=    72 NAA=    36 NBB=    28.
 A-vector RMS=  2.3997812D-07 Max=  2.2890575D-06 conv= 1.00D-05.
 RLE energy=       -0.6720041445
 DE(Corr)= -0.67200377     E(CORR)=     -62.635410542     Delta= 1.15D-06
 NORM(A)=   0.11066903D+01
 Iteration Nr.  19
 **********************
 DD1Dir will call FoFMem   1 times, MxPair=       208
 NAB=    72 NAA=    36 NBB=    28.
 A-vector RMS=  1.4169909D-07 Max=  1.4011600D-06 conv= 1.00D-05.
 RLE energy=       -0.6720043878
 DE(Corr)= -0.67200441     E(CORR)=     -62.635411180     Delta=-6.38D-07
 NORM(A)=   0.11066905D+01
 Iteration Nr.  20
 **********************
 DD1Dir will call FoFMem   1 times, MxPair=       208
 NAB=    72 NAA=    36 NBB=    28.
 A-vector RMS=  8.2539685D-08 Max=  7.5020472D-07 conv= 1.00D-05.
 RLE energy=       -0.6720041834
 DE(Corr)= -0.67200415     E(CORR)=     -62.635410913     Delta= 2.67D-07
 NORM(A)=   0.11066908D+01
 Iteration Nr.  21
 **********************
 DD1Dir will call FoFMem   1 times, MxPair=       208
 NAB=    72 NAA=    36 NBB=    28.
 A-vector RMS=  5.7542398D-08 Max=  7.0068887D-07 conv= 1.00D-05.
 RLE energy=       -0.6720043955
 DE(Corr)= -0.67200441     E(CORR)=     -62.635411176     Delta=-2.63D-07
 NORM(A)=   0.11066908D+01
 Iteration Nr.  22
 **********************
 DD1Dir will call FoFMem   1 times, MxPair=       208
 NAB=    72 NAA=    36 NBB=    28.
 A-vector RMS=  3.0613356D-08 Max=  2.7699924D-07 conv= 1.00D-05.
 RLE energy=       -0.6720042730
 DE(Corr)= -0.67200424     E(CORR)=     -62.635411008     Delta= 1.68D-07
 NORM(A)=   0.11066909D+01
 Iteration Nr.  23
 **********************
 DD1Dir will call FoFMem   1 times, MxPair=       208
 NAB=    72 NAA=    36 NBB=    28.
 A-vector RMS=  2.5827431D-08 Max=  3.9396977D-07 conv= 1.00D-05.
 RLE energy=       -0.6720043615
 DE(Corr)= -0.67200438     E(CORR)=     -62.635411145     Delta=-1.37D-07
 NORM(A)=   0.11066909D+01
 Iteration Nr.  24
 **********************
 DD1Dir will call FoFMem   1 times, MxPair=       208
 NAB=    72 NAA=    36 NBB=    28.
 A-vector RMS=  1.2767204D-08 Max=  1.6210502D-07 conv= 1.00D-05.
 RLE energy=       -0.6720043139
 DE(Corr)= -0.67200430     E(CORR)=     -62.635411069     Delta= 7.56D-08
 NORM(A)=   0.11066910D+01
 CI/CC converged in   24 iterations to DelEn= 7.56D-08 Conv= 1.00D-07 ErrA1= 1.28D-08 Conv= 1.00D-05
 Wavefunction amplitudes converged. E(Corr)=     -62.635411069    
 Largest amplitude= 8.32D-02
 Time for triples=    11524.03 seconds.
 T4(CCSD)= -0.49715471D-01
 T5(CCSD)=  0.91142043D-02
 CCSD(T)= -0.62676012337D+02
 Discarding MO integrals.
 Leave Link  913 at Mon Mar  5 18:24:30 2018, MaxMem= 10737418240 cpu:           17679.6 elap:            1106.8
 (Enter /home1/apps/gaussian/16rA.03/g16/l601.exe)
 Copying SCF densities to generalized density rwf, IOpCl= 0 IROHF=1.

 **********************************************************************

            Population analysis using the SCF density.

 **********************************************************************

 Orbital symmetries:
       Occupied  (SG) (SG) (PI) (PI) (SG) (SG) (PI) (PI) (SG)
       Virtual   (PI) (PI) (SG) (SG) (DLTA) (DLTA) (PI) (PI) (PI)
                 (PI) (SG) (SG) (DLTA) (DLTA) (SG) (PI) (PI) (SG)
                 (PI) (PI) (SG) (PI) (PI) (PHI) (PHI) (DLTA) (DLTA)
                 (SG) (DLTA) (DLTA) (PI) (PI) (SG) (PI) (PI) (SG)
                 (SG) (SG) (DLTA) (DLTA) (PI) (PI) (DLTA) (DLTA)
                 (?A) (?A) (PHI) (PHI) (SG) (PI) (PI) (PI) (PI)
                 (SG) (PHI) (PHI) (DLTA) (DLTA) (SG) (PI) (PI)
                 (SG) (PI) (PI) (DLTA) (DLTA) (SG) (SG) (DLTA)
                 (DLTA) (PI) (PI) (SG) (SG) (PI) (PI) (PI) (PI)
                 (SG) (DLTA) (DLTA) (PHI) (PHI) (?A) (?A) (SG)
                 (PI) (PI) (SG) (DLTA) (DLTA) (PHI) (PHI) (PI)
                 (PI) (PHI) (PHI) (DLTA) (DLTA) (SG) (PI) (PI)
                 (DLTA) (DLTA) (DLTA) (DLTA) (SG) (PI) (PI) (SG)
                 (PI) (PI) (SG) (SG) (PI) (PI) (SG) (PI) (PI) (SG)
                 (SG) (DLTA) (DLTA) (PI) (PI) (SG) (PHI) (PHI)
                 (PHI) (PHI) (DLTA) (DLTA) (DLTA) (DLTA) (PI) (PI)
                 (PI) (PI) (SG) (DLTA) (DLTA) (SG) (PI) (PI) (SG)
                 (?A) (?A) (PHI) (PHI) (DLTA) (DLTA) (PI) (PI)
                 (SG) (SG) (PI) (PI) (SG) (DLTA) (DLTA) (PI) (PI)
                 (SG) (PI) (PI) (SG) (SG) (SG) (PI) (PI) (SG) (DLTA)
                 (DLTA) (PI) (PI) (SG) (SG) (PI) (PI) (SG) (SG)
                 (DLTA) (DLTA) (PI) (PI) (SG) (PI) (PI) (SG) (DLTA)
                 (DLTA) (PI) (PI) (SG) (SG) (SG) (PI) (PI) (SG)
                 (PI) (PI) (SG) (SG) (SG) (PI) (PI) (SG) (DLTA)
                 (DLTA) (PI) (PI) (SG) (SG) (SG) (PI) (PI) (SG)
                 (PI) (PI) (SG) (SG) (SG) (PI) (PI) (SG) (SG) (PI)
                 (PI) (SG) (SG) (SG) (PI) (PI) (SG) (SG) (SG) (PI)
                 (PI) (SG) (SG) (SG) (SG) (PI) (PI) (SG) (SG) (SG)
                 (SG) (SG)
 The electronic state is 2-SG.
 Alpha  occ. eigenvalues --   -2.66533  -1.66673  -1.63709  -1.63709  -1.12656
 Alpha  occ. eigenvalues --   -0.42739  -0.41117  -0.41117  -0.25267
 Alpha virt. eigenvalues --   -0.00040  -0.00040   0.01445   0.02233   0.03532
 Alpha virt. eigenvalues --    0.03532   0.03580   0.03580   0.04202   0.04202
 Alpha virt. eigenvalues --    0.04382   0.05441   0.08090   0.08090   0.10506
 Alpha virt. eigenvalues --    0.12268   0.12268   0.13121   0.15422   0.15422
 Alpha virt. eigenvalues --    0.15432   0.15680   0.15680   0.16117   0.16117
 Alpha virt. eigenvalues --    0.16164   0.16164   0.17513   0.17784   0.17784
 Alpha virt. eigenvalues --    0.22597   0.22597   0.26502   0.33841   0.33841
 Alpha virt. eigenvalues --    0.34009   0.38663   0.42822   0.45687   0.45687
 Alpha virt. eigenvalues --    0.46599   0.46599   0.46696   0.46696   0.46921
 Alpha virt. eigenvalues --    0.46921   0.48083   0.48083   0.48499   0.49092
 Alpha virt. eigenvalues --    0.49092   0.54510   0.54510   0.57394   0.61148
 Alpha virt. eigenvalues --    0.61148   0.61708   0.61708   0.66765   0.82255
 Alpha virt. eigenvalues --    0.82255   0.89051   0.97497   0.97497   1.01491
 Alpha virt. eigenvalues --    1.01491   1.02955   1.21930   1.25556   1.25556
 Alpha virt. eigenvalues --    1.29845   1.29845   1.33455   1.54009   1.56788
 Alpha virt. eigenvalues --    1.56788   1.58641   1.58641   1.74082   1.91187
 Alpha virt. eigenvalues --    1.91187   1.91267   1.91267   1.93168   1.93168
 Alpha virt. eigenvalues --    1.96064   1.96368   1.96368   2.09058   2.11111
 Alpha virt. eigenvalues --    2.11111   2.14230   2.14230   2.14455   2.14455
 Alpha virt. eigenvalues --    2.28949   2.28949   2.48187   2.48187   2.51211
 Alpha virt. eigenvalues --    2.69336   2.69336   2.77326   2.77326   2.92646
 Alpha virt. eigenvalues --    2.92646   2.92785   3.02547   3.02547   3.03303
 Alpha virt. eigenvalues --    3.41710   3.41710   3.48652   3.56794   4.03239
 Alpha virt. eigenvalues --    4.03239   4.23436   4.33399   4.33399   4.98459
 Alpha virt. eigenvalues --    5.54960   5.90913   5.90913   5.99499   5.99499
 Alpha virt. eigenvalues --    6.07866   6.63456   6.63456   6.66942   6.66942
 Alpha virt. eigenvalues --    6.67997   6.67997   6.79469   6.79469   6.88037
 Alpha virt. eigenvalues --    6.88037   6.94903   6.94903   6.96717   7.23554
 Alpha virt. eigenvalues --    7.23554   7.47505   7.60137   7.60137   7.68873
 Alpha virt. eigenvalues --    7.72356   7.72356   7.74401   7.74401   7.79653
 Alpha virt. eigenvalues --    7.79653   7.89124   7.89124   8.09634   8.56352
 Alpha virt. eigenvalues --    8.79469   8.79469   9.40325  11.16104  11.16104
 Alpha virt. eigenvalues --   11.25583  11.25583  11.47497  15.00195  15.00195
 Alpha virt. eigenvalues --   15.65423  16.43335  16.79595  17.96044  17.96044
 Alpha virt. eigenvalues --   18.44689  20.73373  20.73373  20.81370  20.81370
 Alpha virt. eigenvalues --   21.02363  34.61205  37.34879  37.34879  37.82117
 Alpha virt. eigenvalues --   38.42589  43.77231  43.77231  43.84873  43.84873
 Alpha virt. eigenvalues --   44.00613  45.64407  45.64407  46.25228  47.76991
 Alpha virt. eigenvalues --   47.76991  47.82989  47.82989  47.98571  70.60519
 Alpha virt. eigenvalues --   74.60969  76.50572  76.50572  76.94646 119.02139
 Alpha virt. eigenvalues --  119.02139 119.51144 127.84946 136.82377 151.67984
 Alpha virt. eigenvalues --  151.67984 152.09780 173.70885 173.70885 173.74430
 Alpha virt. eigenvalues --  173.74430 173.83330 229.31032 257.59228 286.30974
 Alpha virt. eigenvalues --  286.30974 286.74484 302.40851 302.40851 302.81467
 Alpha virt. eigenvalues --  436.30950 555.07663 625.72659 625.72659 626.10898
 Alpha virt. eigenvalues --  878.798511381.120321381.120321381.467921529.60312
 Alpha virt. eigenvalues -- 1876.751143351.844853351.844853352.148424257.13758
 Alpha virt. eigenvalues -- 5659.763369408.089669408.089669408.33964**********
 Alpha virt. eigenvalues -- **************************************************
 Alpha virt. eigenvalues -- ****************************************
     Molecular Orbital Coefficients:
                           4         5         6         7         8
                           O         O         O         O         O
     Eigenvalues --    -1.63709  -1.12656  -0.42739  -0.41117  -0.41117
   1 1   Sc 1S          0.00000   0.00000   0.00000   0.00000   0.00000
   2        2S          0.00000  -0.00000  -0.00000   0.00000   0.00000
   3        3S          0.00000   0.00000   0.00000   0.00000   0.00000
   4        4S          0.00000  -0.00000  -0.00000   0.00000   0.00000
   5        5S          0.00000   0.00000   0.00000   0.00000   0.00000
   6        6S          0.00000  -0.00000  -0.00000   0.00000   0.00000
   7        7S          0.00000   0.00002   0.00002   0.00000   0.00000
   8        8S          0.00000  -0.00005  -0.00006   0.00000   0.00000
   9        9S          0.00000   0.00016   0.00017   0.00000   0.00000
  10       10S          0.00000  -0.00046  -0.00050   0.00000   0.00000
  11       11S          0.00000   0.00136   0.00150   0.00000   0.00000
  12       12S          0.00000  -0.00448  -0.00504   0.00000   0.00000
  13       13S          0.00000  -0.00163  -0.00278   0.00000   0.00000
  14       14S          0.00000   0.05619   0.07279   0.00000   0.00000
  15       15S          0.00000   0.00797   0.03505   0.00000   0.00000
  16       16S          0.00000  -0.10688  -0.16453   0.00000   0.00000
  17       17S          0.00000  -0.03713  -0.09089   0.00000   0.00000
  18       18S          0.00000  -0.01932   0.02971   0.00000   0.00000
  19       19S          0.00000  -0.01498  -0.01387   0.00000   0.00000
  20       20S          0.00000   0.00003   0.01209   0.00000   0.00000
  21       21S          0.00000  -0.02143  -0.04765   0.00000   0.00000
  22       22S          0.00000  -0.01413   0.01624   0.00000   0.00000
  23       23S          0.00000   0.00072  -0.00005   0.00000   0.00000
  24       24PX         0.00000   0.00000   0.00000   0.00000   0.00000
  25       24PY         0.00000   0.00000   0.00000   0.00000   0.00000
  26       24PZ         0.00000   0.00000  -0.00000   0.00000   0.00000
  27       25PX         0.00000   0.00000   0.00000  -0.00000   0.00000
  28       25PY        -0.00000   0.00000   0.00000   0.00000  -0.00000
  29       25PZ         0.00000  -0.00000   0.00000   0.00000   0.00000
  30       26PX         0.00000   0.00000   0.00000   0.00000   0.00000
  31       26PY         0.00001   0.00000   0.00000   0.00000   0.00000
  32       26PZ         0.00000   0.00000  -0.00000   0.00000   0.00000
  33       27PX         0.00000   0.00000   0.00000  -0.00001   0.00000
  34       27PY        -0.00006   0.00000   0.00000   0.00000  -0.00001
  35       27PZ         0.00000  -0.00002   0.00000   0.00000   0.00000
  36       28PX         0.00000   0.00000   0.00000   0.00002   0.00000
  37       28PY         0.00024   0.00000   0.00000   0.00000   0.00002
  38       28PZ         0.00000   0.00006  -0.00000   0.00000   0.00000
  39       29PX         0.00000   0.00000   0.00000  -0.00009   0.00000
  40       29PY        -0.00089   0.00000   0.00000   0.00000  -0.00009
  41       29PZ         0.00000  -0.00024  -0.00002   0.00000   0.00000
  42       30PX         0.00000   0.00000   0.00000   0.00035   0.00000
  43       30PY         0.00342   0.00000   0.00000   0.00000   0.00035
  44       30PZ         0.00000   0.00097   0.00020   0.00000   0.00000
  45       31PX         0.00000   0.00000   0.00000  -0.00017   0.00000
  46       31PY        -0.00168   0.00000   0.00000   0.00000  -0.00017
  47       31PZ         0.00000  -0.00013   0.00088   0.00000   0.00000
  48       32PX         0.00000   0.00000   0.00000  -0.00928   0.00000
  49       32PY        -0.08491   0.00000   0.00000   0.00000  -0.00928
  50       32PZ         0.00000  -0.02978  -0.02008   0.00000   0.00000
  51       33PX         0.00000   0.00000   0.00000   0.01352   0.00000
  52       33PY         0.12009   0.00000   0.00000   0.00000   0.01352
  53       33PZ         0.00000   0.08285   0.11525   0.00000   0.00000
  54       34PX         0.00000   0.00000   0.00000   0.03566   0.00000
  55       34PY         0.32311   0.00000   0.00000   0.00000   0.03566
  56       34PZ         0.00000   0.11551   0.07302   0.00000   0.00000
  57       35PX         0.00000   0.00000   0.00000   0.06304   0.00000
  58       35PY         0.47183   0.00000   0.00000   0.00000   0.06304
  59       35PZ         0.00000   0.15417   0.13603   0.00000   0.00000
  60       36PX         0.00000   0.00000   0.00000   0.03190   0.00000
  61       36PY         0.28892   0.00000   0.00000   0.00000   0.03190
  62       36PZ         0.00000   0.08931   0.05378   0.00000   0.00000
  63       37PX         0.00000   0.00000   0.00000  -0.01495   0.00000
  64       37PY         0.03590   0.00000   0.00000   0.00000  -0.01495
  65       37PZ         0.00000   0.03184   0.03365   0.00000   0.00000
  66       38PX         0.00000   0.00000   0.00000  -0.01645   0.00000
  67       38PY        -0.00601   0.00000   0.00000   0.00000  -0.01645
  68       38PZ         0.00000   0.00623  -0.00323   0.00000   0.00000
  69       39PX         0.00000   0.00000   0.00000   0.01697   0.00000
  70       39PY         0.00143   0.00000   0.00000   0.00000   0.01697
  71       39PZ         0.00000   0.00076  -0.00683   0.00000   0.00000
  72       40PX         0.00000   0.00000   0.00000  -0.01039   0.00000
  73       40PY        -0.10047   0.00000   0.00000   0.00000  -0.01039
  74       40PZ         0.00000  -0.07717  -0.11263   0.00000   0.00000
  75       41PX         0.00000   0.00000   0.00000  -0.00433   0.00000
  76       41PY         0.00038   0.00000   0.00000   0.00000  -0.00433
  77       41PZ         0.00000   0.00484  -0.04758   0.00000   0.00000
  78       42PX         0.00000   0.00000   0.00000  -0.00379   0.00000
  79       42PY        -0.00047   0.00000   0.00000   0.00000  -0.00379
  80       42PZ         0.00000  -0.00073  -0.00077   0.00000   0.00000
  81       43D 0        0.00000   0.00002   0.00007   0.00000   0.00000
  82       43D+1        0.00000   0.00000   0.00000   0.00005   0.00000
  83       43D-1       -0.00000   0.00000   0.00000   0.00000   0.00005
  84       43D+2        0.00000  -0.00000   0.00000   0.00000   0.00000
  85       43D-2        0.00000   0.00000   0.00000   0.00000   0.00000
  86       44D 0        0.00000   0.00287   0.01013   0.00000   0.00000
  87       44D+1        0.00000   0.00000   0.00000   0.00642   0.00000
  88       44D-1        0.00000   0.00000   0.00000   0.00000   0.00642
  89       44D+2        0.00000  -0.00000  -0.00000   0.00000   0.00000
  90       44D-2        0.00000   0.00000   0.00000   0.00000   0.00000
  91       45D 0        0.00000   0.01325   0.04530   0.00000   0.00000
  92       45D+1        0.00000   0.00000   0.00000   0.02890   0.00000
  93       45D-1        0.00001   0.00000   0.00000   0.00000   0.02890
  94       45D+2        0.00000  -0.00000   0.00000   0.00000   0.00000
  95       45D-2        0.00000   0.00000   0.00000   0.00000   0.00000
  96       46D 0        0.00000  -0.00277   0.03652   0.00000   0.00000
  97       46D+1        0.00000   0.00000   0.00000   0.01899   0.00000
  98       46D-1       -0.00332   0.00000   0.00000   0.00000   0.01899
  99       46D+2        0.00000   0.00000  -0.00000   0.00000   0.00000
 100       46D-2        0.00000   0.00000   0.00000   0.00000   0.00000
 101       47D 0        0.00000  -0.44641  -0.63551   0.00000   0.00000
 102       47D+1        0.00000   0.00000   0.00000  -0.43401   0.00000
 103       47D-1       -0.06395   0.00000   0.00000   0.00000  -0.43401
 104       47D+2        0.00000   0.00000  -0.00000   0.00000   0.00000
 105       47D-2        0.00000   0.00000   0.00000   0.00000   0.00000
 106       48D 0        0.00000   0.02676   0.12730   0.00000   0.00000
 107       48D+1        0.00000   0.00000   0.00000   0.09419   0.00000
 108       48D-1        0.00616   0.00000   0.00000   0.00000   0.09419
 109       48D+2        0.00000   0.00000  -0.00000   0.00000   0.00000
 110       48D-2        0.00000   0.00000   0.00000   0.00000   0.00000
 111       49D 0        0.00000  -0.00135   0.04830   0.00000   0.00000
 112       49D+1        0.00000   0.00000   0.00000   0.04014   0.00000
 113       49D-1        0.00230   0.00000   0.00000   0.00000   0.04014
 114       49D+2        0.00000  -0.00000   0.00000   0.00000   0.00000
 115       49D-2        0.00000   0.00000   0.00000   0.00000   0.00000
 116       50D 0        0.00000   0.00199   0.01326   0.00000   0.00000
 117       50D+1        0.00000   0.00000   0.00000  -0.01022   0.00000
 118       50D-1        0.00101   0.00000   0.00000   0.00000  -0.01022
 119       50D+2        0.00000  -0.00000   0.00000   0.00000   0.00000
 120       50D-2        0.00000   0.00000   0.00000   0.00000   0.00000
 121       51D 0        0.00000   0.03408   0.06534   0.00000   0.00000
 122       51D+1        0.00000   0.00000   0.00000   0.04640   0.00000
 123       51D-1        0.00243   0.00000   0.00000   0.00000   0.04640
 124       51D+2        0.00000  -0.00000   0.00000   0.00000   0.00000
 125       51D-2        0.00000   0.00000   0.00000   0.00000   0.00000
 126       52D 0        0.00000   0.49392   0.78598   0.00000   0.00000
 127       52D+1        0.00000   0.00000   0.00000   0.52720   0.00000
 128       52D-1        0.06782   0.00000   0.00000   0.00000   0.52720
 129       52D+2        0.00000  -0.00000   0.00000   0.00000   0.00000
 130       52D-2        0.00000   0.00000   0.00000   0.00000   0.00000
 131       53D 0        0.00000  -0.00009   0.00021   0.00000   0.00000
 132       53D+1        0.00000   0.00000   0.00000  -0.00013   0.00000
 133       53D-1       -0.00012   0.00000   0.00000   0.00000  -0.00013
 134       53D+2        0.00000   0.00000  -0.00000   0.00000   0.00000
 135       53D-2        0.00000   0.00000   0.00000   0.00000   0.00000
 136       54F 0        0.00000  -0.00239  -0.00434   0.00000   0.00000
 137       54F+1        0.00000   0.00000   0.00000  -0.00258   0.00000
 138       54F-1       -0.00141   0.00000   0.00000   0.00000  -0.00258
 139       54F+2        0.00000   0.00000  -0.00000   0.00000   0.00000
 140       54F-2        0.00000   0.00000   0.00000   0.00000   0.00000
 141       54F+3        0.00000   0.00000   0.00000   0.00000   0.00000
 142       54F-3       -0.00000   0.00000   0.00000   0.00000   0.00000
 143       55F 0        0.00000  -0.01071  -0.01682   0.00000   0.00000
 144       55F+1        0.00000   0.00000   0.00000  -0.01629   0.00000
 145       55F-1       -0.00437   0.00000   0.00000   0.00000  -0.01629
 146       55F+2        0.00000  -0.00000   0.00000   0.00000   0.00000
 147       55F-2        0.00000   0.00000   0.00000   0.00000   0.00000
 148       55F+3        0.00000   0.00000   0.00000  -0.00000   0.00000
 149       55F-3        0.00000   0.00000   0.00000   0.00000  -0.00000
 150       56F 0        0.00000  -0.00140  -0.01173   0.00000   0.00000
 151       56F+1        0.00000   0.00000   0.00000  -0.00175   0.00000
 152       56F-1       -0.00166   0.00000   0.00000   0.00000  -0.00175
 153       56F+2        0.00000   0.00000  -0.00000   0.00000   0.00000
 154       56F-2        0.00000   0.00000   0.00000   0.00000   0.00000
 155       56F+3        0.00000   0.00000   0.00000  -0.00000   0.00000
 156       56F-3        0.00000   0.00000   0.00000   0.00000  -0.00000
 157       57F 0        0.00000  -0.00116  -0.00700   0.00000   0.00000
 158       57F+1        0.00000   0.00000   0.00000   0.00713   0.00000
 159       57F-1       -0.00047   0.00000   0.00000   0.00000   0.00713
 160       57F+2        0.00000  -0.00000   0.00000   0.00000   0.00000
 161       57F-2        0.00000   0.00000   0.00000   0.00000   0.00000
 162       57F+3        0.00000   0.00000   0.00000  -0.00000   0.00000
 163       57F-3       -0.00000   0.00000   0.00000   0.00000  -0.00000
 164       58G 0        0.00000   0.00076   0.00074   0.00000   0.00000
 165       58G+1        0.00000   0.00000   0.00000   0.00108   0.00000
 166       58G-1       -0.00008   0.00000   0.00000   0.00000   0.00108
 167       58G+2        0.00000  -0.00000   0.00000   0.00000   0.00000
 168       58G-2        0.00000   0.00000   0.00000   0.00000   0.00000
 169       58G+3        0.00000   0.00000   0.00000  -0.00000   0.00000
 170       58G-3        0.00000   0.00000   0.00000   0.00000  -0.00000
 171       58G+4        0.00000  -0.00000   0.00000   0.00000   0.00000
 172       58G-4        0.00000   0.00000   0.00000   0.00000   0.00000
 173       59G 0        0.00000   0.00140   0.00080   0.00000   0.00000
 174       59G+1        0.00000   0.00000   0.00000   0.00254   0.00000
 175       59G-1        0.00000   0.00000   0.00000   0.00000   0.00254
 176       59G+2        0.00000  -0.00000   0.00000   0.00000   0.00000
 177       59G-2        0.00000   0.00000   0.00000   0.00000   0.00000
 178       59G+3        0.00000   0.00000   0.00000   0.00000   0.00000
 179       59G-3        0.00000   0.00000   0.00000   0.00000   0.00000
 180       59G+4        0.00000   0.00000  -0.00000   0.00000   0.00000
 181       59G-4        0.00000   0.00000   0.00000   0.00000   0.00000
 182       60G 0        0.00000   0.00066   0.00545   0.00000   0.00000
 183       60G+1        0.00000   0.00000   0.00000  -0.00583   0.00000
 184       60G-1        0.00047   0.00000   0.00000   0.00000  -0.00583
 185       60G+2        0.00000  -0.00000  -0.00000   0.00000   0.00000
 186       60G-2        0.00000   0.00000   0.00000   0.00000   0.00000
 187       60G+3        0.00000   0.00000   0.00000   0.00000   0.00000
 188       60G-3       -0.00000   0.00000   0.00000   0.00000   0.00000
 189       60G+4        0.00000  -0.00000   0.00000   0.00000   0.00000
 190       60G-4        0.00000   0.00000   0.00000   0.00000   0.00000
 191 2   O  1S          0.00000  -0.00000   0.00000   0.00000   0.00000
 192        2S          0.00000   0.00001  -0.00000   0.00000   0.00000
 193        3S          0.00000  -0.00005   0.00001   0.00000   0.00000
 194        4S          0.00000   0.00032  -0.00005   0.00000   0.00000
 195        5S          0.00000  -0.00329   0.00053   0.00000   0.00000
 196        6S          0.00000  -0.04972   0.00903   0.00000   0.00000
 197        7S          0.00000  -0.16191   0.02533   0.00000   0.00000
 198        8S          0.00000   0.53287  -0.07194   0.00000   0.00000
 199        9S          0.00000   0.15441  -0.02446   0.00000   0.00000
 200       10S          0.00000   0.40878  -0.08666   0.00000   0.00000
 201       11S          0.00000  -0.00056  -0.00526   0.00000   0.00000
 202       12S          0.00000   0.04768  -0.00778   0.00000   0.00000
 203       13S          0.00000   0.06447  -0.02789   0.00000   0.00000
 204       14PX         0.00000   0.00000   0.00000  -0.00740   0.00000
 205       14PY         0.00020   0.00000   0.00000   0.00000  -0.00740
 206       14PZ         0.00000   0.00040   0.00772   0.00000   0.00000
 207       15PX         0.00000   0.00000   0.00000  -0.07683   0.00000
 208       15PY         0.00204   0.00000   0.00000   0.00000  -0.07683
 209       15PZ         0.00000   0.00327   0.08038   0.00000   0.00000
 210       16PX         0.00000   0.00000   0.00000  -0.24699   0.00000
 211       16PY         0.00630   0.00000   0.00000   0.00000  -0.24699
 212       16PZ         0.00000   0.00758   0.25844   0.00000   0.00000
 213       17PX         0.00000   0.00000   0.00000  -0.39299   0.00000
 214       17PY         0.01070   0.00000   0.00000   0.00000  -0.39299
 215       17PZ         0.00000   0.02155   0.41155   0.00000   0.00000
 216       18PX         0.00000   0.00000   0.00000  -0.36517   0.00000
 217       18PY         0.00704   0.00000   0.00000   0.00000  -0.36517
 218       18PZ         0.00000   0.05096   0.34188   0.00000   0.00000
 219       19PX         0.00000   0.00000   0.00000  -0.00431   0.00000
 220       19PY         0.00010   0.00000   0.00000   0.00000  -0.00431
 221       19PZ         0.00000  -0.00008   0.00454   0.00000   0.00000
 222       20PX         0.00000   0.00000   0.00000   0.00195   0.00000
 223       20PY        -0.00005   0.00000   0.00000   0.00000   0.00195
 224       20PZ         0.00000  -0.00011  -0.00203   0.00000   0.00000
 225       21PX         0.00000   0.00000   0.00000  -0.09223   0.00000
 226       21PY         0.00236   0.00000   0.00000   0.00000  -0.09223
 227       21PZ         0.00000   0.01451   0.07522   0.00000   0.00000
 228       22D 0        0.00000   0.00056   0.00476   0.00000   0.00000
 229       22D+1        0.00000   0.00000   0.00000  -0.00412   0.00000
 230       22D-1        0.00081   0.00000   0.00000   0.00000  -0.00412
 231       22D+2        0.00000  -0.00000   0.00000   0.00000   0.00000
 232       22D-2        0.00000   0.00000   0.00000   0.00000   0.00000
 233       23D 0        0.00000   0.00722   0.02050   0.00000   0.00000
 234       23D+1        0.00000   0.00000   0.00000  -0.02313   0.00000
 235       23D-1        0.00300   0.00000   0.00000   0.00000  -0.02313
 236       23D+2        0.00000   0.00000  -0.00000   0.00000   0.00000
 237       23D-2        0.00000   0.00000   0.00000   0.00000   0.00000
 238       24D 0        0.00000   0.00006   0.00023   0.00000   0.00000
 239       24D+1        0.00000   0.00000   0.00000  -0.00026   0.00000
 240       24D-1        0.00004   0.00000   0.00000   0.00000  -0.00026
 241       24D+2        0.00000  -0.00000  -0.00000   0.00000   0.00000
 242       24D-2        0.00000   0.00000   0.00000   0.00000   0.00000
 243       25D 0        0.00000   0.01162   0.02485   0.00000   0.00000
 244       25D+1        0.00000   0.00000   0.00000  -0.04169   0.00000
 245       25D-1        0.00123   0.00000   0.00000   0.00000  -0.04169
 246       25D+2        0.00000   0.00000   0.00000   0.00000   0.00000
 247       25D-2        0.00000   0.00000   0.00000   0.00000   0.00000
 248       26F 0        0.00000   0.00036   0.00207   0.00000   0.00000
 249       26F+1        0.00000   0.00000   0.00000  -0.00145   0.00000
 250       26F-1        0.00070   0.00000   0.00000   0.00000  -0.00145
 251       26F+2        0.00000  -0.00000   0.00000   0.00000   0.00000
 252       26F-2        0.00000   0.00000   0.00000   0.00000   0.00000
 253       26F+3        0.00000   0.00000   0.00000  -0.00000   0.00000
 254       26F-3        0.00000   0.00000   0.00000   0.00000  -0.00000
 255       27F 0        0.00000   0.00124   0.00483   0.00000   0.00000
 256       27F+1        0.00000   0.00000   0.00000  -0.00985   0.00000
 257       27F-1        0.00065   0.00000   0.00000   0.00000  -0.00985
 258       27F+2        0.00000   0.00000  -0.00000   0.00000   0.00000
 259       27F-2        0.00000   0.00000   0.00000   0.00000   0.00000
 260       27F+3        0.00000   0.00000   0.00000  -0.00000   0.00000
 261       27F-3       -0.00000   0.00000   0.00000   0.00000  -0.00000
                           9        10        11        12        13
                           O         V         V         V         V
     Eigenvalues --    -0.25267  -0.00040  -0.00040   0.01445   0.02233
   1 1   Sc 1S          0.00000   0.00000   0.00000  -0.00000  -0.00000
   2        2S         -0.00000   0.00000   0.00000   0.00000   0.00000
   3        3S          0.00000   0.00000   0.00000  -0.00000  -0.00000
   4        4S         -0.00000   0.00000   0.00000   0.00000   0.00000
   5        5S          0.00000   0.00000   0.00000  -0.00000  -0.00000
   6        6S         -0.00001   0.00000   0.00000   0.00000   0.00000
   7        7S          0.00003   0.00000   0.00000  -0.00000  -0.00001
   8        8S         -0.00010   0.00000   0.00000   0.00001   0.00003
   9        9S          0.00031   0.00000   0.00000  -0.00002  -0.00009
  10       10S         -0.00091   0.00000   0.00000   0.00005   0.00024
  11       11S          0.00273   0.00000   0.00000  -0.00000  -0.00060
  12       12S         -0.00911   0.00000   0.00000  -0.00031   0.00176
  13       13S         -0.00370   0.00000   0.00000  -0.00791  -0.00546
  14       14S          0.12110   0.00000   0.00000   0.06572   0.02554
  15       15S          0.03962   0.00000   0.00000   0.19577   0.15100
  16       16S         -0.26575   0.00000   0.00000  -0.32310  -0.21039
  17       17S         -0.31971   0.00000   0.00000  -0.32625  -0.21779
  18       18S          0.31411   0.00000   0.00000   0.56606   0.46274
  19       19S          0.49848   0.00000   0.00000  -0.86758  -2.12301
  20       20S          0.20216   0.00000   0.00000   1.99149   2.51966
  21       21S         -0.06358   0.00000   0.00000  -0.16306  -0.11773
  22       22S          0.07976   0.00000   0.00000   0.39548   0.32835
  23       23S         -0.00711   0.00000   0.00000  -1.79349  -1.94012
  24       24PX         0.00000   0.00000  -0.00000   0.00000   0.00000
  25       24PY         0.00000  -0.00000   0.00000   0.00000   0.00000
  26       24PZ        -0.00000   0.00000   0.00000   0.00000  -0.00000
  27       25PX         0.00000   0.00000   0.00000   0.00000   0.00000
  28       25PY         0.00000   0.00000   0.00000   0.00000   0.00000
  29       25PZ         0.00000   0.00000   0.00000  -0.00000   0.00000
  30       26PX         0.00000   0.00000  -0.00000   0.00000   0.00000
  31       26PY         0.00000  -0.00000   0.00000   0.00000   0.00000
  32       26PZ        -0.00000   0.00000   0.00000   0.00001  -0.00000
  33       27PX         0.00000   0.00000   0.00002   0.00000   0.00000
  34       27PY         0.00000   0.00002   0.00000   0.00000   0.00000
  35       27PZ         0.00001   0.00000   0.00000  -0.00002   0.00001
  36       28PX         0.00000   0.00000  -0.00006   0.00000   0.00000
  37       28PY         0.00000  -0.00006   0.00000   0.00000   0.00000
  38       28PZ        -0.00002   0.00000   0.00000   0.00008  -0.00003
  39       29PX         0.00000   0.00000   0.00021   0.00000   0.00000
  40       29PY         0.00000   0.00021   0.00000   0.00000   0.00000
  41       29PZ         0.00008   0.00000   0.00000  -0.00027   0.00009
  42       30PX         0.00000   0.00000  -0.00071   0.00000   0.00000
  43       30PY         0.00000  -0.00071   0.00000   0.00000   0.00000
  44       30PZ        -0.00036   0.00000   0.00000   0.00081  -0.00031
  45       31PX         0.00000   0.00000   0.00131   0.00000   0.00000
  46       31PY         0.00000   0.00131   0.00000   0.00000   0.00000
  47       31PZ        -0.00001   0.00000   0.00000  -0.00228   0.00050
  48       32PX         0.00000   0.00000   0.00452   0.00000   0.00000
  49       32PY         0.00000   0.00452   0.00000   0.00000   0.00000
  50       32PZ         0.01262   0.00000   0.00000   0.00682   0.00293
  51       33PX         0.00000   0.00000   0.05835   0.00000   0.00000
  52       33PY         0.00000   0.05835   0.00000   0.00000   0.00000
  53       33PZ        -0.03747   0.00000   0.00000  -0.15158   0.01004
  54       34PX         0.00000   0.00000  -0.03032   0.00000   0.00000
  55       34PY         0.00000  -0.03032   0.00000   0.00000   0.00000
  56       34PZ        -0.04703   0.00000   0.00000  -0.00489  -0.02002
  57       35PX         0.00000   0.00000   0.08169   0.00000   0.00000
  58       35PY         0.00000   0.08169   0.00000   0.00000   0.00000
  59       35PZ        -0.10692   0.00000   0.00000  -0.24055   0.11841
  60       36PX         0.00000   0.00000  -0.01197   0.00000   0.00000
  61       36PY         0.00000  -0.01197   0.00000   0.00000   0.00000
  62       36PZ        -0.07332   0.00000   0.00000  -0.06028   0.00406
  63       37PX         0.00000   0.00000  -0.00135   0.00000   0.00000
  64       37PY         0.00000  -0.00135   0.00000   0.00000   0.00000
  65       37PZ         0.11190   0.00000   0.00000   0.04685  -0.06408
  66       38PX         0.00000   0.00000   0.24828   0.00000   0.00000
  67       38PY         0.00000   0.24828   0.00000   0.00000   0.00000
  68       38PZ         0.33468   0.00000   0.00000  -0.15250   0.65720
  69       39PX         0.00000   0.00000  -0.01102   0.00000   0.00000
  70       39PY         0.00000  -0.01102   0.00000   0.00000   0.00000
  71       39PZ         0.07335   0.00000   0.00000   0.43450  -0.44259
  72       40PX         0.00000   0.00000  -0.06165   0.00000   0.00000
  73       40PY         0.00000  -0.06165   0.00000   0.00000   0.00000
  74       40PZ         0.03386   0.00000   0.00000   0.15412  -0.01043
  75       41PX         0.00000   0.00000  -0.14582   0.00000   0.00000
  76       41PY         0.00000  -0.14582   0.00000   0.00000   0.00000
  77       41PZ         0.03805   0.00000   0.00000   0.27475  -0.15431
  78       42PX         0.00000   0.00000   0.79037   0.00000   0.00000
  79       42PY         0.00000   0.79037   0.00000   0.00000   0.00000
  80       42PZ        -0.00231   0.00000   0.00000  -0.95695   0.63212
  81       43D 0       -0.00002   0.00000   0.00000  -0.00001  -0.00001
  82       43D+1        0.00000   0.00000   0.00002   0.00000   0.00000
  83       43D-1        0.00000   0.00002   0.00000   0.00000   0.00000
  84       43D+2        0.00000   0.00000   0.00000   0.00000   0.00000
  85       43D-2        0.00000   0.00000   0.00000   0.00000   0.00000
  86       44D 0       -0.00365   0.00000   0.00000  -0.00182   0.00097
  87       44D+1        0.00000   0.00000   0.00283   0.00000   0.00000
  88       44D-1        0.00000   0.00283   0.00000   0.00000   0.00000
  89       44D+2        0.00000   0.00000   0.00000  -0.00000   0.00000
  90       44D-2        0.00000   0.00000   0.00000   0.00000   0.00000
  91       45D 0       -0.01612   0.00000   0.00000  -0.00828   0.00288
  92       45D+1        0.00000   0.00000   0.01280   0.00000   0.00000
  93       45D-1        0.00000   0.01280   0.00000   0.00000   0.00000
  94       45D+2        0.00000   0.00000   0.00000  -0.00000   0.00000
  95       45D-2        0.00000   0.00000   0.00000   0.00000   0.00000
  96       46D 0       -0.02392   0.00000   0.00000  -0.00335   0.05189
  97       46D+1        0.00000   0.00000   0.00868   0.00000   0.00000
  98       46D-1        0.00000   0.00868   0.00000   0.00000   0.00000
  99       46D+2       -0.00000   0.00000   0.00000  -0.00000   0.00000
 100       46D-2        0.00000   0.00000   0.00000   0.00000   0.00000
 101       47D 0       -0.00873   0.00000   0.00000   0.16172   0.87255
 102       47D+1        0.00000   0.00000  -0.11598   0.00000   0.00000
 103       47D-1        0.00000  -0.11598   0.00000   0.00000   0.00000
 104       47D+2       -0.00000   0.00000   0.00000  -0.00000   0.00000
 105       47D-2        0.00000   0.00000   0.00000   0.00000   0.00000
 106       48D 0       -0.06339   0.00000   0.00000  -0.01442   0.04755
 107       48D+1        0.00000   0.00000   0.04522   0.00000   0.00000
 108       48D-1        0.00000   0.04522   0.00000   0.00000   0.00000
 109       48D+2       -0.00000   0.00000   0.00000  -0.00000   0.00000
 110       48D-2        0.00000   0.00000   0.00000   0.00000   0.00000
 111       49D 0       -0.03636   0.00000   0.00000  -0.04494  -0.03371
 112       49D+1        0.00000   0.00000   0.10429   0.00000   0.00000
 113       49D-1        0.00000   0.10429   0.00000   0.00000   0.00000
 114       49D+2        0.00000   0.00000   0.00000  -0.00000   0.00000
 115       49D-2        0.00000   0.00000   0.00000   0.00000   0.00000
 116       50D 0        0.00702   0.00000   0.00000  -0.04474   0.09049
 117       50D+1        0.00000   0.00000   0.12661   0.00000   0.00000
 118       50D-1        0.00000   0.12661   0.00000   0.00000   0.00000
 119       50D+2        0.00000   0.00000   0.00000  -0.00000   0.00000
 120       50D-2        0.00000   0.00000   0.00000   0.00000   0.00000
 121       51D 0       -0.01017   0.00000   0.00000  -0.01581  -0.05376
 122       51D+1        0.00000   0.00000   0.02021   0.00000   0.00000
 123       51D-1        0.00000   0.02021   0.00000   0.00000   0.00000
 124       51D+2        0.00000   0.00000   0.00000   0.00000  -0.00000
 125       51D-2        0.00000   0.00000   0.00000   0.00000   0.00000
 126       52D 0       -0.04148   0.00000   0.00000  -0.18767  -0.86317
 127       52D+1        0.00000   0.00000   0.15376   0.00000   0.00000
 128       52D-1        0.00000   0.15376   0.00000   0.00000   0.00000
 129       52D+2        0.00000   0.00000   0.00000   0.00000  -0.00000
 130       52D-2        0.00000   0.00000   0.00000   0.00000   0.00000
 131       53D 0        0.00119   0.00000   0.00000  -0.17352   0.50097
 132       53D+1        0.00000   0.00000   0.20033   0.00000   0.00000
 133       53D-1        0.00000   0.20033   0.00000   0.00000   0.00000
 134       53D+2       -0.00000   0.00000   0.00000   0.00000  -0.00000
 135       53D-2        0.00000   0.00000   0.00000   0.00000   0.00000
 136       54F 0        0.00052   0.00000   0.00000   0.00026   0.00033
 137       54F+1        0.00000   0.00000  -0.00002   0.00000   0.00000
 138       54F-1        0.00000  -0.00002   0.00000   0.00000   0.00000
 139       54F+2       -0.00000   0.00000   0.00000  -0.00000  -0.00000
 140       54F-2        0.00000   0.00000   0.00000   0.00000   0.00000
 141       54F+3        0.00000   0.00000   0.00000   0.00000   0.00000
 142       54F-3        0.00000   0.00000   0.00000   0.00000   0.00000
 143       55F 0        0.00062   0.00000   0.00000  -0.00230  -0.00052
 144       55F+1        0.00000   0.00000  -0.00015   0.00000   0.00000
 145       55F-1        0.00000  -0.00015   0.00000   0.00000   0.00000
 146       55F+2        0.00000   0.00000   0.00000  -0.00000   0.00000
 147       55F-2        0.00000   0.00000   0.00000   0.00000   0.00000
 148       55F+3        0.00000   0.00000  -0.00000   0.00000   0.00000
 149       55F-3        0.00000  -0.00000   0.00000   0.00000   0.00000
 150       56F 0       -0.01057   0.00000   0.00000  -0.00712   0.00750
 151       56F+1        0.00000   0.00000  -0.01149   0.00000   0.00000
 152       56F-1        0.00000  -0.01149   0.00000   0.00000   0.00000
 153       56F+2       -0.00000   0.00000   0.00000  -0.00000   0.00000
[...]
  48       32PX        -0.05195  -0.02597  -0.02597   0.00000
  49       32PY        -0.05195  -0.02597  -0.02597   0.00000
  50       32PZ        -0.05403  -0.02726  -0.02677  -0.00049
  51       33PX         0.13759   0.06879   0.06879  -0.00000
  52       33PY         0.13759   0.06879   0.06879  -0.00000
  53       33PZ         0.15973   0.08112   0.07861   0.00252
  54       34PX         0.55537   0.27768   0.27768  -0.00000
  55       34PY         0.55537   0.27768   0.27768  -0.00000
  56       34PZ         0.57536   0.28964   0.28572   0.00392
  57       35PX         0.93847   0.46923   0.46923  -0.00000
  58       35PY         0.93847   0.46923   0.46923  -0.00000
  59       35PZ         0.84494   0.42474   0.42020   0.00453
  60       36PX         0.50380   0.25190   0.25190  -0.00000
  61       36PY         0.50380   0.25190   0.25190  -0.00000
  62       36PZ         0.46137   0.22726   0.23411  -0.00685
  63       37PX         0.04543   0.02271   0.02271  -0.00000
  64       37PY         0.04543   0.02271   0.02271  -0.00000
  65       37PZ         0.04801   0.04245   0.00556   0.03689
  66       38PX         0.00577   0.00288   0.00288  -0.00000
  67       38PY         0.00577   0.00288   0.00288  -0.00000
  68       38PZ         0.13029   0.13753  -0.00724   0.14476
  69       39PX        -0.00577  -0.00289  -0.00289   0.00000
  70       39PY        -0.00577  -0.00289  -0.00289   0.00000
  71       39PZ         0.02362   0.02472  -0.00110   0.02583
  72       40PX        -0.11915  -0.05957  -0.05957   0.00000
  73       40PY        -0.11915  -0.05957  -0.05957   0.00000
  74       40PZ        -0.14143  -0.07189  -0.06955  -0.00234
  75       41PX         0.00043   0.00022   0.00022  -0.00000
  76       41PY         0.00043   0.00022   0.00022  -0.00000
  77       41PZ         0.10253   0.05059   0.05194  -0.00136
  78       42PX         0.00060   0.00030   0.00030  -0.00000
  79       42PY         0.00060   0.00030   0.00030  -0.00000
  80       42PZ        -0.00049  -0.00047  -0.00002  -0.00045
  81       43D 0        0.00000   0.00000   0.00000   0.00000
  82       43D+1        0.00000   0.00000   0.00000  -0.00000
  83       43D-1        0.00000   0.00000   0.00000  -0.00000
  84       43D+2        0.00000  -0.00000   0.00000  -0.00000
  85       43D-2        0.00000   0.00000   0.00000   0.00000
  86       44D 0        0.00163   0.00086   0.00077   0.00009
  87       44D+1        0.00057   0.00029   0.00029  -0.00000
  88       44D-1        0.00057   0.00029   0.00029  -0.00000
  89       44D+2        0.00000  -0.00000   0.00000  -0.00000
  90       44D-2        0.00000   0.00000   0.00000  -0.00000
  91       45D 0        0.01756   0.00926   0.00830   0.00096
  92       45D+1        0.00624   0.00312   0.00312  -0.00000
  93       45D-1        0.00624   0.00312   0.00312  -0.00000
  94       45D+2        0.00000   0.00000   0.00000  -0.00000
  95       45D-2        0.00000  -0.00000   0.00000  -0.00000
  96       46D 0        0.02349   0.01296   0.01053   0.00243
  97       46D+1        0.00732   0.00366   0.00366  -0.00000
  98       46D-1        0.00732   0.00366   0.00366  -0.00000
  99       46D+2       -0.00000  -0.00000   0.00000  -0.00000
 100       46D-2       -0.00000  -0.00000   0.00000  -0.00000
 101       47D 0       -0.74292  -0.37084  -0.37208   0.00124
 102       47D+1       -0.27011  -0.13506  -0.13506   0.00000
 103       47D-1       -0.27011  -0.13506  -0.13506   0.00000
 104       47D+2       -0.00000  -0.00000   0.00000  -0.00000
 105       47D-2       -0.00000  -0.00000   0.00000  -0.00000
 106       48D 0        0.14487   0.07747   0.06740   0.01007
 107       48D+1        0.09258   0.04629   0.04629  -0.00000
 108       48D-1        0.09258   0.04629   0.04629  -0.00000
 109       48D+2        0.00000   0.00000   0.00000   0.00000
 110       48D-2        0.00000   0.00000   0.00000   0.00000
 111       49D 0        0.00328   0.00352  -0.00025   0.00377
 112       49D+1        0.04102   0.02051   0.02051  -0.00000
 113       49D-1        0.04102   0.02051   0.02051  -0.00000
 114       49D+2        0.00000   0.00000   0.00000  -0.00000
 115       49D-2        0.00000   0.00000   0.00000   0.00000
 116       50D 0       -0.00275  -0.00148  -0.00128  -0.00020
 117       50D+1       -0.00511  -0.00256  -0.00256   0.00000
 118       50D-1       -0.00511  -0.00256  -0.00256   0.00000
 119       50D+2        0.00000   0.00000   0.00000   0.00000
 120       50D-2        0.00000   0.00000   0.00000   0.00000
 121       51D 0        0.04870   0.02489   0.02381   0.00107
 122       51D+1        0.01878   0.00939   0.00939  -0.00000
 123       51D-1        0.01878   0.00939   0.00939  -0.00000
 124       51D+2       -0.00000  -0.00000  -0.00000   0.00000
 125       51D-2       -0.00000  -0.00000  -0.00000   0.00000
 126       52D 0        0.90968   0.45780   0.45188   0.00592
 127       52D+1        0.33050   0.16525   0.16525  -0.00000
 128       52D-1        0.33050   0.16525   0.16525   0.00000
 129       52D+2        0.00000   0.00000  -0.00000   0.00000
 130       52D-2       -0.00000  -0.00000  -0.00000   0.00000
 131       53D 0       -0.00003  -0.00002  -0.00001  -0.00000
 132       53D+1       -0.00002  -0.00001  -0.00001   0.00000
 133       53D-1       -0.00002  -0.00001  -0.00001   0.00000
 134       53D+2       -0.00000  -0.00000   0.00000  -0.00000
 135       53D-2       -0.00000  -0.00000   0.00000  -0.00000
 136       54F 0        0.00035   0.00018   0.00018   0.00000
 137       54F+1        0.00013   0.00006   0.00006  -0.00000
 138       54F-1        0.00013   0.00006   0.00006  -0.00000
 139       54F+2       -0.00000   0.00000  -0.00000   0.00000
 140       54F-2       -0.00000   0.00000  -0.00000   0.00000
 141       54F+3        0.00000   0.00000   0.00000   0.00000
 142       54F-3        0.00000   0.00000   0.00000   0.00000
 143       55F 0        0.00765   0.00383   0.00382   0.00001
 144       55F+1        0.00472   0.00236   0.00236  -0.00000
 145       55F-1        0.00472   0.00236   0.00236  -0.00000
 146       55F+2        0.00000  -0.00000   0.00000  -0.00000
 147       55F-2       -0.00000  -0.00000   0.00000  -0.00000
 148       55F+3        0.00000   0.00000   0.00000   0.00000
 149       55F-3        0.00000   0.00000   0.00000   0.00000
 150       56F 0       -0.00243  -0.00125  -0.00118  -0.00008
 151       56F+1        0.00136   0.00068   0.00068  -0.00000
 152       56F-1        0.00136   0.00068   0.00068  -0.00000
 153       56F+2        0.00000  -0.00000   0.00000  -0.00000
 154       56F-2        0.00000   0.00000   0.00000  -0.00000
 155       56F+3        0.00000   0.00000   0.00000  -0.00000
 156       56F-3        0.00000   0.00000   0.00000  -0.00000
 157       57F 0       -0.00171  -0.00084  -0.00087   0.00003
 158       57F+1       -0.00198  -0.00099  -0.00099   0.00000
 159       57F-1       -0.00198  -0.00099  -0.00099   0.00000
 160       57F+2        0.00000   0.00000   0.00000   0.00000
 161       57F-2        0.00000   0.00000   0.00000   0.00000
 162       57F+3       -0.00000  -0.00000   0.00000  -0.00000
 163       57F-3        0.00000   0.00000   0.00000  -0.00000
 164       58G 0        0.00005   0.00003   0.00003  -0.00000
 165       58G+1        0.00003   0.00002   0.00002  -0.00000
 166       58G-1        0.00003   0.00002   0.00002  -0.00000
 167       58G+2        0.00000   0.00000   0.00000   0.00000
 168       58G-2       -0.00000   0.00000  -0.00000   0.00000
 169       58G+3        0.00000   0.00000  -0.00000   0.00000
 170       58G-3        0.00000   0.00000   0.00000  -0.00000
 171       58G+4        0.00000   0.00000   0.00000   0.00000
 172       58G-4        0.00000   0.00000   0.00000   0.00000
 173       59G 0        0.00078   0.00038   0.00039  -0.00001
 174       59G+1        0.00127   0.00064   0.00064  -0.00000
 175       59G-1        0.00127   0.00064   0.00064  -0.00000
 176       59G+2        0.00000   0.00000   0.00000   0.00000
 177       59G-2       -0.00000   0.00000  -0.00000   0.00000
 178       59G+3       -0.00000  -0.00000  -0.00000   0.00000
 179       59G-3       -0.00000  -0.00000  -0.00000   0.00000
 180       59G+4        0.00000   0.00000   0.00000   0.00000
 181       59G-4        0.00000   0.00000   0.00000   0.00000
 182       60G 0       -0.00191  -0.00096  -0.00096   0.00000
 183       60G+1       -0.00253  -0.00126  -0.00126   0.00000
 184       60G-1       -0.00253  -0.00126  -0.00126   0.00000
 185       60G+2        0.00000  -0.00000   0.00000  -0.00000
 186       60G-2        0.00000  -0.00000   0.00000  -0.00000
 187       60G+3       -0.00000  -0.00000  -0.00000   0.00000
 188       60G-3       -0.00000  -0.00000  -0.00000   0.00000
 189       60G+4        0.00000   0.00000   0.00000  -0.00000
 190       60G-4        0.00000   0.00000   0.00000  -0.00000
 191 2   O  1S         -0.00000  -0.00000  -0.00000  -0.00000
 192        2S          0.00000   0.00000   0.00000   0.00000
 193        3S         -0.00000  -0.00000  -0.00000  -0.00000
 194        4S          0.00001   0.00000   0.00000   0.00000
 195        5S         -0.00024  -0.00012  -0.00012  -0.00000
 196        6S         -0.01120  -0.00561  -0.00559  -0.00002
 197        7S         -0.10106  -0.05060  -0.05045  -0.00015
 198        8S          1.05469   0.52788   0.52681   0.00106
 199        9S          0.23133   0.11582   0.11551   0.00032
 200       10S          0.76974   0.38422   0.38553  -0.00131
 201       11S         -0.00019  -0.00010  -0.00010   0.00000
 202       12S          0.00835   0.00418   0.00417   0.00001
 203       13S          0.11227   0.06489   0.04738   0.01750
 204       14PX         0.00163   0.00082   0.00082  -0.00000
 205       14PY         0.00163   0.00082   0.00082  -0.00000
 206       14PZ         0.00181   0.00091   0.00090   0.00000
 207       15PX         0.05516   0.02758   0.02758  -0.00000
 208       15PY         0.05516   0.02758   0.02758  -0.00000
 209       15PZ         0.06122   0.03065   0.03057   0.00007
 210       16PX         0.32859   0.16429   0.16429  -0.00000
 211       16PY         0.32859   0.16429   0.16429  -0.00000
 212       16PZ         0.36348   0.18196   0.18153   0.00043
 213       17PX         0.68678   0.34339   0.34339  -0.00000
 214       17PY         0.68678   0.34339   0.34339  -0.00000
 215       17PZ         0.73910   0.36984   0.36926   0.00058
 216       18PX         0.59155   0.29578   0.29578  -0.00000
 217       18PY         0.59155   0.29578   0.29578  -0.00000
 218       18PZ         0.44020   0.21933   0.22086  -0.00153
 219       19PX         0.00193   0.00096   0.00096  -0.00000
 220       19PY         0.00193   0.00096   0.00096  -0.00000
 221       19PZ         0.00214   0.00107   0.00107   0.00000
 222       20PX        -0.00026  -0.00013  -0.00013   0.00000
 223       20PY        -0.00026  -0.00013  -0.00013   0.00000
 224       20PZ        -0.00029  -0.00014  -0.00014  -0.00000
 225       21PX         0.08204   0.04102   0.04102  -0.00000
 226       21PY         0.08204   0.04102   0.04102  -0.00000
 227       21PZ         0.05084   0.02942   0.02142   0.00799
 228       22D 0        0.00047   0.00024   0.00023   0.00001
 229       22D+1        0.00027   0.00013   0.00013  -0.00000
 230       22D-1        0.00027   0.00013   0.00013  -0.00000
 231       22D+2        0.00000  -0.00000   0.00000  -0.00000
 232       22D-2        0.00000   0.00000   0.00000  -0.00000
 233       23D 0        0.00598   0.00303   0.00295   0.00008
 234       23D+1        0.00526   0.00263   0.00263  -0.00000
 235       23D-1        0.00526   0.00263   0.00263  -0.00000
 236       23D+2        0.00000   0.00000   0.00000   0.00000
 237       23D-2        0.00000   0.00000   0.00000   0.00000
 238       24D 0        0.00000   0.00000   0.00000   0.00000
 239       24D+1        0.00000   0.00000   0.00000  -0.00000
 240       24D-1        0.00000   0.00000   0.00000  -0.00000
 241       24D+2        0.00000   0.00000   0.00000   0.00000
 242       24D-2        0.00000   0.00000   0.00000   0.00000
 243       25D 0       -0.00360  -0.00181  -0.00179  -0.00002
 244       25D+1        0.01034   0.00517   0.00517  -0.00000
 245       25D-1        0.01034   0.00517   0.00517  -0.00000
 246       25D+2        0.00000   0.00000   0.00000   0.00000
 247       25D-2        0.00000   0.00000   0.00000   0.00000
 248       26F 0        0.00029   0.00015   0.00014   0.00001
 249       26F+1        0.00010   0.00005   0.00005  -0.00000
 250       26F-1        0.00010   0.00005   0.00005  -0.00000
 251       26F+2       -0.00000   0.00000  -0.00000   0.00000
 252       26F-2       -0.00000  -0.00000  -0.00000   0.00000
 253       26F+3       -0.00000  -0.00000  -0.00000   0.00000
 254       26F-3        0.00000   0.00000   0.00000  -0.00000
 255       27F 0        0.00073   0.00040   0.00033   0.00007
 256       27F+1        0.00138   0.00069   0.00069  -0.00000
 257       27F-1        0.00138   0.00069   0.00069  -0.00000
 258       27F+2        0.00000   0.00000   0.00000  -0.00000
 259       27F-2        0.00000  -0.00000   0.00000  -0.00000
 260       27F+3        0.00000   0.00000   0.00000   0.00000
 261       27F-3        0.00000   0.00000   0.00000   0.00000
          Condensed to atoms (all electrons):
               1          2
     1  Sc   9.653589   0.090765
     2  O    0.090765   7.164881
          Atomic-Atomic Spin Densities.
               1          2
     1  Sc   0.954282   0.020610
     2  O    0.020610   0.004498
 Mulliken charges and spin densities:
               1          2
     1  Sc   1.255646   0.974892
     2  O   -1.255646   0.025108
 Sum of Mulliken charges =  -0.00000   1.00000
 Mulliken charges and spin densities with hydrogens summed into heavy atoms:
               1          2
     1  Sc   1.255646   0.974892
     2  O   -1.255646   0.025108
 Electronic spatial extent (au):  <R**2>=             97.8147
 Charge=             -0.0000 electrons
 Dipole moment (field-independent basis, Debye):
    X=              0.0000    Y=              0.0000    Z=              4.8576  Tot=              4.8576
 Quadrupole moment (field-independent basis, Debye-Ang):
   XX=            -21.8525   YY=            -21.8525   ZZ=            -32.5650
   XY=              0.0000   XZ=              0.0000   YZ=              0.0000
 Traceless Quadrupole moment (field-independent basis, Debye-Ang):
   XX=              3.5708   YY=              3.5708   ZZ=             -7.1417
   XY=              0.0000   XZ=              0.0000   YZ=              0.0000
 Octapole moment (field-independent basis, Debye-Ang**2):
  XXX=              0.0000  YYY=              0.0000  ZZZ=             -7.8644  XYY=              0.0000
  XXY=              0.0000  XXZ=             -2.6306  XZZ=              0.0000  YZZ=              0.0000
  YYZ=             -2.6306  XYZ=              0.0000
 Hexadecapole moment (field-independent basis, Debye-Ang**3):
 XXXX=            -45.3049 YYYY=            -45.3049 ZZZZ=           -181.8838 XXXY=              0.0000
 XXXZ=              0.0000 YYYX=              0.0000 YYYZ=              0.0000 ZZZX=              0.0000
 ZZZY=              0.0000 XXYY=            -15.1016 XXZZ=            -36.6596 YYZZ=            -36.6596
 XXYZ=              0.0000 YYXZ=              0.0000 ZZXY=              0.0000
 N-N= 2.054452701219D+01 E-N=-1.751551680599D+02  KE= 3.031954599883D+01
 Symmetry A1   KE= 1.397364886894D+01
 Symmetry A2   KE=-2.144894963563D-48
 Symmetry B1   KE= 8.172948565040D+00
 Symmetry B2   KE= 8.172948565123D+00
 Symmetry A1   SP= 1.000000000000D+00
 Symmetry A2   SP=-1.920908212492D-49
 Symmetry B1   SP=-1.157144476645D-15
 Symmetry B2   SP=-1.233727931778D-15
 Orbital energies and kinetic energies (alpha):
                                 1                 2
   4         O                -1.637087          2.128178
   5         O                -1.126563          1.117538
   6         O                -0.427385          2.452211
   7         O                -0.411172          1.958297
   8         O                -0.411172          1.958297
   9         O                -0.252674          0.332974
  10         V                -0.000398          0.107394
  11         V                -0.000398          0.107394
  12         V                 0.014453          0.056734
  13         V                 0.022333          0.045049
  14         V                 0.035319          0.062371
 Total kinetic energy from orbitals= 3.065251953667D+01
                          Isotropic Fermi Contact Couplings
        Atom                 a.u.       MegaHertz       Gauss      10(-4) cm-1
     1  Sc(45)             0.00003       0.03372       0.01203       0.01125
     2  O(17)              0.00004      -0.02177      -0.00777      -0.00726
 --------------------------------------------------------
       Center         ----  Spin Dipole Couplings  ----
                      3XX-RR        3YY-RR        3ZZ-RR
 --------------------------------------------------------
     1   Atom       -0.045174     -0.045174      0.090347
     2   Atom       -0.007160     -0.007160      0.014320
 --------------------------------------------------------
                        XY            XZ            YZ
 --------------------------------------------------------
     1   Atom        0.000000      0.000000      0.000000
     2   Atom        0.000000      0.000000      0.000000
 --------------------------------------------------------


 ---------------------------------------------------------------------------------
              Anisotropic Spin Dipole Couplings in Principal Axis System
 ---------------------------------------------------------------------------------

       Atom             a.u.   MegaHertz   Gauss  10(-4) cm-1        Axes

              Baa    -0.0452    -5.864    -2.092    -1.956  1.0000  0.0000  0.0000
     1 Sc(45) Bbb    -0.0452    -5.864    -2.092    -1.956 -0.0000  1.0000  0.0000
              Bcc     0.0903    11.728     4.185     3.912  0.0000  0.0000  1.0000
 
              Baa    -0.0072     0.518     0.185     0.173 -0.0000  1.0000  0.0000
     2 O(17)  Bbb    -0.0072     0.518     0.185     0.173  1.0000  0.0000  0.0000
              Bcc     0.0143    -1.036    -0.370    -0.346  0.0000  0.0000  1.0000
 

 ---------------------------------------------------------------------------------

 No NMR shielding tensors so no spin-rotation constants.
 Leave Link  601 at Mon Mar  5 18:24:35 2018, MaxMem= 10737418240 cpu:              53.6 elap:               3.5
 (Enter /home1/apps/gaussian/16rA.03/g16/l9999.exe)

 Test job not archived.
 1\1\GINC-C438-124\SP\ROCCSD(T)-Full\Gen\O1Sc1(2)\AANNABE\05-Mar-2018\0
 \\#P ROCCSD(T)=(maxcyc=150, Full, SaveAmplitudes, ReadAmplitudes)/Gen 
 5d 7f SCF=(maxcycles=300) Integral(NoXCTest) MaxDisk=500GB Pop=Regular
  Pseudo=Read Guess=Read IOp(5/15=2)\\ScO\\0,2\Sc,0,0.,0.,0.\O,0,0.,0.,
 1.7\\Version=ES64L-G16RevA.03\State=2-SG\HF=-61.9634068\MP2=-62.64602\
 MP3=-62.6192495\PUHF=-61.9634068\PMP2-0=-62.64602\MP4SDQ=-62.6567527\C
 CSD=-62.6354111\CCSD(T)=-62.6760123\RMSD=4.353e-09\PG=C*V [C*(O1Sc1)]\
 \@


 TERENCE, THIS IS STUPID STUFF:
 YOU EAT YOUR VICTUALS FAST ENOUGH;
 THERE CAN'T BE MUCH AMISS, 'TIS CLEAR
 TO SEE THE RATE YOU DRINK YOUR BEER.
 BUT OH, GOOD LORD, THE VERSE YOU MAKE,
 IT GIVES A CHAP THE BELLY-ACHE.
 THE COW, THE OLD COW, SHE IS DEAD;
 IT SLEEPS WELL, THE HORNED HEAD:
 WE POOR LADS, 'TIS OUR TURN NOW
 TO HEAR SUCH TUNES AS KILLED THE COW.
 PRETTY FRIENDSHIP 'TIS TO RHYME
 YOUR FRIENDS TO DEATH BEFORE THEIR TIME.
 MOPING, MELANCHOLY MAD:
 COME PIPE A TUNE TO DANCE TO, LAD.

     -- A. E. HOUSMAN
 Job cpu time:       0 days  5 hours 36 minutes 47.1 seconds.
 Elapsed time:       0 days  0 hours 21 minutes  8.5 seconds.
 File lengths (MBytes):  RWF=   3530 Int=      0 D2E=      0 Chk=     21 Scr=      1
 Normal termination of Gaussian 16 at Mon Mar  5 18:24:36 2018.
