
 Primary working directories    : /tmp/cmelton
 Secondary working directories  : /tmp/cmelton
 Wavefunction directory         : /remote/cmelton/wfu/
 Main file repository           : /tmp/cmelton/

 SHA1      : 4c1979699e6aeda0524d0210415ba82a958648b0
 NAME      : 2012.1.39
 ARCHNAME  : Linux/x86_64
 FC        : /projects/sems/install/rhel6-x86_64/sems/compiler/intel/16.0.1/base/bin/ifort
 FCVERSION : 16.0.1
 BLASLIB   : -L/projects/sems/install/rhel6-x86_64/sems/compiler/intel/16.0.1/base/compilers_and_libraries_2016.1.150/linux/mkl/lib/intel64 -lmkl_intel_ilp64 -lmkl_sequential -lmkl_core
 id        : sandiacon

 Nodes            nprocs
 doppio.sandia.gov    1

 Using customized tuning parameters: mindgm=7; mindgv=16; mindgc=1; mindgr=1; noblas=0; minvec=7
 default implementation of scratch files=df  

 ***,Calculation for Be atom, singlet and triplet
 memory,1024,m
 gthresh,twoint=1.e-12
 geometry={
 1
 V
 V  0.0 0.0 0.0
 }
 
 basis={
 Including file /remote/cmelton/data/corrECP/V/ae/aug-cc-pwCVTZ-dk.basis
 }
 
 
 set,dkroll=1,dkho=10,dkhp=4
 
 Including file /remote/cmelton/data/corrECP/V/ae/states.proc
 
 do i=9,9
     if (i.eq.1) then
         Is2d3
     else if (i.eq.2) then
         Is1d4
     else if (i.eq.3) then
         Id5
     else if (i.eq.4) then
         IIs1d3
     else if (i.eq.5) then
         IId4
     else if (i.eq.6) then
         VI
     else if (i.eq.7) then
         XII
     else if (i.eq.8) then
         As2d4
     else if (i.eq.9) then
         Id3s1p1
     endif
     scf(i)=energy
     _CC_NORM_MAX=2.0
                                                                                 !    {rccsd(t),maxit=100;core}
                                                                                 !    ccsd(i)=energy
 enddo
 
 table,scf,ccsd
 save
 type,csv

 Variables initialized (782), CPU time= 0.01 sec
 Commands  initialized (547), CPU time= 0.00 sec, 517 directives.
 Default parameters read. Elapsed time= 0.11 sec

 Checking input...
 Passed
1


                                         ***  PROGRAM SYSTEM MOLPRO  ***
                         Copyright, University College Cardiff Consultants Limited, 2008

                                    Version 2012.1 linked Aug  2 2016 14:07:26


 **********************************************************************************************************************************
 LABEL *   Calculation for Be atom, singlet and triplet                                  
 Linux-3.10.0-693.5.2.el7.x86_64/doppio.sandia.gov(x86_64) 64 bit serial version         DATE: 08-Jan-18          TIME: 12:07:47  
 **********************************************************************************************************************************

 SHA1:             4c1979699e6aeda0524d0210415ba82a958648b0
 **********************************************************************************************************************************

 THRESHOLDS:

 ZERO    =  1.00D-12  ONEINT  =  1.00D-12  TWOINT  =  1.00D-12  PREFAC  =  1.00D-14  LOCALI  =  1.00D-09  EORDER  =  1.00D-04
 ENERGY  =  0.00D+00  ETEST   =  0.00D+00  EDENS   =  0.00D+00  THRDEDEF=  1.00D-06  GRADIENT=  1.00D-02  STEP    =  1.00D-03
 ORBITAL =  1.00D-05  CIVEC   =  1.00D-05  COEFF   =  1.00D-04  PRINTCI =  5.00D-02  PUNCHCI =  9.90D+01  OPTGRAD =  3.00D-04
 OPTENERG=  1.00D-06  OPTSTEP =  3.00D-04  THRGRAD =  1.00D-10  COMPRESS=  1.00D-11  VARMIN  =  1.00D-07  VARMAX  =  1.00D-03
 THRDOUB =  0.00D+00  THRDIV  =  1.00D-05  THRRED  =  1.00D-07  THRPSP  =  1.00D+00  THRDC   =  1.00D-10  THRCS   =  1.00D-10
 THRNRM  =  1.00D-08  THREQ   =  0.00D+00  THRDE   =  1.00D+00  THRREF  =  1.00D-05  SPARFAC =  1.00D+00  THRDLP  =  1.00D-07
 THRDIA  =  1.00D-10  THRDLS  =  1.00D-07  THRGPS  =  0.00D+00  THRKEX  =  0.00D+00  THRDIS  =  2.00D-01  THRVAR  =  1.00D-10
 THRLOC  =  1.00D-06  THRGAP  =  1.00D-06  THRLOCT = -1.00D+00  THRGAPT = -1.00D+00  THRORB  =  1.00D-06  THRMLTP =  0.00D+00
 THRCPQCI=  1.00D-10  KEXTA   =  0.00D+00  THRCOARS=  0.00D+00  SYMTOL  =  1.00D-06  GRADTOL =  1.00D-06  THROVL  =  1.00D-08
 THRORTH =  1.00D-08  GRID    =  1.00D-06  GRIDMAX =  1.00D-03  DTMAX   =  0.00D+00  THROCCDE=  1.00D-01  THROCCDE=  1.00D-01



Geometry recognized as XYZ


 Variable memory set to 1024000000 words,  buffer space   230000 words

 SETTING BASIS          =    USERDEF
 SETTING DKROLL         =         1.00000000                                  
 SETTING DKHO           =        10.00000000                                  
 SETTING DKHP           =         4.00000000                                  

 DO I                   =         9.00000000   

 Running procedure=ID3S1P1


 Recomputing integrals since basis changed


 Using spherical harmonics


1PROGRAM * SEWARD (Integral evaluation for generally contracted gaussian basis sets)     Author: Roland Lindh, 1990

 Geometry written to block  1 of record 700

 Orientation using atomic masses  
 Molecule type: Atom
 Symmetry elements: X,Y,Z
 Rotational constants:       0.0000000      0.0000000      0.0000000 GHz  (calculated with average atomic masses)

 Point group  D2h 



 ATOMIC COORDINATES

 NR  ATOM    CHARGE       X              Y              Z

   1  V      23.00    0.000000000    0.000000000    0.000000000

 NUCLEAR CHARGE:                   23
 NUMBER OF PRIMITIVE AOS:         225
 NUMBER OF SYMMETRY AOS:          185
 NUMBER OF CONTRACTIONS:          185   (  52Ag  +  27B3u +  27B2u +  16B1g +  27B1u +  16B2g +  16B3g +   4Au  )
 NUMBER OF CORE ORBITALS:           9   (   3Ag  +   2B3u +   2B2u +   0B1g +   2B1u +   0B2g +   0B3g +   0Au  )
 NUMBER OF VALENCE ORBITALS:        6   (   3Ag  +   0B3u +   0B2u +   1B1g +   0B1u +   1B2g +   1B3g +   0Au  )


 NUCLEAR REPULSION ENERGY    0.00000000

 One-electron integrals computed with SEWARD

 10nd-order Douglas-Kroll-Hess method activated. McWeeny DKH parametrization is used.

 Computing Douglas-Kroll integrals

 AO integral compression algorithm  1   Integral accuracy      1.0D-12

     123.994 MB (compressed) written to integral file ( 44.6%)


 NUMBER OF SORTED TWO-ELECTRON INTEGRALS:   19566767.     BUFFER LENGTH:  32768
 NUMBER OF SEGMENTS:   2  SEGMENT LENGTH:   15996239      RECORD LENGTH: 524288

 Memory used in sort:      16.55 MW

 SORT1 READ    34683935. AND WROTE    12872493. INTEGRALS IN     38 RECORDS. CPU TIME:     0.69 SEC, REAL TIME:     0.83 SEC
 SORT2 READ    12872493. AND WROTE    19566767. INTEGRALS IN    473 RECORDS. CPU TIME:     0.37 SEC, REAL TIME:     0.49 SEC

 FILE SIZES:   FILE 1:   132.6 MBYTE,  FILE 4:   159.4 MBYTE,   TOTAL:    292.0 MBYTE

 OPERATOR DM      FOR CENTER  0  COORDINATES:    0.000000    0.000000    0.000000

 EXTRA SYMMETRY OF AOS IN SYMMETRY 1:   1 1 1 1 1 1 1 1 1 1   1 1 1 1 1 1 1 1 1 1   1 1 1 2 3 2 3 2 3 2   3 2 3 2 3 2 3 2 3 2
                                        3 2 3 4 5 6 4 5 6 4   5 6
 EXTRA SYMMETRY OF AOS IN SYMMETRY 2:   1 1 1 1 1 1 1 1 1 1   1 1 1 1 1 1 1 1 1 2   3 2 3 2 3 2 3
 EXTRA SYMMETRY OF AOS IN SYMMETRY 3:   1 1 1 1 1 1 1 1 1 1   1 1 1 1 1 1 1 1 1 2   3 2 3 2 3 2 3
 EXTRA SYMMETRY OF AOS IN SYMMETRY 4:   1 1 1 1 1 1 1 1 1 1   2 3 2 3 2 3
 EXTRA SYMMETRY OF AOS IN SYMMETRY 5:   1 1 1 1 1 1 1 1 1 1   1 1 1 1 1 1 1 1 1 2   3 2 3 2 3 2 3
 EXTRA SYMMETRY OF AOS IN SYMMETRY 6:   1 1 1 1 1 1 1 1 1 1   2 3 2 3 2 3
 EXTRA SYMMETRY OF AOS IN SYMMETRY 7:   1 1 1 1 1 1 1 1 1 1   2 3 2 3 2 3

 Eigenvalues of metric

         1 0.708E-05 0.956E-04 0.384E-03 0.384E-03 0.598E-03 0.163E-02 0.319E-02 0.517E-02
         2 0.615E-07 0.440E-06 0.129E-02 0.473E-02 0.114E-01 0.228E-01 0.421E-01 0.748E-01
         3 0.615E-07 0.440E-06 0.129E-02 0.473E-02 0.114E-01 0.228E-01 0.421E-01 0.748E-01
         4 0.384E-03 0.455E-01 0.121E+00 0.222E+00 0.386E+00 0.386E+00 0.441E+00 0.694E+00
         5 0.615E-07 0.440E-06 0.129E-02 0.473E-02 0.114E-01 0.228E-01 0.421E-01 0.748E-01
         6 0.384E-03 0.455E-01 0.121E+00 0.222E+00 0.386E+00 0.386E+00 0.441E+00 0.694E+00
         7 0.384E-03 0.455E-01 0.121E+00 0.222E+00 0.386E+00 0.386E+00 0.441E+00 0.694E+00
         8 0.249E+00 0.590E+00 0.124E+01 0.192E+01


 **********************************************************************************************************************************
 DATASETS  * FILE   NREC   LENGTH (MB)   RECORD NAMES
              1      23       71.15       500      610      700      900      950      970     1000      129      960     1700   
                                          VAR    BASINP    GEOM    SYMINP    ZMAT    AOBASIS   BASIS     P2S    ABASIS    OPER   
                                         1101     1401     1411     1412     1650     1100     1400     1410     1200     1210   
                                          SR      EKINR    POTR     PVPR    MOLCAS      S      EKIN      POT      H0       H01  
                                         1300     1080     1600   
                                         ERIS     AOSYM     SMH  

 PROGRAMS   *        TOTAL       INT
 CPU TIMES  *         9.82      9.67
 REAL TIME  *        10.94 SEC
 DISK USED  *       294.63 MB      
 **********************************************************************************************************************************

1PROGRAM * RHF-SCF (OPEN SHELL)       Authors: W. Meyer, H.-J. Werner


 NUMBER OF ELECTRONS:      14+    9-    SPACE SYMMETRY=5    SPIN SYMMETRY: Sextet  
 CONVERGENCE THRESHOLDS:    1.00E-05 (Density)    1.00E-07 (Energy)
 MAX. NUMBER OF ITERATIONS:       60
 INTERPOLATION TYPE:            DIIS
 INTERPOLATION STEPS:              2 (START)      1 (STEP)
 LEVEL SHIFTS:                 -0.30 (CLOSED)  0.00 (OPEN) 


 Singly occupied orbitals:      4.1       5.1       6.1       3.2       1.6
 
 Extra symmetries of mos in symmetry 1:   1   1   1   1   3   2
 Orbital guess generated from atomic densities. Full valence occupancy:    6   2   2   1   2   1   1   0


 Molecular orbital dump at record        4202.2

 ITERATION    DDIFF          GRAD             ENERGY        2-EL.EN.            DIPOLE MOMENTS         DIIS   ORB.
    1      0.000D+00      0.000D+00      -947.96111236    690.470478    0.00000    0.00000    0.00000    0    start
    2      0.000D+00      0.112D-01      -948.08320405    706.913003    0.00000    0.00000    0.00000    1    diag,B
    3      0.120D+00      0.684D-02      -948.09706217    703.907754    0.00000    0.00000    0.00000    2    diag,B
    4      0.115D-01      0.153D-02      -948.10047962    704.412539    0.00000    0.00000    0.00000    3    diag,B
    5      0.637D-02      0.706D-03      -948.10148117    704.370410    0.00000    0.00000    0.00000    4    diag,B
    6      0.405D-02      0.111D-03      -948.10156905    704.435733    0.00000    0.00000    0.00000    5    diag,B
    7      0.226D-02      0.314D-04      -948.10157577    704.444576    0.00000    0.00000    0.00000    6    fixocc
    8      0.750D-03      0.904D-05      -948.10157602    704.449817    0.00000    0.00000    0.00000    7    diag,B
    9      0.501D-04      0.150D-05      -948.10157603    704.450751    0.00000    0.00000    0.00000    8    diag,B
   10      0.240D-04      0.217D-06      -948.10157603    704.450881    0.00000    0.00000    0.00000    9    orth
   11      0.115D-05      0.333D-07      -948.10157603    704.450882    0.00000    0.00000    0.00000    0    orth

 Final alpha occupancy:   6   3   2   0   2   1   0   0
 Final beta  occupancy:   3   2   2   0   2   0   0   0

 !RHF STATE 1.5 Energy               -948.101576030128
 Nuclear energy                         0.00000000
 One-electron energy                -1300.32701698
 Two-electron energy                  352.22544095
 Virial quotient                       -0.96748893
 !RHF STATE 1.5 Dipole moment           0.00000000     0.00000000     0.00000000
 Dipole moment /Debye                   0.00000000     0.00000000     0.00000000

 Orbital energies:

         1.1          2.1          3.1          4.1          5.1          6.1          7.1          8.1
   -202.912376   -24.198939    -3.263891    -0.323255    -0.574817    -0.514830     0.021690     0.064714

         1.2          2.2          3.2          4.2          5.2
    -20.099783    -2.059205    -0.177473     0.037522     0.180713

         1.3          2.3          3.3          4.3
    -20.112984    -2.074509    -0.000592     0.043005

         1.4          2.4
      0.050309     0.093283

         1.5          2.5          3.5          4.5
    -20.100556    -2.063256     0.001828     0.044315

         1.6          2.6          3.6
     -0.514759     0.066573     0.220856

         1.7          2.7
      0.054228     0.090102

         1.8          2.8
      0.461821     1.485474

 HOMO      3.2    -0.177473 =      -4.8293eV
 LUMO      3.3    -0.000592 =      -0.0161eV
 LUMO-HOMO         0.176882 =       4.8132eV


 **********************************************************************************************************************************
 DATASETS  * FILE   NREC   LENGTH (MB)   RECORD NAMES
              1      23       71.15       500      610      700      900      950      970     1000      129      960     1700   
                                          VAR    BASINP    GEOM    SYMINP    ZMAT    AOBASIS   BASIS     P2S    ABASIS    OPER   
                                         1101     1401     1411     1412     1650     1100     1400     1410     1200     1210   
                                          SR      EKINR    POTR     PVPR    MOLCAS      S      EKIN      POT      H0       H01  
                                         1300     1080     1600   
                                         ERIS     AOSYM     SMH  

              2       5        5.26       200      700     1000      520     4202   
                                        OPTIONS   GEOM     BASIS   MCVARS     RHF  

 PROGRAMS   *        TOTAL       RHF       INT
 CPU TIMES  *        10.56      0.74      9.67
 REAL TIME  *        11.80 SEC
 DISK USED  *       294.63 MB      
 **********************************************************************************************************************************

1PROGRAM * MULTI (Direct Multiconfiguration SCF)       Authors: P.J. Knowles, H.-J. Werner (1984)     S.T. Elbert (1988)


 Number of closed-shell orbitals:   9 (   3   2   2   0   2   0   0   0 )
 Number of active  orbitals:        9 (   3   1   1   1   1   1   1   0 )
 Number of external orbitals:     167 (  46  24  24  15  24  15  15   4 )

 State symmetry 1

 Number of electrons:     5    Spin symmetry=Quartet   Space symmetry=1
 Number of states:       24
 Number of CSFs:        114

 State symmetry 2

 Number of electrons:     5    Spin symmetry=Quartet   Space symmetry=2
 Number of states:       11
 Number of CSFs:        126

 State symmetry 3

 Number of electrons:     5    Spin symmetry=Quartet   Space symmetry=3
 Number of states:       11
 Number of CSFs:        126

 State symmetry 4

 Number of electrons:     5    Spin symmetry=Quartet   Space symmetry=4
 Number of states:       20
 Number of CSFs:        126

 State symmetry 5

 Number of electrons:     5    Spin symmetry=Quartet   Space symmetry=5
 Number of states:       11
 Number of CSFs:        126

 State symmetry 6

 Number of electrons:     5    Spin symmetry=Quartet   Space symmetry=6
 Number of states:       20
 Number of CSFs:        126

 State symmetry 7

 Number of electrons:     5    Spin symmetry=Quartet   Space symmetry=7
 Number of states:       20
 Number of CSFs:        126

 State symmetry 8

 Number of electrons:     5    Spin symmetry=Quartet   Space symmetry=8
 Number of states:       12
 Number of CSFs:        138
 
 Maximum number of shells:             2
 Maximum number of spin couplings:     4

 Storage for configuration lists    1794, coupling coefficients    103, address lists  19782

 Molecular orbitals read from record     4202.2  Type=RHF/CANONICAL (state 1.5)
 *** IN SYMMETRY 1 ORBITAL  1 SYMMETRY CONTAMINATION OF 0.333D-04 HAS BEEN REMOVED
 *** IN SYMMETRY 1 ORBITAL  2 SYMMETRY CONTAMINATION OF 0.105D-02 HAS BEEN REMOVED
 *** IN SYMMETRY 1 ORBITAL  3 SYMMETRY CONTAMINATION OF 0.130D-01 HAS BEEN REMOVED
 *** IN SYMMETRY 1 ORBITAL  4 SYMMETRY CONTAMINATION OF 0.783D-01 HAS BEEN REMOVED
 *** IN SYMMETRY 1 ORBITAL  5 SYMMETRY CONTAMINATION OF 0.424D+00 HAS BEEN REMOVED
 *** IN SYMMETRY 1 ORBITAL  6 SYMMETRY CONTAMINATION OF 0.460D+00 HAS BEEN REMOVED

 EXTRA SYMMETRY OF MOS IN SYMMETRY 1:   1 1 1 1 3 2 1 2 3 1   3 2 1 3 2 1 6 5 4 3   2 1 6 5 4 3 2 1 3 2   6 5 4 1 3 2 1 3 2 1
                                        3 2 1 1 1 1 1 1 1 1   1 1
 *** IN SYMMETRY 2 ORBITAL  1 SYMMETRY CONTAMINATION OF 0.389D-03 HAS BEEN REMOVED
 *** IN SYMMETRY 2 ORBITAL  2 SYMMETRY CONTAMINATION OF 0.231D-02 HAS BEEN REMOVED
 *** IN SYMMETRY 2 ORBITAL  3 SYMMETRY CONTAMINATION OF 0.335D-02 HAS BEEN REMOVED
 EXTRA SYMMETRY OF MOS IN SYMMETRY 2:   1 1 1 1 1 3 2 1 2 3   1 2 3 1 1 3 2 1 1 1   1 1 1 1 1 1 1
 *** IN SYMMETRY 3 ORBITAL  1 SYMMETRY CONTAMINATION OF 0.115D-02 HAS BEEN REMOVED
 *** IN SYMMETRY 3 ORBITAL  2 SYMMETRY CONTAMINATION OF 0.105D-01 HAS BEEN REMOVED
 *** IN SYMMETRY 3 ORBITAL  3 SYMMETRY CONTAMINATION OF 0.692D-02 HAS BEEN REMOVED
 EXTRA SYMMETRY OF MOS IN SYMMETRY 3:   1 1 1 1 1 2 3 1 2 3   1 3 2 1 1 3 2 1 1 1   1 1 1 1 1 1 1
 *** IN SYMMETRY 4 ORBITAL  1 SYMMETRY CONTAMINATION OF 0.360D-02 HAS BEEN REMOVED
 EXTRA SYMMETRY OF MOS IN SYMMETRY 4:   1 1 1 1 2 3 1 3 2 1   1 3 2 1 1 1
 *** IN SYMMETRY 5 ORBITAL  1 SYMMETRY CONTAMINATION OF 0.453D-03 HAS BEEN REMOVED
 *** IN SYMMETRY 5 ORBITAL  2 SYMMETRY CONTAMINATION OF 0.244D-02 HAS BEEN REMOVED
 *** IN SYMMETRY 5 ORBITAL  3 SYMMETRY CONTAMINATION OF 0.207D-02 HAS BEEN REMOVED
 EXTRA SYMMETRY OF MOS IN SYMMETRY 5:   1 1 1 1 1 2 3 1 2 3   1 2 3 1 1 2 3 1 1 1   1 1 1 1 1 1 1
 *** IN SYMMETRY 6 ORBITAL  1 SYMMETRY CONTAMINATION OF 0.452D-02 HAS BEEN REMOVED
 EXTRA SYMMETRY OF MOS IN SYMMETRY 6:   1 1 1 1 3 2 1 3 2 1   1 3 2 1 1 1
 *** IN SYMMETRY 7 ORBITAL  1 SYMMETRY CONTAMINATION OF 0.325D-02 HAS BEEN REMOVED
 EXTRA SYMMETRY OF MOS IN SYMMETRY 7:   1 1 1 1 2 3 1 2 3 1   1 2 3 1 1 1

 Wavefunction dump at record             5202.2

 Convergence thresholds  0.10E-01 (gradient)  0.10E-05 (energy)  0.10E-02 (step length)

 Weight factors for state symmetry  1:    0.00775   0.00775   0.00775   0.00775   0.00775   0.00775   0.00775   0.00775
                                          0.00775   0.00775   0.00775   0.00775   0.00775   0.00775   0.00775   0.00775
                                          0.00775   0.00775   0.00775   0.00775   0.00775   0.00775   0.00775   0.00775
 Weight factors for state symmetry  2:    0.00775   0.00775   0.00775   0.00775   0.00775   0.00775   0.00775   0.00775
                                          0.00775   0.00775   0.00775
 Weight factors for state symmetry  3:    0.00775   0.00775   0.00775   0.00775   0.00775   0.00775   0.00775   0.00775
                                          0.00775   0.00775   0.00775
 Weight factors for state symmetry  4:    0.00775   0.00775   0.00775   0.00775   0.00775   0.00775   0.00775   0.00775
                                          0.00775   0.00775   0.00775   0.00775   0.00775   0.00775   0.00775   0.00775
                                          0.00775   0.00775   0.00775   0.00775
 Weight factors for state symmetry  5:    0.00775   0.00775   0.00775   0.00775   0.00775   0.00775   0.00775   0.00775
                                          0.00775   0.00775   0.00775
 Weight factors for state symmetry  6:    0.00775   0.00775   0.00775   0.00775   0.00775   0.00775   0.00775   0.00775
                                          0.00775   0.00775   0.00775   0.00775   0.00775   0.00775   0.00775   0.00775
                                          0.00775   0.00775   0.00775   0.00775
 Weight factors for state symmetry  7:    0.00775   0.00775   0.00775   0.00775   0.00775   0.00775   0.00775   0.00775
                                          0.00775   0.00775   0.00775   0.00775   0.00775   0.00775   0.00775   0.00775
                                          0.00775   0.00775   0.00775   0.00775
 Weight factors for state symmetry  8:    0.00775   0.00775   0.00775   0.00775   0.00775   0.00775   0.00775   0.00775
                                          0.00775   0.00775   0.00775   0.00775

 Eigenvalues of redundancy matrix
   1-  3   -0.000000   -0.000000    0.000000

 Number of orbital rotations:      552   (    15 Core/Active    282 Core/Virtual   0 Active/Active    255 Active/Virtual)
 Total number of variables:      16662


 ITER. MIC  NCI  NEG     ENERGY(VAR)     ENERGY(PROJ)   ENERGY CHANGE     GRAD(0)  GRAD(ORB)   GRAD(CI)     STEP       TIME

   1   75   64    0    -947.87630393    -948.24547947   -0.36917555    0.07255720 0.00000082 0.00000000  0.14D+01      1.32
   2   19   80    0    -947.91459743    -948.00582727   -0.09122984    0.34346342 0.00000026 0.00000000  0.45D+00      2.86
   3   18  120    0    -948.01247308    -948.01393716   -0.00146408    0.04186006 0.00000042 0.00000000  0.82D-01      4.99
   4   19  104    0    -948.01395641    -948.01395705   -0.00000064    0.00064720 0.00000026 0.00000000  0.21D-02      6.90
   5   19   32    0    -948.01395705    -948.01395705   -0.00000000    0.00000039 0.00000009 0.00000000  0.22D-05      7.70

 ** WVFN ****  CONVERGENCE REACHED, FINAL GRADIENT:  0.12D-06



 Results for state 1.1
 =====================

 !MCSCF STATE 1.1 Energy             -948.168436671046
 Nuclear energy                         0.00000000
 Kinetic energy                       978.79950772
 One electron energy                -1299.03725893
 Two electron energy                  350.86882225
 Virial ratio                           1.96870547

 !MCSCF STATE 1.1 Dipole moment         0.00000000     0.00000000     0.00000000
 Dipole moment /Debye                   0.00000000     0.00000000     0.00000000

 Results for state 2.1
 =====================

 !MCSCF STATE 2.1 Energy             -948.077749561432
 Nuclear energy                         0.00000000
 Kinetic energy                       982.35405730
 One electron energy                -1308.75401936
 Two electron energy                  360.67626980
 Virial ratio                           1.96510799

 !MCSCF STATE 2.1 Dipole moment         0.00000000     0.00000000     0.00000000
 Dipole moment /Debye                   0.00000000     0.00000000     0.00000000

 Results for state 3.1
 =====================

 !MCSCF STATE 3.1 Energy             -948.077651697539
 Nuclear energy                         0.00000000
 Kinetic energy                       982.35786295
 One electron energy                -1308.76127653
 Two electron energy                  360.68362484
 Virial ratio                           1.96510415

 !MCSCF STATE 3.1 Dipole moment         0.00000000     0.00000000     0.00000000
 Dipole moment /Debye                   0.00000000     0.00000000     0.00000000

 Results for state 4.1
 =====================

 !MCSCF STATE 4.1 Energy             -948.027800568420
 Nuclear energy                         0.00000000
 Kinetic energy                       982.46253377
 One electron energy                -1309.09465762
 Two electron energy                  361.06685705
 Virial ratio                           1.96495059

 !MCSCF STATE 4.1 Dipole moment         0.00000000     0.00000000     0.00000000
 Dipole moment /Debye                   0.00000000     0.00000000     0.00000000

 Results for state 5.1
 =====================

 !MCSCF STATE 5.1 Energy             -948.027712290690
 Nuclear energy                         0.00000000
 Kinetic energy                       982.46509536
 One electron energy                -1309.09949120
 Two electron energy                  361.07177891
 Virial ratio                           1.96494798

 !MCSCF STATE 5.1 Dipole moment         0.00000000     0.00000000     0.00000000
 Dipole moment /Debye                   0.00000000     0.00000000     0.00000000

 Results for state 6.1
 =====================

 !MCSCF STATE 6.1 Energy             -948.016628177211
 Nuclear energy                         0.00000000
 Kinetic energy                       982.45760249
 One electron energy                -1309.08216243
 Two electron energy                  361.06553425
 Virial ratio                           1.96494406

 !MCSCF STATE 6.1 Dipole moment         0.00000000     0.00000000     0.00000000
 Dipole moment /Debye                   0.00000000     0.00000000     0.00000000

 Results for state 7.1
 =====================

 !MCSCF STATE 7.1 Energy             -948.008435687172
 Nuclear energy                         0.00000000
 Kinetic energy                       982.43007782
 One electron energy                -1308.99960707
 Two electron energy                  360.99117138
 Virial ratio                           1.96496276

 !MCSCF STATE 7.1 Dipole moment         0.00000000     0.00000000     0.00000000
 Dipole moment /Debye                   0.00000000     0.00000000     0.00000000

 Results for state 8.1
 =====================

 !MCSCF STATE 8.1 Energy             -948.008266535433
 Nuclear energy                         0.00000000
 Kinetic energy                       982.43453185
 One electron energy                -1309.00805944
 Two electron energy                  360.99979291
 Virial ratio                           1.96495821

 !MCSCF STATE 8.1 Dipole moment         0.00000000     0.00000000     0.00000000
 Dipole moment /Debye                   0.00000000     0.00000000     0.00000000

 Results for state 9.1
 =====================

 !MCSCF STATE 9.1 Energy             -948.008165791569
 Nuclear energy                         0.00000000
 Kinetic energy                       982.43717109
 One electron energy                -1309.01304382
 Two electron energy                  361.00487803
 Virial ratio                           1.96495551

 !MCSCF STATE 9.1 Dipole moment         0.00000000     0.00000000     0.00000000
 Dipole moment /Debye                   0.00000000     0.00000000     0.00000000

 Results for state10.1
 =====================

 !MCSCF STATE10.1 Energy             -947.980179739409
 Nuclear energy                         0.00000000
 Kinetic energy                       982.44058352
 One electron energy                -1309.03003041
 Two electron energy                  361.04985067
 Virial ratio                           1.96492368

 !MCSCF STATE10.1 Dipole moment         0.00000000     0.00000000     0.00000000
 Dipole moment /Debye                   0.00000000     0.00000000     0.00000000

 Results for state11.1
 =====================

 !MCSCF STATE11.1 Energy             -947.980095483220
 Nuclear energy                         0.00000000
 Kinetic energy                       982.44258411
 One electron energy                -1309.03372643
 Two electron energy                  361.05363094
 Virial ratio                           1.96492163

 !MCSCF STATE11.1 Dipole moment         0.00000000     0.00000000     0.00000000
 Dipole moment /Debye                   0.00000000     0.00000000     0.00000000

 Results for state12.1
 =====================

 !MCSCF STATE12.1 Energy             -947.932257900389
 Nuclear energy                         0.00000000
 Kinetic energy                       978.56041899
 One electron energy                -1296.95387187
 Two electron energy                  349.02161397
 Virial ratio                           1.96870080

 !MCSCF STATE12.1 Dipole moment         0.00000000     0.00000000     0.00000000
 Dipole moment /Debye                   0.00000000     0.00000000     0.00000000

 Results for state13.1
 =====================

 !MCSCF STATE13.1 Energy             -947.927121510274
 Nuclear energy                         0.00000000
 Kinetic energy                       978.56046645
 One electron energy                -1296.95886729
 Two electron energy                  349.03174578
 Virial ratio                           1.96869550

 !MCSCF STATE13.1 Dipole moment         0.00000000     0.00000000     0.00000000
 Dipole moment /Debye                   0.00000000     0.00000000     0.00000000

 Results for state14.1
 =====================

 !MCSCF STATE14.1 Energy             -947.927114572282
 Nuclear energy                         0.00000000
 Kinetic energy                       978.56087114
 One electron energy                -1296.96063593
 Two electron energy                  349.03352135
 Virial ratio                           1.96869509

 !MCSCF STATE14.1 Dipole moment         0.00000000     0.00000000     0.00000000
 Dipole moment /Debye                   0.00000000     0.00000000     0.00000000

 Results for state15.1
 =====================

 !MCSCF STATE15.1 Energy             -947.922099474136
 Nuclear energy                         0.00000000
 Kinetic energy                       978.55066179
 One electron energy                -1296.92035478
 Two electron energy                  348.99825531
 Virial ratio                           1.96870008

 !MCSCF STATE15.1 Dipole moment         0.00000000     0.00000000     0.00000000
 Dipole moment /Debye                   0.00000000     0.00000000     0.00000000

 Results for state16.1
 =====================

 !MCSCF STATE16.1 Energy             -947.921976093368
 Nuclear energy                         0.00000000
 Kinetic energy                       978.54486554
 One electron energy                -1296.90798148
 Two electron energy                  348.98600539
 Virial ratio                           1.96870569

 !MCSCF STATE16.1 Dipole moment         0.00000000     0.00000000     0.00000000
 Dipole moment /Debye                   0.00000000     0.00000000     0.00000000

 Results for state17.1
 =====================

 !MCSCF STATE17.1 Energy             -947.921877805452
 Nuclear energy                         0.00000000
 Kinetic energy                       978.54584063
 One electron energy                -1296.91426736
 Two electron energy                  348.99238956
 Virial ratio                           1.96870462

 !MCSCF STATE17.1 Dipole moment         0.00000000     0.00000000     0.00000000
 Dipole moment /Debye                   0.00000000     0.00000000     0.00000000

 Results for state18.1
 =====================

 !MCSCF STATE18.1 Energy             -947.912675570788
 Nuclear energy                         0.00000000
 Kinetic energy                       978.69369509
 One electron energy                -1297.34838572
 Two electron energy                  349.43571015
 Virial ratio                           1.96854887

 !MCSCF STATE18.1 Dipole moment         0.00000000     0.00000000     0.00000000
 Dipole moment /Debye                   0.00000000     0.00000000     0.00000000

 Results for state19.1
 =====================

 !MCSCF STATE19.1 Energy             -947.912570069265
 Nuclear energy                         0.00000000
 Kinetic energy                       978.69372546
 One electron energy                -1297.35377294
 Two electron energy                  349.44120287
 Virial ratio                           1.96854874

 !MCSCF STATE19.1 Dipole moment         0.00000000     0.00000000     0.00000000
 Dipole moment /Debye                   0.00000000     0.00000000     0.00000000

 Results for state20.1
 =====================

 !MCSCF STATE20.1 Energy             -947.909445477048
 Nuclear energy                         0.00000000
 Kinetic energy                       980.51192830
 One electron energy                -1303.02837739
 Two electron energy                  355.11893192
 Virial ratio                           1.96674953

 !MCSCF STATE20.1 Dipole moment         0.00000000     0.00000000     0.00000000
 Dipole moment /Debye                   0.00000000     0.00000000     0.00000000

 Results for state21.1
 =====================

 !MCSCF STATE21.1 Energy             -947.902554690433
 Nuclear energy                         0.00000000
 Kinetic energy                       978.69865558
 One electron energy                -1297.37603255
 Two electron energy                  349.47347785
 Virial ratio                           1.96853362

 !MCSCF STATE21.1 Dipole moment         0.00000000     0.00000000     0.00000000
 Dipole moment /Debye                   0.00000000     0.00000000     0.00000000

 Results for state22.1
 =====================

 !MCSCF STATE22.1 Energy             -947.902526766178
 Nuclear energy                         0.00000000
 Kinetic energy                       978.69808135
 One electron energy                -1297.37506697
 Two electron energy                  349.47254020
 Virial ratio                           1.96853416

 !MCSCF STATE22.1 Dipole moment         0.00000000     0.00000000     0.00000000
 Dipole moment /Debye                   0.00000000     0.00000000     0.00000000

 Results for state23.1
 =====================

 !MCSCF STATE23.1 Energy             -947.902472247498
 Nuclear energy                         0.00000000
 Kinetic energy                       978.69656939
 One electron energy                -1297.37255586
 Two electron energy                  349.47008361
 Virial ratio                           1.96853560

 !MCSCF STATE23.1 Dipole moment         0.00000000     0.00000000     0.00000000
 Dipole moment /Debye                   0.00000000     0.00000000     0.00000000

 Results for state24.1
 =====================

 !MCSCF STATE24.1 Energy             -947.900287920589
 Nuclear energy                         0.00000000
 Kinetic energy                       978.71567101
 One electron energy                -1297.44626492
 Two electron energy                  349.54597700
 Virial ratio                           1.96851447

 !MCSCF STATE24.1 Dipole moment         0.00000000     0.00000000     0.00000000
 Dipole moment /Debye                   0.00000000     0.00000000     0.00000000



 Results for state 1.2
 =====================

 !MCSCF STATE 1.2 Energy             -948.076747737191
 Nuclear energy                         0.00000000
 Kinetic energy                       978.70679194
 One electron energy                -1298.12679493
 Two electron energy                  350.05004719
 Virial ratio                           1.96870355

 !MCSCF STATE 1.2 Dipole moment         0.00000000     0.00000000     0.00000000
 Dipole moment /Debye                   0.00000000     0.00000000     0.00000000

 Results for state 2.2
 =====================

 !MCSCF STATE 2.2 Energy             -948.071467955220
 Nuclear energy                         0.00000000
 Kinetic energy                       978.72186579
 One electron energy                -1298.16845300
 Two electron energy                  350.09698505
 Virial ratio                           1.96868324

 !MCSCF STATE 2.2 Dipole moment         0.00000000     0.00000000     0.00000000
 Dipole moment /Debye                   0.00000000     0.00000000     0.00000000

 Results for state 3.2
 =====================

 !MCSCF STATE 3.2 Energy             -948.071304709614
 Nuclear energy                         0.00000000
 Kinetic energy                       978.71198858
 One electron energy                -1298.14520592
 Two electron energy                  350.07390121
 Virial ratio                           1.96869285

 !MCSCF STATE 3.2 Dipole moment         0.00000000     0.00000000     0.00000000
 Dipole moment /Debye                   0.00000000     0.00000000     0.00000000

 Results for state 4.2
 =====================

 !MCSCF STATE 4.2 Energy             -948.064094343345
 Nuclear energy                         0.00000000
 Kinetic energy                       978.68969867
 One electron energy                -1298.08216104
 Two electron energy                  350.01806669
 Virial ratio                           1.96870754

 !MCSCF STATE 4.2 Dipole moment         0.00000000     0.00000000     0.00000000
 Dipole moment /Debye                   0.00000000     0.00000000     0.00000000

 Results for state 5.2
 =====================

 !MCSCF STATE 5.2 Energy             -948.064058835137
 Nuclear energy                         0.00000000
 Kinetic energy                       978.68569584
 One electron energy                -1298.07081012
 Two electron energy                  350.00675129
 Virial ratio                           1.96871147

 !MCSCF STATE 5.2 Dipole moment         0.00000000     0.00000000     0.00000000
 Dipole moment /Debye                   0.00000000     0.00000000     0.00000000

 Results for state 6.2
 =====================

 !MCSCF STATE 6.2 Energy             -948.033112415342
 Nuclear energy                         0.00000000
 Kinetic energy                       978.71991811
 One electron energy                -1298.16443396
 Two electron energy                  350.13132155
 Virial ratio                           1.96864598

 !MCSCF STATE 6.2 Dipole moment         0.00000000     0.00000000     0.00000000
 Dipole moment /Debye                   0.00000000     0.00000000     0.00000000

 Results for state 7.2
 =====================

 !MCSCF STATE 7.2 Energy             -948.033063122600
 Nuclear energy                         0.00000000
 Kinetic energy                       978.71586394
 One electron energy                -1298.15614573
 Two electron energy                  350.12308260
 Virial ratio                           1.96864994

 !MCSCF STATE 7.2 Dipole moment         0.00000000     0.00000000     0.00000000
 Dipole moment /Debye                   0.00000000     0.00000000     0.00000000

 Results for state 8.2
 =====================

 !MCSCF STATE 8.2 Energy             -948.032990236907
 Nuclear energy                         0.00000000
 Kinetic energy                       978.70958289
 One electron energy                -1298.14244869
 Two electron energy                  350.10945846
 Virial ratio                           1.96865608

 !MCSCF STATE 8.2 Dipole moment         0.00000000     0.00000000     0.00000000
 Dipole moment /Debye                   0.00000000     0.00000000     0.00000000

 Results for state 9.2
 =====================

 !MCSCF STATE 9.2 Energy             -948.025992318068
 Nuclear energy                         0.00000000
 Kinetic energy                       978.71300351
 One electron energy                -1298.14802904
 Two electron energy                  350.12203672
 Virial ratio                           1.96864555

 !MCSCF STATE 9.2 Dipole moment         0.00000000     0.00000000     0.00000000
 Dipole moment /Debye                   0.00000000     0.00000000     0.00000000

 Results for state10.2
 =====================

 !MCSCF STATE10.2 Energy             -948.025971524225
 Nuclear energy                         0.00000000
 Kinetic energy                       978.71313642
 One electron energy                -1298.15368663
 Two electron energy                  350.12771511
 Virial ratio                           1.96864539

 !MCSCF STATE10.2 Dipole moment         0.00000000     0.00000000     0.00000000
 Dipole moment /Debye                   0.00000000     0.00000000     0.00000000

 Results for state11.2
 =====================

 !MCSCF STATE11.2 Energy             -948.025389183674
 Nuclear energy                         0.00000000
 Kinetic energy                       978.97095498
 One electron energy                -1298.84560156
 Two electron energy                  350.82021238
 Virial ratio                           1.96838970

 !MCSCF STATE11.2 Dipole moment         0.00000000     0.00000000     0.00000000
 Dipole moment /Debye                   0.00000000     0.00000000     0.00000000



 Results for state 1.3
 =====================

 !MCSCF STATE 1.3 Energy             -948.076782102893
 Nuclear energy                         0.00000000
 Kinetic energy                       978.70841171
 One electron energy                -1298.13162824
 Two electron energy                  350.05484613
 Virial ratio                           1.96870199

 !MCSCF STATE 1.3 Dipole moment         0.00000000     0.00000000     0.00000000
 Dipole moment /Debye                   0.00000000     0.00000000     0.00000000

 Results for state 2.3
 =====================

 !MCSCF STATE 2.3 Energy             -948.071503636645
 Nuclear energy                         0.00000000
 Kinetic energy                       978.72230457
 One electron energy                -1298.16737164
 Two electron energy                  350.09586800
 Virial ratio                           1.96868284

 !MCSCF STATE 2.3 Dipole moment         0.00000000     0.00000000     0.00000000
 Dipole moment /Debye                   0.00000000     0.00000000     0.00000000

 Results for state 3.3
 =====================

 !MCSCF STATE 3.3 Energy             -948.071269720771
 Nuclear energy                         0.00000000
 Kinetic energy                       978.71396850
 One electron energy                -1298.15456337
 Two electron energy                  350.08329365
 Virial ratio                           1.96869085

 !MCSCF STATE 3.3 Dipole moment         0.00000000     0.00000000     0.00000000
 Dipole moment /Debye                   0.00000000     0.00000000     0.00000000

 Results for state 4.3
 =====================

 !MCSCF STATE 4.3 Energy             -948.064091158094
 Nuclear energy                         0.00000000
 Kinetic energy                       978.68785773
 One electron energy                -1298.07637952
 Two electron energy                  350.01228836
 Virial ratio                           1.96870936

 !MCSCF STATE 4.3 Dipole moment         0.00000000     0.00000000     0.00000000
 Dipole moment /Debye                   0.00000000     0.00000000     0.00000000

 Results for state 5.3
 =====================

 !MCSCF STATE 5.3 Energy             -948.064011920213
 Nuclear energy                         0.00000000
 Kinetic energy                       978.68978550
 One electron energy                -1298.08688401
 Two electron energy                  350.02287209
 Virial ratio                           1.96870737

 !MCSCF STATE 5.3 Dipole moment         0.00000000     0.00000000     0.00000000
 Dipole moment /Debye                   0.00000000     0.00000000     0.00000000

 Results for state 6.3
 =====================

 !MCSCF STATE 6.3 Energy             -948.033106901361
 Nuclear energy                         0.00000000
 Kinetic energy                       978.71827140
 One electron energy                -1298.15826930
 Two electron energy                  350.12516240
 Virial ratio                           1.96864760

 !MCSCF STATE 6.3 Dipole moment         0.00000000     0.00000000     0.00000000
 Dipole moment /Debye                   0.00000000     0.00000000     0.00000000

 Results for state 7.3
 =====================

 !MCSCF STATE 7.3 Energy             -948.033077086597
 Nuclear energy                         0.00000000
 Kinetic energy                       978.71688958
 One electron energy                -1298.15789124
 Two electron energy                  350.12481415
 Virial ratio                           1.96864894

 !MCSCF STATE 7.3 Dipole moment         0.00000000     0.00000000     0.00000000
 Dipole moment /Debye                   0.00000000     0.00000000     0.00000000

 Results for state 8.3
 =====================

 !MCSCF STATE 8.3 Energy             -948.032992022053
 Nuclear energy                         0.00000000
 Kinetic energy                       978.71018034
 One electron energy                -1298.14464424
 Two electron energy                  350.11165222
 Virial ratio                           1.96865549

 !MCSCF STATE 8.3 Dipole moment         0.00000000     0.00000000     0.00000000
 Dipole moment /Debye                   0.00000000     0.00000000     0.00000000

 Results for state 9.3
 =====================

 !MCSCF STATE 9.3 Energy             -948.025992319089
 Nuclear energy                         0.00000000
 Kinetic energy                       978.71389034
 One electron energy                -1298.15191848
 Two electron energy                  350.12592616
 Virial ratio                           1.96864467

 !MCSCF STATE 9.3 Dipole moment         0.00000000     0.00000000     0.00000000
 Dipole moment /Debye                   0.00000000     0.00000000     0.00000000

 Results for state10.3
 =====================

 !MCSCF STATE10.3 Energy             -948.025978967780
 Nuclear energy                         0.00000000
 Kinetic energy                       978.71089835
 One electron energy                -1298.14205859
 Two electron energy                  350.11607962
 Virial ratio                           1.96864762

 !MCSCF STATE10.3 Dipole moment         0.00000000     0.00000000     0.00000000
 Dipole moment /Debye                   0.00000000     0.00000000     0.00000000

 Results for state11.3
 =====================

 !MCSCF STATE11.3 Energy             -948.025420060972
 Nuclear energy                         0.00000000
 Kinetic energy                       978.97380790
 One electron energy                -1298.85568150
 Two electron energy                  350.83026144
 Virial ratio                           1.96838691

 !MCSCF STATE11.3 Dipole moment         0.00000000     0.00000000     0.00000000
 Dipole moment /Debye                   0.00000000     0.00000000     0.00000000



 Results for state 1.4
 =====================

 !MCSCF STATE 1.4 Energy             -948.168170511124
 Nuclear energy                         0.00000000
 Kinetic energy                       978.78528438
 One electron energy                -1299.00975395
 Two electron energy                  350.84158344
 Virial ratio                           1.96871927

 !MCSCF STATE 1.4 Dipole moment         0.00000000     0.00000000     0.00000000
 Dipole moment /Debye                   0.00000000     0.00000000     0.00000000

 Results for state 2.4
 =====================

 !MCSCF STATE 2.4 Energy             -948.168131496243
 Nuclear energy                         0.00000000
 Kinetic energy                       978.78323015
 One electron energy                -1299.00578022
 Two electron energy                  350.83764872
 Virial ratio                           1.96872127

 !MCSCF STATE 2.4 Dipole moment         0.00000000     0.00000000     0.00000000
 Dipole moment /Debye                   0.00000000     0.00000000     0.00000000

 Results for state 3.4
 =====================

 !MCSCF STATE 3.4 Energy             -948.109042501810
 Nuclear energy                         0.00000000
 Kinetic energy                       978.82402656
 One electron energy                -1299.11271545
 Two electron energy                  351.00367295
 Virial ratio                           1.96862053

 !MCSCF STATE 3.4 Dipole moment         0.00000000     0.00000000     0.00000000
 Dipole moment /Debye                   0.00000000     0.00000000     0.00000000

 Results for state 4.4
 =====================

 !MCSCF STATE 4.4 Energy             -948.077949610480
 Nuclear energy                         0.00000000
 Kinetic energy                       982.34464955
 One electron energy                -1308.73669456
 Two electron energy                  360.65874495
 Virial ratio                           1.96511744

 !MCSCF STATE 4.4 Dipole moment         0.00000000     0.00000000     0.00000000
 Dipole moment /Debye                   0.00000000     0.00000000     0.00000000

 Results for state 5.4
 =====================

 !MCSCF STATE 5.4 Energy             -948.028058271383
 Nuclear energy                         0.00000000
 Kinetic energy                       982.45471996
 One electron energy                -1309.08036862
 Two electron energy                  361.05231034
 Virial ratio                           1.96495853

 !MCSCF STATE 5.4 Dipole moment         0.00000000     0.00000000     0.00000000
 Dipole moment /Debye                   0.00000000     0.00000000     0.00000000

 Results for state 6.4
 =====================

 !MCSCF STATE 6.4 Energy             -948.028005410327
 Nuclear energy                         0.00000000
 Kinetic energy                       982.45621872
 One electron energy                -1309.08308169
 Two electron energy                  361.05507628
 Virial ratio                           1.96495700

 !MCSCF STATE 6.4 Dipole moment         0.00000000     0.00000000     0.00000000
 Dipole moment /Debye                   0.00000000     0.00000000     0.00000000

 Results for state 7.4
 =====================

 !MCSCF STATE 7.4 Energy             -948.027717047503
 Nuclear energy                         0.00000000
 Kinetic energy                       982.46471448
 One electron energy                -1309.09868650
 Two electron energy                  361.07096946
 Virial ratio                           1.96494836

 !MCSCF STATE 7.4 Dipole moment         0.00000000     0.00000000     0.00000000
 Dipole moment /Debye                   0.00000000     0.00000000     0.00000000

 Results for state 8.4
 =====================

 !MCSCF STATE 8.4 Energy             -948.019183548325
 Nuclear energy                         0.00000000
 Kinetic energy                       982.41046092
 One electron energy                -1308.95389232
 Two electron energy                  360.93470878
 Virial ratio                           1.96499297

 !MCSCF STATE 8.4 Dipole moment         0.00000000     0.00000000     0.00000000
 Dipole moment /Debye                   0.00000000     0.00000000     0.00000000

 Results for state 9.4
 =====================

 !MCSCF STATE 9.4 Energy             -948.016829204127
 Nuclear energy                         0.00000000
 Kinetic energy                       982.45296599
 One electron energy                -1309.07276100
 Two electron energy                  361.05593180
 Virial ratio                           1.96494882

 !MCSCF STATE 9.4 Dipole moment         0.00000000     0.00000000     0.00000000
 Dipole moment /Debye                   0.00000000     0.00000000     0.00000000

 Results for state10.4
 =====================

 !MCSCF STATE10.4 Energy             -948.016813202965
 Nuclear energy                         0.00000000
 Kinetic energy                       982.45300683
 One electron energy                -1309.07298496
 Two electron energy                  361.05617176
 Virial ratio                           1.96494876

 !MCSCF STATE10.4 Dipole moment         0.00000000     0.00000000     0.00000000
 Dipole moment /Debye                   0.00000000     0.00000000     0.00000000

 Results for state11.4
 =====================

 !MCSCF STATE11.4 Energy             -948.008603949362
 Nuclear energy                         0.00000000
 Kinetic energy                       982.42572387
 One electron energy                -1308.99141583
 Two electron energy                  360.98281188
 Virial ratio                           1.96496720

 !MCSCF STATE11.4 Dipole moment         0.00000000     0.00000000     0.00000000
 Dipole moment /Debye                   0.00000000     0.00000000     0.00000000

 Results for state12.4
 =====================

 !MCSCF STATE12.4 Energy             -948.008292562473
 Nuclear energy                         0.00000000
 Kinetic energy                       982.43404019
 One electron energy                -1309.00705685
 Two electron energy                  360.99876429
 Virial ratio                           1.96495872

 !MCSCF STATE12.4 Dipole moment         0.00000000     0.00000000     0.00000000
 Dipole moment /Debye                   0.00000000     0.00000000     0.00000000

 Results for state13.4
 =====================

 !MCSCF STATE13.4 Energy             -947.980396740810
 Nuclear energy                         0.00000000
 Kinetic energy                       982.43543786
 One electron energy                -1309.02032814
 Two electron energy                  361.03993140
 Virial ratio                           1.96492895

 !MCSCF STATE13.4 Dipole moment         0.00000000     0.00000000     0.00000000
 Dipole moment /Debye                   0.00000000     0.00000000     0.00000000

 Results for state14.4
 =====================

 !MCSCF STATE14.4 Energy             -947.932216636433
 Nuclear energy                         0.00000000
 Kinetic energy                       978.55748614
 One electron energy                -1296.94468782
 Two electron energy                  349.01247118
 Virial ratio                           1.96870366

 !MCSCF STATE14.4 Dipole moment         0.00000000     0.00000000     0.00000000
 Dipole moment /Debye                   0.00000000     0.00000000     0.00000000

 Results for state15.4
 =====================

 !MCSCF STATE15.4 Energy             -947.932186999984
 Nuclear energy                         0.00000000
 Kinetic energy                       978.55957683
 One electron energy                -1296.95521154
 Two electron energy                  349.02302454
 Virial ratio                           1.96870156

 !MCSCF STATE15.4 Dipole moment         0.00000000     0.00000000     0.00000000
 Dipole moment /Debye                   0.00000000     0.00000000     0.00000000

 Results for state16.4
 =====================

 !MCSCF STATE16.4 Energy             -947.927163478878
 Nuclear energy                         0.00000000
 Kinetic energy                       978.56109497
 One electron energy                -1296.95866065
 Two electron energy                  349.03149717
 Virial ratio                           1.96869492

 !MCSCF STATE16.4 Dipole moment         0.00000000     0.00000000     0.00000000
 Dipole moment /Debye                   0.00000000     0.00000000     0.00000000

 Results for state17.4
 =====================

 !MCSCF STATE17.4 Energy             -947.922196001224
 Nuclear energy                         0.00000000
 Kinetic energy                       978.55595420
 One electron energy                -1296.93190982
 Two electron energy                  349.00971382
 Virial ratio                           1.96869493

 !MCSCF STATE17.4 Dipole moment         0.00000000     0.00000000     0.00000000
 Dipole moment /Debye                   0.00000000     0.00000000     0.00000000

 Results for state18.4
 =====================

 !MCSCF STATE18.4 Energy             -947.922027120072
 Nuclear energy                         0.00000000
 Kinetic energy                       978.54690188
 One electron energy                -1296.91214273
 Two electron energy                  348.99011561
 Virial ratio                           1.96870372

 !MCSCF STATE18.4 Dipole moment         0.00000000     0.00000000     0.00000000
 Dipole moment /Debye                   0.00000000     0.00000000     0.00000000

 Results for state19.4
 =====================

 !MCSCF STATE19.4 Energy             -947.912647567880
 Nuclear energy                         0.00000000
 Kinetic energy                       978.69631808
 One electron energy                -1297.35799191
 Two electron energy                  349.44534434
 Virial ratio                           1.96854625

 !MCSCF STATE19.4 Dipole moment         0.00000000     0.00000000     0.00000000
 Dipole moment /Debye                   0.00000000     0.00000000     0.00000000

 Results for state20.4
 =====================

 !MCSCF STATE20.4 Energy             -947.912543220115
 Nuclear energy                         0.00000000
 Kinetic energy                       978.68428914
 One electron energy                -1297.32581805
 Two electron energy                  349.41327483
 Virial ratio                           1.96855805

 !MCSCF STATE20.4 Dipole moment         0.00000000     0.00000000     0.00000000
 Dipole moment /Debye                   0.00000000     0.00000000     0.00000000



 Results for state 1.5
 =====================

 !MCSCF STATE 1.5 Energy             -948.076827915931
 Nuclear energy                         0.00000000
 Kinetic energy                       978.71057595
 One electron energy                -1298.13580947
 Two electron energy                  350.05898155
 Virial ratio                           1.96869989

 !MCSCF STATE 1.5 Dipole moment         0.00000000     0.00000000     0.00000000
 Dipole moment /Debye                   0.00000000     0.00000000     0.00000000

 Results for state 2.5
 =====================

 !MCSCF STATE 2.5 Energy             -948.071509209319
 Nuclear energy                         0.00000000
 Kinetic energy                       978.72262196
 One electron energy                -1298.16813105
 Two electron energy                  350.09662184
 Virial ratio                           1.96868253

 !MCSCF STATE 2.5 Dipole moment         0.00000000     0.00000000     0.00000000
 Dipole moment /Debye                   0.00000000     0.00000000     0.00000000

 Results for state 3.5
 =====================

 !MCSCF STATE 3.5 Energy             -948.071307851673
 Nuclear energy                         0.00000000
 Kinetic energy                       978.71564194
 One electron energy                -1298.15748436
 Two electron energy                  350.08617651
 Virial ratio                           1.96868924

 !MCSCF STATE 3.5 Dipole moment         0.00000000     0.00000000     0.00000000
 Dipole moment /Debye                   0.00000000     0.00000000     0.00000000

 Results for state 4.5
 =====================

 !MCSCF STATE 4.5 Energy             -948.064072064510
 Nuclear energy                         0.00000000
 Kinetic energy                       978.68672108
 One electron energy                -1298.07362414
 Two electron energy                  350.00955208
 Virial ratio                           1.96871047

 !MCSCF STATE 4.5 Dipole moment         0.00000000     0.00000000     0.00000000
 Dipole moment /Debye                   0.00000000     0.00000000     0.00000000

 Results for state 5.5
 =====================

 !MCSCF STATE 5.5 Energy             -948.064014072562
 Nuclear energy                         0.00000000
 Kinetic energy                       978.68997734
 One electron energy                -1298.08745654
 Two electron energy                  350.02344247
 Virial ratio                           1.96870719

 !MCSCF STATE 5.5 Dipole moment         0.00000000     0.00000000     0.00000000
 Dipole moment /Debye                   0.00000000     0.00000000     0.00000000

 Results for state 6.5
 =====================

 !MCSCF STATE 6.5 Energy             -948.033109266104
 Nuclear energy                         0.00000000
 Kinetic energy                       978.71896536
 One electron energy                -1298.16088114
 Two electron energy                  350.12777188
 Virial ratio                           1.96864692

 !MCSCF STATE 6.5 Dipole moment         0.00000000     0.00000000     0.00000000
 Dipole moment /Debye                   0.00000000     0.00000000     0.00000000

 Results for state 7.5
 =====================

 !MCSCF STATE 7.5 Energy             -948.033096485287
 Nuclear energy                         0.00000000
 Kinetic energy                       978.71797370
 One electron energy                -1298.15890111
 Two electron energy                  350.12580463
 Virial ratio                           1.96864789

 !MCSCF STATE 7.5 Dipole moment         0.00000000     0.00000000     0.00000000
 Dipole moment /Debye                   0.00000000     0.00000000     0.00000000

 Results for state 8.5
 =====================

 !MCSCF STATE 8.5 Energy             -948.032991074927
 Nuclear energy                         0.00000000
 Kinetic energy                       978.71010046
 One electron energy                -1298.14442835
 Two electron energy                  350.11143727
 Virial ratio                           1.96865557

 !MCSCF STATE 8.5 Dipole moment         0.00000000     0.00000000     0.00000000
 Dipole moment /Debye                   0.00000000     0.00000000     0.00000000

 Results for state 9.5
 =====================

 !MCSCF STATE 9.5 Energy             -948.025994219696
 Nuclear energy                         0.00000000
 Kinetic energy                       978.71388281
 One electron energy                -1298.15149016
 Two electron energy                  350.12549595
 Virial ratio                           1.96864468

 !MCSCF STATE 9.5 Dipole moment         0.00000000     0.00000000     0.00000000
 Dipole moment /Debye                   0.00000000     0.00000000     0.00000000

 Results for state10.5
 =====================

 !MCSCF STATE10.5 Energy             -948.025976209229
 Nuclear energy                         0.00000000
 Kinetic energy                       978.71111052
 One electron energy                -1298.14317411
 Two electron energy                  350.11719790
 Virial ratio                           1.96864740

 !MCSCF STATE10.5 Dipole moment         0.00000000     0.00000000     0.00000000
 Dipole moment /Debye                   0.00000000     0.00000000     0.00000000

 Results for state11.5
 =====================

 !MCSCF STATE11.5 Energy             -948.025410362154
 Nuclear energy                         0.00000000
 Kinetic energy                       978.97419725
 One electron energy                -1298.85710503
 Two electron energy                  350.83169467
 Virial ratio                           1.96838651

 !MCSCF STATE11.5 Dipole moment         0.00000000     0.00000000     0.00000000
 Dipole moment /Debye                   0.00000000     0.00000000     0.00000000



 Results for state 1.6
 =====================

 !MCSCF STATE 1.6 Energy             -948.168256123698
 Nuclear energy                         0.00000000
 Kinetic energy                       978.78979592
 One electron energy                -1299.01856518
 Two electron energy                  350.85030906
 Virial ratio                           1.96871490

 !MCSCF STATE 1.6 Dipole moment         0.00000000     0.00000000     0.00000000
 Dipole moment /Debye                   0.00000000     0.00000000     0.00000000

 Results for state 2.6
 =====================

 !MCSCF STATE 2.6 Energy             -948.168098505415
 Nuclear energy                         0.00000000
 Kinetic energy                       978.78167812
 One electron energy                -1299.00275812
 Two electron energy                  350.83465961
 Virial ratio                           1.96872277

 !MCSCF STATE 2.6 Dipole moment         0.00000000     0.00000000     0.00000000
 Dipole moment /Debye                   0.00000000     0.00000000     0.00000000

 Results for state 3.6
 =====================

 !MCSCF STATE 3.6 Energy             -948.109017133286
 Nuclear energy                         0.00000000
 Kinetic energy                       978.82255289
 One electron energy                -1299.10984060
 Two electron energy                  351.00082347
 Virial ratio                           1.96862196

 !MCSCF STATE 3.6 Dipole moment         0.00000000     0.00000000     0.00000000
 Dipole moment /Debye                   0.00000000     0.00000000     0.00000000

 Results for state 4.6
 =====================

 !MCSCF STATE 4.6 Energy             -948.077929909701
 Nuclear energy                         0.00000000
 Kinetic energy                       982.34597220
 One electron energy                -1308.73912722
 Two electron energy                  360.66119731
 Virial ratio                           1.96511612

 !MCSCF STATE 4.6 Dipole moment         0.00000000     0.00000000     0.00000000
 Dipole moment /Debye                   0.00000000     0.00000000     0.00000000

 Results for state 5.6
 =====================

 !MCSCF STATE 5.6 Energy             -948.028065015026
 Nuclear energy                         0.00000000
 Kinetic energy                       982.45450342
 One electron energy                -1309.07991985
 Two electron energy                  361.05185483
 Virial ratio                           1.96495875

 !MCSCF STATE 5.6 Dipole moment         0.00000000     0.00000000     0.00000000
 Dipole moment /Debye                   0.00000000     0.00000000     0.00000000

 Results for state 6.6
 =====================

 !MCSCF STATE 6.6 Energy             -948.027971929764
 Nuclear energy                         0.00000000
 Kinetic energy                       982.45730383
 One electron energy                -1309.08498021
 Two electron energy                  361.05700828
 Virial ratio                           1.96495590

 !MCSCF STATE 6.6 Dipole moment         0.00000000     0.00000000     0.00000000
 Dipole moment /Debye                   0.00000000     0.00000000     0.00000000

 Results for state 7.6
 =====================

 !MCSCF STATE 7.6 Energy             -948.027709005256
 Nuclear energy                         0.00000000
 Kinetic energy                       982.46499262
 One electron energy                -1309.09924498
 Two electron energy                  361.07153598
 Virial ratio                           1.96494808

 !MCSCF STATE 7.6 Dipole moment         0.00000000     0.00000000     0.00000000
 Dipole moment /Debye                   0.00000000     0.00000000     0.00000000

 Results for state 8.6
 =====================

 !MCSCF STATE 8.6 Energy             -948.019196604852
 Nuclear energy                         0.00000000
 Kinetic energy                       982.41015279
 One electron energy                -1308.95348419
 Two electron energy                  360.93428759
 Virial ratio                           1.96499328

 !MCSCF STATE 8.6 Dipole moment         0.00000000     0.00000000     0.00000000
 Dipole moment /Debye                   0.00000000     0.00000000     0.00000000

 Results for state 9.6
 =====================

 !MCSCF STATE 9.6 Energy             -948.016839306861
 Nuclear energy                         0.00000000
 Kinetic energy                       982.45271054
 One electron energy                -1309.07210921
 Two electron energy                  361.05526990
 Virial ratio                           1.96494908

 !MCSCF STATE 9.6 Dipole moment         0.00000000     0.00000000     0.00000000
 Dipole moment /Debye                   0.00000000     0.00000000     0.00000000

 Results for state10.6
 =====================

 !MCSCF STATE10.6 Energy             -948.016748469232
 Nuclear energy                         0.00000000
 Kinetic energy                       982.45465874
 One electron energy                -1309.07619013
 Two electron energy                  361.05944167
 Virial ratio                           1.96494707

 !MCSCF STATE10.6 Dipole moment         0.00000000     0.00000000     0.00000000
 Dipole moment /Debye                   0.00000000     0.00000000     0.00000000

 Results for state11.6
 =====================

 !MCSCF STATE11.6 Energy             -948.008590282677
 Nuclear energy                         0.00000000
 Kinetic energy                       982.42605327
 One electron energy                -1308.99203627
 Two electron energy                  360.98344599
 Virial ratio                           1.96496687

 !MCSCF STATE11.6 Dipole moment         0.00000000     0.00000000     0.00000000
 Dipole moment /Debye                   0.00000000     0.00000000     0.00000000

 Results for state12.6
 =====================

 !MCSCF STATE12.6 Energy             -948.008259042627
 Nuclear energy                         0.00000000
 Kinetic energy                       982.43488438
 One electron energy                -1309.00871583
 Two electron energy                  361.00045678
 Virial ratio                           1.96495786

 !MCSCF STATE12.6 Dipole moment         0.00000000     0.00000000     0.00000000
 Dipole moment /Debye                   0.00000000     0.00000000     0.00000000

 Results for state13.6
 =====================

 !MCSCF STATE13.6 Energy             -947.980336164884
 Nuclear energy                         0.00000000
 Kinetic energy                       982.43680824
 One electron energy                -1309.02289975
 Two electron energy                  361.04256358
 Virial ratio                           1.96492754

 !MCSCF STATE13.6 Dipole moment         0.00000000     0.00000000     0.00000000
 Dipole moment /Debye                   0.00000000     0.00000000     0.00000000

 Results for state14.6
 =====================

 !MCSCF STATE14.6 Energy             -947.932224880892
 Nuclear energy                         0.00000000
 Kinetic energy                       978.55879788
 One electron energy                -1296.94933561
 Two electron energy                  349.01711073
 Virial ratio                           1.96870237

 !MCSCF STATE14.6 Dipole moment         0.00000000     0.00000000     0.00000000
 Dipole moment /Debye                   0.00000000     0.00000000     0.00000000

 Results for state15.6
 =====================

 !MCSCF STATE15.6 Energy             -947.932193845613
 Nuclear energy                         0.00000000
 Kinetic energy                       978.55884460
 One electron energy                -1296.95146274
 Two electron energy                  349.01926889
 Virial ratio                           1.96870229

 !MCSCF STATE15.6 Dipole moment         0.00000000     0.00000000     0.00000000
 Dipole moment /Debye                   0.00000000     0.00000000     0.00000000

 Results for state16.6
 =====================

 !MCSCF STATE16.6 Energy             -947.927151294033
 Nuclear energy                         0.00000000
 Kinetic energy                       978.56062453
 One electron energy                -1296.95788507
 Two electron energy                  349.03073378
 Virial ratio                           1.96869538

 !MCSCF STATE16.6 Dipole moment         0.00000000     0.00000000     0.00000000
 Dipole moment /Debye                   0.00000000     0.00000000     0.00000000

 Results for state17.6
 =====================

 !MCSCF STATE17.6 Energy             -947.922186622475
 Nuclear energy                         0.00000000
 Kinetic energy                       978.55586784
 One electron energy                -1296.93194606
 Two electron energy                  349.00975944
 Virial ratio                           1.96869501

 !MCSCF STATE17.6 Dipole moment         0.00000000     0.00000000     0.00000000
 Dipole moment /Debye                   0.00000000     0.00000000     0.00000000

 Results for state18.6
 =====================

 !MCSCF STATE18.6 Energy             -947.921990884409
 Nuclear energy                         0.00000000
 Kinetic energy                       978.54500396
 One electron energy                -1296.90791006
 Two electron energy                  348.98591917
 Virial ratio                           1.96870556

 !MCSCF STATE18.6 Dipole moment         0.00000000     0.00000000     0.00000000
 Dipole moment /Debye                   0.00000000     0.00000000     0.00000000

 Results for state19.6
 =====================

 !MCSCF STATE19.6 Energy             -947.912644312092
 Nuclear energy                         0.00000000
 Kinetic energy                       978.69600186
 One electron energy                -1297.35722991
 Two electron energy                  349.44458560
 Virial ratio                           1.96854656

 !MCSCF STATE19.6 Dipole moment         0.00000000     0.00000000     0.00000000
 Dipole moment /Debye                   0.00000000     0.00000000     0.00000000

 Results for state20.6
 =====================

 !MCSCF STATE20.6 Energy             -947.912547079066
 Nuclear energy                         0.00000000
 Kinetic energy                       978.68472369
 One electron energy                -1297.32698140
 Two electron energy                  349.41443432
 Virial ratio                           1.96855762

 !MCSCF STATE20.6 Dipole moment         0.00000000     0.00000000     0.00000000
 Dipole moment /Debye                   0.00000000     0.00000000     0.00000000



 Results for state 1.7
 =====================

 !MCSCF STATE 1.7 Energy             -948.168324195586
 Nuclear energy                         0.00000000
 Kinetic energy                       978.79353982
 One electron energy                -1299.02570015
 Two electron energy                  350.85737595
 Virial ratio                           1.96871126

 !MCSCF STATE 1.7 Dipole moment         0.00000000     0.00000000     0.00000000
 Dipole moment /Debye                   0.00000000     0.00000000     0.00000000

 Results for state 2.7
 =====================

 !MCSCF STATE 2.7 Energy             -948.168064377351
 Nuclear energy                         0.00000000
 Kinetic energy                       978.77952164
 One electron energy                -1298.99870261
 Two electron energy                  350.83063824
 Virial ratio                           1.96872487

 !MCSCF STATE 2.7 Dipole moment         0.00000000     0.00000000     0.00000000
 Dipole moment /Debye                   0.00000000     0.00000000     0.00000000

 Results for state 3.7
 =====================

 !MCSCF STATE 3.7 Energy             -948.109052052078
 Nuclear energy                         0.00000000
 Kinetic energy                       978.82464146
 One electron energy                -1299.11368662
 Two electron energy                  351.00463457
 Virial ratio                           1.96861993

 !MCSCF STATE 3.7 Dipole moment         0.00000000     0.00000000     0.00000000
 Dipole moment /Debye                   0.00000000     0.00000000     0.00000000

 Results for state 4.7
 =====================

 !MCSCF STATE 4.7 Energy             -948.077850845265
 Nuclear energy                         0.00000000
 Kinetic energy                       982.34934109
 One electron energy                -1308.74524526
 Two electron energy                  360.66739442
 Virial ratio                           1.96511273

 !MCSCF STATE 4.7 Dipole moment         0.00000000     0.00000000     0.00000000
 Dipole moment /Debye                   0.00000000     0.00000000     0.00000000

 Results for state 5.7
 =====================

 !MCSCF STATE 5.7 Energy             -948.028058857377
 Nuclear energy                         0.00000000
 Kinetic energy                       982.45446668
 One electron energy                -1309.07971569
 Two electron energy                  361.05165683
 Virial ratio                           1.96495878

 !MCSCF STATE 5.7 Dipole moment         0.00000000     0.00000000     0.00000000
 Dipole moment /Debye                   0.00000000     0.00000000     0.00000000

 Results for state 6.7
 =====================

 !MCSCF STATE 6.7 Energy             -948.027919989508
 Nuclear energy                         0.00000000
 Kinetic energy                       982.45890604
 One electron energy                -1309.08795723
 Two electron energy                  361.06003724
 Virial ratio                           1.96495427

 !MCSCF STATE 6.7 Dipole moment         0.00000000     0.00000000     0.00000000
 Dipole moment /Debye                   0.00000000     0.00000000     0.00000000

 Results for state 7.7
 =====================

 !MCSCF STATE 7.7 Energy             -948.027709148272
 Nuclear energy                         0.00000000
 Kinetic energy                       982.46513333
 One electron energy                -1309.09953275
 Two electron energy                  361.07182360
 Virial ratio                           1.96494794

 !MCSCF STATE 7.7 Dipole moment         0.00000000     0.00000000     0.00000000
 Dipole moment /Debye                   0.00000000     0.00000000     0.00000000

 Results for state 8.7
 =====================

 !MCSCF STATE 8.7 Energy             -948.019187479815
 Nuclear energy                         0.00000000
 Kinetic energy                       982.41042628
 One electron energy                -1308.95403132
 Two electron energy                  360.93484384
 Virial ratio                           1.96499300

 !MCSCF STATE 8.7 Dipole moment         0.00000000     0.00000000     0.00000000
 Dipole moment /Debye                   0.00000000     0.00000000     0.00000000

 Results for state 9.7
 =====================

 !MCSCF STATE 9.7 Energy             -948.016864341192
 Nuclear energy                         0.00000000
 Kinetic energy                       982.45214424
 One electron energy                -1309.07085850
 Two electron energy                  361.05399416
 Virial ratio                           1.96494966

 !MCSCF STATE 9.7 Dipole moment         0.00000000     0.00000000     0.00000000
 Dipole moment /Debye                   0.00000000     0.00000000     0.00000000

 Results for state10.7
 =====================

 !MCSCF STATE10.7 Energy             -948.016705442887
 Nuclear energy                         0.00000000
 Kinetic energy                       982.45568750
 One electron energy                -1309.07831346
 Two electron energy                  361.06160802
 Virial ratio                           1.96494602

 !MCSCF STATE10.7 Dipole moment         0.00000000     0.00000000     0.00000000
 Dipole moment /Debye                   0.00000000     0.00000000     0.00000000

 Results for state11.7
 =====================

 !MCSCF STATE11.7 Energy             -948.008563715289
 Nuclear energy                         0.00000000
 Kinetic energy                       982.42676785
 One electron energy                -1308.99335515
 Two electron energy                  360.98479143
 Virial ratio                           1.96496614

 !MCSCF STATE11.7 Dipole moment         0.00000000     0.00000000     0.00000000
 Dipole moment /Debye                   0.00000000     0.00000000     0.00000000

 Results for state12.7
 =====================

 !MCSCF STATE12.7 Energy             -948.008229165064
 Nuclear energy                         0.00000000
 Kinetic energy                       982.43554332
 One electron energy                -1309.00999358
 Two electron energy                  361.00176441
 Virial ratio                           1.96495718

 !MCSCF STATE12.7 Dipole moment         0.00000000     0.00000000     0.00000000
 Dipole moment /Debye                   0.00000000     0.00000000     0.00000000

 Results for state13.7
 =====================

 !MCSCF STATE13.7 Energy             -947.980300243446
 Nuclear energy                         0.00000000
 Kinetic energy                       982.43772021
 One electron energy                -1309.02465872
 Two electron energy                  361.04435847
 Virial ratio                           1.96492661

 !MCSCF STATE13.7 Dipole moment         0.00000000     0.00000000     0.00000000
 Dipole moment /Debye                   0.00000000     0.00000000     0.00000000

 Results for state14.7
 =====================

 !MCSCF STATE14.7 Energy             -947.932241254214
 Nuclear energy                         0.00000000
 Kinetic energy                       978.56012634
 One electron energy                -1296.95324761
 Two electron energy                  349.02100636
 Virial ratio                           1.96870107

 !MCSCF STATE14.7 Dipole moment         0.00000000     0.00000000     0.00000000
 Dipole moment /Debye                   0.00000000     0.00000000     0.00000000

 Results for state15.7
 =====================

 !MCSCF STATE15.7 Energy             -947.932161454072
 Nuclear energy                         0.00000000
 Kinetic energy                       978.55923045
 One electron energy                -1296.95583924
 Two electron energy                  349.02367778
 Virial ratio                           1.96870188

 !MCSCF STATE15.7 Dipole moment         0.00000000     0.00000000     0.00000000
 Dipole moment /Debye                   0.00000000     0.00000000     0.00000000

 Results for state16.7
 =====================

 !MCSCF STATE16.7 Energy             -947.927133343960
 Nuclear energy                         0.00000000
 Kinetic energy                       978.56170674
[...]
 !MCSCF trans        <6.5|DMZ|18.1>    -0.099248819670 au =    -0.252248815097 Debye
 !MCSCF trans        <6.5|DMZ|19.1>    -0.218895800903 au =    -0.556341189659 Debye
 !MCSCF trans        <6.5|DMZ|20.1>     0.000328431666 au =     0.000834735353 Debye
 !MCSCF trans        <6.5|DMZ|21.1>     0.193677629515 au =     0.492247189622 Debye
 !MCSCF trans        <6.5|DMZ|22.1>     0.019441522985 au =     0.049412185988 Debye
 !MCSCF trans        <6.5|DMZ|23.1>    -0.081143735022 au =    -0.206233294058 Debye
 !MCSCF trans        <6.5|DMZ|24.1>    -0.003928721716 au =    -0.009985160540 Debye
 !MCSCF trans         <7.5|DMZ|1.1>    -0.000395971631 au =    -0.001006393579 Debye
 !MCSCF trans         <7.5|DMZ|2.1>    -0.000137683345 au =    -0.000349933235 Debye
 !MCSCF trans         <7.5|DMZ|3.1>     0.000352116951 au =     0.000894933400 Debye
 !MCSCF trans         <7.5|DMZ|4.1>     0.001142229320 au =     0.002903067194 Debye
 !MCSCF trans         <7.5|DMZ|5.1>    -0.002625856245 au =    -0.006673823714 Debye
 !MCSCF trans         <7.5|DMZ|6.1>    -0.001194906378 au =    -0.003036950153 Debye
 !MCSCF trans         <7.5|DMZ|7.1>     0.015166876734 au =     0.038547830569 Debye
 !MCSCF trans         <7.5|DMZ|8.1>    -0.087194726446 au =    -0.221612372841 Debye
 !MCSCF trans         <7.5|DMZ|9.1>    -0.000778594908 au =    -0.001978861246 Debye
 !MCSCF trans        <7.5|DMZ|10.1>     0.000262662854 au =     0.000667578656 Debye
 !MCSCF trans        <7.5|DMZ|11.1>    -0.001126350301 au =    -0.002862709398 Debye
 !MCSCF trans        <7.5|DMZ|12.1>    -0.000792813478 au =    -0.002014998879 Debye
 !MCSCF trans        <7.5|DMZ|13.1>     0.000370922469 au =     0.000942729129 Debye
 !MCSCF trans        <7.5|DMZ|14.1>    -0.000947813629 au =    -0.002408944162 Debye
 !MCSCF trans        <7.5|DMZ|15.1>    -0.014336192473 au =    -0.036436580065 Debye
 !MCSCF trans        <7.5|DMZ|16.1>     0.058769249414 au =     0.149366748926 Debye
 !MCSCF trans        <7.5|DMZ|17.1>     0.031601701699 au =     0.080318253005 Debye
 !MCSCF trans        <7.5|DMZ|18.1>    -0.205044925640 au =    -0.521138082109 Debye
 !MCSCF trans        <7.5|DMZ|19.1>     0.131348050827 au =     0.333831579020 Debye
 !MCSCF trans        <7.5|DMZ|20.1>    -0.002660123362 au =    -0.006760916334 Debye
 !MCSCF trans        <7.5|DMZ|21.1>     0.041475061431 au =     0.105412186631 Debye
 !MCSCF trans        <7.5|DMZ|22.1>    -0.198043085792 au =    -0.503342345988 Debye
 !MCSCF trans        <7.5|DMZ|23.1>     0.048974967038 au =     0.124473796724 Debye
 !MCSCF trans        <7.5|DMZ|24.1>     0.009508435357 au =     0.024166449134 Debye
 !MCSCF trans         <8.5|DMZ|1.1>     0.000275402988 au =     0.000699958727 Debye
 !MCSCF trans         <8.5|DMZ|2.1>     0.000217751913 au =     0.000553433908 Debye
 !MCSCF trans         <8.5|DMZ|3.1>    -0.000071134416 au =    -0.000180793809 Debye
 !MCSCF trans         <8.5|DMZ|4.1>     0.005191388740 au =     0.013194329793 Debye
 !MCSCF trans         <8.5|DMZ|5.1>     0.001370954671 au =     0.003484390972 Debye
 !MCSCF trans         <8.5|DMZ|6.1>     0.000107541184 au =     0.000273324522 Debye
 !MCSCF trans         <8.5|DMZ|7.1>    -0.069051394596 au =    -0.175499643476 Debye
 !MCSCF trans         <8.5|DMZ|8.1>    -0.009725044599 au =    -0.024716978853 Debye
 !MCSCF trans         <8.5|DMZ|9.1>    -0.001233435381 au =    -0.003134874695 Debye
 !MCSCF trans        <8.5|DMZ|10.1>    -0.000423082112 au =    -0.001075297034 Debye
 !MCSCF trans        <8.5|DMZ|11.1>    -0.000022747143 au =    -0.000057813684 Debye
 !MCSCF trans        <8.5|DMZ|12.1>     0.000326031304 au =     0.000828634642 Debye
 !MCSCF trans        <8.5|DMZ|13.1>     0.002314007078 au =     0.005881234110 Debye
 !MCSCF trans        <8.5|DMZ|14.1>     0.001531824339 au =     0.003893254103 Debye
 !MCSCF trans        <8.5|DMZ|15.1>     0.051969055247 au =     0.132083511434 Debye
 !MCSCF trans        <8.5|DMZ|16.1>     0.004954455590 au =     0.012592145239 Debye
 !MCSCF trans        <8.5|DMZ|17.1>     0.013393693345 au =     0.034041143131 Debye
 !MCSCF trans        <8.5|DMZ|18.1>     0.191612999587 au =     0.486999767490 Debye
 !MCSCF trans        <8.5|DMZ|19.1>     0.366010650737 au =     0.930245349700 Debye
 !MCSCF trans        <8.5|DMZ|20.1>     0.001196987634 au =     0.003042239831 Debye
 !MCSCF trans        <8.5|DMZ|21.1>     0.011907634861 au =     0.030264206609 Debye
 !MCSCF trans        <8.5|DMZ|22.1>    -0.035625657097 au =    -0.090545457565 Debye
 !MCSCF trans        <8.5|DMZ|23.1>    -0.171983769068 au =    -0.437110507789 Debye
 !MCSCF trans        <8.5|DMZ|24.1>     0.003480493343 au =     0.008845952270 Debye
 !MCSCF trans         <9.5|DMZ|1.1>     0.210862595181 au =     0.535924154661 Debye
 !MCSCF trans         <9.5|DMZ|2.1>    -0.000001770834 au =    -0.000004500715 Debye
 !MCSCF trans         <9.5|DMZ|3.1>    -0.000859093463 au =    -0.002183454763 Debye
 !MCSCF trans         <9.5|DMZ|4.1>    -0.051231831639 au =    -0.130209798658 Debye
 !MCSCF trans         <9.5|DMZ|5.1>     0.345219210215 au =     0.877402240299 Debye
 !MCSCF trans         <9.5|DMZ|6.1>    -0.156525913559 au =    -0.397823131383 Debye
 !MCSCF trans         <9.5|DMZ|7.1>    -0.058363312124 au =    -0.148335026829 Debye
 !MCSCF trans         <9.5|DMZ|8.1>     0.197767253695 au =     0.502641296646 Debye
 !MCSCF trans         <9.5|DMZ|9.1>     0.008027248320 au =     0.020401893786 Debye
 !MCSCF trans        <9.5|DMZ|10.1>     0.001137174949 au =     0.002890221107 Debye
 !MCSCF trans        <9.5|DMZ|11.1>    -0.001484260464 au =    -0.003772366709 Debye
 !MCSCF trans        <9.5|DMZ|12.1>    -0.079655307925 au =    -0.202450337516 Debye
 !MCSCF trans        <9.5|DMZ|13.1>     0.000969247270 au =     0.002463419476 Debye
 !MCSCF trans        <9.5|DMZ|14.1>    -0.002993415963 au =    -0.007608006144 Debye
 !MCSCF trans        <9.5|DMZ|15.1>    -0.081362486780 au =    -0.206789269150 Debye
 !MCSCF trans        <9.5|DMZ|16.1>     0.223107755377 au =     0.567046208910 Debye
 !MCSCF trans        <9.5|DMZ|17.1>     0.125125915752 au =     0.318017524957 Debye
 !MCSCF trans        <9.5|DMZ|18.1>     0.530630677813 au =     1.348640318116 Debye
 !MCSCF trans        <9.5|DMZ|19.1>    -0.235190545706 au =    -0.597755587155 Debye
 !MCSCF trans        <9.5|DMZ|20.1>     0.242368093361 au =     0.615997898724 Debye
 !MCSCF trans        <9.5|DMZ|21.1>    -0.017927318205 au =    -0.045563713402 Debye
 !MCSCF trans        <9.5|DMZ|22.1>     0.078079485246 au =     0.198445258113 Debye
 !MCSCF trans        <9.5|DMZ|23.1>    -0.032232210460 au =    -0.081920741462 Debye
 !MCSCF trans        <9.5|DMZ|24.1>    -0.000991355844 au =    -0.002519610186 Debye
 !MCSCF trans        <10.5|DMZ|1.1>    -0.006638270488 au =    -0.016871695508 Debye
 !MCSCF trans        <10.5|DMZ|2.1>     0.000469926326 au =     0.001194355352 Debye
 !MCSCF trans        <10.5|DMZ|3.1>     0.000352472027 au =     0.000895835854 Debye
 !MCSCF trans        <10.5|DMZ|4.1>     0.228290976455 au =     0.580219779939 Debye
 !MCSCF trans        <10.5|DMZ|5.1>     0.028425368887 au =     0.072245349057 Debye
 !MCSCF trans        <10.5|DMZ|6.1>     0.003707474599 au =     0.009422843290 Debye
 !MCSCF trans        <10.5|DMZ|7.1>    -0.290918259074 au =    -0.739392028898 Debye
 !MCSCF trans        <10.5|DMZ|8.1>    -0.080601789207 au =    -0.204855895412 Debye
 !MCSCF trans        <10.5|DMZ|9.1>     0.280890773999 au =     0.713906373380 Debye
 !MCSCF trans       <10.5|DMZ|10.1>    -0.000838715630 au =    -0.002131662872 Debye
 !MCSCF trans       <10.5|DMZ|11.1>     0.000195682168 au =     0.000497341885 Debye
 !MCSCF trans       <10.5|DMZ|12.1>     0.000254821126 au =     0.000647648277 Debye
 !MCSCF trans       <10.5|DMZ|13.1>    -0.010841622637 au =    -0.027554851261 Debye
 !MCSCF trans       <10.5|DMZ|14.1>    -0.006101407188 au =    -0.015507214481 Debye
 !MCSCF trans       <10.5|DMZ|15.1>    -0.411270648685 au =    -1.045277255286 Debye
 !MCSCF trans       <10.5|DMZ|16.1>    -0.255640376628 au =    -0.649730468429 Debye
 !MCSCF trans       <10.5|DMZ|17.1>     0.237937190281 au =     0.604736404074 Debye
 !MCSCF trans       <10.5|DMZ|18.1>     0.142775969738 au =     0.362876549166 Debye
 !MCSCF trans       <10.5|DMZ|19.1>     0.347862461271 au =     0.884120274317 Debye
 !MCSCF trans       <10.5|DMZ|20.1>    -0.006746426405 au =    -0.017146582422 Debye
 !MCSCF trans       <10.5|DMZ|21.1>    -0.113508991243 au =    -0.288492181965 Debye
 !MCSCF trans       <10.5|DMZ|22.1>    -0.069698552349 au =    -0.177144446680 Debye
 !MCSCF trans       <10.5|DMZ|23.1>    -0.128138368332 au =    -0.325673914184 Debye
 !MCSCF trans       <10.5|DMZ|24.1>     0.005576468800 au =     0.014173041574 Debye
 !MCSCF trans        <11.5|DMZ|1.1>    -0.000393401802 au =    -0.000999862152 Debye
 !MCSCF trans        <11.5|DMZ|2.1>     0.066279601457 au =     0.168454909472 Debye
 !MCSCF trans        <11.5|DMZ|3.1>     0.000575253086 au =     0.001462051739 Debye
 !MCSCF trans        <11.5|DMZ|4.1>    -0.001579609539 au =    -0.004014704012 Debye
 !MCSCF trans        <11.5|DMZ|5.1>    -0.000040150022 au =    -0.000102044493 Debye
 !MCSCF trans        <11.5|DMZ|6.1>    -0.000001531154 au =    -0.000003891551 Debye
 !MCSCF trans        <11.5|DMZ|7.1>     0.001092417791 au =     0.002776467208 Debye
 !MCSCF trans        <11.5|DMZ|8.1>     0.000628373935 au =     0.001597062626 Debye
 !MCSCF trans        <11.5|DMZ|9.1>    -0.001511458915 au =    -0.003841493750 Debye
 !MCSCF trans       <11.5|DMZ|10.1>     0.073202083809 au =     0.186048952168 Debye
 !MCSCF trans       <11.5|DMZ|11.1>     0.021473919066 au =     0.054577683220 Debye
 !MCSCF trans       <11.5|DMZ|12.1>    -0.002812947855 au =    -0.007149332010 Debye
 !MCSCF trans       <11.5|DMZ|13.1>    -0.218728804757 au =    -0.555916755594 Debye
 !MCSCF trans       <11.5|DMZ|14.1>    -0.092937860709 au =    -0.236209008021 Debye
 !MCSCF trans       <11.5|DMZ|15.1>     0.008385306124 au =     0.021311926339 Debye
 !MCSCF trans       <11.5|DMZ|16.1>     0.001662297833 au =     0.004224862928 Debye
 !MCSCF trans       <11.5|DMZ|17.1>    -0.002270010517 au =    -0.005769413330 Debye
 !MCSCF trans       <11.5|DMZ|18.1>    -0.000688539769 au =    -0.001749978905 Debye
 !MCSCF trans       <11.5|DMZ|19.1>    -0.002332511268 au =    -0.005928263988 Debye
 !MCSCF trans       <11.5|DMZ|20.1>     0.001103884887 au =     0.002805611750 Debye
 !MCSCF trans       <11.5|DMZ|21.1>    -0.000307324121 au =    -0.000781088841 Debye
 !MCSCF trans       <11.5|DMZ|22.1>     0.001154006571 au =     0.002933000022 Debye
 !MCSCF trans       <11.5|DMZ|23.1>     0.001641080559 au =     0.004170937527 Debye
 !MCSCF trans       <11.5|DMZ|24.1>     0.024486046555 au =     0.062233246203 Debye
 !MCSCF trans         <1.6|DMZ|1.2>    -0.136658976454 au =    -0.347329721375 Debye
 !MCSCF trans         <1.6|DMZ|2.2>     0.074615743767 au =     0.189641882043 Debye
 !MCSCF trans         <1.6|DMZ|3.2>    -0.039277378571 au =    -0.099826599828 Debye
 !MCSCF trans         <1.6|DMZ|4.2>    -0.023189762050 au =    -0.058938635430 Debye
 !MCSCF trans         <1.6|DMZ|5.2>     0.045920607484 au =     0.116710897569 Debye
 !MCSCF trans         <1.6|DMZ|6.2>     0.000176907647 au =     0.000449624939 Debye
 !MCSCF trans         <1.6|DMZ|7.2>     0.001317866781 au =     0.003349463854 Debye
 !MCSCF trans         <1.6|DMZ|8.2>     0.000184619125 au =     0.000469224275 Debye
 !MCSCF trans         <1.6|DMZ|9.2>     0.175621236652 au =     0.446355422649 Debye
 !MCSCF trans        <1.6|DMZ|10.2>     0.092912838704 au =     0.236145412595 Debye
 !MCSCF trans        <1.6|DMZ|11.2>     0.002158116142 au =     0.005485024824 Debye
 !MCSCF trans         <2.6|DMZ|1.2>     0.131959189925 au =     0.335384837928 Debye
 !MCSCF trans         <2.6|DMZ|2.2>     0.007908384319 au =     0.020099791419 Debye
 !MCSCF trans         <2.6|DMZ|3.2>     0.080563398170 au =     0.204758321521 Debye
 !MCSCF trans         <2.6|DMZ|4.2>    -0.051046831239 au =    -0.129739605340 Debye
 !MCSCF trans         <2.6|DMZ|5.2>     0.024719333318 au =     0.062826163175 Debye
 !MCSCF trans         <2.6|DMZ|6.2>    -0.000237892938 au =    -0.000604623934 Debye
 !MCSCF trans         <2.6|DMZ|7.2>    -0.000879059345 au =    -0.002234199651 Debye
 !MCSCF trans         <2.6|DMZ|8.2>    -0.001049453604 au =    -0.002667270291 Debye
 !MCSCF trans         <2.6|DMZ|9.2>     0.021463787663 au =     0.054551933448 Debye
 !MCSCF trans        <2.6|DMZ|10.2>    -0.194116654462 au =    -0.493363006647 Debye
 !MCSCF trans        <2.6|DMZ|11.2>     0.000329740501 au =     0.000838061863 Debye
 !MCSCF trans         <3.6|DMZ|1.2>     0.122863205209 au =     0.312266665094 Debye
 !MCSCF trans         <3.6|DMZ|2.2>    -0.001706470877 au =    -0.004337132252 Debye
 !MCSCF trans         <3.6|DMZ|3.2>    -0.000216940586 au =    -0.000551371855 Debye
 !MCSCF trans         <3.6|DMZ|4.2>    -0.001014455541 au =    -0.002578319915 Debye
 !MCSCF trans         <3.6|DMZ|5.2>     0.000096789365 au =     0.000245997914 Debye
 !MCSCF trans         <3.6|DMZ|6.2>    -0.000598211808 au =    -0.001520403168 Debye
 !MCSCF trans         <3.6|DMZ|7.2>    -0.000457822420 au =    -0.001163592307 Debye
 !MCSCF trans         <3.6|DMZ|8.2>    -0.000013109859 au =    -0.000033319754 Debye
 !MCSCF trans         <3.6|DMZ|9.2>     0.000776528189 au =     0.001973608515 Debye
 !MCSCF trans        <3.6|DMZ|10.2>    -0.000602466168 au =    -0.001531215963 Debye
 !MCSCF trans        <3.6|DMZ|11.2>     0.052023810393 au =     0.132222676018 Debye
 !MCSCF trans         <4.6|DMZ|1.2>     0.215565588143 au =     0.547877187513 Debye
 !MCSCF trans         <4.6|DMZ|2.2>    -0.004508001553 au =    -0.011457446588 Debye
 !MCSCF trans         <4.6|DMZ|3.2>    -0.000139701510 au =    -0.000355062565 Debye
 !MCSCF trans         <4.6|DMZ|4.2>    -0.103630482847 au =    -0.263385162593 Debye
 !MCSCF trans         <4.6|DMZ|5.2>    -0.104943074797 au =    -0.266721220043 Debye
 !MCSCF trans         <4.6|DMZ|6.2>    -0.000514124669 au =    -0.001306688976 Debye
 !MCSCF trans         <4.6|DMZ|7.2>    -0.000285278445 au =    -0.000725057990 Debye
 !MCSCF trans         <4.6|DMZ|8.2>    -0.000168817106 au =    -0.000429062181 Debye
 !MCSCF trans         <4.6|DMZ|9.2>     0.000384883322 au =     0.000978211753 Debye
 !MCSCF trans        <4.6|DMZ|10.2>    -0.000297278062 au =    -0.000755555977 Debye
 !MCSCF trans        <4.6|DMZ|11.2>    -0.057984468379 au =    -0.147372165142 Debye
 !MCSCF trans         <5.6|DMZ|1.2>     0.003162016977 au =     0.008036519108 Debye
 !MCSCF trans         <5.6|DMZ|2.2>    -0.025497878554 au =    -0.064804898175 Debye
 !MCSCF trans         <5.6|DMZ|3.2>     0.191215868973 au =     0.485990428265 Debye
 !MCSCF trans         <5.6|DMZ|4.2>    -0.002459679543 au =    -0.006251472333 Debye
 !MCSCF trans         <5.6|DMZ|5.2>     0.001893567034 au =     0.004812652103 Debye
 !MCSCF trans         <5.6|DMZ|6.2>    -0.001917524606 au =    -0.004873542188 Debye
 !MCSCF trans         <5.6|DMZ|7.2>    -0.002855259583 au =    -0.007256870652 Debye
 !MCSCF trans         <5.6|DMZ|8.2>     0.000106058006 au =     0.000269554907 Debye
 !MCSCF trans         <5.6|DMZ|9.2>     0.045700201355 au =     0.116150717760 Debye
 !MCSCF trans        <5.6|DMZ|10.2>     0.310839127912 au =     0.790022510719 Debye
 !MCSCF trans        <5.6|DMZ|11.2>    -0.001339126008 au =    -0.003403495880 Debye
 !MCSCF trans         <6.6|DMZ|1.2>    -0.001265790113 au =    -0.003217106836 Debye
 !MCSCF trans         <6.6|DMZ|2.2>     0.026083191586 au =     0.066292518072 Debye
 !MCSCF trans         <6.6|DMZ|3.2>     0.106134679714 au =     0.269749779269 Debye
 !MCSCF trans         <6.6|DMZ|4.2>    -0.002575971682 au =    -0.006547038107 Debye
 !MCSCF trans         <6.6|DMZ|5.2>     0.002214598136 au =     0.005628578331 Debye
 !MCSCF trans         <6.6|DMZ|6.2>     0.004861401664 au =     0.012355641241 Debye
 !MCSCF trans         <6.6|DMZ|7.2>     0.005550014145 au =     0.014105804952 Debye
 !MCSCF trans         <6.6|DMZ|8.2>    -0.000770534024 au =    -0.001958373864 Debye
 !MCSCF trans         <6.6|DMZ|9.2>    -0.042017911585 au =    -0.106791883726 Debye
 !MCSCF trans        <6.6|DMZ|10.2>     0.171099224201 au =     0.434862366246 Debye
 !MCSCF trans        <6.6|DMZ|11.2>     0.002454291852 au =     0.006237779085 Debye
 !MCSCF trans         <7.6|DMZ|1.2>     0.000642818075 au =     0.001633773563 Debye
 !MCSCF trans         <7.6|DMZ|2.2>     0.194766281934 au =     0.495014086837 Debye
 !MCSCF trans         <7.6|DMZ|3.2>    -0.029668786284 au =    -0.075405593843 Debye
 !MCSCF trans         <7.6|DMZ|4.2>    -0.006047341861 au =    -0.015369803127 Debye
 !MCSCF trans         <7.6|DMZ|5.2>    -0.000918500619 au =    -0.002334442803 Debye
 !MCSCF trans         <7.6|DMZ|6.2>     0.001195944174 au =     0.003039587795 Debye
 !MCSCF trans         <7.6|DMZ|7.2>    -0.003745154868 au =    -0.009518610708 Debye
 !MCSCF trans         <7.6|DMZ|8.2>    -0.002554221211 au =    -0.006491757544 Debye
 !MCSCF trans         <7.6|DMZ|9.2>    -0.316946884441 au =    -0.805545862558 Debye
 !MCSCF trans        <7.6|DMZ|10.2>    -0.036703655853 au =    -0.093285277643 Debye
 !MCSCF trans        <7.6|DMZ|11.2>     0.000033281622 au =     0.000084587905 Debye
 !MCSCF trans         <8.6|DMZ|1.2>     0.162860063952 au =     0.413921881339 Debye
 !MCSCF trans         <8.6|DMZ|2.2>    -0.006916103954 au =    -0.017577831487 Debye
 !MCSCF trans         <8.6|DMZ|3.2>    -0.007028346754 au =    -0.017863105544 Debye
 !MCSCF trans         <8.6|DMZ|4.2>    -0.018308486915 au =    -0.046532484173 Debye
 !MCSCF trans         <8.6|DMZ|5.2>     0.011001955839 au =     0.027962350921 Debye
 !MCSCF trans         <8.6|DMZ|6.2>    -0.000595262801 au =    -0.001512908031 Debye
 !MCSCF trans         <8.6|DMZ|7.2>     0.001413454327 au =     0.003592407247 Debye
 !MCSCF trans         <8.6|DMZ|8.2>     0.000152184254 au =     0.000386788457 Debye
 !MCSCF trans         <8.6|DMZ|9.2>    -0.005123259562 au =    -0.013021174037 Debye
 !MCSCF trans        <8.6|DMZ|10.2>     0.003306673826 au =     0.008404176062 Debye
 !MCSCF trans        <8.6|DMZ|11.2>    -0.060060901946 au =    -0.152649587169 Debye
 !MCSCF trans         <9.6|DMZ|1.2>     0.051724862259 au =     0.131462875421 Debye
 !MCSCF trans         <9.6|DMZ|2.2>     0.010257558926 au =     0.026070406614 Debye
 !MCSCF trans         <9.6|DMZ|3.2>     0.084410634667 au =     0.214536380856 Debye
 !MCSCF trans         <9.6|DMZ|4.2>     0.167045193513 au =     0.424558722929 Debye
 !MCSCF trans         <9.6|DMZ|5.2>    -0.076798660192 au =    -0.195189938770 Debye
 !MCSCF trans         <9.6|DMZ|6.2>    -0.000433876500 au =    -0.001102731835 Debye
 !MCSCF trans         <9.6|DMZ|7.2>    -0.000024010938 au =    -0.000061025721 Debye
 !MCSCF trans         <9.6|DMZ|8.2>    -0.002614314691 au =    -0.006644489932 Debye
 !MCSCF trans         <9.6|DMZ|9.2>    -0.005581628723 au =    -0.014186155930 Debye
 !MCSCF trans        <9.6|DMZ|10.2>    -0.138515916041 au =    -0.352049281892 Debye
 !MCSCF trans        <9.6|DMZ|11.2>    -0.004058183316 au =    -0.010314197552 Debye
 !MCSCF trans        <10.6|DMZ|1.2>     0.025625811733 au =     0.065130050585 Debye
 !MCSCF trans        <10.6|DMZ|2.2>    -0.068313173114 au =    -0.173623394523 Debye
 !MCSCF trans        <10.6|DMZ|3.2>     0.031018218950 au =     0.078835284919 Debye
 !MCSCF trans        <10.6|DMZ|4.2>    -0.099438254899 au =    -0.252730279885 Debye
 !MCSCF trans        <10.6|DMZ|5.2>     0.179154396757 au =     0.455335231709 Debye
 !MCSCF trans        <10.6|DMZ|6.2>    -0.001042511080 au =    -0.002649625312 Debye
 !MCSCF trans        <10.6|DMZ|7.2>    -0.000354709763 au =    -0.000901523241 Debye
 !MCSCF trans        <10.6|DMZ|8.2>    -0.000241974389 au =    -0.000614997268 Debye

 ERROR: TOO MANY VARIABLE VALUES. THIS VERSION ALLOWS: 21200
