 Entering Gaussian System, Link 0=g16
 Initial command:
 /home1/apps/gaussian/16rA.03/g16/l1.exe "/tmp/Gau-7066.inp" -scrdir="/tmp/"
 Entering Link 1 = /home1/apps/gaussian/16rA.03/g16/l1.exe PID=      7067.
  
 Copyright (c) 1988,1990,1992,1993,1995,1998,2003,2009,2016,
            Gaussian, Inc.  All Rights Reserved.
  
 This is part of the Gaussian(R) 16 program.  It is based on
 the Gaussian(R) 09 system (copyright 2009, Gaussian, Inc.),
 the Gaussian(R) 03 system (copyright 2003, Gaussian, Inc.),
 the Gaussian(R) 98 system (copyright 1998, Gaussian, Inc.),
 the Gaussian(R) 94 system (copyright 1995, Gaussian, Inc.),
 the Gaussian 92(TM) system (copyright 1992, Gaussian, Inc.),
 the Gaussian 90(TM) system (copyright 1990, Gaussian, Inc.),
 the Gaussian 88(TM) system (copyright 1988, Gaussian, Inc.),
 the Gaussian 86(TM) system (copyright 1986, Carnegie Mellon
 University), and the Gaussian 82(TM) system (copyright 1983,
 Carnegie Mellon University). Gaussian is a federally registered
 trademark of Gaussian, Inc.
  
 This software contains proprietary and confidential information,
 including trade secrets, belonging to Gaussian, Inc.
  
 This software is provided under written license and may be
 used, copied, transmitted, or stored only in accord with that
 written license.
  
 The following legend is applicable only to US Government
 contracts under FAR:
  
                    RESTRICTED RIGHTS LEGEND
  
 Use, reproduction and disclosure by the US Government is
 subject to restrictions as set forth in subparagraphs (a)
 and (c) of the Commercial Computer Software - Restricted
 Rights clause in FAR 52.227-19.
  
 Gaussian, Inc.
 340 Quinnipiac St., Bldg. 40, Wallingford CT 06492
  
  
 ---------------------------------------------------------------
 Warning -- This program may not be used in any manner that
 competes with the business of Gaussian, Inc. or will provide
 assistance to any competitor of Gaussian, Inc.  The licensee
 of this program is prohibited from giving any competitor of
 Gaussian, Inc. access to this program.  By using this program,
 the user acknowledges that Gaussian, Inc. is engaged in the
 business of creating and licensing software in the field of
 computational chemistry and represents and warrants to the
 licensee that it is not a competitor of Gaussian, Inc. and that
 it will not use this program in any manner prohibited above.
 ---------------------------------------------------------------
  

 Cite this work as:
 Gaussian 16, Revision A.03,
 M. J. Frisch, G. W. Trucks, H. B. Schlegel, G. E. Scuseria, 
 M. A. Robb, J. R. Cheeseman, G. Scalmani, V. Barone, 
 G. A. Petersson, H. Nakatsuji, X. Li, M. Caricato, A. V. Marenich, 
 J. Bloino, B. G. Janesko, R. Gomperts, B. Mennucci, H. P. Hratchian, 
 J. V. Ortiz, A. F. Izmaylov, J. L. Sonnenberg, D. Williams-Young, 
 F. Ding, F. Lipparini, F. Egidi, J. Goings, B. Peng, A. Petrone, 
 T. Henderson, D. Ranasinghe, V. G. Zakrzewski, J. Gao, N. Rega, 
 G. Zheng, W. Liang, M. Hada, M. Ehara, K. Toyota, R. Fukuda, 
 J. Hasegawa, M. Ishida, T. Nakajima, Y. Honda, O. Kitao, H. Nakai, 
 T. Vreven, K. Throssell, J. A. Montgomery, Jr., J. E. Peralta, 
 F. Ogliaro, M. J. Bearpark, J. J. Heyd, E. N. Brothers, K. N. Kudin, 
 V. N. Staroverov, T. A. Keith, R. Kobayashi, J. Normand, 
 K. Raghavachari, A. P. Rendell, J. C. Burant, S. S. Iyengar, 
 J. Tomasi, M. Cossi, J. M. Millam, M. Klene, C. Adamo, R. Cammi, 
 J. W. Ochterski, R. L. Martin, K. Morokuma, O. Farkas, 
 J. B. Foresman, and D. J. Fox, Gaussian, Inc., Wallingford CT, 2016.
 
 ******************************************
 Gaussian 16:  ES64L-G16RevA.03 25-Dec-2016
                 5-Apr-2018 
 ******************************************
 %MEM=80GB
 %CPU=0-19
 SetSPE:  set environment variable "MP_BIND" = "yes"
 SetSPE:  set environment variable "MP_BLIST" = "0,1,2,3,4,5,6,7,8,9,10,11,12,13,14,15,16,17,18,19"
 Will use up to   20 processors via shared memory.
 %RWF=/scratch/04843/aannabe/gaussian/
 %Int=/scratch/04843/aannabe/gaussian/
 %D2E=/scratch/04843/aannabe/gaussian/
 %NoSave
 %CHK=Cr
 ----------------------------------------------------------------------
 #P ROCCSD(T)=(maxcyc=150, Full)/Gen 5d 7f SCF=(maxcycles=300, NoVarAcc
 , VShift=300) MaxDisk=100GB Pop=Regular Pseudo=Read Guess=Read IOp(5/1
 5=2)
 ----------------------------------------------------------------------
 1/38=1,172=1/1;
 2/12=2,17=6,18=5,40=1/2;
 3/5=7,8=11,11=2,16=1,17=8,25=1,30=1,116=101/1,2,3;
 4/5=1/1;
 5/5=2,7=300,10=300,15=2,38=6/2;
 8/5=-1,6=4,9=120000,10=90/1,4;
 9/5=7,6=150,14=2/13;
 6//1;
 99/5=1,9=1/99;
 Leave Link    1 at Thu Apr  5 17:35:57 2018, MaxMem= 10737418240 cpu:               4.9 elap:               0.3
 (Enter /home1/apps/gaussian/16rA.03/g16/l101.exe)
 --
 Cr
 --
 Symbolic Z-matrix:
 Charge =  0 Multiplicity = 7
 Cr                    0.        0.        0. 
 
 ITRead=  0
 MicOpt= -1
 NAtoms=      1 NQM=        1 NQMF=       0 NMMI=      0 NMMIF=      0
                NMic=       0 NMicF=      0.
                    Isotopes and Nuclear Properties:
 (Nuclear quadrupole moments (NQMom) in fm**2, nuclear magnetic moments (NMagM)
  in nuclear magnetons)

  Atom         1
 IAtWgt=          52
 AtmWgt=  51.9405097
 NucSpn=           0
 AtZEff=  -0.0000000
 NQMom=    0.0000000
 NMagM=    0.0000000
 AtZNuc=  24.0000000
 Leave Link  101 at Thu Apr  5 17:35:57 2018, MaxMem= 10737418240 cpu:               1.8 elap:               0.1
 (Enter /home1/apps/gaussian/16rA.03/g16/l202.exe)
                          Input orientation:                          
 ---------------------------------------------------------------------
 Center     Atomic      Atomic             Coordinates (Angstroms)
 Number     Number       Type             X           Y           Z
 ---------------------------------------------------------------------
      1         24           0        0.000000    0.000000    0.000000
 ---------------------------------------------------------------------
 Stoichiometry    Cr(7)
 Framework group  OH[O(Cr)]
 Deg. of freedom     0
 Full point group                 OH      NOp  48
 Largest Abelian subgroup         D2H     NOp   8
 Largest concise Abelian subgroup C1      NOp   1
                         Standard orientation:                         
 ---------------------------------------------------------------------
 Center     Atomic      Atomic             Coordinates (Angstroms)
 Number     Number       Type             X           Y           Z
 ---------------------------------------------------------------------
      1         24           0        0.000000    0.000000    0.000000
 ---------------------------------------------------------------------
 Leave Link  202 at Thu Apr  5 17:35:57 2018, MaxMem= 10737418240 cpu:               0.7 elap:               0.1
 (Enter /home1/apps/gaussian/16rA.03/g16/l301.exe)
 General basis read from cards:  (5D, 7F)
 Centers:       1
 S 1 1.00
     Exponent=  1.0607000000D+04 Coefficients=  1.0000000000D+00
 S 1 1.00
     Exponent=  4.8230800000D+03 Coefficients=  1.0000000000D+00
 S 1 1.00
     Exponent=  2.2740800000D+03 Coefficients=  1.0000000000D+00
 S 1 1.00
     Exponent=  1.1045400000D+03 Coefficients=  1.0000000000D+00
 S 1 1.00
     Exponent=  5.5009900000D+02 Coefficients=  1.0000000000D+00
 S 1 1.00
     Exponent=  2.8001000000D+02 Coefficients=  1.0000000000D+00
 S 1 1.00
     Exponent=  1.4533000000D+02 Coefficients=  1.0000000000D+00
 S 1 1.00
     Exponent=  7.6755100000D+01 Coefficients=  1.0000000000D+00
 S 1 1.00
     Exponent=  4.1159400000D+01 Coefficients=  1.0000000000D+00
 S 1 1.00
     Exponent=  2.2344500000D+01 Coefficients=  1.0000000000D+00
 S 1 1.00
     Exponent=  1.2229300000D+01 Coefficients=  1.0000000000D+00
 S 1 1.00
     Exponent=  6.7077700000D+00 Coefficients=  1.0000000000D+00
 S 1 1.00
     Exponent=  3.6569400000D+00 Coefficients=  1.0000000000D+00
 S 1 1.00
     Exponent=  1.9597800000D+00 Coefficients=  1.0000000000D+00
 S 1 1.00
     Exponent=  1.0175800000D+00 Coefficients=  1.0000000000D+00
 S 1 1.00
     Exponent=  5.1291300000D-01 Coefficients=  1.0000000000D+00
 S 1 1.00
     Exponent=  1.9479800000D-01 Coefficients=  1.0000000000D+00
 S 1 1.00
     Exponent=  1.1096900000D-01 Coefficients=  1.0000000000D+00
 S 1 1.00
     Exponent=  5.2123000000D-02 Coefficients=  1.0000000000D+00
 S 1 1.00
     Exponent=  2.4489000000D-02 Coefficients=  1.0000000000D+00
 S 1 1.00
     Exponent=  5.2776000000D+00 Coefficients=  1.0000000000D+00
 S 1 1.00
     Exponent=  1.7542000000D+00 Coefficients=  1.0000000000D+00
 S 1 1.00
     Exponent=  1.1510000000D-02 Coefficients=  1.0000000000D+00
 P 1 1.00
     Exponent=  5.6782800000D+03 Coefficients=  1.0000000000D+00
 P 1 1.00
     Exponent=  2.1387500000D+03 Coefficients=  1.0000000000D+00
 P 1 1.00
     Exponent=  9.0585500000D+02 Coefficients=  1.0000000000D+00
 P 1 1.00
     Exponent=  4.1564500000D+02 Coefficients=  1.0000000000D+00
 P 1 1.00
     Exponent=  2.0169500000D+02 Coefficients=  1.0000000000D+00
 P 1 1.00
     Exponent=  1.0204000000D+02 Coefficients=  1.0000000000D+00
 P 1 1.00
     Exponent=  5.3395500000D+01 Coefficients=  1.0000000000D+00
 P 1 1.00
     Exponent=  2.8757000000D+01 Coefficients=  1.0000000000D+00
 P 1 1.00
     Exponent=  1.5853600000D+01 Coefficients=  1.0000000000D+00
 P 1 1.00
     Exponent=  8.8638500000D+00 Coefficients=  1.0000000000D+00
 P 1 1.00
     Exponent=  4.9433400000D+00 Coefficients=  1.0000000000D+00
 P 1 1.00
     Exponent=  2.6973200000D+00 Coefficients=  1.0000000000D+00
 P 1 1.00
     Exponent=  1.4364300000D+00 Coefficients=  1.0000000000D+00
 P 1 1.00
     Exponent=  7.4851800000D-01 Coefficients=  1.0000000000D+00
 P 1 1.00
     Exponent=  3.7331000000D-01 Coefficients=  1.0000000000D+00
 P 1 1.00
     Exponent=  1.5774600000D-01 Coefficients=  1.0000000000D+00
 P 1 1.00
     Exponent=  6.7445000000D-02 Coefficients=  1.0000000000D+00
 P 1 1.00
     Exponent=  2.8549000000D-02 Coefficients=  1.0000000000D+00
 P 1 1.00
     Exponent=  7.7063000000D+00 Coefficients=  1.0000000000D+00
 P 1 1.00
     Exponent=  2.2690000000D+00 Coefficients=  1.0000000000D+00
 P 1 1.00
     Exponent=  1.2080000000D-02 Coefficients=  1.0000000000D+00
 D 1 1.00
     Exponent=  4.0862300000D+02 Coefficients=  1.0000000000D+00
 D 1 1.00
     Exponent=  1.2076100000D+02 Coefficients=  1.0000000000D+00
 D 1 1.00
     Exponent=  4.6446000000D+01 Coefficients=  1.0000000000D+00
 D 1 1.00
     Exponent=  2.0239000000D+01 Coefficients=  1.0000000000D+00
 D 1 1.00
     Exponent=  9.3638100000D+00 Coefficients=  1.0000000000D+00
 D 1 1.00
     Exponent=  4.5309400000D+00 Coefficients=  1.0000000000D+00
 D 1 1.00
     Exponent=  2.2314000000D+00 Coefficients=  1.0000000000D+00
 D 1 1.00
     Exponent=  1.0877600000D+00 Coefficients=  1.0000000000D+00
 D 1 1.00
     Exponent=  5.1738400000D-01 Coefficients=  1.0000000000D+00
 D 1 1.00
     Exponent=  2.3716400000D-01 Coefficients=  1.0000000000D+00
 D 1 1.00
     Exponent=  1.0330800000D-01 Coefficients=  1.0000000000D+00
 D 1 1.00
     Exponent=  4.1448000000D-02 Coefficients=  1.0000000000D+00
 D 1 1.00
     Exponent=  5.1967000000D+00 Coefficients=  1.0000000000D+00
 D 1 1.00
     Exponent=  3.1194000000D+00 Coefficients=  1.0000000000D+00
 D 1 1.00
     Exponent=  1.6630000000D-02 Coefficients=  1.0000000000D+00
 F 1 1.00
     Exponent=  8.1276000000D+00 Coefficients=  1.0000000000D+00
 F 1 1.00
     Exponent=  3.5260000000D+00 Coefficients=  1.0000000000D+00
 F 1 1.00
     Exponent=  1.5297000000D+00 Coefficients=  1.0000000000D+00
 F 1 1.00
     Exponent=  6.6360000000D-01 Coefficients=  1.0000000000D+00
 F 1 1.00
     Exponent=  2.1580000000D-01 Coefficients=  1.0000000000D+00
 F 1 1.00
     Exponent=  7.0180000000D-02 Coefficients=  1.0000000000D+00
 G 1 1.00
     Exponent=  5.5422000000D+00 Coefficients=  1.0000000000D+00
 G 1 1.00
     Exponent=  2.6311000000D+00 Coefficients=  1.0000000000D+00
 G 1 1.00
     Exponent=  1.2491000000D+00 Coefficients=  1.0000000000D+00
 G 1 1.00
     Exponent=  4.2650000000D-01 Coefficients=  1.0000000000D+00
 G 1 1.00
     Exponent=  1.4563000000D-01 Coefficients=  1.0000000000D+00
 H 1 1.00
     Exponent=  5.1778000000D+00 Coefficients=  1.0000000000D+00
 H 1 1.00
     Exponent=  2.3419000000D+00 Coefficients=  1.0000000000D+00
 H 1 1.00
     Exponent=  8.6610000000D-01 Coefficients=  1.0000000000D+00
 H 1 1.00
     Exponent=  3.2031000000D-01 Coefficients=  1.0000000000D+00
 I 1 1.00
     Exponent=  5.1719000000D+00 Coefficients=  1.0000000000D+00
 I 1 1.00
     Exponent=  2.0805000000D+00 Coefficients=  1.0000000000D+00
 I 1 1.00
     Exponent=  8.3692000000D-01 Coefficients=  1.0000000000D+00
 ****
 ======================================================================================================
                                       Pseudopotential Parameters
 ======================================================================================================
  Center     Atomic      Valence      Angular      Power
  Number     Number     Electrons     Momentum     of R      Exponent        Coefficient   SO-Coeffient
 ======================================================================================================
    1         24           14
                                      D and up 
                                                     1       17.2876582       14.00000000    0.00000000
                                                     3       17.3786577      242.02721417    0.00000000
                                                     2       16.8819251     -132.23096913    0.00000000
                                                     2        5.2169635       -0.38905464    0.00000000
                                      S - D
                                                     2       16.6730276      219.47992344    0.00000000
                                                     2        7.6079180       28.22489494    0.00000000
                                      P - D
                                                     2       16.2836788      140.07443386    0.00000000
                                                     2        7.5042280       19.63822738    0.00000000
 ======================================================================================================
 Ernie: Thresh=  0.10000D-02 Tol=  0.10000D-05 Strict=F.
 There are   128 symmetry adapted cartesian basis functions of AG  symmetry.
 There are    48 symmetry adapted cartesian basis functions of B1G symmetry.
 There are    48 symmetry adapted cartesian basis functions of B2G symmetry.
 There are    48 symmetry adapted cartesian basis functions of B3G symmetry.
 There are    18 symmetry adapted cartesian basis functions of AU  symmetry.
 There are    63 symmetry adapted cartesian basis functions of B1U symmetry.
 There are    63 symmetry adapted cartesian basis functions of B2U symmetry.
 There are    63 symmetry adapted cartesian basis functions of B3U symmetry.
 There are    80 symmetry adapted basis functions of AG  symmetry.
 There are    34 symmetry adapted basis functions of B1G symmetry.
 There are    34 symmetry adapted basis functions of B2G symmetry.
 There are    34 symmetry adapted basis functions of B3G symmetry.
 There are    14 symmetry adapted basis functions of AU  symmetry.
 There are    45 symmetry adapted basis functions of B1U symmetry.
 There are    45 symmetry adapted basis functions of B2U symmetry.
 There are    45 symmetry adapted basis functions of B3U symmetry.
   331 basis functions,   479 primitive gaussians,   479 cartesian basis functions
    10 alpha electrons        4 beta electrons
       nuclear repulsion energy         0.0000000000 Hartrees.
 IExCor=    0 DFT=F Ex=HF Corr=None ExCW=0 ScaHFX=  1.000000
 ScaDFX=  1.000000  1.000000  1.000000  1.000000 ScalE2=  1.000000  1.000000
 IRadAn=      5 IRanWt=     -1 IRanGd=            0 ICorTp=0 IEmpDi=  4
 NAtoms=    1 NActive=    1 NUniq=    1 SFac= 1.00D+00 NAtFMM=   60 NAOKFM=F Big=F
 Integral buffers will be    131072 words long.
 Raffenetti 2 integral format.
 Two-electron integral symmetry is turned on.
 Leave Link  301 at Thu Apr  5 17:35:57 2018, MaxMem= 10737418240 cpu:               4.7 elap:               0.3
 (Enter /home1/apps/gaussian/16rA.03/g16/l302.exe)
 NPDir=0 NMtPBC=     1 NCelOv=     1 NCel=       1 NClECP=     1 NCelD=      1
         NCelK=      1 NCelE2=     1 NClLst=     1 CellRange=     0.0.
 One-electron integrals computed using PRISM.
 One-electron integral symmetry used in STVInt
  48 Symmetry operations used in ECPInt.
 ECPInt:  NShTT=    3003 NPrTT=    3003 LenC2=    3004 LenP2D=    3003.
 LDataN:  DoStor=T MaxTD1=12 Len= 1566
 NBasis=   331 RedAO= T EigKep=  1.37D-06  NBF=    80    34    34    34    14    45    45    45
 NBsUse=   327 1.00D-06 EigRej=  5.30D-07 NBFU=    79    34    34    34    14    44    44    44
 Leave Link  302 at Thu Apr  5 17:36:28 2018, MaxMem= 10737418240 cpu:             609.9 elap:              30.5
 (Enter /home1/apps/gaussian/16rA.03/g16/l303.exe)
 DipDrv:  MaxL=1.
 Leave Link  303 at Thu Apr  5 17:36:28 2018, MaxMem= 10737418240 cpu:               2.3 elap:               0.2
 (Enter /home1/apps/gaussian/16rA.03/g16/l401.exe)
 Initial guess from the checkpoint file:  "Cr.chk"
 B after Tr=     0.000000    0.000000    0.000000
         Rot=    1.000000    0.000000    0.000000    0.000000 Ang=   0.00 deg.
 Guess basis will be translated and rotated to current coordinates.
 JPrj=2 DoOrth=T DoCkMO=T.
 Initial guess orbital symmetries:
       Occupied  (A1G) (T1U) (T1U) (T1U) (A1G) (EG) (T2G) (T2G)
                 (T2G) (EG)
       Virtual   (T1U) (T1U) (T1U) (A1G) (T1U) (T1U) (T1U) (T2G)
                 (EG) (EG) (T2G) (T2G) (A1G) (T1U) (T1U) (T1U)
                 (EG) (EG) (T2G) (T2G) (T2G) (A2U) (?A) (?A) (?A)
                 (?A) (?A) (?A) (T1U) (T1U) (T1U) (EG) (T2G) (EG)
                 (T2G) (T2G) (A1G) (?A) (?A) (?A) (A2U) (?A) (?A)
                 (?A) (?B) (?B) (?B) (T2G) (T2G) (?B) (?B) (T2G)
                 (?B) (T1U) (T1U) (T1U) (EG) (EG) (T2G) (T2G) (T2G)
                 (?A) (?A) (?A) (?A) (?A) (?A) (A2U) (A1G) (T1U)
                 (T1U) (T1U) (?B) (T2G) (?B) (?B) (T2G) (?B) (?B)
                 (T2G) (?B) (EG) (T2G) (T2G) (T2G) (EG) (?A) (?A)
                 (?A) (A2U) (?A) (?A) (?A) (T1U) (T1U) (T1U) (A1G)
                 (T2G) (EG) (EG) (T2G) (T2G) (?B) (T2G) (?B) (?B)
                 (T2G) (?B) (T2G) (?B) (?B) (T1U) (T1U) (T1U) (T2G)
                 (EG) (T2G) (EG) (T2G) (A1G) (T1U) (T1U) (T1U)
                 (A1G) (T2G) (EG) (T2G) (T2G) (EG) (T1U) (T1U)
                 (T1U) (A1G) (T1U) (T1U) (T1U) (A1G) (T2G) (EG)
                 (EG) (T2G) (T2G) (T1U) (T1U) (T1U) (A1G) (T1U)
                 (T1U) (T1U) (A1G) (T1U) (T1U) (T1U) (A1G) (A1G)
                 (T1U) (T1U) (T1U) (A1G) (T1U) (T1U) (T1U) (A1G)
                 (T1U) (T1U) (T1U) (A1G) (A1G) (EG) (EG) (EG) (EG)
                 (T2G) (T2G) (T2G) (?C) (?C) (?C) (?C) (T2G) (T2G)
                 (T2G) (EG) (EG) (?C) (?C) (?C) (?C) (A1G) (EG)
                 (EG) (EG) (EG) (?C) (?C) (?C) (?C) (A1G) (A1G)
                 (T2G) (T2G) (?B) (?B) (?D) (?D) (?D) (?B) (?B)
                 (T2G) (?E) (?E) (?E) (T2G) (T2G) (?F) (?F) (?F)
                 (T2G) (T2G) (?B) (?B) (?D) (?D) (?D) (?B) (?B)
                 (T2G) (?E) (?E) (?E) (T2G) (T2G) (?F) (?F) (?F)
                 (T2G) (T2G) (?B) (?B) (?D) (?D) (?D) (?B) (?B)
                 (T2G) (?E) (?E) (?E) (T2G) (T2G) (?F) (?F) (?F)
                 (A2U) (EU) (EU) (A2U) (EU) (EU) (EU) (EU) (EU)
                 (EU) (?A) (?A) (?F) (?F) (?F) (?A) (?A) (?F) (?F)
                 (?F) (?F) (?F) (?F) (?F) (?F) (?F) (T1U) (T1U)
                 (?A) (?A) (?F) (?F) (?F) (?A) (?A) (?F) (?F) (?F)
                 (?F) (?F) (?F) (?F) (?F) (?F) (T1U) (T1U) (?A)
                 (?A) (?F) (?F) (?F) (?A) (?A) (?F) (?F) (?F) (?F)
                 (?F) (?F) (?F) (?F) (?F) (T1U) (T1U)
 The electronic state of the initial guess is 7-A1G.
 Leave Link  401 at Thu Apr  5 17:36:30 2018, MaxMem= 10737418240 cpu:              22.5 elap:               1.3
 (Enter /home1/apps/gaussian/16rA.03/g16/l502.exe)
 Keep R1 and R2 ints in memory in symmetry-blocked form, NReq=1746652465.
 FoFCou: FMM=F IPFlag=           0 FMFlag=           0 FMFlg1=           0
         NFxFlg=           0 DoJE=F BraDBF=F KetDBF=F FulRan=T
         wScrn=  0.000000 ICntrl=       600 IOpCl=  0 I1Cent=           0 NGrid=           0
         NMat0=    1 NMatS0=  54946 NMatT0=    0 NMatD0=    1 NMtDS0=    0 NMtDT0=    0
 Petite list used in FoFCou.
 Restricted open shell SCF:
 Using DIIS extrapolation, IDIIS=  1040.
 NGot= 10737418240 LenX= 10355589355 LenY= 10355359435
 Requested convergence on RMS density matrix=1.00D-08 within 300 cycles.
 Requested convergence on MAX density matrix=1.00D-06.
 Requested convergence on             energy=1.00D-06.
 Virtual orbitals will be shifted by   0.300 hartree.
 No special actions if energy rises.

 Cycle   1  Pass 1  IDiag  1:
 Density matrix breaks symmetry, PCut= 1.00D-07
 Density has only Abelian symmetry.
 E= -85.8291282645469    
 DIIS: error= 7.61D-02 at cycle   1 NSaved=   1.
 NSaved= 1 IEnMin= 1 EnMin= -85.8291282645469     IErMin= 1 ErrMin= 7.61D-02
 ErrMax= 7.61D-02  0.00D+00 EMaxC= 1.00D-01 BMatC= 8.18D-01 BMatP= 8.18D-01
 IDIUse=3 WtCom= 2.39D-01 WtEn= 7.61D-01
 Coeff-Com:  0.100D+01
 Coeff-En:   0.100D+01
 Coeff:      0.100D+01
 Gap=    -0.015 Goal=   None    Shift=    0.300
 GapD=   -0.015 DampG=0.250 DampE=0.250 DampFc=0.1250 IDamp=-1.
 Damping current iteration by 1.25D-01
 RMSDP=7.22D-04 MaxDP=5.45D-02              OVMax= 8.53D-03

 Cycle   2  Pass 1  IDiag  1:
 Density matrix breaks symmetry, PCut= 1.00D-07
 Density has only Abelian symmetry.
 E= -85.8305040266721     Delta-E=       -0.001375762125 Rises=F Damp=T
 DIIS: error= 6.66D-02 at cycle   2 NSaved=   2.
 NSaved= 2 IEnMin= 2 EnMin= -85.8305040266721     IErMin= 2 ErrMin= 6.66D-02
 ErrMax= 6.66D-02  0.00D+00 EMaxC= 1.00D-01 BMatC= 6.25D-01 BMatP= 8.18D-01
 IDIUse=3 WtCom= 3.34D-01 WtEn= 6.66D-01
 Coeff-Com: -0.690D+01 0.790D+01
 Coeff-En:   0.000D+00 0.100D+01
 Coeff:     -0.230D+01 0.330D+01
 Gap=    -0.009 Goal=   None    Shift=    0.300
 DSYEVD-2 returned Info=          69 IAlg= 4 N=    34 NDim=   327 NE2=    31667764 trying  DSYEV.
 RMSDP=6.44D-04 MaxDP=4.33D-02 DE=-1.38D-03 OVMax= 1.33D-02

 Cycle   3  Pass 1  IDiag  1:
 Density matrix breaks symmetry, PCut= 1.00D-07
 Density has only Abelian symmetry.
 E= -85.8399792543497     Delta-E=       -0.009475227678 Rises=F Damp=F
 DIIS: error= 2.44D-03 at cycle   3 NSaved=   3.
 NSaved= 3 IEnMin= 3 EnMin= -85.8399792543497     IErMin= 3 ErrMin= 2.44D-03
 ErrMax= 2.44D-03  0.00D+00 EMaxC= 1.00D-01 BMatC= 4.58D-04 BMatP= 6.25D-01
 IDIUse=3 WtCom= 9.76D-01 WtEn= 2.44D-02
 Coeff-Com: -0.147D+01 0.167D+01 0.797D+00
 Coeff-En:   0.000D+00 0.000D+00 0.100D+01
 Coeff:     -0.143D+01 0.163D+01 0.802D+00
 Gap=    -0.011 Goal=   None    Shift=    0.300
 RMSDP=5.78D-05 MaxDP=9.87D-03 DE=-9.48D-03 OVMax= 2.11D-03

 Cycle   4  Pass 1  IDiag  1:
 Density matrix breaks symmetry, PCut= 1.00D-07
 Density has only Abelian symmetry.
 E= -85.8400720311590     Delta-E=       -0.000092776809 Rises=F Damp=F
 DIIS: error= 1.39D-03 at cycle   4 NSaved=   4.
 NSaved= 4 IEnMin= 4 EnMin= -85.8400720311590     IErMin= 4 ErrMin= 1.39D-03
 ErrMax= 1.39D-03  0.00D+00 EMaxC= 1.00D-01 BMatC= 1.70D-04 BMatP= 4.58D-04
 IDIUse=3 WtCom= 9.86D-01 WtEn= 1.39D-02
 Coeff-Com: -0.105D+01 0.120D+01-0.362D+00 0.121D+01
 Coeff-En:   0.000D+00 0.000D+00 0.000D+00 0.100D+01
 Coeff:     -0.103D+01 0.118D+01-0.357D+00 0.121D+01
 Gap=    -0.012 Goal=   None    Shift=    0.300
 RMSDP=3.75D-05 MaxDP=8.46D-03 DE=-9.28D-05 OVMax= 1.82D-03

 Cycle   5  Pass 1  IDiag  1:
 Density matrix breaks symmetry, PCut= 1.00D-07
 Density has only Abelian symmetry.
 E= -85.8401467219387     Delta-E=       -0.000074690780 Rises=F Damp=F
 DIIS: error= 9.99D-04 at cycle   5 NSaved=   5.
 NSaved= 5 IEnMin= 5 EnMin= -85.8401467219387     IErMin= 5 ErrMin= 9.99D-04
 ErrMax= 9.99D-04  0.00D+00 EMaxC= 1.00D-01 BMatC= 7.36D-05 BMatP= 1.70D-04
 IDIUse=3 WtCom= 9.90D-01 WtEn= 9.99D-03
 Coeff-Com: -0.953D+00 0.109D+01-0.333D+00 0.955D+00 0.241D+00
 Coeff-En:   0.000D+00 0.000D+00 0.000D+00 0.000D+00 0.100D+01
 Coeff:     -0.944D+00 0.108D+01-0.329D+00 0.946D+00 0.248D+00
 Gap=    -0.012 Goal=   None    Shift=    0.300
 RMSDP=2.19D-05 MaxDP=4.84D-03 DE=-7.47D-05 OVMax= 1.48D-03

 Cycle   6  Pass 1  IDiag  1:
 Density matrix breaks symmetry, PCut= 1.00D-07
 Density has only Abelian symmetry.
 E= -85.8401808160473     Delta-E=       -0.000034094109 Rises=F Damp=F
 DIIS: error= 8.41D-04 at cycle   6 NSaved=   6.
 NSaved= 6 IEnMin= 6 EnMin= -85.8401808160473     IErMin= 6 ErrMin= 8.41D-04
 ErrMax= 8.41D-04  0.00D+00 EMaxC= 1.00D-01 BMatC= 4.86D-05 BMatP= 7.36D-05
 IDIUse=3 WtCom= 9.92D-01 WtEn= 8.41D-03
 Coeff-Com: -0.667D+00 0.763D+00-0.304D+00 0.109D+01-0.214D+01 0.226D+01
 Coeff-En:   0.000D+00 0.000D+00 0.000D+00 0.000D+00 0.000D+00 0.100D+01
 Coeff:     -0.661D+00 0.756D+00-0.301D+00 0.108D+01-0.212D+01 0.225D+01
 Gap=    -0.011 Goal=   None    Shift=    0.300
 RMSDP=2.01D-05 MaxDP=4.71D-03 DE=-3.41D-05 OVMax= 7.12D-04

 Cycle   7  Pass 1  IDiag  1:
 Density matrix breaks symmetry, PCut= 1.00D-07
 Density has only Abelian symmetry.
 E= -85.8401916374046     Delta-E=       -0.000010821357 Rises=F Damp=F
 DIIS: error= 6.52D-04 at cycle   7 NSaved=   7.
 NSaved= 7 IEnMin= 7 EnMin= -85.8401916374046     IErMin= 7 ErrMin= 6.52D-04
 ErrMax= 6.52D-04  0.00D+00 EMaxC= 1.00D-01 BMatC= 3.13D-05 BMatP= 4.86D-05
 IDIUse=3 WtCom= 9.93D-01 WtEn= 6.52D-03
 Coeff-Com: -0.349D+00 0.399D+00-0.177D+00 0.823D+00-0.281D+01 0.179D+01
 Coeff-Com:  0.133D+01
 Coeff-En:   0.000D+00 0.000D+00 0.000D+00 0.000D+00 0.000D+00 0.000D+00
 Coeff-En:   0.100D+01
 Coeff:     -0.347D+00 0.396D+00-0.175D+00 0.818D+00-0.280D+01 0.177D+01
 Coeff:      0.133D+01
 Gap=    -0.011 Goal=   None    Shift=    0.300
 DSYEVD-2 returned Info=          69 IAlg= 4 N=    34 NDim=   327 NE2=    31667764 trying  DSYEV.
 RMSDP=2.23D-05 MaxDP=4.94D-03 DE=-1.08D-05 OVMax= 7.70D-04

 Cycle   8  Pass 1  IDiag  1:
 Density matrix breaks symmetry, PCut= 1.00D-07
 Density has only Abelian symmetry.
 E= -85.8402052033444     Delta-E=       -0.000013565940 Rises=F Damp=F
 DIIS: error= 4.34D-04 at cycle   8 NSaved=   8.
 NSaved= 8 IEnMin= 8 EnMin= -85.8402052033444     IErMin= 8 ErrMin= 4.34D-04
 ErrMax= 4.34D-04  0.00D+00 EMaxC= 1.00D-01 BMatC= 1.73D-05 BMatP= 3.13D-05
 IDIUse=3 WtCom= 9.96D-01 WtEn= 4.34D-03
 Coeff-Com: -0.176D+00 0.201D+00-0.530D-01 0.229D+00-0.186D+01 0.287D+01
 Coeff-Com: -0.234D+01 0.212D+01
 Coeff-En:   0.000D+00 0.000D+00 0.000D+00 0.000D+00 0.000D+00 0.000D+00
 Coeff-En:   0.000D+00 0.100D+01
 Coeff:     -0.175D+00 0.200D+00-0.528D-01 0.228D+00-0.185D+01 0.286D+01
 Coeff:     -0.233D+01 0.212D+01
 Gap=    -0.011 Goal=   None    Shift=    0.300
 RMSDP=1.81D-05 MaxDP=4.22D-03 DE=-1.36D-05 OVMax= 6.71D-04

 Cycle   9  Pass 1  IDiag  1:
 Density matrix breaks symmetry, PCut= 1.00D-07
 Density has only Abelian symmetry.
 E= -85.8402135189781     Delta-E=       -0.000008315634 Rises=F Damp=F
 DIIS: error= 3.17D-04 at cycle   9 NSaved=   9.
 NSaved= 9 IEnMin= 9 EnMin= -85.8402135189781     IErMin= 9 ErrMin= 3.17D-04
 ErrMax= 3.17D-04  0.00D+00 EMaxC= 1.00D-01 BMatC= 9.56D-06 BMatP= 1.73D-05
 IDIUse=3 WtCom= 9.97D-01 WtEn= 3.17D-03
 Coeff-Com: -0.126D+00 0.144D+00-0.641D-01 0.264D+00-0.149D+01 0.364D+01
 Coeff-Com: -0.345D+01-0.140D+00 0.221D+01
 Coeff-En:   0.000D+00 0.000D+00 0.000D+00 0.000D+00 0.000D+00 0.000D+00
 Coeff-En:   0.000D+00 0.000D+00 0.100D+01
 Coeff:     -0.125D+00 0.143D+00-0.639D-01 0.263D+00-0.148D+01 0.363D+01
 Coeff:     -0.344D+01-0.139D+00 0.221D+01
 Gap=    -0.011 Goal=   None    Shift=    0.300
 DSYEVD-2 returned Info=          69 IAlg= 4 N=    34 NDim=   327 NE2=    31667764 trying  DSYEV.
 RMSDP=1.05D-05 MaxDP=2.48D-03 DE=-8.32D-06 OVMax= 4.87D-04

 Cycle  10  Pass 1  IDiag  1:
 Density matrix breaks symmetry, PCut= 1.00D-07
 Density has only Abelian symmetry.
 E= -85.8402179376370     Delta-E=       -0.000004418659 Rises=F Damp=F
 DIIS: error= 2.38D-04 at cycle  10 NSaved=  10.
 NSaved=10 IEnMin=10 EnMin= -85.8402179376370     IErMin=10 ErrMin= 2.38D-04
 ErrMax= 2.38D-04  0.00D+00 EMaxC= 1.00D-01 BMatC= 6.58D-06 BMatP= 9.56D-06
 IDIUse=3 WtCom= 9.98D-01 WtEn= 2.38D-03
 Coeff-Com: -0.127D+00 0.145D+00-0.645D-01 0.261D+00-0.148D+01 0.361D+01
 Coeff-Com: -0.343D+01-0.168D-01 0.200D+01 0.103D+00
 Coeff-En:   0.000D+00 0.000D+00 0.000D+00 0.000D+00 0.000D+00 0.000D+00
 Coeff-En:   0.000D+00 0.000D+00 0.000D+00 0.100D+01
 Coeff:     -0.127D+00 0.145D+00-0.644D-01 0.261D+00-0.147D+01 0.360D+01
 Coeff:     -0.343D+01-0.167D-01 0.199D+01 0.105D+00
 Gap=    -0.011 Goal=   None    Shift=    0.300
 DSYEVD-2 returned Info=        3279 IAlg= 4 N=    79 NDim=   327 NE2=    31667764 trying  DSYEV.
 DSYEVD-2 returned Info=          69 IAlg= 4 N=    34 NDim=   327 NE2=    31667764 trying  DSYEV.
 RMSDP=6.01D-06 MaxDP=1.57D-03 DE=-4.42D-06 OVMax= 2.93D-04

 Cycle  11  Pass 1  IDiag  1:
 Density matrix breaks symmetry, PCut= 1.00D-07
 Density has only Abelian symmetry.
 E= -85.8402205028424     Delta-E=       -0.000002565205 Rises=F Damp=F
 DIIS: error= 2.00D-04 at cycle  11 NSaved=  11.
 NSaved=11 IEnMin=11 EnMin= -85.8402205028424     IErMin=11 ErrMin= 2.00D-04
 ErrMax= 2.00D-04  0.00D+00 EMaxC= 1.00D-01 BMatC= 5.31D-06 BMatP= 6.58D-06
 IDIUse=3 WtCom= 9.98D-01 WtEn= 2.00D-03
 Large coefficients: NSaved= 11 BigCof=   10.45 CofMax=   10.00 Det=-2.29D-10
 Inversion failed.  Reducing to 10 matrices.
 Large coefficients: NSaved= 10 BigCof=   12.64 CofMax=   10.00 Det=-3.78D-10
 Inversion failed.  Reducing to  9 matrices.
 Large coefficients: NSaved=  9 BigCof=   12.79 CofMax=   10.00 Det=-3.82D-10
 Inversion failed.  Reducing to  8 matrices.
 Large coefficients: NSaved=  8 BigCof=   13.24 CofMax=   10.00 Det=-3.91D-10
 Inversion failed.  Reducing to  7 matrices.
 Large coefficients: NSaved=  7 BigCof=   11.84 CofMax=   10.00 Det=-4.59D-10
 Inversion failed.  Reducing to  6 matrices.
 Large coefficients: NSaved=  6 BigCof=   18.65 CofMax=   10.00 Det=-7.76D-10
 Inversion failed.  Reducing to  5 matrices.
 Large coefficients: NSaved=  5 BigCof=   26.66 CofMax=   10.00 Det=-9.31D-10
 Inversion failed.  Reducing to  4 matrices.
 Large coefficients: NSaved=  4 BigCof=   17.62 CofMax=   10.00 Det=-9.74D-10
 Inversion failed.  Reducing to  3 matrices.
 Coeff-Com: -0.479D-02-0.525D+01 0.625D+01
 Coeff-En:   0.000D+00 0.000D+00 0.100D+01
 Coeff:     -0.478D-02-0.524D+01 0.624D+01
 Gap=    -0.010 Goal=   None    Shift=    0.300
 RMSDP=1.35D-05 MaxDP=7.67D-04 DE=-2.57D-06 OVMax= 1.79D-03

 Cycle  12  Pass 1  IDiag  1:
 Density matrix breaks symmetry, PCut= 1.00D-07
 Density has only Abelian symmetry.
 E= -85.8402314896918     Delta-E=       -0.000010986849 Rises=F Damp=F
 DIIS: error= 2.01D-04 at cycle  12 NSaved=   4.
 NSaved= 4 IEnMin= 4 EnMin= -85.8402314896918     IErMin= 3 ErrMin= 2.00D-04
 ErrMax= 2.01D-04  0.00D+00 EMaxC= 1.00D-01 BMatC= 1.66D-06 BMatP= 5.31D-06
 IDIUse=3 WtCom= 9.98D-01 WtEn= 2.00D-03
 Coeff-Com:  0.685D+00-0.558D+01 0.487D+01 0.103D+01
 Coeff-En:   0.000D+00 0.000D+00 0.000D+00 0.100D+01
 Coeff:      0.683D+00-0.557D+01 0.486D+01 0.103D+01
 Gap=    -0.011 Goal=   None    Shift=    0.300
 RMSDP=3.01D-06 MaxDP=7.43D-04 DE=-1.10D-05 OVMax= 2.46D-04

 Cycle  13  Pass 1  IDiag  1:
 Density matrix breaks symmetry, PCut= 1.00D-07
 Density has only Abelian symmetry.
 E= -85.8402324165137     Delta-E=       -0.000000926822 Rises=F Damp=F
 DIIS: error= 9.24D-05 at cycle  13 NSaved=   5.
 NSaved= 5 IEnMin= 5 EnMin= -85.8402324165137     IErMin= 5 ErrMin= 9.24D-05
 ErrMax= 9.24D-05  0.00D+00 EMaxC= 1.00D-01 BMatC= 5.72D-07 BMatP= 1.66D-06
 IDIUse=1 WtCom= 1.00D+00 WtEn= 0.00D+00
 Coeff-Com:  0.728D+00-0.314D+01 0.215D+01-0.308D-01 0.129D+01
 Coeff:      0.728D+00-0.314D+01 0.215D+01-0.308D-01 0.129D+01
 Gap=    -0.011 Goal=   None    Shift=    0.300
 DSYEVD-2 returned Info=          89 IAlg= 4 N=    44 NDim=   327 NE2=    31667764 trying  DSYEV.
 DSYEVD-2 returned Info=          89 IAlg= 4 N=    44 NDim=   327 NE2=    31667764 trying  DSYEV.
 DSYEVD-2 returned Info=          89 IAlg= 4 N=    44 NDim=   327 NE2=    31667764 trying  DSYEV.
 RMSDP=4.07D-06 MaxDP=1.16D-03 DE=-9.27D-07 OVMax= 1.77D-04

 Cycle  14  Pass 1  IDiag  1:
 Density matrix breaks symmetry, PCut= 1.00D-07
 Density has only Abelian symmetry.
 E= -85.8402327749695     Delta-E=       -0.000000358456 Rises=F Damp=F
 DIIS: error= 5.22D-05 at cycle  14 NSaved=   6.
 NSaved= 6 IEnMin= 6 EnMin= -85.8402327749695     IErMin= 6 ErrMin= 5.22D-05
 ErrMax= 5.22D-05  0.00D+00 EMaxC= 1.00D-01 BMatC= 3.52D-07 BMatP= 5.72D-07
 IDIUse=1 WtCom= 1.00D+00 WtEn= 0.00D+00
 Coeff-Com:  0.839D+00-0.206D+01 0.881D+00 0.155D+00-0.782D+00 0.197D+01
 Coeff:      0.839D+00-0.206D+01 0.881D+00 0.155D+00-0.782D+00 0.197D+01
 Gap=    -0.010 Goal=   None    Shift=    0.300
 RMSDP=2.71D-06 MaxDP=7.92D-04 DE=-3.58D-07 OVMax= 8.88D-05

 Cycle  15  Pass 1  IDiag  1:
 Density matrix breaks symmetry, PCut= 1.00D-07
 Density has only Abelian symmetry.
 E= -85.8402329182805     Delta-E=       -0.000000143311 Rises=F Damp=F
 DIIS: error= 4.30D-05 at cycle  15 NSaved=   7.
 NSaved= 7 IEnMin= 7 EnMin= -85.8402329182805     IErMin= 7 ErrMin= 4.30D-05
 ErrMax= 4.30D-05  0.00D+00 EMaxC= 1.00D-01 BMatC= 2.93D-07 BMatP= 3.52D-07
 IDIUse=1 WtCom= 1.00D+00 WtEn= 0.00D+00
 Coeff-Com:  0.839D+00-0.208D+01 0.899D+00 0.159D+00-0.789D+00 0.202D+01
 Coeff-Com: -0.491D-01
 Coeff:      0.839D+00-0.208D+01 0.899D+00 0.159D+00-0.789D+00 0.202D+01
 Coeff:     -0.491D-01
 Gap=    -0.010 Goal=   None    Shift=    0.300
 RMSDP=1.67D-06 MaxDP=4.89D-04 DE=-1.43D-07 OVMax= 5.66D-05

 Cycle  16  Pass 1  IDiag  1:
 Density matrix breaks symmetry, PCut= 1.00D-07
 Density has only Abelian symmetry.
 E= -85.8402330308898     Delta-E=       -0.000000112609 Rises=F Damp=F
 DIIS: error= 3.90D-05 at cycle  16 NSaved=   8.
 NSaved= 8 IEnMin= 8 EnMin= -85.8402330308898     IErMin= 8 ErrMin= 3.90D-05
 ErrMax= 3.90D-05  0.00D+00 EMaxC= 1.00D-01 BMatC= 2.51D-07 BMatP= 2.93D-07
 IDIUse=1 WtCom= 1.00D+00 WtEn= 0.00D+00
 Coeff-Com:  0.727D+00-0.176D+01 0.733D+00 0.144D+00-0.609D+00 0.268D+01
 Coeff-Com: -0.427D+01 0.336D+01
 Coeff:      0.727D+00-0.176D+01 0.733D+00 0.144D+00-0.609D+00 0.268D+01
 Coeff:     -0.427D+01 0.336D+01
 Gap=    -0.010 Goal=   None    Shift=    0.300
 RMSDP=7.20D-07 MaxDP=2.06D-04 DE=-1.13D-07 OVMax= 4.53D-05

 Cycle  17  Pass 1  IDiag  1:
 Density matrix breaks symmetry, PCut= 1.00D-07
 Density has only Abelian symmetry.
 E= -85.8402331261386     Delta-E=       -0.000000095249 Rises=F Damp=F
 DIIS: error= 3.67D-05 at cycle  17 NSaved=   9.
 NSaved= 9 IEnMin= 9 EnMin= -85.8402331261386     IErMin= 9 ErrMin= 3.67D-05
 ErrMax= 3.67D-05  0.00D+00 EMaxC= 1.00D-01 BMatC= 2.18D-07 BMatP= 2.51D-07
 IDIUse=1 WtCom= 1.00D+00 WtEn= 0.00D+00
 Coeff-Com:  0.578D+00-0.119D+01 0.376D+00 0.730D-01-0.384D+00 0.111D+01
 Coeff-Com:  0.159D+01-0.845D+01 0.730D+01
 Coeff:      0.578D+00-0.119D+01 0.376D+00 0.730D-01-0.384D+00 0.111D+01
 Coeff:      0.159D+01-0.845D+01 0.730D+01
 Gap=    -0.010 Goal=   None    Shift=    0.300
 RMSDP=6.09D-07 MaxDP=1.67D-04 DE=-9.52D-08 OVMax= 4.14D-05

 Cycle  18  Pass 1  IDiag  1:
 Density matrix breaks symmetry, PCut= 1.00D-07
 Density has only Abelian symmetry.
 E= -85.8402332079785     Delta-E=       -0.000000081840 Rises=F Damp=F
 DIIS: error= 3.45D-05 at cycle  18 NSaved=  10.
 NSaved=10 IEnMin=10 EnMin= -85.8402332079785     IErMin=10 ErrMin= 3.45D-05
 ErrMax= 3.45D-05  0.00D+00 EMaxC= 1.00D-01 BMatC= 1.90D-07 BMatP= 2.18D-07
 IDIUse=1 WtCom= 1.00D+00 WtEn= 0.00D+00
 Coeff-Com:  0.512D+00-0.105D+01 0.328D+00 0.520D-01-0.375D+00 0.436D+00
 Coeff-Com:  0.397D+01-0.808D+01 0.617D+00 0.459D+01
 Coeff:      0.512D+00-0.105D+01 0.328D+00 0.520D-01-0.375D+00 0.436D+00
 Coeff:      0.397D+01-0.808D+01 0.617D+00 0.459D+01
 Gap=    -0.010 Goal=   None    Shift=    0.300
 RMSDP=3.92D-07 MaxDP=9.59D-05 DE=-8.18D-08 OVMax= 3.95D-05

 Cycle  19  Pass 1  IDiag  1:
 Density matrix breaks symmetry, PCut= 1.00D-07
 Density has only Abelian symmetry.
 E= -85.8402332787711     Delta-E=       -0.000000070793 Rises=F Damp=F
 DIIS: error= 3.23D-05 at cycle  19 NSaved=  11.
 NSaved=11 IEnMin=11 EnMin= -85.8402332787711     IErMin=11 ErrMin= 3.23D-05
 ErrMax= 3.23D-05  0.00D+00 EMaxC= 1.00D-01 BMatC= 1.66D-07 BMatP= 1.90D-07
 IDIUse=1 WtCom= 1.00D+00 WtEn= 0.00D+00
 Coeff-Com:  0.445D+00-0.932D+00 0.300D+00 0.416D-01-0.368D+00 0.428D-01
 Coeff-Com:  0.519D+01-0.717D+01-0.306D+01 0.473D+01 0.178D+01
 Coeff:      0.445D+00-0.932D+00 0.300D+00 0.416D-01-0.368D+00 0.428D-01
 Coeff:      0.519D+01-0.717D+01-0.306D+01 0.473D+01 0.178D+01
 Gap=    -0.010 Goal=   None    Shift=    0.300
 RMSDP=2.54D-07 MaxDP=5.47D-05 DE=-7.08D-08 OVMax= 3.55D-05

 Cycle  20  Pass 1  IDiag  1:
 Density matrix breaks symmetry, PCut= 1.00D-07
 Density has only Abelian symmetry.
 E= -85.8402333404020     Delta-E=       -0.000000061631 Rises=F Damp=F
 DIIS: error= 3.03D-05 at cycle  20 NSaved=  12.
 NSaved=12 IEnMin=12 EnMin= -85.8402333404020     IErMin=12 ErrMin= 3.03D-05
 ErrMax= 3.03D-05  0.00D+00 EMaxC= 1.00D-01 BMatC= 1.46D-07 BMatP= 1.66D-07
 IDIUse=1 WtCom= 1.00D+00 WtEn= 0.00D+00
 Large coefficients: NSaved= 12 BigCof=   10.39 CofMax=   10.00 Det=-5.95D-13
 Inversion failed.  Reducing to 11 matrices.
 Large coefficients: NSaved= 11 BigCof=   13.52 CofMax=   10.00 Det=-5.97D-13
 Inversion failed.  Reducing to 10 matrices.
 Large coefficients: NSaved= 10 BigCof=   13.41 CofMax=   10.00 Det=-7.07D-13
 Inversion failed.  Reducing to  9 matrices.
 Large coefficients: NSaved=  9 BigCof=   13.48 CofMax=   10.00 Det=-7.90D-13
 Inversion failed.  Reducing to  8 matrices.
 Large coefficients: NSaved=  8 BigCof=   13.53 CofMax=   10.00 Det=-9.99D-13
 Inversion failed.  Reducing to  7 matrices.
 Large coefficients: NSaved=  7 BigCof=   13.65 CofMax=   10.00 Det=-1.68D-12
 Inversion failed.  Reducing to  6 matrices.
 Large coefficients: NSaved=  6 BigCof=   14.85 CofMax=   10.00 Det=-3.00D-12
 Inversion failed.  Reducing to  5 matrices.
 Large coefficients: NSaved=  5 BigCof=   16.15 CofMax=   10.00 Det=-3.02D-12
 Inversion failed.  Reducing to  4 matrices.
 Large coefficients: NSaved=  4 BigCof=   16.20 CofMax=   10.00 Det=-6.44D-12
 Inversion failed.  Reducing to  3 matrices.
 Large coefficients: NSaved=  3 BigCof=   13.57 CofMax=   10.00 Det=-6.52D-12
 Inversion failed.  Reducing to  2 matrices.
 Large coefficients: NSaved=  2 BigCof=   15.57 CofMax=   10.00 Det=-6.83D-10
 Coeff-Com: -0.146D+02 0.156D+02
 Coeff:     -0.146D+02 0.156D+02
 Gap=    -0.010 Goal=   None    Shift=    0.300
 RMSDP=8.16D-07 MaxDP=8.50D-05 DE=-6.16D-08 OVMax= 6.51D-05

 Cycle  21  Pass 1  IDiag  1:
 Density matrix breaks symmetry, PCut= 1.00D-07
 Density has only Abelian symmetry.
 E= -85.8402333995547     Delta-E=       -0.000000059153 Rises=F Damp=F
 DIIS: error= 2.77D-05 at cycle  21 NSaved=   3.
 NSaved= 3 IEnMin= 3 EnMin= -85.8402333995547     IErMin= 3 ErrMin= 2.77D-05
 ErrMax= 2.77D-05  0.00D+00 EMaxC= 1.00D-01 BMatC= 1.27D-07 BMatP= 1.46D-07
 IDIUse=1 WtCom= 1.00D+00 WtEn= 0.00D+00
 Large coefficients: NSaved=  3 BigCof=   13.76 CofMax=   10.00 Det=-1.18D-10
 Inversion failed.  Reducing to  2 matrices.
 Coeff-Com: -0.770D+01 0.870D+01
 Coeff:     -0.770D+01 0.870D+01
 Gap=    -0.011 Goal=   None    Shift=    0.300
 RMSDP=7.10D-06 MaxDP=7.66D-04 DE=-5.92D-08 OVMax= 5.60D-04

 Cycle  22  Pass 1  IDiag  1:
 Density matrix breaks symmetry, PCut= 1.00D-07
 Density has only Abelian symmetry.
 E= -85.8402335953835     Delta-E=       -0.000000195829 Rises=F Damp=F
 DIIS: error= 2.55D-05 at cycle  22 NSaved=   3.
 NSaved= 3 IEnMin= 3 EnMin= -85.8402335953835     IErMin= 3 ErrMin= 2.55D-05
 ErrMax= 2.55D-05  0.00D+00 EMaxC= 1.00D-01 BMatC= 6.63D-08 BMatP= 1.27D-07
 IDIUse=1 WtCom= 1.00D+00 WtEn= 0.00D+00
 Coeff-Com: -0.759D+01 0.771D+01 0.883D+00
 Coeff:     -0.759D+01 0.771D+01 0.883D+00
 Gap=    -0.010 Goal=   None    Shift=    0.300
 RMSDP=2.48D-07 MaxDP=1.84D-05 DE=-1.96D-07 OVMax= 4.27D-05

 Cycle  23  Pass 1  IDiag  1:
 Density matrix breaks symmetry, PCut= 1.00D-07
 Density has only Abelian symmetry.
 E= -85.8402336076564     Delta-E=       -0.000000012273 Rises=F Damp=F
 DIIS: error= 2.41D-05 at cycle  23 NSaved=   4.
 NSaved= 4 IEnMin= 4 EnMin= -85.8402336076564     IErMin= 4 ErrMin= 2.41D-05
 ErrMax= 2.41D-05  0.00D+00 EMaxC= 1.00D-01 BMatC= 5.55D-08 BMatP= 6.63D-08
 IDIUse=1 WtCom= 1.00D+00 WtEn= 0.00D+00
 Coeff-Com: -0.741D+01 0.749D+01 0.735D+00 0.180D+00
 Coeff:     -0.741D+01 0.749D+01 0.735D+00 0.180D+00
 Gap=    -0.010 Goal=   None    Shift=    0.300
 RMSDP=3.44D-07 MaxDP=3.35D-05 DE=-1.23D-08 OVMax= 2.23D-05

 Cycle  24  Pass 1  IDiag  1:
 Density matrix breaks symmetry, PCut= 1.00D-07
 Density has only Abelian symmetry.
 E= -85.8402336217752     Delta-E=       -0.000000014119 Rises=F Damp=F
 DIIS: error= 2.42D-05 at cycle  24 NSaved=   5.
 NSaved= 5 IEnMin= 5 EnMin= -85.8402336217752     IErMin= 4 ErrMin= 2.41D-05
 ErrMax= 2.42D-05  0.00D+00 EMaxC= 1.00D-01 BMatC= 5.10D-08 BMatP= 5.55D-08
 IDIUse=1 WtCom= 1.00D+00 WtEn= 0.00D+00
 Coeff-Com: -0.734D+01 0.743D+01 0.741D+00-0.440D-01 0.214D+00
 Coeff:     -0.734D+01 0.743D+01 0.741D+00-0.440D-01 0.214D+00
 Gap=    -0.010 Goal=   None    Shift=    0.300
 RMSDP=2.33D-07 MaxDP=2.33D-05 DE=-1.41D-08 OVMax= 1.83D-05

 Cycle  25  Pass 1  IDiag  1:
 Density matrix breaks symmetry, PCut= 1.00D-07
 Density has only Abelian symmetry.
 E= -85.8402336341024     Delta-E=       -0.000000012327 Rises=F Damp=F
 DIIS: error= 2.41D-05 at cycle  25 NSaved=   6.
 NSaved= 6 IEnMin= 6 EnMin= -85.8402336341024     IErMin= 6 ErrMin= 2.41D-05
 ErrMax= 2.41D-05  0.00D+00 EMaxC= 1.00D-01 BMatC= 4.68D-08 BMatP= 5.10D-08
 IDIUse=1 WtCom= 1.00D+00 WtEn= 0.00D+00
 Coeff-Com: -0.705D+01 0.716D+01 0.696D+00 0.764D+00-0.240D+01 0.183D+01
 Coeff:     -0.705D+01 0.716D+01 0.696D+00 0.764D+00-0.240D+01 0.183D+01
 Gap=    -0.010 Goal=   None    Shift=    0.300
 RMSDP=1.33D-07 MaxDP=1.25D-05 DE=-1.23D-08 OVMax= 1.55D-05

 Cycle  26  Pass 1  IDiag  1:
 Density matrix breaks symmetry, PCut= 1.00D-07
 Density has only Abelian symmetry.
 E= -85.8402336450654     Delta-E=       -0.000000010963 Rises=F Damp=F
 DIIS: error= 2.39D-05 at cycle  26 NSaved=   7.
 NSaved= 7 IEnMin= 7 EnMin= -85.8402336450654     IErMin= 7 ErrMin= 2.39D-05
 ErrMax= 2.39D-05  0.00D+00 EMaxC= 1.00D-01 BMatC= 4.32D-08 BMatP= 4.68D-08
 IDIUse=1 WtCom= 1.00D+00 WtEn= 0.00D+00
 Large coefficients: NSaved=  7 BigCof=   38.64 CofMax=   10.00 Det=-1.76D-13
 Inversion failed.  Reducing to  6 matrices.
 Large coefficients: NSaved=  6 BigCof=   56.68 CofMax=   10.00 Det=-4.85D-13
 Inversion failed.  Reducing to  5 matrices.
 Large coefficients: NSaved=  5 BigCof=   50.26 CofMax=   10.00 Det=-4.86D-13
 Inversion failed.  Reducing to  4 matrices.
 Large coefficients: NSaved=  4 BigCof=   18.32 CofMax=   10.00 Det=-8.49D-13
 Inversion failed.  Reducing to  3 matrices.
 Large coefficients: NSaved=  3 BigCof=   28.70 CofMax=   10.00 Det=-1.11D-12
 Inversion failed.  Reducing to  2 matrices.
 Large coefficients: NSaved=  2 BigCof=   15.94 CofMax=   10.00 Det=-1.17D-10
 Coeff-Com: -0.149D+02 0.159D+02
 Coeff:     -0.149D+02 0.159D+02
 Gap=    -0.010 Goal=   None    Shift=    0.300
 RMSDP=4.64D-06 MaxDP=5.15D-04 DE=-1.10D-08 OVMax= 4.11D-04

 Cycle  27  Pass 1  IDiag  1:
 Density matrix breaks symmetry, PCut= 1.00D-07
 Density has only Abelian symmetry.
 E= -85.8402337104290     Delta-E=       -0.000000065364 Rises=F Damp=F
 DIIS: error= 1.41D-05 at cycle  27 NSaved=   3.
 NSaved= 3 IEnMin= 3 EnMin= -85.8402337104290     IErMin= 3 ErrMin= 1.41D-05
 ErrMax= 1.41D-05  0.00D+00 EMaxC= 1.00D-01 BMatC= 2.22D-08 BMatP= 4.32D-08
 IDIUse=1 WtCom= 1.00D+00 WtEn= 0.00D+00
 Large coefficients: NSaved=  3 BigCof=   13.78 CofMax=   10.00 Det=-1.13D-10
 Inversion failed.  Reducing to  2 matrices.
 Coeff-Com: -0.476D-01 0.105D+01
 Coeff:     -0.476D-01 0.105D+01
 Gap=    -0.010 Goal=   None    Shift=    0.300
 DSYEVD-2 returned Info=        3279 IAlg= 4 N=    79 NDim=   327 NE2=    31667764 trying  DSYEV.
 RMSDP=1.30D-06 MaxDP=7.80D-05 DE=-6.54D-08 OVMax= 2.08D-04

 Cycle  28  Pass 1  IDiag  1:
 Density matrix breaks symmetry, PCut= 1.00D-07
 Density has only Abelian symmetry.
 E= -85.8402337778183     Delta-E=       -0.000000067389 Rises=F Damp=F
 DIIS: error= 1.12D-06 at cycle  28 NSaved=   3.
 NSaved= 3 IEnMin= 3 EnMin= -85.8402337778183     IErMin= 3 ErrMin= 1.12D-06
 ErrMax= 1.12D-06  0.00D+00 EMaxC= 1.00D-01 BMatC= 2.07D-10 BMatP= 2.22D-08
 IDIUse=1 WtCom= 1.00D+00 WtEn= 0.00D+00
 Coeff-Com: -0.251D-01 0.476D-01 0.978D+00
 Coeff:     -0.251D-01 0.476D-01 0.978D+00
 Gap=    -0.010 Goal=   None    Shift=    0.300
 DSYEVD-2 returned Info=        3279 IAlg= 4 N=    79 NDim=   327 NE2=    31667764 trying  DSYEV.
 RMSDP=1.30D-07 MaxDP=9.52D-06 DE=-6.74D-08 OVMax= 1.21D-05

 Cycle  29  Pass 1  IDiag  1:
 Density matrix breaks symmetry, PCut= 1.00D-07
 Density has only Abelian symmetry.
 E= -85.8402337781060     Delta-E=       -0.000000000288 Rises=F Damp=F
 DIIS: error= 7.99D-07 at cycle  29 NSaved=   4.
 NSaved= 4 IEnMin= 4 EnMin= -85.8402337781060     IErMin= 4 ErrMin= 7.99D-07
 ErrMax= 7.99D-07  0.00D+00 EMaxC= 1.00D-01 BMatC= 5.16D-11 BMatP= 2.07D-10
 IDIUse=1 WtCom= 1.00D+00 WtEn= 0.00D+00
 Coeff-Com: -0.308D-01 0.502D-01 0.176D+00 0.804D+00
 Coeff:     -0.308D-01 0.502D-01 0.176D+00 0.804D+00
 Gap=    -0.010 Goal=   None    Shift=    0.300
 RMSDP=2.98D-08 MaxDP=2.76D-06 DE=-2.88D-10 OVMax= 2.86D-06

 Cycle  30  Pass 1  IDiag  1:
 Density matrix breaks symmetry, PCut= 1.00D-07
 Density has only Abelian symmetry.
 E= -85.8402337781124     Delta-E=       -0.000000000006 Rises=F Damp=F
 DIIS: error= 5.13D-07 at cycle  30 NSaved=   5.
 NSaved= 5 IEnMin= 5 EnMin= -85.8402337781124     IErMin= 5 ErrMin= 5.13D-07
 ErrMax= 5.13D-07  0.00D+00 EMaxC= 1.00D-01 BMatC= 2.26D-11 BMatP= 5.16D-11
 IDIUse=1 WtCom= 1.00D+00 WtEn= 0.00D+00
 Coeff-Com: -0.254D-01 0.429D-01-0.277D-01 0.314D+00 0.696D+00
 Coeff:     -0.254D-01 0.429D-01-0.277D-01 0.314D+00 0.696D+00
 Gap=    -0.010 Goal=   None    Shift=    0.300
 DSYEVD-2 returned Info=        3279 IAlg= 4 N=    79 NDim=   327 NE2=    31667764 trying  DSYEV.
 RMSDP=7.90D-09 MaxDP=4.98D-07 DE=-6.44D-12 OVMax= 8.81D-07

 Density matrix breaks symmetry, PCut= 1.00D-07
 Density has only Abelian symmetry.
 SCF Done:  E(ROHF) =  -85.8402337781     A.U. after   30 cycles
            NFock= 30  Conv=0.79D-08     -V/T= 2.8658
 <Sx>= 0.0000 <Sy>= 0.0000 <Sz>= 3.0000 <S**2>=12.0000 S= 3.0000
 <L.S>=  0.00000000000    
 KE= 4.600753971073D+01 PE=-1.964326567651D+02 EE= 6.458488327626D+01
 Annihilation of the first spin contaminant:
 S**2 before annihilation    12.0000,   after    12.0000
 Leave Link  502 at Thu Apr  5 17:48:24 2018, MaxMem= 10737418240 cpu:           14215.8 elap:             714.4
 (Enter /home1/apps/gaussian/16rA.03/g16/l801.exe)
 Windowed orbitals will be sorted by symmetry type.
 Density matrix breaks symmetry, PCut= 1.00D-07
 Density has only Abelian symmetry.
 GenMOA:  NOpAll= 48 NOp2=8 NOpUse=  8 JSym2X=1
 FoFJK:  IHMeth= 1 ICntrl=       0 DoSepK=F KAlg= 0 I1Cent=           0 FoldK=F
 IRaf=         0 NMat=       1 IRICut=       1 DoRegI=T DoRafI=F ISym2E= 1 IDoP0=0 IntGTp=1.
 FoFCou: FMM=F IPFlag=           0 FMFlag=      100000 FMFlg1=           0
         NFxFlg=           0 DoJE=F BraDBF=F KetDBF=F FulRan=T
         wScrn=  0.000000 ICntrl=         0 IOpCl=  1 I1Cent=           0 NGrid=           0
         NMat0=    1 NMatS0=      1 NMatT0=    0 NMatD0=    1 NMtDS0=    0 NMtDT0=    0
 Petite list used in FoFCou.
 <Sx>= 0.0000 <Sy>= 0.0000 <Sz>= 3.0000 <S**2>=12.0000 S= 3.0000
 Range of M.O.s used for correlation:     1   327
 NBasis=   331 NAE=    10 NBE=     4 NFC=     0 NFV=     0
 NROrb=    327 NOA=    10 NOB=     4 NVA=   317 NVB=   323

 **** Warning!!: The largest alpha MO coefficient is  0.25919451D+03


 **** Warning!!: The largest beta MO coefficient is  0.25906326D+03

 Singles contribution to E2=   -0.2371382934D-03
 Leave Link  801 at Thu Apr  5 17:49:21 2018, MaxMem= 10737418240 cpu:            1122.1 elap:              56.2
 (Enter /home1/apps/gaussian/16rA.03/g16/l804.exe)
 Open-shell transformation, MDV= 10737418240 ITran=4 ISComp=2.
 Unit  1 TFree=       3308501 TCopy=       2526915.
 Semi-Direct transformation.
 ModeAB=           2 MOrb=            10 LenV=   10733979452
 LASXX=     21693850 LTotXX=    21693850 LenRXX=    21693850
 LTotAB=    21966944 MaxLAS=   375919200 LenRXY=   375919200
 NonZer=   385915590 LenScr=   581143552 LnRSAI=           0
 LnScr1=           0 LExtra=     9198288 Total=    987954890
 MaxDsk= 13421772800 SrtSym=           F ITran=            4
 DoSDTr:  NPSUse= 20
 JobTyp=1 Pass  1:  I=   1 to  10.
 (rs|ai) integrals will be sorted in core.
 Complete sort for first half transformation.
 First half transformation complete.
 Begin second half transformation for I=  10.
 Begin second half transformation for I=  10.
 Complete sort for second half transformation.
 Second half transformation complete.
 ModeAB=           2 MOrb=             4 LenV=   10733979452
 LASXX=      8788036 LTotXX=     8788036 LenRXX=   150367680
 LTotAB=     8348373 MaxLAS=   150367680 LenRXY=     8348373
 NonZer=   154366236 LenScr=   232458240 LnRSAI=           0
 LnScr1=           0 LExtra=   406811338 Total=    797985631
 MaxDsk= 13421772800 SrtSym=           F ITran=            4
 DoSDTr:  NPSUse= 20
 JobTyp=2 Pass  1:  I=   1 to   4.
 (rs|ai) integrals will be sorted in core.
 Complete sort for first half transformation.
 First half transformation complete.
 Complete sort for second half transformation.
 Second half transformation complete.
 Spin components of T(2) and E(2):
     alpha-alpha T2 =       0.3738534722D-01 E2=     -0.1684316855D+00
     alpha-beta  T2 =       0.4094865747D-01 E2=     -0.3583830696D+00
     beta-beta   T2 =       0.5946305014D-02 E2=     -0.3691586201D-01
 ANorm=    0.1041316106D+01
 E2 =    -0.5639677554D+00 EUMP2 =    -0.86404201533484D+02
 (S**2,0)=  0.12000D+02           (S**2,1)=  0.12000D+02
 E(PUHF)=      -0.85840233778D+02        E(PMP2)=      -0.86404201533D+02
 Leave Link  804 at Thu Apr  5 18:02:23 2018, MaxMem= 10737418240 cpu:           15642.6 elap:             782.5
 (Enter /home1/apps/gaussian/16rA.03/g16/l913.exe)
 CIDS:  MDV= 10737418240.
 IFCWin=0 IBDFC=1 NFBD=     0     0 NFCmp=     0     0 NFFFC=     0     0
 Using original routines for 1st iteration.
 Using DD4UQ or CC4UQ for 2nd and later iterations.
 Keep R2 and R3 ints in memory in symmetry-blocked form, NReq=1746668804.
 FoFCou: FMM=F IPFlag=           0 FMFlag=           0 FMFlg1=           0
         NFxFlg=           0 DoJE=F BraDBF=F KetDBF=F FulRan=T
         wScrn=  0.000000 ICntrl=       600 IOpCl=  0 I1Cent=           0 NGrid=           0
         NMat0=    1 NMatS0=  54946 NMatT0=    0 NMatD0=    1 NMtDS0=    0 NMtDT0=    0
 Petite list used in FoFCou.
 CIDS: In Core Option IDoMem=           1.
 CCSD(T)
 =======
 Iterations= 150 Convergence= 0.100D-06
 Produce multiple copies of IABC intergrals
 Iteration Nr.   1
 **********************
 DD1Dir will call FoFMem   1 times, MxPair=       132
 NAB=    40 NAA=    45 NBB=     6.
 DD1Dir will call FoFMem   1 times, MxPair=       132
 NAB=    40 NAA=    45 NBB=     6.
 MP4(R+Q)= -0.29166860D-02
 Maximum subspace dimension=  5
 A-vector RMS=  2.1007420D-05 Max=  1.0291012D-03 conv= 1.00D-05.
 RLE energy=       -0.5560908594
 E3=        0.10903886D-01        EROMP3=      -0.86393297647D+02
 E4(SDQ)=  -0.29994955D-02        ROMP4(SDQ)=  -0.86396297143D+02
 VARIATIONAL ENERGIES WITH THE FIRST-ORDER WAVEFUNCTION:
 DE(Corr)= -0.55597916     E(Corr)=     -86.396212940    
 NORM(A)=   0.10394537D+01
 Iteration Nr.   2
 **********************
 DD1Dir will call FoFMem   1 times, MxPair=       132
 NAB=    40 NAA=    45 NBB=     6.
 A-vector RMS=  1.2786500D-03 Max=  2.0905186D-02 conv= 1.00D-05.
 RLE energy=       -0.5530265389
 DE(Corr)= -0.54527148     E(CORR)=     -86.385505255     Delta= 1.07D-02
 NORM(A)=   0.10387787D+01
 Iteration Nr.   3
 **********************
 DD1Dir will call FoFMem   1 times, MxPair=       132
 NAB=    40 NAA=    45 NBB=     6.
 A-vector RMS=  9.2862231D-04 Max=  1.7775234D-02 conv= 1.00D-05.
 RLE energy=       -0.5550074123
 DE(Corr)= -0.54796528     E(CORR)=     -86.388199063     Delta=-2.69D-03
 NORM(A)=   0.10400344D+01
 Iteration Nr.   4
 **********************
 DD1Dir will call FoFMem   1 times, MxPair=       132
 NAB=    40 NAA=    45 NBB=     6.
 A-vector RMS=  7.0994871D-04 Max=  1.2163060D-02 conv= 1.00D-05.
 RLE energy=       -0.5548164950
 DE(Corr)= -0.55031227     E(CORR)=     -86.390546045     Delta=-2.35D-03
 NORM(A)=   0.10451340D+01
 Iteration Nr.   5
 **********************
 DD1Dir will call FoFMem   1 times, MxPair=       132
 NAB=    40 NAA=    45 NBB=     6.
 A-vector RMS=  3.0103283D-04 Max=  3.4582504D-03 conv= 1.00D-05.
 RLE energy=       -0.5551330438
 DE(Corr)= -0.55740644     E(CORR)=     -86.397640220     Delta=-7.09D-03
 NORM(A)=   0.10438909D+01
 Iteration Nr.   6
 **********************
 DD1Dir will call FoFMem   1 times, MxPair=       132
 NAB=    40 NAA=    45 NBB=     6.
 A-vector RMS=  3.4254045D-05 Max=  4.7456985D-04 conv= 1.00D-05.
 RLE energy=       -0.5551223345
 DE(Corr)= -0.55522379     E(CORR)=     -86.395457568     Delta= 2.18D-03
 NORM(A)=   0.10439413D+01
 Iteration Nr.   7
 **********************
 DD1Dir will call FoFMem   1 times, MxPair=       132
 NAB=    40 NAA=    45 NBB=     6.
 A-vector RMS=  5.2710615D-06 Max=  7.1379292D-05 conv= 1.00D-05.
 RLE energy=       -0.5551175460
 DE(Corr)= -0.55511654     E(CORR)=     -86.395350319     Delta= 1.07D-04
 NORM(A)=   0.10439622D+01
 Iteration Nr.   8
 **********************
 DD1Dir will call FoFMem   1 times, MxPair=       132
 NAB=    40 NAA=    45 NBB=     6.
 A-vector RMS=  4.7583351D-06 Max=  9.8704559D-05 conv= 1.00D-05.
 RLE energy=       -0.5551180821
 DE(Corr)= -0.55512040     E(CORR)=     -86.395354179     Delta=-3.86D-06
 NORM(A)=   0.10439663D+01
 Iteration Nr.   9
 **********************
 DD1Dir will call FoFMem   1 times, MxPair=       132
 NAB=    40 NAA=    45 NBB=     6.
 A-vector RMS=  1.6291670D-06 Max=  3.2777872D-05 conv= 1.00D-05.
 RLE energy=       -0.5551196433
 DE(Corr)= -0.55511841     E(CORR)=     -86.395352193     Delta= 1.99D-06
 NORM(A)=   0.10439697D+01
 Iteration Nr.  10
 **********************
 DD1Dir will call FoFMem   1 times, MxPair=       132
 NAB=    40 NAA=    45 NBB=     6.
 A-vector RMS=  7.9201136D-07 Max=  1.5719875D-05 conv= 1.00D-05.
 RLE energy=       -0.5551199932
 DE(Corr)= -0.55511919     E(CORR)=     -86.395352972     Delta=-7.80D-07
 NORM(A)=   0.10439682D+01
 Iteration Nr.  11
 **********************
 DD1Dir will call FoFMem   1 times, MxPair=       132
 NAB=    40 NAA=    45 NBB=     6.
 A-vector RMS=  2.3405971D-07 Max=  6.8215681D-06 conv= 1.00D-05.
 RLE energy=       -0.5551187300
 DE(Corr)= -0.55511875     E(CORR)=     -86.395352530     Delta= 4.43D-07
 NORM(A)=   0.10439668D+01
 Iteration Nr.  12
 **********************
 DD1Dir will call FoFMem   1 times, MxPair=       132
 NAB=    40 NAA=    45 NBB=     6.
 A-vector RMS=  6.2710630D-08 Max=  1.2625888D-06 conv= 1.00D-05.
 RLE energy=       -0.5551185850
 DE(Corr)= -0.55511861     E(CORR)=     -86.395352392     Delta= 1.38D-07
 NORM(A)=   0.10439666D+01
 Iteration Nr.  13
 **********************
 DD1Dir will call FoFMem   1 times, MxPair=       132
 NAB=    40 NAA=    45 NBB=     6.
 A-vector RMS=  2.7227168D-08 Max=  5.0098876D-07 conv= 1.00D-05.
 RLE energy=       -0.5551185549
 DE(Corr)= -0.55511856     E(CORR)=     -86.395352337     Delta= 5.47D-08
 NORM(A)=   0.10439665D+01
 CI/CC converged in   13 iterations to DelEn= 5.47D-08 Conv= 1.00D-07 ErrA1= 2.72D-08 Conv= 1.00D-05
 Wavefunction amplitudes converged. E(Corr)=     -86.395352337    
 Largest amplitude= 4.27D-02
 Time for triples=    24965.46 seconds.
 T4(CCSD)= -0.18100317D-01
 T5(CCSD)=  0.58413058D-03
 CCSD(T)= -0.86412868524D+02
 Discarding MO integrals.
 Leave Link  913 at Thu Apr  5 18:26:59 2018, MaxMem= 10737418240 cpu:           29418.1 elap:            1475.3
 (Enter /home1/apps/gaussian/16rA.03/g16/l601.exe)
 Copying SCF densities to generalized density rwf, IOpCl= 0 IROHF=1.
 SCF density gives NOpUse=  8 NOpAll= 48.
 Marking SCF density as not fully symmetric.

 **********************************************************************

            Population analysis using the SCF density.

 **********************************************************************

 Orbital symmetries:
       Occupied  (A1G) (T1U) (T1U) (T1U) (A1G) (EG) (T2G) (T2G)
                 (T2G) (EG)
       Virtual   (T1U) (T1U) (T1U) (A1G) (EG) (T2G) (T2G) (T2G)
                 (EG) (T1U) (T1U) (T1U) (A1G) (EG) (T2G) (T2G)
                 (T2G) (EG) (T1U) (T1U) (T1U) (?A) (?A) (?A) (A2U)
                 (?A) (?A) (?A) (A1G) (T2G) (EG) (T2G) (T2G) (EG)
                 (T1U) (T1U) (T1U) (T2G) (?B) (?B) (?B) (T2G) (?B)
                 (?B) (?B) (T2G) (?A) (?A) (?A) (A2U) (?A) (?A)
                 (?A) (A1G) (T2G) (EG) (T2G) (T2G) (EG) (T1U) (T1U)
                 (T1U) (?C) (?C) (?C) (EU) (?C) (?C) (?C) (EU)
                 (?C) (?C) (?C) (T2G) (?B) (?B) (?B) (T2G) (?B)
                 (?B) (?B) (T2G) (A1G) (?A) (?A) (?A) (A2U) (?A)
                 (?A) (?A) (T2G) (EG) (T2G) (T2G) (EG) (T1U) (T1U)
                 (T1U) (?D) (?D) (?D) (EU) (?D) (?D) (?D) (EU)
                 (?D) (?D) (?D) (T2G) (EG) (T2G) (T2G) (EG) (?E)
                 (?F) (?F) (?F) (?E) (?F) (?F) (?F) (?E) (?F) (?F)
                 (?F) (?E) (?A) (?A) (?A) (A2U) (?A) (?A) (?A)
                 (T2G) (?B) (?B) (?B) (T2G) (?B) (?B) (?B) (T2G)
                 (A1G) (T1U) (T1U) (T1U) (T2G) (EG) (T2G) (T2G)
                 (EG) (A1G) (?A) (?A) (?A) (A2U) (?A) (?A) (?A)
                 (T2G) (?B) (?B) (?B) (T2G) (?B) (?B) (?B) (T2G)
                 (?F) (?F) (?F) (EU) (?F) (?F) (?F) (EU) (?F) (?F)
                 (?F) (?F) (?E) (?F) (?F) (?E) (?F) (?F) (?F) (?E)
                 (?F) (?F) (?F) (?E) (T1U) (T1U) (T1U) (EG) (T2G)
                 (T2G) (T2G) (EG) (A1G) (T2G) (?B) (?B) (?B) (T2G)
                 (?B) (?B) (?B) (T2G) (T1U) (T1U) (T1U) (?A) (?A)
                 (?A) (A2U) (?A) (?A) (?A) (?F) (?F) (?F) (EU)
                 (?F) (?F) (?F) (EU) (?F) (?F) (?F) (EG) (T2G)
                 (T2G) (T2G) (EG) (?E) (?F) (?F) (?F) (?E) (?F)
                 (?F) (?F) (?E) (?F) (?F) (?F) (?E) (A1G) (T1U)
                 (T1U) (T1U) (EG) (T2G) (T2G) (T2G) (EG) (A1G)
                 (T1U) (T1U) (T1U) (EG) (T2G) (T2G) (T2G) (EG)
                 (A1G) (T1U) (T1U) (T1U) (EG) (T2G) (T2G) (T2G)
                 (EG) (A1G) (T1U) (T1U) (T1U) (A1G) (EG) (T2G)
                 (T2G) (T2G) (EG) (T1U) (T1U) (T1U) (A1G) (T1U)
                 (T1U) (T1U) (A1G) (EG) (T2G) (T2G) (T2G) (EG)
                 (T1U) (T1U) (T1U) (A1G) (T1U) (T1U) (T1U) (A1G)
                 (A1G) (T1U) (T1U) (T1U) (A1G) (T1U) (T1U) (T1U)
                 (A1G)
 The electronic state is 7-A1G.
 Alpha  occ. eigenvalues --   -3.57868  -2.29186  -2.29186  -2.29186  -0.36909
 Alpha  occ. eigenvalues --   -0.36909  -0.36909  -0.36909  -0.36909  -0.22704
 Alpha virt. eigenvalues --    0.01700   0.01700   0.01700   0.02258   0.05111
 Alpha virt. eigenvalues --    0.05111   0.05111   0.05111   0.05111   0.05737
 Alpha virt. eigenvalues --    0.05737   0.05737   0.11273   0.16251   0.16251
 Alpha virt. eigenvalues --    0.16251   0.16251   0.16251   0.18742   0.18742
 Alpha virt. eigenvalues --    0.18742   0.28734   0.28734   0.28734   0.28734
 Alpha virt. eigenvalues --    0.28734   0.28734   0.28734   0.35287   0.43595
 Alpha virt. eigenvalues --    0.43595   0.43595   0.43595   0.43595   0.54716
 Alpha virt. eigenvalues --    0.54716   0.54716   0.74026   0.74026   0.74026
 Alpha virt. eigenvalues --    0.74026   0.74026   0.74026   0.74026   0.74026
 Alpha virt. eigenvalues --    0.74026   0.91177   0.91177   0.91177   0.91177
 Alpha virt. eigenvalues --    0.91177   0.91177   0.91177   0.94215   1.09647
 Alpha virt. eigenvalues --    1.09647   1.09647   1.09647   1.09647   1.50549
 Alpha virt. eigenvalues --    1.50549   1.50549   1.92280   1.92280   1.92280
 Alpha virt. eigenvalues --    1.92280   1.92280   1.92280   1.92280   1.92280
 Alpha virt. eigenvalues --    1.92280   1.92280   1.92280   2.25834   2.25834
 Alpha virt. eigenvalues --    2.25834   2.25834   2.25834   2.25834   2.25834
 Alpha virt. eigenvalues --    2.25834   2.25834   2.46640   2.47879   2.47879
 Alpha virt. eigenvalues --    2.47879   2.47879   2.47879   2.47879   2.47879
 Alpha virt. eigenvalues --    2.55745   2.55745   2.55745   2.55745   2.55745
 Alpha virt. eigenvalues --    3.78022   3.78022   3.78022   5.46200   5.46200
 Alpha virt. eigenvalues --    5.46200   5.46200   5.46200   5.46200   5.46200
 Alpha virt. eigenvalues --    5.46200   5.46200   5.46200   5.46200   5.50541
 Alpha virt. eigenvalues --    5.50541   5.50541   5.50541   5.50541   5.74104
 Alpha virt. eigenvalues --    5.74104   5.74104   5.74104   5.74104   5.74104
 Alpha virt. eigenvalues --    5.74104   5.74104   5.74104   5.74104   5.74104
 Alpha virt. eigenvalues --    5.74104   5.74104   5.87546   5.87546   5.87546
 Alpha virt. eigenvalues --    5.87546   5.87546   5.87546   5.87546   6.06580
 Alpha virt. eigenvalues --    6.06580   6.06580   6.06580   6.06580   6.06580
 Alpha virt. eigenvalues --    6.06580   6.06580   6.06580   6.10811   8.44735
 Alpha virt. eigenvalues --    8.44735   8.44735  10.87969  10.87969  10.87969
 Alpha virt. eigenvalues --   10.87969  10.87969  13.63107  13.70683  13.70683
 Alpha virt. eigenvalues --   13.70683  13.70683  13.70683  13.70683  13.70683
 Alpha virt. eigenvalues --   13.86016  13.86016  13.86016  13.86016  13.86016
 Alpha virt. eigenvalues --   13.86016  13.86016  13.86016  13.86016  14.09591
 Alpha virt. eigenvalues --   14.09591  14.09591  14.09591  14.09591  14.09591
 Alpha virt. eigenvalues --   14.09591  14.09591  14.09591  14.09591  14.09591
 Alpha virt. eigenvalues --   15.12095  15.12095  15.12095  15.12095  15.12095
 Alpha virt. eigenvalues --   15.12095  15.12095  15.12095  15.12095  15.12095
 Alpha virt. eigenvalues --   15.12095  15.12095  15.12095  17.01687  17.01687
 Alpha virt. eigenvalues --   17.01687  19.83545  19.83545  19.83545  19.83545
 Alpha virt. eigenvalues --   19.83545  27.53365  30.30468  30.30468  30.30468
 Alpha virt. eigenvalues --   30.30468  30.30468  30.30468  30.30468  30.30468
 Alpha virt. eigenvalues --   30.30468  31.64511  31.64511  31.64511  32.33964
 Alpha virt. eigenvalues --   32.33964  32.33964  32.33964  32.33964  32.33964
 Alpha virt. eigenvalues --   32.33964  32.99167  32.99167  32.99167  32.99167
 Alpha virt. eigenvalues --   32.99167  32.99167  32.99167  32.99167  32.99167
 Alpha virt. eigenvalues --   32.99167  32.99167  34.07052  34.07052  34.07052
 Alpha virt. eigenvalues --   34.07052  34.07052  37.53178  37.53178  37.53178
 Alpha virt. eigenvalues --   37.53178  37.53178  37.53178  37.53178  37.53178
 Alpha virt. eigenvalues --   37.53178  37.53178  37.53178  37.53178  37.53178
 Alpha virt. eigenvalues --   51.97896  56.24394  56.24394  56.24394  56.95577
 Alpha virt. eigenvalues --   56.95577  56.95577  56.95578  56.95578  93.62815
 Alpha virt. eigenvalues --   98.76106  98.76106  98.76106  99.73778  99.73778
 Alpha virt. eigenvalues --   99.73778  99.73778  99.73778 156.32704 173.56339
 Alpha virt. eigenvalues --  173.56339 173.56339 205.19048 205.19048 205.19048
 Alpha virt. eigenvalues --  205.19048 205.19048 254.92978 308.61207 308.61207
 Alpha virt. eigenvalues --  308.61207 428.57876 524.22712 524.22712 524.22712
 Alpha virt. eigenvalues --  524.22712 524.22712 560.33874 560.33874 560.33874
 Alpha virt. eigenvalues --  742.973171050.394971050.394971050.394971330.08263
 Alpha virt. eigenvalues -- 1709.628981709.628981709.628981709.628981709.62898
 Alpha virt. eigenvalues -- 2056.566472056.566472056.566472465.911934258.93090
 Alpha virt. eigenvalues -- 4258.930904258.930904739.670449464.298949525.99006
 Alpha virt. eigenvalues -- 9525.990069525.99006******************************
 Alpha virt. eigenvalues -- ********************
     Molecular Orbital Coefficients:
                           1         2         3         4         5
                       (A1G)--O  (T1U)--O  (T1U)--O  (T1U)--O  (A1G)--O
     Eigenvalues --    -3.57868  -2.29186  -2.29186  -2.29186  -0.36909
   1 1   Cr 1S         -0.00000   0.00000   0.00000   0.00000   0.00000
   2        2S          0.00002   0.00000   0.00000   0.00000  -0.00000
   3        3S         -0.00006   0.00000   0.00000   0.00000   0.00001
   4        4S          0.00016   0.00000   0.00000   0.00000  -0.00004
   5        5S         -0.00044   0.00000   0.00000   0.00000   0.00010
   6        6S          0.00111   0.00000   0.00000   0.00000  -0.00025
   7        7S         -0.00285   0.00000   0.00000   0.00000   0.00064
   8        8S          0.00792   0.00000   0.00000   0.00000  -0.00180
   9        9S         -0.02661   0.00000   0.00000   0.00000   0.00621
  10       10S          0.08517   0.00000   0.00000   0.00000  -0.02074
  11       11S         -0.02216   0.00000   0.00000   0.00000   0.00679
  12       12S         -0.39839   0.00000   0.00000   0.00000   0.10374
  13       13S         -0.02880   0.00000   0.00000   0.00000   0.00717
  14       14S          0.07026   0.00000   0.00000   0.00000  -0.02167
  15       15S          0.53199   0.00000   0.00000   0.00000  -0.18461
  16       16S          0.29059   0.00000   0.00000   0.00000  -0.19751
  17       17S          0.01436   0.00000   0.00000   0.00000   0.00077
  18       18S          0.00118   0.00000   0.00000   0.00000   0.36992
  19       19S         -0.00137   0.00000   0.00000   0.00000   0.57282
  20       20S          0.00082   0.00000   0.00000   0.00000   0.20497
  21       21S         -0.00197   0.00000   0.00000   0.00000  -0.00461
  22       22S          0.34154   0.00000   0.00000   0.00000  -0.09967
  23       23S         -0.00022   0.00000   0.00000   0.00000   0.00233
  24       24PX         0.00000   0.00000   0.00000  -0.00000   0.00000
  25       24PY         0.00000  -0.00000   0.00000   0.00000   0.00000
  26       24PZ         0.00000   0.00000  -0.00000   0.00000   0.00000
  27       25PX         0.00000   0.00000   0.00000   0.00001   0.00000
  28       25PY         0.00000   0.00001   0.00000   0.00000   0.00000
  29       25PZ         0.00000   0.00000   0.00001   0.00000   0.00000
  30       26PX         0.00000   0.00000   0.00000  -0.00003   0.00000
  31       26PY         0.00000  -0.00003   0.00000   0.00000   0.00000
  32       26PZ         0.00000   0.00000  -0.00003   0.00000   0.00000
  33       27PX         0.00000   0.00000   0.00000   0.00010   0.00000
  34       27PY         0.00000   0.00010   0.00000   0.00000   0.00000
  35       27PZ         0.00000   0.00000   0.00010   0.00000   0.00000
  36       28PX         0.00000   0.00000   0.00000  -0.00032   0.00000
  37       28PY         0.00000  -0.00032   0.00000   0.00000   0.00000
  38       28PZ         0.00000   0.00000  -0.00032   0.00000   0.00000
  39       29PX         0.00000   0.00000   0.00000   0.00097   0.00000
  40       29PY         0.00000   0.00097   0.00000   0.00000   0.00000
  41       29PZ         0.00000   0.00000   0.00097   0.00000   0.00000
  42       30PX         0.00000   0.00000   0.00000  -0.00315   0.00000
  43       30PY         0.00000  -0.00315   0.00000   0.00000   0.00000
  44       30PZ         0.00000   0.00000  -0.00315   0.00000   0.00000
  45       31PX         0.00000   0.00000   0.00000   0.01176   0.00000
  46       31PY         0.00000   0.01176   0.00000   0.00000   0.00000
  47       31PZ         0.00000   0.00000   0.01176   0.00000   0.00000
  48       32PX         0.00000   0.00000   0.00000  -0.01913   0.00000
  49       32PY         0.00000  -0.01913   0.00000   0.00000   0.00000
  50       32PZ         0.00000   0.00000  -0.01913   0.00000   0.00000
  51       33PX         0.00000   0.00000   0.00000  -0.04808   0.00000
  52       33PY         0.00000  -0.04808   0.00000   0.00000   0.00000
  53       33PZ         0.00000   0.00000  -0.04808   0.00000   0.00000
  54       34PX         0.00000   0.00000   0.00000   0.07537   0.00000
  55       34PY         0.00000   0.07537   0.00000   0.00000   0.00000
  56       34PZ         0.00000   0.00000   0.07537   0.00000   0.00000
  57       35PX         0.00000   0.00000   0.00000   0.14633   0.00000
  58       35PY         0.00000   0.14633   0.00000   0.00000   0.00000
  59       35PZ         0.00000   0.00000   0.14633   0.00000   0.00000
  60       36PX         0.00000   0.00000   0.00000   0.36703   0.00000
  61       36PY         0.00000   0.36703   0.00000   0.00000   0.00000
  62       36PZ         0.00000   0.00000   0.36703   0.00000   0.00000
  63       37PX         0.00000   0.00000   0.00000   0.33756   0.00000
  64       37PY         0.00000   0.33756   0.00000   0.00000   0.00000
  65       37PZ         0.00000   0.00000   0.33756   0.00000   0.00000
  66       38PX         0.00000   0.00000   0.00000   0.12169   0.00000
  67       38PY         0.00000   0.12169   0.00000   0.00000   0.00000
  68       38PZ         0.00000   0.00000   0.12169   0.00000   0.00000
  69       39PX         0.00000   0.00000   0.00000   0.01414   0.00000
  70       39PY         0.00000   0.01414   0.00000   0.00000   0.00000
  71       39PZ         0.00000   0.00000   0.01414   0.00000   0.00000
  72       40PX         0.00000   0.00000   0.00000  -0.00094   0.00000
  73       40PY         0.00000  -0.00094   0.00000   0.00000   0.00000
  74       40PZ         0.00000   0.00000  -0.00094   0.00000   0.00000
  75       41PX         0.00000   0.00000   0.00000   0.00070   0.00000
  76       41PY         0.00000   0.00070   0.00000   0.00000   0.00000
  77       41PZ         0.00000   0.00000   0.00070   0.00000   0.00000
  78       42PX         0.00000   0.00000   0.00000  -0.06407   0.00000
  79       42PY         0.00000  -0.06407   0.00000   0.00000   0.00000
  80       42PZ         0.00000   0.00000  -0.06407   0.00000   0.00000
  81       43PX         0.00000   0.00000   0.00000   0.11967   0.00000
  82       43PY         0.00000   0.11967   0.00000   0.00000   0.00000
  83       43PZ         0.00000   0.00000   0.11967   0.00000   0.00000
  84       44PX         0.00000   0.00000   0.00000  -0.00020   0.00000
  85       44PY         0.00000  -0.00020   0.00000   0.00000   0.00000
  86       44PZ         0.00000   0.00000  -0.00020   0.00000   0.00000
  87       45D 0        0.00000   0.00000   0.00000   0.00000   0.00000
  88       45D+1        0.00000   0.00000   0.00000   0.00000   0.00000
  89       45D-1        0.00000   0.00000   0.00000   0.00000   0.00000
  90       45D+2        0.00000   0.00000   0.00000   0.00000   0.00000
  91       45D-2        0.00000   0.00000   0.00000   0.00000   0.00000
  92       46D 0       -0.00000   0.00000   0.00000   0.00000  -0.00000
  93       46D+1        0.00000   0.00000   0.00000   0.00000   0.00000
  94       46D-1        0.00000   0.00000   0.00000   0.00000   0.00000
  95       46D+2       -0.00000   0.00000   0.00000   0.00000  -0.00000
  96       46D-2        0.00000   0.00000   0.00000   0.00000   0.00000
  97       47D 0        0.00000   0.00000   0.00000   0.00000   0.00000
  98       47D+1        0.00000   0.00000   0.00000   0.00000   0.00000
  99       47D-1        0.00000   0.00000   0.00000   0.00000   0.00000
 100       47D+2        0.00000   0.00000   0.00000   0.00000   0.00000
 101       47D-2        0.00000   0.00000   0.00000   0.00000   0.00000
 102       48D 0        0.00000   0.00000   0.00000   0.00000   0.00000
 103       48D+1        0.00000   0.00000   0.00000   0.00000   0.00000
 104       48D-1        0.00000   0.00000   0.00000   0.00000   0.00000
 105       48D+2        0.00000   0.00000   0.00000   0.00000   0.00000
 106       48D-2        0.00000   0.00000   0.00000   0.00000   0.00000
 107       49D 0        0.00000   0.00000   0.00000   0.00000   0.00000
 108       49D+1        0.00000   0.00000   0.00000   0.00000   0.00000
 109       49D-1        0.00000   0.00000   0.00000   0.00000   0.00000
 110       49D+2        0.00000   0.00000   0.00000   0.00000   0.00000
 111       49D-2        0.00000   0.00000   0.00000   0.00000   0.00000
 112       50D 0       -0.00000   0.00000   0.00000   0.00000   0.00000
 113       50D+1        0.00000   0.00000   0.00000   0.00000   0.00000
 114       50D-1        0.00000   0.00000   0.00000   0.00000   0.00000
 115       50D+2       -0.00000   0.00000   0.00000   0.00000   0.00000
 116       50D-2        0.00000   0.00000   0.00000   0.00000   0.00000
 117       51D 0        0.00000   0.00000   0.00000   0.00000   0.00000
 118       51D+1        0.00000   0.00000   0.00000   0.00000   0.00000
 119       51D-1        0.00000   0.00000   0.00000   0.00000   0.00000
 120       51D+2        0.00000   0.00000   0.00000   0.00000   0.00000
 121       51D-2        0.00000   0.00000   0.00000   0.00000   0.00000
 122       52D 0        0.00000   0.00000   0.00000   0.00000   0.00000
 123       52D+1        0.00000   0.00000   0.00000   0.00000   0.00000
 124       52D-1        0.00000   0.00000   0.00000   0.00000   0.00000
 125       52D+2        0.00000   0.00000   0.00000   0.00000   0.00000
 126       52D-2        0.00000   0.00000   0.00000   0.00000   0.00000
 127       53D 0       -0.00000   0.00000   0.00000   0.00000   0.00000
 128       53D+1        0.00000   0.00000   0.00000   0.00000   0.00000
 129       53D-1        0.00000   0.00000   0.00000   0.00000   0.00000
 130       53D+2       -0.00000   0.00000   0.00000   0.00000   0.00000
 131       53D-2        0.00000   0.00000   0.00000   0.00000   0.00000
 132       54D 0       -0.00000   0.00000   0.00000   0.00000   0.00000
 133       54D+1        0.00000   0.00000   0.00000   0.00000   0.00000
 134       54D-1        0.00000   0.00000   0.00000   0.00000   0.00000
 135       54D+2       -0.00000   0.00000   0.00000   0.00000   0.00000
 136       54D-2        0.00000   0.00000   0.00000   0.00000   0.00000
 137       55D 0       -0.00000   0.00000   0.00000   0.00000   0.00000
 138       55D+1        0.00000   0.00000   0.00000   0.00000   0.00000
 139       55D-1        0.00000   0.00000   0.00000   0.00000   0.00000
 140       55D+2       -0.00000   0.00000   0.00000   0.00000   0.00000
 141       55D-2        0.00000   0.00000   0.00000   0.00000   0.00000
 142       56D 0       -0.00000   0.00000   0.00000   0.00000   0.00000
 143       56D+1        0.00000   0.00000   0.00000   0.00000   0.00000
 144       56D-1        0.00000   0.00000   0.00000   0.00000   0.00000
 145       56D+2       -0.00000   0.00000   0.00000   0.00000   0.00000
 146       56D-2        0.00000   0.00000   0.00000   0.00000   0.00000
 147       57D 0        0.00000   0.00000   0.00000   0.00000  -0.00000
 148       57D+1        0.00000   0.00000   0.00000   0.00000   0.00000
 149       57D-1        0.00000   0.00000   0.00000   0.00000   0.00000
 150       57D+2        0.00000   0.00000   0.00000   0.00000  -0.00000
 151       57D-2        0.00000   0.00000   0.00000   0.00000   0.00000
 152       58D 0       -0.00000   0.00000   0.00000   0.00000  -0.00000
 153       58D+1        0.00000   0.00000   0.00000   0.00000   0.00000
 154       58D-1        0.00000   0.00000   0.00000   0.00000   0.00000
 155       58D+2       -0.00000   0.00000   0.00000   0.00000  -0.00000
 156       58D-2        0.00000   0.00000   0.00000   0.00000   0.00000
 157       59D 0        0.00000   0.00000   0.00000   0.00000   0.00000
 158       59D+1        0.00000   0.00000   0.00000   0.00000   0.00000
 159       59D-1        0.00000   0.00000   0.00000   0.00000   0.00000
 160       59D+2        0.00000   0.00000   0.00000   0.00000   0.00000
 161       59D-2        0.00000   0.00000   0.00000   0.00000   0.00000
 162       60F 0        0.00000   0.00000  -0.00000   0.00000   0.00000
 163       60F+1        0.00000   0.00000   0.00000  -0.00000   0.00000
 164       60F-1        0.00000  -0.00000   0.00000   0.00000   0.00000
 165       60F+2        0.00000   0.00000  -0.00000   0.00000   0.00000
 166       60F-2        0.00000   0.00000   0.00000   0.00000   0.00000
 167       60F+3        0.00000   0.00000   0.00000  -0.00000   0.00000
 168       60F-3        0.00000   0.00000   0.00000   0.00000   0.00000
 169       61F 0        0.00000   0.00000  -0.00000   0.00000   0.00000
 170       61F+1        0.00000   0.00000   0.00000  -0.00000   0.00000
 171       61F-1        0.00000  -0.00000   0.00000   0.00000   0.00000
 172       61F+2        0.00000   0.00000  -0.00000   0.00000   0.00000
 173       61F-2        0.00000   0.00000   0.00000   0.00000   0.00000
 174       61F+3        0.00000   0.00000   0.00000  -0.00000   0.00000
 175       61F-3        0.00000  -0.00000   0.00000   0.00000   0.00000
 176       62F 0        0.00000   0.00000   0.00000   0.00000   0.00000
 177       62F+1        0.00000   0.00000   0.00000   0.00000   0.00000
 178       62F-1        0.00000   0.00000   0.00000   0.00000   0.00000
 179       62F+2        0.00000   0.00000   0.00000   0.00000   0.00000
 180       62F-2        0.00000   0.00000   0.00000   0.00000   0.00000
 181       62F+3        0.00000   0.00000   0.00000   0.00000   0.00000
 182       62F-3        0.00000   0.00000   0.00000   0.00000   0.00000
 183       63F 0        0.00000   0.00000  -0.00000   0.00000   0.00000
 184       63F+1        0.00000   0.00000   0.00000   0.00000   0.00000
 185       63F-1        0.00000  -0.00000   0.00000   0.00000   0.00000
 186       63F+2        0.00000   0.00000  -0.00000   0.00000   0.00000
 187       63F-2        0.00000   0.00000   0.00000   0.00000   0.00000
 188       63F+3        0.00000   0.00000   0.00000  -0.00000   0.00000
 189       63F-3        0.00000  -0.00000   0.00000   0.00000   0.00000
 190       64F 0        0.00000   0.00000  -0.00000   0.00000   0.00000
 191       64F+1        0.00000   0.00000   0.00000  -0.00000   0.00000
 192       64F-1        0.00000  -0.00000   0.00000   0.00000   0.00000
 193       64F+2        0.00000   0.00000  -0.00000   0.00000   0.00000
 194       64F-2        0.00000   0.00000   0.00000   0.00000   0.00000
 195       64F+3        0.00000   0.00000   0.00000  -0.00000   0.00000
 196       64F-3        0.00000  -0.00000   0.00000   0.00000   0.00000
 197       65F 0        0.00000   0.00000   0.00000   0.00000   0.00000
 198       65F+1        0.00000   0.00000   0.00000   0.00000   0.00000
 199       65F-1        0.00000   0.00000   0.00000   0.00000   0.00000
 200       65F+2        0.00000   0.00000   0.00000   0.00000   0.00000
 201       65F-2        0.00000   0.00000   0.00000   0.00000   0.00000
 202       65F+3        0.00000   0.00000   0.00000   0.00000   0.00000
 203       65F-3        0.00000   0.00000   0.00000   0.00000   0.00000
 204       66G 0       -0.00000   0.00000   0.00000   0.00000   0.00000
 205       66G+1        0.00000   0.00000   0.00000   0.00000   0.00000
 206       66G-1        0.00000   0.00000   0.00000   0.00000   0.00000
 207       66G+2       -0.00000   0.00000   0.00000   0.00000   0.00000
 208       66G-2        0.00000   0.00000   0.00000   0.00000   0.00000
 209       66G+3        0.00000   0.00000   0.00000   0.00000   0.00000
 210       66G-3        0.00000   0.00000   0.00000   0.00000   0.00000
 211       66G+4       -0.00000   0.00000   0.00000   0.00000   0.00000
[...]
 109       49D-1        0.02753   0.02753   0.00000   0.02753
 110       49D+2        0.02753   0.02753   0.00000   0.02753
 111       49D-2        0.02753   0.02753   0.00000   0.02753
 112       50D 0        0.07711   0.07711   0.00000   0.07711
 113       50D+1        0.07711   0.07711   0.00000   0.07711
 114       50D-1        0.07711   0.07711   0.00000   0.07711
 115       50D+2        0.07711   0.07711   0.00000   0.07711
 116       50D-2        0.07711   0.07711   0.00000   0.07711
 117       51D 0        0.19146   0.19146  -0.00000   0.19146
 118       51D+1        0.19146   0.19146  -0.00000   0.19146
 119       51D-1        0.19146   0.19146  -0.00000   0.19146
 120       51D+2        0.19146   0.19146  -0.00000   0.19146
 121       51D-2        0.19146   0.19146  -0.00000   0.19146
 122       52D 0        0.26143   0.26143  -0.00000   0.26143
 123       52D+1        0.26143   0.26143  -0.00000   0.26143
 124       52D-1        0.26143   0.26143  -0.00000   0.26143
 125       52D+2        0.26143   0.26143  -0.00000   0.26143
 126       52D-2        0.26143   0.26143  -0.00000   0.26143
 127       53D 0        0.23440   0.23440   0.00000   0.23440
 128       53D+1        0.23440   0.23440   0.00000   0.23440
 129       53D-1        0.23440   0.23440   0.00000   0.23440
 130       53D+2        0.23440   0.23440   0.00000   0.23440
 131       53D-2        0.23440   0.23440   0.00000   0.23440
 132       54D 0        0.13740   0.13740   0.00000   0.13740
 133       54D+1        0.13740   0.13740   0.00000   0.13740
 134       54D-1        0.13740   0.13740   0.00000   0.13740
 135       54D+2        0.13740   0.13740   0.00000   0.13740
 136       54D-2        0.13740   0.13740   0.00000   0.13740
 137       55D 0        0.03824   0.03824   0.00000   0.03824
 138       55D+1        0.03824   0.03824   0.00000   0.03824
 139       55D-1        0.03824   0.03824   0.00000   0.03824
 140       55D+2        0.03824   0.03824   0.00000   0.03824
 141       55D-2        0.03824   0.03824   0.00000   0.03824
 142       56D 0        0.00201   0.00201   0.00000   0.00201
 143       56D+1        0.00201   0.00201   0.00000   0.00201
 144       56D-1        0.00201   0.00201   0.00000   0.00201
 145       56D+2        0.00201   0.00201   0.00000   0.00201
 146       56D-2        0.00201   0.00201   0.00000   0.00201
 147       57D 0        0.01388   0.01388  -0.00000   0.01388
 148       57D+1        0.01388   0.01388  -0.00000   0.01388
 149       57D-1        0.01388   0.01388  -0.00000   0.01388
 150       57D+2        0.01388   0.01388  -0.00000   0.01388
 151       57D-2        0.01388   0.01388  -0.00000   0.01388
 152       58D 0        0.01002   0.01002   0.00000   0.01002
 153       58D+1        0.01002   0.01002   0.00000   0.01002
 154       58D-1        0.01002   0.01002   0.00000   0.01002
 155       58D+2        0.01002   0.01002   0.00000   0.01002
 156       58D-2        0.01002   0.01002   0.00000   0.01002
 157       59D 0       -0.00002  -0.00002  -0.00000  -0.00002
 158       59D+1       -0.00002  -0.00002  -0.00000  -0.00002
 159       59D-1       -0.00002  -0.00002  -0.00000  -0.00002
 160       59D+2       -0.00002  -0.00002  -0.00000  -0.00002
 161       59D-2       -0.00002  -0.00002  -0.00000  -0.00002
 162       60F 0        0.00000   0.00000   0.00000  -0.00000
 163       60F+1        0.00000   0.00000   0.00000  -0.00000
 164       60F-1        0.00000   0.00000   0.00000  -0.00000
 165       60F+2        0.00000   0.00000   0.00000   0.00000
 166       60F-2        0.00000   0.00000   0.00000  -0.00000
 167       60F+3        0.00000   0.00000   0.00000   0.00000
 168       60F-3        0.00000  -0.00000   0.00000  -0.00000
 169       61F 0        0.00000   0.00000   0.00000  -0.00000
 170       61F+1        0.00000   0.00000   0.00000  -0.00000
 171       61F-1        0.00000   0.00000   0.00000  -0.00000
 172       61F+2        0.00000   0.00000   0.00000   0.00000
 173       61F-2        0.00000   0.00000   0.00000  -0.00000
 174       61F+3        0.00000   0.00000   0.00000   0.00000
 175       61F-3        0.00000   0.00000   0.00000   0.00000
 176       62F 0       -0.00000  -0.00000  -0.00000   0.00000
 177       62F+1       -0.00000  -0.00000  -0.00000   0.00000
 178       62F-1       -0.00000  -0.00000  -0.00000   0.00000
 179       62F+2       -0.00000  -0.00000  -0.00000  -0.00000
 180       62F-2       -0.00000  -0.00000  -0.00000   0.00000
 181       62F+3       -0.00000  -0.00000  -0.00000  -0.00000
 182       62F-3       -0.00000  -0.00000  -0.00000  -0.00000
 183       63F 0        0.00000   0.00000   0.00000  -0.00000
 184       63F+1        0.00000  -0.00000   0.00000  -0.00000
 185       63F-1        0.00000   0.00000   0.00000  -0.00000
 186       63F+2        0.00000   0.00000   0.00000   0.00000
 187       63F-2        0.00000   0.00000   0.00000  -0.00000
 188       63F+3        0.00000   0.00000   0.00000   0.00000
 189       63F-3        0.00000   0.00000   0.00000   0.00000
 190       64F 0        0.00000   0.00000   0.00000  -0.00000
 191       64F+1        0.00000   0.00000   0.00000  -0.00000
 192       64F-1        0.00000   0.00000   0.00000  -0.00000
 193       64F+2        0.00000   0.00000   0.00000   0.00000
 194       64F-2        0.00000   0.00000   0.00000  -0.00000
 195       64F+3        0.00000   0.00000   0.00000   0.00000
 196       64F-3        0.00000   0.00000   0.00000   0.00000
 197       65F 0        0.00000   0.00000   0.00000  -0.00000
 198       65F+1        0.00000   0.00000   0.00000  -0.00000
 199       65F-1        0.00000   0.00000   0.00000  -0.00000
 200       65F+2        0.00000   0.00000   0.00000   0.00000
 201       65F-2        0.00000   0.00000   0.00000  -0.00000
 202       65F+3        0.00000   0.00000   0.00000   0.00000
 203       65F-3        0.00000   0.00000   0.00000   0.00000
 204       66G 0        0.00000   0.00000   0.00000   0.00000
 205       66G+1        0.00000   0.00000   0.00000   0.00000
 206       66G-1        0.00000   0.00000   0.00000   0.00000
 207       66G+2        0.00000   0.00000   0.00000   0.00000
 208       66G-2        0.00000   0.00000   0.00000   0.00000
 209       66G+3        0.00000   0.00000   0.00000   0.00000
 210       66G-3        0.00000   0.00000   0.00000   0.00000
 211       66G+4        0.00000   0.00000   0.00000   0.00000
 212       66G-4        0.00000   0.00000   0.00000   0.00000
 213       67G 0        0.00000   0.00000   0.00000   0.00000
 214       67G+1        0.00000   0.00000   0.00000   0.00000
 215       67G-1        0.00000   0.00000   0.00000   0.00000
 216       67G+2        0.00000   0.00000   0.00000   0.00000
 217       67G-2        0.00000   0.00000   0.00000   0.00000
 218       67G+3        0.00000   0.00000   0.00000   0.00000
 219       67G-3        0.00000   0.00000   0.00000   0.00000
 220       67G+4        0.00000   0.00000   0.00000   0.00000
 221       67G-4        0.00000   0.00000   0.00000   0.00000
 222       68G 0        0.00000   0.00000   0.00000   0.00000
 223       68G+1        0.00000   0.00000   0.00000   0.00000
 224       68G-1        0.00000   0.00000   0.00000   0.00000
 225       68G+2        0.00000   0.00000   0.00000   0.00000
 226       68G-2        0.00000   0.00000   0.00000   0.00000
 227       68G+3        0.00000   0.00000   0.00000   0.00000
 228       68G-3        0.00000   0.00000   0.00000   0.00000
 229       68G+4        0.00000   0.00000   0.00000   0.00000
 230       68G-4        0.00000   0.00000   0.00000   0.00000
 231       69G 0        0.00000   0.00000   0.00000   0.00000
 232       69G+1        0.00000   0.00000   0.00000   0.00000
 233       69G-1        0.00000   0.00000   0.00000   0.00000
 234       69G+2        0.00000   0.00000   0.00000   0.00000
 235       69G-2        0.00000   0.00000   0.00000   0.00000
 236       69G+3        0.00000   0.00000   0.00000   0.00000
 237       69G-3        0.00000   0.00000   0.00000   0.00000
 238       69G+4        0.00000   0.00000   0.00000   0.00000
 239       69G-4        0.00000   0.00000   0.00000   0.00000
 240       70G 0        0.00000   0.00000   0.00000   0.00000
 241       70G+1        0.00000   0.00000   0.00000   0.00000
 242       70G-1        0.00000   0.00000   0.00000   0.00000
 243       70G+2        0.00000   0.00000   0.00000   0.00000
 244       70G-2        0.00000   0.00000   0.00000   0.00000
 245       70G+3        0.00000   0.00000   0.00000   0.00000
 246       70G-3        0.00000   0.00000   0.00000   0.00000
 247       70G+4        0.00000   0.00000   0.00000   0.00000
 248       70G-4        0.00000   0.00000   0.00000   0.00000
 249       71H 0        0.00000   0.00000   0.00000  -0.00000
 250       71H+1        0.00000   0.00000   0.00000  -0.00000
 251       71H-1        0.00000   0.00000   0.00000  -0.00000
 252       71H+2        0.00000   0.00000   0.00000  -0.00000
 253       71H-2        0.00000   0.00000   0.00000  -0.00000
 254       71H+3        0.00000   0.00000   0.00000  -0.00000
 255       71H-3        0.00000   0.00000   0.00000  -0.00000
 256       71H+4        0.00000   0.00000   0.00000   0.00000
 257       71H-4        0.00000   0.00000   0.00000  -0.00000
 258       71H+5        0.00000   0.00000   0.00000   0.00000
 259       71H-5        0.00000   0.00000   0.00000   0.00000
 260       72H 0        0.00000   0.00000   0.00000  -0.00000
 261       72H+1        0.00000   0.00000   0.00000  -0.00000
 262       72H-1        0.00000   0.00000   0.00000  -0.00000
 263       72H+2        0.00000  -0.00000   0.00000  -0.00000
 264       72H-2        0.00000  -0.00000   0.00000  -0.00000
 265       72H+3        0.00000   0.00000   0.00000  -0.00000
 266       72H-3        0.00000   0.00000   0.00000  -0.00000
 267       72H+4        0.00000   0.00000   0.00000   0.00000
 268       72H-4        0.00000   0.00000   0.00000  -0.00000
 269       72H+5        0.00000   0.00000   0.00000   0.00000
 270       72H-5        0.00000   0.00000   0.00000   0.00000
 271       73H 0       -0.00000  -0.00000  -0.00000   0.00000
 272       73H+1       -0.00000  -0.00000  -0.00000   0.00000
 273       73H-1       -0.00000  -0.00000  -0.00000   0.00000
 274       73H+2       -0.00000  -0.00000  -0.00000   0.00000
 275       73H-2       -0.00000  -0.00000  -0.00000   0.00000
 276       73H+3       -0.00000  -0.00000  -0.00000   0.00000
 277       73H-3       -0.00000  -0.00000  -0.00000  -0.00000
 278       73H+4       -0.00000  -0.00000  -0.00000  -0.00000
 279       73H-4       -0.00000  -0.00000  -0.00000   0.00000
 280       73H+5       -0.00000  -0.00000  -0.00000  -0.00000
 281       73H-5       -0.00000  -0.00000  -0.00000  -0.00000
 282       74H 0        0.00000   0.00000   0.00000  -0.00000
 283       74H+1        0.00000   0.00000   0.00000  -0.00000
 284       74H-1        0.00000   0.00000   0.00000  -0.00000
 285       74H+2        0.00000   0.00000   0.00000  -0.00000
 286       74H-2        0.00000   0.00000   0.00000  -0.00000
 287       74H+3        0.00000   0.00000   0.00000  -0.00000
 288       74H-3        0.00000   0.00000   0.00000   0.00000
 289       74H+4        0.00000   0.00000   0.00000   0.00000
 290       74H-4        0.00000   0.00000   0.00000  -0.00000
 291       74H+5        0.00000   0.00000   0.00000   0.00000
 292       74H-5        0.00000   0.00000   0.00000   0.00000
 293       75I 0        0.00000   0.00000   0.00000   0.00000
 294       75I+1        0.00000   0.00000   0.00000   0.00000
 295       75I-1        0.00000   0.00000   0.00000   0.00000
 296       75I+2        0.00000   0.00000   0.00000   0.00000
 297       75I-2        0.00000   0.00000   0.00000   0.00000
 298       75I+3        0.00000   0.00000   0.00000   0.00000
 299       75I-3        0.00000   0.00000   0.00000   0.00000
 300       75I+4        0.00000   0.00000   0.00000   0.00000
 301       75I-4        0.00000   0.00000   0.00000   0.00000
 302       75I+5        0.00000   0.00000   0.00000   0.00000
 303       75I-5        0.00000   0.00000   0.00000   0.00000
 304       75I+6        0.00000   0.00000   0.00000   0.00000
 305       75I-6        0.00000   0.00000   0.00000   0.00000
 306       76I 0       -0.00000  -0.00000   0.00000  -0.00000
 307       76I+1        0.00000   0.00000   0.00000   0.00000
 308       76I-1       -0.00000  -0.00000   0.00000  -0.00000
 309       76I+2       -0.00000  -0.00000   0.00000  -0.00000
 310       76I-2        0.00000   0.00000   0.00000   0.00000
 311       76I+3       -0.00000  -0.00000   0.00000  -0.00000
 312       76I-3       -0.00000  -0.00000   0.00000  -0.00000
 313       76I+4       -0.00000  -0.00000   0.00000  -0.00000
 314       76I-4       -0.00000  -0.00000   0.00000  -0.00000
 315       76I+5       -0.00000  -0.00000   0.00000  -0.00000
 316       76I-5       -0.00000  -0.00000   0.00000  -0.00000
 317       76I+6       -0.00000  -0.00000   0.00000  -0.00000
 318       76I-6       -0.00000  -0.00000   0.00000  -0.00000
 319       77I 0        0.00000   0.00000   0.00000   0.00000
 320       77I+1        0.00000   0.00000   0.00000   0.00000
 321       77I-1        0.00000   0.00000   0.00000   0.00000
 322       77I+2        0.00000   0.00000  -0.00000   0.00000
 323       77I-2        0.00000   0.00000   0.00000   0.00000
 324       77I+3        0.00000   0.00000   0.00000   0.00000
 325       77I-3        0.00000   0.00000   0.00000   0.00000
 326       77I+4        0.00000   0.00000   0.00000   0.00000
 327       77I-4        0.00000   0.00000   0.00000   0.00000
 328       77I+5        0.00000   0.00000   0.00000   0.00000
 329       77I-5        0.00000   0.00000   0.00000   0.00000
 330       77I+6        0.00000   0.00000  -0.00000   0.00000
 331       77I-6        0.00000   0.00000  -0.00000   0.00000
          Condensed to atoms (all electrons):
               1
     1  Cr  14.000000
          Atomic-Atomic Spin Densities.
               1
     1  Cr   6.000000
 Mulliken charges and spin densities:
               1          2
     1  Cr  -0.000000   6.000000
 Sum of Mulliken charges =  -0.00000   6.00000
 Mulliken charges and spin densities with hydrogens summed into heavy atoms:
               1          2
     1  Cr  -0.000000   6.000000
 Electronic spatial extent (au):  <R**2>=             36.6735
 Charge=             -0.0000 electrons
 Dipole moment (field-independent basis, Debye):
    X=              0.0000    Y=              0.0000    Z=              0.0000  Tot=              0.0000
 Quadrupole moment (field-independent basis, Debye-Ang):
   XX=            -16.4424   YY=            -16.4424   ZZ=            -16.4424
   XY=             -0.0000   XZ=              0.0000   YZ=              0.0000
 Traceless Quadrupole moment (field-independent basis, Debye-Ang):
   XX=             -0.0000   YY=              0.0000   ZZ=             -0.0000
   XY=             -0.0000   XZ=              0.0000   YZ=              0.0000
 Octapole moment (field-independent basis, Debye-Ang**2):
  XXX=              0.0000  YYY=              0.0000  ZZZ=              0.0000  XYY=              0.0000
  XXY=              0.0000  XXZ=              0.0000  XZZ=              0.0000  YZZ=              0.0000
  YYZ=              0.0000  XYZ=              0.0000
 Hexadecapole moment (field-independent basis, Debye-Ang**3):
 XXXX=            -38.3410 YYYY=            -38.3407 ZZZZ=            -38.3410 XXXY=             -0.0000
 XXXZ=              0.0000 YYYX=             -0.0000 YYYZ=              0.0000 ZZZX=              0.0000
 ZZZY=              0.0000 XXYY=            -12.7803 XXZZ=            -12.7803 YYZZ=            -12.7803
 XXYZ=              0.0000 YYXZ=              0.0000 ZZXY=             -0.0000
 N-N= 0.000000000000D+00 E-N=-1.964326610684D+02  KE= 4.600753971073D+01
 Symmetry AG   KE= 1.355377197198D+01
 Symmetry B1G  KE= 4.792179176811D+00
 Symmetry B2G  KE= 4.792179825542D+00
 Symmetry B3G  KE= 4.792179017458D+00
 Symmetry AU   KE= 8.327231870941D-48
 Symmetry B1U  KE= 6.025743276084D+00
 Symmetry B2U  KE= 6.025743134945D+00
 Symmetry B3U  KE= 6.025743308158D+00
 Symmetry AG   SP= 3.000000000000D+00
 Symmetry B1G  SP= 1.000000000000D+00
 Symmetry B2G  SP= 1.000000000000D+00
 Symmetry B3G  SP= 1.000000000000D+00
 Symmetry AU   SP=-4.049918351290D-49
 Symmetry B1U  SP=-5.004139125366D-15
 Symmetry B2U  SP= 5.819579398843D-15
 Symmetry B3U  SP= 4.500056239571D-16
 Orbital energies and kinetic energies (alpha):
                                 1                 2
   1         (A1G)--O         -3.578684          1.845793
   2         (T1U)--O         -2.291863          3.012872
   3         (T1U)--O         -2.291863          3.012872
   4         (T1U)--O         -2.291863          3.012872
   5         (A1G)--O         -0.369091          0.277827
   6         (EG)--O          -0.369091          4.792179
   7         (T2G)--O         -0.369091          4.792179
   8         (T2G)--O         -0.369091          4.792179
   9         (T2G)--O         -0.369091          4.792180
  10         (EG)--O          -0.227041          4.792180
  11         (T1U)--V          0.016998          0.034178
  12         (T1U)--V          0.016998          0.034178
  13         (T1U)--V          0.016998          0.034178
  14         (A1G)--V          0.022581          0.032782
  15         (EG)--V           0.051111          0.056989
 Total kinetic energy from orbitals= 7.024626352976D+01
                          Isotropic Fermi Contact Couplings
        Atom                 a.u.       MegaHertz       Gauss      10(-4) cm-1
     1  Cr(53)             0.00006      -0.00236      -0.00084      -0.00079
 --------------------------------------------------------
       Center         ----  Spin Dipole Couplings  ----
                      3XX-RR        3YY-RR        3ZZ-RR
 --------------------------------------------------------
     1   Atom        0.000002     -0.000004      0.000001
 --------------------------------------------------------
                        XY            XZ            YZ
 --------------------------------------------------------
     1   Atom        0.000000      0.000000      0.000000
 --------------------------------------------------------


 ---------------------------------------------------------------------------------
              Anisotropic Spin Dipole Couplings in Principal Axis System
 ---------------------------------------------------------------------------------

       Atom             a.u.   MegaHertz   Gauss  10(-4) cm-1        Axes

              Baa    -0.0000     0.000     0.000     0.000 -0.0000  1.0000  0.0000
     1 Cr(53) Bbb     0.0000    -0.000    -0.000    -0.000  0.0000  0.0000  1.0000
              Bcc     0.0000    -0.000    -0.000    -0.000  1.0000  0.0000  0.0000
 

 ---------------------------------------------------------------------------------

 No NMR shielding tensors so no spin-rotation constants.
 Leave Link  601 at Thu Apr  5 18:27:16 2018, MaxMem= 10737418240 cpu:             334.3 elap:              17.1
 (Enter /home1/apps/gaussian/16rA.03/g16/l9999.exe)

 Test job not archived.
 1\1\GINC-C455-023\SP\ROCCSD(T)-Full\Gen\Cr1(7)\AANNABE\05-Apr-2018\0\\
 #P ROCCSD(T)=(maxcyc=150, Full)/Gen 5d 7f SCF=(maxcycles=300, NoVarAcc
 , VShift=300) MaxDisk=100GB Pop=Regular Pseudo=Read Guess=Read IOp(5/1
 5=2)\\Cr\\0,7\Cr,0,0.,0.,0.\\Version=ES64L-G16RevA.03\State=7-A1G\HF=-
 85.8402338\MP2=-86.4042015\MP3=-86.3932976\PUHF=-85.8402338\PMP2-0=-86
 .4042015\MP4SDQ=-86.3962971\CCSD=-86.3953523\CCSD(T)=-86.4128685\RMSD=
 7.904e-09\PG=OH [O(Cr1)]\\@


 SCIENCE IS LONG AND LIFE IS SHORT.

                     DON MOSER IN THE FEBRUARY 1979 SMITHSONIAN
 Job cpu time:       0 days 17 hours  3 minutes  3.3 seconds.
 Elapsed time:       0 days  0 hours 51 minutes 18.5 seconds.
 File lengths (MBytes):  RWF=   7542 Int=      0 D2E=      0 Chk=     13 Scr=      1
 Normal termination of Gaussian 16 at Thu Apr  5 18:27:16 2018.
