<?xml version="1.0"?>
<molpro xmlns="http://www.molpro.net/schema/molpro-output"
  xmlns:xsd="http://www.w3.org/1999/XMLSchema"
  xmlns:cml="http://www.xml-cml.org/schema"
  xmlns:stm="http://www.xml-cml.org/schema"
  xmlns:xhtml="http://www.w3.org/1999/xhtml">
 <!--

 Primary working directories    : /tmp/cmelton
 Secondary working directories  : /tmp/cmelton
 Wavefunction directory         : /remote/cmelton/wfu/
 Main file repository           : /tmp/cmelton/

 SHA1      : 4c1979699e6aeda0524d0210415ba82a958648b0
 NAME      : 2012.1.39
 ARCHNAME  : Linux/x86_64
 FC        : /projects/sems/install/rhel6-x86_64/sems/compiler/intel/16.0.1/base/bin/ifort
 FCVERSION : 16.0.1
 BLASLIB   : -L/projects/sems/install/rhel6-x86_64/sems/compiler/intel/16.0.1/base/compilers_and_libraries_2016.1.150/linux/mkl/lib/intel64 -lmkl_intel_ilp64 -lmkl_sequential -lmkl_core
 id        : sandiacon

 Nodes             nprocs
 s989256.sandia.gov    1

 Using customized tuning parameters: mindgm=7; mindgv=16; mindgc=1; mindgr=1; noblas=0; minvec=7
 default implementation of scratch files=df  

 --><job>
  <!--
 ***,Calculation for Be atom, singlet and triplet
 memory,512,m
 gthresh,twoint=1.0E-12
 
 set,dkroll=1,dkho=10,dkhp=4
 basis={
 Including file /remote/cmelton/data/corrECP/VH/uc/aug-cc-pwCVQZ-dk.basis
 }
 
 ne    =24
 symm  =1
 ss    =4
 
 A1=7
 B1=3
 B2=3
 A2=1
 
 do i=1,16
     z(i) = 1.3 + 0.05*(i-1)
     geometry={
         2
         Oxygen
         V  0.0 0.0 0.0
         H  0.0 0.0 z(i)
     }
     {rhf
      wf,ne,symm,ss
      occ,A1,B1,B2,A2
      open,7.1,3.2,3.3,1.4
      print,orbitals=3
     }
     scf(i)=energy
     _CC_NORM_MAX=2.0
     {rccsd(t);maxit,100;core,3,1,1,0}
     ccsd(i)=energy
 enddo
 
 geometry={
    1
    Vanadium
    V 0.0 0.0 0.0
 }
 {rhf;
  start,atden
  wf,23,6,3;
  occ,6,2,2,0,2,1,0,0;
  open,5.1,6.1,1.6;
  sym,1,1,1,1,1,3,2
 }
 V_scf=energy
 _CC_NORM_MAX=2.0
 {rccsd(t);maxit,100;core,2,1,1,0,1,0,0,0}
 V_ccsd=energy
 
 geometry={
    1
    Oxygen
    H 0.0 0.0 0.0
 }
 {rhf;
  wf,1,1,1;
  occ,1,0,0,0,0,0,0,0;
  open,1.1;
 }
 H_scf=energy
 
 table,z,scf,ccsd
 save
 type,csv

 Variables initialized (782), CPU time= 0.01 sec
 Commands  initialized (547), CPU time= 0.01 sec, 517 directives.
 Default parameters read. Elapsed time= 0.16 sec

 Checking input...
 Passed
1


                                         ***  PROGRAM SYSTEM MOLPRO  ***
                         Copyright, University College Cardiff Consultants Limited, 2008

                                    Version 2012.1 linked Aug  2 2016 14:07:26


 **********************************************************************************************************************************
 LABEL *   Calculation for Be atom, singlet and triplet                                  
 Linux-3.10.0-693.2.2.el7.x86_64/s989256.sandia.gov(x86_64) 64 bit serial version        DATE: 25-Jan-18          TIME: 09:23:41  
 **********************************************************************************************************************************

 SHA1:             4c1979699e6aeda0524d0210415ba82a958648b0
 **********************************************************************************************************************************
  -->
  <!--

 THRESHOLDS:

 ZERO    =  1.00D-12  ONEINT  =  1.00D-12  TWOINT  =  1.00D-12  PREFAC  =  1.00D-14  LOCALI  =  1.00D-09  EORDER  =  1.00D-04
 ENERGY  =  0.00D+00  ETEST   =  0.00D+00  EDENS   =  0.00D+00  THRDEDEF=  1.00D-06  GRADIENT=  1.00D-02  STEP    =  1.00D-03
 ORBITAL =  1.00D-05  CIVEC   =  1.00D-05  COEFF   =  1.00D-04  PRINTCI =  5.00D-02  PUNCHCI =  9.90D+01  OPTGRAD =  3.00D-04
 OPTENERG=  1.00D-06  OPTSTEP =  3.00D-04  THRGRAD =  1.00D-10  COMPRESS=  1.00D-11  VARMIN  =  1.00D-07  VARMAX  =  1.00D-03
 THRDOUB =  0.00D+00  THRDIV  =  1.00D-05  THRRED  =  1.00D-07  THRPSP  =  1.00D+00  THRDC   =  1.00D-10  THRCS   =  1.00D-10
 THRNRM  =  1.00D-08  THREQ   =  0.00D+00  THRDE   =  1.00D+00  THRREF  =  1.00D-05  SPARFAC =  1.00D+00  THRDLP  =  1.00D-07
 THRDIA  =  1.00D-10  THRDLS  =  1.00D-07  THRGPS  =  0.00D+00  THRKEX  =  0.00D+00  THRDIS  =  2.00D-01  THRVAR  =  1.00D-10
 THRLOC  =  1.00D-06  THRGAP  =  1.00D-06  THRLOCT = -1.00D+00  THRGAPT = -1.00D+00  THRORB  =  1.00D-06  THRMLTP =  0.00D+00
 THRCPQCI=  1.00D-10  KEXTA   =  0.00D+00  THRCOARS=  0.00D+00  SYMTOL  =  1.00D-06  GRADTOL =  1.00D-06  THROVL  =  1.00D-08
 THRORTH =  1.00D-08  GRID    =  1.00D-06  GRIDMAX =  1.00D-03  DTMAX   =  0.00D+00  THROCCDE=  1.00D-01  THROCCDE=  1.00D-01


 SETTING DKROLL         =         1.00000000                                  
 SETTING DKHO           =        10.00000000                                  
 SETTING DKHP           =         4.00000000                                  

 Variable memory set to  512000000 words,  buffer space   230000 words

 SETTING BASIS          =    USERDEF
 SETTING NE             =        24.00000000                                  
 SETTING SYMM           =         1.00000000                                  
 SETTING SS             =         4.00000000                                  
 SETTING A1             =         7.00000000                                  
 SETTING B1             =         3.00000000                                  
 SETTING B2             =         3.00000000                                  
 SETTING A2             =         1.00000000                                  

 DO I                   =         1.00000000   
 SETTING Z(1)           =         1.30000000                                  

Geometry recognized as XYZ

  --><jobstep command="RHF-SCF" commandset="SCFPRO">
   <!--


 Recomputing integrals since basis changed


 Using spherical harmonics


1PROGRAM * SEWARD (Integral evaluation for generally contracted gaussian basis sets)     Author: Roland Lindh, 1990

 Geometry written to block  1 of record 700


 Point group  C2v 


   --><cml:symmetry pointGroup="C2v"/><!--
   --><cml:atomArray>
    <cml:atom id="a1" elementType="V" x3="0.0" y3="0.0" z3="0.0"/>
    <cml:atom id="a2" elementType="H" x3="0.0" y3="0.0" z3="1.3"/>
   </cml:atomArray><!--
   --><cml:bondArray>
    <cml:bond atomRefs2="a1 a2"/>
   </cml:bondArray><!--

 ATOMIC COORDINATES

 NR  ATOM    CHARGE       X              Y              Z

   1  V      23.00    0.000000000    0.000000000    0.000000000
   2  H       1.00    0.000000000    0.000000000    2.456643971

 Bond lengths in Bohr (Angstrom)

 1-2  2.456643971
     ( 1.300000000)

 NUCLEAR CHARGE:                   24
 NUMBER OF PRIMITIVE AOS:         402
 NUMBER OF SYMMETRY AOS:          310
 NUMBER OF CONTRACTIONS:          310   ( 126A1  +  73B1  +  73B2  +  38A2  )
 NUMBER OF CORE ORBITALS:           9   (   5A1  +   2B1  +   2B2  +   0A2  )
 NUMBER OF VALENCE ORBITALS:        7   (   4A1  +   1B1  +   1B2  +   1A2  )


 NUCLEAR REPULSION ENERGY    9.36236601

 One-electron integrals computed with SEWARD

 10nd-order Douglas-Kroll-Hess method activated. McWeeny DKH parametrization is used.

 Computing Douglas-Kroll integrals

 AO integral compression algorithm  1   Integral accuracy      1.0D-12

     873.464 MB (compressed) written to integral file ( 36.5%)


 NUMBER OF SORTED TWO-ELECTRON INTEGRALS:  297476048.     BUFFER LENGTH:  32768
 NUMBER OF SEGMENTS:  10  SEGMENT LENGTH:   31996000      RECORD LENGTH: 524288

 Memory used in sort:      32.55 MW

 SORT1 READ   299065286. AND WROTE   137074284. INTEGRALS IN    396 RECORDS. CPU TIME:     4.70 SEC, REAL TIME:     5.96 SEC
 SORT2 READ   137074284. AND WROTE   297476048. INTEGRALS IN   3332 RECORDS. CPU TIME:     5.13 SEC, REAL TIME:     5.97 SEC

 FILE SIZES:   FILE 1:   884.2 MBYTE,  FILE 4:  1661.0 MBYTE,   TOTAL:   2545.2 MBYTE

 OPERATOR DM      FOR CENTER  0  COORDINATES:    0.000000    0.000000    0.000000

 EXTRA SYMMETRY OF AOS IN SYMMETRY 1:   1 1 1 1 1 1 1 1 1 1   1 1 1 1 1 1 1 1 1 1   1 1 1 1 1 1 1 1 1 1   1 1 1 1 1 1 1 1 1 1
                                        1 1 1 1 1 1 1 2 1 2   1 2 1 2 1 2 1 2 1 2   1 2 1 2 1 2 1 2 1 2   1 2 1 2 1 2 1 2 1 2
                                        1 2 1 2 1 3 2 1 3 2   1 3 2 1 3 2 2 3 1 2   3 1 2 3 1 1 1 1 1 1   1 1 1 1 1 1 1 2 1 2
                                        1 2 1 2 1 2
 EXTRA SYMMETRY OF AOS IN SYMMETRY 2:   1 1 1 1 1 1 1 1 1 1   1 1 1 1 1 1 1 1 1 1   1 1 1 1 1 1 1 1 1 1   1 1 1 1 1 1 2 1 2 1
                                        2 1 2 1 2 1 2 1 2 1   2 1 2 1 2 3 1 2 3 1   2 3 1 1 1 1 1 1 1 1   2 1 2
 EXTRA SYMMETRY OF AOS IN SYMMETRY 3:   1 1 1 1 1 1 1 1 1 1   1 1 1 1 1 1 1 1 1 1   1 1 1 1 1 1 1 1 1 1   1 1 1 1 1 1 2 1 2 1
                                        2 1 2 1 2 1 2 1 2 1   2 1 2 1 2 3 1 2 3 1   2 3 1 1 1 1 1 1 1 1   2 1 2
 EXTRA SYMMETRY OF AOS IN SYMMETRY 4:   1 1 1 1 1 1 1 1 1 1   1 1 1 1 1 1 1 1 1 1   2 1 2 1 2 1 2 2 1 2   1 2 1 1 1 1 1 1

 Eigenvalues of metric

         1 0.596E-07 0.297E-06 0.334E-05 0.103E-04 0.228E-04 0.262E-04 0.311E-04 0.115E-03
         2 0.631E-07 0.435E-05 0.251E-04 0.572E-03 0.830E-03 0.943E-03 0.190E-02 0.331E-02
         3 0.631E-07 0.435E-05 0.251E-04 0.572E-03 0.830E-03 0.943E-03 0.190E-02 0.331E-02
         4 0.262E-04 0.888E-03 0.955E-02 0.113E-01 0.330E-01 0.643E-01 0.947E-01 0.134E+00


 **********************************************************************************************************************************
 DATASETS  * FILE   NREC   LENGTH (MB)   RECORD NAMES
              1      23      649.66       500      610      700      900      950      970     1000      129      960     1700   
                                          VAR    BASINP    GEOM    SYMINP    ZMAT    AOBASIS   BASIS     P2S    ABASIS    OPER   
                                         1101     1401     1411     1412     1650     1100     1400     1410     1200     1210   
                                          SR      EKINR    POTR     PVPR    MOLCAS      S      EKIN      POT      H0       H01  
                                         1300     1080     1600   
                                         ERIS     AOSYM     SMH  

 PROGRAMS   *        TOTAL       INT
 CPU TIMES  *        79.35     79.24
 REAL TIME  *        83.55 SEC
 DISK USED  *         2.55 GB      
 **********************************************************************************************************************************

1PROGRAM * RHF-SCF (OPEN SHELL)       Authors: W. Meyer, H.-J. Werner


 NUMBER OF ELECTRONS:      14+   10-    SPACE SYMMETRY=1    SPIN SYMMETRY: Quintet 
 CONVERGENCE THRESHOLDS:    1.00E-05 (Density)    1.00E-07 (Energy)
 MAX. NUMBER OF ITERATIONS:       60
 INTERPOLATION TYPE:            DIIS
 INTERPOLATION STEPS:              2 (START)      1 (STEP)
 LEVEL SHIFTS:                 -0.30 (CLOSED)  0.00 (OPEN) 


 Singly occupied orbitals:      7.1       3.2       3.3       1.4
 Orbital guess generated from atomic densities. Full valence occupancy:    9   3   3   1

 Molecular orbital dump at record        2100.2

 ITERATION    DDIFF          GRAD             ENERGY        2-EL.EN.            DIPOLE MOMENTS         DIIS   ORB.
    1      0.000D+00      0.000D+00      -948.60336742    728.094282    0.00000    0.00000   -1.37226    0    start
    2      0.000D+00      0.625D-02      -948.63313094    730.230667    0.00000    0.00000   -0.93274    1    diag,B
    3      0.150D-02      0.183D-02      -948.63939160    728.914479    0.00000    0.00000   -0.96141    2    diag,B
    4      0.128D-02      0.701D-03      -948.64239022    729.491195    0.00000    0.00000   -0.91617    3    diag,B
    5      0.369D-03      0.500D-03      -948.64492348    728.880084    0.00000    0.00000   -0.86697    4    diag,B
    6      0.391D-03      0.313D-03      -948.64644847    728.768722    0.00000    0.00000   -0.80400    5    diag,B
    7      0.276D-03      0.226D-03      -948.64848125    728.335938    0.00000    0.00000   -0.65349    6    fixocc
    8      0.530D-03      0.128D-03      -948.64913968    728.153079    0.00000    0.00000   -0.53453    7    diag,B
    9      0.318D-03      0.594D-04      -948.64932568    728.020592    0.00000    0.00000   -0.44702    8    diag,B
   10      0.220D-03      0.215D-04      -948.64933735    727.986947    0.00000    0.00000   -0.43024    9    orth
   11      0.561D-04      0.107D-04      -948.64934002    727.975105    0.00000    0.00000   -0.41900    9    diag,B
   12      0.378D-04      0.495D-05      -948.64934027    727.969830    0.00000    0.00000   -0.41907    9    diag,B
   13      0.107D-04      0.206D-05      -948.64934032    727.968795    0.00000    0.00000   -0.41810    9    diag,B
   14      0.491D-05      0.796D-06      -948.64934033    727.968499    0.00000    0.00000   -0.41802    0    orth

 Final alpha occupancy:   7   3   3   1
 Final beta  occupancy:   6   2   2   0

 !RHF STATE 1.1 Energy               -948.649340329911
   --><property name="Energy" method="RHF" principal="true" stateSymmetry="1" stateNumber="1"
     value="-948.649340329911"/><!--
 Nuclear energy                         9.36236601
 One-electron energy                -1321.99595564
 Two-electron energy                  363.98424931
 Virial quotient                       -0.96695609
 !RHF STATE 1.1 Dipole moment           0.00000000     0.00000000    -0.41801967
 Dipole moment /Debye                   0.00000000     0.00000000    -1.06243044
   --><property name="Dipole moment" method="RHF" principal="true" stateSymmetry="1"
     stateNumber="1" value="0.0 0.0 -0.418019673514815"/><!--

 ELECTRON ORBITALS
 =================


   Orb  Occ    Energy  Couls-En    Coefficients

                                   1 1s      1 1s      1 1s      1 1s      1 1s      1 1s      1 1s      1 1s      1 1s      1 1s   
                                   1 1s      1 1s      1 1s      1 1s      1 1s      1 1s      1 1s      1 1s      1 1s      1 1s   
                                   1 1s      1 1s      1 1s      1 1s      1 1s      1 2pz     1 2pz     1 2pz     1 2pz     1 2pz  
                                   1 2pz     1 2pz     1 2pz     1 2pz     1 2pz     1 2pz     1 2pz     1 2pz     1 2pz     1 2pz  
                                   1 2pz     1 2pz     1 2pz     1 2pz     1 2pz     1 2pz     1 3d0     1 3d2+    1 3d0     1 3d2+ 
                                   1 3d0     1 3d2+    1 3d0     1 3d2+    1 3d0     1 3d2+    1 3d0     1 3d2+    1 3d0     1 3d2+ 
                                   1 3d0     1 3d2+    1 3d0     1 3d2+    1 3d0     1 3d2+    1 3d0     1 3d2+    1 3d0     1 3d2+ 
                                   1 3d0     1 3d2+    1 3d0     1 3d2+    1 4f0     1 4f2+    1 4f0     1 4f2+    1 4f0     1 4f2+ 
                                   1 4f0     1 4f2+    1 4f0     1 4f2+    1 5g0     1 5g4+    1 5g2+    1 5g0     1 5g4+    1 5g2+ 
                                   1 5g0     1 5g4+    1 5g2+    1 5g0     1 5g4+    1 5g2+    1 6h2+    1 6h4+    1 6h0     1 6h2+ 
                                   1 6h4+    1 6h0     1 6h2+    1 6h4+    1 6h0     2 1s      2 1s      2 1s      2 1s      2 1s   
                                   2 1s      2 1s      2 2pz     2 2pz     2 2pz     2 2pz     2 3d0     2 3d2+    2 3d0     2 3d2+ 
                                   2 3d0     2 3d2+    2 4f0     2 4f2+    2 4f0     2 4f2+ 

   1.1   2  -202.7920 -469.4430  0.000055  0.000159  0.000425  0.001050  0.002570  0.006331  0.015804  0.038908  0.089926  0.182737
                                 0.296516  0.322571  0.175236  0.026977 -0.002463  0.015379  0.001250  0.000759 -0.000069 -0.000031
                                -0.000002 -0.000005 -0.014454 -0.001326 -0.000001 -0.000000 -0.000000 -0.000000 -0.000000 -0.000001
                                -0.000003 -0.000006 -0.000000  0.000002  0.000007 -0.000317 -0.000030  0.000181  0.000029 -0.000017
                                -0.000021 -0.000002 -0.000002  0.000327 -0.000185 -0.000000 -0.000001  0.000000 -0.000002 -0.000000
                                 0.000000  0.000000 -0.000000 -0.000000  0.000001  0.000000  0.000009  0.000000  0.000002  0.000000
                                 0.000001 -0.000000 -0.000012  0.000000 -0.000002 -0.000000  0.000000  0.000000 -0.000006 -0.000000
                                -0.000007 -0.000000 -0.000000 -0.000000  0.000004 -0.000000 -0.000001  0.000000  0.000001 -0.000000
                                -0.000004  0.000000 -0.000000  0.000000 -0.000001 -0.000001  0.000000  0.000000  0.000000  0.000000
                                 0.000000 -0.000000 -0.000000 -0.000001  0.000000  0.000000 -0.000000  0.000000 -0.000000  0.000000
                                 0.000000  0.000000 -0.000000  0.000000  0.000000 -0.000000  0.000000  0.000000 -0.000003  0.000037
                                 0.000017  0.000005  0.000000  0.000000 -0.000016 -0.000005 -0.000001 -0.000000  0.000001  0.000000
                                 0.000002 -0.000000 -0.000000  0.000000  0.000001 -0.000000

   2.1   2   -24.0749  -89.4463 -0.000017 -0.000048 -0.000128 -0.000317 -0.000778 -0.001928 -0.004850 -0.012182 -0.029183 -0.064286
                                -0.121337 -0.177273 -0.120258  0.200815  0.548805  0.407366  0.060391  0.009454  0.000317  0.000157
                                 0.000072  0.000019 -0.035831 -0.015108 -0.000004  0.000000  0.000000  0.000001  0.000004  0.000013
                                 0.000042  0.000109  0.000221  0.000317  0.000463 -0.001410 -0.000090  0.000857  0.000005  0.000073
                                 0.000039  0.000022 -0.000018  0.001850 -0.000846  0.000001  0.000000  0.000000  0.000001 -0.000000
                                -0.000009  0.000000 -0.000033 -0.000000 -0.000041  0.000000 -0.000124  0.000000 -0.000134  0.000000
                                 0.000079 -0.000000  0.000016  0.000000  0.000021 -0.000000 -0.000002  0.000000  0.000050 -0.000000
                                 0.000167 -0.000000 -0.000000 -0.000000  0.000061 -0.000000 -0.000117  0.000000  0.000051 -0.000000
                                 0.000029  0.000000  0.000006  0.000000 -0.000058 -0.000065 -0.000000 -0.000052 -0.000061  0.000000
                                 0.000025 -0.000007 -0.000000  0.000004 -0.000001  0.000000  0.000000 -0.000000 -0.000000 -0.000000
                                 0.000000  0.000006 -0.000000  0.000000  0.000011  0.000000 -0.000001  0.000011 -0.000102 -0.000088
                                -0.000080  0.000011  0.000004  0.000048 -0.000004  0.000004 -0.000004 -0.000000  0.000002  0.000000
                                 0.000005 -0.000000 -0.000011  0.000000  0.000003 -0.000000

   3.1   2   -19.9798  -84.3352  0.000000  0.000000  0.000000  0.000000  0.000001  0.000003  0.000006  0.000016  0.000039  0.000085
                                 0.000160  0.000236  0.000163 -0.000300 -0.000739  0.000001  0.000080  0.001005 -0.000419 -0.000122
                                -0.000070 -0.000022 -0.000398 -0.000986  0.000000  0.000043  0.000178  0.000780  0.003056  0.010747
                                 0.032720  0.084861  0.178155  0.288200  0.327201  0.226434  0.057647 -0.003140 -0.000096  0.000052
                                 0.000005  0.000027  0.000017 -0.016767  0.007363 -0.000001  0.000001 -0.000000  0.000007 -0.000000
                                 0.000036 -0.000000  0.000199 -0.000000  0.000287 -0.000000 -0.000011 -0.000000  0.000000 -0.000000
                                -0.000121  0.000000  0.000045 -0.000000  0.000009  0.000000  0.000011 -0.000000 -0.000091  0.000000
                                 0.000022  0.000000 -0.000001  0.000000 -0.000298 -0.000000 -0.000134  0.000000 -0.000165 -0.000000
                                -0.000005  0.000000  0.000002 -0.000000  0.000041  0.000000 -0.000000 -0.000035  0.000000  0.000000
                                -0.000015  0.000000  0.000000  0.000008  0.000000  0.000000  0.000000  0.000003  0.000008 -0.000000
                                -0.000012 -0.000026  0.000000  0.000002  0.000001 -0.000000  0.000008 -0.000020  0.000151  0.000193
                                 0.000060 -0.000004  0.000005 -0.000145 -0.000118 -0.000038  0.000019 -0.000000  0.000075 -0.000000
                                 0.000025 -0.000000 -0.000013 -0.000000 -0.000012  0.000000

   4.1   2    -3.1523  -28.1095  0.000006  0.000017  0.000046  0.000114  0.000281  0.000696  0.001751  0.004416  0.010599  0.023630
                                 0.045245  0.068971  0.048593 -0.092414 -0.351342 -0.401992  0.243374  0.688421  0.336360  0.008557
                                -0.003954  0.002779  0.044448  0.008558 -0.000250 -0.000000 -0.000000 -0.000002 -0.000007 -0.000026
                                -0.000078 -0.000212 -0.000441 -0.000768 -0.000854 -0.006278  0.001240  0.008923  0.002801 -0.003960
                                -0.004210  0.000410 -0.000027  0.005868 -0.005632  0.000192 -0.000002 -0.000000 -0.000017  0.000000
                                -0.000090 -0.000000 -0.000242  0.000000 -0.000966 -0.000000 -0.003222 -0.000000 -0.002629 -0.000000
                                -0.001313  0.000000 -0.002657 -0.000000 -0.000491  0.000000 -0.000020 -0.000000  0.001185  0.000000
                                 0.001315  0.000000  0.000058  0.000000 -0.000213  0.000000 -0.000232 -0.000000 -0.000358  0.000000
                                -0.000754 -0.000000 -0.000121 -0.000000 -0.000173 -0.000161  0.000000 -0.000175 -0.000454 -0.000000
                                -0.000592 -0.000773  0.000000 -0.000243 -0.000035 -0.000000 -0.000000  0.000001  0.000005 -0.000000
                                 0.000002  0.000128  0.000000  0.000009 -0.000055  0.000074  0.000520  0.002111  0.006285  0.008817
                                -0.000348 -0.001220 -0.000963 -0.002131 -0.002472  0.000625  0.000511 -0.000000  0.000543 -0.000000
                                -0.000045  0.000000 -0.000201  0.000000  0.000040  0.000000

   5.1   2    -1.9685  -24.9739 -0.000000 -0.000000 -0.000000 -0.000001 -0.000003 -0.000006 -0.000016 -0.000040 -0.000097 -0.000213
                                -0.000415 -0.000617 -0.000467  0.000938  0.002822  0.013492  0.004736  0.013735 -0.016384 -0.005153
                                -0.001683  0.001103 -0.011928 -0.018135  0.000455 -0.000015 -0.000061 -0.000269 -0.001060 -0.003743
                                -0.011552 -0.030599 -0.066476 -0.111468 -0.135198 -0.018671  0.186835  0.364748  0.378476  0.166769
                                 0.016035 -0.001567  0.001726 -0.033969  0.031629 -0.000033 -0.000004  0.000000 -0.000033 -0.000000
                                -0.000182  0.000000 -0.000577  0.000000 -0.002203  0.000000 -0.006406  0.000000 -0.004330  0.000000
                                -0.002528 -0.000000  0.001033  0.000000 -0.000169 -0.000000  0.000187  0.000000  0.002533 -0.000000
                                 0.003546 -0.000000  0.000098 -0.000000 -0.001020 -0.000000 -0.002329  0.000000 -0.003668 -0.000000
                                -0.001245 -0.000000 -0.000117  0.000000  0.000104  0.000002 -0.000000  0.000417  0.000004  0.000000
                                 0.000359  0.000015 -0.000000  0.000027  0.000008 -0.000000  0.000000  0.000110  0.000154  0.000000
                                 0.000101  0.000418 -0.000000 -0.000083 -0.000081  0.000269  0.001944  0.008604  0.023589  0.016963
                                 0.003367 -0.002459 -0.002457 -0.005583 -0.003153 -0.000074  0.001037 -0.000000  0.001745  0.000000
                                 0.000390  0.000000 -0.000476 -0.000000 -0.000399 -0.000000

   6.1   2    -0.4145  -11.0084 -0.000001 -0.000003 -0.000008 -0.000020 -0.000048 -0.000120 -0.000302 -0.000763 -0.001832 -0.004092
                                -0.007844 -0.012030 -0.008497  0.016384  0.065491  0.080513 -0.054385 -0.178845 -0.151328  0.133597
                                 0.091892  0.011365 -0.011787 -0.004205 -0.004384  0.000003  0.000012  0.000054  0.000211  0.000748
                                 0.002306  0.006129  0.013323  0.022507  0.027121  0.026427 -0.040755 -0.100870 -0.091419 -0.041514
                                 0.059126  0.037966  0.000213 -0.017755  0.006461 -0.001178  0.000109  0.000000  0.000963 -0.000000
                                 0.004748 -0.000000  0.015634 -0.000000  0.039120  0.000000  0.073721  0.000000  0.102601  0.000000
                                 0.104831 -0.000000  0.086631 -0.000000  0.044783 -0.000000  0.005143  0.000000 -0.000622 -0.000000
                                -0.005236 -0.000000 -0.000407 -0.000000  0.001013  0.000000  0.003581 -0.000000  0.010546 -0.000000
                                 0.011780 -0.000000  0.005423 -0.000000 -0.000118  0.000029 -0.000000  0.000811  0.000004 -0.000000
                                -0.000051  0.000284 -0.000000  0.000612  0.000142 -0.000000 -0.000000 -0.000033  0.000054 -0.000000
                                -0.000020  0.000287  0.000000  0.000124 -0.000830  0.001813  0.013853  0.064470  0.205971  0.338165
                                 0.220392  0.016708 -0.002367 -0.015169 -0.023684 -0.016837  0.001012 -0.000000  0.003248  0.000000
                                 0.002255 -0.000000 -0.000426 -0.000000 -0.000103  0.000000

   7.1   +    -0.2331   -8.6285 -0.000001 -0.000003 -0.000008 -0.000020 -0.000048 -0.000119 -0.000300 -0.000757 -0.001821 -0.004054
                                -0.007807 -0.011891 -0.008562  0.016669  0.063597  0.115220 -0.042167 -0.156729 -0.190687  0.244191
                                 0.544897  0.192444 -0.049491 -0.031410  0.000189 -0.000002 -0.000008 -0.000034 -0.000135 -0.000478
                                -0.001479 -0.003919 -0.008563 -0.014363 -0.017706  0.003632  0.028713  0.057361  0.064563  0.026106
                                -0.137279 -0.232229 -0.080235 -0.009833  0.002708 -0.000117 -0.000098  0.000000 -0.000860  0.000000
                                -0.004249  0.000000 -0.013986  0.000000 -0.035021  0.000000 -0.064079 -0.000000 -0.087300 -0.000000
                                -0.095116  0.000000 -0.099549  0.000000 -0.072190  0.000000 -0.017809  0.000000 -0.000165  0.000000
                                 0.000731  0.000000 -0.000670 -0.000000 -0.000183 -0.000000 -0.000776 -0.000000  0.000024 -0.000000
                                 0.005231 -0.000000  0.006684 -0.000000  0.000262 -0.000092  0.000000  0.000065 -0.000838  0.000000
                                -0.000495 -0.002216  0.000000 -0.000543 -0.001525 -0.000000  0.000000 -0.000008 -0.000067  0.000000
                                 0.000025 -0.000169  0.000000  0.000086  0.000064 -0.000437 -0.003317 -0.015832 -0.049615 -0.058654
                                -0.031543  0.019050  0.001188  0.003615  0.002173  0.002675 -0.000577  0.000000 -0.001455  0.000000
                                -0.001861  0.000000  0.000366  0.000000  0.000320  0.000000

   8.1   0     0.0207   -2.2879  0.000000  0.000000  0.000001  0.000003  0.000007  0.000016  0.000041  0.000099  0.000252  0.000523
                                 0.001107  0.001452  0.001491 -0.003315 -0.004224 -0.118862 -0.035103 -0.036730 -0.038926  1.044249
                                 1.368040  3.848454  0.120055  0.088199  2.958933  0.000000  0.000001  0.000004  0.000018  0.000060
                                 0.000199  0.000484  0.001179  0.001637  0.003188 -0.056639 -0.008802  0.013212 -0.019817  0.009404
                                 0.705273  0.873823  1.593430  0.059219 -0.016718  1.392712 -0.000017 -0.000000 -0.000165  0.000000
                                -0.000723  0.000000 -0.002780  0.000000 -0.003883 -0.000000  0.012636 -0.000000  0.001239 -0.000000
                                -0.031169  0.000000  0.185029 -0.000000  0.265549  0.000000  0.272772 -0.000000 -0.012202  0.000000
                                -0.026609  0.000000  0.272260  0.000000 -0.000040  0.000000 -0.000451  0.000000  0.000323  0.000000
                                 0.080045  0.000000  0.094383 -0.000000  0.000085 -0.000046 -0.000000 -0.000253 -0.000085  0.000000
                                 0.005292 -0.000092 -0.000000  0.022492  0.000022  0.000000 -0.000000  0.000001 -0.000053 -0.000000
                                -0.000009  0.000282  0.000000 -0.000010  0.000517 -0.000083 -0.000754 -0.002609 -0.009494 -0.628989
                                -2.186966 -6.865005  0.000517  0.005121  0.211610  0.366336 -0.000076 -0.000000 -0.006645  0.000000
                                 0.004849 -0.000000  0.000740  0.000000 -0.009760  0.000000

   9.1   0     0.0226   -2.6523 -0.000000 -0.000001 -0.000002 -0.000004 -0.000011 -0.000027 -0.000070 -0.000170 -0.000426 -0.000899
                                -0.001862 -0.002531 -0.002403  0.005212  0.008900  0.161166  0.042563  0.034372 -0.072620  0.778893
                                -0.639091  1.878799 -0.159146 -0.108589 -1.623151  0.000000 -0.000000  0.000002 -0.000008  0.000038
                                -0.000097  0.000382 -0.000958  0.003446 -0.013848  0.939931  0.104522 -0.787363 -0.178161  0.168327
                                 0.115390  0.283729 -0.460491 -0.972851  0.831978  1.044654 -0.000041 -0.000000 -0.000369 -0.000000
                                -0.001800 -0.000000 -0.006017 -0.000000 -0.014311 -0.000000 -0.021273 -0.000000 -0.035857 -0.000000
                                -0.031686  0.000000  0.059984 -0.000000 -0.010017  0.000000 -0.024111 -0.000000 -0.003116  0.000000
                                -0.005691  0.000000 -0.079880  0.000000  0.000207 -0.000000 -0.001421  0.000000  0.005507 -0.000000
                                 0.038469  0.000000  0.005335  0.000000  0.000045 -0.000057  0.000000  0.000278 -0.000315 -0.000000
                                 0.004950 -0.000697  0.000000  0.008378 -0.000487  0.000000  0.000000  0.000001 -0.000082 -0.000000
                                -0.000003  0.000456  0.000000  0.000011  0.000446 -0.000077 -0.000794 -0.002286 -0.010033 -0.329968
                                -0.303418 -0.124336 -0.000915  0.013208  0.131576  0.089319  0.000361 -0.000000 -0.012600 -0.000000
                                -0.020183 -0.000000  0.000850  0.000000 -0.000457  0.000000

  10.1   0     0.0440   -2.4135 -0.000000 -0.000000 -0.000000 -0.000000 -0.000000 -0.000001 -0.000001 -0.000011  0.000002 -0.000079
                                 0.000065 -0.000411  0.000678 -0.002256  0.010526 -0.255599 -0.128097 -0.394750  0.191149  0.297226
                                -3.839300 11.385783  0.284340  0.389214  1.493234 -0.000000 -0.000002 -0.000008 -0.000035 -0.000105
                                -0.000390 -0.000834 -0.002380 -0.002408 -0.008615  0.292097  0.038118 -0.197558 -0.033486  0.134043
                                -0.094453 -1.752777  3.375443 -0.303723  0.218364  1.337869  0.000028 -0.000000  0.000191  0.000000
                                 0.001192  0.000000  0.002821  0.000000  0.015358 -0.000000  0.080450 -0.000000  0.064171 -0.000000
                                 0.021148  0.000000  0.079239 -0.000000 -0.339912  0.000000 -0.092790 -0.000000 -0.032514  0.000000
                                -0.069940  0.000000  1.710814  0.000000  0.000267 -0.000000 -0.001334  0.000000  0.008994 -0.000000
                                -0.007173  0.000000 -0.094620 -0.000000 -0.000285  0.000048  0.000000  0.000881  0.000159  0.000000
                                -0.000284  0.000309  0.000000 -0.002976  0.000148  0.000000  0.000000 -0.000002 -0.000002 -0.000000
                                 0.000010  0.000369  0.000000  0.000004 -0.000605  0.000021  0.000282  0.000349  0.022854 -0.108139
                                 2.364509-12.045725 -0.002423  0.005739  0.092286 -0.152966  0.000811 -0.000000 -0.016852  0.000000
                                -0.092029 -0.000000  0.001585  0.000000  0.015949  0.000000

                                   1 2px     1 2px     1 2px     1 2px     1 2px     1 2px     1 2px     1 2px     1 2px     1 2px  
                                   1 2px     1 2px     1 2px     1 2px     1 2px     1 2px     1 2px     1 2px     1 2px     1 2px  
                                   1 2px     1 3d1+    1 3d1+    1 3d1+    1 3d1+    1 3d1+    1 3d1+    1 3d1+    1 3d1+    1 3d1+ 
                                   1 3d1+    1 3d1+    1 3d1+    1 3d1+    1 3d1+    1 4f1+    1 4f3+    1 4f1+    1 4f3+    1 4f1+ 
                                   1 4f3+    1 4f1+    1 4f3+    1 4f1+    1 4f3+    1 5g1+    1 5g3+    1 5g1+    1 5g3+    1 5g1+ 
                                   1 5g3+    1 5g1+    1 5g3+    1 6h1+    1 6h3+    1 6h5+    1 6h1+    1 6h3+    1 6h5+    1 6h1+ 
                                   1 6h3+    1 6h5+    2 2px     2 2px     2 2px     2 2px     2 3d1+    2 3d1+    2 3d1+    2 4f1+ 
                                   2 4f3+    2 4f1+    2 4f3+ 

   1.2   2   -19.9806  -84.3298  0.000043  0.000178  0.000780  0.003055  0.010745  0.032714  0.084844  0.178122  0.288142  0.327198
                                 0.224695  0.057552 -0.001306  0.000141  0.000156  0.000009  0.000010 -0.000002 -0.014905  0.005457
                                 0.000001 -0.000000 -0.000004 -0.000014  0.000022  0.000081  0.000065  0.000021 -0.000038  0.000001
                                 0.000001  0.000001  0.000006 -0.000007 -0.000000  0.000091 -0.000242  0.000131 -0.000198  0.000028
                                -0.000099  0.000015 -0.000014  0.000001 -0.000001  0.000029 -0.000000 -0.000031  0.000000  0.000001
                                 0.000001  0.000003  0.000000  0.000004 -0.000001  0.000006 -0.000017  0.000002 -0.000019  0.000004
                                -0.000001  0.000003 -0.000002  0.000002 -0.000013 -0.000006 -0.000001 -0.000009 -0.000000  0.000007
                                -0.000000  0.000005  0.000000

   2.2   2    -1.9568  -25.0779 -0.000015 -0.000062 -0.000272 -0.001069 -0.003778 -0.011653 -0.030887 -0.067039 -0.112598 -0.135943
                                -0.056701  0.183846  0.402141  0.389774  0.167961  0.015942 -0.001181  0.000569  0.004889 -0.002547
                                -0.000153  0.000002  0.000020  0.000097  0.000269  0.000884  0.002526  0.002371 -0.001050 -0.002081
                                -0.000730 -0.000145 -0.000225 -0.000545  0.000018  0.000478 -0.001064  0.000657 -0.002148  0.000778
                                -0.004071  0.000008 -0.001951 -0.000072  0.000081  0.000079 -0.000001  0.000089  0.000003 -0.000256
                                 0.000034 -0.000098  0.000018  0.000113 -0.000029  0.000180  0.000220 -0.000027  0.000173 -0.000139
                                 0.000017 -0.000123  0.000468  0.001317  0.001629  0.000649 -0.000358 -0.000686 -0.000342  0.000221
                                -0.000008  0.000013  0.000020

   3.2   +    -0.4226  -18.3433 -0.000000 -0.000001 -0.000003 -0.000014 -0.000048 -0.000148 -0.000396 -0.000854 -0.001471 -0.001714
                                -0.006305  0.002366  0.015567  0.010046 -0.005798 -0.029720 -0.020047 -0.001629  0.005968 -0.009739
                                -0.000036  0.000354  0.003115  0.015396  0.050740  0.127684  0.231834  0.306670  0.308588  0.223559
                                 0.090002  0.007870  0.000198 -0.000746 -0.000185  0.000145  0.000005  0.000495  0.000021 -0.000058
                                 0.000268 -0.003907  0.000504 -0.001186  0.000131 -0.000182 -0.000379 -0.000752 -0.001173 -0.002524
                                -0.001801 -0.002280 -0.000711  0.000119 -0.000001  0.000000  0.000361  0.000005  0.000012  0.000120
                                 0.000027  0.000026  0.002933  0.007826  0.009183 -0.000060 -0.001286 -0.001999 -0.000116  0.000527
                                 0.000001  0.000112  0.000020

   4.2   0     0.0128   -3.4566  0.000001  0.000005  0.000023  0.000085  0.000327  0.000917  0.002714  0.005129  0.010850  0.005351
                                 0.411528  0.027124 -0.374105 -0.110775  0.029622 -0.004518  0.351245 -0.123008 -0.421813  0.352881
                                 0.920922  0.000014  0.000129  0.000629  0.002108  0.005076  0.007824  0.011484  0.014139  0.002955
                                -0.012529 -0.014031  0.000860  0.001725 -0.074572 -0.000065  0.000059 -0.000058  0.000111  0.000162
                                -0.000767 -0.004032 -0.002195 -0.002700 -0.001315 -0.000028 -0.000015  0.000102 -0.000042 -0.000369
                                -0.000034  0.000032  0.000064  0.000022 -0.000001  0.000009 -0.000031  0.000005 -0.000039 -0.000341
                                 0.000009 -0.000028  0.000608  0.002173  0.010514 -0.029577 -0.000019 -0.001110 -0.000251  0.000144
                                -0.000003 -0.000231  0.000009

   5.2   0     0.0484   -2.9674 -0.000001 -0.000005 -0.000020 -0.000096 -0.000267 -0.001065 -0.002108 -0.006600 -0.005436 -0.026819
                                 1.043149  0.132924 -0.812779 -0.127240  0.131895 -0.382042 -0.004260 -1.371707 -1.083546  0.893475
                                 1.218661 -0.000023 -0.000152 -0.000997 -0.002214 -0.013592 -0.072604 -0.057003  0.006404 -0.103506
                                -0.030438 -0.302428  0.030692  0.063392  0.772696 -0.000102 -0.000058  0.000780 -0.000111 -0.002622
                                 0.000742 -0.031027  0.002084 -0.068504  0.001523 -0.000082  0.000020  0.000413  0.000056 -0.004834
                                 0.000045 -0.014158 -0.000049 -0.000024  0.000001 -0.000008 -0.000005 -0.000005  0.000038 -0.002724
                                -0.000006  0.000023 -0.000063 -0.005152  0.088219  0.387555  0.000798 -0.007905 -0.078681  0.000512
                                 0.000003  0.007542 -0.000017

   6.2   0     0.0514   -2.8747 -0.000001 -0.000005 -0.000019 -0.000092 -0.000257 -0.001014 -0.002037 -0.006263 -0.005382 -0.024939
                                 0.950937  0.122385 -0.748705 -0.120544  0.130938 -0.152632  0.524350 -1.151024 -0.988025  0.826196
                                 0.921405  0.000002 -0.000039  0.000075 -0.000926  0.006382  0.063925  0.043181 -0.029765  0.065253
                                 0.054808  0.506327 -0.033347 -0.069480 -1.000414  0.000125 -0.000055 -0.000218 -0.000104  0.000570
                                 0.000720  0.012849  0.002009  0.112953  0.001464 -0.000029  0.000002  0.000087  0.000005 -0.000663
                                -0.000002  0.013068 -0.000085  0.000028  0.000001 -0.000008 -0.000210 -0.000004  0.000037  0.000946
                                -0.000010  0.000020 -0.000908 -0.000111 -0.046220 -0.460839 -0.000244  0.001828  0.046358  0.000382
                                 0.000003 -0.004218 -0.000005

                                   1 2py     1 2py     1 2py     1 2py     1 2py     1 2py     1 2py     1 2py     1 2py     1 2py  
                                   1 2py     1 2py     1 2py     1 2py     1 2py     1 2py     1 2py     1 2py     1 2py     1 2py  
                                   1 2py     1 3d1-    1 3d1-    1 3d1-    1 3d1-    1 3d1-    1 3d1-    1 3d1-    1 3d1-    1 3d1- 
                                   1 3d1-    1 3d1-    1 3d1-    1 3d1-    1 3d1-    1 4f1-    1 4f3-    1 4f1-    1 4f3-    1 4f1- 
                                   1 4f3-    1 4f1-    1 4f3-    1 4f1-    1 4f3-    1 5g1-    1 5g3-    1 5g1-    1 5g3-    1 5g1- 
                                   1 5g3-    1 5g1-    1 5g3-    1 6h1-    1 6h3-    1 6h5-    1 6h1-    1 6h3-    1 6h5-    1 6h1- 
                                   1 6h3-    1 6h5-    2 2py     2 2py     2 2py     2 2py     2 3d1-    2 3d1-    2 3d1-    2 4f1- 
                                   2 4f3-    2 4f1-    2 4f3- 

   1.3   2   -19.9806  -84.3298  0.000043  0.000178  0.000780  0.003055  0.010745  0.032714  0.084844  0.178122  0.288142  0.327198
                                 0.224695  0.057552 -0.001306  0.000141  0.000156  0.000009  0.000010 -0.000002 -0.014905  0.005457
                                 0.000001 -0.000000 -0.000004 -0.000014  0.000022  0.000081  0.000065  0.000021 -0.000038  0.000001
                                 0.000001  0.000001  0.000006 -0.000007 -0.000000  0.000091  0.000242  0.000131  0.000198  0.000028
                                 0.000099  0.000015  0.000014  0.000001  0.000001  0.000029  0.000000 -0.000031 -0.000000  0.000001
                                -0.000001  0.000003 -0.000000  0.000004  0.000001  0.000006 -0.000017 -0.000002 -0.000019  0.000004
                                 0.000001  0.000003 -0.000002  0.000002 -0.000013 -0.000006 -0.000001 -0.000009 -0.000000  0.000007
                                 0.000000  0.000005 -0.000000

   2.3   2    -1.9568  -25.0779 -0.000015 -0.000062 -0.000272 -0.001069 -0.003778 -0.011653 -0.030887 -0.067039 -0.112598 -0.135943
                                -0.056701  0.183846  0.402141  0.389774  0.167961  0.015942 -0.001181  0.000569  0.004889 -0.002547
                                -0.000153  0.000002  0.000020  0.000097  0.000269  0.000884  0.002526  0.002371 -0.001050 -0.002081
                                -0.000730 -0.000145 -0.000225 -0.000545  0.000018  0.000478  0.001064  0.000657  0.002148  0.000778
                                 0.004071  0.000008  0.001951 -0.000072 -0.000081  0.000079  0.000001  0.000089 -0.000003 -0.000256
                                -0.000034 -0.000098 -0.000018  0.000113  0.000029  0.000180  0.000220  0.000027  0.000173 -0.000139
                                -0.000017 -0.000123  0.000468  0.001317  0.001629  0.000649 -0.000358 -0.000686 -0.000342  0.000221
                                 0.000008  0.000013 -0.000020

   3.3   +    -0.4226  -18.3433 -0.000000 -0.000001 -0.000003 -0.000014 -0.000048 -0.000148 -0.000396 -0.000854 -0.001471 -0.001714
                                -0.006305  0.002366  0.015567  0.010046 -0.005798 -0.029720 -0.020047 -0.001629  0.005968 -0.009739
                                -0.000036  0.000354  0.003115  0.015396  0.050740  0.127684  0.231834  0.306670  0.308588  0.223559
                                 0.090002  0.007870  0.000198 -0.000746 -0.000185  0.000145 -0.000005  0.000495 -0.000021 -0.000058
                                -0.000268 -0.003907 -0.000504 -0.001186 -0.000131 -0.000182  0.000379 -0.000752  0.001173 -0.002524
                                 0.001801 -0.002280  0.000711  0.000119  0.000001  0.000000  0.000361 -0.000005  0.000012  0.000120
                                -0.000027  0.000026  0.002933  0.007826  0.009183 -0.000060 -0.001286 -0.001999 -0.000116  0.000527
                                -0.000001  0.000112 -0.000020

   4.3   0     0.0128   -3.4566  0.000001  0.000005  0.000023  0.000085  0.000327  0.000917  0.002714  0.005129  0.010850  0.005351
                                 0.411528  0.027124 -0.374105 -0.110775  0.029622 -0.004518  0.351245 -0.123008 -0.421813  0.352880
                                 0.920922  0.000014  0.000129  0.000629  0.002108  0.005076  0.007824  0.011484  0.014139  0.002955
                                -0.012529 -0.014031  0.000860  0.001725 -0.074572 -0.000065 -0.000059 -0.000058 -0.000111  0.000162
                                 0.000767 -0.004032  0.002195 -0.002700  0.001315 -0.000028  0.000015  0.000102  0.000042 -0.000369
                                 0.000034  0.000032 -0.000064  0.000022  0.000001  0.000009 -0.000031 -0.000005 -0.000039 -0.000341
                                -0.000009 -0.000028  0.000608  0.002173  0.010514 -0.029577 -0.000019 -0.001110 -0.000251  0.000144
                                 0.000003 -0.000231 -0.000009

   5.3   0     0.0484   -2.9674 -0.000001 -0.000005 -0.000020 -0.000096 -0.000267 -0.001065 -0.002108 -0.006600 -0.005436 -0.026819
                                 1.043149  0.132924 -0.812779 -0.127240  0.131895 -0.382042 -0.004260 -1.371707 -1.083546  0.893475
                                 1.218661 -0.000023 -0.000152 -0.000997 -0.002214 -0.013592 -0.072604 -0.057003  0.006404 -0.103506
                                -0.030438 -0.302428  0.030692  0.063392  0.772696 -0.000102  0.000058  0.000780  0.000111 -0.002622
                                -0.000742 -0.031027 -0.002084 -0.068504 -0.001523 -0.000082 -0.000020  0.000413 -0.000056 -0.004834
                                -0.000045 -0.014158  0.000049 -0.000024 -0.000001 -0.000008 -0.000005  0.000005  0.000038 -0.002724
                                 0.000006  0.000023 -0.000063 -0.005152  0.088219  0.387555  0.000798 -0.007905 -0.078681  0.000512
                                -0.000003  0.007542  0.000017

   6.3   0     0.0514   -2.8747 -0.000001 -0.000005 -0.000019 -0.000092 -0.000257 -0.001014 -0.002037 -0.006263 -0.005382 -0.024939
                                 0.950936  0.122385 -0.748705 -0.120544  0.130938 -0.152632  0.524350 -1.151024 -0.988024  0.826196
                                 0.921405  0.000002 -0.000039  0.000075 -0.000926  0.006382  0.063925  0.043181 -0.029765  0.065253
                                 0.054808  0.506327 -0.033347 -0.069480 -1.000414  0.000125  0.000055 -0.000218  0.000104  0.000570
                                -0.000720  0.012849 -0.002009  0.112953 -0.001464 -0.000029 -0.000002  0.000087 -0.000005 -0.000663
                                 0.000002  0.013068  0.000085  0.000028 -0.000001 -0.000008 -0.000210  0.000004  0.000037  0.000946
                                 0.000010  0.000020 -0.000908 -0.000111 -0.046220 -0.460839 -0.000244  0.001828  0.046358  0.000382
                                -0.000003 -0.004218  0.000005

                                   1 3d2-    1 3d2-    1 3d2-    1 3d2-    1 3d2-    1 3d2-    1 3d2-    1 3d2-    1 3d2-    1 3d2- 
                                   1 3d2-    1 3d2-    1 3d2-    1 3d2-    1 4f2-    1 4f2-    1 4f2-    1 4f2-    1 4f2-    1 5g2- 
                                   1 5g4-    1 5g2-    1 5g4-    1 5g2-    1 5g4-    1 5g2-    1 5g4-    1 6h4-    1 6h2-    1 6h4- 
                                   1 6h2-    1 6h4-    1 6h2-    2 3d2-    2 3d2-    2 3d2-    2 4f2-    2 4f2- 

   1.4   +    -0.4355  -18.4450  0.000356  0.003138  0.015508  0.051125  0.128563  0.232485  0.308454  0.312806  0.226597  0.085321
                                 0.005665  0.000579  0.000403  0.000065  0.000093  0.000502 -0.001655 -0.007441 -0.003408  0.000312
                                -0.000000  0.000582  0.000000 -0.000591 -0.000000 -0.001262  0.000000 -0.000000  0.000084  0.000000
                                 0.000094  0.000000 -0.000041  0.000357  0.000676 -0.000716 -0.000286  0.000411

   2.4   0     0.0488   -2.2392 -0.000019 -0.000068 -0.000826 -0.000578 -0.017410 -0.127175 -0.091826  0.037602 -0.076388  0.162564
                                -0.383296  0.061055  0.126674  1.209554 -0.000061  0.000167 -0.000637  0.005831 -0.001991 -0.000006
                                 0.000000 -0.000042 -0.000000  0.000235  0.000000  0.004048 -0.000000 -0.000000  0.000015 -0.000000
                                -0.000104 -0.000000  0.000719 -0.000083  0.000164 -0.013674  0.000057  0.002121

   3.4   0     0.1546   -3.6064 -0.000037 -0.000629 -0.001697 -0.011784  0.016284  0.306484  0.186659 -0.192159  0.180869 -0.479324
                                 1.704837 -0.176335 -0.366984 -0.880886 -0.000004 -0.000429  0.000506 -0.017684 -0.060065 -0.000003
                                 0.000000 -0.000224 -0.000000  0.000359  0.000000 -0.022207 -0.000000  0.000000 -0.000086 -0.000000
                                 0.000424 -0.000000 -0.002686  0.000139  0.000569  0.049140  0.000033 -0.007726

   4.4   0     0.3087   -3.9685  0.000011 -0.000011  0.000452 -0.000727  0.014811  0.129507  0.094674 -0.063071  0.247708  0.215109
                                 0.062681 -0.064467 -0.137977 -0.032706  0.001688 -0.003158  0.019623  0.158428  1.232610  0.000275
                                 0.000000 -0.001170 -0.000000  0.011216 -0.000000  0.219673  0.000000  0.000000  0.000875  0.000000
                                -0.005080 -0.000000  0.033283 -0.001002 -0.004686 -0.665194 -0.002982  0.118670

 HOMO      7.1    -0.233067 =      -6.3421eV
 LUMO      4.2     0.012829 =       0.3491eV
 LUMO-HOMO         0.245896 =       6.6912eV


 **********************************************************************************************************************************
 DATASETS  * FILE   NREC   LENGTH (MB)   RECORD NAMES
              1      23      649.66       500      610      700      900      950      970     1000      129      960     1700   
                                          VAR    BASINP    GEOM    SYMINP    ZMAT    AOBASIS   BASIS     P2S    ABASIS    OPER   
                                         1101     1401     1411     1412     1650     1100     1400     1410     1200     1210   
                                          SR      EKINR    POTR     PVPR    MOLCAS      S      EKIN      POT      H0       H01  
                                         1300     1080     1600   
                                         ERIS     AOSYM     SMH  

              2       4        3.60       700     1000      520     2100   
                                         GEOM     BASIS   MCVARS     RHF  

 PROGRAMS   *        TOTAL       RHF       INT
 CPU TIMES  *        98.03     18.68     79.24
 REAL TIME  *       103.59 SEC
 DISK USED  *         2.55 GB      
 **********************************************************************************************************************************
   -->
   <time start="09:23:41" end="09:25:25" cpu="98.03" system="4.75" real="103.59"/>
   <storage units="megabyte" memory="4097.84" sf="0.0" df="2545.6" eaf="0.0"/>
  </jobstep><!--
 SETTING SCF(1)         =      -948.64934033  AU                              
 SETTING _CC_NORM_MAX   =         2.00000000                                  
  --><jobstep command="RCCSD(T)" commandset="CCSD">
   <!--


1PROGRAM * CCSD (Restricted open-shell coupled cluster)     Authors: C. Hampel, H.-J. Werner, 1991, M. Deegan, P.J. Knowles, 1992


 Convergence thresholds:  THRVAR = 1.00D-08  THRDEN = 1.00D-06

 CCSD(T)     terms to be evaluated (factor= 1.000)


 Number of core orbitals:           5 (   3   1   1   0 )
 Number of closed-shell orbitals:   5 (   3   1   1   0 )
 Number of active  orbitals:        4 (   1   1   1   1 )
 Number of external orbitals:     296 ( 119  70  70  37 )

 Memory could be reduced to 110.05 Mwords without degradation in triples

 Number of N-1 electron functions:              14
 Number of N-2 electron functions:              91
 Number of singly external CSFs:              1304
 Number of doubly external CSFs:           1571526
 Total number of CSFs:                     1572830

 Molecular orbitals read from record     2100.2  Type=RHF/CANONICAL (state 1.1)

 Integral transformation finished. Total CPU:   5.81 sec, npass=  1  Memory used:  10.13 MW

 Starting RMP2 calculation

 Wavefunction is spin-projected

 ITER.      SQ.NORM     CORR.ENERGY   TOTAL ENERGY   ENERGY CHANGE        DEN1      VAR(S)    VAR(P)  DIIS     TIME
   1      1.09136103    -0.50408178  -949.15342211    -0.50408178    -0.00071114  0.70D-05  0.32D-03  1  1     7.02
   2      1.09215223    -0.50483957  -949.15417990    -0.00075779    -0.00000346  0.20D-06  0.23D-05  2  2     7.13
   3      1.09221068    -0.50486975  -949.15421008    -0.00003017    -0.00000003  0.40D-08  0.20D-07  3  3     7.25
   4      1.09221332    -0.50487043  -949.15421076    -0.00000068    -0.00000000  0.15D-09  0.19D-09  4  4     7.38

 Norm of t1 vector:      0.03790687      S-energy:    -0.00450936      T1 diagnostic:  0.00029739
 Norm of t2 vector:      0.30129121      P-energy:    -0.50036107
                                         Alpha-Beta:  -0.34807988
                                         Alpha-Alpha: -0.11356052
                                         Beta-Beta:   -0.03872067

 Spin contamination <S**2-Sz**2-Sz>     0.00000000
  Reference energy                   -948.649340329912
   --><property name="energy" method="Reference" stateSymmetry="1" stateNumber="1"
     value="-948.649340329912"/><!--
  RHF-RMP2 correlation energy          -0.504870431976
   --><property name="energy" method="RHF-RMP2 correlation" stateSymmetry="1" stateNumber="1"
     value="-0.504870431975822"/><!--
 !RHF-RMP2 energy                    -949.154210761888
   --><property name="energy" method="RHF-RMP2" principal="true" stateSymmetry="1"
     stateNumber="1" value="-949.154210761888"/><!--
 (NB above energy spin projected)

 Starting RCCSD calculation

 ITER.      SQ.NORM     CORR.ENERGY   TOTAL ENERGY   ENERGY CHANGE        DEN1      VAR(S)    VAR(P)  DIIS     TIME
   1      1.09607299    -0.50044446  -949.14978479    -0.50044446    -0.01104978  0.50D-02  0.14D-02  1  1    14.94
   2      1.10771447    -0.50959714  -949.15893747    -0.00915268    -0.00195355  0.12D-02  0.41D-03  2  2    22.73
   3      1.12257188    -0.51306742  -949.16240775    -0.00347028    -0.00071708  0.93D-03  0.61D-04  3  3    30.79
   4      1.14151253    -0.51559564  -949.16493597    -0.00252822    -0.00031092  0.44D-03  0.27D-04  4  4    40.61
   5      1.16749856    -0.51746492  -949.16680525    -0.00186928    -0.00011154  0.17D-03  0.10D-04  5  5    47.93
   6      1.19063240    -0.51845128  -949.16779161    -0.00098636    -0.00003170  0.43D-04  0.34D-05  6  6    55.33
   7      1.20413608    -0.51893611  -949.16827644    -0.00048483    -0.00000870  0.82D-05  0.16D-05  6  1    62.69
   8      1.20681195    -0.51893356  -949.16827389     0.00000255    -0.00000197  0.20D-05  0.36D-06  6  2    70.44
   9      1.21025110    -0.51906583  -949.16840616    -0.00013227    -0.00000053  0.53D-06  0.11D-06  6  3    77.86
  10      1.20954265    -0.51901964  -949.16835997     0.00004619    -0.00000018  0.17D-06  0.36D-07  6  4    85.24
  11      1.20996092    -0.51903865  -949.16837898    -0.00001901    -0.00000004  0.43D-07  0.10D-07  6  6    92.63
  12      1.21006415    -0.51903793  -949.16837826     0.00000072    -0.00000001  0.80D-08  0.33D-08  6  5   100.24
  13      1.21006424    -0.51903902  -949.16837935    -0.00000109    -0.00000000  0.28D-08  0.11D-08  6  2   108.20
  14      1.21009971    -0.51903987  -949.16838020    -0.00000085    -0.00000000  0.94D-09  0.41D-09  6  3   116.15

 Norm of t1 vector:      0.31221532      S-energy:    -0.00465575      T1 diagnostic:  0.05816726
                                                                       D1 diagnostic:  0.19508011
 Norm of t2 vector:      0.33559098      P-energy:    -0.51438412
                                         Alpha-Beta:  -0.36495410
                                         Alpha-Alpha: -0.11224879
                                         Beta-Beta:   -0.03718122

 Singles amplitudes (print threshold =  0.500E-01):

         I         SYM. A    A   T(IA) [Alpha-Alpha]

         3         1         6     -0.05314405
         3         1        10      0.05990499
         4         1         3      0.09028008
         4         1         4     -0.06214394
         4         1         6      0.16435953
         4         1         7     -0.09640971
         4         1        10     -0.12678706
         4         1        15      0.06875114

 Spin contamination <S**2-Sz**2-Sz>     0.00000000

 Memory could be reduced to 115.96 Mwords without degradation in triples
   --><error/><!--
  --></jobstep><!--
  -->
  <stm:metadataList>
   <stm:metadata name="dc:date" content="2018-01-25T09:28:38-07:00"/>
   <stm:metadata name="dc:creator" content="cmelton"/>
   <stm:metadata name="cmlm:insilico" content="Molpro"/>
  </stm:metadataList>
  <platform>
   <version major="2012" minor="1" SHA="4c1979699e6aeda0524d0210415ba82a958648b0"
     integer_bits="64" parallelism="serial">
    2012.1
    <date year="2018" month="1" day="25" hour="9" minute="23" second="41">
     2018-01-25T09:23:41
    </date>
   </version>
   <licence id="sandiacon"/>
   <parallel processes="1" nodes="1" all_processes="1" openmp="1"/>
   <machine hostname="s989256.sandia.gov" architecture="x86_64">
    Linux-3.10.0-693.2.2.el7.x86_64/s989256.sandia.gov(x86_64) 64 bit serial version
    <sysinfo name="cpu MHz" content="2898.390"/>
    <sysinfo name="MemTotal" content="263897096 kB"/>
    <sysinfo name="vendor_id" content="GenuineIntel"/>
    <sysinfo name="cpu family" content="6"/>
    <sysinfo name="model name" content="Intel(R) Xeon(R) CPU E5-2697 v3 @ 2.60GHz"/>
    <sysinfo name="flags"
      content="fpu vme de pse tsc msr pae mce cx8 apic sep mtrr pge mca cmov pat pse36 clflush dts acpi mmx fxsr sse sse2 ss ht tm pbe syscall nx pdpe1gb rdtscp lm constant_tsc arch_perfmon pebs bts rep_good nopl xtopology nonstop_tsc aperfmperf eagerfpu pni pclmulqdq dtes64 monitor ds_cpl vmx smx est tm2 ssse3 fma cx16 xtpr pdcm pcid dca sse4_1 sse4_2 x2apic movbe popcnt tsc_deadline_timer aes xsave avx f16c rdrand lahf_lm abm epb tpr_shadow vnmi flexpriority ept vpid fsgsbase tsc_adjust bmi1 avx2 smep bmi2 erms invpcid cqm xsaveopt cqm_llc cqm_occup_llc dtherm ida arat pln pts"/>
    <sysinfo name="MemTotal" content="263897096 kB"/>
    <sysinfo name="cache size" content="35840 KB"/>
    <sysinfo name="ncpu" content="28"/>
   </machine>
  </platform>
  <input>
   <p> ***,Calculation for Be atom, singlet and triplet </p>
   <p> memory,512,m </p>
   <p> gthresh,twoint=1.0E-12 </p>
   <p> set,dkroll=1,dkho=10,dkhp=4 </p>
   <p> basis={ </p>
   <include file="/remote/cmelton/data/corrECP/VH/uc/aug-cc-pwCVQZ-dk.basis"/>
   <p> } </p>
   <p> ne    =24 </p>
   <p> symm  =1 </p>
   <p> ss    =4 </p>
   <p> A1=7 </p>
   <p> B1=3 </p>
   <p> B2=3 </p>
   <p> A2=1 </p>
   <p> do i=1,16 </p>
   <p>     z(i) = 1.3 + 0.05*(i-1) </p>
   <p>     geometry={ </p>
   <p>         2 </p>
   <p>         Oxygen </p>
   <p>         V  0.0 0.0 0.0 </p>
   <p>         H  0.0 0.0 z(i) </p>
   <p>     } </p>
   <p>     {rhf </p>
   <p>      wf,ne,symm,ss </p>
   <p>      occ,A1,B1,B2,A2 </p>
   <p>      open,7.1,3.2,3.3,1.4 </p>
   <p>      print,orbitals=3 </p>
   <p>     } </p>
   <p>     scf(i)=energy </p>
   <p>     _CC_NORM_MAX=2.0 </p>
   <p>     {rccsd(t);maxit,100;core,3,1,1,0} </p>
   <p>     ccsd(i)=energy </p>
   <p> enddo </p>
   <p> geometry={ </p>
   <p>    1 </p>
   <p>    Vanadium </p>
   <p>    V 0.0 0.0 0.0 </p>
   <p> } </p>
   <p> {rhf; </p>
   <p>  start,atden </p>
   <p>  wf,23,6,3; </p>
   <p>  occ,6,2,2,0,2,1,0,0; </p>
   <p>  open,5.1,6.1,1.6; </p>
   <p>  sym,1,1,1,1,1,3,2 </p>
   <p> } </p>
   <p> V_scf=energy </p>
   <p> _CC_NORM_MAX=2.0 </p>
   <p> {rccsd(t);maxit,100;core,2,1,1,0,1,0,0,0} </p>
   <p> V_ccsd=energy </p>
   <p> geometry={ </p>
   <p>    1 </p>
   <p>    Oxygen </p>
   <p>    H 0.0 0.0 0.0 </p>
   <p> } </p>
   <p> {rhf; </p>
   <p>  wf,1,1,1; </p>
   <p>  occ,1,0,0,0,0,0,0,0; </p>
   <p>  open,1.1; </p>
   <p> } </p>
   <p> H_scf=energy </p>
   <p> table,z,scf,ccsd </p>
   <p> save </p>
   <p> type,csv </p>
  </input>
  <!--
 --></job><!--
--></molpro>
