 Entering Gaussian System, Link 0=g16
 Initial command:
 /home1/apps/gaussian/16rA.03/g16/l1.exe "/tmp/Gau-185824.inp" -scrdir="/tmp/"
 Entering Link 1 = /home1/apps/gaussian/16rA.03/g16/l1.exe PID=    185825.
  
 Copyright (c) 1988,1990,1992,1993,1995,1998,2003,2009,2016,
            Gaussian, Inc.  All Rights Reserved.
  
 This is part of the Gaussian(R) 16 program.  It is based on
 the Gaussian(R) 09 system (copyright 2009, Gaussian, Inc.),
 the Gaussian(R) 03 system (copyright 2003, Gaussian, Inc.),
 the Gaussian(R) 98 system (copyright 1998, Gaussian, Inc.),
 the Gaussian(R) 94 system (copyright 1995, Gaussian, Inc.),
 the Gaussian 92(TM) system (copyright 1992, Gaussian, Inc.),
 the Gaussian 90(TM) system (copyright 1990, Gaussian, Inc.),
 the Gaussian 88(TM) system (copyright 1988, Gaussian, Inc.),
 the Gaussian 86(TM) system (copyright 1986, Carnegie Mellon
 University), and the Gaussian 82(TM) system (copyright 1983,
 Carnegie Mellon University). Gaussian is a federally registered
 trademark of Gaussian, Inc.
  
 This software contains proprietary and confidential information,
 including trade secrets, belonging to Gaussian, Inc.
  
 This software is provided under written license and may be
 used, copied, transmitted, or stored only in accord with that
 written license.
  
 The following legend is applicable only to US Government
 contracts under FAR:
  
                    RESTRICTED RIGHTS LEGEND
  
 Use, reproduction and disclosure by the US Government is
 subject to restrictions as set forth in subparagraphs (a)
 and (c) of the Commercial Computer Software - Restricted
 Rights clause in FAR 52.227-19.
  
 Gaussian, Inc.
 340 Quinnipiac St., Bldg. 40, Wallingford CT 06492
  
  
 ---------------------------------------------------------------
 Warning -- This program may not be used in any manner that
 competes with the business of Gaussian, Inc. or will provide
 assistance to any competitor of Gaussian, Inc.  The licensee
 of this program is prohibited from giving any competitor of
 Gaussian, Inc. access to this program.  By using this program,
 the user acknowledges that Gaussian, Inc. is engaged in the
 business of creating and licensing software in the field of
 computational chemistry and represents and warrants to the
 licensee that it is not a competitor of Gaussian, Inc. and that
 it will not use this program in any manner prohibited above.
 ---------------------------------------------------------------
  

 Cite this work as:
 Gaussian 16, Revision A.03,
 M. J. Frisch, G. W. Trucks, H. B. Schlegel, G. E. Scuseria, 
 M. A. Robb, J. R. Cheeseman, G. Scalmani, V. Barone, 
 G. A. Petersson, H. Nakatsuji, X. Li, M. Caricato, A. V. Marenich, 
 J. Bloino, B. G. Janesko, R. Gomperts, B. Mennucci, H. P. Hratchian, 
 J. V. Ortiz, A. F. Izmaylov, J. L. Sonnenberg, D. Williams-Young, 
 F. Ding, F. Lipparini, F. Egidi, J. Goings, B. Peng, A. Petrone, 
 T. Henderson, D. Ranasinghe, V. G. Zakrzewski, J. Gao, N. Rega, 
 G. Zheng, W. Liang, M. Hada, M. Ehara, K. Toyota, R. Fukuda, 
 J. Hasegawa, M. Ishida, T. Nakajima, Y. Honda, O. Kitao, H. Nakai, 
 T. Vreven, K. Throssell, J. A. Montgomery, Jr., J. E. Peralta, 
 F. Ogliaro, M. J. Bearpark, J. J. Heyd, E. N. Brothers, K. N. Kudin, 
 V. N. Staroverov, T. A. Keith, R. Kobayashi, J. Normand, 
 K. Raghavachari, A. P. Rendell, J. C. Burant, S. S. Iyengar, 
 J. Tomasi, M. Cossi, J. M. Millam, M. Klene, C. Adamo, R. Cammi, 
 J. W. Ochterski, R. L. Martin, K. Morokuma, O. Farkas, 
 J. B. Foresman, and D. J. Fox, Gaussian, Inc., Wallingford CT, 2016.
 
 ******************************************
 Gaussian 16:  ES64L-G16RevA.03 25-Dec-2016
                28-Feb-2018 
 ******************************************
 %MEM=80GB
 %CPU=0-15
 SetSPE:  set environment variable "MP_BIND" = "yes"
 SetSPE:  set environment variable "MP_BLIST" = "0,1,2,3,4,5,6,7,8,9,10,11,12,13,14,15"
 Will use up to   16 processors via shared memory.
 %RWF=/scratch/04843/aannabe/gaussian/
 %Int=/scratch/04843/aannabe/gaussian/
 %D2E=/scratch/04843/aannabe/gaussian/
 %NoSave
 %CHK=ScO
 ----------------------------------------------------------------------
 #P ROCCSD(T)=(maxcyc=150, Full, SaveAmplitudes, ReadAmplitudes)/Gen 5d
  7f SCF=(maxcycles=300) Integral(NoXCTest) MaxDisk=500GB Pop=Regular P
 seudo=Read Guess=Read IOp(5/15=2)
 ----------------------------------------------------------------------
 1/38=1,172=1/1;
 2/12=2,17=6,18=5,40=1/2;
 3/5=7,8=11,11=2,16=1,17=8,25=1,30=1,47=8,116=101/1,2,3;
 4/5=1/1;
 5/5=2,7=300,15=2,38=6/2;
 8/5=-1,6=4,9=120000,10=90,24=1/1,4;
 9/5=7,6=150,14=2,77=1/13;
 6//1;
 99/5=1,9=1/99;
 Leave Link    1 at Wed Feb 28 18:38:59 2018, MaxMem= 10737418240 cpu:               4.6 elap:               0.3
 (Enter /home1/apps/gaussian/16rA.03/g16/l101.exe)
 ---
 ScO
 ---
 Symbolic Z-matrix:
 Charge =  0 Multiplicity = 2
 Sc                    0.        0.        0. 
 O                     0.        0.        1.8 
 
 ITRead=  0  0
 MicOpt= -1 -1
 NAtoms=      2 NQM=        2 NQMF=       0 NMMI=      0 NMMIF=      0
                NMic=       0 NMicF=      0.
                    Isotopes and Nuclear Properties:
 (Nuclear quadrupole moments (NQMom) in fm**2, nuclear magnetic moments (NMagM)
  in nuclear magnetons)

  Atom         1           2
 IAtWgt=          45          16
 AtmWgt=  44.9559136  15.9949146
 NucSpn=           7           0
 AtZEff=  -0.0000000  -0.0000000
 NQMom=  -22.0000000   0.0000000
 NMagM=    4.7564830   0.0000000
 AtZNuc=  21.0000000   8.0000000
 Leave Link  101 at Wed Feb 28 18:39:00 2018, MaxMem= 10737418240 cpu:               1.5 elap:               0.1
 (Enter /home1/apps/gaussian/16rA.03/g16/l202.exe)
                          Input orientation:                          
 ---------------------------------------------------------------------
 Center     Atomic      Atomic             Coordinates (Angstroms)
 Number     Number       Type             X           Y           Z
 ---------------------------------------------------------------------
      1         21           0        0.000000    0.000000    0.000000
      2          8           0        0.000000    0.000000    1.800000
 ---------------------------------------------------------------------
 Stoichiometry    OSc(2)
 Framework group  C*V[C*(OSc)]
 Deg. of freedom     1
 Full point group                 C*V     NOp   4
 Largest Abelian subgroup         C2V     NOp   4
 Largest concise Abelian subgroup C1      NOp   1
                         Standard orientation:                         
 ---------------------------------------------------------------------
 Center     Atomic      Atomic             Coordinates (Angstroms)
 Number     Number       Type             X           Y           Z
 ---------------------------------------------------------------------
      1         21           0        0.000000    0.000000    0.496552
      2          8           0        0.000000    0.000000   -1.303448
 ---------------------------------------------------------------------
 Rotational constants (GHZ):           0.0000000          13.2215705          13.2215705
 Leave Link  202 at Wed Feb 28 18:39:00 2018, MaxMem= 10737418240 cpu:               0.4 elap:               0.1
 (Enter /home1/apps/gaussian/16rA.03/g16/l301.exe)
 General basis read from cards:  (5D, 7F)
 Centers:       1
 S 1 1.00
     Exponent=  2.7152780000D+06 Coefficients=  1.0000000000D+00
 S 1 1.00
     Exponent=  4.0659840000D+05 Coefficients=  1.0000000000D+00
 S 1 1.00
     Exponent=  9.2530040000D+04 Coefficients=  1.0000000000D+00
 S 1 1.00
     Exponent=  2.6207920000D+04 Coefficients=  1.0000000000D+00
 S 1 1.00
     Exponent=  8.5494290000D+03 Coefficients=  1.0000000000D+00
 S 1 1.00
     Exponent=  3.0859750000D+03 Coefficients=  1.0000000000D+00
 S 1 1.00
     Exponent=  1.2031720000D+03 Coefficients=  1.0000000000D+00
 S 1 1.00
     Exponent=  4.9848690000D+02 Coefficients=  1.0000000000D+00
 S 1 1.00
     Exponent=  2.1673600000D+02 Coefficients=  1.0000000000D+00
 S 1 1.00
     Exponent=  9.7874760000D+01 Coefficients=  1.0000000000D+00
 S 1 1.00
     Exponent=  4.5204330000D+01 Coefficients=  1.0000000000D+00
 S 1 1.00
     Exponent=  2.0211870000D+01 Coefficients=  1.0000000000D+00
 S 1 1.00
     Exponent=  9.5747510000D+00 Coefficients=  1.0000000000D+00
 S 1 1.00
     Exponent=  4.5403460000D+00 Coefficients=  1.0000000000D+00
 S 1 1.00
     Exponent=  1.9956870000D+00 Coefficients=  1.0000000000D+00
 S 1 1.00
     Exponent=  9.4221500000D-01 Coefficients=  1.0000000000D+00
 S 1 1.00
     Exponent=  4.1784500000D-01 Coefficients=  1.0000000000D+00
 S 1 1.00
     Exponent=  9.5761000000D-02 Coefficients=  1.0000000000D+00
 S 1 1.00
     Exponent=  5.1351000000D-02 Coefficients=  1.0000000000D+00
 S 1 1.00
     Exponent=  2.3878000000D-02 Coefficients=  1.0000000000D+00
 S 1 1.00
     Exponent=  2.6472000000D+00 Coefficients=  1.0000000000D+00
 S 1 1.00
     Exponent=  6.2170000000D-01 Coefficients=  1.0000000000D+00
 S 1 1.00
     Exponent=  1.1100000000D-02 Coefficients=  1.0000000000D+00
 P 1 1.00
     Exponent=  1.0592190000D+04 Coefficients=  1.0000000000D+00
 P 1 1.00
     Exponent=  2.5075330000D+03 Coefficients=  1.0000000000D+00
 P 1 1.00
     Exponent=  8.1445710000D+02 Coefficients=  1.0000000000D+00
 P 1 1.00
     Exponent=  3.1151950000D+02 Coefficients=  1.0000000000D+00
 P 1 1.00
     Exponent=  1.3196170000D+02 Coefficients=  1.0000000000D+00
 P 1 1.00
     Exponent=  5.9987180000D+01 Coefficients=  1.0000000000D+00
 P 1 1.00
     Exponent=  2.8662500000D+01 Coefficients=  1.0000000000D+00
 P 1 1.00
     Exponent=  1.4108510000D+01 Coefficients=  1.0000000000D+00
 P 1 1.00
     Exponent=  7.1037060000D+00 Coefficients=  1.0000000000D+00
 P 1 1.00
     Exponent=  3.6092000000D+00 Coefficients=  1.0000000000D+00
 P 1 1.00
     Exponent=  1.7760700000D+00 Coefficients=  1.0000000000D+00
 P 1 1.00
     Exponent=  8.5476000000D-01 Coefficients=  1.0000000000D+00
 P 1 1.00
     Exponent=  4.0223900000D-01 Coefficients=  1.0000000000D+00
 P 1 1.00
     Exponent=  1.5468000000D-01 Coefficients=  1.0000000000D+00
 P 1 1.00
     Exponent=  6.4888000000D-02 Coefficients=  1.0000000000D+00
 P 1 1.00
     Exponent=  2.6301000000D-02 Coefficients=  1.0000000000D+00
 P 1 1.00
     Exponent=  3.4418000000D+00 Coefficients=  1.0000000000D+00
 P 1 1.00
     Exponent=  8.0840000000D-01 Coefficients=  1.0000000000D+00
 P 1 1.00
     Exponent=  1.0660000000D-02 Coefficients=  1.0000000000D+00
 D 1 1.00
     Exponent=  5.0654200000D+01 Coefficients=  1.0000000000D+00
 D 1 1.00
     Exponent=  1.4732500000D+01 Coefficients=  1.0000000000D+00
 D 1 1.00
     Exponent=  5.1804600000D+00 Coefficients=  1.0000000000D+00
 D 1 1.00
     Exponent=  2.0195900000D+00 Coefficients=  1.0000000000D+00
 D 1 1.00
     Exponent=  7.9921900000D-01 Coefficients=  1.0000000000D+00
 D 1 1.00
     Exponent=  3.0531600000D-01 Coefficients=  1.0000000000D+00
 D 1 1.00
     Exponent=  1.1044400000D-01 Coefficients=  1.0000000000D+00
 D 1 1.00
     Exponent=  3.7065000000D-02 Coefficients=  1.0000000000D+00
 D 1 1.00
     Exponent=  1.8520000000D+00 Coefficients=  1.0000000000D+00
 D 1 1.00
     Exponent=  7.8750000000D-01 Coefficients=  1.0000000000D+00
 D 1 1.00
     Exponent=  1.2440000000D-02 Coefficients=  1.0000000000D+00
 F 1 1.00
     Exponent=  2.1048000000D+00 Coefficients=  1.0000000000D+00
 F 1 1.00
     Exponent=  6.5870000000D-01 Coefficients=  1.0000000000D+00
 F 1 1.00
     Exponent=  1.6360000000D-01 Coefficients=  1.0000000000D+00
 F 1 1.00
     Exponent=  4.0630000000D-02 Coefficients=  1.0000000000D+00
 G 1 1.00
     Exponent=  1.7850000000D+00 Coefficients=  1.0000000000D+00
 G 1 1.00
     Exponent=  4.1120000000D-01 Coefficients=  1.0000000000D+00
 G 1 1.00
     Exponent=  9.4730000000D-02 Coefficients=  1.0000000000D+00
 ****
 Centers:       2
 S 1 1.00
     Exponent=  1.5330000000D+04 Coefficients=  1.0000000000D+00
 S 1 1.00
     Exponent=  2.2990000000D+03 Coefficients=  1.0000000000D+00
 S 1 1.00
     Exponent=  5.2240000000D+02 Coefficients=  1.0000000000D+00
 S 1 1.00
     Exponent=  1.4730000000D+02 Coefficients=  1.0000000000D+00
 S 1 1.00
     Exponent=  4.7550000000D+01 Coefficients=  1.0000000000D+00
 S 1 1.00
     Exponent=  1.6760000000D+01 Coefficients=  1.0000000000D+00
 S 1 1.00
     Exponent=  6.2070000000D+00 Coefficients=  1.0000000000D+00
 S 1 1.00
     Exponent=  6.8820000000D-01 Coefficients=  1.0000000000D+00
 S 1 1.00
     Exponent=  1.7520000000D+00 Coefficients=  1.0000000000D+00
 S 1 1.00
     Exponent=  2.3840000000D-01 Coefficients=  1.0000000000D+00
 S 1 1.00
     Exponent=  7.8450000000D+00 Coefficients=  1.0000000000D+00
 S 1 1.00
     Exponent=  2.1032000000D+01 Coefficients=  1.0000000000D+00
 S 1 1.00
     Exponent=  7.3760000000D-02 Coefficients=  1.0000000000D+00
 P 1 1.00
     Exponent=  3.4460000000D+01 Coefficients=  1.0000000000D+00
 P 1 1.00
     Exponent=  7.7490000000D+00 Coefficients=  1.0000000000D+00
 P 1 1.00
     Exponent=  2.2800000000D+00 Coefficients=  1.0000000000D+00
 P 1 1.00
     Exponent=  7.1560000000D-01 Coefficients=  1.0000000000D+00
 P 1 1.00
     Exponent=  2.1400000000D-01 Coefficients=  1.0000000000D+00
 P 1 1.00
     Exponent=  1.5159000000D+01 Coefficients=  1.0000000000D+00
 P 1 1.00
     Exponent=  5.7437000000D+01 Coefficients=  1.0000000000D+00
 P 1 1.00
     Exponent=  5.9740000000D-02 Coefficients=  1.0000000000D+00
 D 1 1.00
     Exponent=  2.3140000000D+00 Coefficients=  1.0000000000D+00
 D 1 1.00
     Exponent=  6.4500000000D-01 Coefficients=  1.0000000000D+00
 D 1 1.00
     Exponent=  1.5858000000D+01 Coefficients=  1.0000000000D+00
 D 1 1.00
     Exponent=  2.1400000000D-01 Coefficients=  1.0000000000D+00
 F 1 1.00
     Exponent=  1.4280000000D+00 Coefficients=  1.0000000000D+00
 F 1 1.00
     Exponent=  5.0000000000D-01 Coefficients=  1.0000000000D+00
 ****
 ======================================================================================================
                                       Pseudopotential Parameters
 ======================================================================================================
  Center     Atomic      Valence      Angular      Power
  Number     Number     Electrons     Momentum     of R      Exponent        Coefficient   SO-Coeffient
 ======================================================================================================
    1         21           11
                                      D and up 
                                                     1        1.6491656       11.00000000    0.00000000
                                                     3        3.0683329       18.14082106    0.00000000
                                                     2        2.4198539      -35.19310566    0.00000000
                                      S - D
                                                     2        7.6031935       97.62913482    0.00000000
                                      P - D
                                                     2        5.3112183       33.97033635    0.00000000
    2          8            6
                                      P and up 
                                                     1        9.2979390        6.00000000    0.00000000
                                                     3        8.8649220       55.78763416    0.00000000
                                                     2        8.6292567      -38.81978498    0.00000000
                                      S - P
                                                     2        8.7192445       38.41914135    0.00000000
 ======================================================================================================
 Ernie: Thresh=  0.10000D-02 Tol=  0.10000D-05 Strict=F.
 There are   144 symmetry adapted cartesian basis functions of A1  symmetry.
 There are    30 symmetry adapted cartesian basis functions of A2  symmetry.
 There are    69 symmetry adapted cartesian basis functions of B1  symmetry.
 There are    69 symmetry adapted cartesian basis functions of B2  symmetry.
 There are   114 symmetry adapted basis functions of A1  symmetry.
 There are    27 symmetry adapted basis functions of A2  symmetry.
 There are    60 symmetry adapted basis functions of B1  symmetry.
 There are    60 symmetry adapted basis functions of B2  symmetry.
   261 basis functions,   312 primitive gaussians,   312 cartesian basis functions
     9 alpha electrons        8 beta electrons
       nuclear repulsion energy        19.4031644004 Hartrees.
 IExCor=    0 DFT=F Ex=HF Corr=None ExCW=0 ScaHFX=  1.000000
 ScaDFX=  1.000000  1.000000  1.000000  1.000000 ScalE2=  1.000000  1.000000
 IRadAn=      5 IRanWt=     -1 IRanGd=            0 ICorTp=0 IEmpDi=  4
 NAtoms=    2 NActive=    2 NUniq=    2 SFac= 1.00D+00 NAtFMM=   60 NAOKFM=F Big=F
 Integral buffers will be    131072 words long.
 Raffenetti 2 integral format.
 Two-electron integral symmetry is turned on.
 Leave Link  301 at Wed Feb 28 18:39:01 2018, MaxMem= 10737418240 cpu:               3.9 elap:               0.3
 (Enter /home1/apps/gaussian/16rA.03/g16/l302.exe)
 NPDir=0 NMtPBC=     1 NCelOv=     1 NCel=       1 NClECP=     1 NCelD=      1
         NCelK=      1 NCelE2=     1 NClLst=     1 CellRange=     0.0.
 One-electron integrals computed using PRISM.
 One-electron integral symmetry used in STVInt
   4 Symmetry operations used in ECPInt.
 ECPInt:  NShTT=    3828 NPrTT=    3828 LenC2=    3528 LenP2D=    3527.
 LDataN:  DoStor=T MaxTD1= 8 Len=  415
 NBasis=   261 RedAO= T EigKep=  1.10D-06  NBF=   114    27    60    60
 NBsUse=   258 1.00D-06 EigRej=  6.57D-07 NBFU=   113    27    59    59
 Leave Link  302 at Wed Feb 28 18:39:02 2018, MaxMem= 10737418240 cpu:              15.2 elap:               1.0
 (Enter /home1/apps/gaussian/16rA.03/g16/l303.exe)
 DipDrv:  MaxL=1.
 Leave Link  303 at Wed Feb 28 18:39:02 2018, MaxMem= 10737418240 cpu:               1.2 elap:               0.2
 (Enter /home1/apps/gaussian/16rA.03/g16/l401.exe)
 Initial guess from the checkpoint file:  "ScO.chk"
 B after Tr=     0.000000    0.000000    0.000000
         Rot=    1.000000    0.000000    0.000000    0.000000 Ang=   0.00 deg.
 Guess basis will be translated and rotated to current coordinates.
 JPrj=2 DoOrth=T DoCkMO=T.
 Initial guess orbital symmetries:
       Occupied  (SG) (SG) (PI) (PI) (SG) (SG) (PI) (PI) (SG)
       Virtual   (PI) (PI) (SG) (SG) (DLTA) (DLTA) (PI) (PI) (PI)
                 (PI) (SG) (SG) (DLTA) (DLTA) (SG) (PI) (PI) (SG)
                 (PI) (PI) (SG) (PI) (PI) (PHI) (PHI) (DLTA) (DLTA)
                 (SG) (DLTA) (DLTA) (PI) (PI) (SG) (PI) (PI) (SG)
                 (SG) (SG) (DLTA) (DLTA) (PI) (PI) (DLTA) (DLTA)
                 (?A) (?A) (PHI) (PHI) (SG) (PI) (PI) (PI) (PI)
                 (SG) (PHI) (PHI) (DLTA) (DLTA) (SG) (PI) (PI)
                 (SG) (PI) (PI) (DLTA) (DLTA) (SG) (SG) (DLTA)
                 (DLTA) (PI) (PI) (SG) (SG) (PI) (PI) (PI) (PI)
                 (SG) (DLTA) (DLTA) (PHI) (PHI) (?A) (?A) (SG)
                 (PI) (PI) (SG) (DLTA) (DLTA) (PHI) (PHI) (PI)
                 (PI) (PHI) (PHI) (DLTA) (DLTA) (SG) (PI) (PI)
                 (DLTA) (DLTA) (SG) (DLTA) (DLTA) (PI) (PI) (SG)
                 (PI) (PI) (SG) (SG) (PI) (PI) (SG) (PI) (PI) (SG)
                 (SG) (DLTA) (DLTA) (PI) (PI) (SG) (PHI) (PHI)
                 (PHI) (PHI) (DLTA) (DLTA) (DLTA) (DLTA) (PI) (PI)
                 (PI) (PI) (SG) (DLTA) (DLTA) (SG) (PI) (PI) (SG)
                 (?A) (?A) (PHI) (PHI) (DLTA) (DLTA) (PI) (PI)
                 (SG) (SG) (PI) (PI) (SG) (DLTA) (DLTA) (PI) (PI)
                 (SG) (PI) (PI) (SG) (SG) (SG) (PI) (PI) (SG) (DLTA)
                 (DLTA) (PI) (PI) (SG) (SG) (PI) (PI) (SG) (SG)
                 (DLTA) (DLTA) (PI) (PI) (SG) (PI) (PI) (SG) (DLTA)
                 (DLTA) (PI) (PI) (SG) (SG) (SG) (PI) (PI) (SG)
                 (PI) (PI) (SG) (SG) (SG) (PI) (PI) (SG) (DLTA)
                 (DLTA) (PI) (PI) (SG) (SG) (SG) (PI) (PI) (SG)
                 (PI) (PI) (SG) (SG) (SG) (PI) (PI) (SG) (SG) (PI)
                 (PI) (SG) (SG) (SG) (PI) (PI) (SG) (SG) (SG) (PI)
                 (PI) (SG) (SG) (SG) (SG) (PI) (PI) (SG) (SG) (SG)
                 (SG) (SG)
 The electronic state of the initial guess is 2-SG.
 Leave Link  401 at Wed Feb 28 18:39:03 2018, MaxMem= 10737418240 cpu:               6.8 elap:               0.5
 (Enter /home1/apps/gaussian/16rA.03/g16/l502.exe)
 Keep R1 and R2 ints in memory in symmetry-blocked form, NReq=734602573.
 FoFCou: FMM=F IPFlag=           8 FMFlag=           0 FMFlg1=           0
         NFxFlg=           0 DoJE=F BraDBF=F KetDBF=F FulRan=T
         wScrn=  0.000000 ICntrl=       600 IOpCl=  0 I1Cent=           0 NGrid=           0
         NMat0=    1 NMatS0=  34191 NMatT0=    0 NMatD0=    1 NMtDS0=    0 NMtDT0=    0
 Petite list used in FoFCou.
 Restricted open shell SCF:
 Using DIIS extrapolation, IDIIS=  1040.
 NGot= 10737418240 LenX= 10437151885 LenY= 10437054100
 Requested convergence on RMS density matrix=1.00D-08 within 300 cycles.
 Requested convergence on MAX density matrix=1.00D-06.
 Requested convergence on             energy=1.00D-06.
 No special actions if energy rises.

 Cycle   1  Pass 1  IDiag  1:
 E= -61.8541435142860    
 DIIS: error= 1.86D-01 at cycle   1 NSaved=   1.
 NSaved= 1 IEnMin= 1 EnMin= -61.8541435142860     IErMin= 1 ErrMin= 1.86D-01
 ErrMax= 1.86D-01  0.00D+00 EMaxC= 1.00D-01 BMatC= 3.51D+00 BMatP= 3.51D+00
 IDIUse=3 WtCom= 0.00D+00 WtEn= 1.00D+00
 Coeff-Com:  0.100D+01
 Coeff-En:   0.100D+01
 Coeff:      0.100D+01
 Gap=     0.098 Goal=   None    Shift=    0.000
 GapD=    0.098 DampG=0.500 DampE=0.125 DampFc=0.1250 IDamp=-1.
 Damping current iteration by 1.25D-01
 RMSDP=8.80D-03 MaxDP=7.02D-01              OVMax= 4.99D-02

 Cycle   2  Pass 1  IDiag  1:
 E= -61.8790987734540     Delta-E=       -0.024955259168 Rises=F Damp=T
 DIIS: error= 1.63D-01 at cycle   2 NSaved=   2.
 NSaved= 2 IEnMin= 2 EnMin= -61.8790987734540     IErMin= 2 ErrMin= 1.63D-01
 ErrMax= 1.63D-01  0.00D+00 EMaxC= 1.00D-01 BMatC= 2.71D+00 BMatP= 3.51D+00
 IDIUse=3 WtCom= 0.00D+00 WtEn= 1.00D+00
 Coeff-Com: -0.720D+01 0.820D+01
 Coeff-En:   0.000D+00 0.100D+01
 Coeff:      0.000D+00 0.100D+01
 Gap=     0.091 Goal=   None    Shift=    0.000
 RMSDP=7.72D-03 MaxDP=6.16D-01 DE=-2.50D-02 OVMax= 1.83D-02

 Cycle   3  Pass 1  IDiag  1:
 E= -62.0603033969593     Delta-E=       -0.181204623505 Rises=F Damp=F
 DIIS: error= 5.79D-03 at cycle   3 NSaved=   3.
 NSaved= 3 IEnMin= 3 EnMin= -62.0603033969593     IErMin= 3 ErrMin= 5.79D-03
 ErrMax= 5.79D-03  0.00D+00 EMaxC= 1.00D-01 BMatC= 2.53D-03 BMatP= 2.71D+00
 IDIUse=3 WtCom= 9.42D-01 WtEn= 5.79D-02
 Coeff-Com:  0.121D+00-0.164D+00 0.104D+01
 Coeff-En:   0.000D+00 0.000D+00 0.100D+01
 Coeff:      0.114D+00-0.154D+00 0.104D+01
 Gap=     0.093 Goal=   None    Shift=    0.000
 RMSDP=3.81D-04 MaxDP=1.82D-02 DE=-1.81D-01 OVMax= 2.98D-02

 Cycle   4  Pass 1  IDiag  1:
 E= -62.0610542625319     Delta-E=       -0.000750865573 Rises=F Damp=F
 DIIS: error= 1.15D-03 at cycle   4 NSaved=   4.
 NSaved= 4 IEnMin= 4 EnMin= -62.0610542625319     IErMin= 4 ErrMin= 1.15D-03
 ErrMax= 1.15D-03  0.00D+00 EMaxC= 1.00D-01 BMatC= 9.48D-05 BMatP= 2.53D-03
 IDIUse=3 WtCom= 9.89D-01 WtEn= 1.15D-02
 Coeff-Com:  0.188D+00-0.217D+00 0.708D-01 0.958D+00
 Coeff-En:   0.000D+00 0.000D+00 0.000D+00 0.100D+01
 Coeff:      0.186D+00-0.214D+00 0.700D-01 0.958D+00
 Gap=     0.093 Goal=   None    Shift=    0.000
 RMSDP=2.46D-04 MaxDP=1.94D-02 DE=-7.51D-04 OVMax= 1.49D-02

 Cycle   5  Pass 1  IDiag  1:
 E= -62.0611527664800     Delta-E=       -0.000098503948 Rises=F Damp=F
 DIIS: error= 1.23D-03 at cycle   5 NSaved=   5.
 NSaved= 5 IEnMin= 5 EnMin= -62.0611527664800     IErMin= 4 ErrMin= 1.15D-03
 ErrMax= 1.23D-03  0.00D+00 EMaxC= 1.00D-01 BMatC= 9.29D-05 BMatP= 9.48D-05
 IDIUse=3 WtCom= 9.88D-01 WtEn= 1.23D-02
 Coeff-Com:  0.359D-01-0.396D-01-0.628D-01 0.527D+00 0.539D+00
 Coeff-En:   0.000D+00 0.000D+00 0.000D+00 0.113D+00 0.887D+00
 Coeff:      0.355D-01-0.391D-01-0.620D-01 0.522D+00 0.543D+00
 Gap=     0.093 Goal=   None    Shift=    0.000
 RMSDP=1.22D-04 MaxDP=1.89D-02 DE=-9.85D-05 OVMax= 3.94D-03

 Cycle   6  Pass 1  IDiag  1:
 E= -62.0612441383803     Delta-E=       -0.000091371900 Rises=F Damp=F
 DIIS: error= 2.97D-04 at cycle   6 NSaved=   6.
 NSaved= 6 IEnMin= 6 EnMin= -62.0612441383803     IErMin= 6 ErrMin= 2.97D-04
 ErrMax= 2.97D-04  0.00D+00 EMaxC= 1.00D-01 BMatC= 4.59D-06 BMatP= 9.29D-05
 IDIUse=3 WtCom= 9.97D-01 WtEn= 2.97D-03
 Coeff-Com: -0.105D+00 0.120D+00-0.834D-02-0.228D+00-0.103D+00 0.132D+01
 Coeff-En:   0.000D+00 0.000D+00 0.000D+00 0.000D+00 0.000D+00 0.100D+01
 Coeff:     -0.105D+00 0.120D+00-0.831D-02-0.227D+00-0.103D+00 0.132D+01
 Gap=     0.093 Goal=   None    Shift=    0.000
 RMSDP=9.98D-05 MaxDP=1.03D-02 DE=-9.14D-05 OVMax= 4.47D-03

 Cycle   7  Pass 1  IDiag  1:
 E= -62.0612687483545     Delta-E=       -0.000024609974 Rises=F Damp=F
 DIIS: error= 1.36D-04 at cycle   7 NSaved=   7.
 NSaved= 7 IEnMin= 7 EnMin= -62.0612687483545     IErMin= 7 ErrMin= 1.36D-04
 ErrMax= 1.36D-04  0.00D+00 EMaxC= 1.00D-01 BMatC= 1.43D-06 BMatP= 4.59D-06
 IDIUse=3 WtCom= 9.99D-01 WtEn= 1.36D-03
 Coeff-Com: -0.696D-01 0.793D-01-0.351D-03-0.115D+00-0.881D-01 0.145D+00
 Coeff-Com:  0.105D+01
 Coeff-En:   0.000D+00 0.000D+00 0.000D+00 0.000D+00 0.000D+00 0.000D+00
 Coeff-En:   0.100D+01
 Coeff:     -0.695D-01 0.792D-01-0.350D-03-0.115D+00-0.880D-01 0.145D+00
 Coeff:      0.105D+01
 Gap=     0.093 Goal=   None    Shift=    0.000
 RMSDP=1.03D-04 MaxDP=1.30D-02 DE=-2.46D-05 OVMax= 3.90D-03

 Cycle   8  Pass 1  IDiag  1:
 E= -62.0612764014648     Delta-E=       -0.000007653110 Rises=F Damp=F
 DIIS: error= 9.57D-05 at cycle   8 NSaved=   8.
 NSaved= 8 IEnMin= 8 EnMin= -62.0612764014648     IErMin= 8 ErrMin= 9.57D-05
 ErrMax= 9.57D-05  0.00D+00 EMaxC= 1.00D-01 BMatC= 5.76D-07 BMatP= 1.43D-06
 IDIUse=1 WtCom= 1.00D+00 WtEn= 0.00D+00
 Coeff-Com: -0.622D-01 0.711D-01-0.121D-01 0.831D-01 0.481D-01-0.565D+00
 Coeff-Com:  0.641D-01 0.137D+01
 Coeff:     -0.622D-01 0.711D-01-0.121D-01 0.831D-01 0.481D-01-0.565D+00
 Coeff:      0.641D-01 0.137D+01
 Gap=     0.093 Goal=   None    Shift=    0.000
 RMSDP=5.82D-05 MaxDP=7.94D-03 DE=-7.65D-06 OVMax= 1.97D-03

 Cycle   9  Pass 1  IDiag  1:
 E= -62.0612803935054     Delta-E=       -0.000003992041 Rises=F Damp=F
 DIIS: error= 3.09D-05 at cycle   9 NSaved=   9.
 NSaved= 9 IEnMin= 9 EnMin= -62.0612803935054     IErMin= 9 ErrMin= 3.09D-05
 ErrMax= 3.09D-05  0.00D+00 EMaxC= 1.00D-01 BMatC= 1.05D-07 BMatP= 5.76D-07
 IDIUse=1 WtCom= 1.00D+00 WtEn= 0.00D+00
 Coeff-Com: -0.454D-01 0.519D-01-0.967D-02 0.164D-01 0.191D-01 0.574D-01
 Coeff-Com: -0.254D+00-0.232D+00 0.140D+01
 Coeff:     -0.454D-01 0.519D-01-0.967D-02 0.164D-01 0.191D-01 0.574D-01
 Coeff:     -0.254D+00-0.232D+00 0.140D+01
 Gap=     0.093 Goal=   None    Shift=    0.000
 RMSDP=1.97D-05 MaxDP=3.35D-03 DE=-3.99D-06 OVMax= 6.57D-04

 Cycle  10  Pass 1  IDiag  1:
 E= -62.0612808973723     Delta-E=       -0.000000503867 Rises=F Damp=F
 DIIS: error= 1.67D-05 at cycle  10 NSaved=  10.
 NSaved=10 IEnMin=10 EnMin= -62.0612808973723     IErMin=10 ErrMin= 1.67D-05
 ErrMax= 1.67D-05  0.00D+00 EMaxC= 1.00D-01 BMatC= 2.83D-08 BMatP= 1.05D-07
 IDIUse=1 WtCom= 1.00D+00 WtEn= 0.00D+00
 Coeff-Com: -0.370D-01 0.423D-01-0.538D-02-0.134D-01-0.701D-02 0.681D-01
 Coeff-Com:  0.526D-02-0.133D+00-0.869D-01 0.117D+01
 Coeff:     -0.370D-01 0.423D-01-0.538D-02-0.134D-01-0.701D-02 0.681D-01
 Coeff:      0.526D-02-0.133D+00-0.869D-01 0.117D+01
 Gap=     0.093 Goal=   None    Shift=    0.000
 RMSDP=6.05D-06 MaxDP=9.20D-04 DE=-5.04D-07 OVMax= 2.19D-04

 Cycle  11  Pass 1  IDiag  1:
 E= -62.0612809513826     Delta-E=       -0.000000054010 Rises=F Damp=F
 DIIS: error= 1.31D-05 at cycle  11 NSaved=  11.
 NSaved=11 IEnMin=11 EnMin= -62.0612809513826     IErMin=11 ErrMin= 1.31D-05
 ErrMax= 1.31D-05  0.00D+00 EMaxC= 1.00D-01 BMatC= 1.60D-08 BMatP= 2.83D-08
 IDIUse=1 WtCom= 1.00D+00 WtEn= 0.00D+00
 Coeff-Com: -0.314D-01 0.359D-01-0.478D-02-0.475D-02-0.280D-02 0.152D-01
 Coeff-Com:  0.173D-01-0.108D-01-0.135D+00 0.247D+00 0.875D+00
 Coeff:     -0.314D-01 0.359D-01-0.478D-02-0.475D-02-0.280D-02 0.152D-01
 Coeff:      0.173D-01-0.108D-01-0.135D+00 0.247D+00 0.875D+00
 Gap=     0.093 Goal=   None    Shift=    0.000
 RMSDP=1.95D-06 MaxDP=2.97D-04 DE=-5.40D-08 OVMax= 1.30D-04

 Cycle  12  Pass 1  IDiag  1:
 E= -62.0612809722241     Delta-E=       -0.000000020842 Rises=F Damp=F
 DIIS: error= 1.15D-05 at cycle  12 NSaved=  12.
 NSaved=12 IEnMin=12 EnMin= -62.0612809722241     IErMin=12 ErrMin= 1.15D-05
 ErrMax= 1.15D-05  0.00D+00 EMaxC= 1.00D-01 BMatC= 1.14D-08 BMatP= 1.60D-08
 IDIUse=1 WtCom= 1.00D+00 WtEn= 0.00D+00
 Coeff-Com: -0.265D-01 0.302D-01-0.431D-02 0.171D-03-0.368D-05-0.185D-03
 Coeff-Com: -0.108D-02 0.119D-01-0.178D-01-0.759D-01 0.157D+00 0.926D+00
 Coeff:     -0.265D-01 0.302D-01-0.431D-02 0.171D-03-0.368D-05-0.185D-03
 Coeff:     -0.108D-02 0.119D-01-0.178D-01-0.759D-01 0.157D+00 0.926D+00
 Gap=     0.093 Goal=   None    Shift=    0.000
 RMSDP=7.98D-07 MaxDP=4.53D-05 DE=-2.08D-08 OVMax= 8.57D-05

 Cycle  13  Pass 1  IDiag  1:
 E= -62.0612809875176     Delta-E=       -0.000000015293 Rises=F Damp=F
 DIIS: error= 9.63D-06 at cycle  13 NSaved=  13.
 NSaved=13 IEnMin=13 EnMin= -62.0612809875176     IErMin=13 ErrMin= 9.63D-06
 ErrMax= 9.63D-06  0.00D+00 EMaxC= 1.00D-01 BMatC= 8.09D-09 BMatP= 1.14D-08
 IDIUse=1 WtCom= 1.00D+00 WtEn= 0.00D+00
 Coeff-Com: -0.202D-01 0.231D-01-0.333D-02 0.911D-04-0.258D-03 0.311D-02
 Coeff-Com: -0.663D-02-0.106D-02 0.201D-01-0.516D-02-0.185D+00-0.224D+00
 Coeff-Com:  0.140D+01
 Coeff:     -0.202D-01 0.231D-01-0.333D-02 0.911D-04-0.258D-03 0.311D-02
 Coeff:     -0.663D-02-0.106D-02 0.201D-01-0.516D-02-0.185D+00-0.224D+00
 Coeff:      0.140D+01
 Gap=     0.093 Goal=   None    Shift=    0.000
 RMSDP=7.88D-07 MaxDP=6.96D-05 DE=-1.53D-08 OVMax= 1.06D-04

 Cycle  14  Pass 1  IDiag  1:
 E= -62.0612810036311     Delta-E=       -0.000000016113 Rises=F Damp=F
 DIIS: error= 7.30D-06 at cycle  14 NSaved=  14.
 NSaved=14 IEnMin=14 EnMin= -62.0612810036311     IErMin=14 ErrMin= 7.30D-06
 ErrMax= 7.30D-06  0.00D+00 EMaxC= 1.00D-01 BMatC= 4.72D-09 BMatP= 8.09D-09
 IDIUse=1 WtCom= 1.00D+00 WtEn= 0.00D+00
 Coeff-Com: -0.918D-02 0.105D-01-0.144D-02-0.107D-02-0.768D-03 0.542D-02
 Coeff-Com:  0.737D-03-0.716D-02-0.173D-01 0.853D-01 0.498D-01-0.569D+00
 Coeff-Com: -0.851D+00 0.231D+01
 Coeff:     -0.918D-02 0.105D-01-0.144D-02-0.107D-02-0.768D-03 0.542D-02
 Coeff:      0.737D-03-0.716D-02-0.173D-01 0.853D-01 0.498D-01-0.569D+00
 Coeff:     -0.851D+00 0.231D+01
 Gap=     0.093 Goal=   None    Shift=    0.000
 RMSDP=1.37D-06 MaxDP=1.10D-04 DE=-1.61D-08 OVMax= 1.84D-04

 Cycle  15  Pass 1  IDiag  1:
 E= -62.0612810215455     Delta-E=       -0.000000017914 Rises=F Damp=F
 DIIS: error= 3.40D-06 at cycle  15 NSaved=  15.
 NSaved=15 IEnMin=15 EnMin= -62.0612810215455     IErMin=15 ErrMin= 3.40D-06
 ErrMax= 3.40D-06  0.00D+00 EMaxC= 1.00D-01 BMatC= 9.67D-10 BMatP= 4.72D-09
 IDIUse=1 WtCom= 1.00D+00 WtEn= 0.00D+00
 Coeff-Com: -0.277D-02 0.316D-02-0.412D-03-0.576D-03-0.294D-03 0.182D-02
 Coeff-Com:  0.239D-02-0.168D-02-0.187D-01 0.386D-01 0.112D+00-0.998D-01
 Coeff-Com: -0.859D+00 0.675D+00 0.115D+01
 Coeff:     -0.277D-02 0.316D-02-0.412D-03-0.576D-03-0.294D-03 0.182D-02
 Coeff:      0.239D-02-0.168D-02-0.187D-01 0.386D-01 0.112D+00-0.998D-01
 Coeff:     -0.859D+00 0.675D+00 0.115D+01
 Gap=     0.093 Goal=   None    Shift=    0.000
 RMSDP=9.27D-07 MaxDP=7.40D-05 DE=-1.79D-08 OVMax= 1.07D-04

 Cycle  16  Pass 1  IDiag  1:
 E= -62.0612810257869     Delta-E=       -0.000000004241 Rises=F Damp=F
 DIIS: error= 9.62D-07 at cycle  16 NSaved=  16.
 NSaved=16 IEnMin=16 EnMin= -62.0612810257869     IErMin=16 ErrMin= 9.62D-07
 ErrMax= 9.62D-07  0.00D+00 EMaxC= 1.00D-01 BMatC= 8.80D-11 BMatP= 9.67D-10
 IDIUse=1 WtCom= 1.00D+00 WtEn= 0.00D+00
 Coeff-Com: -0.379D-03 0.433D-03-0.675D-04 0.123D-03 0.117D-03-0.760D-03
 Coeff-Com:  0.115D-03 0.164D-02-0.303D-03-0.123D-01 0.153D-01 0.132D+00
 Coeff-Com:  0.559D-01-0.499D+00 0.194D+00 0.111D+01
 Coeff:     -0.379D-03 0.433D-03-0.675D-04 0.123D-03 0.117D-03-0.760D-03
 Coeff:      0.115D-03 0.164D-02-0.303D-03-0.123D-01 0.153D-01 0.132D+00
 Coeff:      0.559D-01-0.499D+00 0.194D+00 0.111D+01
 Gap=     0.093 Goal=   None    Shift=    0.000
 RMSDP=2.98D-07 MaxDP=2.60D-05 DE=-4.24D-09 OVMax= 3.99D-05

 Cycle  17  Pass 1  IDiag  1:
 E= -62.0612810262095     Delta-E=       -0.000000000423 Rises=F Damp=F
 DIIS: error= 1.40D-07 at cycle  17 NSaved=  17.
 NSaved=17 IEnMin=17 EnMin= -62.0612810262095     IErMin=17 ErrMin= 1.40D-07
 ErrMax= 1.40D-07  0.00D+00 EMaxC= 1.00D-01 BMatC= 1.72D-12 BMatP= 8.80D-11
 IDIUse=1 WtCom= 1.00D+00 WtEn= 0.00D+00
 Coeff-Com: -0.127D-03 0.145D-03-0.253D-04 0.615D-04 0.221D-04-0.151D-03
 Coeff-Com: -0.321D-03 0.212D-03 0.196D-02-0.376D-02-0.156D-01 0.732D-02
 Coeff-Com:  0.125D+00-0.877D-01-0.153D+00 0.312D-02 0.112D+01
 Coeff:     -0.127D-03 0.145D-03-0.253D-04 0.615D-04 0.221D-04-0.151D-03
 Coeff:     -0.321D-03 0.212D-03 0.196D-02-0.376D-02-0.156D-01 0.732D-02
 Coeff:      0.125D+00-0.877D-01-0.153D+00 0.312D-02 0.112D+01
 Gap=     0.093 Goal=   None    Shift=    0.000
 RMSDP=3.79D-08 MaxDP=2.31D-06 DE=-4.23D-10 OVMax= 4.34D-06

 Cycle  18  Pass 1  IDiag  1:
 E= -62.0612810262173     Delta-E=       -0.000000000008 Rises=F Damp=F
 DIIS: error= 4.52D-08 at cycle  18 NSaved=  18.
 NSaved=18 IEnMin=18 EnMin= -62.0612810262173     IErMin=18 ErrMin= 4.52D-08
 ErrMax= 4.52D-08  0.00D+00 EMaxC= 1.00D-01 BMatC= 1.91D-13 BMatP= 1.72D-12
 IDIUse=1 WtCom= 1.00D+00 WtEn= 0.00D+00
 Coeff-Com:  0.343D-07-0.568D-07 0.101D-05-0.197D-04-0.154D-04 0.979D-04
 Coeff-Com:  0.246D-04-0.181D-03-0.261D-03 0.204D-02-0.559D-03-0.172D-01
 Coeff-Com: -0.122D-01 0.490D-01-0.733D-03-0.101D+00-0.122D+00 0.120D+01
 Coeff:      0.343D-07-0.568D-07 0.101D-05-0.197D-04-0.154D-04 0.979D-04
 Coeff:      0.246D-04-0.181D-03-0.261D-03 0.204D-02-0.559D-03-0.172D-01
 Coeff:     -0.122D-01 0.490D-01-0.733D-03-0.101D+00-0.122D+00 0.120D+01
 Gap=     0.093 Goal=   None    Shift=    0.000
 RMSDP=2.13D-08 MaxDP=1.99D-06 DE=-7.87D-12 OVMax= 2.16D-06

 Cycle  19  Pass 1  IDiag  1:
 E= -62.0612810262183     Delta-E=       -0.000000000001 Rises=F Damp=F
 DIIS: error= 2.38D-09 at cycle  19 NSaved=  19.
 NSaved=19 IEnMin=19 EnMin= -62.0612810262183     IErMin=19 ErrMin= 2.38D-09
 ErrMax= 2.38D-09  0.00D+00 EMaxC= 1.00D-01 BMatC= 4.45D-16 BMatP= 1.91D-13
 IDIUse=1 WtCom= 1.00D+00 WtEn= 0.00D+00
 Large coefficients: NSaved= 19 BigCof=    0.00 CofMax=   10.00 Det=-1.35D-15
 Inversion failed.  Reducing to 18 matrices.
 Large coefficients: NSaved= 18 BigCof=    0.00 CofMax=   10.00 Det=-1.35D-15
 Inversion failed.  Reducing to 17 matrices.
 Large coefficients: NSaved= 17 BigCof=    0.00 CofMax=   10.00 Det=-1.44D-15
 Inversion failed.  Reducing to 16 matrices.
 Large coefficients: NSaved= 16 BigCof=    0.00 CofMax=   10.00 Det=-1.53D-15
 Inversion failed.  Reducing to 15 matrices.
 Coeff-Com:  0.227D-05-0.648D-05 0.901D-05 0.129D-04-0.514D-04-0.104D-03
 Coeff-Com:  0.923D-03 0.231D-02-0.427D-02-0.460D-02 0.106D-01 0.206D-01
 Coeff-Com: -0.582D-01-0.202D+00 0.123D+01
 Coeff:      0.227D-05-0.648D-05 0.901D-05 0.129D-04-0.514D-04-0.104D-03
 Coeff:      0.923D-03 0.231D-02-0.427D-02-0.460D-02 0.106D-01 0.206D-01
 Coeff:     -0.582D-01-0.202D+00 0.123D+01
 Gap=     0.093 Goal=   None    Shift=    0.000
 RMSDP=6.41D-10 MaxDP=5.13D-08 DE=-9.81D-13 OVMax= 9.91D-08

 SCF Done:  E(ROHF) =  -62.0612810262     A.U. after   19 cycles
            NFock= 19  Conv=0.64D-09     -V/T= 3.0877
 <Sx>= 0.0000 <Sy>= 0.0000 <Sz>= 0.5000 <S**2>= 0.7500 S= 0.5000
 <L.S>=  0.00000000000    
 KE= 2.972678734453D+01 PE=-1.724096393537D+02 EE= 6.121840658252D+01
 Annihilation of the first spin contaminant:
 S**2 before annihilation     0.7500,   after     0.7500
 Leave Link  502 at Wed Feb 28 18:39:33 2018, MaxMem= 10737418240 cpu:             403.4 elap:              29.0
 (Enter /home1/apps/gaussian/16rA.03/g16/l801.exe)
 Windowed orbitals will be sorted by symmetry type.
 GenMOA:  NOpAll=  4 NOp2=4 NOpUse=  4 JSym2X=1
 FoFJK:  IHMeth= 1 ICntrl=       0 DoSepK=F KAlg= 0 I1Cent=           0 FoldK=F
 IRaf=         0 NMat=       1 IRICut=       1 DoRegI=T DoRafI=F ISym2E= 1 IDoP0=0 IntGTp=1.
 FoFCou: FMM=F IPFlag=           8 FMFlag=      100000 FMFlg1=           0
         NFxFlg=           0 DoJE=F BraDBF=F KetDBF=F FulRan=T
         wScrn=  0.000000 ICntrl=         0 IOpCl=  1 I1Cent=           0 NGrid=           0
         NMat0=    1 NMatS0=      1 NMatT0=    0 NMatD0=    1 NMtDS0=    0 NMtDT0=    0
 Petite list used in FoFCou.
 <Sx>= 0.0000 <Sy>= 0.0000 <Sz>= 0.5000 <S**2>= 0.7500 S= 0.5000
 Range of M.O.s used for correlation:     1   258
 NBasis=   261 NAE=     9 NBE=     8 NFC=     0 NFV=     0
 NROrb=    258 NOA=     9 NOB=     8 NVA=   249 NVB=   250

 **** Warning!!: The largest alpha MO coefficient is  0.36056428D+03


 **** Warning!!: The largest beta MO coefficient is  0.36056837D+03

 Singles contribution to E2=   -0.2060094612D-03
 Leave Link  801 at Wed Feb 28 18:39:39 2018, MaxMem= 10737418240 cpu:             101.6 elap:               6.4
 (Enter /home1/apps/gaussian/16rA.03/g16/l804.exe)
 Open-shell transformation, MDV= 10737418240 ITran=4 ISComp=2.
 Unit  1 TFree=       2053660 TCopy=       1549987.
 Semi-Direct transformation.
 ModeAB=           4 MOrb=             9 LenV=   10735345870
 LASXX=     19587894 LTotXX=    19587894 LenRXX=    39492189
 LTotAB=    19904295 MaxLAS=   112052754 LenRXY=           0
 NonZer=    59080083 LenScr=    89384960 LnRSAI=   112052754
 LnScr1=   168862720 LExtra=     8126839 Total=    417919462
 MaxDsk= 67108864000 SrtSym=           T ITran=            4
 DoSDTr:  NPSUse= 16
 JobTyp=1 Pass  1:  I=   1 to   9.
 (rs|ai) integrals will be sorted in core.
 Complete sort for first half transformation.
 First half transformation complete.
 Complete sort for second half transformation.
 Second half transformation complete.
 ModeAB=           4 MOrb=             8 LenV=   10735345870
 LASXX=     17386166 LTotXX=    17386166 LenRXX=    33807986
 LTotAB=    16421820 MaxLAS=    99602448 LenRXY=           0
 NonZer=    51194152 LenScr=    77552640 LnRSAI=    99602448
 LnScr1=   150159360 LExtra=    47619028 Total=    408741462
 MaxDsk= 67108864000 SrtSym=           T ITran=            4
 DoSDTr:  NPSUse= 16
 JobTyp=2 Pass  1:  I=   1 to   8.
 (rs|ai) integrals will be sorted in core.
 Complete sort for first half transformation.
 First half transformation complete.
 Complete sort for second half transformation.
 Second half transformation complete.
 Spin components of T(2) and E(2):
     alpha-alpha T2 =       0.3274375568D-01 E2=     -0.9825261748D-01
     alpha-beta  T2 =       0.1393676931D+00 E2=     -0.5065447047D+00
     beta-beta   T2 =       0.2851620590D-01 E2=     -0.8955637828D-01
 ANorm=    0.1095823387D+01
 E2 =    -0.6945597099D+00 EUMP2 =    -0.62755840736106D+02
 (S**2,0)=  0.75000D+00           (S**2,1)=  0.75000D+00
 E(PUHF)=      -0.62061281026D+02        E(PMP2)=      -0.62755840736D+02
 Leave Link  804 at Wed Feb 28 18:41:39 2018, MaxMem= 10737418240 cpu:            1912.1 elap:             119.7
 (Enter /home1/apps/gaussian/16rA.03/g16/l913.exe)
 CIDS:  MDV= 10737418240.
 IFCWin=0 IBDFC=1 NFBD=     0     0 NFCmp=     0     0 NFFFC=     0     0
 Using original routines for 1st iteration.
 Using DD4UQ or CC4UQ for 2nd and later iterations.
 Keep R2 and R3 ints in memory in symmetry-blocked form, NReq=734615681.
 FoFCou: FMM=F IPFlag=           8 FMFlag=           0 FMFlg1=           0
         NFxFlg=           0 DoJE=F BraDBF=F KetDBF=F FulRan=T
         wScrn=  0.000000 ICntrl=       600 IOpCl=  0 I1Cent=           0 NGrid=           0
         NMat0=    1 NMatS0=  34191 NMatT0=    0 NMatD0=    1 NMtDS0=    0 NMtDT0=    0
 Petite list used in FoFCou.
 CIDS: In Core Option IDoMem=           1.
 CCSD(T)
 =======
 Iterations= 150 Convergence= 0.100D-06
 Produce multiple copies of IABC intergrals
 Iteration Nr.   1
 **********************
 DD1Dir will call FoFMem   1 times, MxPair=       208
 NAB=    72 NAA=    36 NBB=    28.
 DD1Dir will call FoFMem   1 times, MxPair=       208
 NAB=    72 NAA=    36 NBB=    28.
 MP4(R+Q)= -0.13186126D-01
 Maximum subspace dimension=  5
 A-vector RMS=  1.2252669D-04 Max=  3.5955452D-03 conv= 1.00D-05.
 RLE energy=       -0.6757080814
 E3=        0.32543904D-01        EROMP3=      -0.62723296832D+02
 E4(SDQ)=  -0.45760431D-01        ROMP4(SDQ)=  -0.62769057263D+02
 VARIATIONAL ENERGIES WITH THE FIRST-ORDER WAVEFUNCTION:
 DE(Corr)= -0.67518195     E(Corr)=     -62.736462978    
 NORM(A)=   0.10885997D+01
 Iteration Nr.   2
 **********************
 DD1Dir will call FoFMem   1 times, MxPair=       208
 NAB=    72 NAA=    36 NBB=    28.
 A-vector RMS=  6.5910698D-03 Max=  6.0132826D-02 conv= 1.00D-05.
 RLE energy=       -0.6299353436
 DE(Corr)= -0.63983116     E(CORR)=     -62.701112184     Delta= 3.54D-02
 NORM(A)=   0.11009744D+01
 Iteration Nr.   3
 **********************
 DD1Dir will call FoFMem   1 times, MxPair=       208
 NAB=    72 NAA=    36 NBB=    28.
 A-vector RMS=  7.4588268D-03 Max=  6.7873270D-02 conv= 1.00D-05.
 RLE energy=       -0.6774511993
 DE(Corr)= -0.71555898     E(CORR)=     -62.776840004     Delta=-7.57D-02
 NORM(A)=   0.10882090D+01
 Iteration Nr.   4
 **********************
 DD1Dir will call FoFMem   1 times, MxPair=       208
 NAB=    72 NAA=    36 NBB=    28.
 A-vector RMS=  5.2215088D-03 Max=  4.7405769D-02 conv= 1.00D-05.
 RLE energy=       -0.6804823971
 DE(Corr)= -0.65038334     E(CORR)=     -62.711664368     Delta= 6.52D-02
 NORM(A)=   0.11083142D+01
 Iteration Nr.   5
 **********************
 DD1Dir will call FoFMem   1 times, MxPair=       208
 NAB=    72 NAA=    36 NBB=    28.
 A-vector RMS=  9.2308184D-04 Max=  7.6789699D-03 conv= 1.00D-05.
 RLE energy=       -0.6810947362
 DE(Corr)= -0.68627115     E(CORR)=     -62.747552180     Delta=-3.59D-02
 NORM(A)=   0.11117802D+01
 Iteration Nr.   6
 **********************
 DD1Dir will call FoFMem   1 times, MxPair=       208
 NAB=    72 NAA=    36 NBB=    28.
 A-vector RMS=  4.3571784D-04 Max=  3.4746200D-03 conv= 1.00D-05.
 RLE energy=       -0.6814703357
 DE(Corr)= -0.68313787     E(CORR)=     -62.744418892     Delta= 3.13D-03
 NORM(A)=   0.11133740D+01
 Iteration Nr.   7
 **********************
 DD1Dir will call FoFMem   1 times, MxPair=       208
 NAB=    72 NAA=    36 NBB=    28.
 A-vector RMS=  1.7323060D-04 Max=  2.3187672D-03 conv= 1.00D-05.
 RLE energy=       -0.6814531381
 DE(Corr)= -0.68117862     E(CORR)=     -62.742459643     Delta= 1.96D-03
 NORM(A)=   0.11153328D+01
 Iteration Nr.   8
 **********************
 DD1Dir will call FoFMem   1 times, MxPair=       208
 NAB=    72 NAA=    36 NBB=    28.
 A-vector RMS=  1.0610207D-04 Max=  1.2269808D-03 conv= 1.00D-05.
 RLE energy=       -0.6813701722
 DE(Corr)= -0.68134754     E(CORR)=     -62.742628562     Delta=-1.69D-04
 NORM(A)=   0.11160182D+01
 Iteration Nr.   9
 **********************
 DD1Dir will call FoFMem   1 times, MxPair=       208
 NAB=    72 NAA=    36 NBB=    28.
 A-vector RMS=  4.9781297D-05 Max=  5.4730465D-04 conv= 1.00D-05.
 RLE energy=       -0.6815424605
 DE(Corr)= -0.68140711     E(CORR)=     -62.742688133     Delta=-5.96D-05
 NORM(A)=   0.11164799D+01
 Iteration Nr.  10
 **********************
 DD1Dir will call FoFMem   1 times, MxPair=       208
 NAB=    72 NAA=    36 NBB=    28.
 A-vector RMS=  2.9778760D-05 Max=  2.4855414D-04 conv= 1.00D-05.
 RLE energy=       -0.6815038687
 DE(Corr)= -0.68139304     E(CORR)=     -62.742674067     Delta= 1.41D-05
 NORM(A)=   0.11165245D+01
 Iteration Nr.  11
 **********************
 DD1Dir will call FoFMem   1 times, MxPair=       208
 NAB=    72 NAA=    36 NBB=    28.
 A-vector RMS=  1.6335626D-05 Max=  2.0564456D-04 conv= 1.00D-05.
 RLE energy=       -0.6814763861
 DE(Corr)= -0.68146943     E(CORR)=     -62.742750459     Delta=-7.64D-05
 NORM(A)=   0.11164682D+01
 Iteration Nr.  12
 **********************
 DD1Dir will call FoFMem   1 times, MxPair=       208
 NAB=    72 NAA=    36 NBB=    28.
 A-vector RMS=  8.9978200D-06 Max=  7.9280047D-05 conv= 1.00D-05.
 RLE energy=       -0.6814706738
 DE(Corr)= -0.68145735     E(CORR)=     -62.742738375     Delta= 1.21D-05
 NORM(A)=   0.11164917D+01
 Iteration Nr.  13
 **********************
 DD1Dir will call FoFMem   1 times, MxPair=       208
 NAB=    72 NAA=    36 NBB=    28.
 A-vector RMS=  6.4190460D-06 Max=  9.1659145D-05 conv= 1.00D-05.
 RLE energy=       -0.6814827889
 DE(Corr)= -0.68148435     E(CORR)=     -62.742765373     Delta=-2.70D-05
 NORM(A)=   0.11164918D+01
 Iteration Nr.  14
 **********************
 DD1Dir will call FoFMem   1 times, MxPair=       208
 NAB=    72 NAA=    36 NBB=    28.
 A-vector RMS=  3.4887599D-06 Max=  3.2140881D-05 conv= 1.00D-05.
 RLE energy=       -0.6814738769
 DE(Corr)= -0.68146990     E(CORR)=     -62.742750928     Delta= 1.44D-05
 NORM(A)=   0.11165041D+01
 Iteration Nr.  15
 **********************
 DD1Dir will call FoFMem   1 times, MxPair=       208
 NAB=    72 NAA=    36 NBB=    28.
 A-vector RMS=  1.8593668D-06 Max=  2.6409956D-05 conv= 1.00D-05.
 RLE energy=       -0.6814810189
 DE(Corr)= -0.68148176     E(CORR)=     -62.742762789     Delta=-1.19D-05
 NORM(A)=   0.11165146D+01
 Iteration Nr.  16
 **********************
 DD1Dir will call FoFMem   1 times, MxPair=       208
 NAB=    72 NAA=    36 NBB=    28.
 A-vector RMS=  1.4582261D-06 Max=  1.3245408D-05 conv= 1.00D-05.
 RLE energy=       -0.6814791563
 DE(Corr)= -0.68147783     E(CORR)=     -62.742758853     Delta= 3.94D-06
 NORM(A)=   0.11165215D+01
 Iteration Nr.  17
 **********************
 DD1Dir will call FoFMem   1 times, MxPair=       208
 NAB=    72 NAA=    36 NBB=    28.
 A-vector RMS=  7.2664711D-07 Max=  6.0964316D-06 conv= 1.00D-05.
 RLE energy=       -0.6814809194
 DE(Corr)= -0.68148070     E(CORR)=     -62.742761726     Delta=-2.87D-06
 NORM(A)=   0.11165268D+01
 Iteration Nr.  18
 **********************
 DD1Dir will call FoFMem   1 times, MxPair=       208
 NAB=    72 NAA=    36 NBB=    28.
 A-vector RMS=  5.6535328D-07 Max=  7.6864290D-06 conv= 1.00D-05.
 RLE energy=       -0.6814797915
 DE(Corr)= -0.68147946     E(CORR)=     -62.742760488     Delta= 1.24D-06
 NORM(A)=   0.11165306D+01
 Iteration Nr.  19
 **********************
 DD1Dir will call FoFMem   1 times, MxPair=       208
 NAB=    72 NAA=    36 NBB=    28.
 A-vector RMS=  3.8601253D-07 Max=  2.7966027D-06 conv= 1.00D-05.
 RLE energy=       -0.6814813046
 DE(Corr)= -0.68148133     E(CORR)=     -62.742762356     Delta=-1.87D-06
 NORM(A)=   0.11165317D+01
 Iteration Nr.  20
 **********************
 DD1Dir will call FoFMem   1 times, MxPair=       208
 NAB=    72 NAA=    36 NBB=    28.
 A-vector RMS=  2.3884973D-07 Max=  2.6960222D-06 conv= 1.00D-05.
 RLE energy=       -0.6814801667
 DE(Corr)= -0.68147978     E(CORR)=     -62.742760810     Delta= 1.55D-06
 NORM(A)=   0.11165329D+01
 Iteration Nr.  21
 **********************
 DD1Dir will call FoFMem   1 times, MxPair=       208
 NAB=    72 NAA=    36 NBB=    28.
 A-vector RMS=  2.0335816D-07 Max=  2.0485176D-06 conv= 1.00D-05.
 RLE energy=       -0.6814808380
 DE(Corr)= -0.68148116     E(CORR)=     -62.742762189     Delta=-1.38D-06
 NORM(A)=   0.11165331D+01
 Iteration Nr.  22
 **********************
 DD1Dir will call FoFMem   1 times, MxPair=       208
 NAB=    72 NAA=    36 NBB=    28.
 A-vector RMS=  7.5859917D-08 Max=  6.3855199D-07 conv= 1.00D-05.
 RLE energy=       -0.6814806380
 DE(Corr)= -0.68148050     E(CORR)=     -62.742761525     Delta= 6.64D-07
 NORM(A)=   0.11165335D+01
 Iteration Nr.  23
 **********************
 DD1Dir will call FoFMem   1 times, MxPair=       208
 NAB=    72 NAA=    36 NBB=    28.
 A-vector RMS=  7.2347941D-08 Max=  8.7767338D-07 conv= 1.00D-05.
 RLE energy=       -0.6814807643
 DE(Corr)= -0.68148080     E(CORR)=     -62.742761826     Delta=-3.01D-07
 NORM(A)=   0.11165336D+01
 Iteration Nr.  24
 **********************
 DD1Dir will call FoFMem   1 times, MxPair=       208
 NAB=    72 NAA=    36 NBB=    28.
 A-vector RMS=  2.9520834D-08 Max=  2.3446743D-07 conv= 1.00D-05.
 RLE energy=       -0.6814806745
 DE(Corr)= -0.68148068     E(CORR)=     -62.742761703     Delta= 1.23D-07
 NORM(A)=   0.11165336D+01
 Iteration Nr.  25
 **********************
 DD1Dir will call FoFMem   1 times, MxPair=       208
 NAB=    72 NAA=    36 NBB=    28.
 A-vector RMS=  2.6001890D-08 Max=  3.8994639D-07 conv= 1.00D-05.
 RLE energy=       -0.6814807710
 DE(Corr)= -0.68148079     E(CORR)=     -62.742761814     Delta=-1.11D-07
 NORM(A)=   0.11165336D+01
 Iteration Nr.  26
 **********************
 DD1Dir will call FoFMem   1 times, MxPair=       208
 NAB=    72 NAA=    36 NBB=    28.
 A-vector RMS=  1.4021062D-08 Max=  1.2581010D-07 conv= 1.00D-05.
 RLE energy=       -0.6814806954
 DE(Corr)= -0.68148069     E(CORR)=     -62.742761715     Delta= 9.90D-08
 NORM(A)=   0.11165336D+01
 CI/CC converged in   26 iterations to DelEn= 9.90D-08 Conv= 1.00D-07 ErrA1= 1.40D-08 Conv= 1.00D-05
 Wavefunction amplitudes converged. E(Corr)=     -62.742761715    
 Largest amplitude= 7.10D-02
 Time for triples=    11559.23 seconds.
 T4(CCSD)= -0.54763873D-01
 T5(CCSD)=  0.11246935D-01
 CCSD(T)= -0.62786278652D+02
 Discarding MO integrals.
 Leave Link  913 at Wed Feb 28 19:00:32 2018, MaxMem= 10737418240 cpu:           18087.7 elap:            1132.2
 (Enter /home1/apps/gaussian/16rA.03/g16/l601.exe)
 Copying SCF densities to generalized density rwf, IOpCl= 0 IROHF=1.

 **********************************************************************

            Population analysis using the SCF density.

 **********************************************************************

 Orbital symmetries:
       Occupied  (SG) (SG) (PI) (PI) (SG) (SG) (PI) (PI) (SG)
       Virtual   (PI) (PI) (SG) (SG) (DLTA) (DLTA) (PI) (PI) (PI)
                 (PI) (SG) (SG) (DLTA) (DLTA) (SG) (PI) (PI) (SG)
                 (PI) (PI) (SG) (DLTA) (DLTA) (PI) (PI) (PHI) (PHI)
                 (SG) (DLTA) (DLTA) (PI) (PI) (SG) (SG) (PI) (PI)
                 (SG) (SG) (DLTA) (DLTA) (PI) (PI) (?A) (?A) (DLTA)
                 (DLTA) (PHI) (PHI) (SG) (PI) (PI) (PI) (PI) (SG)
                 (PHI) (PHI) (DLTA) (DLTA) (SG) (PI) (PI) (SG)
                 (PI) (PI) (DLTA) (DLTA) (SG) (SG) (DLTA) (DLTA)
                 (PI) (PI) (SG) (SG) (PI) (PI) (PI) (PI) (SG) (DLTA)
                 (DLTA) (PHI) (PHI) (?A) (?A) (SG) (PI) (PI) (SG)
                 (DLTA) (DLTA) (PHI) (PHI) (PI) (PI) (PHI) (PHI)
                 (SG) (DLTA) (DLTA) (PI) (PI) (DLTA) (DLTA) (SG)
                 (DLTA) (DLTA) (PI) (PI) (SG) (PI) (PI) (SG) (SG)
                 (PI) (PI) (SG) (PI) (PI) (SG) (SG) (DLTA) (DLTA)
                 (PI) (PI) (PHI) (PHI) (DLTA) (DLTA) (SG) (PI)
                 (PI) (PHI) (PHI) (DLTA) (DLTA) (SG) (PI) (PI)
                 (DLTA) (DLTA) (SG) (PI) (PI) (SG) (?A) (?A) (PHI)
                 (PHI) (DLTA) (DLTA) (PI) (PI) (SG) (SG) (PI) (PI)
                 (SG) (DLTA) (DLTA) (PI) (PI) (SG) (SG) (PI) (PI)
                 (SG) (SG) (PI) (PI) (SG) (DLTA) (DLTA) (PI) (PI)
                 (SG) (SG) (PI) (PI) (SG) (SG) (DLTA) (DLTA) (PI)
                 (PI) (SG) (PI) (PI) (SG) (DLTA) (DLTA) (PI) (PI)
                 (SG) (SG) (SG) (PI) (PI) (SG) (SG) (PI) (PI) (SG)
                 (SG) (PI) (PI) (SG) (DLTA) (DLTA) (PI) (PI) (SG)
                 (SG) (SG) (PI) (PI) (SG) (PI) (PI) (SG) (SG) (SG)
                 (PI) (PI) (SG) (SG) (PI) (PI) (SG) (SG) (SG) (PI)
                 (PI) (SG) (SG) (SG) (PI) (PI) (SG) (SG) (SG) (SG)
                 (PI) (PI) (SG) (SG) (SG) (SG) (SG)
 The electronic state is 2-SG.
 Alpha  occ. eigenvalues --   -2.74547  -1.66632  -1.65584  -1.65584  -1.10232
 Alpha  occ. eigenvalues --   -0.41460  -0.38480  -0.38480  -0.26454
 Alpha virt. eigenvalues --   -0.00461  -0.00461   0.01199   0.02109   0.03275
 Alpha virt. eigenvalues --    0.03275   0.03487   0.03487   0.04254   0.04254
 Alpha virt. eigenvalues --    0.04406   0.04993   0.07127   0.07127   0.10240
 Alpha virt. eigenvalues --    0.11789   0.11789   0.13078   0.15024   0.15024
 Alpha virt. eigenvalues --    0.15177   0.15359   0.15359   0.15680   0.15680
 Alpha virt. eigenvalues --    0.16013   0.16013   0.17268   0.17665   0.17665
 Alpha virt. eigenvalues --    0.20522   0.20522   0.26666   0.33171   0.34377
 Alpha virt. eigenvalues --    0.34377   0.37496   0.42857   0.44693   0.44693
 Alpha virt. eigenvalues --    0.46252   0.46252   0.46597   0.46597   0.46647
 Alpha virt. eigenvalues --    0.46647   0.47480   0.47857   0.47857   0.48391
 Alpha virt. eigenvalues --    0.48391   0.53239   0.53239   0.57481   0.60449
 Alpha virt. eigenvalues --    0.60449   0.61352   0.61352   0.64965   0.81467
 Alpha virt. eigenvalues --    0.81467   0.87953   0.97994   0.97994   1.00485
 Alpha virt. eigenvalues --    1.00485   1.02844   1.22329   1.25566   1.25566
 Alpha virt. eigenvalues --    1.29355   1.29355   1.32905   1.52823   1.53572
 Alpha virt. eigenvalues --    1.53572   1.57143   1.57143   1.71132   1.89919
 Alpha virt. eigenvalues --    1.89919   1.91201   1.91201   1.92153   1.92153
 Alpha virt. eigenvalues --    1.93918   1.96862   1.96862   2.08932   2.12080
 Alpha virt. eigenvalues --    2.12080   2.13364   2.13364   2.14332   2.14332
 Alpha virt. eigenvalues --    2.27154   2.27154   2.41635   2.47057   2.47057
 Alpha virt. eigenvalues --    2.66651   2.66651   2.70275   2.70275   2.86337
 Alpha virt. eigenvalues --    2.99489   2.99489   3.07236   3.07236   3.07482
 Alpha virt. eigenvalues --    3.29339   3.29339   3.54500   3.63052   4.02333
 Alpha virt. eigenvalues --    4.02333   4.20637   4.31939   4.31939   4.77539
 Alpha virt. eigenvalues --    5.23337   6.24840   6.24840   6.28321   6.28321
 Alpha virt. eigenvalues --    6.38734   6.38734   6.41635   6.41635   6.41915
 Alpha virt. eigenvalues --    6.63617   6.63617   6.65073   6.65073   6.77835
 Alpha virt. eigenvalues --    6.77835   6.81528   6.97646   6.97646   7.22260
 Alpha virt. eigenvalues --    7.22260   7.39769   7.47664   7.47664   7.53516
 Alpha virt. eigenvalues --    7.61013   7.61013   7.62879   7.62879   7.68193
 Alpha virt. eigenvalues --    7.68193   7.75245   7.75245   8.18307   8.33760
 Alpha virt. eigenvalues --    8.67800   8.67800   9.10928  11.93754  11.93754
 Alpha virt. eigenvalues --   12.02023  12.02023  12.22067  13.95351  15.14595
 Alpha virt. eigenvalues --   15.14595  15.71007  16.96568  17.26671  17.26671
 Alpha virt. eigenvalues --   17.65774  22.84901  22.84901  22.91410  22.91410
 Alpha virt. eigenvalues --   23.09975  31.42657  34.53379  34.53379  34.53402
 Alpha virt. eigenvalues --   34.93095  44.10836  44.10836  44.16710  44.16710
 Alpha virt. eigenvalues --   44.33076  46.48686  46.48686  46.91978  57.13068
 Alpha virt. eigenvalues --   57.13068  57.17459  57.17459  57.31603  63.74862
 Alpha virt. eigenvalues --   66.78662  69.37102  69.37102  69.69142 118.61555
 Alpha virt. eigenvalues --  121.07168 121.07168 121.38745 122.36238 139.61693
 Alpha virt. eigenvalues --  139.61693 139.92108 200.53252 200.53252 200.55834
 Alpha virt. eigenvalues --  200.55834 200.64834 217.24125 236.58056 285.42250
 Alpha virt. eigenvalues --  285.42250 285.70962 290.67183 290.67183 290.98443
 Alpha virt. eigenvalues --  420.80175 525.90832 604.58958 604.58958 604.85707
 Alpha virt. eigenvalues --  860.076631357.283931357.283931357.525001494.68973
 Alpha virt. eigenvalues -- 1855.805533326.622393326.622393326.832164234.94041
 Alpha virt. eigenvalues -- 5622.371439382.282109382.282109382.45459**********
 Alpha virt. eigenvalues -- **************************************************
 Alpha virt. eigenvalues -- ****************************************
     Molecular Orbital Coefficients:
                           4         5         6         7         8
                           O         O         O         O         O
     Eigenvalues --    -1.65584  -1.10232  -0.41460  -0.38480  -0.38480
   1 1   Sc 1S          0.00000   0.00000   0.00000   0.00000   0.00000
   2        2S          0.00000  -0.00000  -0.00000   0.00000   0.00000
   3        3S          0.00000   0.00000   0.00000   0.00000   0.00000
   4        4S          0.00000  -0.00000  -0.00000   0.00000   0.00000
   5        5S          0.00000   0.00000   0.00000   0.00000   0.00000
   6        6S          0.00000  -0.00000  -0.00000   0.00000   0.00000
   7        7S          0.00000   0.00000   0.00001   0.00000   0.00000
   8        8S          0.00000  -0.00001  -0.00002   0.00000   0.00000
   9        9S          0.00000   0.00004   0.00006   0.00000   0.00000
  10       10S          0.00000  -0.00011  -0.00015   0.00000   0.00000
  11       11S          0.00000   0.00026   0.00034   0.00000   0.00000
  12       12S          0.00000   0.00018   0.00024   0.00000   0.00000
  13       13S          0.00000  -0.01329  -0.01857   0.00000   0.00000
  14       14S          0.00000   0.06434   0.09250   0.00000   0.00000
  15       15S          0.00000   0.00779   0.02214   0.00000   0.00000
  16       16S          0.00000  -0.07877  -0.12335   0.00000   0.00000
  17       17S          0.00000  -0.01682  -0.05449   0.00000   0.00000
  18       18S          0.00000  -0.01109   0.06840   0.00000   0.00000
  19       19S          0.00000  -0.01612  -0.01231   0.00000   0.00000
  20       20S          0.00000  -0.00027   0.01201   0.00000   0.00000
  21       21S          0.00000  -0.02877  -0.05070   0.00000   0.00000
  22       22S          0.00000  -0.03204  -0.04502   0.00000   0.00000
  23       23S          0.00000   0.00074  -0.00020   0.00000   0.00000
  24       24PX         0.00000   0.00000   0.00000   0.00000   0.00000
  25       24PY        -0.00000   0.00000   0.00000   0.00000   0.00000
  26       24PZ         0.00000  -0.00000  -0.00000   0.00000   0.00000
  27       25PX         0.00000   0.00000   0.00000   0.00000  -0.00000
  28       25PY         0.00000   0.00000   0.00000  -0.00000   0.00000
  29       25PZ         0.00000   0.00000   0.00000   0.00000   0.00000
  30       26PX         0.00000   0.00000   0.00000   0.00000   0.00000
  31       26PY        -0.00002   0.00000   0.00000   0.00000   0.00000
  32       26PZ         0.00000  -0.00001  -0.00000   0.00000   0.00000
  33       27PX         0.00000   0.00000   0.00000   0.00000  -0.00001
  34       27PY         0.00010   0.00000   0.00000  -0.00001   0.00000
  35       27PZ         0.00000   0.00003   0.00002   0.00000   0.00000
  36       28PX         0.00000   0.00000   0.00000   0.00000   0.00003
  37       28PY        -0.00036   0.00000   0.00000   0.00003   0.00000
  38       28PZ         0.00000  -0.00010  -0.00008   0.00000   0.00000
  39       29PX         0.00000   0.00000   0.00000   0.00000  -0.00011
  40       29PY         0.00119   0.00000   0.00000  -0.00011   0.00000
  41       29PZ         0.00000   0.00032   0.00025   0.00000   0.00000
  42       30PX         0.00000   0.00000   0.00000   0.00000   0.00036
  43       30PY        -0.00385   0.00000   0.00000   0.00036   0.00000
  44       30PZ         0.00000  -0.00103  -0.00079   0.00000   0.00000
  45       31PX         0.00000   0.00000   0.00000   0.00000  -0.00135
  46       31PY         0.01440   0.00000   0.00000  -0.00135   0.00000
  47       31PZ         0.00000   0.00385   0.00285   0.00000   0.00000
  48       32PX         0.00000   0.00000   0.00000   0.00000   0.00572
  49       32PY        -0.05838   0.00000   0.00000   0.00572   0.00000
  50       32PZ         0.00000  -0.01587  -0.01170   0.00000   0.00000
  51       33PX         0.00000   0.00000   0.00000   0.00000   0.01699
  52       33PY        -0.16286   0.00000   0.00000   0.01699   0.00000
  53       33PZ         0.00000  -0.02365   0.00460   0.00000   0.00000
  54       34PX         0.00000   0.00000   0.00000   0.00000  -0.03465
  55       34PY         0.37732   0.00000   0.00000  -0.03465   0.00000
  56       34PZ         0.00000   0.09843   0.06580   0.00000   0.00000
  57       35PX         0.00000   0.00000   0.00000   0.00000   0.00392
  58       35PY        -0.02724   0.00000   0.00000   0.00392   0.00000
  59       35PZ         0.00000   0.00326   0.04143   0.00000   0.00000
  60       36PX         0.00000   0.00000   0.00000   0.00000  -0.02394
  61       36PY         0.25737   0.00000   0.00000  -0.02394   0.00000
  62       36PZ         0.00000   0.05710   0.03518   0.00000   0.00000
  63       37PX         0.00000   0.00000   0.00000   0.00000   0.02881
  64       37PY         0.04364   0.00000   0.00000   0.02881   0.00000
  65       37PZ         0.00000   0.02581   0.01641   0.00000   0.00000
  66       38PX         0.00000   0.00000   0.00000   0.00000   0.02911
  67       38PY        -0.01081   0.00000   0.00000   0.02911   0.00000
  68       38PZ         0.00000   0.00577  -0.00789   0.00000   0.00000
  69       39PX         0.00000   0.00000   0.00000   0.00000  -0.01575
  70       39PY         0.00299   0.00000   0.00000  -0.01575   0.00000
  71       39PZ         0.00000   0.00185  -0.00425   0.00000   0.00000
  72       40PX         0.00000   0.00000   0.00000   0.00000  -0.01685
  73       40PY         0.14079   0.00000   0.00000  -0.01685   0.00000
  74       40PZ         0.00000   0.01942  -0.00577   0.00000   0.00000
  75       41PX         0.00000   0.00000   0.00000   0.00000  -0.05683
  76       41PY         0.48704   0.00000   0.00000  -0.05683   0.00000
  77       41PZ         0.00000   0.12073   0.04424   0.00000   0.00000
  78       42PX         0.00000   0.00000   0.00000   0.00000   0.00372
  79       42PY        -0.00102   0.00000   0.00000   0.00372   0.00000
  80       42PZ         0.00000  -0.00099  -0.00154   0.00000   0.00000
  81       43D 0        0.00000   0.00001   0.00003   0.00000   0.00000
  82       43D+1        0.00000   0.00000   0.00000   0.00000  -0.00002
  83       43D-1        0.00000   0.00000   0.00000  -0.00002   0.00000
  84       43D+2        0.00000  -0.00000   0.00000   0.00000   0.00000
  85       43D-2        0.00000   0.00000   0.00000   0.00000   0.00000
  86       44D 0        0.00000  -0.00002  -0.00000   0.00000   0.00000
  87       44D+1        0.00000   0.00000   0.00000   0.00000  -0.00001
  88       44D-1       -0.00000   0.00000   0.00000  -0.00001   0.00000
  89       44D+2        0.00000   0.00000  -0.00000   0.00000   0.00000
  90       44D-2        0.00000   0.00000   0.00000   0.00000   0.00000
  91       45D 0        0.00000   0.00714   0.02632   0.00000   0.00000
  92       45D+1        0.00000   0.00000   0.00000   0.00000  -0.01783
  93       45D-1        0.00025   0.00000   0.00000  -0.01783   0.00000
  94       45D+2        0.00000  -0.00000   0.00000   0.00000   0.00000
  95       45D-2        0.00000   0.00000   0.00000   0.00000   0.00000
  96       46D 0        0.00000   0.03718   0.16550   0.00000   0.00000
  97       46D+1        0.00000   0.00000   0.00000   0.00000  -0.11807
  98       46D-1       -0.00207   0.00000   0.00000  -0.11807   0.00000
  99       46D+2        0.00000   0.00000  -0.00000   0.00000   0.00000
 100       46D-2        0.00000   0.00000   0.00000   0.00000   0.00000
 101       47D 0        0.00000  -0.24536  -0.07317   0.00000   0.00000
 102       47D+1        0.00000   0.00000   0.00000   0.00000  -0.07550
 103       47D-1       -0.08151   0.00000   0.00000  -0.07550   0.00000
 104       47D+2        0.00000   0.00000  -0.00000   0.00000   0.00000
 105       47D-2        0.00000   0.00000   0.00000   0.00000   0.00000
 106       48D 0        0.00000   0.02443   0.12381   0.00000   0.00000
 107       48D+1        0.00000   0.00000   0.00000   0.00000  -0.10118
 108       48D-1        0.00626   0.00000   0.00000  -0.10118   0.00000
 109       48D+2        0.00000   0.00000  -0.00000   0.00000   0.00000
 110       48D-2        0.00000   0.00000   0.00000   0.00000   0.00000
 111       49D 0        0.00000  -0.00209   0.04567   0.00000   0.00000
 112       49D+1        0.00000   0.00000   0.00000   0.00000  -0.05216
 113       49D-1        0.00216   0.00000   0.00000  -0.05216   0.00000
 114       49D+2        0.00000   0.00000   0.00000   0.00000   0.00000
 115       49D-2        0.00000   0.00000   0.00000   0.00000   0.00000
 116       50D 0        0.00000   0.00143   0.01220   0.00000   0.00000
 117       50D+1        0.00000   0.00000   0.00000   0.00000   0.00770
 118       50D-1        0.00169   0.00000   0.00000   0.00770   0.00000
 119       50D+2        0.00000   0.00000   0.00000   0.00000   0.00000
 120       50D-2        0.00000   0.00000   0.00000   0.00000   0.00000
 121       51D 0        0.00000  -0.01059  -0.07292   0.00000   0.00000
 122       51D+1        0.00000   0.00000   0.00000   0.00000   0.05567
 123       51D-1        0.00251   0.00000   0.00000   0.05567   0.00000
 124       51D+2        0.00000  -0.00000   0.00000   0.00000   0.00000
 125       51D-2        0.00000   0.00000   0.00000   0.00000   0.00000
 126       52D 0        0.00000   0.28774   0.21810   0.00000   0.00000
 127       52D+1        0.00000   0.00000   0.00000   0.00000  -0.01931
 128       52D-1        0.08675   0.00000   0.00000  -0.01931   0.00000
 129       52D+2        0.00000  -0.00000   0.00000   0.00000   0.00000
 130       52D-2        0.00000   0.00000   0.00000   0.00000   0.00000
 131       53D 0        0.00000  -0.00004   0.00027   0.00000   0.00000
 132       53D+1        0.00000   0.00000   0.00000   0.00000   0.00049
 133       53D-1       -0.00020   0.00000   0.00000   0.00049   0.00000
 134       53D+2        0.00000   0.00000   0.00000   0.00000   0.00000
 135       53D-2        0.00000   0.00000   0.00000   0.00000   0.00000
 136       54F 0        0.00000  -0.00202  -0.00382   0.00000   0.00000
 137       54F+1        0.00000   0.00000   0.00000   0.00000   0.00219
 138       54F-1       -0.00138   0.00000   0.00000   0.00219   0.00000
 139       54F+2        0.00000  -0.00000  -0.00000   0.00000   0.00000
 140       54F-2        0.00000   0.00000   0.00000   0.00000   0.00000
 141       54F+3        0.00000   0.00000   0.00000   0.00000  -0.00000
 142       54F-3        0.00000   0.00000   0.00000  -0.00000   0.00000
 143       55F 0        0.00000  -0.00902  -0.01469   0.00000   0.00000
 144       55F+1        0.00000   0.00000   0.00000   0.00000   0.01368
 145       55F-1       -0.00439   0.00000   0.00000   0.01368   0.00000
 146       55F+2        0.00000   0.00000   0.00000   0.00000   0.00000
 147       55F-2        0.00000   0.00000   0.00000   0.00000   0.00000
 148       55F+3        0.00000   0.00000   0.00000   0.00000  -0.00000
 149       55F-3        0.00000   0.00000   0.00000  -0.00000   0.00000
 150       56F 0        0.00000  -0.00085  -0.01014   0.00000   0.00000
 151       56F+1        0.00000   0.00000   0.00000   0.00000   0.00658
 152       56F-1       -0.00143   0.00000   0.00000   0.00658   0.00000
 153       56F+2        0.00000  -0.00000  -0.00000   0.00000   0.00000
 154       56F-2        0.00000   0.00000   0.00000   0.00000   0.00000
 155       56F+3        0.00000   0.00000   0.00000   0.00000   0.00000
 156       56F-3       -0.00000   0.00000   0.00000   0.00000   0.00000
 157       57F 0        0.00000  -0.00091  -0.00607   0.00000   0.00000
 158       57F+1        0.00000   0.00000   0.00000   0.00000  -0.00634
 159       57F-1       -0.00082   0.00000   0.00000  -0.00634   0.00000
 160       57F+2        0.00000  -0.00000  -0.00000   0.00000   0.00000
 161       57F-2        0.00000   0.00000   0.00000   0.00000   0.00000
 162       57F+3        0.00000   0.00000   0.00000   0.00000   0.00000
 163       57F-3        0.00000   0.00000   0.00000   0.00000   0.00000
 164       58G 0        0.00000   0.00067   0.00068   0.00000   0.00000
 165       58G+1        0.00000   0.00000   0.00000   0.00000  -0.00076
 166       58G-1        0.00000   0.00000   0.00000  -0.00076   0.00000
 167       58G+2        0.00000   0.00000   0.00000   0.00000   0.00000
 168       58G-2        0.00000   0.00000   0.00000   0.00000   0.00000
 169       58G+3        0.00000   0.00000   0.00000   0.00000  -0.00000
 170       58G-3        0.00000   0.00000   0.00000  -0.00000   0.00000
 171       58G+4        0.00000  -0.00000  -0.00000   0.00000   0.00000
 172       58G-4        0.00000   0.00000   0.00000   0.00000   0.00000
 173       59G 0        0.00000   0.00148   0.00100   0.00000   0.00000
 174       59G+1        0.00000   0.00000   0.00000   0.00000  -0.00295
 175       59G-1        0.00011   0.00000   0.00000  -0.00295   0.00000
 176       59G+2        0.00000   0.00000   0.00000   0.00000   0.00000
 177       59G-2        0.00000   0.00000   0.00000   0.00000   0.00000
 178       59G+3        0.00000   0.00000   0.00000   0.00000  -0.00000
 179       59G-3        0.00000   0.00000   0.00000  -0.00000   0.00000
 180       59G+4        0.00000  -0.00000  -0.00000   0.00000   0.00000
 181       59G-4        0.00000   0.00000   0.00000   0.00000   0.00000
 182       60G 0        0.00000   0.00043   0.00491   0.00000   0.00000
 183       60G+1        0.00000   0.00000   0.00000   0.00000   0.00509
 184       60G-1        0.00045   0.00000   0.00000   0.00509   0.00000
 185       60G+2        0.00000   0.00000   0.00000   0.00000   0.00000
 186       60G-2        0.00000   0.00000   0.00000   0.00000   0.00000
 187       60G+3        0.00000   0.00000   0.00000   0.00000   0.00000
 188       60G-3       -0.00000   0.00000   0.00000   0.00000   0.00000
 189       60G+4        0.00000   0.00000   0.00000   0.00000   0.00000
 190       60G-4        0.00000   0.00000   0.00000   0.00000   0.00000
 191 2   O  1S          0.00000  -0.00000   0.00000   0.00000   0.00000
 192        2S          0.00000   0.00000  -0.00000   0.00000   0.00000
 193        3S          0.00000  -0.00002   0.00000   0.00000   0.00000
 194        4S          0.00000   0.00016  -0.00003   0.00000   0.00000
 195        5S          0.00000  -0.00142   0.00028   0.00000   0.00000
 196        6S          0.00000  -0.02652   0.00556   0.00000   0.00000
 197        7S          0.00000  -0.22303   0.03371   0.00000   0.00000
 198        8S          0.00000   0.52417  -0.08071   0.00000   0.00000
 199        9S          0.00000   0.14977  -0.02634   0.00000   0.00000
 200       10S          0.00000   0.41246  -0.08624   0.00000   0.00000
 201       11S          0.00000   0.11726  -0.01924   0.00000   0.00000
 202       12S          0.00000   0.01949  -0.00398   0.00000   0.00000
 203       13S          0.00000   0.06606  -0.02844   0.00000   0.00000
 204       14PX         0.00000   0.00000   0.00000   0.00000   0.00478
 205       14PY         0.00010   0.00000   0.00000   0.00478   0.00000
 206       14PZ         0.00000   0.00033   0.00501   0.00000   0.00000
 207       15PX         0.00000   0.00000   0.00000   0.00000   0.08152
 208       15PY         0.00162   0.00000   0.00000   0.08152   0.00000
 209       15PZ         0.00000   0.00435   0.08534   0.00000   0.00000
 210       16PX         0.00000   0.00000   0.00000   0.00000   0.24614
 211       16PY         0.00457   0.00000   0.00000   0.24614   0.00000
 212       16PZ         0.00000   0.01043   0.25681   0.00000   0.00000
 213       17PX         0.00000   0.00000   0.00000   0.00000   0.38963
 214       17PY         0.00792   0.00000   0.00000   0.38963   0.00000
 215       17PZ         0.00000   0.02406   0.40790   0.00000   0.00000
 216       18PX         0.00000   0.00000   0.00000   0.00000   0.35685
 217       18PY         0.00541   0.00000   0.00000   0.35685   0.00000
 218       18PZ         0.00000   0.05404   0.34335   0.00000   0.00000
 219       19PX         0.00000   0.00000   0.00000   0.00000   0.00096
 220       19PY        -0.00001   0.00000   0.00000   0.00096   0.00000
 221       19PZ         0.00000  -0.00017   0.00095   0.00000   0.00000
 222       20PX         0.00000   0.00000   0.00000   0.00000  -0.00151
 223       20PY        -0.00003   0.00000   0.00000  -0.00151   0.00000
 224       20PZ         0.00000  -0.00011  -0.00159   0.00000   0.00000
 225       21PX         0.00000   0.00000   0.00000   0.00000   0.09439
 226       21PY         0.00353   0.00000   0.00000   0.09439   0.00000
 227       21PZ         0.00000   0.01374   0.07373   0.00000   0.00000
 228       22D 0        0.00000   0.00071   0.00432   0.00000   0.00000
 229       22D+1        0.00000   0.00000   0.00000   0.00000   0.00370
 230       22D-1        0.00052   0.00000   0.00000   0.00370   0.00000
 231       22D+2        0.00000  -0.00000   0.00000   0.00000   0.00000
 232       22D-2        0.00000   0.00000   0.00000   0.00000   0.00000
 233       23D 0        0.00000   0.00788   0.01901   0.00000   0.00000
 234       23D+1        0.00000   0.00000   0.00000   0.00000   0.02005
 235       23D-1        0.00229   0.00000   0.00000   0.02005   0.00000
 236       23D+2        0.00000  -0.00000  -0.00000   0.00000   0.00000
 237       23D-2        0.00000   0.00000   0.00000   0.00000   0.00000
 238       24D 0        0.00000   0.00007   0.00023   0.00000   0.00000
 239       24D+1        0.00000   0.00000   0.00000   0.00000   0.00025
 240       24D-1        0.00003   0.00000   0.00000   0.00025   0.00000
 241       24D+2        0.00000  -0.00000  -0.00000   0.00000   0.00000
 242       24D-2        0.00000   0.00000   0.00000   0.00000   0.00000
 243       25D 0        0.00000   0.01319   0.02563   0.00000   0.00000
 244       25D+1        0.00000   0.00000   0.00000   0.00000   0.03642
 245       25D-1        0.00115   0.00000   0.00000   0.03642   0.00000
 246       25D+2        0.00000  -0.00000  -0.00000   0.00000   0.00000
 247       25D-2        0.00000   0.00000   0.00000   0.00000   0.00000
 248       26F 0        0.00000   0.00047   0.00173   0.00000   0.00000
 249       26F+1        0.00000   0.00000   0.00000   0.00000   0.00094
 250       26F-1        0.00043   0.00000   0.00000   0.00094   0.00000
 251       26F+2        0.00000   0.00000   0.00000   0.00000   0.00000
 252       26F-2        0.00000   0.00000   0.00000   0.00000   0.00000
 253       26F+3        0.00000   0.00000   0.00000   0.00000   0.00000
 254       26F-3        0.00000   0.00000   0.00000   0.00000   0.00000
 255       27F 0        0.00000   0.00194   0.00494   0.00000   0.00000
 256       27F+1        0.00000   0.00000   0.00000   0.00000   0.00911
 257       27F-1        0.00072   0.00000   0.00000   0.00911   0.00000
 258       27F+2        0.00000  -0.00000  -0.00000   0.00000   0.00000
 259       27F-2        0.00000   0.00000   0.00000   0.00000   0.00000
 260       27F+3        0.00000   0.00000   0.00000   0.00000   0.00000
 261       27F-3       -0.00000   0.00000   0.00000   0.00000   0.00000
                           9        10        11        12        13
                           O         V         V         V         V
     Eigenvalues --    -0.26454  -0.00461  -0.00461   0.01199   0.02109
   1 1   Sc 1S          0.00000   0.00000   0.00000  -0.00000  -0.00000
   2        2S         -0.00000   0.00000   0.00000   0.00000   0.00000
   3        3S          0.00000   0.00000   0.00000  -0.00000  -0.00000
   4        4S         -0.00000   0.00000   0.00000   0.00000   0.00000
   5        5S          0.00000   0.00000   0.00000  -0.00000  -0.00000
   6        6S         -0.00000   0.00000   0.00000   0.00000   0.00000
   7        7S          0.00001   0.00000   0.00000  -0.00001  -0.00001
   8        8S         -0.00003   0.00000   0.00000   0.00002   0.00004
   9        9S          0.00010   0.00000   0.00000  -0.00007  -0.00011
  10       10S         -0.00026   0.00000   0.00000   0.00020   0.00029
  11       11S          0.00057   0.00000   0.00000  -0.00052  -0.00072
  12       12S          0.00058   0.00000   0.00000   0.00213   0.00204
  13       13S         -0.03390   0.00000   0.00000  -0.01572  -0.00592
  14       14S          0.16904   0.00000   0.00000   0.07742   0.02860
  15       15S          0.06120   0.00000   0.00000   0.18947   0.18336
  16       16S         -0.26236   0.00000   0.00000  -0.30858  -0.25248
  17       17S         -0.31764   0.00000   0.00000  -0.31721  -0.26576
  18       18S          0.35101   0.00000   0.00000   0.52488   0.51010
  19       19S          0.48547   0.00000   0.00000  -0.75597  -1.84442
  20       20S          0.17842   0.00000   0.00000   1.84165   2.37559
  21       21S         -0.10651   0.00000   0.00000  -0.16529  -0.14216
  22       22S          0.06729   0.00000   0.00000   0.37241   0.40052
  23       23S         -0.00748   0.00000   0.00000  -1.69818  -1.91551
  24       24PX         0.00000   0.00000   0.00000   0.00000   0.00000
  25       24PY         0.00000   0.00000   0.00000   0.00000   0.00000
  26       24PZ         0.00000   0.00000   0.00000   0.00000  -0.00000
  27       25PX         0.00000  -0.00000   0.00000   0.00000   0.00000
  28       25PY         0.00000   0.00000  -0.00000   0.00000   0.00000
  29       25PZ        -0.00000   0.00000   0.00000  -0.00000   0.00000
  30       26PX         0.00000   0.00000   0.00000   0.00000   0.00000
  31       26PY         0.00000   0.00000   0.00000   0.00000   0.00000
  32       26PZ         0.00000   0.00000   0.00000   0.00000  -0.00000
  33       27PX         0.00000  -0.00000   0.00000   0.00000   0.00000
  34       27PY         0.00000   0.00000  -0.00000   0.00000   0.00000
  35       27PZ        -0.00002   0.00000   0.00000  -0.00002   0.00000
  36       28PX         0.00000   0.00000   0.00000   0.00000   0.00000
  37       28PY         0.00000   0.00000   0.00000   0.00000   0.00000
  38       28PZ         0.00006   0.00000   0.00000   0.00007  -0.00001
  39       29PX         0.00000  -0.00002   0.00000   0.00000   0.00000
  40       29PY         0.00000   0.00000  -0.00002   0.00000   0.00000
  41       29PZ        -0.00019   0.00000   0.00000  -0.00023   0.00002
  42       30PX         0.00000   0.00009   0.00000   0.00000   0.00000
  43       30PY         0.00000   0.00000   0.00009   0.00000   0.00000
  44       30PZ         0.00060   0.00000   0.00000   0.00067  -0.00003
  45       31PX         0.00000  -0.00063   0.00000   0.00000   0.00000
  46       31PY         0.00000   0.00000  -0.00063   0.00000   0.00000
  47       31PZ        -0.00222   0.00000   0.00000  -0.00190  -0.00011
  48       32PX         0.00000   0.00367   0.00000   0.00000   0.00000
  49       32PY         0.00000   0.00000   0.00367   0.00000   0.00000
  50       32PZ         0.00931   0.00000   0.00000   0.00596   0.00130
  51       33PX         0.00000   0.07402   0.00000   0.00000   0.00000
  52       33PY         0.00000   0.00000   0.07402   0.00000   0.00000
  53       33PZ         0.01495   0.00000   0.00000  -0.13589   0.04805
  54       34PX         0.00000  -0.03839   0.00000   0.00000   0.00000
  55       34PY         0.00000   0.00000  -0.03839   0.00000   0.00000
  56       34PZ        -0.05254   0.00000   0.00000  -0.00084  -0.02235
  57       35PX         0.00000   0.10222   0.00000   0.00000   0.00000
  58       35PY         0.00000   0.00000   0.10222   0.00000   0.00000
  59       35PZ        -0.04318   0.00000   0.00000  -0.23763   0.13407
  60       36PX         0.00000  -0.01857   0.00000   0.00000   0.00000
  61       36PY         0.00000   0.00000  -0.01857   0.00000   0.00000
  62       36PZ        -0.07016   0.00000   0.00000  -0.05224   0.00518
  63       37PX         0.00000   0.02031   0.00000   0.00000   0.00000
  64       37PY         0.00000   0.00000   0.02031   0.00000   0.00000
  65       37PZ         0.12863   0.00000   0.00000   0.05003  -0.05698
  66       38PX         0.00000   0.26601   0.00000   0.00000   0.00000
  67       38PY         0.00000   0.00000   0.26601   0.00000   0.00000
[...]
  42       30PX        -0.00046  -0.00023  -0.00023  -0.00000
  43       30PY        -0.00046  -0.00023  -0.00023  -0.00000
  44       30PZ        -0.00046  -0.00023  -0.00023  -0.00000
  45       31PX         0.00419   0.00210   0.00210   0.00000
  46       31PY         0.00419   0.00210   0.00210   0.00000
  47       31PZ         0.00422   0.00213   0.00209   0.00004
  48       32PX        -0.03703  -0.01851  -0.01851  -0.00000
  49       32PY        -0.03703  -0.01851  -0.01851  -0.00000
  50       32PZ        -0.03759  -0.01899  -0.01860  -0.00039
  51       33PX        -0.18899  -0.09449  -0.09449  -0.00000
  52       33PY        -0.18899  -0.09449  -0.09449  -0.00000
  53       33PZ        -0.22158  -0.11132  -0.11026  -0.00106
  54       34PX         0.65101   0.32551   0.32551   0.00000
  55       34PY         0.65101   0.32551   0.32551   0.00000
  56       34PZ         0.66620   0.33539   0.33081   0.00458
  57       35PX        -0.05419  -0.02709  -0.02709  -0.00000
  58       35PY        -0.05419  -0.02709  -0.02709  -0.00000
  59       35PZ        -0.12096  -0.05956  -0.06140   0.00184
  60       36PX         0.44734   0.22367   0.22367   0.00000
  61       36PY         0.44734   0.22367   0.22367   0.00000
  62       36PZ         0.41396   0.20339   0.21057  -0.00718
  63       37PX         0.05973   0.02986   0.02986   0.00000
  64       37PY         0.05973   0.02986   0.02986   0.00000
  65       37PZ         0.06643   0.05558   0.01085   0.04473
  66       38PX         0.01073   0.00536   0.00536   0.00000
  67       38PY         0.01073   0.00536   0.00536   0.00000
  68       38PZ         0.13695   0.14473  -0.00779   0.15252
  69       39PX        -0.00541  -0.00271  -0.00271  -0.00000
  70       39PY        -0.00541  -0.00271  -0.00271  -0.00000
  71       39PZ         0.02159   0.02233  -0.00074   0.02307
  72       40PX         0.16932   0.08466   0.08466   0.00000
  73       40PY         0.16932   0.08466   0.08466   0.00000
  74       40PZ         0.20390   0.10250   0.10140   0.00110
  75       41PX         0.96740   0.48370   0.48370   0.00000
  76       41PY         0.96740   0.48370   0.48370   0.00000
  77       41PZ         1.04414   0.52263   0.52151   0.00112
  78       42PX         0.00061   0.00030   0.00030   0.00000
  79       42PY         0.00061   0.00030   0.00030   0.00000
  80       42PZ        -0.00057  -0.00050  -0.00006  -0.00044
  81       43D 0        0.00000   0.00000   0.00000   0.00000
  82       43D+1        0.00000   0.00000   0.00000   0.00000
  83       43D-1        0.00000   0.00000   0.00000   0.00000
  84       43D+2       -0.00000  -0.00000  -0.00000  -0.00000
  85       43D-2       -0.00000  -0.00000  -0.00000  -0.00000
  86       44D 0       -0.00000   0.00000  -0.00000   0.00000
  87       44D+1        0.00000   0.00000   0.00000   0.00000
  88       44D-1        0.00000   0.00000   0.00000   0.00000
  89       44D+2        0.00000   0.00000  -0.00000   0.00000
  90       44D-2        0.00000   0.00000  -0.00000   0.00000
  91       45D 0        0.00869   0.00463   0.00406   0.00057
  92       45D+1        0.00350   0.00175   0.00175   0.00000
  93       45D-1        0.00350   0.00175   0.00175   0.00000
  94       45D+2        0.00000   0.00000  -0.00000   0.00000
  95       45D-2       -0.00000   0.00000  -0.00000   0.00000
  96       46D 0        0.10238   0.05520   0.04718   0.00802
  97       46D+1        0.04349   0.02175   0.02175   0.00000
  98       46D-1        0.04349   0.02175   0.02175   0.00000
  99       46D+2        0.00000   0.00000   0.00000  -0.00000
 100       46D-2       -0.00000  -0.00000  -0.00000   0.00000
 101       47D 0       -0.11039  -0.03862  -0.07177   0.03315
 102       47D+1        0.04239   0.02120   0.02120   0.00000
 103       47D-1        0.04239   0.02120   0.02120   0.00000
 104       47D+2        0.00000  -0.00000   0.00000  -0.00000
 105       47D-2        0.00000   0.00000   0.00000   0.00000
 106       48D 0        0.13687   0.07361   0.06326   0.01036
 107       48D+1        0.09282   0.04641   0.04641   0.00000
 108       48D-1        0.09282   0.04641   0.04641   0.00000
 109       48D+2       -0.00000   0.00000  -0.00000   0.00000
 110       48D-2        0.00000   0.00000   0.00000   0.00000
 111       49D 0        0.00395   0.00331   0.00064   0.00268
 112       49D+1        0.05297   0.02649   0.02649   0.00000
 113       49D-1        0.05297   0.02649   0.02649   0.00000
 114       49D+2        0.00000   0.00000  -0.00000   0.00000
 115       49D-2        0.00000   0.00000  -0.00000   0.00000
 116       50D 0       -0.00272  -0.00143  -0.00129  -0.00014
 117       50D+1       -0.00406  -0.00203  -0.00203  -0.00000
 118       50D-1       -0.00406  -0.00203  -0.00203  -0.00000
 119       50D+2       -0.00000  -0.00000   0.00000  -0.00000
 120       50D-2       -0.00000  -0.00000  -0.00000  -0.00000
 121       51D 0       -0.04726  -0.02601  -0.02125  -0.00476
 122       51D+1       -0.02146  -0.01073  -0.01073  -0.00000
 123       51D-1       -0.02146  -0.01073  -0.01073  -0.00000
 124       51D+2        0.00000   0.00000  -0.00000   0.00000
 125       51D-2       -0.00000   0.00000  -0.00000   0.00000
 126       52D 0        0.25159   0.11303   0.13856  -0.02553
 127       52D+1        0.01281   0.00641   0.00641   0.00000
 128       52D-1        0.01281   0.00641   0.00641   0.00000
 129       52D+2        0.00000   0.00000   0.00000   0.00000
 130       52D-2        0.00000   0.00000   0.00000   0.00000
 131       53D 0       -0.00003  -0.00001  -0.00001   0.00000
 132       53D+1       -0.00007  -0.00004  -0.00004  -0.00000
 133       53D-1       -0.00007  -0.00004  -0.00004  -0.00000
 134       53D+2        0.00000   0.00000   0.00000   0.00000
 135       53D-2        0.00000   0.00000   0.00000   0.00000
 136       54F 0        0.00024   0.00012   0.00012   0.00000
 137       54F+1        0.00009   0.00005   0.00005   0.00000
 138       54F-1        0.00009   0.00005   0.00005   0.00000
 139       54F+2        0.00000  -0.00000   0.00000  -0.00000
 140       54F-2       -0.00000   0.00000  -0.00000   0.00000
 141       54F+3        0.00000   0.00000   0.00000   0.00000
 142       54F-3       -0.00000  -0.00000  -0.00000  -0.00000
 143       55F 0        0.00567   0.00284   0.00283   0.00001
 144       55F+1        0.00325   0.00163   0.00163   0.00000
 145       55F-1        0.00325   0.00163   0.00163   0.00000
 146       55F+2        0.00000   0.00000   0.00000  -0.00000
 147       55F-2        0.00000  -0.00000   0.00000  -0.00000
 148       55F+3       -0.00000  -0.00000  -0.00000  -0.00000
 149       55F-3        0.00000   0.00000   0.00000  -0.00000
 150       56F 0       -0.00171  -0.00088  -0.00083  -0.00005
 151       56F+1        0.00508   0.00254   0.00254   0.00000
 152       56F-1        0.00508   0.00254   0.00254   0.00000
 153       56F+2       -0.00000  -0.00000  -0.00000   0.00000
 154       56F-2       -0.00000  -0.00000  -0.00000   0.00000
 155       56F+3       -0.00000  -0.00000  -0.00000  -0.00000
 156       56F-3       -0.00000  -0.00000  -0.00000   0.00000
 157       57F 0       -0.00159  -0.00077  -0.00082   0.00005
 158       57F+1       -0.00194  -0.00097  -0.00097  -0.00000
 159       57F-1       -0.00194  -0.00097  -0.00097  -0.00000
 160       57F+2        0.00000   0.00000   0.00000   0.00000
 161       57F-2        0.00000   0.00000   0.00000   0.00000
 162       57F+3        0.00000   0.00000   0.00000   0.00000
 163       57F-3       -0.00000  -0.00000  -0.00000   0.00000
 164       58G 0        0.00003   0.00002   0.00002  -0.00000
 165       58G+1        0.00002   0.00001   0.00001   0.00000
 166       58G-1        0.00002   0.00001   0.00001   0.00000
 167       58G+2        0.00000   0.00000   0.00000  -0.00000
 168       58G-2        0.00000  -0.00000   0.00000  -0.00000
 169       58G+3       -0.00000  -0.00000  -0.00000  -0.00000
 170       58G-3        0.00000   0.00000   0.00000   0.00000
 171       58G+4        0.00000   0.00000   0.00000   0.00000
 172       58G-4        0.00000   0.00000   0.00000   0.00000
 173       59G 0        0.00080   0.00040   0.00040  -0.00001
 174       59G+1        0.00130   0.00065   0.00065   0.00000
 175       59G-1        0.00130   0.00065   0.00065   0.00000
 176       59G+2        0.00000   0.00000  -0.00000   0.00000
 177       59G-2       -0.00000  -0.00000  -0.00000   0.00000
 178       59G+3       -0.00000  -0.00000  -0.00000  -0.00000
 179       59G-3        0.00000   0.00000   0.00000   0.00000
 180       59G+4       -0.00000  -0.00000  -0.00000  -0.00000
 181       59G-4       -0.00000  -0.00000  -0.00000  -0.00000
 182       60G 0       -0.00185  -0.00092  -0.00092  -0.00000
 183       60G+1       -0.00242  -0.00121  -0.00121  -0.00000
 184       60G-1       -0.00242  -0.00121  -0.00121  -0.00000
 185       60G+2        0.00000   0.00000   0.00000   0.00000
 186       60G-2        0.00000   0.00000   0.00000   0.00000
 187       60G+3       -0.00000  -0.00000  -0.00000   0.00000
 188       60G-3       -0.00000  -0.00000  -0.00000   0.00000
 189       60G+4        0.00000   0.00000   0.00000   0.00000
 190       60G-4        0.00000   0.00000   0.00000   0.00000
 191 2   O  1S         -0.00000  -0.00000  -0.00000  -0.00000
 192        2S          0.00000   0.00000   0.00000   0.00000
 193        3S         -0.00000  -0.00000  -0.00000  -0.00000
 194        4S          0.00001   0.00000   0.00000   0.00000
 195        5S         -0.00020  -0.00010  -0.00010  -0.00000
 196        6S         -0.00858  -0.00430  -0.00429  -0.00001
 197        7S         -0.15906  -0.07962  -0.07944  -0.00018
 198        8S          1.03400   0.51746   0.51655   0.00091
 199        9S          0.22841   0.11433   0.11408   0.00026
 200       10S          0.77719   0.38814   0.38906  -0.00092
 201       11S          0.07003   0.03505   0.03498   0.00007
 202       12S          0.00522   0.00261   0.00261   0.00000
 203       13S          0.11016   0.06319   0.04697   0.01621
 204       14PX         0.00103   0.00051   0.00051   0.00000
 205       14PY         0.00103   0.00051   0.00051   0.00000
 206       14PZ         0.00114   0.00057   0.00057   0.00000
 207       15PX         0.05833   0.02916   0.02916   0.00000
 208       15PY         0.05833   0.02916   0.02916   0.00000
 209       15PZ         0.06456   0.03238   0.03218   0.00019
 210       16PX         0.32575   0.16287   0.16287   0.00000
 211       16PY         0.32575   0.16287   0.16287   0.00000
 212       16PZ         0.35873   0.17989   0.17884   0.00104
 213       17PX         0.67562   0.33781   0.33781   0.00000
 214       17PY         0.67562   0.33781   0.33781   0.00000
 215       17PZ         0.73383   0.36776   0.36608   0.00168
 216       18PX         0.58290   0.29145   0.29145   0.00000
 217       18PY         0.58290   0.29145   0.29145   0.00000
 218       18PZ         0.47627   0.23732   0.23895  -0.00162
 219       19PX         0.00042   0.00021   0.00021   0.00000
 220       19PY         0.00042   0.00021   0.00021   0.00000
 221       19PZ         0.00044   0.00022   0.00022   0.00000
 222       20PX        -0.00019  -0.00010  -0.00010  -0.00000
 223       20PY        -0.00019  -0.00010  -0.00010  -0.00000
 224       20PZ        -0.00022  -0.00011  -0.00011  -0.00000
 225       21PX         0.08842   0.04421   0.04421   0.00000
 226       21PY         0.08842   0.04421   0.04421   0.00000
 227       21PZ         0.05340   0.02984   0.02356   0.00628
 228       22D 0        0.00033   0.00017   0.00016   0.00000
 229       22D+1        0.00021   0.00010   0.00010   0.00000
 230       22D-1        0.00021   0.00010   0.00010   0.00000
 231       22D+2       -0.00000   0.00000  -0.00000   0.00000
 232       22D-2        0.00000   0.00000   0.00000   0.00000
 233       23D 0        0.00463   0.00234   0.00229   0.00005
 234       23D+1        0.00410   0.00205   0.00205   0.00000
 235       23D-1        0.00410   0.00205   0.00205   0.00000
 236       23D+2        0.00000  -0.00000   0.00000  -0.00000
 237       23D-2        0.00000   0.00000   0.00000   0.00000
 238       24D 0        0.00000   0.00000   0.00000   0.00000
 239       24D+1        0.00000   0.00000   0.00000   0.00000
 240       24D-1        0.00000   0.00000   0.00000   0.00000
 241       24D+2        0.00000  -0.00000   0.00000  -0.00000
 242       24D-2        0.00000   0.00000  -0.00000   0.00000
 243       25D 0       -0.00177  -0.00090  -0.00087  -0.00003
 244       25D+1        0.00999   0.00499   0.00499   0.00000
 245       25D-1        0.00999   0.00499   0.00499   0.00000
 246       25D+2        0.00000  -0.00000   0.00000  -0.00000
 247       25D-2       -0.00000  -0.00000  -0.00000  -0.00000
 248       26F 0        0.00015   0.00008   0.00007   0.00000
 249       26F+1        0.00005   0.00002   0.00002   0.00000
 250       26F-1        0.00005   0.00002   0.00002   0.00000
 251       26F+2        0.00000   0.00000   0.00000   0.00000
 252       26F-2        0.00000   0.00000   0.00000   0.00000
 253       26F+3       -0.00000  -0.00000  -0.00000   0.00000
 254       26F-3       -0.00000  -0.00000  -0.00000  -0.00000
 255       27F 0        0.00049   0.00027   0.00022   0.00004
 256       27F+1        0.00131   0.00065   0.00065   0.00000
 257       27F-1        0.00131   0.00065   0.00065   0.00000
 258       27F+2        0.00000   0.00000   0.00000   0.00000
 259       27F-2        0.00000   0.00000   0.00000   0.00000
 260       27F+3       -0.00000  -0.00000  -0.00000  -0.00000
 261       27F-3        0.00000  -0.00000   0.00000  -0.00000
          Condensed to atoms (all electrons):
               1          2
     1  Sc   9.571040   0.183938
     2  O    0.183938   7.061083
          Atomic-Atomic Spin Densities.
               1          2
     1  Sc   0.958642   0.017363
     2  O    0.017363   0.006632
 Mulliken charges and spin densities:
               1          2
     1  Sc   1.245022   0.976005
     2  O   -1.245022   0.023995
 Sum of Mulliken charges =  -0.00000   1.00000
 Mulliken charges and spin densities with hydrogens summed into heavy atoms:
               1          2
     1  Sc   1.245022   0.976005
     2  O   -1.245022   0.023995
 Electronic spatial extent (au):  <R**2>=            103.4691
 Charge=             -0.0000 electrons
 Dipole moment (field-independent basis, Debye):
    X=              0.0000    Y=              0.0000    Z=              5.7828  Tot=              5.7828
 Quadrupole moment (field-independent basis, Debye-Ang):
   XX=            -21.8597   YY=            -21.8597   ZZ=            -33.4596
   XY=              0.0000   XZ=              0.0000   YZ=              0.0000
 Traceless Quadrupole moment (field-independent basis, Debye-Ang):
   XX=              3.8666   YY=              3.8666   ZZ=             -7.7332
   XY=              0.0000   XZ=              0.0000   YZ=              0.0000
 Octapole moment (field-independent basis, Debye-Ang**2):
  XXX=              0.0000  YYY=              0.0000  ZZZ=             -4.9067  XYY=              0.0000
  XXY=              0.0000  XXZ=             -1.7388  XZZ=              0.0000  YZZ=              0.0000
  YYZ=             -1.7388  XYZ=              0.0000
 Hexadecapole moment (field-independent basis, Debye-Ang**3):
 XXXX=            -43.7785 YYYY=            -43.7785 ZZZZ=           -194.9786 XXXY=              0.0000
 XXXZ=              0.0000 YYYX=              0.0000 YYYZ=              0.0000 ZZZX=              0.0000
 ZZZY=              0.0000 XXYY=            -14.5928 XXZZ=            -38.1257 YYZZ=            -38.1257
 XXYZ=              0.0000 YYXZ=              0.0000 ZZXY=              0.0000
 N-N= 1.940316440040D+01 E-N=-1.724096394002D+02  KE= 2.972678734453D+01
 Symmetry A1   KE= 1.356474188716D+01
 Symmetry A2   KE= 3.930736836508D-49
 Symmetry B1   KE= 8.081022728849D+00
 Symmetry B2   KE= 8.081022728465D+00
 Symmetry A1   SP= 1.000000000000D+00
 Symmetry A2   SP= 4.184598606666D-49
 Symmetry B1   SP= 8.134758036677D-16
 Symmetry B2   SP= 8.811001819331D-16
 Orbital energies and kinetic energies (alpha):
                                 1                 2
   4         O                -1.655838          2.133886
   5         O                -1.102320          0.909672
   6         O                -0.414604          2.313024
   7         O                -0.384801          1.906626
   8         O                -0.384801          1.906626
   9         O                -0.264541          0.342377
  10         V                -0.004614          0.135569
  11         V                -0.004614          0.135569
  12         V                 0.011985          0.066049
  13         V                 0.021091          0.059390
  14         V                 0.032749          0.078771
 Total kinetic energy from orbitals= 3.006916412410D+01
                          Isotropic Fermi Contact Couplings
        Atom                 a.u.       MegaHertz       Gauss      10(-4) cm-1
     1  Sc(45)             0.00005       0.05199       0.01855       0.01734
     2  O(17)              0.00021      -0.12830      -0.04578      -0.04280
 --------------------------------------------------------
       Center         ----  Spin Dipole Couplings  ----
                      3XX-RR        3YY-RR        3ZZ-RR
 --------------------------------------------------------
     1   Atom       -0.040813     -0.040813      0.081625
     2   Atom       -0.011264     -0.011264      0.022528
 --------------------------------------------------------
                        XY            XZ            YZ
 --------------------------------------------------------
     1   Atom        0.000000      0.000000      0.000000
     2   Atom        0.000000      0.000000      0.000000
 --------------------------------------------------------


 ---------------------------------------------------------------------------------
              Anisotropic Spin Dipole Couplings in Principal Axis System
 ---------------------------------------------------------------------------------

       Atom             a.u.   MegaHertz   Gauss  10(-4) cm-1        Axes

              Baa    -0.0408    -5.298    -1.890    -1.767  1.0000  0.0000  0.0000
     1 Sc(45) Bbb    -0.0408    -5.298    -1.890    -1.767 -0.0000  1.0000  0.0000
              Bcc     0.0816    10.596     3.781     3.534  0.0000  0.0000  1.0000
 
              Baa    -0.0113     0.815     0.291     0.272 -0.0000  1.0000  0.0000
     2 O(17)  Bbb    -0.0113     0.815     0.291     0.272  1.0000  0.0000  0.0000
              Bcc     0.0225    -1.630    -0.582    -0.544  0.0000  0.0000  1.0000
 

 ---------------------------------------------------------------------------------

 No NMR shielding tensors so no spin-rotation constants.
 Leave Link  601 at Wed Feb 28 19:00:36 2018, MaxMem= 10737418240 cpu:              53.8 elap:               3.5
 (Enter /home1/apps/gaussian/16rA.03/g16/l9999.exe)

 Test job not archived.
 1\1\GINC-C409-073\SP\ROCCSD(T)-Full\Gen\O1Sc1(2)\AANNABE\28-Feb-2018\0
 \\#P ROCCSD(T)=(maxcyc=150, Full, SaveAmplitudes, ReadAmplitudes)/Gen 
 5d 7f SCF=(maxcycles=300) Integral(NoXCTest) MaxDisk=500GB Pop=Regular
  Pseudo=Read Guess=Read IOp(5/15=2)\\ScO\\0,2\Sc,0,0.,0.,0.\O,0,0.,0.,
 1.8\\Version=ES64L-G16RevA.03\State=2-SG\HF=-62.061281\MP2=-62.7558407
 \MP3=-62.7232968\PUHF=-62.061281\PMP2-0=-62.7558407\MP4SDQ=-62.7690573
 \CCSD=-62.7427617\CCSD(T)=-62.7862787\RMSD=6.407e-10\PG=C*V [C*(O1Sc1)
 ]\\@


 Ideas are like rabbits. You get a couple and learn
 how to handle them, and pretty soon you have a dozen.
                                    -- John Steinbeck
 Job cpu time:       0 days  5 hours 43 minutes 17.0 seconds.
 Elapsed time:       0 days  0 hours 21 minutes 33.6 seconds.
 File lengths (MBytes):  RWF=   3530 Int=      0 D2E=      0 Chk=     21 Scr=      1
 Normal termination of Gaussian 16 at Wed Feb 28 19:00:38 2018.
