 Entering Gaussian System, Link 0=g16
 Initial command:
 /home1/apps/gaussian/16rA.03/g16/l1.exe "/tmp/Gau-100363.inp" -scrdir="/tmp/"
 Entering Link 1 = /home1/apps/gaussian/16rA.03/g16/l1.exe PID=    100364.
  
 Copyright (c) 1988,1990,1992,1993,1995,1998,2003,2009,2016,
            Gaussian, Inc.  All Rights Reserved.
  
 This is part of the Gaussian(R) 16 program.  It is based on
 the Gaussian(R) 09 system (copyright 2009, Gaussian, Inc.),
 the Gaussian(R) 03 system (copyright 2003, Gaussian, Inc.),
 the Gaussian(R) 98 system (copyright 1998, Gaussian, Inc.),
 the Gaussian(R) 94 system (copyright 1995, Gaussian, Inc.),
 the Gaussian 92(TM) system (copyright 1992, Gaussian, Inc.),
 the Gaussian 90(TM) system (copyright 1990, Gaussian, Inc.),
 the Gaussian 88(TM) system (copyright 1988, Gaussian, Inc.),
 the Gaussian 86(TM) system (copyright 1986, Carnegie Mellon
 University), and the Gaussian 82(TM) system (copyright 1983,
 Carnegie Mellon University). Gaussian is a federally registered
 trademark of Gaussian, Inc.
  
 This software contains proprietary and confidential information,
 including trade secrets, belonging to Gaussian, Inc.
  
 This software is provided under written license and may be
 used, copied, transmitted, or stored only in accord with that
 written license.
  
 The following legend is applicable only to US Government
 contracts under FAR:
  
                    RESTRICTED RIGHTS LEGEND
  
 Use, reproduction and disclosure by the US Government is
 subject to restrictions as set forth in subparagraphs (a)
 and (c) of the Commercial Computer Software - Restricted
 Rights clause in FAR 52.227-19.
  
 Gaussian, Inc.
 340 Quinnipiac St., Bldg. 40, Wallingford CT 06492
  
  
 ---------------------------------------------------------------
 Warning -- This program may not be used in any manner that
 competes with the business of Gaussian, Inc. or will provide
 assistance to any competitor of Gaussian, Inc.  The licensee
 of this program is prohibited from giving any competitor of
 Gaussian, Inc. access to this program.  By using this program,
 the user acknowledges that Gaussian, Inc. is engaged in the
 business of creating and licensing software in the field of
 computational chemistry and represents and warrants to the
 licensee that it is not a competitor of Gaussian, Inc. and that
 it will not use this program in any manner prohibited above.
 ---------------------------------------------------------------
  

 Cite this work as:
 Gaussian 16, Revision A.03,
 M. J. Frisch, G. W. Trucks, H. B. Schlegel, G. E. Scuseria, 
 M. A. Robb, J. R. Cheeseman, G. Scalmani, V. Barone, 
 G. A. Petersson, H. Nakatsuji, X. Li, M. Caricato, A. V. Marenich, 
 J. Bloino, B. G. Janesko, R. Gomperts, B. Mennucci, H. P. Hratchian, 
 J. V. Ortiz, A. F. Izmaylov, J. L. Sonnenberg, D. Williams-Young, 
 F. Ding, F. Lipparini, F. Egidi, J. Goings, B. Peng, A. Petrone, 
 T. Henderson, D. Ranasinghe, V. G. Zakrzewski, J. Gao, N. Rega, 
 G. Zheng, W. Liang, M. Hada, M. Ehara, K. Toyota, R. Fukuda, 
 J. Hasegawa, M. Ishida, T. Nakajima, Y. Honda, O. Kitao, H. Nakai, 
 T. Vreven, K. Throssell, J. A. Montgomery, Jr., J. E. Peralta, 
 F. Ogliaro, M. J. Bearpark, J. J. Heyd, E. N. Brothers, K. N. Kudin, 
 V. N. Staroverov, T. A. Keith, R. Kobayashi, J. Normand, 
 K. Raghavachari, A. P. Rendell, J. C. Burant, S. S. Iyengar, 
 J. Tomasi, M. Cossi, J. M. Millam, M. Klene, C. Adamo, R. Cammi, 
 J. W. Ochterski, R. L. Martin, K. Morokuma, O. Farkas, 
 J. B. Foresman, and D. J. Fox, Gaussian, Inc., Wallingford CT, 2016.
 
 ******************************************
 Gaussian 16:  ES64L-G16RevA.03 25-Dec-2016
                13-Feb-2018 
 ******************************************
 %mem=64GB
 %cpu=0-31
 SetSPE:  set environment variable "MP_BIND" = "yes"
 SetSPE:  set environment variable "MP_BLIST" = "0,1,2,3,4,5,6,7,8,9,10,11,12,13,14,15,16,17,18,19,20,21,22,23,24,25,26,27,28,29,30,31"
 Will use up to   32 processors via shared memory.
 %chk=ScH
 ----------------------------------------------------------------------
 #P ROCCSD(T)=(maxcyc=150, Full)/Gen 5d 7f SCF=(maxcycles=300) Integral
 (NoXCTest) MaxDisk=500GB Pop=Regular Pseudo=Read IOp(5/15=2) Guess=Rea
 d
 ----------------------------------------------------------------------
 1/38=1,172=1/1;
 2/12=2,17=6,18=5,40=1/2;
 3/5=7,8=11,11=2,16=1,17=8,25=1,30=1,47=8,116=101/1,2,3;
 4/5=1/1;
 5/5=2,7=300,15=2,38=6/2;
 8/5=-1,6=4,9=120000,10=90/1,4;
 9/5=7,6=150,14=2/13;
 6//1;
 99/5=1,9=1/99;
 Leave Link    1 at Tue Feb 13 15:47:31 2018, MaxMem=  8589934592 cpu:               6.3 elap:               0.2
 (Enter /home1/apps/gaussian/16rA.03/g16/l101.exe)
 ---
 ScH
 ---
 Symbolic Z-matrix:
 Charge =  0 Multiplicity = 1
 Sc                    0.        0.        0. 
 H                     0.        0.        1. 
 
 ITRead=  0  0
 MicOpt= -1 -1
 NAtoms=      2 NQM=        2 NQMF=       0 NMMI=      0 NMMIF=      0
                NMic=       0 NMicF=      0.
                    Isotopes and Nuclear Properties:
 (Nuclear quadrupole moments (NQMom) in fm**2, nuclear magnetic moments (NMagM)
  in nuclear magnetons)

  Atom         1           2
 IAtWgt=          45           1
 AtmWgt=  44.9559136   1.0078250
 NucSpn=           7           1
 AtZEff=  -0.0000000  -0.0000000
 NQMom=  -22.0000000   0.0000000
 NMagM=    4.7564830   2.7928460
 AtZNuc=  21.0000000   1.0000000
 Leave Link  101 at Tue Feb 13 15:47:31 2018, MaxMem=  8589934592 cpu:               2.8 elap:               0.1
 (Enter /home1/apps/gaussian/16rA.03/g16/l202.exe)
                          Input orientation:                          
 ---------------------------------------------------------------------
 Center     Atomic      Atomic             Coordinates (Angstroms)
 Number     Number       Type             X           Y           Z
 ---------------------------------------------------------------------
      1         21           0        0.000000    0.000000    0.000000
      2          1           0        0.000000    0.000000    1.000000
 ---------------------------------------------------------------------
 Stoichiometry    HSc
 Framework group  C*V[C*(HSc)]
 Deg. of freedom     1
 Full point group                 C*V     NOp   4
 Largest Abelian subgroup         C2V     NOp   4
 Largest concise Abelian subgroup C1      NOp   1
                         Standard orientation:                         
 ---------------------------------------------------------------------
 Center     Atomic      Atomic             Coordinates (Angstroms)
 Number     Number       Type             X           Y           Z
 ---------------------------------------------------------------------
      1         21           0        0.000000    0.000000    0.045455
      2          1           0        0.000000    0.000000   -0.954545
 ---------------------------------------------------------------------
 Rotational constants (GHZ):           0.0000000         512.6967625         512.6967625
 Leave Link  202 at Tue Feb 13 15:47:31 2018, MaxMem=  8589934592 cpu:               0.6 elap:               0.0
 (Enter /home1/apps/gaussian/16rA.03/g16/l301.exe)
 General basis read from cards:  (5D, 7F)
 Centers:       1
 S 1 1.00
     Exponent=  1.1949500000D+08 Coefficients=  1.0000000000D+00
 S 1 1.00
     Exponent=  2.1499200000D+07 Coefficients=  1.0000000000D+00
 S 1 1.00
     Exponent=  4.8070300000D+06 Coefficients=  1.0000000000D+00
 S 1 1.00
     Exponent=  1.2844000000D+06 Coefficients=  1.0000000000D+00
 S 1 1.00
     Exponent=  3.9659500000D+05 Coefficients=  1.0000000000D+00
 S 1 1.00
     Exponent=  1.3757500000D+05 Coefficients=  1.0000000000D+00
 S 1 1.00
     Exponent=  5.2366800000D+04 Coefficients=  1.0000000000D+00
 S 1 1.00
     Exponent=  2.1454900000D+04 Coefficients=  1.0000000000D+00
 S 1 1.00
     Exponent=  9.3160600000D+03 Coefficients=  1.0000000000D+00
 S 1 1.00
     Exponent=  4.2354000000D+03 Coefficients=  1.0000000000D+00
 S 1 1.00
     Exponent=  1.9974400000D+03 Coefficients=  1.0000000000D+00
 S 1 1.00
     Exponent=  9.7043000000D+02 Coefficients=  1.0000000000D+00
 S 1 1.00
     Exponent=  4.8327100000D+02 Coefficients=  1.0000000000D+00
 S 1 1.00
     Exponent=  2.4580600000D+02 Coefficients=  1.0000000000D+00
 S 1 1.00
     Exponent=  1.2736000000D+02 Coefficients=  1.0000000000D+00
 S 1 1.00
     Exponent=  6.7078800000D+01 Coefficients=  1.0000000000D+00
 S 1 1.00
     Exponent=  3.5837100000D+01 Coefficients=  1.0000000000D+00
 S 1 1.00
     Exponent=  1.9371300000D+01 Coefficients=  1.0000000000D+00
 S 1 1.00
     Exponent=  1.0557100000D+01 Coefficients=  1.0000000000D+00
 S 1 1.00
     Exponent=  5.7724900000D+00 Coefficients=  1.0000000000D+00
 S 1 1.00
     Exponent=  3.1454000000D+00 Coefficients=  1.0000000000D+00
 S 1 1.00
     Exponent=  1.6924900000D+00 Coefficients=  1.0000000000D+00
 S 1 1.00
     Exponent=  8.8864900000D-01 Coefficients=  1.0000000000D+00
 S 1 1.00
     Exponent=  4.7109300000D-01 Coefficients=  1.0000000000D+00
 S 1 1.00
     Exponent=  2.4928600000D-01 Coefficients=  1.0000000000D+00
 S 1 1.00
     Exponent=  9.9988000000D-02 Coefficients=  1.0000000000D+00
 S 1 1.00
     Exponent=  4.6369000000D-02 Coefficients=  1.0000000000D+00
 S 1 1.00
     Exponent=  2.1606000000D-02 Coefficients=  1.0000000000D+00
 S 1 1.00
     Exponent=  4.3955000000D+00 Coefficients=  1.0000000000D+00
 S 1 1.00
     Exponent=  1.1564000000D+00 Coefficients=  1.0000000000D+00
 S 1 1.00
     Exponent=  1.0070000000D-02 Coefficients=  1.0000000000D+00
 P 1 1.00
     Exponent=  5.5070500000D+04 Coefficients=  1.0000000000D+00
 P 1 1.00
     Exponent=  1.3741700000D+04 Coefficients=  1.0000000000D+00
 P 1 1.00
     Exponent=  4.3654000000D+03 Coefficients=  1.0000000000D+00
 P 1 1.00
     Exponent=  1.6422600000D+03 Coefficients=  1.0000000000D+00
 P 1 1.00
     Exponent=  6.9406600000D+02 Coefficients=  1.0000000000D+00
 P 1 1.00
     Exponent=  3.1774200000D+02 Coefficients=  1.0000000000D+00
 P 1 1.00
     Exponent=  1.5389900000D+02 Coefficients=  1.0000000000D+00
 P 1 1.00
     Exponent=  7.7766500000D+01 Coefficients=  1.0000000000D+00
 P 1 1.00
     Exponent=  4.0673600000D+01 Coefficients=  1.0000000000D+00
 P 1 1.00
     Exponent=  2.1906100000D+01 Coefficients=  1.0000000000D+00
 P 1 1.00
     Exponent=  1.2079500000D+01 Coefficients=  1.0000000000D+00
 P 1 1.00
     Exponent=  6.7534900000D+00 Coefficients=  1.0000000000D+00
 P 1 1.00
     Exponent=  3.7632100000D+00 Coefficients=  1.0000000000D+00
 P 1 1.00
     Exponent=  2.0497300000D+00 Coefficients=  1.0000000000D+00
 P 1 1.00
     Exponent=  1.0864500000D+00 Coefficients=  1.0000000000D+00
 P 1 1.00
     Exponent=  5.6408700000D-01 Coefficients=  1.0000000000D+00
 P 1 1.00
     Exponent=  2.8102000000D-01 Coefficients=  1.0000000000D+00
 P 1 1.00
     Exponent=  1.2143200000D-01 Coefficients=  1.0000000000D+00
 P 1 1.00
     Exponent=  5.3345000000D-02 Coefficients=  1.0000000000D+00
 P 1 1.00
     Exponent=  2.3143000000D-02 Coefficients=  1.0000000000D+00
 P 1 1.00
     Exponent=  5.1300000000D+00 Coefficients=  1.0000000000D+00
 P 1 1.00
     Exponent=  1.2315000000D+00 Coefficients=  1.0000000000D+00
 P 1 1.00
     Exponent=  1.0040000000D-02 Coefficients=  1.0000000000D+00
 D 1 1.00
     Exponent=  2.0684900000D+02 Coefficients=  1.0000000000D+00
 D 1 1.00
     Exponent=  6.0997700000D+01 Coefficients=  1.0000000000D+00
 D 1 1.00
     Exponent=  2.3308500000D+01 Coefficients=  1.0000000000D+00
 D 1 1.00
     Exponent=  9.9288100000D+00 Coefficients=  1.0000000000D+00
 D 1 1.00
     Exponent=  4.4867000000D+00 Coefficients=  1.0000000000D+00
 D 1 1.00
     Exponent=  2.1263200000D+00 Coefficients=  1.0000000000D+00
 D 1 1.00
     Exponent=  1.0200800000D+00 Coefficients=  1.0000000000D+00
 D 1 1.00
     Exponent=  4.8537300000D-01 Coefficients=  1.0000000000D+00
 D 1 1.00
     Exponent=  2.2719800000D-01 Coefficients=  1.0000000000D+00
 D 1 1.00
     Exponent=  1.0420400000D-01 Coefficients=  1.0000000000D+00
 D 1 1.00
     Exponent=  4.6835000000D-02 Coefficients=  1.0000000000D+00
 D 1 1.00
     Exponent=  2.0259000000D-02 Coefficients=  1.0000000000D+00
 D 1 1.00
     Exponent=  2.6491000000D+00 Coefficients=  1.0000000000D+00
 D 1 1.00
     Exponent=  1.4102000000D+00 Coefficients=  1.0000000000D+00
 D 1 1.00
     Exponent=  8.7600000000D-03 Coefficients=  1.0000000000D+00
 F 1 1.00
     Exponent=  3.5989000000D+00 Coefficients=  1.0000000000D+00
 F 1 1.00
     Exponent=  1.5145000000D+00 Coefficients=  1.0000000000D+00
 F 1 1.00
     Exponent=  6.3730000000D-01 Coefficients=  1.0000000000D+00
 F 1 1.00
     Exponent=  2.6820000000D-01 Coefficients=  1.0000000000D+00
 F 1 1.00
     Exponent=  8.0900000000D-02 Coefficients=  1.0000000000D+00
 F 1 1.00
     Exponent=  2.4400000000D-02 Coefficients=  1.0000000000D+00
 G 1 1.00
     Exponent=  3.1618000000D+00 Coefficients=  1.0000000000D+00
 G 1 1.00
     Exponent=  1.3736000000D+00 Coefficients=  1.0000000000D+00
 G 1 1.00
     Exponent=  5.9680000000D-01 Coefficients=  1.0000000000D+00
 G 1 1.00
     Exponent=  1.7110000000D-01 Coefficients=  1.0000000000D+00
 G 1 1.00
     Exponent=  4.9050000000D-02 Coefficients=  1.0000000000D+00
 H 1 1.00
     Exponent=  2.9441000000D+00 Coefficients=  1.0000000000D+00
 H 1 1.00
     Exponent=  1.1635000000D+00 Coefficients=  1.0000000000D+00
 H 1 1.00
     Exponent=  3.2900000000D-01 Coefficients=  1.0000000000D+00
 H 1 1.00
     Exponent=  9.3030000000D-02 Coefficients=  1.0000000000D+00
 I 1 1.00
     Exponent=  3.1150000000D+00 Coefficients=  1.0000000000D+00
 I 1 1.00
     Exponent=  1.1682000000D+00 Coefficients=  1.0000000000D+00
 I 1 1.00
     Exponent=  4.3810000000D-01 Coefficients=  1.0000000000D+00
 ****
 Centers:       2
 S 1 1.00
     Exponent=  4.0200000000D+02 Coefficients=  1.0000000000D+00
 S 1 1.00
     Exponent=  6.0240000000D+01 Coefficients=  1.0000000000D+00
 S 1 1.00
     Exponent=  1.3730000000D+01 Coefficients=  1.0000000000D+00
 S 1 1.00
     Exponent=  3.9050000000D+00 Coefficients=  1.0000000000D+00
 S 1 1.00
     Exponent=  1.2830000000D+00 Coefficients=  1.0000000000D+00
 S 1 1.00
     Exponent=  4.6550000000D-01 Coefficients=  1.0000000000D+00
 S 1 1.00
     Exponent=  1.8110000000D-01 Coefficients=  1.0000000000D+00
 S 1 1.00
     Exponent=  7.2790000000D-02 Coefficients=  1.0000000000D+00
 S 1 1.00
     Exponent=  2.0700000000D-02 Coefficients=  1.0000000000D+00
 P 1 1.00
     Exponent=  4.5160000000D+00 Coefficients=  1.0000000000D+00
 P 1 1.00
     Exponent=  1.7120000000D+00 Coefficients=  1.0000000000D+00
 P 1 1.00
     Exponent=  6.4900000000D-01 Coefficients=  1.0000000000D+00
 P 1 1.00
     Exponent=  2.4600000000D-01 Coefficients=  1.0000000000D+00
 P 1 1.00
     Exponent=  7.4400000000D-02 Coefficients=  1.0000000000D+00
 D 1 1.00
     Exponent=  2.9500000000D+00 Coefficients=  1.0000000000D+00
 D 1 1.00
     Exponent=  1.2060000000D+00 Coefficients=  1.0000000000D+00
 D 1 1.00
     Exponent=  4.9300000000D-01 Coefficients=  1.0000000000D+00
 D 1 1.00
     Exponent=  1.5600000000D-01 Coefficients=  1.0000000000D+00
 F 1 1.00
     Exponent=  2.5060000000D+00 Coefficients=  1.0000000000D+00
 F 1 1.00
     Exponent=  8.7500000000D-01 Coefficients=  1.0000000000D+00
 F 1 1.00
     Exponent=  2.7400000000D-01 Coefficients=  1.0000000000D+00
 G 1 1.00
     Exponent=  2.3580000000D+00 Coefficients=  1.0000000000D+00
 G 1 1.00
     Exponent=  5.4300000000D-01 Coefficients=  1.0000000000D+00
 ****
 ======================================================================================================
                                       Pseudopotential Parameters
 ======================================================================================================
  Center     Atomic      Valence      Angular      Power
  Number     Number     Electrons     Momentum     of R      Exponent        Coefficient   SO-Coeffient
 ======================================================================================================
    1         21           11
                                      D and up 
                                                     1        1.6491656       11.00000000    0.00000000
                                                     3        3.0683329       18.14082106    0.00000000
                                                     2        2.4198539      -35.19310566    0.00000000
                                      S - D
                                                     2        7.6031935       97.62913482    0.00000000
                                      P - D
                                                     2        5.3112183       33.97033635    0.00000000
    2          1            1
                                      P and up 
                                                     2       21.7769666      -10.85192405    0.00000000
                                                     1       21.2435951        1.00000000    0.00000000
                                                     3       21.2435951       21.24359508    0.00000000
                                      S - P
                                                     2        1.0000000        0.00000000    0.00000000
 ======================================================================================================
 Ernie: Thresh=  0.10000D-02 Tol=  0.10000D-05 Strict=F.
 There are   248 symmetry adapted cartesian basis functions of A1  symmetry.
 There are    79 symmetry adapted cartesian basis functions of A2  symmetry.
 There are   137 symmetry adapted cartesian basis functions of B1  symmetry.
 There are   137 symmetry adapted cartesian basis functions of B2  symmetry.
 There are   169 symmetry adapted basis functions of A1  symmetry.
 There are    59 symmetry adapted basis functions of A2  symmetry.
 There are   100 symmetry adapted basis functions of B1  symmetry.
 There are   100 symmetry adapted basis functions of B2  symmetry.
   428 basis functions,   601 primitive gaussians,   601 cartesian basis functions
     6 alpha electrons        6 beta electrons
       nuclear repulsion energy         5.8209493201 Hartrees.
 IExCor=    0 DFT=F Ex=HF Corr=None ExCW=0 ScaHFX=  1.000000
 ScaDFX=  1.000000  1.000000  1.000000  1.000000 ScalE2=  1.000000  1.000000
 IRadAn=      5 IRanWt=     -1 IRanGd=            0 ICorTp=0 IEmpDi=  4
 NAtoms=    2 NActive=    2 NUniq=    2 SFac= 1.00D+00 NAtFMM=   60 NAOKFM=F Big=F
 Integral buffers will be    131072 words long.
 Raffenetti 2 integral format.
 Two-electron integral symmetry is turned on.
 Leave Link  301 at Tue Feb 13 15:47:31 2018, MaxMem=  8589934592 cpu:               8.7 elap:               0.3
 (Enter /home1/apps/gaussian/16rA.03/g16/l302.exe)
 NPDir=0 NMtPBC=     1 NCelOv=     1 NCel=       1 NClECP=     1 NCelD=      1
         NCelK=      1 NCelE2=     1 NClLst=     1 CellRange=     0.0.
 One-electron integrals computed using PRISM.
 One-electron integral symmetry used in STVInt
   4 Symmetry operations used in ECPInt.
 ECPInt:  NShTT=    6105 NPrTT=    6105 LenC2=    6049 LenP2D=    6048.
 LDataN:  DoStor=T MaxTD1=12 Len= 1566
 NBasis=   428 RedAO= T EigKep=  1.01D-06  NBF=   169    59   100   100
 NBsUse=   426 1.00D-06 EigRej=  7.33D-07 NBFU=   167    59   100   100
 Leave Link  302 at Tue Feb 13 15:47:41 2018, MaxMem=  8589934592 cpu:             290.7 elap:               9.1
 (Enter /home1/apps/gaussian/16rA.03/g16/l303.exe)
 DipDrv:  MaxL=1.
 Leave Link  303 at Tue Feb 13 15:47:41 2018, MaxMem=  8589934592 cpu:               4.6 elap:               0.2
 (Enter /home1/apps/gaussian/16rA.03/g16/l401.exe)
 Initial guess from the checkpoint file:  "ScH.chk"
 B after Tr=     0.000000    0.000000    0.000000
         Rot=    1.000000    0.000000    0.000000    0.000000 Ang=   0.00 deg.
 Guess basis will be translated and rotated to current coordinates.
 JPrj=2 DoOrth=T DoCkMO=T.
 Initial guess orbital symmetries:
       Occupied  (SG) (SG) (PI) (PI) (SG) (SG)
       Virtual   (SG) (PI) (PI) (SG) (PI) (PI) (SG) (DLTA) (DLTA)
                 (SG) (PI) (PI) (PI) (PI) (DLTA) (DLTA) (SG) (SG)
                 (SG) (PI) (PI) (DLTA) (DLTA) (PHI) (PHI) (SG)
                 (PI) (PI) (PI) (PI) (DLTA) (DLTA) (SG) (PI) (PI)
                 (DLTA) (DLTA) (SG) (SG) (PI) (PI) (SG) (PI) (PI)
                 (DLTA) (DLTA) (PHI) (PHI) (?A) (?A) (SG) (DLTA)
                 (DLTA) (PI) (PI) (PHI) (PHI) (SG) (PI) (PI) (DLTA)
                 (DLTA) (SG) (SG) (PI) (PI) (SG) (DLTA) (DLTA)
                 (PHI) (PHI) (PI) (PI) (?A) (?A) (?B) (?B) (SG)
                 (PI) (PI) (DLTA) (DLTA) (SG) (SG) (PI) (PI) (PI)
                 (PI) (PHI) (PHI) (?A) (?A) (DLTA) (DLTA) (SG)
                 (SG) (PHI) (PHI) (PI) (PI) (DLTA) (DLTA) (SG)
                 (PI) (PI) (DLTA) (DLTA) (SG) (PI) (PI) (SG) (DLTA)
                 (DLTA) (PHI) (PHI) (PI) (PI) (SG) (SG) (PI) (PI)
                 (?A) (?A) (SG) (?B) (?B) (PI) (PI) (SG) (DLTA)
                 (DLTA) (PI) (PI) (DLTA) (DLTA) (PHI) (PHI) (DLTA)
                 (DLTA) (SG) (PI) (PI) (SG) (PI) (PI) (PHI) (PHI)
                 (DLTA) (DLTA) (SG) (?A) (?A) (PHI) (PHI) (PI)
                 (PI) (DLTA) (DLTA) (SG) (SG) (PI) (PI) (PI) (PI)
                 (SG) (DLTA) (DLTA) (SG) (PI) (PI) (SG) (PHI) (PHI)
                 (SG) (PI) (PI) (DLTA) (DLTA) (SG) (DLTA) (DLTA)
                 (PI) (PI) (SG) (PHI) (PHI) (DLTA) (DLTA) (PI)
                 (PI) (PI) (PI) (SG) (PI) (PI) (DLTA) (DLTA) (SG)
                 (PI) (PI) (SG) (?A) (?A) (?B) (?B) (PHI) (PHI)
                 (?A) (?A) (PHI) (PHI) (SG) (DLTA) (DLTA) (DLTA)
                 (DLTA) (PI) (PI) (SG) (PI) (PI) (SG) (SG) (DLTA)
                 (DLTA) (PI) (PI) (SG) (PI) (PI) (SG) (SG) (SG)
                 (PI) (PI) (SG) (DLTA) (DLTA) (PI) (PI) (SG) (SG)
                 (PI) (PI) (SG) (DLTA) (DLTA) (PI) (PI) (SG) (SG)
                 (PI) (PI) (SG) (SG) (SG) (PI) (PI) (SG) (DLTA)
                 (DLTA) (PI) (PI) (SG) (SG) (PI) (PI) (SG) (SG)
                 (DLTA) (DLTA) (PI) (PI) (SG) (SG) (PI) (PI) (SG)
                 (SG) (PI) (PI) (SG) (SG) (PI) (PI) (SG) (SG) (PI)
                 (PI) (SG) (SG) (PI) (PI) (SG) (SG) (PI) (PI) (SG)
                 (SG) (SG) (SG) (SG) (DLTA) (SG) (SG) (DLTA) (SG)
                 (SG) (SG) (SG) (SG) (DLTA) (SG) (?A) (DLTA) (SG)
                 (SG) (DLTA) (?A) (DLTA) (SG) (SG) (SG) (DLTA)
                 (SG) (SG) (?A) (DLTA) (SG) (SG) (DLTA) (SG) (SG)
                 (?A) (?A) (DLTA) (SG) (DLTA) (?A) (SG) (?A) (SG)
                 (SG) (SG) (SG) (DLTA) (DLTA) (DLTA) (?A) (DLTA)
                 (DLTA) (?A) (DLTA) (DLTA) (?A) (DLTA) (SG) (DLTA)
                 (?A) (?A) (DLTA) (DLTA) (?A) (SG) (?A) (SG) (PI)
                 (PI) (PI) (PI) (PHI) (PI) (PI) (PHI) (PI) (PI)
                 (PI) (PHI) (PI) (PHI) (PI) (PI) (PHI) (?B) (PHI)
                 (PI) (?B) (PHI) (PHI) (?B) (PI) (PHI) (?B) (PI)
                 (PI) (PI) (PI) (PHI) (PI) (PI) (PHI) (PI) (PI)
                 (PI) (PHI) (PI) (PHI) (PI) (PI) (PHI) (?B) (PHI)
                 (PI) (?B) (PHI) (PHI) (?B) (PI) (PHI) (?B)
 The electronic state of the initial guess is 1-SG.
 Leave Link  401 at Tue Feb 13 15:47:42 2018, MaxMem=  8589934592 cpu:              38.7 elap:               1.4
 (Enter /home1/apps/gaussian/16rA.03/g16/l502.exe)
 Keep R1 and R2 ints in memory in symmetry-blocked form, NReq=5277864979.
 FoFCou: FMM=F IPFlag=           8 FMFlag=           0 FMFlg1=           0
         NFxFlg=           0 DoJE=F BraDBF=F KetDBF=F FulRan=T
         wScrn=  0.000000 ICntrl=       600 IOpCl=  0 I1Cent=           0 NGrid=           0
         NMat0=    1 NMatS0=  91806 NMatT0=    0 NMatD0=    1 NMtDS0=    0 NMtDT0=    0
 Petite list used in FoFCou.
 Restricted open shell SCF:
 Using DIIS extrapolation, IDIIS=  1040.
 NGot=  8589934592 LenX=  6462098699 LenY=  6461736897
 Requested convergence on RMS density matrix=1.00D-08 within 300 cycles.
 Requested convergence on MAX density matrix=1.00D-06.
 Requested convergence on             energy=1.00D-06.
 No special actions if energy rises.

 Cycle   1  Pass 1  IDiag  1:
 E= -46.5118467129231    
 DIIS: error= 1.82D+00 at cycle   1 NSaved=   1.
 NSaved= 1 IEnMin= 1 EnMin= -46.5118467129231     IErMin= 1 ErrMin= 1.82D+00
 ErrMax= 1.82D+00  0.00D+00 EMaxC= 1.00D-01 BMatC= 4.46D+02 BMatP= 4.46D+02
 IDIUse=3 WtCom= 0.00D+00 WtEn= 1.00D+00
 Coeff-Com:  0.100D+01
 Coeff-En:   0.100D+01
 Coeff:      0.100D+01
 Gap=     0.225 Goal=   None    Shift=    0.000
 GapD=    0.225 DampG=1.000 DampE=0.125 DampFc=0.1250 IDamp=-1.
 Damping current iteration by 1.25D-01
 RMSDP=2.95D-03 MaxDP=3.93D-01              OVMax= 1.10D-03

 Cycle   2  Pass 1  IDiag  1:
 E= -46.5118763632248     Delta-E=       -0.000029650302 Rises=F Damp=T
 DIIS: error= 1.60D+00 at cycle   2 NSaved=   2.
 NSaved= 2 IEnMin= 2 EnMin= -46.5118763632248     IErMin= 2 ErrMin= 1.60D+00
 ErrMax= 1.60D+00  0.00D+00 EMaxC= 1.00D-01 BMatC= 3.42D+02 BMatP= 4.46D+02
 IDIUse=3 WtCom= 0.00D+00 WtEn= 1.00D+00
 Coeff-Com: -0.700D+01 0.800D+01
 Coeff-En:   0.000D+00 0.100D+01
 Coeff:      0.000D+00 0.100D+01
 Gap=     0.225 Goal=   None    Shift=    0.000
 RMSDP=2.59D-03 MaxDP=3.45D-01 DE=-2.97D-05 OVMax= 1.14D-05

 Cycle   3  Pass 1  IDiag  1:
 E= -46.5120868702234     Delta-E=       -0.000210506999 Rises=F Damp=F
 DIIS: error= 1.30D-04 at cycle   3 NSaved=   3.
 NSaved= 3 IEnMin= 3 EnMin= -46.5120868702234     IErMin= 3 ErrMin= 1.30D-04
 ErrMax= 1.30D-04  0.00D+00 EMaxC= 1.00D-01 BMatC= 7.50D-07 BMatP= 3.42D+02
 IDIUse=3 WtCom= 9.99D-01 WtEn= 1.30D-03
 Large coefficients: NSaved=  3 BigCof=   54.18 CofMax=   10.00 Det=-2.38D-10
 Inversion failed.  Reducing to  2 matrices.
 Coeff-Com: -0.235D-06 0.100D+01
 Coeff-En:   0.000D+00 0.100D+01
 Coeff:     -0.235D-06 0.100D+01
 Gap=     0.225 Goal=   None    Shift=    0.000
 RMSDP=6.43D-05 MaxDP=5.80D-03 DE=-2.11D-04 OVMax= 8.17D-05

 Cycle   4  Pass 1  IDiag  1:
 E= -46.5120869764439     Delta-E=       -0.000000106221 Rises=F Damp=F
 DIIS: error= 2.60D-06 at cycle   4 NSaved=   3.
 NSaved= 3 IEnMin= 3 EnMin= -46.5120869764439     IErMin= 3 ErrMin= 2.60D-06
 ErrMax= 2.60D-06  0.00D+00 EMaxC= 1.00D-01 BMatC= 1.34D-09 BMatP= 7.50D-07
 IDIUse=1 WtCom= 1.00D+00 WtEn= 0.00D+00
 Coeff-Com:  0.466D-08-0.337D-01 0.103D+01
 Coeff:      0.466D-08-0.337D-01 0.103D+01
 Gap=     0.225 Goal=   None    Shift=    0.000
 RMSDP=8.86D-06 MaxDP=1.15D-03 DE=-1.06D-07 OVMax= 1.91D-05

 Cycle   5  Pass 1  IDiag  1:
 E= -46.5120869772210     Delta-E=       -0.000000000777 Rises=F Damp=F
 DIIS: error= 5.89D-07 at cycle   5 NSaved=   4.
 NSaved= 4 IEnMin= 4 EnMin= -46.5120869772210     IErMin= 4 ErrMin= 5.89D-07
 ErrMax= 5.89D-07  0.00D+00 EMaxC= 1.00D-01 BMatC= 2.57D-11 BMatP= 1.34D-09
 IDIUse=1 WtCom= 1.00D+00 WtEn= 0.00D+00
 Coeff-Com:  0.453D-09-0.167D-02 0.298D-01 0.972D+00
 Coeff:      0.453D-09-0.167D-02 0.298D-01 0.972D+00
 Gap=     0.225 Goal=   None    Shift=    0.000
 RMSDP=1.40D-06 MaxDP=1.93D-04 DE=-7.77D-10 OVMax= 3.71D-06

 Cycle   6  Pass 1  IDiag  1:
 E= -46.5120869772620     Delta-E=       -0.000000000041 Rises=F Damp=F
 DIIS: error= 2.54D-07 at cycle   6 NSaved=   5.
 NSaved= 5 IEnMin= 5 EnMin= -46.5120869772620     IErMin= 5 ErrMin= 2.54D-07
 ErrMax= 2.54D-07  0.00D+00 EMaxC= 1.00D-01 BMatC= 2.53D-12 BMatP= 2.57D-11
 IDIUse=1 WtCom= 1.00D+00 WtEn= 0.00D+00
 Coeff-Com: -0.663D-10 0.916D-03-0.304D-01 0.398D-01 0.990D+00
 Coeff:     -0.663D-10 0.916D-03-0.304D-01 0.398D-01 0.990D+00
 Gap=     0.225 Goal=   None    Shift=    0.000
 RMSDP=3.65D-07 MaxDP=5.08D-05 DE=-4.10D-11 OVMax= 2.82D-06

 Cycle   7  Pass 1  IDiag  1:
 E= -46.5120869772732     Delta-E=       -0.000000000011 Rises=F Damp=F
 DIIS: error= 1.44D-07 at cycle   7 NSaved=   6.
 NSaved= 6 IEnMin= 6 EnMin= -46.5120869772732     IErMin= 6 ErrMin= 1.44D-07
 ErrMax= 1.44D-07  0.00D+00 EMaxC= 1.00D-01 BMatC= 8.44D-13 BMatP= 2.53D-12
 IDIUse=1 WtCom= 1.00D+00 WtEn= 0.00D+00
 Coeff-Com: -0.187D-09-0.543D-03 0.206D-01-0.195D+00-0.419D+00 0.159D+01
 Coeff:     -0.187D-09-0.543D-03 0.206D-01-0.195D+00-0.419D+00 0.159D+01
 Gap=     0.225 Goal=   None    Shift=    0.000
 RMSDP=1.06D-07 MaxDP=1.49D-05 DE=-1.12D-11 OVMax= 2.73D-06

 Cycle   8  Pass 1  IDiag  1:
 E= -46.5120869772791     Delta-E=       -0.000000000006 Rises=F Damp=F
 DIIS: error= 4.34D-08 at cycle   8 NSaved=   7.
 NSaved= 7 IEnMin= 7 EnMin= -46.5120869772791     IErMin= 7 ErrMin= 4.34D-08
 ErrMax= 4.34D-08  0.00D+00 EMaxC= 1.00D-01 BMatC= 9.76D-14 BMatP= 8.44D-13
 IDIUse=1 WtCom= 1.00D+00 WtEn= 0.00D+00
 Coeff-Com:  0.123D-09-0.605D-05-0.402D-03 0.249D-01 0.275D-01-0.519D+00
 Coeff-Com:  0.147D+01
 Coeff:      0.123D-09-0.605D-05-0.402D-03 0.249D-01 0.275D-01-0.519D+00
 Coeff:      0.147D+01
 Gap=     0.225 Goal=   None    Shift=    0.000
 RMSDP=4.28D-08 MaxDP=5.86D-06 DE=-5.88D-12 OVMax= 1.38D-06

 Cycle   9  Pass 1  IDiag  1:
 E= -46.5120869772799     Delta-E=       -0.000000000001 Rises=F Damp=F
 DIIS: error= 2.87D-08 at cycle   9 NSaved=   8.
 NSaved= 8 IEnMin= 8 EnMin= -46.5120869772799     IErMin= 8 ErrMin= 2.87D-08
 ErrMax= 2.87D-08  0.00D+00 EMaxC= 1.00D-01 BMatC= 4.98D-14 BMatP= 9.76D-14
 IDIUse=1 WtCom= 1.00D+00 WtEn= 0.00D+00
 Coeff-Com:  0.122D-09 0.628D-04-0.258D-02 0.355D-01 0.731D-01-0.488D+00
 Coeff-Com:  0.865D+00 0.516D+00
 Coeff:      0.122D-09 0.628D-04-0.258D-02 0.355D-01 0.731D-01-0.488D+00
 Coeff:      0.865D+00 0.516D+00
 Gap=     0.225 Goal=   None    Shift=    0.000
 RMSDP=9.96D-09 MaxDP=1.18D-06 DE=-7.60D-13 OVMax= 2.13D-07

 Cycle  10  Pass 1  IDiag  1:
 E= -46.5120869772800     Delta-E=       -0.000000000000 Rises=F Damp=F
 DIIS: error= 1.01D-08 at cycle  10 NSaved=   9.
 NSaved= 9 IEnMin= 9 EnMin= -46.5120869772800     IErMin= 9 ErrMin= 1.01D-08
 ErrMax= 1.01D-08  0.00D+00 EMaxC= 1.00D-01 BMatC= 5.05D-15 BMatP= 4.98D-14
 IDIUse=1 WtCom= 1.00D+00 WtEn= 0.00D+00
 Coeff-Com:  0.988D-10 0.481D-04-0.185D-02 0.175D-01 0.490D-01-0.180D+00
 Coeff-Com:  0.105D+00 0.286D-01 0.981D+00
 Coeff:      0.988D-10 0.481D-04-0.185D-02 0.175D-01 0.490D-01-0.180D+00
 Coeff:      0.105D+00 0.286D-01 0.981D+00
 Gap=     0.225 Goal=   None    Shift=    0.000
 RMSDP=5.17D-09 MaxDP=7.26D-07 DE=-1.63D-13 OVMax= 1.84D-07

 SCF Done:  E(ROHF) =  -46.5120869773     A.U. after   10 cycles
            NFock= 10  Conv=0.52D-08     -V/T= 3.2970
 <Sx>= 0.0000 <Sy>= 0.0000 <Sz>= 0.0000 <S**2>=-0.0000 S=-0.0000
 <L.S>=  0.00000000000    
 KE= 2.024929202061D+01 PE=-1.086617023585D+02 EE= 3.607937404051D+01
 Annihilation of the first spin contaminant:
 S**2 before annihilation    -0.0000,   after     0.0000
 Leave Link  502 at Tue Feb 13 15:50:08 2018, MaxMem=  8589934592 cpu:            4433.5 elap:             145.2
 (Enter /home1/apps/gaussian/16rA.03/g16/l801.exe)
 Windowed orbitals will be sorted by symmetry type.
 GenMOA:  NOpAll=  4 NOp2=4 NOpUse=  4 JSym2X=1
 FoFJK:  IHMeth= 1 ICntrl=       0 DoSepK=F KAlg= 0 I1Cent=           0 FoldK=F
 IRaf=         0 NMat=       1 IRICut=       1 DoRegI=T DoRafI=F ISym2E= 1 IDoP0=0 IntGTp=1.
 FoFCou: FMM=F IPFlag=           8 FMFlag=      100000 FMFlg1=           0
         NFxFlg=           0 DoJE=F BraDBF=F KetDBF=F FulRan=T
         wScrn=  0.000000 ICntrl=         0 IOpCl=  1 I1Cent=           0 NGrid=           0
         NMat0=    1 NMatS0=      1 NMatT0=    0 NMatD0=    1 NMtDS0=    0 NMtDT0=    0
 Petite list used in FoFCou.
 <Sx>= 0.0000 <Sy>= 0.0000 <Sz>= 0.0000 <S**2>=-0.0000 S=-0.0000
 Range of M.O.s used for correlation:     1   426
 NBasis=   428 NAE=     6 NBE=     6 NFC=     0 NFV=     0
 NROrb=    426 NOA=     6 NOB=     6 NVA=   420 NVB=   420

 **** Warning!!: The largest alpha MO coefficient is  0.26274538D+03


 **** Warning!!: The largest beta MO coefficient is  0.26274538D+03

 Singles contribution to E2=   -0.9343467700D-15
 Leave Link  801 at Tue Feb 13 15:51:05 2018, MaxMem=  8589934592 cpu:            1802.8 elap:              56.4
 (Enter /home1/apps/gaussian/16rA.03/g16/l804.exe)
 Open-shell transformation, MDV=  8589934592 ITran=4 ISComp=2.
 Unit  1 TFree=       5549475 TCopy=       4077852.
 Semi-Direct transformation.
 ModeAB=           2 MOrb=             6 LenV=    8584408773
 LASXX=     58543982 LTotXX=    58543982 LenRXX=    58543982
 LTotAB=    59074531 MaxLAS=   462382956 LenRXY=   462382956
 NonZer=   470919996 LenScr=   709150720 LnRSAI=           0
 LnScr1=           0 LExtra=    13078971 Total=   1243156629
 MaxDsk= 67108864000 SrtSym=           F ITran=            4
 DoSDTr:  NPSUse= 32
 JobTyp=1 Pass  1:  I=   1 to   6.
 (rs|ai) integrals will be sorted in core.
 Complete sort for first half transformation.
 First half transformation complete.
 Complete sort for second half transformation.
 Second half transformation complete.
 ModeAB=           2 MOrb=             6 LenV=    8584408773
 LASXX=     58543982 LTotXX=    58543982 LenRXX=   462382956
 LTotAB=    57368494 MaxLAS=   462382956 LenRXY=    57368494
 NonZer=   470919996 LenScr=   709150720 LnRSAI=           0
 LnScr1=           0 LExtra=   534005909 Total=   1762908079
 MaxDsk= 67108864000 SrtSym=           F ITran=            4
 DoSDTr:  NPSUse= 32
 JobTyp=2 Pass  1:  I=   1 to   6.
 (rs|ai) integrals will be sorted in core.
 Complete sort for first half transformation.
 First half transformation complete.
 Complete sort for second half transformation.
 Second half transformation complete.
 Spin components of T(2) and E(2):
     alpha-alpha T2 =       0.1233431248D-01 E2=     -0.5186700374D-01
     alpha-beta  T2 =       0.9187655860D-01 E2=     -0.3416804218D+00
     beta-beta   T2 =       0.1233431248D-01 E2=     -0.5186700374D-01
 ANorm=    0.1056667016D+01
 E2 =    -0.4454144293D+00 EUMP2 =    -0.46957501406585D+02
 (S**2,0)=  0.00000D+00           (S**2,1)=  0.00000D+00
 E(PUHF)=      -0.46512086977D+02        E(PMP2)=      -0.46957501407D+02
 Leave Link  804 at Tue Feb 13 16:17:30 2018, MaxMem=  8589934592 cpu:           50733.1 elap:            1585.6
 (Enter /home1/apps/gaussian/16rA.03/g16/l913.exe)
 CIDS:  MDV=  8589934592.
 IFCWin=0 IBDFC=1 NFBD=     0     0 NFCmp=     0     0 NFFFC=     0     0
 Using original routines for 1st iteration.
 Using DD4UQ or CC4UQ for 2nd and later iterations.
 Keep R2 and R3 ints in memory in symmetry-blocked form, NReq=5277880381.
 FoFCou: FMM=F IPFlag=           8 FMFlag=           0 FMFlg1=           0
         NFxFlg=           0 DoJE=F BraDBF=F KetDBF=F FulRan=T
         wScrn=  0.000000 ICntrl=       600 IOpCl=  0 I1Cent=           0 NGrid=           0
         NMat0=    1 NMatS0=  91806 NMatT0=    0 NMatD0=    1 NMtDS0=    0 NMtDT0=    0
 Petite list used in FoFCou.
 CIDS: In Core Option IDoMem=           1.
 CCSD(T)
 =======
 Iterations= 150 Convergence= 0.100D-06
 Produce multiple copies of IABC intergrals
 Iteration Nr.   1
 **********************
 DD1Dir will call FoFMem   1 times, MxPair=       102
 NAB=    36 NAA=    15 NBB=    15.
 DD1Dir will call FoFMem   1 times, MxPair=       102
 NAB=    36 NAA=    15 NBB=    15.
 MP4(R+Q)=  0.29676279D-01
 Maximum subspace dimension=  5
 A-vector RMS=  1.6517053D-05 Max=  5.4184235D-03 conv= 1.00D-05.
 RLE energy=       -0.4337230296
 E3=       -0.17669727D-01        EROMP3=      -0.46975171133D+02
 E4(SDQ)=   0.92093221D-03        ROMP4(SDQ)=  -0.46974250201D+02
 VARIATIONAL ENERGIES WITH THE FIRST-ORDER WAVEFUNCTION:
 DE(Corr)= -0.43340788     E(Corr)=     -46.945494855    
 NORM(A)=   0.10511210D+01
 Iteration Nr.   2
 **********************
 DD1Dir will call FoFMem   1 times, MxPair=       102
 NAB=    36 NAA=    15 NBB=    15.
 A-vector RMS=  1.9452370D-03 Max=  2.3546339D-02 conv= 1.00D-05.
 RLE energy=       -0.4394655165
 DE(Corr)= -0.45084870     E(CORR)=     -46.962935681     Delta=-1.74D-02
 NORM(A)=   0.10540305D+01
 Iteration Nr.   3
 **********************
 DD1Dir will call FoFMem   1 times, MxPair=       102
 NAB=    36 NAA=    15 NBB=    15.
 A-vector RMS=  1.3887656D-03 Max=  1.7064461D-02 conv= 1.00D-05.
 RLE energy=       -0.4492882804
 DE(Corr)= -0.45384136     E(CORR)=     -46.965928337     Delta=-2.99D-03
 NORM(A)=   0.10602867D+01
 Iteration Nr.   4
 **********************
 DD1Dir will call FoFMem   1 times, MxPair=       102
 NAB=    36 NAA=    15 NBB=    15.
 A-vector RMS=  9.9875175D-04 Max=  1.2349451D-02 conv= 1.00D-05.
 RLE energy=       -0.4608940202
 DE(Corr)= -0.45667346     E(CORR)=     -46.968760433     Delta=-2.83D-03
 NORM(A)=   0.10720463D+01
 Iteration Nr.   5
 **********************
 DD1Dir will call FoFMem   1 times, MxPair=       102
 NAB=    36 NAA=    15 NBB=    15.
 A-vector RMS=  9.2657741D-05 Max=  1.2478029D-03 conv= 1.00D-05.
 RLE energy=       -0.4628294611
 DE(Corr)= -0.46159431     E(CORR)=     -46.973681290     Delta=-4.92D-03
 NORM(A)=   0.10748135D+01
 Iteration Nr.   6
 **********************
 DD1Dir will call FoFMem   1 times, MxPair=       102
 NAB=    36 NAA=    15 NBB=    15.
 A-vector RMS=  4.9055257D-05 Max=  5.3571978D-04 conv= 1.00D-05.
 RLE energy=       -0.4620636990
 DE(Corr)= -0.46236626     E(CORR)=     -46.974453235     Delta=-7.72D-04
 NORM(A)=   0.10740260D+01
 Iteration Nr.   7
 **********************
 DD1Dir will call FoFMem   1 times, MxPair=       102
 NAB=    36 NAA=    15 NBB=    15.
 A-vector RMS=  8.0263879D-06 Max=  1.1446606D-04 conv= 1.00D-05.
 RLE energy=       -0.4620616572
 DE(Corr)= -0.46205885     E(CORR)=     -46.974145823     Delta= 3.07D-04
 NORM(A)=   0.10740543D+01
 Iteration Nr.   8
 **********************
 DD1Dir will call FoFMem   1 times, MxPair=       102
 NAB=    36 NAA=    15 NBB=    15.
 A-vector RMS=  5.8810959D-06 Max=  8.3771522D-05 conv= 1.00D-05.
 RLE energy=       -0.4620665943
 DE(Corr)= -0.46206763     E(CORR)=     -46.974154607     Delta=-8.78D-06
 NORM(A)=   0.10740416D+01
 Iteration Nr.   9
 **********************
 DD1Dir will call FoFMem   1 times, MxPair=       102
 NAB=    36 NAA=    15 NBB=    15.
 A-vector RMS=  2.6333094D-06 Max=  3.9763825D-05 conv= 1.00D-05.
 RLE energy=       -0.4620651334
 DE(Corr)= -0.46206380     E(CORR)=     -46.974150778     Delta= 3.83D-06
 NORM(A)=   0.10740351D+01
 Iteration Nr.  10
 **********************
 DD1Dir will call FoFMem   1 times, MxPair=       102
 NAB=    36 NAA=    15 NBB=    15.
 A-vector RMS=  1.2974396D-06 Max=  1.7888468D-05 conv= 1.00D-05.
 RLE energy=       -0.4620644602
 DE(Corr)= -0.46206431     E(CORR)=     -46.974151287     Delta=-5.09D-07
 NORM(A)=   0.10740338D+01
 Iteration Nr.  11
 **********************
 DD1Dir will call FoFMem   1 times, MxPair=       102
 NAB=    36 NAA=    15 NBB=    15.
 A-vector RMS=  5.5859787D-07 Max=  6.1656760D-06 conv= 1.00D-05.
 RLE energy=       -0.4620644332
 DE(Corr)= -0.46206412     E(CORR)=     -46.974151095     Delta= 1.91D-07
 NORM(A)=   0.10740356D+01
 Iteration Nr.  12
 **********************
 DD1Dir will call FoFMem   1 times, MxPair=       102
 NAB=    36 NAA=    15 NBB=    15.
 A-vector RMS=  1.6024748D-07 Max=  1.5379771D-06 conv= 1.00D-05.
 RLE energy=       -0.4620643613
 DE(Corr)= -0.46206434     E(CORR)=     -46.974151321     Delta=-2.26D-07
 NORM(A)=   0.10740363D+01
 Iteration Nr.  13
 **********************
 DD1Dir will call FoFMem   1 times, MxPair=       102
 NAB=    36 NAA=    15 NBB=    15.
 A-vector RMS=  1.0479078D-07 Max=  1.1800820D-06 conv= 1.00D-05.
 RLE energy=       -0.4620644386
 DE(Corr)= -0.46206439     E(CORR)=     -46.974151370     Delta=-4.89D-08
 NORM(A)=   0.10740369D+01
 CI/CC converged in   13 iterations to DelEn=-4.89D-08 Conv= 1.00D-07 ErrA1= 1.05D-07 Conv= 1.00D-05
 Wavefunction amplitudes converged. E(Corr)=     -46.974151370    
 Largest amplitude= 5.32D-02
 Time for triples=    62495.38 seconds.
 T4(CCSD)= -0.18884939D-01
 T5(CCSD)=  0.46157146D-03
 CCSD(T)= -0.46992574738D+02
 Discarding MO integrals.
 Leave Link  913 at Tue Feb 13 16:59:10 2018, MaxMem=  8589934592 cpu:           79638.8 elap:            2499.7
 (Enter /home1/apps/gaussian/16rA.03/g16/l601.exe)
 Copying SCF densities to generalized density rwf, IOpCl= 0 IROHF=1.

 **********************************************************************

            Population analysis using the SCF density.

 **********************************************************************

 Orbital symmetries:
       Occupied  (SG) (SG) (PI) (PI) (SG) (SG)
       Virtual   (SG) (PI) (PI) (SG) (PI) (PI) (SG) (DLTA) (DLTA)
                 (SG) (PI) (PI) (SG) (PI) (PI) (DLTA) (DLTA) (SG)
                 (SG) (PI) (PI) (DLTA) (DLTA) (PHI) (PHI) (SG)
                 (PI) (PI) (DLTA) (DLTA) (PI) (PI) (SG) (SG) (PI)
                 (PI) (SG) (DLTA) (DLTA) (PI) (PI) (DLTA) (DLTA)
                 (PHI) (PHI) (?A) (?A) (SG) (PI) (PI) (SG) (DLTA)
                 (DLTA) (PHI) (PHI) (PI) (PI) (SG) (SG) (PI) (PI)
                 (DLTA) (DLTA) (SG) (PI) (PI) (DLTA) (DLTA) (PHI)
                 (PHI) (?A) (?A) (?B) (?B) (SG) (SG) (PI) (PI)
                 (SG) (PI) (PI) (DLTA) (DLTA) (PHI) (PHI) (PI)
                 (PI) (SG) (DLTA) (DLTA) (?A) (?A) (SG) (PHI) (PHI)
                 (PI) (PI) (SG) (DLTA) (DLTA) (PI) (PI) (SG) (SG)
                 (PI) (PI) (DLTA) (DLTA) (SG) (PI) (PI) (DLTA)
                 (DLTA) (PHI) (PHI) (SG) (PI) (PI) (SG) (DLTA)
                 (DLTA) (?A) (?A) (PI) (PI) (?B) (?B) (SG) (PHI)
                 (PHI) (PI) (PI) (SG) (DLTA) (DLTA) (DLTA) (DLTA)
                 (PHI) (PHI) (SG) (PI) (PI) (SG) (SG) (PI) (PI)
                 (DLTA) (DLTA) (?A) (?A) (PHI) (PHI) (PI) (PI)
                 (?A) (?A) (?B) (?B) (SG) (SG) (SG) (DLTA) (DLTA)
                 (PI) (PI) (SG) (PHI) (PHI) (SG) (DLTA) (DLTA)
                 (PI) (PI) (?A) (?A) (PHI) (PHI) (SG) (PI) (PI)
                 (DLTA) (DLTA) (SG) (SG) (PI) (PI) (SG) (PHI) (PHI)
                 (DLTA) (DLTA) (PI) (PI) (PI) (PI) (SG) (DLTA)
                 (DLTA) (PI) (PI) (PHI) (PHI) (DLTA) (DLTA) (SG)
                 (DLTA) (DLTA) (PI) (PI) (SG) (SG) (?B) (?B) (?A)
                 (?A) (?A) (?A) (PHI) (PHI) (PI) (PI) (SG) (PI)
                 (PI) (SG) (PHI) (PHI) (DLTA) (DLTA) (SG) (PI)
                 (PI) (DLTA) (DLTA) (?A) (?A) (?B) (?B) (SG) (SG)
                 (PHI) (PHI) (SG) (SG) (PI) (PI) (DLTA) (DLTA)
                 (PI) (PI) (DLTA) (DLTA) (PI) (PI) (SG) (PI) (PI)
                 (SG) (SG) (SG) (PHI) (PHI) (?A) (?A) (DLTA) (DLTA)
                 (SG) (PHI) (PHI) (DLTA) (DLTA) (PI) (PI) (DLTA)
                 (DLTA) (PI) (PI) (PHI) (PHI) (SG) (PI) (PI) (?A)
                 (?A) (SG) (DLTA) (DLTA) (PHI) (PHI) (SG) (PI)
                 (PI) (SG) (DLTA) (DLTA) (PI) (PI) (?B) (?B) (?A)
                 (?A) (DLTA) (DLTA) (SG) (PI) (PI) (PHI) (PHI)
                 (PI) (PI) (DLTA) (DLTA) (SG) (PI) (PI) (PI) (PI)
                 (SG) (?B) (?B) (SG) (SG) (?A) (?A) (PHI) (PHI)
                 (SG) (SG) (DLTA) (DLTA) (PI) (PI) (SG) (SG) (DLTA)
                 (DLTA) (PI) (PI) (SG) (PI) (PI) (SG) (SG) (SG)
                 (PI) (PI) (DLTA) (DLTA) (PI) (PI) (SG) (SG) (SG)
                 (PI) (PI) (DLTA) (DLTA) (PI) (PI) (SG) (SG) (SG)
                 (PI) (PI) (SG) (SG) (SG) (PI) (PI) (DLTA) (DLTA)
                 (PI) (PI) (SG) (SG) (SG) (PI) (PI) (SG) (SG) (PI)
                 (PI) (SG) (DLTA) (DLTA) (PI) (PI) (SG) (SG) (SG)
                 (PI) (PI) (SG) (SG) (PI) (PI) (SG) (SG) (PI) (PI)
                 (SG) (SG) (SG) (PI) (PI) (SG) (SG) (PI) (PI) (SG)
                 (SG) (SG) (PI) (PI) (SG) (SG) (SG) (SG) (SG) (SG)
 The electronic state is 1-SG.
 Alpha  occ. eigenvalues --   -2.66568  -1.65904  -1.55706  -1.55706  -0.47498
 Alpha  occ. eigenvalues --   -0.21302
 Alpha virt. eigenvalues --    0.01186   0.01332   0.01332   0.01714   0.02606
 Alpha virt. eigenvalues --    0.02606   0.02618   0.02643   0.02643   0.04003
 Alpha virt. eigenvalues --    0.04433   0.04433   0.07187   0.07432   0.07432
 Alpha virt. eigenvalues --    0.07650   0.07650   0.07779   0.10032   0.10120
 Alpha virt. eigenvalues --    0.10120   0.10254   0.10254   0.10506   0.10506
 Alpha virt. eigenvalues --    0.12254   0.13482   0.13482   0.14122   0.14122
 Alpha virt. eigenvalues --    0.14178   0.14178   0.17654   0.18273   0.22721
 Alpha virt. eigenvalues --    0.22721   0.24348   0.24986   0.24986   0.25121
 Alpha virt. eigenvalues --    0.25121   0.25698   0.25698   0.25831   0.25831
 Alpha virt. eigenvalues --    0.26104   0.26104   0.28806   0.30733   0.30733
 Alpha virt. eigenvalues --    0.31837   0.32232   0.32232   0.35704   0.35704
 Alpha virt. eigenvalues --    0.36050   0.36050   0.38151   0.42004   0.47468
 Alpha virt. eigenvalues --    0.47468   0.52624   0.52624   0.54263   0.56203
 Alpha virt. eigenvalues --    0.56203   0.56798   0.56798   0.57535   0.57535
 Alpha virt. eigenvalues --    0.58402   0.58402   0.58569   0.58569   0.58885
 Alpha virt. eigenvalues --    0.61983   0.63850   0.63850   0.66342   0.66766
 Alpha virt. eigenvalues --    0.66766   0.69632   0.69632   0.84549   0.84549
 Alpha virt. eigenvalues --    0.85011   0.85011   0.85024   0.87078   0.87078
 Alpha virt. eigenvalues --    0.90025   0.90025   0.96412   1.02526   1.02526
 Alpha virt. eigenvalues --    1.08790   1.08790   1.11063   1.15635   1.15635
 Alpha virt. eigenvalues --    1.19592   1.19592   1.23215   1.25477   1.34429
 Alpha virt. eigenvalues --    1.34429   1.35726   1.35726   1.39789   1.41455
 Alpha virt. eigenvalues --    1.41455   1.46190   1.46190   1.53045   1.53045
 Alpha virt. eigenvalues --    1.53222   1.71190   1.71190   1.84502   1.99393
 Alpha virt. eigenvalues --    1.99393   2.00871   2.00871   2.02248   2.02248
 Alpha virt. eigenvalues --    2.03024   2.03024   2.03811   2.10981   2.10981
 Alpha virt. eigenvalues --    2.24408   2.24408   2.27055   2.36003   2.36003
 Alpha virt. eigenvalues --    2.51005   2.51005   2.53694   2.53694   2.54741
 Alpha virt. eigenvalues --    2.55877   2.55877   2.58241   2.69809   2.74841
 Alpha virt. eigenvalues --    2.74841   2.76204   2.76204   2.76647   2.76647
 Alpha virt. eigenvalues --    2.82526   2.82526   2.83904   2.83904   3.00349
 Alpha virt. eigenvalues --    3.00349   3.00762   3.00762   3.01204   3.01204
 Alpha virt. eigenvalues --    3.01486   3.06213   3.06213   3.15485   3.15485
 Alpha virt. eigenvalues --    3.22882   3.30077   3.30077   3.44190   3.48484
 Alpha virt. eigenvalues --    3.48484   3.49670   3.49670   3.76128   3.76128
 Alpha virt. eigenvalues --    3.81203   3.81203   3.88005   3.92729   3.92729
 Alpha virt. eigenvalues --    4.07548   4.07548   4.17308   4.22578   4.31849
 Alpha virt. eigenvalues --    4.31849   5.01074   5.03430   5.03430   5.08851
 Alpha virt. eigenvalues --    5.08851   5.16015   5.16015   5.37980   5.37980
 Alpha virt. eigenvalues --    5.47671   5.53078   5.53078   5.72283   5.72283
 Alpha virt. eigenvalues --    5.81802   5.81802   5.90580   5.90580   5.91032
 Alpha virt. eigenvalues --    5.99781   5.99781   6.00353   6.00353   6.21323
 Alpha virt. eigenvalues --    6.53525   6.73366   6.73366   6.76586   6.76586
 Alpha virt. eigenvalues --    7.08914   7.08914   7.11395   7.11395   7.17066
 Alpha virt. eigenvalues --    7.17066   7.20131   7.30568   7.30568   7.40146
 Alpha virt. eigenvalues --    7.64163   7.64163   7.90672   7.90672   8.16478
 Alpha virt. eigenvalues --    8.33924   8.33924   8.34613   8.34613   8.39523
 Alpha virt. eigenvalues --    8.39523   8.40689   8.40689   8.41579   8.41579
 Alpha virt. eigenvalues --    8.88395   8.88395   8.93846   9.35226   9.37597
 Alpha virt. eigenvalues --    9.37597   9.45269   9.45269   9.62520   9.62520
 Alpha virt. eigenvalues --    9.65598   9.65598  10.25691  10.25691  10.42670
 Alpha virt. eigenvalues --   10.61424  10.61424  10.85659  12.03501  12.94162
 Alpha virt. eigenvalues --   13.32398  13.32398  13.37484  13.37484  13.70553
 Alpha virt. eigenvalues --   13.70553  13.84270  13.91503  13.91503  14.28414
 Alpha virt. eigenvalues --   14.28414  14.39987  14.39987  14.54988  14.54988
 Alpha virt. eigenvalues --   14.58588  14.58588  14.63175  14.63175  15.27910
 Alpha virt. eigenvalues --   15.58955  15.58955  16.14519  16.14519  16.15830
 Alpha virt. eigenvalues --   16.23574  16.23574  16.44441  16.44441  16.54155
 Alpha virt. eigenvalues --   16.70449  16.70449  16.70637  16.78994  16.78994
 Alpha virt. eigenvalues --   17.21105  17.21105  17.61146  17.61146  17.63094
 Alpha virt. eigenvalues --   17.63094  17.77019  17.77019  17.94453  17.98616
 Alpha virt. eigenvalues --   17.98616  18.02150  18.02150  18.49208  18.49208
 Alpha virt. eigenvalues --   18.72683  18.72683  18.80047  19.38823  19.38823
 Alpha virt. eigenvalues --   20.99548  20.99548  21.14818  22.07459  22.07459
 Alpha virt. eigenvalues --   22.08427  22.08427  22.10022  22.10022  22.22631
 Alpha virt. eigenvalues --   22.22631  22.77411  23.03761  23.10242  23.10242
 Alpha virt. eigenvalues --   25.09591  25.09591  25.52752  27.29032  28.48480
 Alpha virt. eigenvalues --   28.48480  28.65656  28.65656  29.78829  30.81815
 Alpha virt. eigenvalues --   30.81815  37.94031  41.61571  45.85615  50.22769
 Alpha virt. eigenvalues --   50.22769  51.55835  51.55835  51.67833  51.67833
 Alpha virt. eigenvalues --   52.38210  72.36003  76.72619  81.90225  81.90225
 Alpha virt. eigenvalues --  110.75874 110.75874 110.85111 110.85111 111.39104
 Alpha virt. eigenvalues --  120.50114 130.30944 136.57272 136.57272 142.42698
 Alpha virt. eigenvalues --  202.50334 229.22313 235.69227 235.69227 281.89583
 Alpha virt. eigenvalues --  281.89583 281.96511 281.96511 282.38807 349.05310
 Alpha virt. eigenvalues --  416.89290 423.11841 423.11841 617.74918 787.03730
 Alpha virt. eigenvalues --  792.84535 792.84535 819.58231 891.03341 891.03341
 Alpha virt. eigenvalues --  891.07827 891.07827 891.358461125.644221552.08867
 Alpha virt. eigenvalues -- 1557.408431557.408432113.711143227.945323232.75343
 Alpha virt. eigenvalues -- 3232.753434087.181557197.910587202.177027202.17702
 Alpha virt. eigenvalues -- 8135.06323****************************************
 Alpha virt. eigenvalues -- **************************************************
 Alpha virt. eigenvalues -- **************************************************
 Alpha virt. eigenvalues -- **************************************************
     Molecular Orbital Coefficients:
                           2         3         4         5         6
                           O         O         O         O         O
     Eigenvalues --    -1.65904  -1.55706  -1.55706  -0.47498  -0.21302
   1 1   Sc 1S         -0.00000   0.00000   0.00000  -0.00000  -0.00000
   2        2S          0.00000   0.00000   0.00000   0.00000   0.00000
   3        3S         -0.00000   0.00000   0.00000  -0.00000  -0.00000
   4        4S          0.00000   0.00000   0.00000   0.00000   0.00000
   5        5S         -0.00000   0.00000   0.00000  -0.00000  -0.00000
   6        6S          0.00000   0.00000   0.00000   0.00000   0.00000
   7        7S         -0.00000   0.00000   0.00000  -0.00000  -0.00000
   8        8S          0.00000   0.00000   0.00000   0.00000   0.00000
   9        9S         -0.00000   0.00000   0.00000  -0.00000  -0.00000
  10       10S          0.00000   0.00000   0.00000   0.00000   0.00000
  11       11S         -0.00000   0.00000   0.00000  -0.00000  -0.00000
  12       12S          0.00000   0.00000   0.00000   0.00001   0.00000
  13       13S         -0.00000   0.00000   0.00000  -0.00002  -0.00001
  14       14S          0.00001   0.00000   0.00000   0.00005   0.00003
  15       15S         -0.00001   0.00000   0.00000  -0.00012  -0.00008
  16       16S         -0.00001   0.00000   0.00000   0.00032   0.00025
  17       17S          0.00025   0.00000   0.00000  -0.00105  -0.00103
  18       18S         -0.00267   0.00000   0.00000   0.00572   0.00707
  19       19S          0.01848   0.00000   0.00000  -0.03395  -0.04555
  20       20S         -0.01782   0.00000   0.00000   0.05524   0.06717
  21       21S          0.00958   0.00000   0.00000  -0.00029  -0.00767
  22       22S          0.02134   0.00000   0.00000  -0.01799  -0.03070
  23       23S          0.07364   0.00000   0.00000  -0.08127  -0.15287
  24       24S          0.04206   0.00000   0.00000  -0.16108  -0.24336
  25       25S          0.06747   0.00000   0.00000  -0.04055  -0.09933
  26       26S          0.07844   0.00000   0.00000   0.01316   0.29882
  27       27S          0.03068   0.00000   0.00000  -0.00247   0.53693
  28       28S         -0.04131   0.00000   0.00000   0.00423   0.28282
  29       29S         -0.05187   0.00000   0.00000   0.04505   0.07997
  30       30S         -0.00338   0.00000   0.00000  -0.05301  -0.04358
  31       31S         -0.00113   0.00000   0.00000  -0.00100   0.00401
  32       32PX         0.00000   0.00000   0.00000   0.00000   0.00000
  33       32PY         0.00000   0.00000   0.00000   0.00000   0.00000
  34       32PZ        -0.00000   0.00000   0.00000  -0.00000   0.00000
  35       33PX         0.00000   0.00000  -0.00000   0.00000   0.00000
  36       33PY         0.00000  -0.00000   0.00000   0.00000   0.00000
  37       33PZ         0.00000   0.00000   0.00000   0.00000  -0.00000
  38       34PX         0.00000   0.00000   0.00000   0.00000   0.00000
  39       34PY         0.00000   0.00000   0.00000   0.00000   0.00000
  40       34PZ        -0.00000   0.00000   0.00000  -0.00000   0.00000
  41       35PX         0.00000   0.00000  -0.00000   0.00000   0.00000
  42       35PY         0.00000  -0.00000   0.00000   0.00000   0.00000
  43       35PZ         0.00000   0.00000   0.00000   0.00000  -0.00000
  44       36PX         0.00000   0.00000   0.00000   0.00000   0.00000
  45       36PY         0.00000   0.00000   0.00000   0.00000   0.00000
  46       36PZ        -0.00000   0.00000   0.00000  -0.00000   0.00000
  47       37PX         0.00000   0.00000  -0.00001   0.00000   0.00000
  48       37PY         0.00000  -0.00001   0.00000   0.00000   0.00000
  49       37PZ         0.00000   0.00000   0.00000   0.00001  -0.00000
  50       38PX         0.00000   0.00000   0.00002   0.00000   0.00000
  51       38PY         0.00000   0.00002   0.00000   0.00000   0.00000
  52       38PZ        -0.00001   0.00000   0.00000  -0.00002   0.00000
  53       39PX         0.00000   0.00000  -0.00006   0.00000   0.00000
  54       39PY         0.00000  -0.00006   0.00000   0.00000   0.00000
  55       39PZ         0.00002   0.00000   0.00000   0.00005  -0.00001
  56       40PX         0.00000   0.00000   0.00019   0.00000   0.00000
  57       40PY         0.00000   0.00019   0.00000   0.00000   0.00000
  58       40PZ        -0.00003   0.00000   0.00000  -0.00013   0.00003
  59       41PX         0.00000   0.00000  -0.00078   0.00000   0.00000
  60       41PY         0.00000  -0.00078   0.00000   0.00000   0.00000
  61       41PZ        -0.00014   0.00000   0.00000   0.00031  -0.00009
  62       42PX         0.00000   0.00000   0.00575   0.00000   0.00000
  63       42PY         0.00000   0.00575   0.00000   0.00000   0.00000
  64       42PZ         0.00350   0.00000   0.00000   0.00001   0.00035
  65       43PX         0.00000   0.00000  -0.00387   0.00000   0.00000
  66       43PY         0.00000  -0.00387   0.00000   0.00000   0.00000
  67       43PZ         0.00703   0.00000   0.00000   0.00856  -0.00164
  68       44PX         0.00000   0.00000   0.04579   0.00000   0.00000
  69       44PY         0.00000   0.04579   0.00000   0.00000   0.00000
  70       44PZ         0.05965   0.00000   0.00000   0.04041  -0.00222
  71       45PX         0.00000   0.00000   0.23604   0.00000   0.00000
  72       45PY         0.00000   0.23604   0.00000   0.00000   0.00000
  73       45PZ         0.20232   0.00000   0.00000   0.05598   0.00435
  74       46PX         0.00000   0.00000   0.39085   0.00000   0.00000
  75       46PY         0.00000   0.39085   0.00000   0.00000   0.00000
  76       46PZ         0.29188   0.00000   0.00000   0.06881   0.01605
  77       47PX         0.00000   0.00000   0.35825   0.00000   0.00000
  78       47PY         0.00000   0.35825   0.00000   0.00000   0.00000
  79       47PZ         0.34048   0.00000   0.00000   0.14796   0.00579
  80       48PX         0.00000   0.00000   0.13715   0.00000   0.00000
  81       48PY         0.00000   0.13715   0.00000   0.00000   0.00000
  82       48PZ         0.09551   0.00000   0.00000   0.07132  -0.00065
  83       49PX         0.00000   0.00000   0.01283   0.00000   0.00000
  84       49PY         0.00000   0.01283   0.00000   0.00000   0.00000
  85       49PZ        -0.02681   0.00000   0.00000   0.00137   0.00599
  86       50PX         0.00000   0.00000   0.00017   0.00000   0.00000
  87       50PY         0.00000   0.00017   0.00000   0.00000   0.00000
  88       50PZ        -0.01504   0.00000   0.00000  -0.01000   0.01486
  89       51PX         0.00000   0.00000   0.00026   0.00000   0.00000
  90       51PY         0.00000   0.00026   0.00000   0.00000   0.00000
  91       51PZ         0.01176   0.00000   0.00000  -0.00051  -0.02570
  92       52PX         0.00000   0.00000  -0.11574   0.00000   0.00000
  93       52PY         0.00000  -0.11574   0.00000   0.00000   0.00000
  94       52PZ        -0.12894   0.00000   0.00000  -0.05947   0.00187
  95       53PX         0.00000   0.00000  -0.00284   0.00000   0.00000
  96       53PY         0.00000  -0.00284   0.00000   0.00000   0.00000
  97       53PZ         0.07209   0.00000   0.00000   0.06536  -0.00963
  98       54PX         0.00000   0.00000  -0.00004   0.00000   0.00000
  99       54PY         0.00000  -0.00004   0.00000   0.00000   0.00000
 100       54PZ         0.00053   0.00000   0.00000  -0.00011  -0.00178
 101       55D 0       -0.00000   0.00000   0.00000  -0.00000   0.00000
 102       55D+1        0.00000   0.00000   0.00000   0.00000   0.00000
 103       55D-1        0.00000   0.00000   0.00000   0.00000   0.00000
 104       55D+2       -0.00000   0.00000   0.00000   0.00000  -0.00000
 105       55D-2        0.00000   0.00000   0.00000   0.00000   0.00000
 106       56D 0        0.00000   0.00000   0.00000   0.00004  -0.00001
 107       56D+1        0.00000   0.00000  -0.00000   0.00000   0.00000
 108       56D-1        0.00000  -0.00000   0.00000   0.00000   0.00000
 109       56D+2        0.00000   0.00000   0.00000  -0.00000   0.00000
 110       56D-2        0.00000   0.00000   0.00000   0.00000   0.00000
 111       57D 0        0.00000   0.00000   0.00000  -0.00022   0.00008
 112       57D+1        0.00000   0.00000   0.00000   0.00000   0.00000
 113       57D-1        0.00000   0.00000   0.00000   0.00000   0.00000
 114       57D+2       -0.00000   0.00000   0.00000   0.00000  -0.00000
 115       57D-2        0.00000   0.00000   0.00000   0.00000   0.00000
 116       58D 0       -0.00021   0.00000   0.00000   0.00445  -0.00162
 117       58D+1        0.00000   0.00000  -0.00018   0.00000   0.00000
 118       58D-1        0.00000  -0.00018   0.00000   0.00000   0.00000
 119       58D+2        0.00000   0.00000   0.00000  -0.00000   0.00000
 120       58D-2        0.00000   0.00000   0.00000   0.00000   0.00000
 121       59D 0       -0.00442   0.00000   0.00000   0.06366  -0.02353
 122       59D+1        0.00000   0.00000  -0.00320   0.00000   0.00000
 123       59D-1        0.00000  -0.00320   0.00000   0.00000   0.00000
 124       59D+2       -0.00000   0.00000   0.00000   0.00000  -0.00000
 125       59D-2        0.00000   0.00000   0.00000   0.00000   0.00000
 126       60D 0       -0.01786   0.00000   0.00000   0.13555  -0.04943
 127       60D+1        0.00000   0.00000  -0.00895   0.00000   0.00000
 128       60D-1        0.00000  -0.00895   0.00000   0.00000   0.00000
 129       60D+2       -0.00000   0.00000   0.00000   0.00000  -0.00000
 130       60D-2        0.00000   0.00000   0.00000   0.00000   0.00000
 131       61D 0       -0.01936   0.00000   0.00000   0.20543  -0.07556
 132       61D+1        0.00000   0.00000  -0.01266   0.00000   0.00000
 133       61D-1        0.00000  -0.01266   0.00000   0.00000   0.00000
 134       61D+2        0.00000   0.00000   0.00000   0.00000  -0.00000
 135       61D-2        0.00000   0.00000   0.00000   0.00000   0.00000
 136       62D 0       -0.00563   0.00000   0.00000   0.21979  -0.08869
 137       62D+1        0.00000   0.00000  -0.00364   0.00000   0.00000
 138       62D-1        0.00000  -0.00364   0.00000   0.00000   0.00000
 139       62D+2       -0.00000   0.00000   0.00000  -0.00000   0.00000
 140       62D-2        0.00000   0.00000   0.00000   0.00000   0.00000
 141       63D 0        0.00770   0.00000   0.00000   0.15772  -0.08694
 142       63D+1        0.00000   0.00000   0.00049   0.00000   0.00000
 143       63D-1        0.00000   0.00049   0.00000   0.00000   0.00000
 144       63D+2       -0.00000   0.00000   0.00000   0.00000  -0.00000
 145       63D-2        0.00000   0.00000   0.00000   0.00000   0.00000
 146       64D 0        0.00731   0.00000   0.00000   0.05697  -0.06063
 147       64D+1        0.00000   0.00000   0.00036   0.00000   0.00000
 148       64D-1        0.00000   0.00036   0.00000   0.00000   0.00000
 149       64D+2        0.00000   0.00000   0.00000   0.00000   0.00000
 150       64D-2        0.00000   0.00000   0.00000   0.00000   0.00000
 151       65D 0        0.00091   0.00000   0.00000   0.00669  -0.02177
 152       65D+1        0.00000   0.00000   0.00031   0.00000   0.00000
 153       65D-1        0.00000   0.00031   0.00000   0.00000   0.00000
 154       65D+2       -0.00000   0.00000   0.00000   0.00000  -0.00000
 155       65D-2        0.00000   0.00000   0.00000   0.00000   0.00000
 156       66D 0       -0.00162   0.00000   0.00000  -0.00022   0.00213
 157       66D+1        0.00000   0.00000  -0.00007   0.00000   0.00000
 158       66D-1        0.00000  -0.00007   0.00000   0.00000   0.00000
 159       66D+2        0.00000   0.00000   0.00000   0.00000  -0.00000
 160       66D-2        0.00000   0.00000   0.00000   0.00000   0.00000
 161       67D 0        0.00304   0.00000   0.00000   0.02837  -0.01001
 162       67D+1        0.00000   0.00000  -0.00012   0.00000   0.00000
 163       67D-1        0.00000  -0.00012   0.00000   0.00000   0.00000
 164       67D+2        0.00000   0.00000   0.00000  -0.00000   0.00000
 165       67D-2        0.00000   0.00000   0.00000   0.00000   0.00000
 166       68D 0        0.00531   0.00000   0.00000   0.00307  -0.00138
 167       68D+1        0.00000   0.00000   0.00165   0.00000   0.00000
 168       68D-1        0.00000   0.00165   0.00000   0.00000   0.00000
 169       68D+2        0.00000   0.00000   0.00000  -0.00000   0.00000
 170       68D-2        0.00000   0.00000   0.00000   0.00000   0.00000
 171       69D 0        0.00002   0.00000   0.00000   0.00007  -0.00006
 172       69D+1        0.00000   0.00000   0.00002   0.00000   0.00000
 173       69D-1        0.00000   0.00002   0.00000   0.00000   0.00000
 174       69D+2       -0.00000   0.00000   0.00000  -0.00000   0.00000
 175       69D-2        0.00000   0.00000   0.00000   0.00000   0.00000
 176       70F 0        0.00231   0.00000   0.00000  -0.00328   0.00043
 177       70F+1        0.00000   0.00000  -0.00127   0.00000   0.00000
 178       70F-1        0.00000  -0.00127   0.00000   0.00000   0.00000
 179       70F+2        0.00000   0.00000   0.00000   0.00000   0.00000
 180       70F-2        0.00000   0.00000   0.00000   0.00000   0.00000
 181       70F+3        0.00000   0.00000  -0.00000   0.00000   0.00000
 182       70F-3        0.00000  -0.00000   0.00000   0.00000   0.00000
 183       71F 0        0.00595   0.00000   0.00000  -0.01143   0.00217
 184       71F+1        0.00000   0.00000  -0.00276   0.00000   0.00000
 185       71F-1        0.00000  -0.00276   0.00000   0.00000   0.00000
 186       71F+2       -0.00000   0.00000   0.00000  -0.00000   0.00000
 187       71F-2        0.00000   0.00000   0.00000   0.00000   0.00000
 188       71F+3        0.00000   0.00000  -0.00000   0.00000   0.00000
 189       71F-3        0.00000  -0.00000   0.00000   0.00000   0.00000
 190       72F 0        0.00895   0.00000   0.00000  -0.01758   0.00210
 191       72F+1        0.00000   0.00000  -0.00434   0.00000   0.00000
 192       72F-1        0.00000  -0.00434   0.00000   0.00000   0.00000
 193       72F+2        0.00000   0.00000   0.00000  -0.00000  -0.00000
 194       72F-2        0.00000   0.00000   0.00000   0.00000   0.00000
 195       72F+3        0.00000   0.00000   0.00000   0.00000   0.00000
 196       72F-3        0.00000   0.00000   0.00000   0.00000   0.00000
 197       73F 0        0.00340   0.00000   0.00000  -0.00906  -0.00030
 198       73F+1        0.00000   0.00000  -0.00266   0.00000   0.00000
 199       73F-1        0.00000  -0.00266   0.00000   0.00000   0.00000
 200       73F+2        0.00000   0.00000   0.00000  -0.00000   0.00000
 201       73F-2        0.00000   0.00000   0.00000   0.00000   0.00000
 202       73F+3        0.00000   0.00000   0.00000   0.00000   0.00000
 203       73F-3        0.00000   0.00000   0.00000   0.00000   0.00000
 204       74F 0       -0.00035   0.00000   0.00000  -0.00232  -0.00134
 205       74F+1        0.00000   0.00000  -0.00044   0.00000   0.00000
 206       74F-1        0.00000  -0.00044   0.00000   0.00000   0.00000
 207       74F+2       -0.00000   0.00000   0.00000   0.00000   0.00000
 208       74F-2        0.00000   0.00000   0.00000   0.00000   0.00000
 209       74F+3        0.00000   0.00000  -0.00000   0.00000   0.00000
 210       74F-3        0.00000  -0.00000   0.00000   0.00000   0.00000
 211       75F 0        0.00022   0.00000   0.00000  -0.00004  -0.00077
 212       75F+1        0.00000   0.00000   0.00001   0.00000   0.00000
 213       75F-1        0.00000   0.00001   0.00000   0.00000   0.00000
 214       75F+2        0.00000   0.00000   0.00000   0.00000  -0.00000
 215       75F-2        0.00000   0.00000   0.00000   0.00000   0.00000
 216       75F+3        0.00000   0.00000  -0.00000   0.00000   0.00000
 217       75F-3        0.00000  -0.00000   0.00000   0.00000   0.00000
 218       76G 0       -0.00067   0.00000   0.00000   0.00035   0.00001
 219       76G+1        0.00000   0.00000  -0.00020   0.00000   0.00000
 220       76G-1        0.00000  -0.00020   0.00000   0.00000   0.00000
 221       76G+2       -0.00000   0.00000   0.00000  -0.00000  -0.00000
 222       76G-2        0.00000   0.00000   0.00000   0.00000   0.00000
 223       76G+3        0.00000   0.00000   0.00000   0.00000   0.00000
 224       76G-3        0.00000   0.00000   0.00000   0.00000   0.00000
 225       76G+4        0.00000   0.00000   0.00000  -0.00000  -0.00000
 226       76G-4        0.00000   0.00000   0.00000   0.00000   0.00000
 227       77G 0       -0.00187   0.00000   0.00000   0.00149   0.00006
 228       77G+1        0.00000   0.00000  -0.00064   0.00000   0.00000
 229       77G-1        0.00000  -0.00064   0.00000   0.00000   0.00000
 230       77G+2       -0.00000   0.00000   0.00000   0.00000   0.00000
 231       77G-2        0.00000   0.00000   0.00000   0.00000   0.00000
 232       77G+3        0.00000   0.00000   0.00000   0.00000   0.00000
 233       77G-3        0.00000   0.00000   0.00000   0.00000   0.00000
 234       77G+4       -0.00000   0.00000   0.00000   0.00000  -0.00000
 235       77G-4        0.00000   0.00000   0.00000   0.00000   0.00000
 236       78G 0       -0.00121   0.00000   0.00000   0.00194   0.00020
 237       78G+1        0.00000   0.00000   0.00033   0.00000   0.00000
 238       78G-1        0.00000   0.00033   0.00000   0.00000   0.00000
 239       78G+2       -0.00000   0.00000   0.00000   0.00000   0.00000
 240       78G-2        0.00000   0.00000   0.00000   0.00000   0.00000
 241       78G+3        0.00000   0.00000  -0.00000   0.00000   0.00000
 242       78G-3        0.00000   0.00000   0.00000   0.00000   0.00000
 243       78G+4        0.00000   0.00000   0.00000  -0.00000   0.00000
 244       78G-4        0.00000   0.00000   0.00000   0.00000   0.00000
 245       79G 0       -0.00078   0.00000   0.00000  -0.00047  -0.00026
 246       79G+1        0.00000   0.00000   0.00010   0.00000   0.00000
 247       79G-1        0.00000   0.00010   0.00000   0.00000   0.00000
 248       79G+2       -0.00000   0.00000   0.00000   0.00000  -0.00000
 249       79G-2        0.00000   0.00000   0.00000   0.00000   0.00000
 250       79G+3        0.00000   0.00000   0.00000   0.00000   0.00000
 251       79G-3        0.00000   0.00000   0.00000   0.00000   0.00000
 252       79G+4       -0.00000   0.00000   0.00000   0.00000   0.00000
 253       79G-4        0.00000   0.00000   0.00000   0.00000   0.00000
 254       80G 0       -0.00007   0.00000   0.00000   0.00008   0.00010
 255       80G+1        0.00000   0.00000   0.00001   0.00000   0.00000
 256       80G-1        0.00000   0.00001   0.00000   0.00000   0.00000
 257       80G+2        0.00000   0.00000   0.00000  -0.00000  -0.00000
 258       80G-2        0.00000   0.00000   0.00000   0.00000   0.00000
 259       80G+3        0.00000   0.00000  -0.00000   0.00000   0.00000
 260       80G-3        0.00000  -0.00000   0.00000   0.00000   0.00000
 261       80G+4        0.00000   0.00000   0.00000   0.00000   0.00000
 262       80G-4        0.00000   0.00000   0.00000   0.00000   0.00000
 263       81H 0        0.00002   0.00000   0.00000  -0.00064   0.00017
 264       81H+1        0.00000   0.00000  -0.00010   0.00000   0.00000
 265       81H-1        0.00000  -0.00010   0.00000   0.00000   0.00000
 266       81H+2       -0.00000   0.00000   0.00000   0.00000   0.00000
 267       81H-2        0.00000   0.00000   0.00000   0.00000   0.00000
 268       81H+3        0.00000   0.00000   0.00000   0.00000   0.00000
 269       81H-3        0.00000  -0.00000   0.00000   0.00000   0.00000
 270       81H+4        0.00000   0.00000   0.00000   0.00000   0.00000
 271       81H-4        0.00000   0.00000   0.00000   0.00000   0.00000
 272       81H+5        0.00000   0.00000   0.00000   0.00000   0.00000
 273       81H-5        0.00000  -0.00000   0.00000   0.00000   0.00000
 274       82H 0        0.00013   0.00000   0.00000  -0.00112   0.00030
 275       82H+1        0.00000   0.00000  -0.00002   0.00000   0.00000
 276       82H-1        0.00000  -0.00002   0.00000   0.00000   0.00000
 277       82H+2        0.00000   0.00000   0.00000  -0.00000  -0.00000
 278       82H-2        0.00000   0.00000   0.00000   0.00000   0.00000
 279       82H+3        0.00000   0.00000   0.00000   0.00000   0.00000
 280       82H-3        0.00000   0.00000   0.00000   0.00000   0.00000
 281       82H+4       -0.00000   0.00000   0.00000   0.00000  -0.00000
 282       82H-4        0.00000   0.00000   0.00000   0.00000   0.00000
 283       82H+5        0.00000   0.00000  -0.00000   0.00000   0.00000
 284       82H-5        0.00000   0.00000   0.00000   0.00000   0.00000
 285       83H 0        0.00031   0.00000   0.00000   0.00014   0.00001
 286       83H+1        0.00000   0.00000   0.00018   0.00000   0.00000
 287       83H-1        0.00000   0.00018   0.00000   0.00000   0.00000
 288       83H+2        0.00000   0.00000   0.00000  -0.00000  -0.00000
 289       83H-2        0.00000   0.00000   0.00000   0.00000   0.00000
 290       83H+3        0.00000   0.00000  -0.00000   0.00000   0.00000
 291       83H-3        0.00000  -0.00000   0.00000   0.00000   0.00000
 292       83H+4       -0.00000   0.00000   0.00000   0.00000  -0.00000
 293       83H-4        0.00000   0.00000   0.00000   0.00000   0.00000
 294       83H+5        0.00000   0.00000  -0.00000   0.00000   0.00000
 295       83H-5        0.00000   0.00000   0.00000   0.00000   0.00000
 296       84H 0        0.00024   0.00000   0.00000   0.00041  -0.00012
 297       84H+1        0.00000   0.00000  -0.00001   0.00000   0.00000
 298       84H-1        0.00000  -0.00001   0.00000   0.00000   0.00000
 299       84H+2       -0.00000   0.00000   0.00000   0.00000   0.00000
 300       84H-2        0.00000   0.00000   0.00000   0.00000   0.00000
 301       84H+3        0.00000   0.00000   0.00000   0.00000   0.00000
 302       84H-3        0.00000  -0.00000   0.00000   0.00000   0.00000
 303       84H+4        0.00000   0.00000   0.00000  -0.00000   0.00000
 304       84H-4        0.00000   0.00000   0.00000   0.00000   0.00000
 305       84H+5        0.00000   0.00000   0.00000   0.00000   0.00000
 306       84H-5        0.00000  -0.00000   0.00000   0.00000   0.00000
 307       85I 0       -0.00007   0.00000   0.00000  -0.00007   0.00004
 308       85I+1        0.00000   0.00000  -0.00001   0.00000   0.00000
 309       85I-1        0.00000  -0.00001   0.00000   0.00000   0.00000
 310       85I+2       -0.00000   0.00000   0.00000  -0.00000  -0.00000
 311       85I-2        0.00000   0.00000   0.00000   0.00000   0.00000
 312       85I+3        0.00000   0.00000   0.00000   0.00000   0.00000
 313       85I-3        0.00000   0.00000   0.00000   0.00000   0.00000
 314       85I+4       -0.00000   0.00000   0.00000  -0.00000   0.00000
 315       85I-4        0.00000   0.00000   0.00000   0.00000   0.00000
 316       85I+5        0.00000   0.00000  -0.00000   0.00000   0.00000
 317       85I-5        0.00000  -0.00000   0.00000   0.00000   0.00000
 318       85I+6        0.00000   0.00000   0.00000  -0.00000   0.00000
 319       85I-6        0.00000   0.00000   0.00000   0.00000   0.00000
 320       86I 0       -0.00004   0.00000   0.00000  -0.00036   0.00016
 321       86I+1        0.00000   0.00000  -0.00003   0.00000   0.00000
 322       86I-1        0.00000  -0.00003   0.00000   0.00000   0.00000
 323       86I+2        0.00000   0.00000   0.00000   0.00000   0.00000
 324       86I-2        0.00000   0.00000   0.00000   0.00000   0.00000
 325       86I+3        0.00000   0.00000  -0.00000   0.00000   0.00000
 326       86I-3        0.00000   0.00000   0.00000   0.00000   0.00000
 327       86I+4        0.00000   0.00000   0.00000  -0.00000  -0.00000
 328       86I-4        0.00000   0.00000   0.00000   0.00000   0.00000
 329       86I+5        0.00000   0.00000   0.00000   0.00000   0.00000
 330       86I-5        0.00000   0.00000   0.00000   0.00000   0.00000
 331       86I+6       -0.00000   0.00000   0.00000   0.00000  -0.00000
 332       86I-6        0.00000   0.00000   0.00000   0.00000   0.00000
 333       87I 0        0.00006   0.00000   0.00000  -0.00040   0.00024
 334       87I+1        0.00000   0.00000  -0.00007   0.00000   0.00000
 335       87I-1        0.00000  -0.00007   0.00000   0.00000   0.00000
 336       87I+2       -0.00000   0.00000   0.00000  -0.00000   0.00000
 337       87I-2        0.00000   0.00000   0.00000   0.00000   0.00000
 338       87I+3        0.00000   0.00000  -0.00000   0.00000   0.00000
 339       87I-3        0.00000  -0.00000   0.00000   0.00000   0.00000
 340       87I+4       -0.00000   0.00000   0.00000   0.00000   0.00000
 341       87I-4        0.00000   0.00000   0.00000   0.00000   0.00000
 342       87I+5        0.00000   0.00000   0.00000   0.00000   0.00000
 343       87I-5        0.00000   0.00000   0.00000   0.00000   0.00000
 344       87I+6        0.00000   0.00000   0.00000  -0.00000   0.00000
 345       87I-6        0.00000   0.00000   0.00000   0.00000   0.00000
 346 2   H  1S          0.00001   0.00000   0.00000  -0.00003   0.00000
 347        2S         -0.00033   0.00000   0.00000   0.00058  -0.00003
 348        3S         -0.00633   0.00000   0.00000   0.01166  -0.00039
 349        4S         -0.02169   0.00000   0.00000   0.04128  -0.00183
 350        5S         -0.06260   0.00000   0.00000   0.13156  -0.00623
 351        6S         -0.07955   0.00000   0.00000   0.24974   0.01407
 352        7S         -0.08938   0.00000   0.00000   0.20022   0.05517
 353        8S         -0.06313   0.00000   0.00000   0.09448   0.07928
 354        9S          0.03665   0.00000   0.00000   0.00079  -0.08776
 355       10PX         0.00000   0.00000   0.00077   0.00000   0.00000
 356       10PY         0.00000   0.00077   0.00000   0.00000   0.00000
 357       10PZ        -0.00267   0.00000   0.00000   0.00093  -0.00143
 358       11PX         0.00000   0.00000   0.00266   0.00000   0.00000
 359       11PY         0.00000   0.00266   0.00000   0.00000   0.00000
 360       11PZ        -0.00958   0.00000   0.00000   0.00609  -0.00436
 361       12PX         0.00000   0.00000   0.00488   0.00000   0.00000
 362       12PY         0.00000   0.00488   0.00000   0.00000   0.00000
 363       12PZ        -0.01633   0.00000   0.00000   0.01115  -0.00530
 364       13PX         0.00000   0.00000   0.00236   0.00000   0.00000
 365       13PY         0.00000   0.00236   0.00000   0.00000   0.00000
 366       13PZ        -0.01971   0.00000   0.00000  -0.00671  -0.00095
 367       14PX         0.00000   0.00000   0.00124   0.00000   0.00000
 368       14PY         0.00000   0.00124   0.00000   0.00000   0.00000
 369       14PZ        -0.00937   0.00000   0.00000   0.00959   0.00782
 370       15D 0       -0.00137   0.00000   0.00000   0.00080  -0.00074
 371       15D+1        0.00000   0.00000   0.00065   0.00000   0.00000
 372       15D-1        0.00000   0.00065   0.00000   0.00000   0.00000
 373       15D+2       -0.00000   0.00000   0.00000   0.00000   0.00000
 374       15D-2        0.00000   0.00000   0.00000   0.00000   0.00000
 375       16D 0       -0.00281   0.00000   0.00000   0.00104  -0.00067
 376       16D+1        0.00000   0.00000   0.00134   0.00000   0.00000
 377       16D-1        0.00000   0.00134   0.00000   0.00000   0.00000
 378       16D+2        0.00000   0.00000   0.00000  -0.00000  -0.00000
 379       16D-2        0.00000   0.00000   0.00000   0.00000   0.00000
 380       17D 0       -0.00306   0.00000   0.00000   0.00040  -0.00094
 381       17D+1        0.00000   0.00000   0.00170   0.00000   0.00000
 382       17D-1        0.00000   0.00170   0.00000   0.00000   0.00000
 383       17D+2        0.00000   0.00000   0.00000  -0.00000   0.00000
 384       17D-2        0.00000   0.00000   0.00000   0.00000   0.00000
 385       18D 0        0.00238   0.00000   0.00000   0.00522  -0.00084
 386       18D+1        0.00000   0.00000   0.00040   0.00000   0.00000
 387       18D-1        0.00000   0.00040   0.00000   0.00000   0.00000
 388       18D+2       -0.00000   0.00000   0.00000  -0.00000   0.00000
 389       18D-2        0.00000   0.00000   0.00000   0.00000   0.00000
 390       19F 0       -0.00047   0.00000   0.00000   0.00040  -0.00018
 391       19F+1        0.00000   0.00000   0.00032   0.00000   0.00000
 392       19F-1        0.00000   0.00032   0.00000   0.00000   0.00000
 393       19F+2        0.00000   0.00000   0.00000   0.00000  -0.00000
 394       19F-2        0.00000   0.00000   0.00000   0.00000   0.00000
 395       19F+3        0.00000   0.00000   0.00000   0.00000   0.00000
 396       19F-3        0.00000  -0.00000   0.00000   0.00000   0.00000
 397       20F 0       -0.00084   0.00000   0.00000   0.00012  -0.00001
 398       20F+1        0.00000   0.00000   0.00040   0.00000   0.00000
 399       20F-1        0.00000   0.00040   0.00000   0.00000   0.00000
 400       20F+2        0.00000   0.00000   0.00000  -0.00000  -0.00000
 401       20F-2        0.00000   0.00000   0.00000   0.00000   0.00000
 402       20F+3        0.00000   0.00000   0.00000   0.00000   0.00000
 403       20F-3        0.00000  -0.00000   0.00000   0.00000   0.00000
 404       21F 0        0.00082   0.00000   0.00000   0.00212  -0.00027
 405       21F+1        0.00000   0.00000   0.00016   0.00000   0.00000
 406       21F-1        0.00000   0.00016   0.00000   0.00000   0.00000
 407       21F+2        0.00000   0.00000   0.00000  -0.00000   0.00000
 408       21F-2        0.00000   0.00000   0.00000   0.00000   0.00000
 409       21F+3        0.00000   0.00000   0.00000   0.00000   0.00000
 410       21F-3        0.00000   0.00000   0.00000   0.00000   0.00000
[...]
 208       74F-2       -0.00000  -0.00000  -0.00000   0.00000
 209       74F+3        0.00000   0.00000   0.00000   0.00000
 210       74F-3        0.00000   0.00000   0.00000   0.00000
 211       75F 0        0.00001   0.00000   0.00000   0.00000
 212       75F+1       -0.00000  -0.00000  -0.00000   0.00000
 213       75F-1       -0.00000  -0.00000  -0.00000   0.00000
 214       75F+2        0.00000   0.00000   0.00000   0.00000
 215       75F-2        0.00000   0.00000   0.00000   0.00000
 216       75F+3        0.00000   0.00000   0.00000   0.00000
 217       75F-3        0.00000   0.00000   0.00000   0.00000
 218       76G 0        0.00002   0.00001   0.00001   0.00000
 219       76G+1        0.00000   0.00000   0.00000   0.00000
 220       76G-1        0.00000   0.00000   0.00000   0.00000
 221       76G+2        0.00000   0.00000   0.00000   0.00000
 222       76G-2        0.00000   0.00000   0.00000   0.00000
 223       76G+3       -0.00000  -0.00000  -0.00000   0.00000
 224       76G-3        0.00000   0.00000   0.00000   0.00000
 225       76G+4        0.00000   0.00000   0.00000   0.00000
 226       76G-4        0.00000   0.00000   0.00000   0.00000
 227       77G 0        0.00027   0.00014   0.00014   0.00000
 228       77G+1        0.00000   0.00000   0.00000   0.00000
 229       77G-1        0.00000   0.00000   0.00000   0.00000
 230       77G+2        0.00000   0.00000   0.00000   0.00000
 231       77G-2        0.00000   0.00000   0.00000   0.00000
 232       77G+3        0.00000   0.00000   0.00000   0.00000
 233       77G-3       -0.00000  -0.00000  -0.00000   0.00000
 234       77G+4        0.00000   0.00000   0.00000   0.00000
 235       77G-4        0.00000   0.00000   0.00000   0.00000
 236       78G 0        0.00045   0.00023   0.00023   0.00000
 237       78G+1       -0.00000  -0.00000  -0.00000   0.00000
 238       78G-1       -0.00000  -0.00000  -0.00000   0.00000
 239       78G+2        0.00000   0.00000   0.00000   0.00000
 240       78G-2        0.00000   0.00000   0.00000   0.00000
 241       78G+3        0.00000   0.00000   0.00000   0.00000
 242       78G-3        0.00000   0.00000   0.00000   0.00000
 243       78G+4       -0.00000  -0.00000  -0.00000   0.00000
 244       78G-4       -0.00000  -0.00000  -0.00000   0.00000
 245       79G 0       -0.00002  -0.00001  -0.00001   0.00000
 246       79G+1       -0.00000  -0.00000  -0.00000   0.00000
 247       79G-1       -0.00000  -0.00000  -0.00000   0.00000
 248       79G+2        0.00000   0.00000   0.00000   0.00000
 249       79G-2        0.00000   0.00000   0.00000   0.00000
 250       79G+3       -0.00000  -0.00000  -0.00000   0.00000
 251       79G-3        0.00000   0.00000   0.00000   0.00000
 252       79G+4       -0.00000  -0.00000  -0.00000   0.00000
 253       79G-4       -0.00000  -0.00000  -0.00000   0.00000
 254       80G 0        0.00000   0.00000   0.00000   0.00000
 255       80G+1       -0.00000  -0.00000  -0.00000   0.00000
 256       80G-1       -0.00000  -0.00000  -0.00000   0.00000
 257       80G+2        0.00000   0.00000   0.00000   0.00000
 258       80G-2        0.00000   0.00000   0.00000   0.00000
 259       80G+3        0.00000   0.00000   0.00000   0.00000
 260       80G-3        0.00000   0.00000   0.00000   0.00000
 261       80G+4        0.00000   0.00000   0.00000   0.00000
 262       80G-4        0.00000   0.00000   0.00000   0.00000
 263       81H 0        0.00001   0.00001   0.00001   0.00000
 264       81H+1       -0.00000  -0.00000  -0.00000   0.00000
 265       81H-1       -0.00000  -0.00000  -0.00000   0.00000
 266       81H+2        0.00000   0.00000   0.00000   0.00000
 267       81H-2        0.00000   0.00000   0.00000   0.00000
 268       81H+3        0.00000   0.00000   0.00000   0.00000
 269       81H-3        0.00000   0.00000   0.00000   0.00000
 270       81H+4       -0.00000  -0.00000  -0.00000   0.00000
 271       81H-4        0.00000   0.00000   0.00000   0.00000
 272       81H+5        0.00000   0.00000   0.00000   0.00000
 273       81H-5        0.00000   0.00000   0.00000   0.00000
 274       82H 0        0.00011   0.00005   0.00005   0.00000
 275       82H+1       -0.00000  -0.00000  -0.00000   0.00000
 276       82H-1       -0.00000  -0.00000  -0.00000   0.00000
 277       82H+2        0.00000   0.00000   0.00000   0.00000
 278       82H-2        0.00000   0.00000   0.00000   0.00000
 279       82H+3        0.00000   0.00000   0.00000   0.00000
 280       82H-3       -0.00000  -0.00000  -0.00000   0.00000
 281       82H+4        0.00000   0.00000   0.00000   0.00000
 282       82H-4        0.00000   0.00000   0.00000   0.00000
 283       82H+5       -0.00000  -0.00000  -0.00000   0.00000
 284       82H-5       -0.00000  -0.00000  -0.00000   0.00000
 285       83H 0       -0.00000  -0.00000  -0.00000   0.00000
 286       83H+1        0.00000   0.00000   0.00000   0.00000
 287       83H-1        0.00000   0.00000   0.00000   0.00000
 288       83H+2        0.00000   0.00000   0.00000   0.00000
 289       83H-2        0.00000   0.00000   0.00000   0.00000
 290       83H+3        0.00000   0.00000   0.00000   0.00000
 291       83H-3        0.00000   0.00000   0.00000   0.00000
 292       83H+4        0.00000   0.00000   0.00000   0.00000
 293       83H-4        0.00000   0.00000   0.00000   0.00000
 294       83H+5        0.00000   0.00000   0.00000   0.00000
 295       83H-5       -0.00000  -0.00000  -0.00000   0.00000
 296       84H 0       -0.00000  -0.00000  -0.00000   0.00000
 297       84H+1       -0.00000  -0.00000  -0.00000   0.00000
 298       84H-1       -0.00000  -0.00000  -0.00000   0.00000
 299       84H+2       -0.00000  -0.00000  -0.00000   0.00000
 300       84H-2       -0.00000  -0.00000  -0.00000   0.00000
 301       84H+3        0.00000   0.00000   0.00000   0.00000
 302       84H-3        0.00000   0.00000   0.00000   0.00000
 303       84H+4       -0.00000  -0.00000  -0.00000   0.00000
 304       84H-4       -0.00000  -0.00000  -0.00000   0.00000
 305       84H+5        0.00000   0.00000   0.00000   0.00000
 306       84H-5        0.00000   0.00000   0.00000   0.00000
 307       85I 0       -0.00000  -0.00000  -0.00000   0.00000
 308       85I+1        0.00000   0.00000   0.00000   0.00000
 309       85I-1        0.00000   0.00000   0.00000   0.00000
 310       85I+2        0.00000   0.00000   0.00000   0.00000
 311       85I-2        0.00000   0.00000   0.00000   0.00000
 312       85I+3       -0.00000  -0.00000  -0.00000   0.00000
 313       85I-3        0.00000   0.00000   0.00000   0.00000
 314       85I+4        0.00000   0.00000   0.00000   0.00000
 315       85I-4        0.00000   0.00000   0.00000   0.00000
 316       85I+5       -0.00000  -0.00000  -0.00000   0.00000
 317       85I-5        0.00000   0.00000   0.00000   0.00000
 318       85I+6        0.00000   0.00000   0.00000   0.00000
 319       85I-6        0.00000   0.00000   0.00000   0.00000
 320       86I 0       -0.00002  -0.00001  -0.00001   0.00000
 321       86I+1        0.00000   0.00000   0.00000   0.00000
 322       86I-1        0.00000   0.00000   0.00000   0.00000
 323       86I+2       -0.00000  -0.00000  -0.00000   0.00000
 324       86I-2       -0.00000  -0.00000  -0.00000   0.00000
 325       86I+3        0.00000   0.00000   0.00000   0.00000
 326       86I-3        0.00000   0.00000   0.00000   0.00000
 327       86I+4        0.00000   0.00000   0.00000   0.00000
 328       86I-4        0.00000   0.00000   0.00000   0.00000
 329       86I+5        0.00000   0.00000   0.00000   0.00000
 330       86I-5        0.00000   0.00000   0.00000   0.00000
 331       86I+6       -0.00000  -0.00000  -0.00000   0.00000
 332       86I-6       -0.00000  -0.00000  -0.00000   0.00000
 333       87I 0       -0.00002  -0.00001  -0.00001   0.00000
 334       87I+1        0.00000   0.00000   0.00000   0.00000
 335       87I-1        0.00000   0.00000   0.00000   0.00000
 336       87I+2        0.00000   0.00000   0.00000   0.00000
 337       87I-2        0.00000   0.00000   0.00000   0.00000
 338       87I+3        0.00000   0.00000   0.00000   0.00000
 339       87I-3        0.00000   0.00000   0.00000   0.00000
 340       87I+4        0.00000   0.00000   0.00000   0.00000
 341       87I-4        0.00000   0.00000   0.00000   0.00000
 342       87I+5        0.00000   0.00000   0.00000   0.00000
 343       87I-5       -0.00000  -0.00000  -0.00000   0.00000
 344       87I+6       -0.00000  -0.00000  -0.00000   0.00000
 345       87I-6       -0.00000  -0.00000  -0.00000   0.00000
 346 2   H  1S         -0.00000  -0.00000  -0.00000   0.00000
 347        2S          0.00014   0.00007   0.00007   0.00000
 348        3S          0.00704   0.00352   0.00352   0.00000
 349        4S          0.04963   0.02481   0.02481   0.00000
 350        5S          0.23068   0.11534   0.11534   0.00000
 351        6S          0.39884   0.19942   0.19942   0.00000
 352        7S          0.33491   0.16746   0.16746   0.00000
 353        8S          0.21957   0.10978   0.10978   0.00000
 354        9S         -0.14547  -0.07273  -0.07273   0.00000
 355       10PX         0.00007   0.00003   0.00003   0.00000
 356       10PY         0.00007   0.00003   0.00003   0.00000
 357       10PZ         0.00112   0.00056   0.00056   0.00000
 358       11PX         0.00069   0.00035   0.00035   0.00000
 359       11PY         0.00069   0.00035   0.00035   0.00000
 360       11PZ         0.00873   0.00437   0.00437   0.00000
 361       12PX         0.00294   0.00147   0.00147   0.00000
 362       12PY         0.00294   0.00147   0.00147   0.00000
 363       12PZ         0.01551   0.00776   0.00776   0.00000
 364       13PX         0.00185   0.00092   0.00092   0.00000
 365       13PY         0.00185   0.00092   0.00092   0.00000
 366       13PZ         0.02169   0.01085   0.01085   0.00000
 367       14PX         0.00059   0.00030   0.00030   0.00000
 368       14PY         0.00059   0.00030   0.00030   0.00000
 369       14PZ        -0.00125  -0.00063  -0.00063   0.00000
 370       15D 0        0.00056   0.00028   0.00028   0.00000
 371       15D+1        0.00011   0.00005   0.00005   0.00000
 372       15D-1        0.00011   0.00005   0.00005   0.00000
 373       15D+2       -0.00000  -0.00000  -0.00000   0.00000
 374       15D-2       -0.00000  -0.00000  -0.00000   0.00000
 375       16D 0        0.00168   0.00084   0.00084   0.00000
 376       16D+1        0.00073   0.00036   0.00036   0.00000
 377       16D-1        0.00073   0.00036   0.00036   0.00000
 378       16D+2        0.00000   0.00000   0.00000   0.00000
 379       16D-2        0.00000   0.00000   0.00000   0.00000
 380       17D 0        0.00138   0.00069   0.00069   0.00000
 381       17D+1        0.00174   0.00087   0.00087   0.00000
 382       17D-1        0.00174   0.00087   0.00087   0.00000
 383       17D+2       -0.00000  -0.00000  -0.00000   0.00000
 384       17D-2       -0.00000  -0.00000  -0.00000   0.00000
 385       18D 0        0.00090   0.00045   0.00045   0.00000
 386       18D+1        0.00032   0.00016   0.00016   0.00000
 387       18D-1        0.00032   0.00016   0.00016   0.00000
 388       18D+2       -0.00000  -0.00000  -0.00000   0.00000
 389       18D-2       -0.00000  -0.00000  -0.00000   0.00000
 390       19F 0        0.00013   0.00006   0.00006   0.00000
 391       19F+1        0.00006   0.00003   0.00003   0.00000
 392       19F-1        0.00006   0.00003   0.00003   0.00000
 393       19F+2        0.00000   0.00000   0.00000   0.00000
 394       19F-2        0.00000   0.00000   0.00000   0.00000
 395       19F+3        0.00000   0.00000   0.00000   0.00000
 396       19F-3       -0.00000  -0.00000  -0.00000   0.00000
 397       20F 0       -0.00001  -0.00000  -0.00000   0.00000
 398       20F+1        0.00031   0.00016   0.00016   0.00000
 399       20F-1        0.00031   0.00016   0.00016   0.00000
 400       20F+2        0.00000   0.00000   0.00000   0.00000
 401       20F-2        0.00000   0.00000   0.00000   0.00000
 402       20F+3       -0.00000  -0.00000  -0.00000   0.00000
 403       20F-3        0.00000   0.00000   0.00000   0.00000
 404       21F 0        0.00096   0.00048   0.00048   0.00000
 405       21F+1        0.00014   0.00007   0.00007   0.00000
 406       21F-1        0.00014   0.00007   0.00007   0.00000
 407       21F+2       -0.00000  -0.00000  -0.00000   0.00000
 408       21F-2       -0.00000  -0.00000  -0.00000   0.00000
 409       21F+3       -0.00000  -0.00000  -0.00000   0.00000
 410       21F-3        0.00000   0.00000   0.00000   0.00000
 411       22G 0        0.00002   0.00001   0.00001   0.00000
 412       22G+1        0.00002   0.00001   0.00001   0.00000
 413       22G-1        0.00002   0.00001   0.00001   0.00000
 414       22G+2        0.00000   0.00000   0.00000   0.00000
 415       22G-2        0.00000   0.00000   0.00000   0.00000
 416       22G+3        0.00000   0.00000   0.00000   0.00000
 417       22G-3        0.00000   0.00000   0.00000   0.00000
 418       22G+4        0.00000   0.00000   0.00000   0.00000
 419       22G-4        0.00000   0.00000   0.00000   0.00000
 420       23G 0       -0.00003  -0.00001  -0.00001   0.00000
 421       23G+1       -0.00001  -0.00001  -0.00001   0.00000
 422       23G-1       -0.00001  -0.00001  -0.00001   0.00000
 423       23G+2       -0.00000  -0.00000  -0.00000   0.00000
 424       23G-2       -0.00000  -0.00000  -0.00000   0.00000
 425       23G+3        0.00000   0.00000   0.00000   0.00000
 426       23G-3        0.00000   0.00000   0.00000   0.00000
 427       23G+4       -0.00000  -0.00000  -0.00000   0.00000
 428       23G-4       -0.00000  -0.00000  -0.00000   0.00000
          Condensed to atoms (all electrons):
               1          2
     1  Sc  10.650560   0.183596
     2  H    0.183596   0.982249
          Atomic-Atomic Spin Densities.
               1          2
     1  Sc   0.000000   0.000000
     2  H    0.000000   0.000000
 Mulliken charges and spin densities:
               1          2
     1  Sc   0.165844   0.000000
     2  H   -0.165844   0.000000
 Sum of Mulliken charges =  -0.00000   0.00000
 Mulliken charges and spin densities with hydrogens summed into heavy atoms:
               1          2
     1  Sc  -0.000000   0.000000
 Electronic spatial extent (au):  <R**2>=             54.6618
 Charge=             -0.0000 electrons
 Dipole moment (field-independent basis, Debye):
    X=              0.0000    Y=              0.0000    Z=              1.2568  Tot=              1.2568
 Quadrupole moment (field-independent basis, Debye-Ang):
   XX=            -23.4882   YY=            -23.4882   ZZ=            -22.0599
   XY=              0.0000   XZ=              0.0000   YZ=              0.0000
 Traceless Quadrupole moment (field-independent basis, Debye-Ang):
   XX=             -0.4761   YY=             -0.4761   ZZ=              0.9522
   XY=              0.0000   XZ=              0.0000   YZ=              0.0000
 Octapole moment (field-independent basis, Debye-Ang**2):
  XXX=              0.0000  YYY=              0.0000  ZZZ=              4.4739  XYY=              0.0000
  XXY=              0.0000  XXZ=              0.6465  XZZ=              0.0000  YZZ=              0.0000
  YYZ=              0.6465  XYZ=              0.0000
 Hexadecapole moment (field-independent basis, Debye-Ang**3):
 XXXX=            -85.6145 YYYY=            -85.6145 ZZZZ=            -73.7053 XXXY=              0.0000
 XXXZ=              0.0000 YYYX=              0.0000 YYYZ=              0.0000 ZZZX=              0.0000
 ZZZY=              0.0000 XXYY=            -28.5382 XXZZ=            -25.6528 YYZZ=            -25.6528
 XXYZ=              0.0000 YYXZ=              0.0000 ZZXY=              0.0000
 N-N= 5.820949320120D+00 E-N=-1.086617024915D+02  KE= 2.024929202061D+01
 Symmetry A1   KE= 1.187514820163D+01
 Symmetry A2   KE= 7.744871682837D-48
 Symmetry B1   KE= 4.187071909134D+00
 Symmetry B2   KE= 4.187071908824D+00
 Symmetry A1   SP= 0.000000000000D+00
 Symmetry A2   SP= 0.000000000000D+00
 Symmetry B1   SP= 0.000000000000D+00
 Symmetry B2   SP= 0.000000000000D+00
 Orbital energies and kinetic energies (alpha):
                                 1                 2
   2         O                -1.659037          1.959815
   3         O                -1.557056          2.093536
   4         O                -1.557056          2.093536
   5         O                -0.474982          2.214991
   6         O                -0.213018          0.431482
   7         V                 0.011864          0.063643
   8         V                 0.013318          0.046444
   9         V                 0.013318          0.046444
  10         V                 0.017135          0.025560
  11         V                 0.026059          0.027185
 Total kinetic energy from orbitals= 2.024929202061D+01
                          Isotropic Fermi Contact Couplings
        Atom                 a.u.       MegaHertz       Gauss      10(-4) cm-1
     1  Sc(45)             0.00000       0.00000       0.00000       0.00000
     2  H(1)               0.00000       0.00000       0.00000       0.00000
 --------------------------------------------------------
       Center         ----  Spin Dipole Couplings  ----
                      3XX-RR        3YY-RR        3ZZ-RR
 --------------------------------------------------------
     1   Atom        0.000000      0.000000      0.000000
     2   Atom        0.000000      0.000000      0.000000
 --------------------------------------------------------
                        XY            XZ            YZ
 --------------------------------------------------------
     1   Atom        0.000000      0.000000      0.000000
     2   Atom        0.000000      0.000000      0.000000
 --------------------------------------------------------


 ---------------------------------------------------------------------------------
              Anisotropic Spin Dipole Couplings in Principal Axis System
 ---------------------------------------------------------------------------------

       Atom             a.u.   MegaHertz   Gauss  10(-4) cm-1        Axes

              Baa     0.0000     0.000     0.000     0.000  1.0000  0.0000  0.0000
     1 Sc(45) Bbb     0.0000     0.000     0.000     0.000 -0.0000  1.0000  0.0000
              Bcc     0.0000     0.000     0.000     0.000  0.0000  0.0000  1.0000
 
              Baa     0.0000     0.000     0.000     0.000  1.0000  0.0000  0.0000
     2 H(1)   Bbb     0.0000     0.000     0.000     0.000 -0.0000  1.0000  0.0000
              Bcc     0.0000     0.000     0.000     0.000  0.0000  0.0000  1.0000
 

 ---------------------------------------------------------------------------------

 No NMR shielding tensors so no spin-rotation constants.
 Leave Link  601 at Tue Feb 13 16:59:21 2018, MaxMem=  8589934592 cpu:             307.0 elap:              10.1
 (Enter /home1/apps/gaussian/16rA.03/g16/l9999.exe)

 Test job not archived.
 1\1\GINC-C409-033\SP\ROCCSD(T)-Full\Gen\H1Sc1\AANNABE\13-Feb-2018\0\\#
 P ROCCSD(T)=(maxcyc=150, Full)/Gen 5d 7f SCF=(maxcycles=300) Integral(
 NoXCTest) MaxDisk=500GB Pop=Regular Pseudo=Read IOp(5/15=2) Guess=Read
 \\ScH\\0,1\Sc,0,0.,0.,0.\H,0,0.,0.,1.\\Version=ES64L-G16RevA.03\State=
 1-SG\HF=-46.512087\MP2=-46.9575014\MP3=-46.9751711\PUHF=-46.512087\PMP
 2-0=-46.9575014\MP4SDQ=-46.9742502\CCSD=-46.9741514\CCSD(T)=-46.992574
 7\RMSD=5.173e-09\PG=C*V [C*(H1Sc1)]\\@


 SUCCESS-- IF YOU HAVE TRIED TO DO SOMETHING AND FAILED
           YOU ARE BETTER OFF THAN IF YOU HAD TRIED TO DO
           NOTHING AND SUCCEEDED.

                   -- FROM THE BACK OF A SUGAR PACKET
 Job cpu time:       1 days 14 hours  7 minutes 52.8 seconds.
 Elapsed time:       0 days  1 hours 11 minutes 48.6 seconds.
 File lengths (MBytes):  RWF=  17035 Int=      0 D2E=      0 Chk=     23 Scr=      1
 Normal termination of Gaussian 16 at Tue Feb 13 16:59:28 2018.
