 Entering Gaussian System, Link 0=g16
 Initial command:
 /home1/apps/gaussian/16rA.03/g16/l1.exe "/tmp/Gau-216890.inp" -scrdir="/tmp/"
 Entering Link 1 = /home1/apps/gaussian/16rA.03/g16/l1.exe PID=    216891.
  
 Copyright (c) 1988,1990,1992,1993,1995,1998,2003,2009,2016,
            Gaussian, Inc.  All Rights Reserved.
  
 This is part of the Gaussian(R) 16 program.  It is based on
 the Gaussian(R) 09 system (copyright 2009, Gaussian, Inc.),
 the Gaussian(R) 03 system (copyright 2003, Gaussian, Inc.),
 the Gaussian(R) 98 system (copyright 1998, Gaussian, Inc.),
 the Gaussian(R) 94 system (copyright 1995, Gaussian, Inc.),
 the Gaussian 92(TM) system (copyright 1992, Gaussian, Inc.),
 the Gaussian 90(TM) system (copyright 1990, Gaussian, Inc.),
 the Gaussian 88(TM) system (copyright 1988, Gaussian, Inc.),
 the Gaussian 86(TM) system (copyright 1986, Carnegie Mellon
 University), and the Gaussian 82(TM) system (copyright 1983,
 Carnegie Mellon University). Gaussian is a federally registered
 trademark of Gaussian, Inc.
  
 This software contains proprietary and confidential information,
 including trade secrets, belonging to Gaussian, Inc.
  
 This software is provided under written license and may be
 used, copied, transmitted, or stored only in accord with that
 written license.
  
 The following legend is applicable only to US Government
 contracts under FAR:
  
                    RESTRICTED RIGHTS LEGEND
  
 Use, reproduction and disclosure by the US Government is
 subject to restrictions as set forth in subparagraphs (a)
 and (c) of the Commercial Computer Software - Restricted
 Rights clause in FAR 52.227-19.
  
 Gaussian, Inc.
 340 Quinnipiac St., Bldg. 40, Wallingford CT 06492
  
  
 ---------------------------------------------------------------
 Warning -- This program may not be used in any manner that
 competes with the business of Gaussian, Inc. or will provide
 assistance to any competitor of Gaussian, Inc.  The licensee
 of this program is prohibited from giving any competitor of
 Gaussian, Inc. access to this program.  By using this program,
 the user acknowledges that Gaussian, Inc. is engaged in the
 business of creating and licensing software in the field of
 computational chemistry and represents and warrants to the
 licensee that it is not a competitor of Gaussian, Inc. and that
 it will not use this program in any manner prohibited above.
 ---------------------------------------------------------------
  

 Cite this work as:
 Gaussian 16, Revision A.03,
 M. J. Frisch, G. W. Trucks, H. B. Schlegel, G. E. Scuseria, 
 M. A. Robb, J. R. Cheeseman, G. Scalmani, V. Barone, 
 G. A. Petersson, H. Nakatsuji, X. Li, M. Caricato, A. V. Marenich, 
 J. Bloino, B. G. Janesko, R. Gomperts, B. Mennucci, H. P. Hratchian, 
 J. V. Ortiz, A. F. Izmaylov, J. L. Sonnenberg, D. Williams-Young, 
 F. Ding, F. Lipparini, F. Egidi, J. Goings, B. Peng, A. Petrone, 
 T. Henderson, D. Ranasinghe, V. G. Zakrzewski, J. Gao, N. Rega, 
 G. Zheng, W. Liang, M. Hada, M. Ehara, K. Toyota, R. Fukuda, 
 J. Hasegawa, M. Ishida, T. Nakajima, Y. Honda, O. Kitao, H. Nakai, 
 T. Vreven, K. Throssell, J. A. Montgomery, Jr., J. E. Peralta, 
 F. Ogliaro, M. J. Bearpark, J. J. Heyd, E. N. Brothers, K. N. Kudin, 
 V. N. Staroverov, T. A. Keith, R. Kobayashi, J. Normand, 
 K. Raghavachari, A. P. Rendell, J. C. Burant, S. S. Iyengar, 
 J. Tomasi, M. Cossi, J. M. Millam, M. Klene, C. Adamo, R. Cammi, 
 J. W. Ochterski, R. L. Martin, K. Morokuma, O. Farkas, 
 J. B. Foresman, and D. J. Fox, Gaussian, Inc., Wallingford CT, 2016.
 
 ******************************************
 Gaussian 16:  ES64L-G16RevA.03 25-Dec-2016
                19-Apr-2018 
 ******************************************
 %MEM=80GB
 %CPU=0-19
 SetSPE:  set environment variable "MP_BIND" = "yes"
 SetSPE:  set environment variable "MP_BLIST" = "0,1,2,3,4,5,6,7,8,9,10,11,12,13,14,15,16,17,18,19"
 Will use up to   20 processors via shared memory.
 %RWF=/scratch/04843/aannabe/gaussian/
 %Int=/scratch/04843/aannabe/gaussian/
 %D2E=/scratch/04843/aannabe/gaussian/
 %NoSave
 %CHK=ScO
 ----------------------------------------------------------------------
 #P ROCCSD(T)=(maxcyc=150, Full, SaveAmplitudes, ReadAmplitudes)/Gen 5d
  7f SCF=(maxcycles=300, VShift=400) Integral(NoXCTest) MaxDisk=500GB P
 op=Full Pseudo=Read Guess=Read
 ----------------------------------------------------------------------
 1/38=1,172=1/1;
 2/12=2,17=6,18=5,40=1/2;
 3/5=7,8=11,11=2,16=1,17=8,25=1,30=1,47=8,116=101/1,2,3;
 4/5=1/1;
 5/5=2,7=300,10=400,38=6/2;
 8/5=-1,6=4,9=120000,10=90,24=1/1,4;
 9/5=7,6=150,14=2,77=1/13;
 6/7=3/1;
 99/5=1,9=1/99;
 Leave Link    1 at Thu Apr 19 05:03:30 2018, MaxMem= 10737418240 cpu:               8.4 elap:               0.4
 (Enter /home1/apps/gaussian/16rA.03/g16/l101.exe)
 ---
 ScO
 ---
 Symbolic Z-matrix:
 Charge =  0 Multiplicity = 2
 Sc                    0.        0.        0. 
 O                     0.        0.        1.3 
 
 ITRead=  0  0
 MicOpt= -1 -1
 NAtoms=      2 NQM=        2 NQMF=       0 NMMI=      0 NMMIF=      0
                NMic=       0 NMicF=      0.
                    Isotopes and Nuclear Properties:
 (Nuclear quadrupole moments (NQMom) in fm**2, nuclear magnetic moments (NMagM)
  in nuclear magnetons)

  Atom         1           2
 IAtWgt=          45          16
 AtmWgt=  44.9559136  15.9949146
 NucSpn=           7           0
 AtZEff=  -0.0000000  -0.0000000
 NQMom=  -22.0000000   0.0000000
 NMagM=    4.7564830   0.0000000
 AtZNuc=  21.0000000   8.0000000
 Leave Link  101 at Thu Apr 19 05:03:31 2018, MaxMem= 10737418240 cpu:               2.2 elap:               0.1
 (Enter /home1/apps/gaussian/16rA.03/g16/l202.exe)
                          Input orientation:                          
 ---------------------------------------------------------------------
 Center     Atomic      Atomic             Coordinates (Angstroms)
 Number     Number       Type             X           Y           Z
 ---------------------------------------------------------------------
      1         21           0        0.000000    0.000000    0.000000
      2          8           0        0.000000    0.000000    1.300000
 ---------------------------------------------------------------------
 Stoichiometry    OSc(2)
 Framework group  C*V[C*(OSc)]
 Deg. of freedom     1
 Full point group                 C*V     NOp   4
 Largest Abelian subgroup         C2V     NOp   4
 Largest concise Abelian subgroup C1      NOp   1
                         Standard orientation:                         
 ---------------------------------------------------------------------
 Center     Atomic      Atomic             Coordinates (Angstroms)
 Number     Number       Type             X           Y           Z
 ---------------------------------------------------------------------
      1         21           0        0.000000    0.000000    0.358621
      2          8           0        0.000000    0.000000   -0.941379
 ---------------------------------------------------------------------
 Rotational constants (GHZ):           0.0000000          25.3478630          25.3478630
 Leave Link  202 at Thu Apr 19 05:03:32 2018, MaxMem= 10737418240 cpu:               0.4 elap:               0.2
 (Enter /home1/apps/gaussian/16rA.03/g16/l301.exe)
 General basis read from cards:  (5D, 7F)
 Centers:       1
 S 1 1.00
     Exponent=  8.5494290000D+03 Coefficients=  1.0000000000D+00
 S 1 1.00
     Exponent=  3.0859750000D+03 Coefficients=  1.0000000000D+00
 S 1 1.00
     Exponent=  1.2031720000D+03 Coefficients=  1.0000000000D+00
 S 1 1.00
     Exponent=  4.9848690000D+02 Coefficients=  1.0000000000D+00
 S 1 1.00
     Exponent=  2.1673600000D+02 Coefficients=  1.0000000000D+00
 S 1 1.00
     Exponent=  9.7874760000D+01 Coefficients=  1.0000000000D+00
 S 1 1.00
     Exponent=  4.5204330000D+01 Coefficients=  1.0000000000D+00
 S 1 1.00
     Exponent=  2.0211870000D+01 Coefficients=  1.0000000000D+00
 S 1 1.00
     Exponent=  9.5747510000D+00 Coefficients=  1.0000000000D+00
 S 1 1.00
     Exponent=  4.5403460000D+00 Coefficients=  1.0000000000D+00
 S 1 1.00
     Exponent=  1.9956870000D+00 Coefficients=  1.0000000000D+00
 S 1 1.00
     Exponent=  9.4221500000D-01 Coefficients=  1.0000000000D+00
 S 1 1.00
     Exponent=  4.1784500000D-01 Coefficients=  1.0000000000D+00
 S 1 1.00
     Exponent=  9.5761000000D-02 Coefficients=  1.0000000000D+00
 S 1 1.00
     Exponent=  5.1351000000D-02 Coefficients=  1.0000000000D+00
 S 1 1.00
     Exponent=  2.3878000000D-02 Coefficients=  1.0000000000D+00
 S 1 1.00
     Exponent=  2.6472000000D+00 Coefficients=  1.0000000000D+00
 S 1 1.00
     Exponent=  6.2170000000D-01 Coefficients=  1.0000000000D+00
 S 1 1.00
     Exponent=  1.1100000000D-02 Coefficients=  1.0000000000D+00
 P 1 1.00
     Exponent=  2.5075330000D+03 Coefficients=  1.0000000000D+00
 P 1 1.00
     Exponent=  8.1445710000D+02 Coefficients=  1.0000000000D+00
 P 1 1.00
     Exponent=  3.1151950000D+02 Coefficients=  1.0000000000D+00
 P 1 1.00
     Exponent=  1.3196170000D+02 Coefficients=  1.0000000000D+00
 P 1 1.00
     Exponent=  5.9987180000D+01 Coefficients=  1.0000000000D+00
 P 1 1.00
     Exponent=  2.8662500000D+01 Coefficients=  1.0000000000D+00
 P 1 1.00
     Exponent=  1.4108510000D+01 Coefficients=  1.0000000000D+00
 P 1 1.00
     Exponent=  7.1037060000D+00 Coefficients=  1.0000000000D+00
 P 1 1.00
     Exponent=  3.6092000000D+00 Coefficients=  1.0000000000D+00
 P 1 1.00
     Exponent=  1.7760700000D+00 Coefficients=  1.0000000000D+00
 P 1 1.00
     Exponent=  8.5476000000D-01 Coefficients=  1.0000000000D+00
 P 1 1.00
     Exponent=  4.0223900000D-01 Coefficients=  1.0000000000D+00
 P 1 1.00
     Exponent=  1.5468000000D-01 Coefficients=  1.0000000000D+00
 P 1 1.00
     Exponent=  6.4888000000D-02 Coefficients=  1.0000000000D+00
 P 1 1.00
     Exponent=  2.6301000000D-02 Coefficients=  1.0000000000D+00
 P 1 1.00
     Exponent=  3.4418000000D+00 Coefficients=  1.0000000000D+00
 P 1 1.00
     Exponent=  8.0840000000D-01 Coefficients=  1.0000000000D+00
 P 1 1.00
     Exponent=  1.0660000000D-02 Coefficients=  1.0000000000D+00
 D 1 1.00
     Exponent=  5.0654200000D+01 Coefficients=  1.0000000000D+00
 D 1 1.00
     Exponent=  1.4732500000D+01 Coefficients=  1.0000000000D+00
 D 1 1.00
     Exponent=  5.1804600000D+00 Coefficients=  1.0000000000D+00
 D 1 1.00
     Exponent=  2.0195900000D+00 Coefficients=  1.0000000000D+00
 D 1 1.00
     Exponent=  7.9921900000D-01 Coefficients=  1.0000000000D+00
 D 1 1.00
     Exponent=  3.0531600000D-01 Coefficients=  1.0000000000D+00
 D 1 1.00
     Exponent=  1.1044400000D-01 Coefficients=  1.0000000000D+00
 D 1 1.00
     Exponent=  3.7065000000D-02 Coefficients=  1.0000000000D+00
 D 1 1.00
     Exponent=  1.8520000000D+00 Coefficients=  1.0000000000D+00
 D 1 1.00
     Exponent=  7.8750000000D-01 Coefficients=  1.0000000000D+00
 D 1 1.00
     Exponent=  1.2440000000D-02 Coefficients=  1.0000000000D+00
 F 1 1.00
     Exponent=  2.1048000000D+00 Coefficients=  1.0000000000D+00
 F 1 1.00
     Exponent=  6.5870000000D-01 Coefficients=  1.0000000000D+00
 F 1 1.00
     Exponent=  1.6360000000D-01 Coefficients=  1.0000000000D+00
 F 1 1.00
     Exponent=  4.0630000000D-02 Coefficients=  1.0000000000D+00
 G 1 1.00
     Exponent=  1.7850000000D+00 Coefficients=  1.0000000000D+00
 G 1 1.00
     Exponent=  4.1120000000D-01 Coefficients=  1.0000000000D+00
 G 1 1.00
     Exponent=  9.4730000000D-02 Coefficients=  1.0000000000D+00
 ****
 Centers:       2
 S 1 1.00
     Exponent=  1.5330000000D+04 Coefficients=  1.0000000000D+00
 S 1 1.00
     Exponent=  2.2990000000D+03 Coefficients=  1.0000000000D+00
 S 1 1.00
     Exponent=  5.2240000000D+02 Coefficients=  1.0000000000D+00
 S 1 1.00
     Exponent=  1.4730000000D+02 Coefficients=  1.0000000000D+00
 S 1 1.00
     Exponent=  4.7550000000D+01 Coefficients=  1.0000000000D+00
 S 1 1.00
     Exponent=  1.6760000000D+01 Coefficients=  1.0000000000D+00
 S 1 1.00
     Exponent=  6.2070000000D+00 Coefficients=  1.0000000000D+00
 S 1 1.00
     Exponent=  6.8820000000D-01 Coefficients=  1.0000000000D+00
 S 1 1.00
     Exponent=  1.7520000000D+00 Coefficients=  1.0000000000D+00
 S 1 1.00
     Exponent=  2.3840000000D-01 Coefficients=  1.0000000000D+00
 S 1 1.00
     Exponent=  7.8450000000D+00 Coefficients=  1.0000000000D+00
 S 1 1.00
     Exponent=  2.1032000000D+01 Coefficients=  1.0000000000D+00
 S 1 1.00
     Exponent=  7.3760000000D-02 Coefficients=  1.0000000000D+00
 P 1 1.00
     Exponent=  3.4460000000D+01 Coefficients=  1.0000000000D+00
 P 1 1.00
     Exponent=  7.7490000000D+00 Coefficients=  1.0000000000D+00
 P 1 1.00
     Exponent=  2.2800000000D+00 Coefficients=  1.0000000000D+00
 P 1 1.00
     Exponent=  7.1560000000D-01 Coefficients=  1.0000000000D+00
 P 1 1.00
     Exponent=  2.1400000000D-01 Coefficients=  1.0000000000D+00
 P 1 1.00
     Exponent=  1.5159000000D+01 Coefficients=  1.0000000000D+00
 P 1 1.00
     Exponent=  5.7437000000D+01 Coefficients=  1.0000000000D+00
 P 1 1.00
     Exponent=  5.9740000000D-02 Coefficients=  1.0000000000D+00
 D 1 1.00
     Exponent=  2.3140000000D+00 Coefficients=  1.0000000000D+00
 D 1 1.00
     Exponent=  6.4500000000D-01 Coefficients=  1.0000000000D+00
 D 1 1.00
     Exponent=  1.5858000000D+01 Coefficients=  1.0000000000D+00
 D 1 1.00
     Exponent=  2.1400000000D-01 Coefficients=  1.0000000000D+00
 F 1 1.00
     Exponent=  1.4280000000D+00 Coefficients=  1.0000000000D+00
 F 1 1.00
     Exponent=  5.0000000000D-01 Coefficients=  1.0000000000D+00
 ****
 ======================================================================================================
                                       Pseudopotential Parameters
 ======================================================================================================
  Center     Atomic      Valence      Angular      Power
  Number     Number     Electrons     Momentum     of R      Exponent        Coefficient   SO-Coeffient
 ======================================================================================================
    1         21           11
                                      D and up 
                                                     1       16.0484864       11.00000000    0.00000000
                                                     3       14.0776444      176.53335005    0.00000000
                                                     2       11.9934867      -83.67342052    0.00000000
                                                     2        3.7511530        0.33106479    0.00000000
                                      S - D
                                                     2       11.4712714      153.95987029    0.00000000
                                                     2        5.0075674       14.96431856    0.00000000
                                      P - D
                                                     2       11.4449481       97.20944543    0.00000000
                                                     2        4.7850946       10.81621631    0.00000000
    2          8            6
                                      P and up 
                                                     1       12.3099700        6.00000000    0.00000000
                                                     3       14.7696200       73.85984000    0.00000000
                                                     2       13.7141900      -47.87600000    0.00000000
                                      S - P
                                                     2       13.6551200       85.86406000    0.00000000
 ======================================================================================================
 Ernie: Thresh=  0.10000D-02 Tol=  0.10000D-05 Strict=F.
 There are   139 symmetry adapted cartesian basis functions of A1  symmetry.
 There are    30 symmetry adapted cartesian basis functions of A2  symmetry.
 There are    68 symmetry adapted cartesian basis functions of B1  symmetry.
 There are    68 symmetry adapted cartesian basis functions of B2  symmetry.
 There are   109 symmetry adapted basis functions of A1  symmetry.
 There are    27 symmetry adapted basis functions of A2  symmetry.
 There are    59 symmetry adapted basis functions of B1  symmetry.
 There are    59 symmetry adapted basis functions of B2  symmetry.
   254 basis functions,   305 primitive gaussians,   305 cartesian basis functions
     9 alpha electrons        8 beta electrons
       nuclear repulsion energy        26.8659199390 Hartrees.
 IExCor=    0 DFT=F Ex=HF Corr=None ExCW=0 ScaHFX=  1.000000
 ScaDFX=  1.000000  1.000000  1.000000  1.000000 ScalE2=  1.000000  1.000000
 IRadAn=      5 IRanWt=     -1 IRanGd=            0 ICorTp=0 IEmpDi=  4
 NAtoms=    2 NActive=    2 NUniq=    2 SFac= 1.00D+00 NAtFMM=   60 NAOKFM=F Big=F
 Integral buffers will be    131072 words long.
 Raffenetti 2 integral format.
 Two-electron integral symmetry is turned on.
 Leave Link  301 at Thu Apr 19 05:03:33 2018, MaxMem= 10737418240 cpu:               4.9 elap:               0.9
 (Enter /home1/apps/gaussian/16rA.03/g16/l302.exe)
 NPDir=0 NMtPBC=     1 NCelOv=     1 NCel=       1 NClECP=     1 NCelD=      1
         NCelK=      1 NCelE2=     1 NClLst=     1 CellRange=     0.0.
 One-electron integrals computed using PRISM.
 One-electron integral symmetry used in STVInt
   4 Symmetry operations used in ECPInt.
 ECPInt:  NShTT=    3403 NPrTT=    3403 LenC2=    3243 LenP2D=    3242.
 LDataN:  DoStor=T MaxTD1= 8 Len=  415
 NBasis=   254 RedAO= T EigKep=  1.23D-06  NBF=   109    27    59    59
 NBsUse=   250 1.00D-06 EigRej=  9.21D-07 NBFU=   107    27    58    58
 Leave Link  302 at Thu Apr 19 05:03:34 2018, MaxMem= 10737418240 cpu:              19.0 elap:               1.0
 (Enter /home1/apps/gaussian/16rA.03/g16/l303.exe)
 DipDrv:  MaxL=1.
 Leave Link  303 at Thu Apr 19 05:03:35 2018, MaxMem= 10737418240 cpu:               1.4 elap:               0.2
 (Enter /home1/apps/gaussian/16rA.03/g16/l401.exe)
 Initial guess from the checkpoint file:  "ScO.chk"
 B after Tr=     0.000000    0.000000   -0.000000
         Rot=    1.000000    0.000000    0.000000    0.000000 Ang=   0.00 deg.
 Guess basis will be translated and rotated to current coordinates.
 JPrj=2 DoOrth=T DoCkMO=T.
 Initial guess orbital symmetries:
       Occupied  (SG) (SG) (PI) (PI) (SG) (PI) (PI) (SG) (SG)
       Virtual   (PI) (PI) (SG) (SG) (DLTA) (DLTA) (PI) (PI) (SG)
                 (PI) (PI) (SG) (SG) (DLTA) (DLTA) (PI) (PI) (SG)
                 (PI) (PI) (DLTA) (DLTA) (PHI) (PHI) (SG) (PI)
                 (PI) (DLTA) (DLTA) (SG) (SG) (PI) (PI) (SG) (PI)
                 (PI) (SG) (PI) (PI) (DLTA) (DLTA) (?A) (?A) (PHI)
                 (PHI) (DLTA) (DLTA) (SG) (DLTA) (DLTA) (PI) (PI)
                 (PHI) (PHI) (SG) (PI) (PI) (SG) (SG) (PI) (PI)
                 (PI) (PI) (DLTA) (DLTA) (PHI) (PHI) (DLTA) (DLTA)
                 (PI) (PI) (SG) (?A) (?A) (SG) (DLTA) (DLTA) (PI)
                 (PI) (SG) (SG) (PI) (PI) (DLTA) (DLTA) (PHI) (PHI)
                 (?A) (?A) (SG) (PHI) (PHI) (PI) (PI) (SG) (SG)
                 (DLTA) (DLTA) (PI) (PI) (SG) (DLTA) (DLTA) (PI)
                 (PI) (PI) (PI) (SG) (SG) (DLTA) (DLTA) (PHI) (PHI)
                 (SG) (PI) (PI) (DLTA) (DLTA) (PI) (PI) (SG) (SG)
                 (?B) (?B) (?B) (?B) (PHI) (PHI) (?B) (?B) (?B)
                 (SG) (?B) (?B) (PHI) (PHI) (?B) (?B) (SG) (?B)
                 (?B) (?B) (?B) (?B) (?B) (SG) (?B) (?B) (?B) (?B)
                 (?B) (?B) (?B) (?B) (?B) (?B) (?B) (?B) (?B) (?B)
                 (?B) (?B) (?B) (SG) (?B) (?B) (SG) (?B) (?B) (?B)
                 (SG) (SG) (SG) (SG) (?B) (SG) (SG) (SG) (SG) (?B)
                 (SG) (SG) (?B) (?B) (SG) (?B) (SG) (SG) (?B) (?B)
                 (SG) (?B) (?B) (?B) (SG) (SG) (?B) (?B) (?B) (?B)
                 (?B) (?B) (?B) (SG) (SG) (SG) (?B) (?B) (?B) (?B)
                 (?B) (?B) (?B) (?B) (?B) (?B) (?B) (?B) (?B) (?B)
                 (?B) (?B) (?B) (?B) (?B) (?B) (?B) (?B) (PI) (?B)
                 (?B) (?B) (?B) (?B) (?B) (?B) (?B) (?B) (?B) (?B)
                 (PI)
 The electronic state of the initial guess is 2-SG.
 Leave Link  401 at Thu Apr 19 05:03:37 2018, MaxMem= 10737418240 cpu:              17.1 elap:               1.1
 (Enter /home1/apps/gaussian/16rA.03/g16/l502.exe)
 Keep R1 and R2 ints in memory in symmetry-blocked form, NReq=658655674.
 FoFCou: FMM=F IPFlag=           8 FMFlag=           0 FMFlg1=           0
         NFxFlg=           0 DoJE=F BraDBF=F KetDBF=F FulRan=T
         wScrn=  0.000000 ICntrl=       600 IOpCl=  0 I1Cent=           0 NGrid=           0
         NMat0=    1 NMatS0=  32385 NMatT0=    0 NMatD0=    1 NMtDS0=    0 NMtDT0=    0
 Petite list used in FoFCou.
 Restricted open shell SCF:
 Using DIIS extrapolation, IDIIS=  1040.
 NGot= 10737418240 LenX= 10468811225 LenY= 10468717759
 Requested convergence on RMS density matrix=1.00D-08 within 300 cycles.
 Requested convergence on MAX density matrix=1.00D-06.
 Requested convergence on             energy=1.00D-06.
 Virtual orbitals will be shifted by   0.400 hartree.
 No special actions if energy rises.
 An orbital has undefined symmetry, so N**3 symmetry is turned off.

 Cycle   1  Pass 1  IDiag  1:
 E= -61.7508532817729    
 DIIS: error= 1.14D-01 at cycle   1 NSaved=   1.
 NSaved= 1 IEnMin= 1 EnMin= -61.7508532817729     IErMin= 1 ErrMin= 1.14D-01
 ErrMax= 1.14D-01  0.00D+00 EMaxC= 1.00D-01 BMatC= 1.35D+00 BMatP= 1.35D+00
 IDIUse=3 WtCom= 0.00D+00 WtEn= 1.00D+00
 Coeff-Com:  0.100D+01
 Coeff-En:   0.100D+01
 Coeff:      0.100D+01
 Gap=     0.887 Goal=   None    Shift=    0.400
 DSYEVD-2 returned Info=       31876 IAlg= 4 N=   250 NDim=   250 NE2=    41874870 trying  DSYEV.
 GapD=    0.887 DampG=2.000 DampE=0.125 DampFc=0.2500 IDamp=-1.
 Damping current iteration by 2.50D-01
 RMSDP=1.63D-02 MaxDP=1.36D+00              OVMax= 3.02D-02

 Cycle   2  Pass 1  IDiag  1:
 E= -61.7568443191847     Delta-E=       -0.005991037412 Rises=F Damp=T
 DIIS: error= 8.52D-02 at cycle   2 NSaved=   2.
 NSaved= 2 IEnMin= 2 EnMin= -61.7568443191847     IErMin= 2 ErrMin= 8.52D-02
 ErrMax= 8.52D-02  0.00D+00 EMaxC= 1.00D-01 BMatC= 7.61D-01 BMatP= 1.35D+00
 IDIUse=3 WtCom= 1.48D-01 WtEn= 8.52D-01
 Coeff-Com: -0.302D+01 0.402D+01
 Coeff-En:   0.000D+00 0.100D+01
 Coeff:     -0.449D+00 0.145D+01
 Gap=     0.066 Goal=   None    Shift=    0.400
 RMSDP=1.35D-02 MaxDP=1.13D+00 DE=-5.99D-03 OVMax= 1.16D-02

 Cycle   3  Pass 1  IDiag  1:
 E= -61.7790399529861     Delta-E=       -0.022195633801 Rises=F Damp=F
 DIIS: error= 3.11D-03 at cycle   3 NSaved=   3.
 NSaved= 3 IEnMin= 3 EnMin= -61.7790399529861     IErMin= 3 ErrMin= 3.11D-03
 ErrMax= 3.11D-03  0.00D+00 EMaxC= 1.00D-01 BMatC= 1.07D-03 BMatP= 7.61D-01
 IDIUse=3 WtCom= 9.69D-01 WtEn= 3.11D-02
 Coeff-Com:  0.441D+01-0.588D+01 0.247D+01
 Coeff-En:   0.000D+00 0.000D+00 0.100D+01
 Coeff:      0.427D+01-0.569D+01 0.242D+01
 Gap=     0.070 Goal=   None    Shift=    0.400
 DSYEVD-2 returned Info=       31876 IAlg= 4 N=   250 NDim=   250 NE2=    41874870 trying  DSYEV.
 RMSDP=1.01D-03 MaxDP=8.03D-02 DE=-2.22D-02 OVMax= 1.87D-02

 Cycle   4  Pass 1  IDiag  1:
 E= -61.7813833311604     Delta-E=       -0.002343378174 Rises=F Damp=F
 DIIS: error= 1.83D-03 at cycle   4 NSaved=   4.
 NSaved= 4 IEnMin= 4 EnMin= -61.7813833311604     IErMin= 4 ErrMin= 1.83D-03
 ErrMax= 1.83D-03  0.00D+00 EMaxC= 1.00D-01 BMatC= 1.81D-04 BMatP= 1.07D-03
 IDIUse=3 WtCom= 9.82D-01 WtEn= 1.83D-02
 Coeff-Com:  0.884D+00-0.118D+01 0.167D+00 0.113D+01
 Coeff-En:   0.000D+00 0.000D+00 0.000D+00 0.100D+01
 Coeff:      0.868D+00-0.116D+01 0.164D+00 0.112D+01
 Gap=     0.069 Goal=   None    Shift=    0.400
 DSYEVD-2 returned Info=       31876 IAlg= 4 N=   250 NDim=   250 NE2=    41874870 trying  DSYEV.
 RMSDP=2.10D-04 MaxDP=1.50D-02 DE=-2.34D-03 OVMax= 1.01D-02

 Cycle   5  Pass 1  IDiag  1:
 E= -61.7818797718813     Delta-E=       -0.000496440721 Rises=F Damp=F
 DIIS: error= 9.40D-04 at cycle   5 NSaved=   5.
 NSaved= 5 IEnMin= 5 EnMin= -61.7818797718813     IErMin= 5 ErrMin= 9.40D-04
 ErrMax= 9.40D-04  0.00D+00 EMaxC= 1.00D-01 BMatC= 5.56D-05 BMatP= 1.81D-04
 IDIUse=3 WtCom= 9.91D-01 WtEn= 9.40D-03
 Coeff-Com: -0.711D+00 0.947D+00-0.436D+00-0.371D+00 0.157D+01
 Coeff-En:   0.000D+00 0.000D+00 0.000D+00 0.000D+00 0.100D+01
 Coeff:     -0.704D+00 0.939D+00-0.432D+00-0.367D+00 0.156D+01
 Gap=     0.069 Goal=   None    Shift=    0.400
 RMSDP=9.72D-05 MaxDP=5.04D-03 DE=-4.96D-04 OVMax= 6.70D-03

 Cycle   6  Pass 1  IDiag  1:
 E= -61.7820678052933     Delta-E=       -0.000188033412 Rises=F Damp=F
 DIIS: error= 5.77D-04 at cycle   6 NSaved=   6.
 NSaved= 6 IEnMin= 6 EnMin= -61.7820678052933     IErMin= 6 ErrMin= 5.77D-04
 ErrMax= 5.77D-04  0.00D+00 EMaxC= 1.00D-01 BMatC= 1.84D-05 BMatP= 5.56D-05
 IDIUse=3 WtCom= 9.94D-01 WtEn= 5.77D-03
 Coeff-Com: -0.511D+00 0.681D+00-0.221D+00-0.387D+00 0.245D+00 0.119D+01
 Coeff-En:   0.000D+00 0.000D+00 0.000D+00 0.000D+00 0.000D+00 0.100D+01
 Coeff:     -0.508D+00 0.677D+00-0.219D+00-0.384D+00 0.244D+00 0.119D+01
 Gap=     0.069 Goal=   None    Shift=    0.400
 RMSDP=5.02D-05 MaxDP=3.30D-03 DE=-1.88D-04 OVMax= 4.30D-03

 Cycle   7  Pass 1  IDiag  1:
 E= -61.7821298790591     Delta-E=       -0.000062073766 Rises=F Damp=F
 DIIS: error= 2.93D-04 at cycle   7 NSaved=   7.
 NSaved= 7 IEnMin= 7 EnMin= -61.7821298790591     IErMin= 7 ErrMin= 2.93D-04
 ErrMax= 2.93D-04  0.00D+00 EMaxC= 1.00D-01 BMatC= 6.28D-06 BMatP= 1.84D-05
 IDIUse=3 WtCom= 9.97D-01 WtEn= 2.93D-03
 Coeff-Com: -0.140D+00 0.186D+00-0.536D-01-0.393D-02-0.182D+00-0.260D+00
 Coeff-Com:  0.145D+01
 Coeff-En:   0.000D+00 0.000D+00 0.000D+00 0.000D+00 0.000D+00 0.000D+00
 Coeff-En:   0.100D+01
 Coeff:     -0.139D+00 0.186D+00-0.534D-01-0.392D-02-0.181D+00-0.259D+00
 Coeff:      0.145D+01
 Gap=     0.069 Goal=   None    Shift=    0.400
 DSYEVD-2 returned Info=       31876 IAlg= 4 N=   250 NDim=   250 NE2=    41874870 trying  DSYEV.
 RMSDP=2.80D-05 MaxDP=2.77D-03 DE=-6.21D-05 OVMax= 3.46D-03

 Cycle   8  Pass 1  IDiag  1:
 E= -61.7821530761383     Delta-E=       -0.000023197079 Rises=F Damp=F
 DIIS: error= 1.68D-04 at cycle   8 NSaved=   8.
 NSaved= 8 IEnMin= 8 EnMin= -61.7821530761383     IErMin= 8 ErrMin= 1.68D-04
 ErrMax= 1.68D-04  0.00D+00 EMaxC= 1.00D-01 BMatC= 2.78D-06 BMatP= 6.28D-06
 IDIUse=3 WtCom= 9.98D-01 WtEn= 1.68D-03
 Coeff-Com: -0.914D-01 0.122D+00-0.676D-01 0.483D-01 0.175D+00-0.206D+00
 Coeff-Com: -0.136D+01 0.238D+01
 Coeff-En:   0.000D+00 0.000D+00 0.000D+00 0.000D+00 0.000D+00 0.000D+00
 Coeff-En:   0.000D+00 0.100D+01
 Coeff:     -0.912D-01 0.122D+00-0.675D-01 0.482D-01 0.174D+00-0.206D+00
 Coeff:     -0.136D+01 0.238D+01
 Gap=     0.069 Goal=   None    Shift=    0.400
 DSYEVD-2 returned Info=       31876 IAlg= 4 N=   250 NDim=   250 NE2=    41874870 trying  DSYEV.
 RMSDP=2.12D-05 MaxDP=2.05D-03 DE=-2.32D-05 OVMax= 2.70D-03

 Cycle   9  Pass 1  IDiag  1:
 E= -61.7821633014154     Delta-E=       -0.000010225277 Rises=F Damp=F
 DIIS: error= 1.27D-04 at cycle   9 NSaved=   9.
 NSaved= 9 IEnMin= 9 EnMin= -61.7821633014154     IErMin= 9 ErrMin= 1.27D-04
 ErrMax= 1.27D-04  0.00D+00 EMaxC= 1.00D-01 BMatC= 1.43D-06 BMatP= 2.78D-06
 IDIUse=3 WtCom= 9.99D-01 WtEn= 1.27D-03
 Coeff-Com: -0.136D+00 0.181D+00-0.740D-01-0.351D-01 0.112D+00 0.344D+00
 Coeff-Com: -0.679D+00-0.919D+00 0.220D+01
 Coeff-En:   0.000D+00 0.000D+00 0.000D+00 0.000D+00 0.000D+00 0.000D+00
 Coeff-En:   0.000D+00 0.000D+00 0.100D+01
 Coeff:     -0.136D+00 0.181D+00-0.739D-01-0.351D-01 0.112D+00 0.343D+00
 Coeff:     -0.678D+00-0.917D+00 0.220D+01
 Gap=     0.069 Goal=   None    Shift=    0.400
 RMSDP=1.34D-05 MaxDP=1.57D-03 DE=-1.02D-05 OVMax= 2.02D-03

 Cycle  10  Pass 1  IDiag  1:
 E= -61.7821675995404     Delta-E=       -0.000004298125 Rises=F Damp=F
 DIIS: error= 9.95D-05 at cycle  10 NSaved=  10.
 NSaved=10 IEnMin=10 EnMin= -61.7821675995404     IErMin=10 ErrMin= 9.95D-05
 ErrMax= 9.95D-05  0.00D+00 EMaxC= 1.00D-01 BMatC= 8.27D-07 BMatP= 1.43D-06
 IDIUse=1 WtCom= 1.00D+00 WtEn= 0.00D+00
 Coeff-Com: -0.788D-01 0.105D+00-0.416D-01-0.362D-01 0.120D+00 0.540D-01
 Coeff-Com:  0.245D-01-0.485D+00-0.133D+01 0.267D+01
 Coeff:     -0.788D-01 0.105D+00-0.416D-01-0.362D-01 0.120D+00 0.540D-01
 Coeff:      0.245D-01-0.485D+00-0.133D+01 0.267D+01
 Gap=     0.068 Goal=   None    Shift=    0.400
 DSYEVD-2 returned Info=       31876 IAlg= 4 N=   250 NDim=   250 NE2=    41874870 trying  DSYEV.
 RMSDP=1.04D-05 MaxDP=1.19D-03 DE=-4.30D-06 OVMax= 1.61D-03

 Cycle  11  Pass 1  IDiag  1:
 E= -61.7821700308180     Delta-E=       -0.000002431278 Rises=F Damp=F
 DIIS: error= 7.62D-05 at cycle  11 NSaved=  11.
 NSaved=11 IEnMin=11 EnMin= -61.7821700308180     IErMin=11 ErrMin= 7.62D-05
 ErrMax= 7.62D-05  0.00D+00 EMaxC= 1.00D-01 BMatC= 5.09D-07 BMatP= 8.27D-07
 IDIUse=1 WtCom= 1.00D+00 WtEn= 0.00D+00
 Coeff-Com: -0.370D-01 0.493D-01-0.237D-01 0.113D-02 0.100D+00-0.157D+00
 Coeff-Com: -0.191D+00 0.909D+00-0.112D+01-0.138D+01 0.285D+01
 Coeff:     -0.370D-01 0.493D-01-0.237D-01 0.113D-02 0.100D+00-0.157D+00
 Coeff:     -0.191D+00 0.909D+00-0.112D+01-0.138D+01 0.285D+01
 Gap=     0.068 Goal=   None    Shift=    0.400
 RMSDP=7.92D-06 MaxDP=1.04D-03 DE=-2.43D-06 OVMax= 1.31D-03

 Cycle  12  Pass 1  IDiag  1:
 E= -61.7821718036907     Delta-E=       -0.000001772873 Rises=F Damp=F
 DIIS: error= 5.72D-05 at cycle  12 NSaved=  12.
 NSaved=12 IEnMin=12 EnMin= -61.7821718036907     IErMin=12 ErrMin= 5.72D-05
 ErrMax= 5.72D-05  0.00D+00 EMaxC= 1.00D-01 BMatC= 3.12D-07 BMatP= 5.09D-07
 IDIUse=1 WtCom= 1.00D+00 WtEn= 0.00D+00
 Coeff-Com: -0.279D-01 0.372D-01-0.143D-01 0.451D-02-0.203D-01 0.124D+00
 Coeff-Com: -0.125D+00-0.298D+00 0.440D+00 0.909D+00-0.424D+01 0.421D+01
 Coeff:     -0.279D-01 0.372D-01-0.143D-01 0.451D-02-0.203D-01 0.124D+00
 Coeff:     -0.125D+00-0.298D+00 0.440D+00 0.909D+00-0.424D+01 0.421D+01
 Gap=     0.068 Goal=   None    Shift=    0.400
 DSYEVD-2 returned Info=       31876 IAlg= 4 N=   250 NDim=   250 NE2=    41874870 trying  DSYEV.
 RMSDP=6.81D-06 MaxDP=8.90D-04 DE=-1.77D-06 OVMax= 1.08D-03

 Cycle  13  Pass 1  IDiag  1:
 E= -61.7821728396116     Delta-E=       -0.000001035921 Rises=F Damp=F
 DIIS: error= 4.22D-05 at cycle  13 NSaved=  13.
 NSaved=13 IEnMin=13 EnMin= -61.7821728396116     IErMin=13 ErrMin= 4.22D-05
 ErrMax= 4.22D-05  0.00D+00 EMaxC= 1.00D-01 BMatC= 1.98D-07 BMatP= 3.12D-07
 IDIUse=1 WtCom= 1.00D+00 WtEn= 0.00D+00
 Coeff-Com: -0.105D-01 0.140D-01-0.570D-02 0.984D-02 0.496D-02-0.791D-01
 Coeff-Com: -0.111D-01 0.430D+00-0.998D+00 0.639D+00 0.387D+00-0.249D+01
 Coeff-Com:  0.311D+01
 Coeff:     -0.105D-01 0.140D-01-0.570D-02 0.984D-02 0.496D-02-0.791D-01
 Coeff:     -0.111D-01 0.430D+00-0.998D+00 0.639D+00 0.387D+00-0.249D+01
 Coeff:      0.311D+01
 Gap=     0.068 Goal=   None    Shift=    0.400
 RMSDP=5.34D-06 MaxDP=7.43D-04 DE=-1.04D-06 OVMax= 8.86D-04

 Cycle  14  Pass 1  IDiag  1:
 E= -61.7821733240745     Delta-E=       -0.000000484463 Rises=F Damp=F
 DIIS: error= 3.20D-05 at cycle  14 NSaved=  14.
 NSaved=14 IEnMin=14 EnMin= -61.7821733240745     IErMin=14 ErrMin= 3.20D-05
 ErrMax= 3.20D-05  0.00D+00 EMaxC= 1.00D-01 BMatC= 1.35D-07 BMatP= 1.98D-07
 IDIUse=1 WtCom= 1.00D+00 WtEn= 0.00D+00
 Coeff-Com: -0.906D-02 0.121D-01-0.668D-02 0.153D-01-0.948D-02-0.245D-02
 Coeff-Com: -0.274D+00 0.752D+00-0.314D+00-0.157D+01 0.109D+01 0.415D+01
 Coeff-Com: -0.855D+01 0.572D+01
 Coeff:     -0.906D-02 0.121D-01-0.668D-02 0.153D-01-0.948D-02-0.245D-02
 Coeff:     -0.274D+00 0.752D+00-0.314D+00-0.157D+01 0.109D+01 0.415D+01
 Coeff:     -0.855D+01 0.572D+01
 Gap=     0.068 Goal=   None    Shift=    0.400
 RMSDP=4.28D-06 MaxDP=5.67D-04 DE=-4.84D-07 OVMax= 6.31D-04

 Cycle  15  Pass 1  IDiag  1:
 E= -61.7821738646484     Delta-E=       -0.000000540574 Rises=F Damp=F
 DIIS: error= 2.47D-05 at cycle  15 NSaved=  15.
 NSaved=15 IEnMin=15 EnMin= -61.7821738646484     IErMin=15 ErrMin= 2.47D-05
 ErrMax= 2.47D-05  0.00D+00 EMaxC= 1.00D-01 BMatC= 7.83D-08 BMatP= 1.35D-07
 IDIUse=1 WtCom= 1.00D+00 WtEn= 0.00D+00
 Coeff-Com:  0.421D-02-0.560D-02 0.104D-02 0.967D-02 0.428D-02-0.446D-01
 Coeff-Com: -0.752D-01 0.250D+00-0.118D+00 0.636D-01-0.412D+00-0.598D+00
 Coeff-Com:  0.172D+01-0.279D+01 0.299D+01
 Coeff:      0.421D-02-0.560D-02 0.104D-02 0.967D-02 0.428D-02-0.446D-01
 Coeff:     -0.752D-01 0.250D+00-0.118D+00 0.636D-01-0.412D+00-0.598D+00
 Coeff:      0.172D+01-0.279D+01 0.299D+01
 Gap=     0.068 Goal=   None    Shift=    0.400
 RMSDP=2.74D-06 MaxDP=4.29D-04 DE=-5.41D-07 OVMax= 4.83D-04

 Cycle  16  Pass 1  IDiag  1:
 E= -61.7821740583299     Delta-E=       -0.000000193682 Rises=F Damp=F
 DIIS: error= 1.83D-05 at cycle  16 NSaved=  16.
 NSaved=16 IEnMin=16 EnMin= -61.7821740583299     IErMin=16 ErrMin= 1.83D-05
 ErrMax= 1.83D-05  0.00D+00 EMaxC= 1.00D-01 BMatC= 4.65D-08 BMatP= 7.83D-08
 IDIUse=1 WtCom= 1.00D+00 WtEn= 0.00D+00
 Coeff-Com:  0.583D-02-0.776D-02 0.284D-02-0.104D-02 0.346D-01-0.106D+00
 Coeff-Com:  0.904D-03 0.381D+00-0.603D+00-0.141D+00 0.155D+01-0.146D+01
 Coeff-Com: -0.482D+00 0.233D+01-0.554D+01 0.505D+01
 Coeff:      0.583D-02-0.776D-02 0.284D-02-0.104D-02 0.346D-01-0.106D+00
 Coeff:      0.904D-03 0.381D+00-0.603D+00-0.141D+00 0.155D+01-0.146D+01
 Coeff:     -0.482D+00 0.233D+01-0.554D+01 0.505D+01
 Gap=     0.068 Goal=   None    Shift=    0.400
 RMSDP=2.38D-06 MaxDP=4.04D-04 DE=-1.94D-07 OVMax= 3.77D-04

 Cycle  17  Pass 1  IDiag  1:
 E= -61.7821742054525     Delta-E=       -0.000000147123 Rises=F Damp=F
 DIIS: error= 1.39D-05 at cycle  17 NSaved=  17.
 NSaved=17 IEnMin=17 EnMin= -61.7821742054525     IErMin=17 ErrMin= 1.39D-05
 ErrMax= 1.39D-05  0.00D+00 EMaxC= 1.00D-01 BMatC= 3.00D-08 BMatP= 4.65D-08
 IDIUse=1 WtCom= 1.00D+00 WtEn= 0.00D+00
 Coeff-Com:  0.314D-02-0.419D-02 0.128D-02 0.695D-02-0.234D-01 0.304D-01
 Coeff-Com: -0.198D-01 0.689D-02 0.388D-01 0.331D-01-0.487D+00 0.307D+00
 Coeff-Com:  0.848D+00-0.229D+01 0.360D+01-0.572D+01 0.467D+01
 Coeff:      0.314D-02-0.419D-02 0.128D-02 0.695D-02-0.234D-01 0.304D-01
 Coeff:     -0.198D-01 0.689D-02 0.388D-01 0.331D-01-0.487D+00 0.307D+00
 Coeff:      0.848D+00-0.229D+01 0.360D+01-0.572D+01 0.467D+01
 Gap=     0.068 Goal=   None    Shift=    0.400
 RMSDP=1.87D-06 MaxDP=3.23D-04 DE=-1.47D-07 OVMax= 2.95D-04

 Cycle  18  Pass 1  IDiag  1:
 E= -61.7821742702192     Delta-E=       -0.000000064767 Rises=F Damp=F
 DIIS: error= 1.09D-05 at cycle  18 NSaved=  18.
 NSaved=18 IEnMin=18 EnMin= -61.7821742702192     IErMin=18 ErrMin= 1.09D-05
 ErrMax= 1.09D-05  0.00D+00 EMaxC= 1.00D-01 BMatC= 1.98D-08 BMatP= 3.00D-08
 IDIUse=1 WtCom= 1.00D+00 WtEn= 0.00D+00
 Coeff-Com:  0.706D-03-0.941D-03 0.425D-03-0.507D-02 0.388D-01-0.110D+00
 Coeff-Com:  0.416D-01 0.322D+00-0.661D+00-0.639D-01 0.178D+01-0.186D+01
 Coeff-Com:  0.124D+00 0.258D+01-0.678D+01 0.902D+01-0.993D+01 0.652D+01
 Coeff:      0.706D-03-0.941D-03 0.425D-03-0.507D-02 0.388D-01-0.110D+00
 Coeff:      0.416D-01 0.322D+00-0.661D+00-0.639D-01 0.178D+01-0.186D+01
 Coeff:      0.124D+00 0.258D+01-0.678D+01 0.902D+01-0.993D+01 0.652D+01
 Gap=     0.068 Goal=   None    Shift=    0.400
 RMSDP=1.69D-06 MaxDP=3.60D-04 DE=-6.48D-08 OVMax= 2.13D-04

 Cycle  19  Pass 1  IDiag  1:
 E= -61.7821743255702     Delta-E=       -0.000000055351 Rises=F Damp=F
 DIIS: error= 8.74D-06 at cycle  19 NSaved=  19.
 NSaved=19 IEnMin=19 EnMin= -61.7821743255702     IErMin=19 ErrMin= 8.74D-06
 ErrMax= 8.74D-06  0.00D+00 EMaxC= 1.00D-01 BMatC= 1.25D-08 BMatP= 1.98D-08
 IDIUse=1 WtCom= 1.00D+00 WtEn= 0.00D+00
 Coeff-Com:  0.104D-02-0.139D-02 0.654D-03-0.317D-02 0.233D-01-0.709D-01
 Coeff-Com:  0.326D-01 0.213D+00-0.444D+00-0.801D-01 0.125D+01-0.120D+01
 Coeff-Com: -0.923D-01 0.197D+01-0.471D+01 0.547D+01-0.530D+01 0.223D+01
 Coeff-Com:  0.172D+01
 Coeff:      0.104D-02-0.139D-02 0.654D-03-0.317D-02 0.233D-01-0.709D-01
 Coeff:      0.326D-01 0.213D+00-0.444D+00-0.801D-01 0.125D+01-0.120D+01
 Coeff:     -0.923D-01 0.197D+01-0.471D+01 0.547D+01-0.530D+01 0.223D+01
 Coeff:      0.172D+01
 Gap=     0.068 Goal=   None    Shift=    0.400
 RMSDP=1.25D-06 MaxDP=2.03D-04 DE=-5.54D-08 OVMax= 1.71D-04

 Cycle  20  Pass 1  IDiag  1:
 E= -61.7821743567745     Delta-E=       -0.000000031204 Rises=F Damp=F
 DIIS: error= 6.96D-06 at cycle  20 NSaved=  20.
 NSaved=20 IEnMin=20 EnMin= -61.7821743567745     IErMin=20 ErrMin= 6.96D-06
 ErrMax= 6.96D-06  0.00D+00 EMaxC= 1.00D-01 BMatC= 7.93D-09 BMatP= 1.25D-08
 IDIUse=1 WtCom= 1.00D+00 WtEn= 0.00D+00
 Large coefficients: NSaved= 20 BigCof=   11.37 CofMax=   10.00 Det=-4.26D-12
 Inversion failed.  Reducing to 19 matrices.
 Large coefficients: NSaved= 19 BigCof=   11.29 CofMax=   10.00 Det=-4.29D-12
 Inversion failed.  Reducing to 18 matrices.
 Large coefficients: NSaved= 18 BigCof=   11.29 CofMax=   10.00 Det=-4.29D-12
 Inversion failed.  Reducing to 17 matrices.
 Large coefficients: NSaved= 17 BigCof=   11.32 CofMax=   10.00 Det=-4.30D-12
 Inversion failed.  Reducing to 16 matrices.
 Large coefficients: NSaved= 16 BigCof=   10.97 CofMax=   10.00 Det=-7.35D-12
 Inversion failed.  Reducing to 15 matrices.
 Large coefficients: NSaved= 15 BigCof=   10.89 CofMax=   10.00 Det=-7.39D-12
 Inversion failed.  Reducing to 14 matrices.
 Large coefficients: NSaved= 14 BigCof=   10.99 CofMax=   10.00 Det=-7.47D-12
 Inversion failed.  Reducing to 13 matrices.
 Large coefficients: NSaved= 13 BigCof=   10.73 CofMax=   10.00 Det=-7.63D-12
 Inversion failed.  Reducing to 12 matrices.
 Coeff-Com:  0.705D-02 0.181D-01-0.101D+00 0.191D+00-0.160D+00-0.731D-01
 Coeff-Com:  0.298D+00 0.187D+00-0.918D+00 0.328D+01-0.995D+01 0.822D+01
 Coeff:      0.705D-02 0.181D-01-0.101D+00 0.191D+00-0.160D+00-0.731D-01
 Coeff:      0.298D+00 0.187D+00-0.918D+00 0.328D+01-0.995D+01 0.822D+01
 Gap=     0.068 Goal=   None    Shift=    0.400
 RMSDP=1.19D-06 MaxDP=2.33D-04 DE=-3.12D-08 OVMax= 1.24D-04

 Cycle  21  Pass 1  IDiag  1:
 E= -61.7821743774199     Delta-E=       -0.000000020645 Rises=F Damp=F
 DIIS: error= 5.71D-06 at cycle  21 NSaved=  13.
 NSaved=13 IEnMin=13 EnMin= -61.7821743774199     IErMin=13 ErrMin= 5.71D-06
 ErrMax= 5.71D-06  0.00D+00 EMaxC= 1.00D-01 BMatC= 5.07D-09 BMatP= 7.93D-09
 IDIUse=1 WtCom= 1.00D+00 WtEn= 0.00D+00
 Large coefficients: NSaved= 13 BigCof=   12.77 CofMax=   10.00 Det=-1.91D-12
 Inversion failed.  Reducing to 12 matrices.
 Large coefficients: NSaved= 12 BigCof=   12.75 CofMax=   10.00 Det=-1.92D-12
 Inversion failed.  Reducing to 11 matrices.
 Large coefficients: NSaved= 11 BigCof=   11.52 CofMax=   10.00 Det=-2.20D-12
 Inversion failed.  Reducing to 10 matrices.
 Large coefficients: NSaved= 10 BigCof=   10.59 CofMax=   10.00 Det=-2.47D-12
 Inversion failed.  Reducing to  9 matrices.
 Large coefficients: NSaved=  9 BigCof=   10.63 CofMax=   10.00 Det=-2.47D-12
 Inversion failed.  Reducing to  8 matrices.
 Large coefficients: NSaved=  8 BigCof=   10.23 CofMax=   10.00 Det=-2.53D-12
 Inversion failed.  Reducing to  7 matrices.
 Coeff-Com:  0.752D-01 0.192D+00-0.647D+00 0.255D+01-0.891D+01 0.794D+01
 Coeff-Com: -0.209D+00
 Coeff:      0.752D-01 0.192D+00-0.647D+00 0.255D+01-0.891D+01 0.794D+01
 Coeff:     -0.209D+00
 Gap=     0.068 Goal=   None    Shift=    0.400
 RMSDP=9.37D-07 MaxDP=1.39D-04 DE=-2.06D-08 OVMax= 1.03D-04

 Cycle  22  Pass 1  IDiag  1:
 E= -61.7821743879624     Delta-E=       -0.000000010542 Rises=F Damp=F
 DIIS: error= 4.68D-06 at cycle  22 NSaved=   8.
 NSaved= 8 IEnMin= 8 EnMin= -61.7821743879624     IErMin= 8 ErrMin= 4.68D-06
 ErrMax= 4.68D-06  0.00D+00 EMaxC= 1.00D-01 BMatC= 3.51D-09 BMatP= 5.07D-09
 IDIUse=1 WtCom= 1.00D+00 WtEn= 0.00D+00
 Coeff-Com: -0.158D+00 0.639D+00-0.754D+00 0.173D+01-0.500D+01 0.467D+01
 Coeff-Com: -0.410D+01 0.397D+01
 Coeff:     -0.158D+00 0.639D+00-0.754D+00 0.173D+01-0.500D+01 0.467D+01
 Coeff:     -0.410D+01 0.397D+01
 Gap=     0.068 Goal=   None    Shift=    0.400
 RMSDP=6.89D-07 MaxDP=7.06D-05 DE=-1.05D-08 OVMax= 8.18D-05

 Cycle  23  Pass 1  IDiag  1:
 E= -61.7821743961897     Delta-E=       -0.000000008227 Rises=F Damp=F
 DIIS: error= 3.89D-06 at cycle  23 NSaved=   9.
 NSaved= 9 IEnMin= 9 EnMin= -61.7821743961897     IErMin= 9 ErrMin= 3.89D-06
 ErrMax= 3.89D-06  0.00D+00 EMaxC= 1.00D-01 BMatC= 2.34D-09 BMatP= 3.51D-09
 IDIUse=1 WtCom= 1.00D+00 WtEn= 0.00D+00
 Coeff-Com: -0.126D+00 0.506D+00-0.615D+00 0.148D+01-0.415D+01 0.395D+01
 Coeff-Com: -0.370D+01 0.271D+01 0.954D+00
 Coeff:     -0.126D+00 0.506D+00-0.615D+00 0.148D+01-0.415D+01 0.395D+01
 Coeff:     -0.370D+01 0.271D+01 0.954D+00
 Gap=     0.068 Goal=   None    Shift=    0.400
 RMSDP=5.77D-07 MaxDP=6.34D-05 DE=-8.23D-09 OVMax= 6.68D-05

 Cycle  24  Pass 1  IDiag  1:
 E= -61.7821744013269     Delta-E=       -0.000000005137 Rises=F Damp=F
 DIIS: error= 3.19D-06 at cycle  24 NSaved=  10.
 NSaved=10 IEnMin=10 EnMin= -61.7821744013269     IErMin=10 ErrMin= 3.19D-06
 ErrMax= 3.19D-06  0.00D+00 EMaxC= 1.00D-01 BMatC= 1.62D-09 BMatP= 2.34D-09
 IDIUse=1 WtCom= 1.00D+00 WtEn= 0.00D+00
 Large coefficients: NSaved= 10 BigCof=   10.13 CofMax=   10.00 Det=-9.01D-13
 Inversion failed.  Reducing to  9 matrices.
 Coeff-Com:  0.130D+00-0.112D+00 0.447D+00-0.205D+01 0.190D+01 0.943D+00
 Coeff-Com:  0.313D+00-0.861D+01 0.804D+01
 Coeff:      0.130D+00-0.112D+00 0.447D+00-0.205D+01 0.190D+01 0.943D+00
 Coeff:      0.313D+00-0.861D+01 0.804D+01
 Gap=     0.068 Goal=   None    Shift=    0.400
 RMSDP=5.41D-07 MaxDP=5.10D-05 DE=-5.14D-09 OVMax= 5.12D-05

 Cycle  25  Pass 1  IDiag  1:
 E= -61.7821744056210     Delta-E=       -0.000000004294 Rises=F Damp=F
 DIIS: error= 2.60D-06 at cycle  25 NSaved=  10.
 NSaved=10 IEnMin=10 EnMin= -61.7821744056210     IErMin=10 ErrMin= 2.60D-06
 ErrMax= 2.60D-06  0.00D+00 EMaxC= 1.00D-01 BMatC= 1.05D-09 BMatP= 1.62D-09
 IDIUse=1 WtCom= 1.00D+00 WtEn= 0.00D+00
 Coeff-Com:  0.296D+00-0.484D+00 0.113D+01-0.336D+01 0.352D+01-0.188D+01
 Coeff-Com:  0.277D+01-0.501D+01 0.121D+01 0.280D+01
 Coeff:      0.296D+00-0.484D+00 0.113D+01-0.336D+01 0.352D+01-0.188D+01
 Coeff:      0.277D+01-0.501D+01 0.121D+01 0.280D+01
 Gap=     0.068 Goal=   None    Shift=    0.400
 RMSDP=4.09D-07 MaxDP=4.40D-05 DE=-4.29D-09 OVMax= 4.15D-05

 Cycle  26  Pass 1  IDiag  1:
 E= -61.7821744079193     Delta-E=       -0.000000002298 Rises=F Damp=F
 DIIS: error= 2.07D-06 at cycle  26 NSaved=  11.
 NSaved=11 IEnMin=11 EnMin= -61.7821744079193     IErMin=11 ErrMin= 2.07D-06
 ErrMax= 2.07D-06  0.00D+00 EMaxC= 1.00D-01 BMatC= 6.86D-10 BMatP= 1.05D-09
 IDIUse=1 WtCom= 1.00D+00 WtEn= 0.00D+00
 Coeff-Com:  0.263D+00-0.458D+00 0.908D+00-0.233D+01 0.250D+01-0.180D+01
 Coeff-Com:  0.211D+01-0.331D+01 0.929D+00 0.881D+00 0.131D+01
 Coeff:      0.263D+00-0.458D+00 0.908D+00-0.233D+01 0.250D+01-0.180D+01
 Coeff:      0.211D+01-0.331D+01 0.929D+00 0.881D+00 0.131D+01
 Gap=     0.068 Goal=   None    Shift=    0.400
 RMSDP=3.56D-07 MaxDP=4.09D-05 DE=-2.30D-09 OVMax= 3.44D-05

 Cycle  27  Pass 1  IDiag  1:
 E= -61.7821744094310     Delta-E=       -0.000000001512 Rises=F Damp=F
 DIIS: error= 1.69D-06 at cycle  27 NSaved=  12.
 NSaved=12 IEnMin=12 EnMin= -61.7821744094310     IErMin=12 ErrMin= 1.69D-06
 ErrMax= 1.69D-06  0.00D+00 EMaxC= 1.00D-01 BMatC= 4.67D-10 BMatP= 6.86D-10
 IDIUse=1 WtCom= 1.00D+00 WtEn= 0.00D+00
 Coeff-Com:  0.245D-01 0.757D-01 0.754D-01-0.110D+01 0.929D+00 0.200D+01
 Coeff-Com: -0.127D+01-0.397D+01 0.379D+01 0.140D+01-0.860D+01 0.764D+01
 Coeff:      0.245D-01 0.757D-01 0.754D-01-0.110D+01 0.929D+00 0.200D+01
 Coeff:     -0.127D+01-0.397D+01 0.379D+01 0.140D+01-0.860D+01 0.764D+01
 Gap=     0.068 Goal=   None    Shift=    0.400
 RMSDP=3.22D-07 MaxDP=2.97D-05 DE=-1.51D-09 OVMax= 2.70D-05

 Cycle  28  Pass 1  IDiag  1:
 E= -61.7821744105028     Delta-E=       -0.000000001072 Rises=F Damp=F
 DIIS: error= 1.36D-06 at cycle  28 NSaved=  13.
 NSaved=13 IEnMin=13 EnMin= -61.7821744105028     IErMin=13 ErrMin= 1.36D-06
 ErrMax= 1.36D-06  0.00D+00 EMaxC= 1.00D-01 BMatC= 3.11D-10 BMatP= 4.67D-10
 IDIUse=1 WtCom= 1.00D+00 WtEn= 0.00D+00
 Coeff-Com:  0.203D-01 0.604D-01 0.977D-01-0.103D+01 0.883D+00 0.181D+01
 Coeff-Com: -0.117D+01-0.382D+01 0.381D+01 0.136D+01-0.800D+01 0.595D+01
 Coeff-Com:  0.103D+01
 Coeff:      0.203D-01 0.604D-01 0.977D-01-0.103D+01 0.883D+00 0.181D+01
 Coeff:     -0.117D+01-0.382D+01 0.381D+01 0.136D+01-0.800D+01 0.595D+01
 Coeff:      0.103D+01
 Gap=     0.068 Goal=   None    Shift=    0.400
 RMSDP=2.50D-07 MaxDP=2.74D-05 DE=-1.07D-09 OVMax= 2.23D-05

 Cycle  29  Pass 1  IDiag  1:
 E= -61.7821744111890     Delta-E=       -0.000000000686 Rises=F Damp=F
 DIIS: error= 1.11D-06 at cycle  29 NSaved=  14.
 NSaved=14 IEnMin=14 EnMin= -61.7821744111890     IErMin=14 ErrMin= 1.11D-06
 ErrMax= 1.11D-06  0.00D+00 EMaxC= 1.00D-01 BMatC= 2.14D-10 BMatP= 3.11D-10
 IDIUse=1 WtCom= 1.00D+00 WtEn= 0.00D+00
 Coeff-Com:  0.168D-01-0.136D-04 0.673D-01-0.654D+00 0.561D+00 0.165D+01
 Coeff-Com: -0.102D+01-0.326D+01 0.285D+01 0.165D+01-0.556D+01 0.492D+01
 Coeff-Com: -0.462D+01 0.440D+01
 Coeff:      0.168D-01-0.136D-04 0.673D-01-0.654D+00 0.561D+00 0.165D+01
 Coeff:     -0.102D+01-0.326D+01 0.285D+01 0.165D+01-0.556D+01 0.492D+01
 Coeff:     -0.462D+01 0.440D+01
 Gap=     0.068 Goal=   None    Shift=    0.400
 RMSDP=2.17D-07 MaxDP=2.71D-05 DE=-6.86D-10 OVMax= 1.84D-05

 Cycle  30  Pass 1  IDiag  1:
 E= -61.7821744116625     Delta-E=       -0.000000000473 Rises=F Damp=F
 DIIS: error= 9.08D-07 at cycle  30 NSaved=  15.
 NSaved=15 IEnMin=15 EnMin= -61.7821744116625     IErMin=15 ErrMin= 9.08D-07
 ErrMax= 9.08D-07  0.00D+00 EMaxC= 1.00D-01 BMatC= 1.48D-10 BMatP= 2.14D-10
 IDIUse=1 WtCom= 1.00D+00 WtEn= 0.00D+00
 Coeff-Com: -0.154D-01 0.101D+00-0.868D-01-0.391D+00 0.268D+00 0.160D+01
 Coeff-Com: -0.106D+01-0.249D+01 0.269D+01 0.213D+00-0.442D+01 0.471D+01
 Coeff-Com:  0.961D+00-0.705D+01 0.597D+01
 Coeff:     -0.154D-01 0.101D+00-0.868D-01-0.391D+00 0.268D+00 0.160D+01
 Coeff:     -0.106D+01-0.249D+01 0.269D+01 0.213D+00-0.442D+01 0.471D+01
 Coeff:      0.961D+00-0.705D+01 0.597D+01
 Gap=     0.068 Goal=   None    Shift=    0.400
 RMSDP=1.85D-07 MaxDP=2.31D-05 DE=-4.73D-10 OVMax= 1.53D-05

 Cycle  31  Pass 1  IDiag  1:
 E= -61.7821744119974     Delta-E=       -0.000000000335 Rises=F Damp=F
 DIIS: error= 7.71D-07 at cycle  31 NSaved=  16.
 NSaved=16 IEnMin=16 EnMin= -61.7821744119974     IErMin=16 ErrMin= 7.71D-07
 ErrMax= 7.71D-07  0.00D+00 EMaxC= 1.00D-01 BMatC= 1.04D-10 BMatP= 1.48D-10
 IDIUse=1 WtCom= 1.00D+00 WtEn= 0.00D+00
 Large coefficients: NSaved= 16 BigCof=    0.00 CofMax=   10.00 Det=-9.76D-15
 Inversion failed.  Reducing to 15 matrices.
 Coeff-Com:  0.686D-01-0.323D-01-0.495D+00 0.376D+00 0.146D+01-0.923D+00
 Coeff-Com: -0.242D+01 0.244D+01 0.435D+00-0.434D+01 0.438D+01 0.894D+00
 Coeff-Com: -0.581D+01 0.426D+01 0.710D+00
 Coeff:      0.686D-01-0.323D-01-0.495D+00 0.376D+00 0.146D+01-0.923D+00
 Coeff:     -0.242D+01 0.244D+01 0.435D+00-0.434D+01 0.438D+01 0.894D+00
 Coeff:     -0.581D+01 0.426D+01 0.710D+00
 Gap=     0.068 Goal=   None    Shift=    0.400
 RMSDP=1.70D-07 MaxDP=2.19D-05 DE=-3.35D-10 OVMax= 1.27D-05

 Cycle  32  Pass 1  IDiag  1:
 E= -61.7821744122269     Delta-E=       -0.000000000229 Rises=F Damp=F
 DIIS: error= 6.61D-07 at cycle  32 NSaved=  16.
 NSaved=16 IEnMin=16 EnMin= -61.7821744122269     IErMin=16 ErrMin= 6.61D-07
 ErrMax= 6.61D-07  0.00D+00 EMaxC= 1.00D-01 BMatC= 7.31D-11 BMatP= 1.04D-10
 IDIUse=1 WtCom= 1.00D+00 WtEn= 0.00D+00
 Large coefficients: NSaved= 16 BigCof=    0.00 CofMax=   10.00 Det=-6.81D-15
 Inversion failed.  Reducing to 15 matrices.
 Large coefficients: NSaved= 15 BigCof=   11.86 CofMax=   10.00 Det=-8.21D-15
 Inversion failed.  Reducing to 14 matrices.
 Large coefficients: NSaved= 14 BigCof=   11.22 CofMax=   10.00 Det=-8.52D-15
 Inversion failed.  Reducing to 13 matrices.
 Large coefficients: NSaved= 13 BigCof=   11.57 CofMax=   10.00 Det=-1.04D-14
 Inversion failed.  Reducing to 12 matrices.
 Large coefficients: NSaved= 12 BigCof=   12.11 CofMax=   10.00 Det=-1.08D-14
 Inversion failed.  Reducing to 11 matrices.
 Large coefficients: NSaved= 11 BigCof=   13.56 CofMax=   10.00 Det=-1.28D-14
 Inversion failed.  Reducing to 10 matrices.
 Large coefficients: NSaved= 10 BigCof=   13.11 CofMax=   10.00 Det=-1.36D-14
 Inversion failed.  Reducing to  9 matrices.
 Large coefficients: NSaved=  9 BigCof=   12.97 CofMax=   10.00 Det=-1.55D-14
 Inversion failed.  Reducing to  8 matrices.
 Large coefficients: NSaved=  8 BigCof=   11.38 CofMax=   10.00 Det=-1.85D-14
 Inversion failed.  Reducing to  7 matrices.
 Large coefficients: NSaved=  7 BigCof=   11.22 CofMax=   10.00 Det=-1.98D-14
 Inversion failed.  Reducing to  6 matrices.
 Large coefficients: NSaved=  6 BigCof=   11.09 CofMax=   10.00 Det=-2.01D-14
 Inversion failed.  Reducing to  5 matrices.
 Coeff-Com:  0.422D+00-0.319D+00 0.141D+01-0.922D+01 0.871D+01
 Coeff:      0.422D+00-0.319D+00 0.141D+01-0.922D+01 0.871D+01
 Gap=     0.068 Goal=   None    Shift=    0.400
 RMSDP=1.77D-07 MaxDP=2.81D-05 DE=-2.29D-10 OVMax= 1.07D-05

 Cycle  33  Pass 1  IDiag  1:
 E= -61.7821744123874     Delta-E=       -0.000000000160 Rises=F Damp=F
 DIIS: error= 5.58D-07 at cycle  33 NSaved=   6.
 NSaved= 6 IEnMin= 6 EnMin= -61.7821744123874     IErMin= 6 ErrMin= 5.58D-07
 ErrMax= 5.58D-07  0.00D+00 EMaxC= 1.00D-01 BMatC= 5.08D-11 BMatP= 7.31D-11
 IDIUse=1 WtCom= 1.00D+00 WtEn= 0.00D+00
 Coeff-Com:  0.409D+00-0.280D+00 0.131D+01-0.884D+01 0.813D+01 0.273D+00
 Coeff:      0.409D+00-0.280D+00 0.131D+01-0.884D+01 0.813D+01 0.273D+00
 Gap=     0.068 Goal=   None    Shift=    0.400
 DSYEVD-2 returned Info=         376 IAlg= 4 N=   250 NDim=   250 NE2=    41874870 trying  DSYEV.
 RMSDP=1.58D-07 MaxDP=2.61D-05 DE=-1.60D-10 OVMax= 8.98D-06

 Cycle  34  Pass 1  IDiag  1:
 E= -61.7821744125011     Delta-E=       -0.000000000114 Rises=F Damp=F
 DIIS: error= 4.70D-07 at cycle  34 NSaved=   7.
 NSaved= 7 IEnMin= 7 EnMin= -61.7821744125011     IErMin= 7 ErrMin= 4.70D-07
 ErrMax= 4.70D-07  0.00D+00 EMaxC= 1.00D-01 BMatC= 3.54D-11 BMatP= 5.08D-11
 IDIUse=1 WtCom= 1.00D+00 WtEn= 0.00D+00
 Large coefficients: NSaved=  7 BigCof=   10.46 CofMax=   10.00 Det=-9.42D-15
 Inversion failed.  Reducing to  6 matrices.
 Large coefficients: NSaved=  6 BigCof=   10.33 CofMax=   10.00 Det=-9.82D-15
 Inversion failed.  Reducing to  5 matrices.
 Large coefficients: NSaved=  5 BigCof=   10.49 CofMax=   10.00 Det=-1.07D-14
 Inversion failed.  Reducing to  4 matrices.
 Large coefficients: NSaved=  4 BigCof=   10.65 CofMax=   10.00 Det=-1.14D-14
 Inversion failed.  Reducing to  3 matrices.
 Coeff-Com:  0.188D+01-0.914D+01 0.826D+01
 Coeff:      0.188D+01-0.914D+01 0.826D+01
 Gap=     0.068 Goal=   None    Shift=    0.400
 RMSDP=1.14D-07 MaxDP=1.67D-05 DE=-1.14D-10 OVMax= 7.37D-06

 Cycle  35  Pass 1  IDiag  1:
 E= -61.7821744125826     Delta-E=       -0.000000000082 Rises=F Damp=F
 DIIS: error= 4.05D-07 at cycle  35 NSaved=   4.
 NSaved= 4 IEnMin= 4 EnMin= -61.7821744125826     IErMin= 4 ErrMin= 4.05D-07
 ErrMax= 4.05D-07  0.00D+00 EMaxC= 1.00D-01 BMatC= 2.49D-11 BMatP= 3.54D-11
 IDIUse=1 WtCom= 1.00D+00 WtEn= 0.00D+00
 Coeff-Com:  0.123D+01-0.654D+01 0.485D+01 0.146D+01
 Coeff:      0.123D+01-0.654D+01 0.485D+01 0.146D+01
 Gap=     0.068 Goal=   None    Shift=    0.400
 RMSDP=1.08D-07 MaxDP=1.76D-05 DE=-8.15D-11 OVMax= 6.21D-06

 Cycle  36  Pass 1  IDiag  1:
 E= -61.7821744126367     Delta-E=       -0.000000000054 Rises=F Damp=F
 DIIS: error= 3.45D-07 at cycle  36 NSaved=   5.
 NSaved= 5 IEnMin= 5 EnMin= -61.7821744126367     IErMin= 5 ErrMin= 3.45D-07
 ErrMax= 3.45D-07  0.00D+00 EMaxC= 1.00D-01 BMatC= 1.77D-11 BMatP= 2.49D-11
 IDIUse=1 WtCom= 1.00D+00 WtEn= 0.00D+00
 Coeff-Com:  0.809D+00-0.524D+01 0.436D+01 0.418D-01 0.103D+01
 Coeff:      0.809D+00-0.524D+01 0.436D+01 0.418D-01 0.103D+01
 Gap=     0.068 Goal=   None    Shift=    0.400
 RMSDP=9.67D-08 MaxDP=1.64D-05 DE=-5.41D-11 OVMax= 5.19D-06

 Cycle  37  Pass 1  IDiag  1:
 E= -61.7821744126755     Delta-E=       -0.000000000039 Rises=F Damp=F
 DIIS: error= 2.91D-07 at cycle  37 NSaved=   6.
 NSaved= 6 IEnMin= 6 EnMin= -61.7821744126755     IErMin= 6 ErrMin= 2.91D-07
 ErrMax= 2.91D-07  0.00D+00 EMaxC= 1.00D-01 BMatC= 1.25D-11 BMatP= 1.77D-11
 IDIUse=1 WtCom= 1.00D+00 WtEn= 0.00D+00
 Coeff-Com:  0.164D+01-0.491D+01 0.308D+01 0.201D+01-0.657D+01 0.575D+01
 Coeff:      0.164D+01-0.491D+01 0.308D+01 0.201D+01-0.657D+01 0.575D+01
 Gap=     0.068 Goal=   None    Shift=    0.400
 RMSDP=8.02D-08 MaxDP=1.35D-05 DE=-3.87D-11 OVMax= 4.34D-06

 Cycle  38  Pass 1  IDiag  1:
 E= -61.7821744127028     Delta-E=       -0.000000000027 Rises=F Damp=F
 DIIS: error= 2.45D-07 at cycle  38 NSaved=   7.
 NSaved= 7 IEnMin= 7 EnMin= -61.7821744127028     IErMin= 7 ErrMin= 2.45D-07
 ErrMax= 2.45D-07  0.00D+00 EMaxC= 1.00D-01 BMatC= 8.88D-12 BMatP= 1.25D-11
 IDIUse=1 WtCom= 1.00D+00 WtEn= 0.00D+00
 Coeff-Com:  0.996D+00-0.307D+01 0.129D+01 0.296D+01-0.558D+01 0.234D+01
 Coeff-Com:  0.207D+01
 Coeff:      0.996D+00-0.307D+01 0.129D+01 0.296D+01-0.558D+01 0.234D+01
 Coeff:      0.207D+01
 Gap=     0.068 Goal=   None    Shift=    0.400
 RMSDP=7.29D-08 MaxDP=1.28D-05 DE=-2.73D-11 OVMax= 3.64D-06

 Cycle  39  Pass 1  IDiag  1:
 E= -61.7821744127218     Delta-E=       -0.000000000019 Rises=F Damp=F
 DIIS: error= 2.06D-07 at cycle  39 NSaved=   8.
 NSaved= 8 IEnMin= 8 EnMin= -61.7821744127218     IErMin= 8 ErrMin= 2.06D-07
 ErrMax= 2.06D-07  0.00D+00 EMaxC= 1.00D-01 BMatC= 6.27D-12 BMatP= 8.88D-12
 IDIUse=1 WtCom= 1.00D+00 WtEn= 0.00D+00
 Coeff-Com:  0.298D+00-0.168D+01 0.159D+01-0.265D+00-0.104D+01 0.166D+01
 Coeff-Com: -0.271D+01 0.315D+01
 Coeff:      0.298D+00-0.168D+01 0.159D+01-0.265D+00-0.104D+01 0.166D+01
 Coeff:     -0.271D+01 0.315D+01
 Gap=     0.068 Goal=   None    Shift=    0.400
 RMSDP=6.21D-08 MaxDP=1.10D-05 DE=-1.90D-11 OVMax= 3.04D-06

 Cycle  40  Pass 1  IDiag  1:
 E= -61.7821744127353     Delta-E=       -0.000000000013 Rises=F Damp=F
 DIIS: error= 1.74D-07 at cycle  40 NSaved=   9.
 NSaved= 9 IEnMin= 9 EnMin= -61.7821744127353     IErMin= 9 ErrMin= 1.74D-07
 ErrMax= 1.74D-07  0.00D+00 EMaxC= 1.00D-01 BMatC= 4.40D-12 BMatP= 6.27D-12
 IDIUse=1 WtCom= 1.00D+00 WtEn= 0.00D+00
 Coeff-Com:  0.574D+00-0.215D+01 0.231D+01-0.169D+01 0.370D+00 0.209D+01
 Coeff-Com: -0.245D+01-0.147D+01 0.342D+01
 Coeff:      0.574D+00-0.215D+01 0.231D+01-0.169D+01 0.370D+00 0.209D+01
 Coeff:     -0.245D+01-0.147D+01 0.342D+01
 Gap=     0.068 Goal=   None    Shift=    0.400
 RMSDP=5.15D-08 MaxDP=9.08D-06 DE=-1.35D-11 OVMax= 2.55D-06

 Cycle  41  Pass 1  IDiag  1:
 E= -61.7821744127445     Delta-E=       -0.000000000009 Rises=F Damp=F
 DIIS: error= 1.47D-07 at cycle  41 NSaved=  10.
 NSaved=10 IEnMin=10 EnMin= -61.7821744127445     IErMin=10 ErrMin= 1.47D-07
 ErrMax= 1.47D-07  0.00D+00 EMaxC= 1.00D-01 BMatC= 3.11D-12 BMatP= 4.40D-12
 IDIUse=1 WtCom= 1.00D+00 WtEn= 0.00D+00
 Coeff-Com:  0.582D+00-0.188D+01 0.190D+01-0.794D+00-0.945D+00 0.177D+01
 Coeff-Com: -0.619D-01-0.215D+01-0.497D+00 0.308D+01
 Coeff:      0.582D+00-0.188D+01 0.190D+01-0.794D+00-0.945D+00 0.177D+01
 Coeff:     -0.619D-01-0.215D+01-0.497D+00 0.308D+01
 Gap=     0.068 Goal=   None    Shift=    0.400
 RMSDP=4.42D-08 MaxDP=7.87D-06 DE=-9.22D-12 OVMax= 2.13D-06

 Cycle  42  Pass 1  IDiag  1:
 E= -61.7821744127514     Delta-E=       -0.000000000007 Rises=F Damp=F
 DIIS: error= 1.24D-07 at cycle  42 NSaved=  11.
 NSaved=11 IEnMin=11 EnMin= -61.7821744127514     IErMin=11 ErrMin= 1.24D-07
 ErrMax= 1.24D-07  0.00D+00 EMaxC= 1.00D-01 BMatC= 2.18D-12 BMatP= 3.11D-12
 IDIUse=1 WtCom= 1.00D+00 WtEn= 0.00D+00
 Coeff-Com:  0.396D+00-0.134D+01 0.148D+01-0.985D+00-0.328D+00 0.141D+01
 Coeff-Com: -0.510D+00-0.924D+00-0.559D+00 0.649D+00 0.171D+01
 Coeff:      0.396D+00-0.134D+01 0.148D+01-0.985D+00-0.328D+00 0.141D+01
 Coeff:     -0.510D+00-0.924D+00-0.559D+00 0.649D+00 0.171D+01
 Gap=     0.068 Goal=   None    Shift=    0.400
 RMSDP=3.87D-08 MaxDP=6.98D-06 DE=-6.93D-12 OVMax= 1.79D-06

 Cycle  43  Pass 1  IDiag  1:
 E= -61.7821744127560     Delta-E=       -0.000000000005 Rises=F Damp=F
 DIIS: error= 1.04D-07 at cycle  43 NSaved=  12.
 NSaved=12 IEnMin=12 EnMin= -61.7821744127560     IErMin=12 ErrMin= 1.04D-07
 ErrMax= 1.04D-07  0.00D+00 EMaxC= 1.00D-01 BMatC= 1.54D-12 BMatP= 2.18D-12
 IDIUse=1 WtCom= 1.00D+00 WtEn= 0.00D+00
 Large coefficients: NSaved= 12 BigCof=   12.47 CofMax=   10.00 Det=-4.01D-17
 Inversion failed.  Reducing to 11 matrices.
 Large coefficients: NSaved= 11 BigCof=   11.47 CofMax=   10.00 Det=-4.29D-17
 Inversion failed.  Reducing to 10 matrices.
 Large coefficients: NSaved= 10 BigCof=   11.56 CofMax=   10.00 Det=-4.30D-17
 Inversion failed.  Reducing to  9 matrices.
 Large coefficients: NSaved=  9 BigCof=   11.29 CofMax=   10.00 Det=-4.31D-17
 Inversion failed.  Reducing to  8 matrices.
 Large coefficients: NSaved=  8 BigCof=   11.73 CofMax=   10.00 Det=-4.73D-17
 Inversion failed.  Reducing to  7 matrices.
 Large coefficients: NSaved=  7 BigCof=   12.94 CofMax=   10.00 Det=-5.04D-17
 Inversion failed.  Reducing to  6 matrices.
 Large coefficients: NSaved=  6 BigCof=   13.16 CofMax=   10.00 Det=-6.59D-17
 Inversion failed.  Reducing to  5 matrices.
 Large coefficients: NSaved=  5 BigCof=   13.29 CofMax=   10.00 Det=-6.60D-17
 Inversion failed.  Reducing to  4 matrices.
 Large coefficients: NSaved=  4 BigCof=   13.55 CofMax=   10.00 Det=-8.86D-17
 Inversion failed.  Reducing to  3 matrices.
 Large coefficients: NSaved=  3 BigCof=   12.41 CofMax=   10.00 Det=-1.22D-16
 Inversion failed.  Reducing to  2 matrices.
 Coeff-Com: -0.518D+01 0.618D+01
 Coeff:     -0.518D+01 0.618D+01
 Gap=     0.068 Goal=   None    Shift=    0.400
 RMSDP=3.24D-08 MaxDP=5.81D-06 DE=-4.55D-12 OVMax= 1.50D-06

 Cycle  44  Pass 1  IDiag  1:
 E= -61.7821744127593     Delta-E=       -0.000000000003 Rises=F Damp=F
 DIIS: error= 8.83D-08 at cycle  44 NSaved=   3.
 NSaved= 3 IEnMin= 3 EnMin= -61.7821744127593     IErMin= 3 ErrMin= 8.83D-08
 ErrMax= 8.83D-08  0.00D+00 EMaxC= 1.00D-01 BMatC= 1.09D-12 BMatP= 1.54D-12
 IDIUse=1 WtCom= 1.00D+00 WtEn= 0.00D+00
 Coeff-Com: -0.447D+01 0.461D+01 0.856D+00
 Coeff:     -0.447D+01 0.461D+01 0.856D+00
 Gap=     0.068 Goal=   None    Shift=    0.400
 RMSDP=2.79D-08 MaxDP=5.07D-06 DE=-3.37D-12 OVMax= 1.26D-06

 Cycle  45  Pass 1  IDiag  1:
 E= -61.7821744127618     Delta-E=       -0.000000000002 Rises=F Damp=F
 DIIS: error= 7.44D-08 at cycle  45 NSaved=   4.
 NSaved= 4 IEnMin= 4 EnMin= -61.7821744127618     IErMin= 4 ErrMin= 7.44D-08
 ErrMax= 7.44D-08  0.00D+00 EMaxC= 1.00D-01 BMatC= 7.65D-13 BMatP= 1.09D-12
 IDIUse=1 WtCom= 1.00D+00 WtEn= 0.00D+00
 Coeff-Com: -0.194D+01 0.166D+01-0.179D+01 0.307D+01
 Coeff:     -0.194D+01 0.166D+01-0.179D+01 0.307D+01
 Gap=     0.068 Goal=   None    Shift=    0.400
 RMSDP=2.38D-08 MaxDP=4.33D-06 DE=-2.46D-12 OVMax= 1.06D-06

 Cycle  46  Pass 1  IDiag  1:
 E= -61.7821744127631     Delta-E=       -0.000000000001 Rises=F Damp=F
 DIIS: error= 6.27D-08 at cycle  46 NSaved=   5.
 NSaved= 5 IEnMin= 5 EnMin= -61.7821744127631     IErMin= 5 ErrMin= 6.27D-08
 ErrMax= 6.27D-08  0.00D+00 EMaxC= 1.00D-01 BMatC= 5.40D-13 BMatP= 7.65D-13
 IDIUse=1 WtCom= 1.00D+00 WtEn= 0.00D+00
 Large coefficients: NSaved=  5 BigCof=   10.20 CofMax=   10.00 Det=-2.73D-17
 Inversion failed.  Reducing to  4 matrices.
 Coeff-Com:  0.104D+01-0.162D+01-0.540D+01 0.698D+01
 Coeff:      0.104D+01-0.162D+01-0.540D+01 0.698D+01
 Gap=     0.068 Goal=   None    Shift=    0.400
 RMSDP=1.95D-08 MaxDP=3.53D-06 DE=-1.34D-12 OVMax= 8.81D-07

 Cycle  47  Pass 1  IDiag  1:
 E= -61.7821744127644     Delta-E=       -0.000000000001 Rises=F Damp=F
 DIIS: error= 5.29D-08 at cycle  47 NSaved=   5.
 NSaved= 5 IEnMin= 5 EnMin= -61.7821744127644     IErMin= 5 ErrMin= 5.29D-08
 ErrMax= 5.29D-08  0.00D+00 EMaxC= 1.00D-01 BMatC= 3.81D-13 BMatP= 5.40D-13
 IDIUse=1 WtCom= 1.00D+00 WtEn= 0.00D+00
 Coeff-Com:  0.465D+00-0.159D+01-0.235D+01 0.323D+01 0.125D+01
 Coeff:      0.465D+00-0.159D+01-0.235D+01 0.323D+01 0.125D+01
 Gap=     0.068 Goal=   None    Shift=    0.400
 RMSDP=1.70D-08 MaxDP=3.13D-06 DE=-1.25D-12 OVMax= 7.41D-07

 Cycle  48  Pass 1  IDiag  1:
 E= -61.7821744127652     Delta-E=       -0.000000000001 Rises=F Damp=F
 DIIS: error= 4.45D-08 at cycle  48 NSaved=   6.
 NSaved= 6 IEnMin= 6 EnMin= -61.7821744127652     IErMin= 6 ErrMin= 4.45D-08
 ErrMax= 4.45D-08  0.00D+00 EMaxC= 1.00D-01 BMatC= 2.70D-13 BMatP= 3.81D-13
 IDIUse=1 WtCom= 1.00D+00 WtEn= 0.00D+00
 Coeff-Com: -0.626D+00-0.238D+01 0.647D+01-0.310D+01-0.459D+01 0.523D+01
 Coeff:     -0.626D+00-0.238D+01 0.647D+01-0.310D+01-0.459D+01 0.523D+01
 Gap=     0.068 Goal=   None    Shift=    0.400
 RMSDP=1.46D-08 MaxDP=2.70D-06 DE=-8.53D-13 OVMax= 6.20D-07

 Cycle  49  Pass 1  IDiag  1:
 E= -61.7821744127659     Delta-E=       -0.000000000001 Rises=F Damp=F
 DIIS: error= 3.72D-08 at cycle  49 NSaved=   7.
 NSaved= 7 IEnMin= 7 EnMin= -61.7821744127659     IErMin= 7 ErrMin= 3.72D-08
 ErrMax= 3.72D-08  0.00D+00 EMaxC= 1.00D-01 BMatC= 1.90D-13 BMatP= 2.70D-13
 IDIUse=1 WtCom= 1.00D+00 WtEn= 0.00D+00
 Coeff-Com:  0.142D+00-0.658D+00-0.183D+01 0.279D+01-0.151D+00-0.178D+01
 Coeff-Com:  0.250D+01
 Coeff:      0.142D+00-0.658D+00-0.183D+01 0.279D+01-0.151D+00-0.178D+01
 Coeff:      0.250D+01
 Gap=     0.068 Goal=   None    Shift=    0.400
 RMSDP=1.22D-08 MaxDP=2.26D-06 DE=-6.54D-13 OVMax= 5.20D-07

 Cycle  50  Pass 1  IDiag  1:
 E= -61.7821744127664     Delta-E=       -0.000000000000 Rises=F Damp=F
 DIIS: error= 3.13D-08 at cycle  50 NSaved=   8.
 NSaved= 8 IEnMin= 8 EnMin= -61.7821744127664     IErMin= 8 ErrMin= 3.13D-08
 ErrMax= 3.13D-08  0.00D+00 EMaxC= 1.00D-01 BMatC= 1.33D-13 BMatP= 1.90D-13
 IDIUse=1 WtCom= 1.00D+00 WtEn= 0.00D+00
 Coeff-Com:  0.912D+00 0.128D+01-0.910D+01 0.724D+01 0.260D+01-0.397D+01
 Coeff-Com: -0.169D+01 0.371D+01
 Coeff:      0.912D+00 0.128D+01-0.910D+01 0.724D+01 0.260D+01-0.397D+01
 Coeff:     -0.169D+01 0.371D+01
 Gap=     0.068 Goal=   None    Shift=    0.400
 RMSDP=1.01D-08 MaxDP=1.86D-06 DE=-4.83D-13 OVMax= 4.35D-07

 Cycle  51  Pass 1  IDiag  1:
 E= -61.7821744127665     Delta-E=       -0.000000000000 Rises=F Damp=F
 DIIS: error= 2.63D-08 at cycle  51 NSaved=   9.
 NSaved= 9 IEnMin= 9 EnMin= -61.7821744127665     IErMin= 9 ErrMin= 2.63D-08
 ErrMax= 2.63D-08  0.00D+00 EMaxC= 1.00D-01 BMatC= 9.40D-14 BMatP= 1.33D-13
 IDIUse=1 WtCom= 1.00D+00 WtEn= 0.00D+00
 Large coefficients: NSaved=  9 BigCof=   10.74 CofMax=   10.00 Det=-1.70D-18
 Inversion failed.  Reducing to  8 matrices.
 Coeff-Com: -0.438D-01-0.130D+01 0.147D+01-0.198D+00-0.868D-01-0.914D+00
 Coeff-Com:  0.582D+00 0.149D+01
 Coeff:     -0.438D-01-0.130D+01 0.147D+01-0.198D+00-0.868D-01-0.914D+00
 Coeff:      0.582D+00 0.149D+01
 Gap=     0.068 Goal=   None    Shift=    0.400
 RMSDP=8.92D-09 MaxDP=1.66D-06 DE=-1.14D-13 OVMax= 3.67D-07

 Cycle  52  Pass 1  IDiag  1:
 E= -61.7821744127667     Delta-E=       -0.000000000000 Rises=F Damp=F
 DIIS: error= 2.21D-08 at cycle  52 NSaved=   9.
 NSaved= 9 IEnMin= 9 EnMin= -61.7821744127667     IErMin= 9 ErrMin= 2.21D-08
 ErrMax= 2.21D-08  0.00D+00 EMaxC= 1.00D-01 BMatC= 6.63D-14 BMatP= 9.40D-14
 IDIUse=1 WtCom= 1.00D+00 WtEn= 0.00D+00
 Coeff-Com:  0.112D+00-0.573D+00 0.182D+00 0.110D+01-0.524D+00-0.108D+01
 Coeff-Com:  0.972D+00-0.509D+01 0.590D+01
 Coeff:      0.112D+00-0.573D+00 0.182D+00 0.110D+01-0.524D+00-0.108D+01
 Coeff:      0.972D+00-0.509D+01 0.590D+01
 Gap=     0.068 Goal=   None    Shift=    0.400
 DSYEVD-2 returned Info=         501 IAlg= 4 N=   250 NDim=   250 NE2=    41874870 trying  DSYEV.
 RMSDP=7.19D-09 MaxDP=1.33D-06 DE=-1.71D-13 OVMax= 3.06D-07

 Cycle  53  Pass 1  IDiag  1:
 E= -61.7821744127669     Delta-E=       -0.000000000000 Rises=F Damp=F
 DIIS: error= 1.87D-08 at cycle  53 NSaved=  10.
 NSaved=10 IEnMin=10 EnMin= -61.7821744127669     IErMin=10 ErrMin= 1.87D-08
 ErrMax= 1.87D-08  0.00D+00 EMaxC= 1.00D-01 BMatC= 4.68D-14 BMatP= 6.63D-14
 IDIUse=1 WtCom= 1.00D+00 WtEn= 0.00D+00
 Coeff-Com:  0.125D+00-0.518D+00 0.295D+00 0.640D+00-0.410D+00-0.530D+00
 Coeff-Com:  0.952D+00-0.485D+01 0.359D+01 0.171D+01
 Coeff:      0.125D+00-0.518D+00 0.295D+00 0.640D+00-0.410D+00-0.530D+00
 Coeff:      0.952D+00-0.485D+01 0.359D+01 0.171D+01
 Gap=     0.068 Goal=   None    Shift=    0.400
 RMSDP=6.14D-09 MaxDP=1.14D-06 DE=-1.99D-13 OVMax= 2.57D-07

 Cycle  54  Pass 1  IDiag  1:
 E= -61.7821744127670     Delta-E=       -0.000000000000 Rises=F Damp=F
 DIIS: error= 1.58D-08 at cycle  54 NSaved=  11.
 NSaved=11 IEnMin=11 EnMin= -61.7821744127670     IErMin=11 ErrMin= 1.58D-08
 ErrMax= 1.58D-08  0.00D+00 EMaxC= 1.00D-01 BMatC= 3.31D-14 BMatP= 4.68D-14
 IDIUse=1 WtCom= 1.00D+00 WtEn= 0.00D+00
 Coeff-Com:  0.402D-01-0.215D+00 0.319D-01 0.740D+00-0.513D+00-0.483D+00
 Coeff-Com:  0.514D+00-0.262D+01 0.337D+01-0.387D+01 0.401D+01
 Coeff:      0.402D-01-0.215D+00 0.319D-01 0.740D+00-0.513D+00-0.483D+00
 Coeff:      0.514D+00-0.262D+01 0.337D+01-0.387D+01 0.401D+01
 Gap=     0.068 Goal=   None    Shift=    0.400
 RMSDP=5.25D-09 MaxDP=9.77D-07 DE=-1.56D-13 OVMax= 2.16D-07

 SCF Done:  E(ROHF) =  -61.7821744128     A.U. after   54 cycles
            NFock= 54  Conv=0.52D-08     -V/T= 2.8866
 <Sx>= 0.0000 <Sy>= 0.0000 <Sz>= 0.5000 <S**2>= 0.7500 S= 0.5000
 <L.S>=  0.00000000000    
 KE= 3.274874954660D+01 PE=-1.896518995311D+02 EE= 6.825505563276D+01
 Annihilation of the first spin contaminant:
 S**2 before annihilation     0.7500,   after     0.7500
 Leave Link  502 at Thu Apr 19 05:04:22 2018, MaxMem= 10737418240 cpu:             700.4 elap:              44.6
 (Enter /home1/apps/gaussian/16rA.03/g16/l801.exe)
 Windowed orbitals will be sorted by symmetry type.
 An orbital has undefined symmetry, so N**3 symmetry is turned off.
 GenMOA:  NOpAll=  4 NOp2=4 NOpUse=  4 JSym2X=1
 FoFJK:  IHMeth= 1 ICntrl=       0 DoSepK=F KAlg= 0 I1Cent=           0 FoldK=F
 IRaf=         0 NMat=       1 IRICut=       1 DoRegI=T DoRafI=F ISym2E= 1 IDoP0=0 IntGTp=1.
 FoFCou: FMM=F IPFlag=           8 FMFlag=      100000 FMFlg1=           0
         NFxFlg=           0 DoJE=F BraDBF=F KetDBF=F FulRan=T
         wScrn=  0.000000 ICntrl=         0 IOpCl=  1 I1Cent=           0 NGrid=           0
         NMat0=    1 NMatS0=      1 NMatT0=    0 NMatD0=    1 NMtDS0=    0 NMtDT0=    0
 Petite list used in FoFCou.
 <Sx>= 0.0000 <Sy>= 0.0000 <Sz>= 0.5000 <S**2>= 0.7500 S= 0.5000
 Range of M.O.s used for correlation:     1   250
 NBasis=   254 NAE=     9 NBE=     8 NFC=     0 NFV=     0
 NROrb=    250 NOA=     9 NOB=     8 NVA=   241 NVB=   242

 **** Warning!!: The largest alpha MO coefficient is  0.34015035D+03


 **** Warning!!: The largest beta MO coefficient is  0.34017238D+03

 Singles contribution to E2=   -0.1126633444D-03
 Leave Link  801 at Thu Apr 19 05:04:28 2018, MaxMem= 10737418240 cpu:             112.0 elap:               5.8
 (Enter /home1/apps/gaussian/16rA.03/g16/l804.exe)
 Open-shell transformation, MDV= 10737418240 ITran=4 ISComp=1.
 Unit  1 TFree=       1919132 TCopy=       1472956.
 Semi-Direct transformation.
 ModeAB=           2 MOrb=             9 LenV=   10735465740
 LASXX=     68551911 LTotXX=    68551911 LenRXX=    68551911
 LTotAB=    69464250 MaxLAS=   104996250 LenRXY=   104996250
 NonZer=   137103822 LenScr=   206462976 LnRSAI=           0
 LnScr1=           0 LExtra=     7641314 Total=    387652451
 MaxDsk= 67108864000 SrtSym=           F ITran=            4
 DoSDTr:  NPSUse= 20
 JobTyp=1 Pass  1:  I=   1 to   9.
 (rs|ai) integrals will be sorted in core.
 Complete sort for first half transformation.
 First half transformation complete.
 Complete sort for second half transformation.
 Second half transformation complete.
 ModeAB=           2 MOrb=             8 LenV=   10735465740
 LASXX=     61074914 LTotXX=    61074914 LenRXX=    93330000
 LTotAB=    57505492 MaxLAS=    93330000 LenRXY=    57505492
 NonZer=   122149828 LenScr=   183977472 LnRSAI=           0
 LnScr1=           0 LExtra=   181189475 Total=    516002439
 MaxDsk= 67108864000 SrtSym=           F ITran=            4
 DoSDTr:  NPSUse= 20
 JobTyp=2 Pass  1:  I=   1 to   8.
 (rs|ai) integrals will be sorted in core.
 Complete sort for first half transformation.
 First half transformation complete.
 Complete sort for second half transformation.
 Second half transformation complete.
 SymMOI:  orbitals are not symmetric.
 Spin components of T(2) and E(2):
     alpha-alpha T2 =       0.2447932574D-01 E2=     -0.9410336513D-01
     alpha-beta  T2 =       0.1044915070D+00 E2=     -0.4825314270D+00
     beta-beta   T2 =       0.2086485323D-01 E2=     -0.8626204191D-01
 ANorm=    0.1072350760D+01
 E2 =    -0.6630094973D+00 EUMP2 =    -0.62445183910116D+02
 (S**2,0)=  0.75000D+00           (S**2,1)=  0.75000D+00
 E(PUHF)=      -0.61782174413D+02        E(PMP2)=      -0.62445183910D+02
 Recovering and transforming amplitudes from chk file.
 B after Tr=     0.000000    0.000000   -0.000000
         Rot=    1.000000    0.000000    0.000000    0.000000 Ang=   0.00 deg.
 Alpha occ  Sing. vals= 1.050410D+00 1.019667D+00 1.019667D+00 1.011757D+00 9.981619D-01 9.900504D-01 9.789274D-01 9.789274D-01 9.729071D-01
 Alpha occ  NOrbO=     9 NOrbN=     9 NSVal=     9 ThrEig=  0.900000.
 TrMax= 9.995556D-01 PrMax= 1.000000D+00 Trace(Pr)= 9.000000D+00
 B after Tr=     0.000000    0.000000   -0.000000
         Rot=    1.000000    0.000000    0.000000    0.000000 Ang=   0.00 deg.
 Alpha virt Sing. vals= 2.114949D+01 1.288134D+01 1.062084D+01 9.836571D+00 9.836571D+00 5.401016D+00 4.470100D+00 4.470100D+00 3.755050D+00 3.755050D+00
 Alpha virt Sing. vals= 3.680420D+00 3.680420D+00 3.359405D+00 2.726836D+00 2.226891D+00 1.908045D+00 1.908045D+00 1.770812D+00 1.770812D+00 1.601533D+00
 Alpha virt Sing. vals= 1.543901D+00 1.511998D+00 1.511998D+00 1.429226D+00 1.399271D+00 1.399271D+00 1.353605D+00 1.353605D+00 1.333839D+00 1.333839D+00
 Alpha virt Sing. vals= 1.236667D+00 1.191667D+00 1.191667D+00 1.162328D+00 1.143736D+00 1.143736D+00 1.138360D+00 1.107704D+00 1.107704D+00 1.099466D+00
 Alpha virt Sing. vals= 1.098907D+00 1.098907D+00 1.072789D+00 1.072789D+00 1.072342D+00 1.071417D+00 1.071417D+00 1.063807D+00 1.063807D+00 1.046789D+00
 Alpha virt Sing. vals= 1.030914D+00 1.030914D+00 1.025298D+00 1.019764D+00 1.019764D+00 1.019418D+00 1.019418D+00 1.016553D+00 1.016553D+00 1.012724D+00
 Alpha virt Sing. vals= 1.012073D+00 1.012073D+00 1.007034D+00 1.007034D+00 1.005633D+00 1.005633D+00 1.005417D+00 1.002700D+00 1.002247D+00 1.001221D+00
 Alpha virt Sing. vals= 1.001221D+00 1.000304D+00 1.000195D+00 1.000195D+00 1.000089D+00 1.000057D+00 1.000057D+00 1.000026D+00 1.000020D+00 1.000020D+00
 Alpha virt Sing. vals= 1.000006D+00 1.000006D+00 1.000002D+00 1.000001D+00 1.000001D+00 1.000000D+00 1.000000D+00 1.000000D+00 1.000000D+00 1.000000D+00
 Alpha virt Sing. vals= 1.000000D+00 9.999999D-01 9.999998D-01 9.999995D-01 9.999995D-01 9.999994D-01 9.999990D-01 9.999990D-01 9.999982D-01 9.999955D-01
 Alpha virt Sing. vals= 9.999937D-01 9.999937D-01 9.999924D-01 9.999906D-01 9.999873D-01 9.999840D-01 9.999818D-01 9.999818D-01 9.999756D-01 9.999732D-01
 Alpha virt Sing. vals= 9.999731D-01 9.999731D-01 9.999620D-01 9.999465D-01 9.999465D-01 9.999137D-01 9.998901D-01 9.998901D-01 9.998795D-01 9.998795D-01
 Alpha virt Sing. vals= 9.998711D-01 9.998711D-01 9.998680D-01 9.998615D-01 9.998615D-01 9.998334D-01 9.997871D-01 9.997871D-01 9.997596D-01 9.997505D-01
 Alpha virt Sing. vals= 9.997505D-01 9.996752D-01 9.996482D-01 9.996482D-01 9.995844D-01 9.995438D-01 9.995438D-01 9.993497D-01 9.992684D-01 9.992684D-01
 Alpha virt Sing. vals= 9.992462D-01 9.985924D-01 9.985924D-01 9.985912D-01 9.985592D-01 9.983708D-01 9.981758D-01 9.981758D-01 9.981254D-01 9.981254D-01
 Alpha virt Sing. vals= 9.979589D-01 9.975828D-01 9.966611D-01 9.966088D-01 9.966088D-01 9.966082D-01 9.966082D-01 9.964008D-01 9.964008D-01 9.962262D-01
 Alpha virt Sing. vals= 9.962262D-01 9.958004D-01 9.955930D-01 9.955930D-01 9.955870D-01 9.954168D-01 9.951267D-01 9.951267D-01 9.946499D-01 9.946499D-01
 Alpha virt Sing. vals= 9.940487D-01 9.940487D-01 9.935214D-01 9.935214D-01 9.934543D-01 9.933394D-01 9.933394D-01 9.931900D-01 9.931082D-01 9.931082D-01
 Alpha virt Sing. vals= 9.925238D-01 9.925238D-01 9.918718D-01 9.918718D-01 9.911252D-01 9.902666D-01 9.902666D-01 9.902583D-01 9.902583D-01 9.888059D-01
 Alpha virt Sing. vals= 9.888059D-01 9.869699D-01 9.861357D-01 9.861357D-01 9.856593D-01 9.840608D-01 9.825618D-01 9.825618D-01 9.805547D-01 9.805547D-01
 Alpha virt Sing. vals= 9.796333D-01 9.796333D-01 9.795916D-01 9.773082D-01 9.773082D-01 9.752401D-01 9.752401D-01 9.747434D-01 9.709114D-01 9.709114D-01
 Alpha virt Sing. vals= 9.683854D-01 9.683854D-01 9.655310D-01 9.583682D-01 9.566813D-01 9.566813D-01 9.489750D-01 9.475213D-01 9.475213D-01 9.355813D-01
 Alpha virt Sing. vals= 9.355813D-01 9.333322D-01 9.324602D-01 9.324602D-01 9.287327D-01 9.287327D-01 9.102032D-01 9.102032D-01 9.098054D-01 9.098054D-01
 Alpha virt Sing. vals= 9.076456D-01 9.076456D-01 8.987337D-01 8.800950D-01 8.800950D-01 8.766903D-01 8.558595D-01 8.131383D-01 8.131383D-01 7.975396D-01
 Alpha virt Sing. vals= 7.243909D-01
 Alpha virt NOrbO=   530 NOrbN=   241 NSVal=   232 ThrEig=  0.900000.
 TrMax= 9.548439D-01 PrMax= 1.000000D+00 Trace(Pr)= 2.320000D+02
 B after Tr=     0.000000    0.000000   -0.000000
         Rot=    1.000000    0.000000    0.000000    0.000000 Ang=   0.00 deg.
 Beta  occ  Sing. vals= 1.049942D+00 1.019667D+00 1.019667D+00 1.009469D+00 9.905617D-01 9.789274D-01 9.789274D-01 9.728663D-01
 Beta  occ  NOrbO=     8 NOrbN=     8 NSVal=     8 ThrEig=  0.900000.
 TrMax= 9.930376D-01 PrMax= 1.000000D+00 Trace(Pr)= 8.000000D+00
 B after Tr=     0.000000    0.000000   -0.000000
         Rot=    1.000000    0.000000    0.000000    0.000000 Ang=   0.00 deg.
 Beta  virt Sing. vals= 2.429192D+01 1.290908D+01 1.102521D+01 9.836571D+00 9.836571D+00 5.404984D+00 4.470100D+00 4.470100D+00 3.755050D+00 3.755050D+00
 Beta  virt Sing. vals= 3.680420D+00 3.680420D+00 3.507999D+00 2.743628D+00 2.227900D+00 1.908045D+00 1.908045D+00 1.770812D+00 1.770812D+00 1.626087D+00
 Beta  virt Sing. vals= 1.552408D+00 1.511998D+00 1.511998D+00 1.435475D+00 1.399271D+00 1.399271D+00 1.353605D+00 1.353605D+00 1.333839D+00 1.333839D+00
 Beta  virt Sing. vals= 1.237509D+00 1.191667D+00 1.191667D+00 1.163643D+00 1.143736D+00 1.143736D+00 1.142666D+00 1.107704D+00 1.107704D+00 1.099512D+00
 Beta  virt Sing. vals= 1.098907D+00 1.098907D+00 1.073780D+00 1.072789D+00 1.072789D+00 1.071417D+00 1.071417D+00 1.063807D+00 1.063807D+00 1.047811D+00
 Beta  virt Sing. vals= 1.030914D+00 1.030914D+00 1.025383D+00 1.019764D+00 1.019764D+00 1.019418D+00 1.019418D+00 1.016553D+00 1.016553D+00 1.013733D+00
 Beta  virt Sing. vals= 1.012073D+00 1.012073D+00 1.007034D+00 1.007034D+00 1.005633D+00 1.005633D+00 1.005617D+00 1.002704D+00 1.002385D+00 1.001221D+00
 Beta  virt Sing. vals= 1.001221D+00 1.000373D+00 1.000195D+00 1.000195D+00 1.000102D+00 1.000057D+00 1.000057D+00 1.000027D+00 1.000020D+00 1.000020D+00
 Beta  virt Sing. vals= 1.000006D+00 1.000006D+00 1.000003D+00 1.000001D+00 1.000001D+00 1.000000D+00 1.000000D+00 1.000000D+00 1.000000D+00 1.000000D+00
 Beta  virt Sing. vals= 1.000000D+00 9.999999D-01 9.999998D-01 9.999995D-01 9.999995D-01 9.999995D-01 9.999990D-01 9.999990D-01 9.999986D-01 9.999955D-01
 Beta  virt Sing. vals= 9.999939D-01 9.999937D-01 9.999937D-01 9.999906D-01 9.999874D-01 9.999850D-01 9.999818D-01 9.999818D-01 9.999810D-01 9.999757D-01
 Beta  virt Sing. vals= 9.999731D-01 9.999731D-01 9.999730D-01 9.999589D-01 9.999465D-01 9.999465D-01 9.999208D-01 9.999112D-01 9.998901D-01 9.998901D-01
 Beta  virt Sing. vals= 9.998795D-01 9.998795D-01 9.998711D-01 9.998711D-01 9.998615D-01 9.998615D-01 9.998328D-01 9.997871D-01 9.997871D-01 9.997624D-01
 Beta  virt Sing. vals= 9.997505D-01 9.997505D-01 9.997005D-01 9.996482D-01 9.996482D-01 9.996116D-01 9.995438D-01 9.995438D-01 9.994500D-01 9.992684D-01
 Beta  virt Sing. vals= 9.992684D-01 9.992452D-01 9.985924D-01 9.985924D-01 9.985614D-01 9.985457D-01 9.983720D-01 9.981758D-01 9.981758D-01 9.981254D-01
 Beta  virt Sing. vals= 9.981254D-01 9.980172D-01 9.975269D-01 9.966088D-01 9.966088D-01 9.966082D-01 9.966082D-01 9.964008D-01 9.964008D-01 9.962773D-01
 Beta  virt Sing. vals= 9.962262D-01 9.962262D-01 9.958257D-01 9.955930D-01 9.955930D-01 9.955843D-01 9.953930D-01 9.951267D-01 9.951267D-01 9.946499D-01
 Beta  virt Sing. vals= 9.946499D-01 9.940487D-01 9.940487D-01 9.935214D-01 9.935214D-01 9.934404D-01 9.933394D-01 9.933394D-01 9.931082D-01 9.931082D-01
 Beta  virt Sing. vals= 9.929861D-01 9.925238D-01 9.925238D-01 9.918718D-01 9.918718D-01 9.905865D-01 9.902666D-01 9.902666D-01 9.902583D-01 9.902583D-01
 Beta  virt Sing. vals= 9.888059D-01 9.888059D-01 9.869752D-01 9.861357D-01 9.861357D-01 9.856334D-01 9.840087D-01 9.825618D-01 9.825618D-01 9.805547D-01
 Beta  virt Sing. vals= 9.805547D-01 9.796333D-01 9.796333D-01 9.795949D-01 9.773082D-01 9.773082D-01 9.752401D-01 9.752401D-01 9.732260D-01 9.709114D-01
 Beta  virt Sing. vals= 9.709114D-01 9.683854D-01 9.683854D-01 9.638837D-01 9.572335D-01 9.566813D-01 9.566813D-01 9.486480D-01 9.475213D-01 9.475213D-01
 Beta  virt Sing. vals= 9.355813D-01 9.355813D-01 9.333288D-01 9.324602D-01 9.324602D-01 9.287327D-01 9.287327D-01 9.102032D-01 9.102032D-01 9.098054D-01
 Beta  virt Sing. vals= 9.098054D-01 9.076456D-01 9.076456D-01 8.987105D-01 8.800950D-01 8.800950D-01 8.762720D-01 8.556246D-01 8.131383D-01 8.131383D-01
 Beta  virt Sing. vals= 7.871673D-01 7.233623D-01
 Beta  virt NOrbO=   531 NOrbN=   242 NSVal=   233 ThrEig=  0.900000.
 TrMax= 9.714737D-01 PrMax= 1.000000D+00 Trace(Pr)= 2.330000D+02
 Leave Link  804 at Thu Apr 19 05:07:43 2018, MaxMem= 10737418240 cpu:            3877.9 elap:             194.4
 (Enter /home1/apps/gaussian/16rA.03/g16/l913.exe)
 CIDS:  MDV= 10737418240.
 IFCWin=0 IBDFC=1 NFBD=     0     0 NFCmp=     0     0 NFFFC=     0     0
 Amplitudes recovered.
 Using DD4UQ or CC4UQ for all iterations.
 Keep R2 and R3 ints in memory in symmetry-blocked form, NReq=658671147.
 FoFCou: FMM=F IPFlag=           8 FMFlag=           0 FMFlg1=           0
         NFxFlg=           0 DoJE=F BraDBF=F KetDBF=F FulRan=T
         wScrn=  0.000000 ICntrl=       600 IOpCl=  0 I1Cent=           0 NGrid=           0
         NMat0=    1 NMatS0=  32385 NMatT0=    0 NMatD0=    1 NMtDS0=    0 NMtDT0=    0
 Petite list used in FoFCou.
 CIDS: In Core Option IDoMem=           1.
 CCSD(T)
 =======
 Iterations= 150 Convergence= 0.100D-06
 Produce multiple copies of IABC intergrals
 Iteration Nr.   1
 **********************
 DD1Dir will call FoFMem   1 times, MxPair=       208
 NAB=    72 NAA=    36 NBB=    28.
 Maximum subspace dimension=  5
 A-vector RMS=  1.9674857D-03 Max=  2.1986499D-02 conv= 1.00D-05.
 RLE energy=       -0.6704953301
 DE(Corr)= -0.67098888     E(Corr)=     -62.453163296    
 NORM(A)=   0.10749816D+01
 Iteration Nr.   2
 **********************
 DD1Dir will call FoFMem   1 times, MxPair=       208
 NAB=    72 NAA=    36 NBB=    28.
 A-vector RMS=  2.3899774D-03 Max=  2.1972871D-02 conv= 1.00D-05.
 RLE energy=       -0.6476217867
 DE(Corr)= -0.64719866     E(CORR)=     -62.429373075     Delta= 2.38D-02
 NORM(A)=   0.10720029D+01
 Iteration Nr.   3
 **********************
 DD1Dir will call FoFMem   1 times, MxPair=       208
 NAB=    72 NAA=    36 NBB=    28.
 A-vector RMS=  7.4629076D-04 Max=  6.0344072D-03 conv= 1.00D-05.
 RLE energy=       -0.6610045935
 DE(Corr)= -0.66339652     E(CORR)=     -62.445570930     Delta=-1.62D-02
 NORM(A)=   0.10758076D+01
 Iteration Nr.   4
 **********************
 DD1Dir will call FoFMem   1 times, MxPair=       208
 NAB=    72 NAA=    36 NBB=    28.
 A-vector RMS=  4.6292711D-04 Max=  4.4797567D-03 conv= 1.00D-05.
 RLE energy=       -0.6618411058
 DE(Corr)= -0.66048569     E(CORR)=     -62.442660101     Delta= 2.91D-03
 NORM(A)=   0.10776766D+01
 Iteration Nr.   5
 **********************
 DD1Dir will call FoFMem   1 times, MxPair=       208
 NAB=    72 NAA=    36 NBB=    28.
 A-vector RMS=  1.5835990D-04 Max=  2.6339431D-03 conv= 1.00D-05.
 RLE energy=       -0.6619431501
 DE(Corr)= -0.66179229     E(CORR)=     -62.443966704     Delta=-1.31D-03
 NORM(A)=   0.10786174D+01
 Iteration Nr.   6
 **********************
[...]
 254       27F-3       -0.00000  -0.00000  -0.00000   0.00000
          Condensed to atoms (all electrons):
               1          2
     1  Sc  10.578671  -0.767360
     2  O   -0.767360   7.956049
          Atomic-Atomic Spin Densities.
               1          2
     1  Sc   1.037153  -0.032296
     2  O   -0.032296   0.027438
 Mulliken charges and spin densities:
               1          2
     1  Sc   1.188689   1.004858
     2  O   -1.188689  -0.004858
 Sum of Mulliken charges =  -0.00000   1.00000
 Mulliken charges and spin densities with hydrogens summed into heavy atoms:
               1          2
     1  Sc   1.188689   1.004858
     2  O   -1.188689  -0.004858
 Electronic spatial extent (au):  <R**2>=             80.0529
 Charge=             -0.0000 electrons
 Dipole moment (field-independent basis, Debye):
    X=              0.0000    Y=              0.0000    Z=              0.1310  Tot=              0.1310
 Quadrupole moment (field-independent basis, Debye-Ang):
   XX=            -22.8124   YY=            -22.8124   ZZ=            -29.7145
   XY=              0.0000   XZ=              0.0000   YZ=              0.0000
 Traceless Quadrupole moment (field-independent basis, Debye-Ang):
   XX=              2.3007   YY=              2.3007   ZZ=             -4.6014
   XY=              0.0000   XZ=              0.0000   YZ=              0.0000
 Octapole moment (field-independent basis, Debye-Ang**2):
  XXX=              0.0000  YYY=              0.0000  ZZZ=            -22.2749  XYY=              0.0000
  XXY=              0.0000  XXZ=             -7.1917  XZZ=              0.0000  YZZ=              0.0000
  YYZ=             -7.1917  XYZ=              0.0000
 Hexadecapole moment (field-independent basis, Debye-Ang**3):
 XXXX=            -66.1596 YYYY=            -66.1596 ZZZZ=           -150.1203 XXXY=              0.0000
 XXXZ=              0.0000 YYYX=              0.0000 YYYZ=              0.0000 ZZZX=              0.0000
 ZZZY=              0.0000 XXYY=            -22.0532 XXZZ=            -36.0403 YYZZ=            -36.0403
 XXYZ=              0.0000 YYXZ=              0.0000 ZZXY=              0.0000
 N-N= 2.686591993902D+01 E-N=-1.896518996511D+02  KE= 3.274874954660D+01
 Orbital energies and kinetic energies (alpha):
                                 1                 2
   1         O                -2.575312          1.226150
   2         O                -1.769367          1.697921
   3         O                -1.535068          2.059453
   4         O                -1.535068          2.059453
   5         O                -1.068900          1.565488
   6         O                -0.579536          2.316271
   7         O                -0.579536          2.316271
   8         O                -0.472199          3.017360
   9         O                -0.193799          0.232015
  10         V                 0.009803          0.047529
  11         V                 0.009803          0.047529
  12         V                 0.020293          0.030311
  13         V                 0.025176          0.042940
  14         V                 0.037801          0.044027
  15         V                 0.037801          0.044027
  16         V                 0.037941          0.042887
  17         V                 0.037941          0.042887
  18         V                 0.039001          0.041369
  19         V                 0.047743          0.140346
  20         V                 0.047743          0.140346
  21         V                 0.073312          0.159119
  22         V                 0.108412          0.368784
  23         V                 0.108412          0.368784
  24         V                 0.110394          0.208609
  25         V                 0.121503          0.160625
  26         V                 0.121503          0.160625
  27         V                 0.129079          0.181002
  28         V                 0.158161          0.183002
  29         V                 0.158161          0.183002
  30         V                 0.158321          0.169094
  31         V                 0.166118          0.180111
  32         V                 0.166118          0.180111
  33         V                 0.170549          0.181809
  34         V                 0.170549          0.181809
  35         V                 0.177531          0.424077
  36         V                 0.177531          0.424077
  37         V                 0.202599          0.398778
  38         V                 0.216567          1.451281
  39         V                 0.216567          1.451281
  40         V                 0.257609          0.506815
  41         V                 0.303733          0.419360
  42         V                 0.303733          0.419360
  43         V                 0.352041          1.934749
  44         V                 0.352041          1.934749
  45         V                 0.381284          0.679462
  46         V                 0.398387          0.517670
  47         V                 0.467115          0.494365
  48         V                 0.467115          0.494365
  49         V                 0.475458          0.703349
  50         V                 0.475458          0.703349
  51         V                 0.479415          0.517247
  52         V                 0.479415          0.517247
  53         V                 0.482118          0.664550
  54         V                 0.486510          0.516738
  55         V                 0.486510          0.516738
  56         V                 0.507111          1.939881
  57         V                 0.507111          1.939881
  58         V                 0.517048          1.146928
  59         V                 0.517048          1.146928
  60         V                 0.530521          0.824031
  61         V                 0.587602          1.339371
  62         V                 0.620487          1.475264
  63         V                 0.620487          1.475264
  64         V                 0.628663          0.791503
  65         V                 0.628663          0.791503
  66         V                 0.637441          0.785152
  67         V                 0.637441          0.785152
  68         V                 0.796852          1.541852
  69         V                 0.796852          1.541852
  70         V                 0.802479          2.299436
  71         V                 0.944854          1.170106
  72         V                 1.005593          1.181296
  73         V                 1.005593          1.181296
  74         V                 1.033602          1.230022
  75         V                 1.033602          1.230022
  76         V                 1.034936          1.407132
  77         V                 1.307735          3.435057
  78         V                 1.323963          2.655117
  79         V                 1.323963          2.655117
  80         V                 1.334542          3.270971
  81         V                 1.334542          3.270971
  82         V                 1.408369          2.218352
  83         V                 1.556560          2.271530
  84         V                 1.637493          2.827185
  85         V                 1.637493          2.827185
  86         V                 1.707290          2.706962
  87         V                 1.707290          2.706962
  88         V                 1.907576          2.840093
  89         V                 1.920970          2.222149
  90         V                 1.920970          2.222149
  91         V                 1.933274          2.658344
  92         V                 1.933274          2.658344
  93         V                 1.988171          2.329734
  94         V                 1.988171          2.329734
  95         V                 2.031188          2.615003
  96         V                 2.031188          2.615003
  97         V                 2.040639          2.666404
  98         V                 2.100814          2.523078
  99         V                 2.100814          2.523078
 100         V                 2.196424          2.988143
 101         V                 2.196424          2.988143
 102         V                 2.230015          3.090567
 103         V                 2.230015          3.090567
 104         V                 2.299714          2.922446
 105         V                 2.419993          2.789012
 106         V                 2.419993          2.789012
 107         V                 2.507232          2.909176
 108         V                 2.507232          2.909176
 109         V                 2.686506          3.498430
 110         V                 2.868458          3.432139
 111         V                 2.868458          3.432139
 112         V                 3.016493          5.868649
 113         V                 3.016493          5.868649
 114         V                 3.029679          4.209037
 115         V                 3.185675          4.008880
 116         V                 3.185675          4.008880
 117         V                 3.222262          6.029091
 118         V                 3.222262          6.029091
 119         V                 3.533805          4.849001
 120         V                 3.651217          5.195661
 121         V                 3.651217          5.195661
 122         V                 3.792153          4.939341
 123         V                 4.147992          5.592553
 124         V                 4.147992          5.592553
 125         V                 4.319924          8.419754
 126         V                 4.610900          6.190444
 127         V                 4.670293          7.513793
 128         V                 4.670293          7.513793
 129         V                 5.136607          6.734238
 130         V                 6.034152         10.352295
 131         V                 6.034152         10.352295
 132         V                 6.042103          9.497430
 133         V                 6.042103          9.497430
 134         V                 6.442299          8.482078
 135         V                 6.442769          7.732959
 136         V                 6.442769          7.732959
 137         V                 6.505006          8.913138
 138         V                 6.525839          7.501533
 139         V                 6.525839          7.501533
 140         V                 6.658219          9.260279
 141         V                 6.658219          9.260279
 142         V                 6.813379         10.657616
 143         V                 6.813379         10.657616
 144         V                 6.996136         10.327612
 145         V                 6.996136         10.327612
 146         V                 7.190289          9.641526
 147         V                 7.279807         10.231803
 148         V                 7.279807         10.231803
 149         V                 7.393628         10.209701
 150         V                 7.393628         10.209701
 151         V                 7.709488         10.904433
 152         V                 7.709488         10.904433
 153         V                 7.856330         10.178344
 154         V                 7.856330         10.178344
 155         V                 7.879411         10.195905
 156         V                 7.879411         10.195905
 157         V                 8.062948         10.305327
 158         V                 8.062948         10.305327
 159         V                 8.317309         10.284431
 160         V                 8.382838         11.534359
 161         V                 8.916733         10.895312
 162         V                 8.916733         10.895313
 163         V                 9.073853         11.233871
 164         V                 9.073853         11.233871
 165         V                 9.355153         13.472485
 166         V                10.088964         13.272456
 167         V                10.457857         13.080759
 168         V                11.309404         17.363962
 169         V                11.309404         17.363962
 170         V                11.511621         17.497454
 171         V                11.511621         17.497454
 172         V                15.191626         23.159169
 173         V                15.191626         23.159169
 174         V                15.801427         18.929145
 175         V                16.920720         21.253323
 176         V                17.157511         17.841017
 177         V                18.159263         20.154675
 178         V                18.159263         20.154675
 179         V                18.719400         25.731505
 180         V                19.540037         24.303235
 181         V                20.919941         31.238556
 182         V                20.919941         31.238556
 183         V                21.106255         31.371202
 184         V                21.106255         31.371202
 185         V                35.068216         30.445577
 186         V                37.611281         37.207830
 187         V                37.611281         37.207830
 188         V                38.249143         34.516284
 189         V                38.893361         35.888906
 190         V                43.730164         58.242266
 191         V                43.730164         58.242266
 192         V                43.850859         58.361414
 193         V                43.850859         58.361414
 194         V                44.132128         58.738810
 195         V                45.781309         59.267895
 196         V                45.781309         59.267895
 197         V                46.023291         67.370808
 198         V                47.293818         62.744265
 199         V                48.018614         71.656101
 200         V                48.018614         71.656101
 201         V                48.172892         71.740296
 202         V                48.172892         71.740296
 203         V                71.162111         46.322412
 204         V                74.737005         61.475402
 205         V                76.807847         69.531755
 206         V                76.807847         69.531755
 207         V                77.792916         70.400344
 208         V               119.138011        139.201986
 209         V               119.138011        139.201986
 210         V               120.148531        140.113463
 211         V               128.375743         80.115531
 212         V               136.975116        118.688069
 213         V               151.981041        137.189302
 214         V               151.981041        137.189302
 215         V               152.889012        138.141962
 216         V               172.842178        221.273635
 217         V               173.941284        222.306679
 218         V               173.941284        222.306679
 219         V               174.032338        222.389274
 220         V               174.032338        222.389274
 221         V               229.845895        170.523614
 222         V               257.732528        231.980297
 223         V               286.409948        314.683526
 224         V               286.409948        314.683526
 225         V               287.335657        315.559242
 226         V               302.708019        281.132314
 227         V               302.708019        281.132314
 228         V               303.591103        282.051154
 229         V               436.903271        366.348834
 230         V               555.224598        520.491128
 231         V               626.159474        598.947365
 232         V               626.159474        598.947365
 233         V               626.986702        599.783372
 234         V               879.819562        799.210864
 235         V              1382.904313       1351.965315
 236         V              1382.904313       1351.965315
 237         V              1383.654913       1352.718605
 238         V              1529.743445       1488.753041
 239         V              1880.695971       1793.144023
 240         V              3367.659680       3334.749854
 241         V              3367.659680       3334.749854
 242         V              3368.315040       3335.405904
 243         V              4281.748123       4190.199063
 244         V              5659.885140       5616.210242
 245         V              9655.017298       9621.239812
 246         V              9655.017298       9621.239812
 247         V              9655.554988       9621.777640
 248         V             10491.586422      10398.007384
 249         V             28839.986243      28745.460220
 250         V             31586.437536      31541.939874
 Total kinetic energy from orbitals= 3.298076501923D+01
                          Isotropic Fermi Contact Couplings
        Atom                 a.u.       MegaHertz       Gauss      10(-4) cm-1
     1  Sc(45)             0.00002       0.02590       0.00924       0.00864
     2  O(17)              0.00005      -0.03244      -0.01158      -0.01082
 --------------------------------------------------------
       Center         ----  Spin Dipole Couplings  ----
                      3XX-RR        3YY-RR        3ZZ-RR
 --------------------------------------------------------
     1   Atom       -0.015515     -0.015515      0.031030
     2   Atom       -0.012528     -0.012528      0.025055
 --------------------------------------------------------
                        XY            XZ            YZ
 --------------------------------------------------------
     1   Atom        0.000000      0.000000      0.000000
     2   Atom        0.000000      0.000000      0.000000
 --------------------------------------------------------


 ---------------------------------------------------------------------------------
              Anisotropic Spin Dipole Couplings in Principal Axis System
 ---------------------------------------------------------------------------------

       Atom             a.u.   MegaHertz   Gauss  10(-4) cm-1        Axes

              Baa    -0.0155    -2.014    -0.719    -0.672 -0.0000  1.0000  0.0000
     1 Sc(45) Bbb    -0.0155    -2.014    -0.719    -0.672  1.0000  0.0000  0.0000
              Bcc     0.0310     4.028     1.437     1.344  0.0000  0.0000  1.0000
 
              Baa    -0.0125     0.906     0.323     0.302 -0.0000  1.0000  0.0000
     2 O(17)  Bbb    -0.0125     0.906     0.323     0.302  1.0000  0.0000  0.0000
              Bcc     0.0251    -1.813    -0.647    -0.605  0.0000  0.0000  1.0000
 

 ---------------------------------------------------------------------------------

 No NMR shielding tensors so no spin-rotation constants.
 Leave Link  601 at Thu Apr 19 05:25:40 2018, MaxMem= 10737418240 cpu:              84.1 elap:               4.3
 (Enter /home1/apps/gaussian/16rA.03/g16/l9999.exe)
 1\1\GINC-C434-043\SP\ROCCSD(T)-Full\Gen\O1Sc1(2)\AANNABE\19-Apr-2018\0
 \\#P ROCCSD(T)=(maxcyc=150, Full, SaveAmplitudes, ReadAmplitudes)/Gen 
 5d 7f SCF=(maxcycles=300, VShift=400) Integral(NoXCTest) MaxDisk=500GB
  Pop=Full Pseudo=Read Guess=Read\\ScO\\0,2\Sc,0,0.,0.,0.\O,0,0.,0.,1.3
 \\Version=ES64L-G16RevA.03\State=2-SG\HF=-61.7821744\MP2=-62.4451839\P
 UHF=-61.7821744\PMP2-0=-62.4451839\CCSD=-62.4442232\CCSD(T)=-62.474008
 3\RMSD=5.246e-09\PG=C*V [C*(O1Sc1)]\\@


 WE ARE PERHAPS NOT FAR REMOVED FROM THE TIME WHEN WE SHALL BE ABLE TO SUBMIT
 THE BULK OF CHEMICAL PHENOMENA TO CALCULATION.

            -- JOSEPH LOUIS GAY-LUSSAC
               MEMOIRES DE LA SOCIETE D'ARCUEIL, 2, 207 (1808)
 Job cpu time:       0 days  7 hours 16 minutes 30.3 seconds.
 Elapsed time:       0 days  0 hours 22 minutes  5.5 seconds.
 File lengths (MBytes):  RWF=  12409 Int=      0 D2E=      0 Chk=     91 Scr=      1
 Normal termination of Gaussian 16 at Thu Apr 19 05:25:41 2018.
