 Entering Gaussian System, Link 0=g16
 Initial command:
 /home1/apps/gaussian/16rA.03/g16/l1.exe "/tmp/Gau-251004.inp" -scrdir="/tmp/"
 Entering Link 1 = /home1/apps/gaussian/16rA.03/g16/l1.exe PID=    251005.
  
 Copyright (c) 1988,1990,1992,1993,1995,1998,2003,2009,2016,
            Gaussian, Inc.  All Rights Reserved.
  
 This is part of the Gaussian(R) 16 program.  It is based on
 the Gaussian(R) 09 system (copyright 2009, Gaussian, Inc.),
 the Gaussian(R) 03 system (copyright 2003, Gaussian, Inc.),
 the Gaussian(R) 98 system (copyright 1998, Gaussian, Inc.),
 the Gaussian(R) 94 system (copyright 1995, Gaussian, Inc.),
 the Gaussian 92(TM) system (copyright 1992, Gaussian, Inc.),
 the Gaussian 90(TM) system (copyright 1990, Gaussian, Inc.),
 the Gaussian 88(TM) system (copyright 1988, Gaussian, Inc.),
 the Gaussian 86(TM) system (copyright 1986, Carnegie Mellon
 University), and the Gaussian 82(TM) system (copyright 1983,
 Carnegie Mellon University). Gaussian is a federally registered
 trademark of Gaussian, Inc.
  
 This software contains proprietary and confidential information,
 including trade secrets, belonging to Gaussian, Inc.
  
 This software is provided under written license and may be
 used, copied, transmitted, or stored only in accord with that
 written license.
  
 The following legend is applicable only to US Government
 contracts under FAR:
  
                    RESTRICTED RIGHTS LEGEND
  
 Use, reproduction and disclosure by the US Government is
 subject to restrictions as set forth in subparagraphs (a)
 and (c) of the Commercial Computer Software - Restricted
 Rights clause in FAR 52.227-19.
  
 Gaussian, Inc.
 340 Quinnipiac St., Bldg. 40, Wallingford CT 06492
  
  
 ---------------------------------------------------------------
 Warning -- This program may not be used in any manner that
 competes with the business of Gaussian, Inc. or will provide
 assistance to any competitor of Gaussian, Inc.  The licensee
 of this program is prohibited from giving any competitor of
 Gaussian, Inc. access to this program.  By using this program,
 the user acknowledges that Gaussian, Inc. is engaged in the
 business of creating and licensing software in the field of
 computational chemistry and represents and warrants to the
 licensee that it is not a competitor of Gaussian, Inc. and that
 it will not use this program in any manner prohibited above.
 ---------------------------------------------------------------
  

 Cite this work as:
 Gaussian 16, Revision A.03,
 M. J. Frisch, G. W. Trucks, H. B. Schlegel, G. E. Scuseria, 
 M. A. Robb, J. R. Cheeseman, G. Scalmani, V. Barone, 
 G. A. Petersson, H. Nakatsuji, X. Li, M. Caricato, A. V. Marenich, 
 J. Bloino, B. G. Janesko, R. Gomperts, B. Mennucci, H. P. Hratchian, 
 J. V. Ortiz, A. F. Izmaylov, J. L. Sonnenberg, D. Williams-Young, 
 F. Ding, F. Lipparini, F. Egidi, J. Goings, B. Peng, A. Petrone, 
 T. Henderson, D. Ranasinghe, V. G. Zakrzewski, J. Gao, N. Rega, 
 G. Zheng, W. Liang, M. Hada, M. Ehara, K. Toyota, R. Fukuda, 
 J. Hasegawa, M. Ishida, T. Nakajima, Y. Honda, O. Kitao, H. Nakai, 
 T. Vreven, K. Throssell, J. A. Montgomery, Jr., J. E. Peralta, 
 F. Ogliaro, M. J. Bearpark, J. J. Heyd, E. N. Brothers, K. N. Kudin, 
 V. N. Staroverov, T. A. Keith, R. Kobayashi, J. Normand, 
 K. Raghavachari, A. P. Rendell, J. C. Burant, S. S. Iyengar, 
 J. Tomasi, M. Cossi, J. M. Millam, M. Klene, C. Adamo, R. Cammi, 
 J. W. Ochterski, R. L. Martin, K. Morokuma, O. Farkas, 
 J. B. Foresman, and D. J. Fox, Gaussian, Inc., Wallingford CT, 2016.
 
 ******************************************
 Gaussian 16:  ES64L-G16RevA.03 25-Dec-2016
                 7-Mar-2018 
 ******************************************
 %MEM=80GB
 %CPU=0-15
 SetSPE:  set environment variable "MP_BIND" = "yes"
 SetSPE:  set environment variable "MP_BLIST" = "0,1,2,3,4,5,6,7,8,9,10,11,12,13,14,15"
 Will use up to   16 processors via shared memory.
 %RWF=/scratch/04843/aannabe/gaussian/
 %Int=/scratch/04843/aannabe/gaussian/
 %D2E=/scratch/04843/aannabe/gaussian/
 %NoSave
 %CHK=Cr
 ----------------------------------------------------------------------
 #P ROCCSD(T)=(maxcyc=150, Full)/Gen 5d 7f SCF=(maxcycles=300, NoVarAcc
 , VShift=300) Integral(NoXCTest, DKHSO) MaxDisk=100GB Pop=Regular IOp(
 5/15=2)
 ----------------------------------------------------------------------
 1/38=1,172=1/1;
 2/12=2,17=6,18=5,40=1/2;
 3/5=7,8=11,11=2,25=1,30=1,47=8,91=5,116=101/1,2,3;
 4//1;
 5/5=2,7=300,10=300,15=2,38=1/2;
 8/5=-1,6=4,9=120000,10=90/1,4;
 9/5=7,6=150,14=2/13;
 6//1;
 99/5=1,9=1/99;
 Leave Link    1 at Wed Mar  7 17:01:11 2018, MaxMem= 10737418240 cpu:               1.2 elap:               0.1
 (Enter /home1/apps/gaussian/16rA.03/g16/l101.exe)
 --
 Cr
 --
 Symbolic Z-matrix:
 Charge =  0 Multiplicity = 7
 Cr                    0.        0.        0. 
 
 ITRead=  0
 MicOpt= -1
 NAtoms=      1 NQM=        1 NQMF=       0 NMMI=      0 NMMIF=      0
                NMic=       0 NMicF=      0.
                    Isotopes and Nuclear Properties:
 (Nuclear quadrupole moments (NQMom) in fm**2, nuclear magnetic moments (NMagM)
  in nuclear magnetons)

  Atom         1
 IAtWgt=          52
 AtmWgt=  51.9405097
 NucSpn=           0
 AtZEff=  -0.0000000
 NQMom=    0.0000000
 NMagM=    0.0000000
 AtZNuc=  24.0000000
 Leave Link  101 at Wed Mar  7 17:01:11 2018, MaxMem= 10737418240 cpu:               1.4 elap:               0.1
 (Enter /home1/apps/gaussian/16rA.03/g16/l202.exe)
                          Input orientation:                          
 ---------------------------------------------------------------------
 Center     Atomic      Atomic             Coordinates (Angstroms)
 Number     Number       Type             X           Y           Z
 ---------------------------------------------------------------------
      1         24           0        0.000000    0.000000    0.000000
 ---------------------------------------------------------------------
 Stoichiometry    Cr(7)
 Framework group  OH[O(Cr)]
 Deg. of freedom     0
 Full point group                 OH      NOp  48
 Largest Abelian subgroup         D2H     NOp   8
 Largest concise Abelian subgroup C1      NOp   1
                         Standard orientation:                         
 ---------------------------------------------------------------------
 Center     Atomic      Atomic             Coordinates (Angstroms)
 Number     Number       Type             X           Y           Z
 ---------------------------------------------------------------------
      1         24           0        0.000000    0.000000    0.000000
 ---------------------------------------------------------------------
 Leave Link  202 at Wed Mar  7 17:01:11 2018, MaxMem= 10737418240 cpu:               0.5 elap:               0.1
 (Enter /home1/apps/gaussian/16rA.03/g16/l301.exe)
 General basis read from cards:  (5D, 7F)
 Centers:       1
 S 1 1.00
     Exponent=  1.1016640000D+07 Coefficients=  1.0000000000D+00
 S 1 1.00
     Exponent=  1.6494230000D+06 Coefficients=  1.0000000000D+00
 S 1 1.00
     Exponent=  3.7535890000D+05 Coefficients=  1.0000000000D+00
 S 1 1.00
     Exponent=  1.0632360000D+05 Coefficients=  1.0000000000D+00
 S 1 1.00
     Exponent=  3.4689760000D+04 Coefficients=  1.0000000000D+00
 S 1 1.00
     Exponent=  1.2524830000D+04 Coefficients=  1.0000000000D+00
 S 1 1.00
     Exponent=  4.8857520000D+03 Coefficients=  1.0000000000D+00
 S 1 1.00
     Exponent=  2.0269180000D+03 Coefficients=  1.0000000000D+00
 S 1 1.00
     Exponent=  8.8436450000D+02 Coefficients=  1.0000000000D+00
 S 1 1.00
     Exponent=  4.0231700000D+02 Coefficients=  1.0000000000D+00
 S 1 1.00
     Exponent=  1.8952710000D+02 Coefficients=  1.0000000000D+00
 S 1 1.00
     Exponent=  9.1860950000D+01 Coefficients=  1.0000000000D+00
 S 1 1.00
     Exponent=  4.5124760000D+01 Coefficients=  1.0000000000D+00
 S 1 1.00
     Exponent=  2.0625120000D+01 Coefficients=  1.0000000000D+00
 S 1 1.00
     Exponent=  1.0319730000D+01 Coefficients=  1.0000000000D+00
 S 1 1.00
     Exponent=  5.1577230000D+00 Coefficients=  1.0000000000D+00
 S 1 1.00
     Exponent=  2.3126280000D+00 Coefficients=  1.0000000000D+00
 S 1 1.00
     Exponent=  1.1030790000D+00 Coefficients=  1.0000000000D+00
 S 1 1.00
     Exponent=  4.9804200000D-01 Coefficients=  1.0000000000D+00
 S 1 1.00
     Exponent=  1.1824700000D-01 Coefficients=  1.0000000000D+00
 S 1 1.00
     Exponent=  5.7356000000D-02 Coefficients=  1.0000000000D+00
 S 1 1.00
     Exponent=  2.5760000000D-02 Coefficients=  1.0000000000D+00
 S 1 1.00
     Exponent=  4.7991000000D+00 Coefficients=  1.0000000000D+00
 S 1 1.00
     Exponent=  1.4287000000D+00 Coefficients=  1.0000000000D+00
 S 1 1.00
     Exponent=  1.1570000000D-02 Coefficients=  1.0000000000D+00
 P 1 1.00
     Exponent=  3.1539890000D+04 Coefficients=  1.0000000000D+00
 P 1 1.00
     Exponent=  7.4602340000D+03 Coefficients=  1.0000000000D+00
 P 1 1.00
     Exponent=  2.4226220000D+03 Coefficients=  1.0000000000D+00
 P 1 1.00
     Exponent=  9.2775470000D+02 Coefficients=  1.0000000000D+00
 P 1 1.00
     Exponent=  3.9480410000D+02 Coefficients=  1.0000000000D+00
 P 1 1.00
     Exponent=  1.8080270000D+02 Coefficients=  1.0000000000D+00
 P 1 1.00
     Exponent=  8.7423930000D+01 Coefficients=  1.0000000000D+00
 P 1 1.00
     Exponent=  4.4034270000D+01 Coefficients=  1.0000000000D+00
 P 1 1.00
     Exponent=  2.2777040000D+01 Coefficients=  1.0000000000D+00
 P 1 1.00
     Exponent=  1.2015470000D+01 Coefficients=  1.0000000000D+00
 P 1 1.00
     Exponent=  6.4117510000D+00 Coefficients=  1.0000000000D+00
 P 1 1.00
     Exponent=  3.3811360000D+00 Coefficients=  1.0000000000D+00
 P 1 1.00
     Exponent=  1.7470540000D+00 Coefficients=  1.0000000000D+00
 P 1 1.00
     Exponent=  8.8500400000D-01 Coefficients=  1.0000000000D+00
 P 1 1.00
     Exponent=  4.3302800000D-01 Coefficients=  1.0000000000D+00
 P 1 1.00
     Exponent=  1.7396200000D-01 Coefficients=  1.0000000000D+00
 P 1 1.00
     Exponent=  7.2823000000D-02 Coefficients=  1.0000000000D+00
 P 1 1.00
     Exponent=  2.9952000000D-02 Coefficients=  1.0000000000D+00
 P 1 1.00
     Exponent=  6.4552000000D+00 Coefficients=  1.0000000000D+00
 P 1 1.00
     Exponent=  1.6531000000D+00 Coefficients=  1.0000000000D+00
 P 1 1.00
     Exponent=  1.2320000000D-02 Coefficients=  1.0000000000D+00
 D 1 1.00
     Exponent=  2.8131200000D+02 Coefficients=  1.0000000000D+00
 D 1 1.00
     Exponent=  8.3188500000D+01 Coefficients=  1.0000000000D+00
 D 1 1.00
     Exponent=  3.1839600000D+01 Coefficients=  1.0000000000D+00
 D 1 1.00
     Exponent=  1.3602600000D+01 Coefficients=  1.0000000000D+00
 D 1 1.00
     Exponent=  6.1829800000D+00 Coefficients=  1.0000000000D+00
 D 1 1.00
     Exponent=  2.9227000000D+00 Coefficients=  1.0000000000D+00
 D 1 1.00
     Exponent=  1.3821600000D+00 Coefficients=  1.0000000000D+00
 D 1 1.00
     Exponent=  6.3946000000D-01 Coefficients=  1.0000000000D+00
 D 1 1.00
     Exponent=  2.8489800000D-01 Coefficients=  1.0000000000D+00
 D 1 1.00
     Exponent=  1.2004500000D-01 Coefficients=  1.0000000000D+00
 D 1 1.00
     Exponent=  4.6229000000D-02 Coefficients=  1.0000000000D+00
 D 1 1.00
     Exponent=  4.0848000000D+00 Coefficients=  1.0000000000D+00
 D 1 1.00
     Exponent=  2.1405000000D+00 Coefficients=  1.0000000000D+00
 D 1 1.00
     Exponent=  1.7800000000D-02 Coefficients=  1.0000000000D+00
 F 1 1.00
     Exponent=  5.6633000000D+00 Coefficients=  1.0000000000D+00
 F 1 1.00
     Exponent=  2.3365000000D+00 Coefficients=  1.0000000000D+00
 F 1 1.00
     Exponent=  9.6390000000D-01 Coefficients=  1.0000000000D+00
 F 1 1.00
     Exponent=  3.1420000000D-01 Coefficients=  1.0000000000D+00
 F 1 1.00
     Exponent=  1.0242000000D-01 Coefficients=  1.0000000000D+00
 G 1 1.00
     Exponent=  4.6690000000D+00 Coefficients=  1.0000000000D+00
 G 1 1.00
     Exponent=  1.9538000000D+00 Coefficients=  1.0000000000D+00
 G 1 1.00
     Exponent=  6.8480000000D-01 Coefficients=  1.0000000000D+00
 G 1 1.00
     Exponent=  2.4002000000D-01 Coefficients=  1.0000000000D+00
 H 1 1.00
     Exponent=  4.4133000000D+00 Coefficients=  1.0000000000D+00
 H 1 1.00
     Exponent=  1.6472000000D+00 Coefficients=  1.0000000000D+00
 H 1 1.00
     Exponent=  6.1479000000D-01 Coefficients=  1.0000000000D+00
 ****
 Ernie: Thresh=  0.10000D-02 Tol=  0.10000D-05 Strict=F.
 There are    91 symmetry adapted cartesian basis functions of AG  symmetry.
 There are    26 symmetry adapted cartesian basis functions of B1G symmetry.
 There are    26 symmetry adapted cartesian basis functions of B2G symmetry.
 There are    26 symmetry adapted cartesian basis functions of B3G symmetry.
 There are    14 symmetry adapted cartesian basis functions of AU  symmetry.
 There are    54 symmetry adapted cartesian basis functions of B1U symmetry.
 There are    54 symmetry adapted cartesian basis functions of B2U symmetry.
 There are    54 symmetry adapted cartesian basis functions of B3U symmetry.
 There are    65 symmetry adapted basis functions of AG  symmetry.
 There are    22 symmetry adapted basis functions of B1G symmetry.
 There are    22 symmetry adapted basis functions of B2G symmetry.
 There are    22 symmetry adapted basis functions of B3G symmetry.
 There are    11 symmetry adapted basis functions of AU  symmetry.
 There are    40 symmetry adapted basis functions of B1U symmetry.
 There are    40 symmetry adapted basis functions of B2U symmetry.
 There are    40 symmetry adapted basis functions of B3U symmetry.
   262 basis functions,   345 primitive gaussians,   345 cartesian basis functions
    15 alpha electrons        9 beta electrons
       nuclear repulsion energy         0.0000000000 Hartrees.
 IExCor=    0 DFT=F Ex=HF Corr=None ExCW=0 ScaHFX=  1.000000
 ScaDFX=  1.000000  1.000000  1.000000  1.000000 ScalE2=  1.000000  1.000000
 IRadAn=      5 IRanWt=     -1 IRanGd=            0 ICorTp=0 IEmpDi=  4
 NAtoms=    1 NActive=    1 NUniq=    1 SFac= 1.00D+00 NAtFMM=   60 NAOKFM=F Big=F
 Integral buffers will be    131072 words long.
 Raffenetti 2 integral format.
 Two-electron integral symmetry is turned on.
 FoFCou: FMM=F IPFlag=           8 FMFlag=           0 FMFlg1=           0
         NFxFlg=           0 DoJE=F BraDBF=T KetDBF=T FulRan=T
         wScrn=  0.000000 ICntrl=       600 IOpCl=  3 I1Cent=           6 NGrid=           0
         NMat0=    1 NMatS0=      1 NMatT0=    0 NMatD0=    1 NMtDS0=    0 NMtDT0=    0
 Symmetry not used in FoFCou.
 Finite nuclear repulsion energy         0.0000000000.
 Leave Link  301 at Wed Mar  7 17:01:11 2018, MaxMem= 10737418240 cpu:               2.5 elap:               0.2
 (Enter /home1/apps/gaussian/16rA.03/g16/l302.exe)
 Using DK4 one-electron Hamiltonian with SO, DoBoet=T.
 NPDir=0 NMtPBC=     1 NCelOv=     1 NCel=       1 NClECP=     1 NCelD=      1
         NCelK=      1 NCelE2=     1 NClLst=     1 CellRange=     0.0.
 One-electron integrals computed using PRISM.
 One-electron integral symmetry used in STVInt
 FoFCou: FMM=F IPFlag=           8 FMFlag=      100000 FMFlg1=           0
         NFxFlg=           0 DoJE=T BraDBF=F KetDBF=T FulRan=T
         wScrn=  0.000000 ICntrl=       500 IOpCl=  0 I1Cent=           4 NGrid=           0
         NMat0=    1 NMatS0=      1 NMatT0=    0 NMatD0=    1 NMtDS0=    0 NMtDT0=    0
 Symmetry not used in FoFCou.
 UnConB:  Uncontracting AO basis from    262 functions to    262 functions (excluding duplicates).
 GSVD:  received Info=                   1 from GESDD.
 RelInt: Using uncontracted basis, NUnBas=   262 NBsUse=   262 0.100E-13 EigKep=  5.62D-09 EigRej= -1.00D+00
 NBasis=   262 RedAO= T EigKep=  1.67D-06  NBF=    65    22    22    22    11    40    40    40
 NBsUse=   258 1.00D-06 EigRej=  3.90D-07 NBFU=    64    22    22    22    11    39    39    39
 Leave Link  302 at Wed Mar  7 17:01:14 2018, MaxMem= 10737418240 cpu:              28.5 elap:               2.4
 (Enter /home1/apps/gaussian/16rA.03/g16/l303.exe)
 DipDrv:  MaxL=1.
 Leave Link  303 at Wed Mar  7 17:01:14 2018, MaxMem= 10737418240 cpu:               0.9 elap:               0.1
 (Enter /home1/apps/gaussian/16rA.03/g16/l401.exe)
 ExpMin= 1.16D-02 ExpMax= 1.10D+07 ExpMxC= 1.10D+07 IAcc=4 IRadAn=    399590 AccDes= 0.00D+00
 Harris functional with IExCor=  205 and IRadAn=  399590 diagonalized for initial guess.
 HarFok:  IExCor=  205 AccDes= 0.00D+00 IRadAn=    399590 IDoV= 1 UseB2=F ITyADJ=14
 ICtDFT=  3500011 ScaDFX=  1.000000  1.000000  1.000000  1.000000
 FoFCou: FMM=F IPFlag=           8 FMFlag=      100000 FMFlg1=           0
         NFxFlg=           0 DoJE=T BraDBF=F KetDBF=T FulRan=T
         wScrn=  0.000000 ICntrl=       500 IOpCl=  0 I1Cent=   200000004 NGrid=           0
         NMat0=    1 NMatS0=      1 NMatT0=    0 NMatD0=    1 NMtDS0=    0 NMtDT0=    0
 Petite list used in FoFCou.
 Harris En= -1048.77278766008    
 JPrj=0 DoOrth=F DoCkMO=F.
 Initial guess orbital symmetries:
       Occupied  (A1G) (A1G) (T1U) (T1U) (T1U) (A1G) (T1U) (T1U)
                 (T1U) (A1G) (T2G) (T2G) (EG) (EG) (T2G)
       Virtual   (T1U) (T1U) (T1U) (A1G) (T1U) (T1U) (T1U) (EG)
                 (T2G) (T2G) (EG) (T2G) (A1G) (EG) (EG) (T2G) (T2G)
                 (T2G) (T1U) (T1U) (T1U) (A2U) (?A) (?A) (?A) (?A)
                 (?A) (?A) (A1G) (EG) (T2G) (EG) (T2G) (T2G) (T1U)
                 (T1U) (T1U) (T1G) (T1G) (T1G) (T2G) (T2G) (T2G)
                 (T2G) (T2G) (T2G) (A2U) (?A) (?A) (?A) (?A) (?A)
                 (?A) (EG) (T2G) (T2G) (T2G) (EG) (A1G) (T1U) (T1U)
                 (T1U) (T2G) (EG) (T2G) (T2G) (EG) (A2U) (?A) (?A)
                 (?A) (?A) (?A) (?A) (T1G) (T1G) (T1G) (T2G) (T2G)
                 (T2G) (T2G) (T2G) (T2G) (EU) (EU) (?B) (?B) (?B)
                 (?B) (?B) (?B) (?B) (?B) (?B) (T1U) (T1U) (T1U)
                 (A1G) (T2G) (T2G) (T2G) (EG) (EG) (?A) (?A) (A2U)
                 (?A) (?A) (?A) (?A) (T1U) (T1U) (T1U) (T1G) (T1G)
                 (T1G) (T2G) (T2G) (T2G) (T2G) (T2G) (T2G) (EU)
                 (EU) (?C) (?C) (?C) (?C) (?C) (?C) (?C) (?C) (?C)
                 (T2G) (T2G) (T2G) (EG) (EG) (A1G) (T1U) (T1U)
                 (T1U) (?A) (?A) (?A) (A2U) (?A) (?A) (?A) (T2G)
                 (T2G) (T2G) (EG) (EG) (T1G) (T1G) (T1G) (T2G)
                 (T2G) (T2G) (T2G) (T2G) (T2G) (EU) (EU) (?D) (?D)
                 (?D) (?D) (?D) (?D) (?D) (?D) (?D) (A1G) (T1U)
                 (T1U) (T1U) (T2G) (T2G) (T2G) (EG) (EG) (T2G)
                 (T2G) (T2G) (EG) (EG) (T1U) (T1U) (T1U) (A1G)
                 (T2G) (T2G) (EG) (T2G) (EG) (T1U) (T1U) (T1U)
                 (A1G) (T1U) (T1U) (T1U) (T2G) (T2G) (EG) (T2G)
                 (EG) (A1G) (T1U) (T1U) (T1U) (T2G) (T2G) (T2G)
                 (EG) (EG) (A1G) (T1U) (T1U) (T1U) (A1G) (T1U)
                 (T1U) (T1U) (A1G) (T1U) (T1U) (T1U) (A1G) (T1U)
                 (T1U) (T1U) (A1G) (T1U) (T1U) (T1U) (A1G) (A1G)
                 (A1G) (A1G) (A1G)
 The electronic state of the initial guess is 7-A1G.
 Leave Link  401 at Wed Mar  7 17:01:15 2018, MaxMem= 10737418240 cpu:              10.2 elap:               0.7
 (Enter /home1/apps/gaussian/16rA.03/g16/l502.exe)
 Keep R1 and R2 ints in memory in symmetry-blocked form, NReq=669233233.
 FoFCou: FMM=F IPFlag=           8 FMFlag=           0 FMFlg1=           0
         NFxFlg=           0 DoJE=F BraDBF=F KetDBF=F FulRan=T
         wScrn=  0.000000 ICntrl=       600 IOpCl=  0 I1Cent=           0 NGrid=           0
         NMat0=    1 NMatS0=  34453 NMatT0=    0 NMatD0=    1 NMtDS0=    0 NMtDT0=    0
 Petite list used in FoFCou.
 Restricted open shell SCF:
 Using DIIS extrapolation, IDIIS=  1040.
 NGot= 10737418240 LenX= 10585855578 LenY= 10585736112
 Requested convergence on RMS density matrix=1.00D-08 within 300 cycles.
 Requested convergence on MAX density matrix=1.00D-06.
 Requested convergence on             energy=1.00D-06.
 Virtual orbitals will be shifted by   0.300 hartree.
 No special actions if energy rises.

 Cycle   1  Pass 1  IDiag  1:
 Density matrix breaks symmetry, PCut= 1.00D-07
 Density has only Abelian symmetry.
 E= -1049.51444281310    
 DIIS: error= 1.87D-01 at cycle   1 NSaved=   1.
 NSaved= 1 IEnMin= 1 EnMin= -1049.51444281310     IErMin= 1 ErrMin= 1.87D-01
 ErrMax= 1.87D-01  0.00D+00 EMaxC= 1.00D-01 BMatC= 1.57D+00 BMatP= 1.57D+00
 IDIUse=3 WtCom= 0.00D+00 WtEn= 1.00D+00
 Coeff-Com:  0.100D+01
 Coeff-En:   0.100D+01
 Coeff:      0.100D+01
 Fock symm off for IB=7 I1=   17 I=  197 J=  180 Cut=1.00D-07 Err=1.64D-07
 Fock matrix is not symmetric: symmetry in diagonalization turned off.
 Gap=     0.689 Goal=   None    Shift=    0.300
 GapD=    0.689 DampG=2.000 DampE=0.125 DampFc=0.2500 IDamp=-1.
 Damping current iteration by 2.50D-01
 RMSDP=3.83D-02 MaxDP=6.24D+00              OVMax= 1.00D+00

 Cycle   2  Pass 1  IDiag  1:
 Density matrix breaks symmetry, PCut= 1.00D-07
 Density matrix has no symmetry -- integrals replicated.
 E= -1049.08417903154     Delta-E=        0.430263781558 Rises=F Damp=T
 DIIS: error= 1.40D-01 at cycle   2 NSaved=   2.
 NSaved= 2 IEnMin= 1 EnMin= -1049.51444281310     IErMin= 2 ErrMin= 1.40D-01
 ErrMax= 1.40D-01  0.00D+00 EMaxC= 1.00D-01 BMatC= 9.53D-01 BMatP= 1.57D+00
 IDIUse=3 WtCom= 0.00D+00 WtEn= 1.00D+00
 Coeff-Com: -0.206D+01 0.306D+01
 Coeff-En:   0.000D+00 0.100D+01
 Coeff:      0.000D+00 0.100D+01
 Gap=     0.056 Goal=   None    Shift=    0.000
 RMSDP=1.02D-02 MaxDP=1.60D+00 DE= 4.30D-01 OVMax= 1.00D+00

 Cycle   3  Pass 1  IDiag  1:
 Density matrix breaks symmetry, PCut= 1.00D-07
 Density matrix has no symmetry -- integrals replicated.
 E= -1049.46899904669     Delta-E=       -0.384820015148 Rises=F Damp=F
 DIIS: error= 1.14D-01 at cycle   3 NSaved=   3.
 NSaved= 3 IEnMin= 1 EnMin= -1049.51444281310     IErMin= 3 ErrMin= 1.14D-01
 ErrMax= 1.14D-01  0.00D+00 EMaxC= 1.00D-01 BMatC= 5.97D-01 BMatP= 9.53D-01
 IDIUse=3 WtCom= 0.00D+00 WtEn= 1.00D+00
 EnCoef did   100 forward-backward iterations
 Coeff-Com: -0.129D+01 0.183D+01 0.459D+00
 Coeff-En:   0.536D+00 0.631D-02 0.458D+00
 Coeff:      0.536D+00 0.631D-02 0.458D+00
 Gap=     0.121 Goal=   None    Shift=    0.000
 RMSDP=3.77D-03 MaxDP=5.46D-01 DE=-3.85D-01 OVMax= 2.43D-01

 Cycle   4  Pass 1  IDiag  1:
 Density matrix breaks symmetry, PCut= 1.00D-07
 Density matrix has no symmetry -- integrals replicated.
 E= -1049.61683071608     Delta-E=       -0.147831669396 Rises=F Damp=F
 DIIS: error= 1.86D-02 at cycle   4 NSaved=   4.
 NSaved= 4 IEnMin= 4 EnMin= -1049.61683071608     IErMin= 4 ErrMin= 1.86D-02
 ErrMax= 1.86D-02  0.00D+00 EMaxC= 1.00D-01 BMatC= 1.80D-02 BMatP= 5.97D-01
 IDIUse=3 WtCom= 8.14D-01 WtEn= 1.86D-01
 EnCoef did     1 forward-backward iterations
 Coeff-Com: -0.130D+00 0.184D+00 0.878D-01 0.858D+00
 Coeff-En:   0.333D+00 0.000D+00 0.182D+00 0.485D+00
 Coeff:     -0.436D-01 0.150D+00 0.105D+00 0.788D+00
 Gap=     0.042 Goal=   None    Shift=    0.300
 RMSDP=6.92D-04 MaxDP=5.08D-02 DE=-1.48D-01 OVMax= 1.45D-01

 Cycle   5  Pass 1  IDiag  1:
 Density matrix breaks symmetry, PCut= 1.00D-07
 Density matrix has no symmetry -- integrals replicated.
 E= -1049.66100656150     Delta-E=       -0.044175845414 Rises=F Damp=F
 DIIS: error= 7.95D-03 at cycle   5 NSaved=   5.
 NSaved= 5 IEnMin= 5 EnMin= -1049.66100656150     IErMin= 5 ErrMin= 7.95D-03
 ErrMax= 7.95D-03  0.00D+00 EMaxC= 1.00D-01 BMatC= 2.71D-03 BMatP= 1.80D-02
 IDIUse=3 WtCom= 9.21D-01 WtEn= 7.95D-02
 EnCoef did     2 forward-backward iterations
 Coeff-Com: -0.643D-01 0.906D-01-0.649D-01-0.257D+00 0.130D+01
 Coeff-En:   0.137D+00 0.000D+00 0.000D+00 0.165D+00 0.698D+00
 Coeff:     -0.483D-01 0.834D-01-0.597D-01-0.224D+00 0.125D+01
 Gap=    -0.006 Goal=   None    Shift=    0.300
 RMSDP=3.03D-04 MaxDP=5.80D-02 DE=-4.42D-02 OVMax= 1.97D-02

 Cycle   6  Pass 1  IDiag  1:
 Density matrix breaks symmetry, PCut= 1.00D-07
 Density matrix has no symmetry -- integrals replicated.
 E= -1049.66302546890     Delta-E=       -0.002018907402 Rises=F Damp=F
 DIIS: error= 3.57D-03 at cycle   6 NSaved=   6.
 NSaved= 6 IEnMin= 6 EnMin= -1049.66302546890     IErMin= 6 ErrMin= 3.57D-03
 ErrMax= 3.57D-03  0.00D+00 EMaxC= 1.00D-01 BMatC= 7.24D-04 BMatP= 2.71D-03
 IDIUse=3 WtCom= 9.64D-01 WtEn= 3.57D-02
 EnCoef did     4 forward-backward iterations
 Coeff-Com: -0.605D-01 0.830D-01-0.268D-01-0.151D+00 0.195D+00 0.960D+00
 Coeff-En:   0.879D-01 0.000D+00 0.000D+00 0.182D+00 0.000D+00 0.730D+00
 Coeff:     -0.553D-01 0.800D-01-0.258D-01-0.139D+00 0.188D+00 0.952D+00
 Gap=    -0.001 Goal=   None    Shift=    0.300
 RMSDP=9.76D-05 MaxDP=1.59D-02 DE=-2.02D-03 OVMax= 1.11D-02

 Cycle   7  Pass 1  IDiag  1:
 Density matrix breaks symmetry, PCut= 1.00D-07
 Density matrix has no symmetry -- integrals replicated.
 E= -1049.66364180723     Delta-E=       -0.000616338329 Rises=F Damp=F
 DIIS: error= 2.86D-03 at cycle   7 NSaved=   7.
 NSaved= 7 IEnMin= 7 EnMin= -1049.66364180723     IErMin= 7 ErrMin= 2.86D-03
 ErrMax= 2.86D-03  0.00D+00 EMaxC= 1.00D-01 BMatC= 5.15D-04 BMatP= 7.24D-04
 IDIUse=3 WtCom= 9.71D-01 WtEn= 2.86D-02
 EnCoef did     5 forward-backward iterations
 Coeff-Com: -0.505D-01 0.674D-01-0.224D-01-0.294D-01 0.247D+00-0.115D+01
 Coeff-Com:  0.194D+01
 Coeff-En:   0.703D-01 0.000D+00 0.000D+00 0.207D+00 0.000D+00 0.000D+00
 Coeff-En:   0.723D+00
 Coeff:     -0.470D-01 0.654D-01-0.218D-01-0.226D-01 0.240D+00-0.112D+01
 Coeff:      0.191D+01
 Gap=     0.001 Goal=   None    Shift=    0.300
 RMSDP=5.06D-05 MaxDP=7.75D-03 DE=-6.16D-04 OVMax= 5.35D-03

 Cycle   8  Pass 1  IDiag  1:
 Density matrix breaks symmetry, PCut= 1.00D-07
 Density matrix has no symmetry -- integrals replicated.
 E= -1049.66383488165     Delta-E=       -0.000193074427 Rises=F Damp=F
 DIIS: error= 2.23D-03 at cycle   8 NSaved=   8.
 NSaved= 8 IEnMin= 8 EnMin= -1049.66383488165     IErMin= 8 ErrMin= 2.23D-03
 ErrMax= 2.23D-03  0.00D+00 EMaxC= 1.00D-01 BMatC= 3.80D-04 BMatP= 5.15D-04
 IDIUse=3 WtCom= 9.78D-01 WtEn= 2.23D-02
 EnCoef did     5 forward-backward iterations
 Coeff-Com: -0.444D-01 0.593D-01-0.182D-01-0.138D-01 0.187D+00-0.687D+00
 Coeff-Com:  0.407D+00 0.111D+01
 Coeff-En:   0.620D-01 0.000D+00 0.000D+00 0.218D+00 0.000D+00 0.000D+00
 Coeff-En:   0.000D+00 0.720D+00
 Coeff:     -0.421D-01 0.580D-01-0.178D-01-0.862D-02 0.183D+00-0.671D+00
 Coeff:      0.398D+00 0.110D+01
 Gap=    -0.000 Goal=   None    Shift=    0.300
 RMSDP=3.52D-05 MaxDP=3.73D-03 DE=-1.93D-04 OVMax= 4.14D-03

 Cycle   9  Pass 1  IDiag  1:
 Density matrix breaks symmetry, PCut= 1.00D-07
 Density matrix has no symmetry -- integrals replicated.
 E= -1049.66394159921     Delta-E=       -0.000106717556 Rises=F Damp=F
 DIIS: error= 2.00D-03 at cycle   9 NSaved=   9.
 NSaved= 9 IEnMin= 9 EnMin= -1049.66394159921     IErMin= 9 ErrMin= 2.00D-03
 ErrMax= 2.00D-03  0.00D+00 EMaxC= 1.00D-01 BMatC= 2.66D-04 BMatP= 3.80D-04
 IDIUse=3 WtCom= 9.80D-01 WtEn= 2.00D-02
 EnCoef did   100 forward-backward iterations
 Coeff-Com: -0.254D-01 0.325D-01 0.542D-02 0.485D-01-0.120D+00 0.579D+00
 Coeff-Com: -0.296D+00-0.379D+01 0.456D+01
 Coeff-En:   0.556D-01 0.000D+00 0.000D+00 0.225D+00 0.950D-03 0.964D-02
 Coeff-En:   0.000D+00 0.000D+00 0.709D+00
 Coeff:     -0.238D-01 0.318D-01 0.531D-02 0.521D-01-0.118D+00 0.567D+00
 Coeff:     -0.290D+00-0.371D+01 0.448D+01
 Gap=    -0.003 Goal=   None    Shift=    0.300
 RMSDP=3.39D-05 MaxDP=3.98D-03 DE=-1.07D-04 OVMax= 3.33D-03

 Cycle  10  Pass 1  IDiag  1:
 Density matrix breaks symmetry, PCut= 1.00D-07
 Density matrix has no symmetry -- integrals replicated.
 E= -1049.66404186286     Delta-E=       -0.000100263650 Rises=F Damp=F
 DIIS: error= 1.42D-03 at cycle  10 NSaved=  10.
 NSaved=10 IEnMin=10 EnMin= -1049.66404186286     IErMin=10 ErrMin= 1.42D-03
 ErrMax= 1.42D-03  0.00D+00 EMaxC= 1.00D-01 BMatC= 1.37D-04 BMatP= 2.66D-04
 IDIUse=3 WtCom= 9.86D-01 WtEn= 1.42D-02
 EnCoef did   100 forward-backward iterations
 Coeff-Com: -0.190D-01 0.241D-01 0.375D-02 0.401D-01-0.831D-01 0.269D+00
 Coeff-Com:  0.440D+00-0.356D+01 0.298D+01 0.912D+00
 Coeff-En:   0.537D-01 0.000D+00 0.000D+00 0.226D+00 0.614D-03 0.623D-02
 Coeff-En:   0.000D+00 0.000D+00 0.302D-02 0.710D+00
 Coeff:     -0.179D-01 0.238D-01 0.369D-02 0.427D-01-0.819D-01 0.265D+00
 Coeff:      0.433D+00-0.351D+01 0.294D+01 0.909D+00
 Gap=    -0.005 Goal=   None    Shift=    0.300
 RMSDP=2.78D-05 MaxDP=3.08D-03 DE=-1.00D-04 OVMax= 2.78D-03

 Cycle  11  Pass 1  IDiag  1:
 Density matrix breaks symmetry, PCut= 1.00D-07
 Density matrix has no symmetry -- integrals replicated.
 E= -1049.66409531660     Delta-E=       -0.000053453744 Rises=F Damp=F
 DIIS: error= 1.10D-03 at cycle  11 NSaved=  11.
 NSaved=11 IEnMin=11 EnMin= -1049.66409531660     IErMin=11 ErrMin= 1.10D-03
 ErrMax= 1.10D-03  0.00D+00 EMaxC= 1.00D-01 BMatC= 7.98D-05 BMatP= 1.37D-04
 IDIUse=3 WtCom= 9.89D-01 WtEn= 1.10D-02
 EnCoef did   100 forward-backward iterations
 Coeff-Com: -0.566D-02 0.713D-02 0.599D-03 0.214D-01-0.323D-01-0.209D-01
 Coeff-Com:  0.976D-01-0.370D+00 0.116D+01-0.429D+01 0.443D+01
 Coeff-En:   0.527D-01 0.000D+00 0.000D+00 0.226D+00 0.504D-03 0.511D-02
 Coeff-En:   0.000D+00 0.000D+00 0.248D-02 0.270D-02 0.710D+00
 Coeff:     -0.502D-02 0.705D-02 0.593D-03 0.237D-01-0.319D-01-0.206D-01
 Coeff:      0.965D-01-0.366D+00 0.115D+01-0.424D+01 0.439D+01
 Gap=    -0.009 Goal=   None    Shift=    0.300
 RMSDP=3.94D-05 MaxDP=4.64D-03 DE=-5.35D-05 OVMax= 3.77D-03

 Cycle  12  Pass 1  IDiag  1:
 Density matrix breaks symmetry, PCut= 1.00D-07
 Density matrix has no symmetry -- integrals replicated.
 E= -1049.66414806177     Delta-E=       -0.000052745170 Rises=F Damp=F
 DIIS: error= 5.34D-04 at cycle  12 NSaved=  12.
 NSaved=12 IEnMin=12 EnMin= -1049.66414806177     IErMin=12 ErrMin= 5.34D-04
 ErrMax= 5.34D-04  0.00D+00 EMaxC= 1.00D-01 BMatC= 1.62D-05 BMatP= 7.98D-05
 IDIUse=3 WtCom= 9.95D-01 WtEn= 5.34D-03
 EnCoef did   100 forward-backward iterations
 Rare condition: small coef for last iteration: -0.446D-15
 Coeff-Com: -0.481D-02 0.602D-02 0.129D-02 0.160D-01 0.114D-01-0.168D+00
 Coeff-Com:  0.203D+00-0.831D-01 0.913D+00-0.338D+01 0.249D+01 0.993D+00
 Coeff-En:   0.415D-01 0.000D+00 0.000D+00 0.191D+00 0.593D-03 0.344D-01
 Coeff-En:   0.000D+00 0.000D+00 0.000D+00 0.000D+00 0.000D+00 0.732D+00
 Coeff:     -0.481D-02 0.602D-02 0.129D-02 0.160D-01 0.114D-01-0.168D+00
 Coeff:      0.203D+00-0.831D-01 0.913D+00-0.338D+01 0.249D+01 0.993D+00
 Gap=    -0.010 Goal=   None    Shift=    0.300
 RMSDP=2.11D-05 MaxDP=2.51D-03 DE=-5.27D-05 OVMax= 2.39D-03

 Cycle  13  Pass 1  IDiag  1:
 Density matrix breaks symmetry, PCut= 1.00D-07
 Density matrix has no symmetry -- integrals replicated.
 E= -1049.66416476592     Delta-E=       -0.000016704149 Rises=F Damp=F
 DIIS: error= 3.63D-04 at cycle  13 NSaved=  13.
 NSaved=13 IEnMin=13 EnMin= -1049.66416476592     IErMin=13 ErrMin= 3.63D-04
 ErrMax= 3.63D-04  0.00D+00 EMaxC= 1.00D-01 BMatC= 7.36D-06 BMatP= 1.62D-05
 IDIUse=3 WtCom= 9.96D-01 WtEn= 3.63D-03
 EnCoef did   100 forward-backward iterations
 Rare condition: small coef for last iteration:  0.000D+00
 Coeff-Com: -0.185D-02 0.226D-02 0.199D-02 0.356D-02 0.182D-01 0.342D-01
 Coeff-Com: -0.108D+00-0.174D+00 0.208D+00 0.876D+00-0.124D+01-0.187D+01
 Coeff-Com:  0.324D+01
 Coeff-En:   0.410D-01 0.000D+00 0.000D+00 0.191D+00 0.000D+00 0.250D-01
 Coeff-En:   0.000D+00 0.000D+00 0.000D+00 0.000D+00 0.000D+00 0.000D+00
 Coeff-En:   0.743D+00
 Coeff:     -0.185D-02 0.226D-02 0.199D-02 0.356D-02 0.182D-01 0.342D-01
 Coeff:     -0.108D+00-0.174D+00 0.208D+00 0.876D+00-0.124D+01-0.187D+01
 Coeff:      0.324D+01
 Gap=    -0.011 Goal=   None    Shift=    0.300
 RMSDP=1.79D-05 MaxDP=2.06D-03 DE=-1.67D-05 OVMax= 1.98D-03

 Cycle  14  Pass 1  IDiag  1:
 Density matrix breaks symmetry, PCut= 1.00D-07
 Density matrix has no symmetry -- integrals replicated.
 E= -1049.66417417412     Delta-E=       -0.000009408194 Rises=F Damp=F
 DIIS: error= 2.24D-04 at cycle  14 NSaved=  14.
 NSaved=14 IEnMin=14 EnMin= -1049.66417417412     IErMin=14 ErrMin= 2.24D-04
 ErrMax= 2.24D-04  0.00D+00 EMaxC= 1.00D-01 BMatC= 2.61D-06 BMatP= 7.36D-06
 IDIUse=3 WtCom= 9.98D-01 WtEn= 2.24D-03
 EnCoef did   100 forward-backward iterations
 Rare condition: small coef for last iteration:  0.000D+00
 Coeff-Com: -0.341D-03 0.407D-03 0.431D-03-0.160D-02 0.132D-01 0.227D-01
 Coeff-Com:  0.182D-02-0.183D-01-0.486D+00 0.133D+01-0.479D+00-0.214D+01
 Coeff-Com:  0.712D+00 0.204D+01
 Coeff-En:   0.406D-01 0.000D+00 0.000D+00 0.191D+00 0.000D+00 0.203D-01
 Coeff-En:   0.000D+00 0.000D+00 0.000D+00 0.000D+00 0.000D+00 0.000D+00
 Coeff-En:   0.000D+00 0.748D+00
 Coeff:     -0.341D-03 0.407D-03 0.431D-03-0.160D-02 0.132D-01 0.227D-01
 Coeff:      0.182D-02-0.183D-01-0.486D+00 0.133D+01-0.479D+00-0.214D+01
 Coeff:      0.712D+00 0.204D+01
 Gap=    -0.012 Goal=   None    Shift=    0.300
 RMSDP=1.25D-05 MaxDP=1.44D-03 DE=-9.41D-06 OVMax= 1.42D-03

 Cycle  15  Pass 1  IDiag  1:
 Density matrix breaks symmetry, PCut= 1.00D-07
 Density matrix has no symmetry -- integrals replicated.
 E= -1049.66417828579     Delta-E=       -0.000004111674 Rises=F Damp=F
 DIIS: error= 1.45D-04 at cycle  15 NSaved=  15.
 NSaved=15 IEnMin=15 EnMin= -1049.66417828579     IErMin=15 ErrMin= 1.45D-04
 ErrMax= 1.45D-04  0.00D+00 EMaxC= 1.00D-01 BMatC= 1.47D-06 BMatP= 2.61D-06
 IDIUse=3 WtCom= 9.99D-01 WtEn= 1.45D-03
 EnCoef did   100 forward-backward iterations
 Rare condition: small coef for last iteration: -0.709D-16
 Coeff-Com: -0.100D-02 0.128D-02-0.160D-04 0.129D-02-0.420D-03 0.116D-01
 Coeff-Com:  0.844D-03 0.785D-01-0.350D+00 0.382D+00 0.493D+00-0.946D+00
 Coeff-Com: -0.289D+00-0.799D+00 0.242D+01
 Coeff-En:   0.406D-01 0.000D+00 0.000D+00 0.190D+00 0.000D+00 0.182D-01
 Coeff-En:   0.000D+00 0.000D+00 0.000D+00 0.000D+00 0.000D+00 0.000D+00
 Coeff-En:   0.000D+00 0.000D+00 0.751D+00
 Coeff:     -0.100D-02 0.128D-02-0.160D-04 0.129D-02-0.420D-03 0.116D-01
 Coeff:      0.844D-03 0.785D-01-0.350D+00 0.382D+00 0.493D+00-0.946D+00
 Coeff:     -0.289D+00-0.799D+00 0.242D+01
 Gap=    -0.011 Goal=   None    Shift=    0.300
 DSYEVD-2 returned Info=       50504 IAlg= 4 N=   258 NDim=   258 NE2=    41029983 trying  DSYEV.
 RMSDP=9.12D-06 MaxDP=2.03D-03 DE=-4.11D-06 OVMax= 7.48D-04

 Cycle  16  Pass 1  IDiag  1:
 Density matrix breaks symmetry, PCut= 1.00D-07
 Density matrix has no symmetry -- integrals replicated.
 E= -1049.66417995780     Delta-E=       -0.000001672006 Rises=F Damp=F
 DIIS: error= 1.25D-04 at cycle  16 NSaved=  16.
 NSaved=16 IEnMin=16 EnMin= -1049.66417995780     IErMin=16 ErrMin= 1.25D-04
 ErrMax= 1.25D-04  0.00D+00 EMaxC= 1.00D-01 BMatC= 7.41D-07 BMatP= 1.47D-06
 IDIUse=3 WtCom= 9.99D-01 WtEn= 1.25D-03
 EnCoef did   100 forward-backward iterations
 Rare condition: small coef for last iteration:  0.365D-16
 Coeff-Com:  0.645D-03-0.865D-03 0.175D-03 0.709D-03-0.778D-02 0.359D-01
 Coeff-Com: -0.565D-01 0.168D+00-0.213D+00 0.237D+00-0.434D+00 0.548D+00
 Coeff-Com:  0.264D-01-0.108D+01-0.123D+01 0.301D+01
 Coeff-En:   0.411D-01 0.000D+00 0.000D+00 0.190D+00 0.000D+00 0.165D-01
 Coeff-En:   0.000D+00 0.000D+00 0.000D+00 0.000D+00 0.000D+00 0.000D+00
 Coeff-En:   0.000D+00 0.000D+00 0.000D+00 0.752D+00
 Coeff:      0.645D-03-0.865D-03 0.175D-03 0.709D-03-0.778D-02 0.359D-01
 Coeff:     -0.565D-01 0.168D+00-0.213D+00 0.237D+00-0.434D+00 0.548D+00
 Coeff:      0.264D-01-0.108D+01-0.123D+01 0.301D+01
 Gap=    -0.012 Goal=   None    Shift=    0.300
 RMSDP=7.18D-06 MaxDP=1.14D-03 DE=-1.67D-06 OVMax= 6.44D-04

 Cycle  17  Pass 1  IDiag  1:
 Density matrix breaks symmetry, PCut= 1.00D-07
 Density matrix has no symmetry -- integrals replicated.
 E= -1049.66418104493     Delta-E=       -0.000001087130 Rises=F Damp=F
 DIIS: error= 1.16D-04 at cycle  17 NSaved=  17.
 NSaved=17 IEnMin=17 EnMin= -1049.66418104493     IErMin=17 ErrMin= 1.16D-04
 ErrMax= 1.16D-04  0.00D+00 EMaxC= 1.00D-01 BMatC= 5.81D-07 BMatP= 7.41D-07
 IDIUse=3 WtCom= 9.99D-01 WtEn= 1.16D-03
 EnCoef did   100 forward-backward iterations
 Rare condition: small coef for last iteration:  0.000D+00
 Coeff-Com:  0.492D-03-0.647D-03 0.266D-03 0.880D-04-0.569D-02 0.265D-01
 Coeff-Com: -0.600D-01 0.133D+00-0.101D+00 0.211D+00-0.245D+00-0.264D+00
 Coeff-Com:  0.576D+00-0.125D+00-0.109D+01-0.525D+00 0.246D+01
 Coeff-En:   0.411D-01 0.000D+00 0.000D+00 0.190D+00 0.000D+00 0.124D-01
 Coeff-En:   0.000D+00 0.000D+00 0.000D+00 0.000D+00 0.000D+00 0.000D+00
 Coeff-En:   0.000D+00 0.000D+00 0.000D+00 0.000D+00 0.757D+00
 Coeff:      0.492D-03-0.647D-03 0.266D-03 0.880D-04-0.569D-02 0.265D-01
 Coeff:     -0.600D-01 0.133D+00-0.101D+00 0.211D+00-0.245D+00-0.264D+00
 Coeff:      0.576D+00-0.125D+00-0.109D+01-0.525D+00 0.246D+01
 Gap=    -0.012 Goal=   None    Shift=    0.300
 RMSDP=4.43D-06 MaxDP=9.80D-04 DE=-1.09D-06 OVMax= 3.97D-04

 Cycle  18  Pass 1  IDiag  1:
 Density matrix breaks symmetry, PCut= 1.00D-07
 Density matrix has no symmetry -- integrals replicated.
 E= -1049.66418154583     Delta-E=       -0.000000500903 Rises=F Damp=F
 DIIS: error= 9.06D-05 at cycle  18 NSaved=  18.
 NSaved=18 IEnMin=18 EnMin= -1049.66418154583     IErMin=18 ErrMin= 9.06D-05
 ErrMax= 9.06D-05  0.00D+00 EMaxC= 1.00D-01 BMatC= 3.53D-07 BMatP= 5.81D-07
 IDIUse=1 WtCom= 1.00D+00 WtEn= 0.00D+00
 Coeff-Com:  0.832D-04-0.112D-03 0.204D-03 0.564D-03-0.967D-02 0.453D-01
 Coeff-Com: -0.673D-01 0.229D-01-0.679D-01 0.427D+00-0.395D+00-0.298D+00
 Coeff-Com:  0.504D+00 0.299D+00-0.424D+00-0.391D+00-0.231D+01 0.366D+01
 Coeff:      0.832D-04-0.112D-03 0.204D-03 0.564D-03-0.967D-02 0.453D-01
 Coeff:     -0.673D-01 0.229D-01-0.679D-01 0.427D+00-0.395D+00-0.298D+00
 Coeff:      0.504D+00 0.299D+00-0.424D+00-0.391D+00-0.231D+01 0.366D+01
 Gap=    -0.012 Goal=   None    Shift=    0.300
 RMSDP=3.35D-06 MaxDP=8.97D-04 DE=-5.01D-07 OVMax= 2.22D-04

 Cycle  19  Pass 1  IDiag  1:
 Density matrix breaks symmetry, PCut= 1.00D-07
 Density matrix has no symmetry -- integrals replicated.
 E= -1049.66418178696     Delta-E=       -0.000000241127 Rises=F Damp=F
 DIIS: error= 5.51D-05 at cycle  19 NSaved=  19.
 NSaved=19 IEnMin=19 EnMin= -1049.66418178696     IErMin=19 ErrMin= 5.51D-05
 ErrMax= 5.51D-05  0.00D+00 EMaxC= 1.00D-01 BMatC= 1.74D-07 BMatP= 3.53D-07
 IDIUse=1 WtCom= 1.00D+00 WtEn= 0.00D+00
 Coeff-Com:  0.135D-03-0.179D-03 0.518D-04 0.753D-03-0.817D-02 0.268D-01
 Coeff-Com: -0.491D-01 0.970D-01-0.118D+00 0.116D+00-0.104D+00-0.411D-01
 Coeff-Com:  0.564D-01-0.370D-01 0.749D+00-0.445D+00-0.178D+00-0.374D+01
 Coeff-Com:  0.468D+01
 Coeff:      0.135D-03-0.179D-03 0.518D-04 0.753D-03-0.817D-02 0.268D-01
 Coeff:     -0.491D-01 0.970D-01-0.118D+00 0.116D+00-0.104D+00-0.411D-01
 Coeff:      0.564D-01-0.370D-01 0.749D+00-0.445D+00-0.178D+00-0.374D+01
 Coeff:      0.468D+01
 Gap=    -0.012 Goal=   None    Shift=    0.300
 DSYEVD-2 returned Info=       58792 IAlg= 4 N=   258 NDim=   258 NE2=    41029983 trying  DSYEV.
 RMSDP=1.82D-06 MaxDP=4.78D-04 DE=-2.41D-07 OVMax= 1.52D-04

 Cycle  20  Pass 1  IDiag  1:
 Density matrix breaks symmetry, PCut= 1.00D-07
 Density matrix has no symmetry -- integrals replicated.
 E= -1049.66418191961     Delta-E=       -0.000000132654 Rises=F Damp=F
 DIIS: error= 4.29D-05 at cycle  20 NSaved=  20.
 NSaved=20 IEnMin=20 EnMin= -1049.66418191961     IErMin=20 ErrMin= 4.29D-05
 ErrMax= 4.29D-05  0.00D+00 EMaxC= 1.00D-01 BMatC= 1.23D-07 BMatP= 1.74D-07
 IDIUse=1 WtCom= 1.00D+00 WtEn= 0.00D+00
 Coeff-Com:  0.264D-03-0.347D-03 0.330D-04 0.700D-03-0.781D-02 0.249D-01
 Coeff-Com: -0.513D-01 0.102D+00-0.110D+00 0.101D+00-0.635D-01-0.100D+00
 Coeff-Com:  0.220D+00-0.185D+00-0.267D+00 0.104D+01-0.162D+01 0.332D+01
 Coeff-Com: -0.711D+01 0.570D+01
 Coeff:      0.264D-03-0.347D-03 0.330D-04 0.700D-03-0.781D-02 0.249D-01
 Coeff:     -0.513D-01 0.102D+00-0.110D+00 0.101D+00-0.635D-01-0.100D+00
 Coeff:      0.220D+00-0.185D+00-0.267D+00 0.104D+01-0.162D+01 0.332D+01
 Coeff:     -0.711D+01 0.570D+01
 Gap=    -0.012 Goal=   None    Shift=    0.300
 DSYEVD-2 returned Info=       50471 IAlg= 4 N=   258 NDim=   258 NE2=    41029983 trying  DSYEV.
 RMSDP=1.32D-06 MaxDP=2.94D-04 DE=-1.33D-07 OVMax= 1.04D-04

 Cycle  21  Pass 1  IDiag  1:
 Density matrix breaks symmetry, PCut= 1.00D-07
 Density matrix has no symmetry -- integrals replicated.
 E= -1049.66418201045     Delta-E=       -0.000000090841 Rises=F Damp=F
 DIIS: error= 3.79D-05 at cycle  21 NSaved=  20.
 NSaved=20 IEnMin=20 EnMin= -1049.66418201045     IErMin=20 ErrMin= 3.79D-05
 ErrMax= 3.79D-05  0.00D+00 EMaxC= 1.00D-01 BMatC= 9.81D-08 BMatP= 1.23D-07
 IDIUse=1 WtCom= 1.00D+00 WtEn= 0.00D+00
 Coeff-Com: -0.703D-06 0.279D-04 0.952D-03-0.878D-02 0.296D-01-0.512D-01
 Coeff-Com:  0.506D-01-0.600D-01 0.104D+00-0.247D-01-0.168D+00 0.259D+00
 Coeff-Com: -0.148D+00-0.251D+00 0.103D+01-0.181D+01 0.343D+01-0.554D+01
 Coeff-Com:  0.148D+01 0.268D+01
 Coeff:     -0.703D-06 0.279D-04 0.952D-03-0.878D-02 0.296D-01-0.512D-01
 Coeff:      0.506D-01-0.600D-01 0.104D+00-0.247D-01-0.168D+00 0.259D+00
 Coeff:     -0.148D+00-0.251D+00 0.103D+01-0.181D+01 0.343D+01-0.554D+01
 Coeff:      0.148D+01 0.268D+01
 Gap=    -0.012 Goal=   None    Shift=    0.300
 RMSDP=9.14D-07 MaxDP=2.51D-04 DE=-9.08D-08 OVMax= 6.20D-05

 Cycle  22  Pass 1  IDiag  1:
 Density matrix breaks symmetry, PCut= 1.00D-07
 Density matrix has no symmetry -- integrals replicated.
 E= -1049.66418207160     Delta-E=       -0.000000061149 Rises=F Damp=F
 DIIS: error= 2.96D-05 at cycle  22 NSaved=  20.
 NSaved=20 IEnMin=20 EnMin= -1049.66418207160     IErMin=20 ErrMin= 2.96D-05
 ErrMax= 2.96D-05  0.00D+00 EMaxC= 1.00D-01 BMatC= 6.26D-08 BMatP= 9.81D-08
 IDIUse=1 WtCom= 1.00D+00 WtEn= 0.00D+00
 Coeff-Com:  0.109D-05 0.689D-03-0.611D-02 0.198D-01-0.357D-01 0.449D-01
 Coeff-Com: -0.465D-01 0.119D-01 0.393D-01-0.128D+00 0.169D+00-0.228D+00
 Coeff-Com:  0.224D+00 0.198D+00 0.321D+00 0.521D+00-0.263D+01 0.308D+00
 Coeff-Com: -0.247D+01 0.469D+01
 Coeff:      0.109D-05 0.689D-03-0.611D-02 0.198D-01-0.357D-01 0.449D-01
 Coeff:     -0.465D-01 0.119D-01 0.393D-01-0.128D+00 0.169D+00-0.228D+00
 Coeff:      0.224D+00 0.198D+00 0.321D+00 0.521D+00-0.263D+01 0.308D+00
 Coeff:     -0.247D+01 0.469D+01
 Gap=    -0.012 Goal=   None    Shift=    0.300
 RMSDP=4.43D-07 MaxDP=9.55D-05 DE=-6.11D-08 OVMax= 4.42D-05

 Cycle  23  Pass 1  IDiag  1:
 Density matrix breaks symmetry, PCut= 1.00D-07
 Density matrix has no symmetry -- integrals replicated.
 E= -1049.66418211105     Delta-E=       -0.000000039446 Rises=F Damp=F
 DIIS: error= 2.66D-05 at cycle  23 NSaved=  20.
 NSaved=20 IEnMin=20 EnMin= -1049.66418211105     IErMin=20 ErrMin= 2.66D-05
 ErrMax= 2.66D-05  0.00D+00 EMaxC= 1.00D-01 BMatC= 5.01D-08 BMatP= 6.26D-08
 IDIUse=1 WtCom= 1.00D+00 WtEn= 0.00D+00
 Coeff-Com:  0.406D-03-0.288D-02 0.870D-02-0.191D-01 0.369D-01-0.370D-01
 Coeff-Com: -0.472D-01 0.713D-01-0.895D-01 0.811D-01-0.249D+00 0.666D+00
 Coeff-Com: -0.664D+00 0.191D+01-0.198D+01 0.106D+01-0.791D+00-0.706D+01
 Coeff-Com:  0.592D+01 0.219D+01
 Coeff:      0.406D-03-0.288D-02 0.870D-02-0.191D-01 0.369D-01-0.370D-01
 Coeff:     -0.472D-01 0.713D-01-0.895D-01 0.811D-01-0.249D+00 0.666D+00
 Coeff:     -0.664D+00 0.191D+01-0.198D+01 0.106D+01-0.791D+00-0.706D+01
 Coeff:      0.592D+01 0.219D+01
 Gap=    -0.012 Goal=   None    Shift=    0.300
 RMSDP=2.65D-07 MaxDP=3.57D-05 DE=-3.94D-08 OVMax= 3.40D-05

 Cycle  24  Pass 1  IDiag  1:
 Density matrix breaks symmetry, PCut= 1.00D-07
 Density matrix has no symmetry -- integrals replicated.
 E= -1049.66418213867     Delta-E=       -0.000000027622 Rises=F Damp=F
 DIIS: error= 2.32D-05 at cycle  24 NSaved=  20.
 NSaved=20 IEnMin=20 EnMin= -1049.66418213867     IErMin=20 ErrMin= 2.32D-05
 ErrMax= 2.32D-05  0.00D+00 EMaxC= 1.00D-01 BMatC= 4.18D-08 BMatP= 5.01D-08
 IDIUse=1 WtCom= 1.00D+00 WtEn= 0.00D+00
 Coeff-Com:  0.591D-04 0.132D-02-0.110D-01 0.345D-01-0.602D-01 0.634D-01
 Coeff-Com: -0.887D-02-0.786D-01 0.331D-01 0.204D-01 0.270D+00-0.276D+00
 Coeff-Com:  0.766D-01-0.117D+01 0.393D+01-0.387D+01 0.327D+00-0.815D+00
 Coeff-Com: -0.500D+01 0.754D+01
 Coeff:      0.591D-04 0.132D-02-0.110D-01 0.345D-01-0.602D-01 0.634D-01
 Coeff:     -0.887D-02-0.786D-01 0.331D-01 0.204D-01 0.270D+00-0.276D+00
 Coeff:      0.766D-01-0.117D+01 0.393D+01-0.387D+01 0.327D+00-0.815D+00
 Coeff:     -0.500D+01 0.754D+01
 Gap=    -0.012 Goal=   None    Shift=    0.300
 RMSDP=1.93D-07 MaxDP=2.28D-05 DE=-2.76D-08 OVMax= 3.12D-05

 Cycle  25  Pass 1  IDiag  1:
 Density matrix breaks symmetry, PCut= 1.00D-07
 Density matrix has no symmetry -- integrals replicated.
 E= -1049.66418215643     Delta-E=       -0.000000017762 Rises=F Damp=F
 DIIS: error= 2.05D-05 at cycle  25 NSaved=  20.
 NSaved=20 IEnMin=20 EnMin= -1049.66418215643     IErMin=20 ErrMin= 2.05D-05
 ErrMax= 2.05D-05  0.00D+00 EMaxC= 1.00D-01 BMatC= 3.70D-08 BMatP= 4.18D-08
 IDIUse=1 WtCom= 1.00D+00 WtEn= 0.00D+00
 Coeff-Com:  0.175D-02-0.113D-01 0.356D-01-0.604D-01 0.585D-01-0.100D-01
 Coeff-Com: -0.699D-01 0.317D-01 0.170D-01 0.270D+00-0.318D+00 0.270D+00
 Coeff-Com: -0.136D+01 0.386D+01-0.369D+01-0.214D+00-0.970D-01-0.378D+01
 Coeff-Com:  0.462D+01 0.144D+01
 Coeff:      0.175D-02-0.113D-01 0.356D-01-0.604D-01 0.585D-01-0.100D-01
 Coeff:     -0.699D-01 0.317D-01 0.170D-01 0.270D+00-0.318D+00 0.270D+00
 Coeff:     -0.136D+01 0.386D+01-0.369D+01-0.214D+00-0.970D-01-0.378D+01
 Coeff:      0.462D+01 0.144D+01
 Gap=    -0.012 Goal=   None    Shift=    0.300
 RMSDP=1.62D-07 MaxDP=1.99D-05 DE=-1.78D-08 OVMax= 2.29D-05

 Cycle  26  Pass 1  IDiag  1:
 Density matrix breaks symmetry, PCut= 1.00D-07
 Density matrix has no symmetry -- integrals replicated.
 E= -1049.66418217168     Delta-E=       -0.000000015249 Rises=F Damp=F
 DIIS: error= 1.88D-05 at cycle  26 NSaved=  20.
 NSaved=20 IEnMin=20 EnMin= -1049.66418217168     IErMin=20 ErrMin= 1.88D-05
 ErrMax= 1.88D-05  0.00D+00 EMaxC= 1.00D-01 BMatC= 3.22D-08 BMatP= 3.70D-08
 IDIUse=1 WtCom= 1.00D+00 WtEn= 0.00D+00
 Coeff-Com: -0.690D-02 0.393D-01-0.507D-01 0.450D-02 0.164D-01-0.441D-01
 Coeff-Com:  0.217D-01-0.377D-02 0.327D+00-0.493D+00 0.101D+01-0.242D+01
 Coeff-Com:  0.384D+01-0.313D+01-0.713D+00 0.126D+01-0.402D+00-0.196D+00
 Coeff-Com: -0.356D+01 0.550D+01
 Coeff:     -0.690D-02 0.393D-01-0.507D-01 0.450D-02 0.164D-01-0.441D-01
 Coeff:      0.217D-01-0.377D-02 0.327D+00-0.493D+00 0.101D+01-0.242D+01
 Coeff:      0.384D+01-0.313D+01-0.713D+00 0.126D+01-0.402D+00-0.196D+00
 Coeff:     -0.356D+01 0.550D+01
 Gap=    -0.012 Goal=   None    Shift=    0.300
 DSYEVD-2 returned Info=       58792 IAlg= 4 N=   258 NDim=   258 NE2=    41029983 trying  DSYEV.
 RMSDP=1.50D-07 MaxDP=1.77D-05 DE=-1.52D-08 OVMax= 2.14D-05

 Cycle  27  Pass 1  IDiag  1:
 Density matrix breaks symmetry, PCut= 1.00D-07
 Density matrix has no symmetry -- integrals replicated.
 E= -1049.66418218489     Delta-E=       -0.000000013207 Rises=F Damp=F
 DIIS: error= 1.73D-05 at cycle  27 NSaved=  20.
 NSaved=20 IEnMin=20 EnMin= -1049.66418218489     IErMin=20 ErrMin= 1.73D-05
 ErrMax= 1.73D-05  0.00D+00 EMaxC= 1.00D-01 BMatC= 2.79D-08 BMatP= 3.22D-08
 IDIUse=1 WtCom= 1.00D+00 WtEn= 0.00D+00
 Coeff-Com:  0.201D-01-0.303D-01-0.141D-01 0.151D-01-0.154D-01-0.817D-02
 Coeff-Com: -0.137D-01 0.379D+00-0.553D+00 0.136D+01-0.312D+01 0.445D+01
 Coeff-Com: -0.362D+01-0.776D+00 0.198D+01 0.130D+01-0.960D+00-0.602D+01
 Coeff-Com:  0.175D+01 0.487D+01
 Coeff:      0.201D-01-0.303D-01-0.141D-01 0.151D-01-0.154D-01-0.817D-02
 Coeff:     -0.137D-01 0.379D+00-0.553D+00 0.136D+01-0.312D+01 0.445D+01
 Coeff:     -0.362D+01-0.776D+00 0.198D+01 0.130D+01-0.960D+00-0.602D+01
 Coeff:      0.175D+01 0.487D+01
 Gap=    -0.012 Goal=   None    Shift=    0.300
 RMSDP=1.49D-07 MaxDP=1.43D-05 DE=-1.32D-08 OVMax= 2.19D-05

 Cycle  28  Pass 1  IDiag  1:
 Density matrix breaks symmetry, PCut= 1.00D-07
 Density matrix has no symmetry -- integrals replicated.
 E= -1049.66418219629     Delta-E=       -0.000000011403 Rises=F Damp=F
 DIIS: error= 1.59D-05 at cycle  28 NSaved=  20.
 NSaved=20 IEnMin=20 EnMin= -1049.66418219629     IErMin=20 ErrMin= 1.59D-05
 ErrMax= 1.59D-05  0.00D+00 EMaxC= 1.00D-01 BMatC= 2.40D-08 BMatP= 2.79D-08
 IDIUse=1 WtCom= 1.00D+00 WtEn= 0.00D+00
 Large coefficients: NSaved= 20 BigCof=   14.12 CofMax=   10.00 Det=-2.07D-13
 Inversion failed.  Reducing to 19 matrices.
 Large coefficients: NSaved= 19 BigCof=   12.54 CofMax=   10.00 Det=-2.19D-13
 Inversion failed.  Reducing to 18 matrices.
 Large coefficients: NSaved= 18 BigCof=   12.41 CofMax=   10.00 Det=-2.43D-13
 Inversion failed.  Reducing to 17 matrices.
 Large coefficients: NSaved= 17 BigCof=   12.26 CofMax=   10.00 Det=-2.45D-13
 Inversion failed.  Reducing to 16 matrices.
 Large coefficients: NSaved= 16 BigCof=   13.53 CofMax=   10.00 Det=-2.61D-13
 Inversion failed.  Reducing to 15 matrices.
 Coeff-Com:  0.523D-02 0.711D-01-0.141D+00 0.364D+00-0.150D+01 0.433D+01
 Coeff-Com: -0.557D+01 0.280D+01-0.937D+00-0.272D+01 0.634D+01-0.223D+01
 Coeff-Com: -0.912D+01 0.631D+01 0.299D+01
 Coeff:      0.523D-02 0.711D-01-0.141D+00 0.364D+00-0.150D+01 0.433D+01
 Coeff:     -0.557D+01 0.280D+01-0.937D+00-0.272D+01 0.634D+01-0.223D+01
 Coeff:     -0.912D+01 0.631D+01 0.299D+01
 Gap=    -0.012 Goal=   None    Shift=    0.300
 DSYEVD-2 returned Info=       58792 IAlg= 4 N=   258 NDim=   258 NE2=    41029983 trying  DSYEV.
 RMSDP=1.17D-07 MaxDP=7.83D-06 DE=-1.14D-08 OVMax= 1.88D-05

 Cycle  29  Pass 1  IDiag  1:
 Density matrix breaks symmetry, PCut= 1.00D-07
 Density matrix has no symmetry -- integrals replicated.
 E= -1049.66418220666     Delta-E=       -0.000000010374 Rises=F Damp=F
 DIIS: error= 1.45D-05 at cycle  29 NSaved=  16.
 NSaved=16 IEnMin=16 EnMin= -1049.66418220666     IErMin=16 ErrMin= 1.45D-05
 ErrMax= 1.45D-05  0.00D+00 EMaxC= 1.00D-01 BMatC= 2.06D-08 BMatP= 2.40D-08
 IDIUse=1 WtCom= 1.00D+00 WtEn= 0.00D+00
 Coeff-Com: -0.148D-01 0.137D+00-0.192D+00 0.280D+00-0.110D+01 0.311D+01
 Coeff-Com: -0.386D+01 0.152D+01-0.225D+00-0.116D+01 0.285D+01 0.255D+00
 Coeff-Com: -0.655D+01 0.246D+01-0.116D+01 0.465D+01
 Coeff:     -0.148D-01 0.137D+00-0.192D+00 0.280D+00-0.110D+01 0.311D+01
 Coeff:     -0.386D+01 0.152D+01-0.225D+00-0.116D+01 0.285D+01 0.255D+00
 Coeff:     -0.655D+01 0.246D+01-0.116D+01 0.465D+01
 Gap=    -0.012 Goal=   None    Shift=    0.300
 RMSDP=1.11D-07 MaxDP=7.46D-06 DE=-1.04D-08 OVMax= 1.68D-05

 Cycle  30  Pass 1  IDiag  1:
 Density matrix breaks symmetry, PCut= 1.00D-07
 Density matrix has no symmetry -- integrals replicated.
 E= -1049.66418221541     Delta-E=       -0.000000008750 Rises=F Damp=F
 DIIS: error= 1.34D-05 at cycle  30 NSaved=  17.
 NSaved=17 IEnMin=17 EnMin= -1049.66418221541     IErMin=17 ErrMin= 1.34D-05
 ErrMax= 1.34D-05  0.00D+00 EMaxC= 1.00D-01 BMatC= 1.77D-08 BMatP= 2.06D-08
 IDIUse=1 WtCom= 1.00D+00 WtEn= 0.00D+00
 Coeff-Com: -0.333D-01 0.190D+00-0.246D+00 0.261D+00-0.837D+00 0.205D+01
 Coeff-Com: -0.226D+01 0.340D+00 0.438D+00 0.344D+00-0.752D+00 0.341D+01
 Coeff-Com: -0.546D+01 0.105D-02-0.344D+01 0.434D+01 0.265D+01
 Coeff:     -0.333D-01 0.190D+00-0.246D+00 0.261D+00-0.837D+00 0.205D+01
 Coeff:     -0.226D+01 0.340D+00 0.438D+00 0.344D+00-0.752D+00 0.341D+01
 Coeff:     -0.546D+01 0.105D-02-0.344D+01 0.434D+01 0.265D+01
 Gap=    -0.012 Goal=   None    Shift=    0.300
 RMSDP=1.02D-07 MaxDP=7.46D-06 DE=-8.75D-09 OVMax= 1.40D-05

 Cycle  31  Pass 1  IDiag  1:
 Density matrix breaks symmetry, PCut= 1.00D-07
 Density matrix has no symmetry -- integrals replicated.
 E= -1049.66418222285     Delta-E=       -0.000000007432 Rises=F Damp=F
 DIIS: error= 1.25D-05 at cycle  31 NSaved=  18.
 NSaved=18 IEnMin=18 EnMin= -1049.66418222285     IErMin=18 ErrMin= 1.25D-05
 ErrMax= 1.25D-05  0.00D+00 EMaxC= 1.00D-01 BMatC= 1.52D-08 BMatP= 1.77D-08
 IDIUse=1 WtCom= 1.00D+00 WtEn= 0.00D+00
 Coeff-Com: -0.388D-01 0.187D+00-0.243D+00 0.281D+00-0.758D+00 0.165D+01
 Coeff-Com: -0.169D+01-0.440D-01 0.689D+00 0.763D+00-0.215D+01 0.545D+01
 Coeff-Com: -0.618D+01-0.381D+00-0.321D+01 0.335D+01 0.132D+01 0.200D+01
 Coeff:     -0.388D-01 0.187D+00-0.243D+00 0.281D+00-0.758D+00 0.165D+01
 Coeff:     -0.169D+01-0.440D-01 0.689D+00 0.763D+00-0.215D+01 0.545D+01
 Coeff:     -0.618D+01-0.381D+00-0.321D+01 0.335D+01 0.132D+01 0.200D+01
 Gap=    -0.012 Goal=   None    Shift=    0.300
 RMSDP=9.74D-08 MaxDP=6.70D-06 DE=-7.43D-09 OVMax= 1.38D-05

 Cycle  32  Pass 1  IDiag  1:
 Density matrix breaks symmetry, PCut= 1.00D-07
 Density matrix has no symmetry -- integrals replicated.
 E= -1049.66418222920     Delta-E=       -0.000000006356 Rises=F Damp=F
 DIIS: error= 1.16D-05 at cycle  32 NSaved=  19.
 NSaved=19 IEnMin=19 EnMin= -1049.66418222920     IErMin=19 ErrMin= 1.16D-05
 ErrMax= 1.16D-05  0.00D+00 EMaxC= 1.00D-01 BMatC= 1.31D-08 BMatP= 1.52D-08
 IDIUse=1 WtCom= 1.00D+00 WtEn= 0.00D+00
 Coeff-Com: -0.269D-01 0.102D+00-0.152D+00 0.301D+00-0.698D+00 0.151D+01
 Coeff-Com: -0.177D+01 0.214D+00 0.653D+00 0.250D-01-0.145D+01 0.613D+01
 Coeff-Com: -0.729D+01 0.310D+00-0.511D+00 0.147D+01-0.408D+00-0.237D+01
 Coeff-Com:  0.497D+01
 Coeff:     -0.269D-01 0.102D+00-0.152D+00 0.301D+00-0.698D+00 0.151D+01
 Coeff:     -0.177D+01 0.214D+00 0.653D+00 0.250D-01-0.145D+01 0.613D+01
 Coeff:     -0.729D+01 0.310D+00-0.511D+00 0.147D+01-0.408D+00-0.237D+01
 Coeff:      0.497D+01
 Gap=    -0.012 Goal=   None    Shift=    0.300
 RMSDP=9.07D-08 MaxDP=5.52D-06 DE=-6.36D-09 OVMax= 1.34D-05

 Cycle  33  Pass 1  IDiag  1:
 Density matrix breaks symmetry, PCut= 1.00D-07
 Density matrix has no symmetry -- integrals replicated.
 E= -1049.66418223464     Delta-E=       -0.000000005439 Rises=F Damp=F
 DIIS: error= 1.07D-05 at cycle  33 NSaved=  20.
 NSaved=20 IEnMin=20 EnMin= -1049.66418223464     IErMin=20 ErrMin= 1.07D-05
 ErrMax= 1.07D-05  0.00D+00 EMaxC= 1.00D-01 BMatC= 1.13D-08 BMatP= 1.31D-08
 IDIUse=1 WtCom= 1.00D+00 WtEn= 0.00D+00
 Coeff-Com: -0.158D-01 0.386D-01-0.763D-01 0.263D+00-0.575D+00 0.133D+01
 Coeff-Com: -0.176D+01 0.436D+00 0.550D+00-0.667D+00-0.289D+00 0.525D+01
 Coeff-Com: -0.695D+01 0.867D+00 0.945D+00 0.419D+00-0.921D+00-0.409D+01
 Coeff-Com:  0.272D+01 0.352D+01
 Coeff:     -0.158D-01 0.386D-01-0.763D-01 0.263D+00-0.575D+00 0.133D+01
 Coeff:     -0.176D+01 0.436D+00 0.550D+00-0.667D+00-0.289D+00 0.525D+01
 Coeff:     -0.695D+01 0.867D+00 0.945D+00 0.419D+00-0.921D+00-0.409D+01
 Coeff:      0.272D+01 0.352D+01
 Gap=    -0.012 Goal=   None    Shift=    0.300
 RMSDP=8.07D-08 MaxDP=4.64D-06 DE=-5.44D-09 OVMax= 1.22D-05

 Cycle  34  Pass 1  IDiag  1:
 Density matrix breaks symmetry, PCut= 1.00D-07
 Density matrix has no symmetry -- integrals replicated.
 E= -1049.66418223930     Delta-E=       -0.000000004660 Rises=F Damp=F
 DIIS: error= 9.92D-06 at cycle  34 NSaved=  20.
 NSaved=20 IEnMin=20 EnMin= -1049.66418223930     IErMin=20 ErrMin= 9.92D-06
 ErrMax= 9.92D-06  0.00D+00 EMaxC= 1.00D-01 BMatC= 9.75D-09 BMatP= 1.13D-08
 IDIUse=1 WtCom= 1.00D+00 WtEn= 0.00D+00
 Coeff-Com:  0.182D-01-0.498D-01 0.154D+00-0.473D+00 0.117D+01-0.154D+01
 Coeff-Com:  0.662D+00 0.312D+00-0.719D+00 0.517D-01 0.360D+01-0.513D+01
 Coeff-Com:  0.937D+00 0.595D+00-0.845D-01 0.311D-01-0.211D+01-0.117D+01
 Coeff-Com:  0.117D+01 0.357D+01
 Coeff:      0.182D-01-0.498D-01 0.154D+00-0.473D+00 0.117D+01-0.154D+01
 Coeff:      0.662D+00 0.312D+00-0.719D+00 0.517D-01 0.360D+01-0.513D+01
 Coeff:      0.937D+00 0.595D+00-0.845D-01 0.311D-01-0.211D+01-0.117D+01
 Coeff:      0.117D+01 0.357D+01
 Gap=    -0.012 Goal=   None    Shift=    0.300
 DSYEVD-2 returned Info=       50471 IAlg= 4 N=   258 NDim=   258 NE2=    41029983 trying  DSYEV.
 RMSDP=7.12D-08 MaxDP=4.29D-06 DE=-4.66D-09 OVMax= 1.17D-05

 Cycle  35  Pass 1  IDiag  1:
 Density matrix breaks symmetry, PCut= 1.00D-07
 Density matrix has no symmetry -- integrals replicated.
 E= -1049.66418224331     Delta-E=       -0.000000004006 Rises=F Damp=F
 DIIS: error= 9.17D-06 at cycle  35 NSaved=  20.
 NSaved=20 IEnMin=20 EnMin= -1049.66418224331     IErMin=20 ErrMin= 9.17D-06
 ErrMax= 9.17D-06  0.00D+00 EMaxC= 1.00D-01 BMatC= 8.41D-09 BMatP= 9.75D-09
 IDIUse=1 WtCom= 1.00D+00 WtEn= 0.00D+00
 Coeff-Com: -0.143D-01 0.132D+00-0.402D+00 0.954D+00-0.134D+01 0.681D+00
 Coeff-Com:  0.250D+00-0.679D+00-0.164D-01 0.355D+01-0.466D+01 0.649D+00
 Coeff-Com:  0.710D+00-0.624D+00-0.167D+00-0.150D+01 0.369D-01 0.545D+00
 Coeff-Com:  0.105D+00 0.278D+01
 Coeff:     -0.143D-01 0.132D+00-0.402D+00 0.954D+00-0.134D+01 0.681D+00
 Coeff:      0.250D+00-0.679D+00-0.164D-01 0.355D+01-0.466D+01 0.649D+00
 Coeff:      0.710D+00-0.624D+00-0.167D+00-0.150D+01 0.369D-01 0.545D+00
 Coeff:      0.105D+00 0.278D+01
 Gap=    -0.012 Goal=   None    Shift=    0.300
 RMSDP=6.73D-08 MaxDP=4.05D-06 DE=-4.01D-09 OVMax= 1.10D-05

 Cycle  36  Pass 1  IDiag  1:
 Density matrix breaks symmetry, PCut= 1.00D-07
 Density matrix has no symmetry -- integrals replicated.
 E= -1049.66418224676     Delta-E=       -0.000000003450 Rises=F Damp=F
 DIIS: error= 8.48D-06 at cycle  36 NSaved=  20.
 NSaved=20 IEnMin=20 EnMin= -1049.66418224676     IErMin=20 ErrMin= 8.48D-06
 ErrMax= 8.48D-06  0.00D+00 EMaxC= 1.00D-01 BMatC= 7.26D-09 BMatP= 8.41D-09
 IDIUse=1 WtCom= 1.00D+00 WtEn= 0.00D+00
 Coeff-Com:  0.864D-01-0.313D+00 0.675D+00-0.962D+00 0.589D+00 0.177D+00
 Coeff-Com: -0.366D+00-0.504D+00 0.333D+01-0.330D+01-0.227D+00 0.860D-01
 Coeff-Com: -0.795D+00-0.176D+00-0.443D-01 0.194D+01-0.340D+00-0.390D+01
 Coeff-Com:  0.250D+01 0.254D+01
 Coeff:      0.864D-01-0.313D+00 0.675D+00-0.962D+00 0.589D+00 0.177D+00
 Coeff:     -0.366D+00-0.504D+00 0.333D+01-0.330D+01-0.227D+00 0.860D-01
 Coeff:     -0.795D+00-0.176D+00-0.443D-01 0.194D+01-0.340D+00-0.390D+01
 Coeff:      0.250D+01 0.254D+01
 Gap=    -0.012 Goal=   None    Shift=    0.300
 DSYEVD-2 returned Info=       58792 IAlg= 4 N=   258 NDim=   258 NE2=    41029983 trying  DSYEV.
 RMSDP=5.79D-08 MaxDP=3.69D-06 DE=-3.45D-09 OVMax= 1.01D-05

 Cycle  37  Pass 1  IDiag  1:
 Density matrix breaks symmetry, PCut= 1.00D-07
 Density matrix has no symmetry -- integrals replicated.
 E= -1049.66418224973     Delta-E=       -0.000000002968 Rises=F Damp=F
 DIIS: error= 7.84D-06 at cycle  37 NSaved=  20.
 NSaved=20 IEnMin=20 EnMin= -1049.66418224973     IErMin=20 ErrMin= 7.84D-06
 ErrMax= 7.84D-06  0.00D+00 EMaxC= 1.00D-01 BMatC= 6.26D-09 BMatP= 7.26D-09
 IDIUse=1 WtCom= 1.00D+00 WtEn= 0.00D+00
 Coeff-Com: -0.421D-01 0.244D+00-0.401D+00 0.130D+00 0.249D+00-0.349D+00
 Coeff-Com: -0.291D+00 0.294D+01-0.256D+01-0.479D+00-0.125D+00-0.740D+00
 Coeff-Com: -0.207D-01-0.124D+00 0.110D+01 0.172D+00-0.120D+01 0.237D+00
 Coeff-Com: -0.198D+01 0.424D+01
 Coeff:     -0.421D-01 0.244D+00-0.401D+00 0.130D+00 0.249D+00-0.349D+00
 Coeff:     -0.291D+00 0.294D+01-0.256D+01-0.479D+00-0.125D+00-0.740D+00
 Coeff:     -0.207D-01-0.124D+00 0.110D+01 0.172D+00-0.120D+01 0.237D+00
 Coeff:     -0.198D+01 0.424D+01
 Gap=    -0.012 Goal=   None    Shift=    0.300
 RMSDP=5.14D-08 MaxDP=3.47D-06 DE=-2.97D-09 OVMax= 9.49D-06

 Cycle  38  Pass 1  IDiag  1:
 Density matrix breaks symmetry, PCut= 1.00D-07
 Density matrix has no symmetry -- integrals replicated.
 E= -1049.66418225229     Delta-E=       -0.000000002562 Rises=F Damp=F
 DIIS: error= 7.25D-06 at cycle  38 NSaved=  20.
 NSaved=20 IEnMin=20 EnMin= -1049.66418225229     IErMin=20 ErrMin= 7.25D-06
 ErrMax= 7.25D-06  0.00D+00 EMaxC= 1.00D-01 BMatC= 5.41D-09 BMatP= 6.26D-09
 IDIUse=1 WtCom= 1.00D+00 WtEn= 0.00D+00
 Coeff-Com:  0.110D+00-0.284D+00 0.723D-01 0.291D+00-0.970D-01-0.509D+00
 Coeff-Com:  0.225D+01-0.185D+01-0.373D+00-0.322D+00-0.398D+00 0.124D+00
 Coeff-Com: -0.245D+00 0.301D-01 0.374D+00 0.809D+00-0.405D+00-0.269D+01
 Coeff-Com:  0.126D+01 0.285D+01
 Coeff:      0.110D+00-0.284D+00 0.723D-01 0.291D+00-0.970D-01-0.509D+00
 Coeff:      0.225D+01-0.185D+01-0.373D+00-0.322D+00-0.398D+00 0.124D+00
 Coeff:     -0.245D+00 0.301D-01 0.374D+00 0.809D+00-0.405D+00-0.269D+01
 Coeff:      0.126D+01 0.285D+01
 Gap=    -0.012 Goal=   None    Shift=    0.300
 RMSDP=4.84D-08 MaxDP=3.11D-06 DE=-2.56D-09 OVMax= 8.62D-06

 Cycle  39  Pass 1  IDiag  1:
 Density matrix breaks symmetry, PCut= 1.00D-07
 Density matrix has no symmetry -- integrals replicated.
 E= -1049.66418225449     Delta-E=       -0.000000002205 Rises=F Damp=F
 DIIS: error= 6.73D-06 at cycle  39 NSaved=  20.
 NSaved=20 IEnMin=20 EnMin= -1049.66418225449     IErMin=20 ErrMin= 6.73D-06
 ErrMax= 6.73D-06  0.00D+00 EMaxC= 1.00D-01 BMatC= 4.67D-09 BMatP= 5.41D-09
 IDIUse=1 WtCom= 1.00D+00 WtEn= 0.00D+00
 Coeff-Com: -0.817D-01 0.445D-01 0.212D+00 0.118D+00-0.574D+00 0.123D+01
 Coeff-Com: -0.651D+00-0.358D+00-0.480D+00-0.217D+00 0.166D+00 0.896D-01
 Coeff-Com: -0.538D+00-0.376D+00-0.219D+00 0.159D+01 0.123D+01-0.461D+01
 Coeff-Com: -0.672D-01 0.449D+01
 Coeff:     -0.817D-01 0.445D-01 0.212D+00 0.118D+00-0.574D+00 0.123D+01
 Coeff:     -0.651D+00-0.358D+00-0.480D+00-0.217D+00 0.166D+00 0.896D-01
 Coeff:     -0.538D+00-0.376D+00-0.219D+00 0.159D+01 0.123D+01-0.461D+01
 Coeff:     -0.672D-01 0.449D+01
 Gap=    -0.012 Goal=   None    Shift=    0.300
 RMSDP=4.91D-08 MaxDP=3.53D-06 DE=-2.21D-09 OVMax= 7.72D-06

 Cycle  40  Pass 1  IDiag  1:
 Density matrix breaks symmetry, PCut= 1.00D-07
 Density matrix has no symmetry -- integrals replicated.
 E= -1049.66418225639     Delta-E=       -0.000000001897 Rises=F Damp=F
 DIIS: error= 6.28D-06 at cycle  40 NSaved=  20.
 NSaved=20 IEnMin=20 EnMin= -1049.66418225639     IErMin=20 ErrMin= 6.28D-06
 ErrMax= 6.28D-06  0.00D+00 EMaxC= 1.00D-01 BMatC= 4.03D-09 BMatP= 4.67D-09
 IDIUse=1 WtCom= 1.00D+00 WtEn= 0.00D+00
 Coeff-Com: -0.752D-02 0.176D-01-0.261D+00 0.401D+00 0.375D+00-0.309D+00
 Coeff-Com: -0.112D+00-0.435D+00 0.157D+00 0.291D-02 0.808D-01-0.867D-01
 Coeff-Com: -0.594D+00-0.962D+00 0.169D+01 0.222D+01-0.535D+01-0.231D+01
 Coeff-Com:  0.347D+01 0.303D+01
 Coeff:     -0.752D-02 0.176D-01-0.261D+00 0.401D+00 0.375D+00-0.309D+00
 Coeff:     -0.112D+00-0.435D+00 0.157D+00 0.291D-02 0.808D-01-0.867D-01
 Coeff:     -0.594D+00-0.962D+00 0.169D+01 0.222D+01-0.535D+01-0.231D+01
 Coeff:      0.347D+01 0.303D+01
 Gap=    -0.012 Goal=   None    Shift=    0.300
 RMSDP=4.01D-08 MaxDP=2.78D-06 DE=-1.90D-09 OVMax= 7.17D-06

 Cycle  41  Pass 1  IDiag  1:
 Density matrix breaks symmetry, PCut= 1.00D-07
 Density matrix has no symmetry -- integrals replicated.
 E= -1049.66418225805     Delta-E=       -0.000000001661 Rises=F Damp=F
 DIIS: error= 5.92D-06 at cycle  41 NSaved=  20.
 NSaved=20 IEnMin=20 EnMin= -1049.66418225805     IErMin=20 ErrMin= 5.92D-06
 ErrMax= 5.92D-06  0.00D+00 EMaxC= 1.00D-01 BMatC= 3.45D-09 BMatP= 4.03D-09
 IDIUse=1 WtCom= 1.00D+00 WtEn= 0.00D+00
 Coeff-Com:  0.945D-01-0.242D+00 0.683D-01 0.772D+00-0.659D+00-0.629D-01
 Coeff-Com: -0.858D+00 0.697D+00 0.229D+00 0.403D+00-0.764D+00-0.745D+00
 Coeff-Com: -0.611D+00 0.191D+01 0.298D+01-0.474D+01-0.355D+01 0.198D+01
 Coeff-Com:  0.159D+01 0.250D+01
 Coeff:      0.945D-01-0.242D+00 0.683D-01 0.772D+00-0.659D+00-0.629D-01
 Coeff:     -0.858D+00 0.697D+00 0.229D+00 0.403D+00-0.764D+00-0.745D+00
 Coeff:     -0.611D+00 0.191D+01 0.298D+01-0.474D+01-0.355D+01 0.198D+01
 Coeff:      0.159D+01 0.250D+01
 Gap=    -0.012 Goal=   None    Shift=    0.300
 RMSDP=3.81D-08 MaxDP=2.51D-06 DE=-1.66D-09 OVMax= 6.86D-06

 Cycle  42  Pass 1  IDiag  1:
 Density matrix breaks symmetry, PCut= 1.00D-07
 Density matrix has no symmetry -- integrals replicated.
 E= -1049.66418225946     Delta-E=       -0.000000001410 Rises=F Damp=F
 DIIS: error= 5.48D-06 at cycle  42 NSaved=  20.
 NSaved=20 IEnMin=20 EnMin= -1049.66418225946     IErMin=20 ErrMin= 5.48D-06
 ErrMax= 5.48D-06  0.00D+00 EMaxC= 1.00D-01 BMatC= 2.99D-09 BMatP= 3.45D-09
 IDIUse=1 WtCom= 1.00D+00 WtEn= 0.00D+00
 Coeff-Com: -0.423D-01-0.718D-01 0.829D+00-0.564D+00-0.210D+00-0.841D+00
 Coeff-Com:  0.637D+00 0.192D+00 0.643D+00-0.455D+00-0.967D+00-0.144D+01
 Coeff-Com:  0.231D+01 0.365D+01-0.594D+01-0.295D+01 0.265D+01 0.163D+01
 Coeff-Com:  0.150D+01 0.446D+00
 Coeff:     -0.423D-01-0.718D-01 0.829D+00-0.564D+00-0.210D+00-0.841D+00
 Coeff:      0.637D+00 0.192D+00 0.643D+00-0.455D+00-0.967D+00-0.144D+01
 Coeff:      0.231D+01 0.365D+01-0.594D+01-0.295D+01 0.265D+01 0.163D+01
 Coeff:      0.150D+01 0.446D+00
 Gap=    -0.012 Goal=   None    Shift=    0.300
 DSYEVD-2 returned Info=       58792 IAlg= 4 N=   258 NDim=   258 NE2=    41029983 trying  DSYEV.
 RMSDP=3.84D-08 MaxDP=2.37D-06 DE=-1.41D-09 OVMax= 6.35D-06

 Cycle  43  Pass 1  IDiag  1:
 Density matrix breaks symmetry, PCut= 1.00D-07
 Density matrix has no symmetry -- integrals replicated.
 E= -1049.66418226068     Delta-E=       -0.000000001220 Rises=F Damp=F
 DIIS: error= 5.10D-06 at cycle  43 NSaved=  20.
 NSaved=20 IEnMin=20 EnMin= -1049.66418226068     IErMin=20 ErrMin= 5.10D-06
 ErrMax= 5.10D-06  0.00D+00 EMaxC= 1.00D-01 BMatC= 2.58D-09 BMatP= 2.99D-09
 IDIUse=1 WtCom= 1.00D+00 WtEn= 0.00D+00
 Coeff-Com: -0.157D+00 0.907D+00-0.682D+00-0.194D+00-0.785D+00 0.696D+00
 Coeff-Com:  0.185D+00 0.582D+00-0.727D+00-0.707D+00-0.726D+00 0.171D+01
 Coeff-Com:  0.271D+01-0.429D+01-0.238D+01 0.146D+01 0.129D+01 0.123D+01
 Coeff-Com: -0.108D+01 0.194D+01
 Coeff:     -0.157D+00 0.907D+00-0.682D+00-0.194D+00-0.785D+00 0.696D+00
 Coeff:      0.185D+00 0.582D+00-0.727D+00-0.707D+00-0.726D+00 0.171D+01
 Coeff:      0.271D+01-0.429D+01-0.238D+01 0.146D+01 0.129D+01 0.123D+01
 Coeff:     -0.108D+01 0.194D+01
 Gap=    -0.012 Goal=   None    Shift=    0.300
 RMSDP=3.27D-08 MaxDP=2.10D-06 DE=-1.22D-09 OVMax= 5.71D-06

 Cycle  44  Pass 1  IDiag  1:
 Density matrix breaks symmetry, PCut= 1.00D-07
 Density matrix has no symmetry -- integrals replicated.
 E= -1049.66418226173     Delta-E=       -0.000000001052 Rises=F Damp=F
 DIIS: error= 4.74D-06 at cycle  44 NSaved=  20.
 NSaved=20 IEnMin=20 EnMin= -1049.66418226173     IErMin=20 ErrMin= 4.74D-06
 ErrMax= 4.74D-06  0.00D+00 EMaxC= 1.00D-01 BMatC= 2.22D-09 BMatP= 2.58D-09
 IDIUse=1 WtCom= 1.00D+00 WtEn= 0.00D+00
 Coeff-Com:  0.205D+00-0.156D+00-0.248D+00-0.309D+00 0.622D+00-0.166D+00
 Coeff-Com:  0.344D+00-0.432D+00 0.133D+00 0.214D+00-0.200D+00-0.641D+00
 Coeff-Com:  0.436D+00 0.727D+00-0.133D+01 0.246D+00-0.586D+00-0.225D+01
 Coeff-Com: -0.196D+01 0.635D+01
 Coeff:      0.205D+00-0.156D+00-0.248D+00-0.309D+00 0.622D+00-0.166D+00
 Coeff:      0.344D+00-0.432D+00 0.133D+00 0.214D+00-0.200D+00-0.641D+00
 Coeff:      0.436D+00 0.727D+00-0.133D+01 0.246D+00-0.586D+00-0.225D+01
 Coeff:     -0.196D+01 0.635D+01
 Gap=    -0.012 Goal=   None    Shift=    0.300
 DSYEVD-2 returned Info=       58792 IAlg= 4 N=   258 NDim=   258 NE2=    41029983 trying  DSYEV.
 RMSDP=3.05D-08 MaxDP=1.98D-06 DE=-1.05D-09 OVMax= 5.55D-06

 Cycle  45  Pass 1  IDiag  1:
 Density matrix breaks symmetry, PCut= 1.00D-07
 Density matrix has no symmetry -- integrals replicated.
 E= -1049.66418226264     Delta-E=       -0.000000000908 Rises=F Damp=F
 DIIS: error= 4.40D-06 at cycle  45 NSaved=  20.
 NSaved=20 IEnMin=20 EnMin= -1049.66418226264     IErMin=20 ErrMin= 4.40D-06
 ErrMax= 4.40D-06  0.00D+00 EMaxC= 1.00D-01 BMatC= 1.92D-09 BMatP= 2.22D-09
 IDIUse=1 WtCom= 1.00D+00 WtEn= 0.00D+00
 Coeff-Com:  0.158D+00-0.301D+00-0.113D+00 0.455D+00-0.257D+00 0.201D+00
 Coeff-Com: -0.221D+00 0.267D+00 0.204D+00-0.409D+00-0.846D+00 0.574D+00
 Coeff-Com:  0.100D+01-0.102D+01-0.546D-02 0.415D+00-0.378D+01-0.226D+01
 Coeff-Com:  0.408D+01 0.285D+01
 Coeff:      0.158D+00-0.301D+00-0.113D+00 0.455D+00-0.257D+00 0.201D+00
 Coeff:     -0.221D+00 0.267D+00 0.204D+00-0.409D+00-0.846D+00 0.574D+00
 Coeff:      0.100D+01-0.102D+01-0.546D-02 0.415D+00-0.378D+01-0.226D+01
 Coeff:      0.408D+01 0.285D+01
 Gap=    -0.012 Goal=   None    Shift=    0.300
 RMSDP=2.88D-08 MaxDP=1.84D-06 DE=-9.08D-10 OVMax= 5.14D-06

 Cycle  46  Pass 1  IDiag  1:
 Density matrix breaks symmetry, PCut= 1.00D-07
 Density matrix has no symmetry -- integrals replicated.
 E= -1049.66418226342     Delta-E=       -0.000000000780 Rises=F Damp=F
 DIIS: error= 4.08D-06 at cycle  46 NSaved=  20.
 NSaved=20 IEnMin=20 EnMin= -1049.66418226342     IErMin=20 ErrMin= 4.08D-06
 ErrMax= 4.08D-06  0.00D+00 EMaxC= 1.00D-01 BMatC= 1.66D-09 BMatP= 1.92D-09
 IDIUse=1 WtCom= 1.00D+00 WtEn= 0.00D+00
 Coeff-Com: -0.848D-01 0.112D-01 0.349D+00-0.284D+00 0.121D+00-0.357D+00
 Coeff-Com:  0.290D+00 0.544D+00-0.401D+00-0.723D+00-0.215D-01 0.968D+00
 Coeff-Com: -0.587D+00-0.312D-01 0.591D+00-0.401D+01-0.191D+01 0.366D+01
 Coeff-Com:  0.140D+01 0.148D+01
 Coeff:     -0.848D-01 0.112D-01 0.349D+00-0.284D+00 0.121D+00-0.357D+00
 Coeff:      0.290D+00 0.544D+00-0.401D+00-0.723D+00-0.215D-01 0.968D+00
 Coeff:     -0.587D+00-0.312D-01 0.591D+00-0.401D+01-0.191D+01 0.366D+01
 Coeff:      0.140D+01 0.148D+01
 Gap=    -0.012 Goal=   None    Shift=    0.300
 RMSDP=2.61D-08 MaxDP=1.67D-06 DE=-7.80D-10 OVMax= 4.58D-06

 Cycle  47  Pass 1  IDiag  1:
 Density matrix breaks symmetry, PCut= 1.00D-07
 Density matrix has no symmetry -- integrals replicated.
 E= -1049.66418226410     Delta-E=       -0.000000000676 Rises=F Damp=F
 DIIS: error= 3.79D-06 at cycle  47 NSaved=  20.
 NSaved=20 IEnMin=20 EnMin= -1049.66418226410     IErMin=20 ErrMin= 3.79D-06
 ErrMax= 3.79D-06  0.00D+00 EMaxC= 1.00D-01 BMatC= 1.43D-09 BMatP= 1.66D-09
 IDIUse=1 WtCom= 1.00D+00 WtEn= 0.00D+00
 Coeff-Com: -0.100D+00 0.271D+00-0.193D+00 0.404D+00-0.421D+00 0.879D-01
 Coeff-Com:  0.164D+00-0.153D+00-0.442D+00-0.484D+00 0.947D+00 0.622D-01
 Coeff-Com: -0.230D+00 0.591D+00-0.360D+01-0.561D+00 0.280D+01-0.547D+00
 Coeff-Com: -0.927D+00 0.333D+01
 Coeff:     -0.100D+00 0.271D+00-0.193D+00 0.404D+00-0.421D+00 0.879D-01
 Coeff:      0.164D+00-0.153D+00-0.442D+00-0.484D+00 0.947D+00 0.622D-01
 Coeff:     -0.230D+00 0.591D+00-0.360D+01-0.561D+00 0.280D+01-0.547D+00
 Coeff:     -0.927D+00 0.333D+01
 Gap=    -0.012 Goal=   None    Shift=    0.300
 RMSDP=2.45D-08 MaxDP=1.60D-06 DE=-6.76D-10 OVMax= 4.31D-06

 Cycle  48  Pass 1  IDiag  1:
 Density matrix breaks symmetry, PCut= 1.00D-07
 Density matrix has no symmetry -- integrals replicated.
 E= -1049.66418226468     Delta-E=       -0.000000000581 Rises=F Damp=F
 DIIS: error= 3.52D-06 at cycle  48 NSaved=  20.
 NSaved=20 IEnMin=20 EnMin= -1049.66418226468     IErMin=20 ErrMin= 3.52D-06
 ErrMax= 3.52D-06  0.00D+00 EMaxC= 1.00D-01 BMatC= 1.23D-09 BMatP= 1.43D-09
 IDIUse=1 WtCom= 1.00D+00 WtEn= 0.00D+00
 Large coefficients: NSaved= 20 BigCof=    0.00 CofMax=   10.00 Det=-4.73D-15
 Inversion failed.  Reducing to 19 matrices.
 Large coefficients: NSaved= 19 BigCof=    0.00 CofMax=   10.00 Det=-4.89D-15
 Inversion failed.  Reducing to 18 matrices.
 Large coefficients: NSaved= 18 BigCof=    0.00 CofMax=   10.00 Det=-4.95D-15
 Inversion failed.  Reducing to 17 matrices.
 Large coefficients: NSaved= 17 BigCof=    0.00 CofMax=   10.00 Det=-5.01D-15
 Inversion failed.  Reducing to 16 matrices.
 Large coefficients: NSaved= 16 BigCof=    0.00 CofMax=   10.00 Det=-5.01D-15
 Inversion failed.  Reducing to 15 matrices.
 Coeff-Com:  0.384D+00-0.306D+00-0.554D+00-0.243D+00 0.937D+00 0.169D+00
 Coeff-Com: -0.376D+00 0.804D+00-0.370D+01-0.658D-01 0.198D+01-0.395D+00
 Coeff-Com: -0.407D+00 0.512D+00 0.226D+01
 Coeff:      0.384D+00-0.306D+00-0.554D+00-0.243D+00 0.937D+00 0.169D+00
 Coeff:     -0.376D+00 0.804D+00-0.370D+01-0.658D-01 0.198D+01-0.395D+00
 Coeff:     -0.407D+00 0.512D+00 0.226D+01
 Gap=    -0.012 Goal=   None    Shift=    0.300
 RMSDP=2.42D-08 MaxDP=1.59D-06 DE=-5.81D-10 OVMax= 4.26D-06

 Cycle  49  Pass 1  IDiag  1:
 Density matrix breaks symmetry, PCut= 1.00D-07
 Density matrix has no symmetry -- integrals replicated.
 E= -1049.66418226518     Delta-E=       -0.000000000503 Rises=F Damp=F
 DIIS: error= 3.27D-06 at cycle  49 NSaved=  16.
 NSaved=16 IEnMin=16 EnMin= -1049.66418226518     IErMin=16 ErrMin= 3.27D-06
 ErrMax= 3.27D-06  0.00D+00 EMaxC= 1.00D-01 BMatC= 1.06D-09 BMatP= 1.23D-09
 IDIUse=1 WtCom= 1.00D+00 WtEn= 0.00D+00
 Large coefficients: NSaved= 16 BigCof=    0.00 CofMax=   10.00 Det=-5.15D-15
 Inversion failed.  Reducing to 15 matrices.
 Coeff-Com:  0.821D-01 0.112D+00-0.724D+00 0.640D+00 0.270D+00-0.450D+00
 Coeff-Com:  0.561D+00-0.329D+01 0.418D-03 0.209D+01-0.377D+00-0.507D+00
 Coeff-Com:  0.257D+00 0.106D+01 0.127D+01
 Coeff:      0.821D-01 0.112D+00-0.724D+00 0.640D+00 0.270D+00-0.450D+00
 Coeff:      0.561D+00-0.329D+01 0.418D-03 0.209D+01-0.377D+00-0.507D+00
 Coeff:      0.257D+00 0.106D+01 0.127D+01
 Gap=    -0.012 Goal=   None    Shift=    0.300
 DSYEVD-2 returned Info=       50471 IAlg= 4 N=   258 NDim=   258 NE2=    41029983 trying  DSYEV.
 RMSDP=2.09D-08 MaxDP=1.41D-06 DE=-5.03D-10 OVMax= 3.66D-06

 Cycle  50  Pass 1  IDiag  1:
 Density matrix breaks symmetry, PCut= 1.00D-07
 Density matrix has no symmetry -- integrals replicated.
 E= -1049.66418226561     Delta-E=       -0.000000000434 Rises=F Damp=F
 DIIS: error= 3.03D-06 at cycle  50 NSaved=  16.
 NSaved=16 IEnMin=16 EnMin= -1049.66418226561     IErMin=16 ErrMin= 3.03D-06
 ErrMax= 3.03D-06  0.00D+00 EMaxC= 1.00D-01 BMatC= 9.18D-10 BMatP= 1.06D-09
 IDIUse=1 WtCom= 1.00D+00 WtEn= 0.00D+00
 Large coefficients: NSaved= 16 BigCof=    0.00 CofMax=   10.00 Det=-5.19D-15
 Inversion failed.  Reducing to 15 matrices.
 Coeff-Com:  0.225D+00-0.452D+00 0.366D+00 0.190D+00-0.485D+00 0.397D+00
 Coeff-Com: -0.279D+01 0.253D+00 0.212D+01-0.534D+00-0.750D+00 0.177D+00
 Coeff-Com:  0.632D+00-0.603D+00 0.224D+01
 Coeff:      0.225D+00-0.452D+00 0.366D+00 0.190D+00-0.485D+00 0.397D+00
 Coeff:     -0.279D+01 0.253D+00 0.212D+01-0.534D+00-0.750D+00 0.177D+00
 Coeff:      0.632D+00-0.603D+00 0.224D+01
 Gap=    -0.012 Goal=   None    Shift=    0.300
 RMSDP=1.96D-08 MaxDP=1.25D-06 DE=-4.34D-10 OVMax= 3.31D-06

 Cycle  51  Pass 1  IDiag  1:
 Density matrix breaks symmetry, PCut= 1.00D-07
 Density matrix has no symmetry -- integrals replicated.
 E= -1049.66418226599     Delta-E=       -0.000000000374 Rises=F Damp=F
 DIIS: error= 2.81D-06 at cycle  51 NSaved=  16.
 NSaved=16 IEnMin=16 EnMin= -1049.66418226599     IErMin=16 ErrMin= 2.81D-06
 ErrMax= 2.81D-06  0.00D+00 EMaxC= 1.00D-01 BMatC= 7.93D-10 BMatP= 9.18D-10
 IDIUse=1 WtCom= 1.00D+00 WtEn= 0.00D+00
 Large coefficients: NSaved= 16 BigCof=    0.00 CofMax=   10.00 Det=-5.33D-15
 Inversion failed.  Reducing to 15 matrices.
 Coeff-Com: -0.557D-01 0.210D+00 0.109D+00-0.454D+00 0.377D+00-0.244D+01
 Coeff-Com:  0.330D+00 0.202D+01-0.463D+00-0.773D+00 0.521D+00-0.271D+00
 Coeff-Com: -0.122D+01 0.158D+01 0.154D+01
 Coeff:     -0.557D-01 0.210D+00 0.109D+00-0.454D+00 0.377D+00-0.244D+01
 Coeff:      0.330D+00 0.202D+01-0.463D+00-0.773D+00 0.521D+00-0.271D+00
 Coeff:     -0.122D+01 0.158D+01 0.154D+01
 Gap=    -0.012 Goal=   None    Shift=    0.300
 DSYEVD-2 returned Info=       58792 IAlg= 4 N=   258 NDim=   258 NE2=    41029983 trying  DSYEV.
 RMSDP=1.80D-08 MaxDP=1.16D-06 DE=-3.74D-10 OVMax= 3.14D-06

 Cycle  52  Pass 1  IDiag  1:
 Density matrix breaks symmetry, PCut= 1.00D-07
 Density matrix has no symmetry -- integrals replicated.
 E= -1049.66418226631     Delta-E=       -0.000000000322 Rises=F Damp=F
 DIIS: error= 2.62D-06 at cycle  52 NSaved=  16.
 NSaved=16 IEnMin=16 EnMin= -1049.66418226631     IErMin=16 ErrMin= 2.62D-06
 ErrMax= 2.62D-06  0.00D+00 EMaxC= 1.00D-01 BMatC= 6.85D-10 BMatP= 7.93D-10
 IDIUse=1 WtCom= 1.00D+00 WtEn= 0.00D+00
 Large coefficients: NSaved= 16 BigCof=    0.00 CofMax=   10.00 Det=-6.82D-15
 Inversion failed.  Reducing to 15 matrices.
 Coeff-Com:  0.607D-01 0.197D+00-0.418D+00 0.324D+00-0.205D+01 0.525D+00
 Coeff-Com:  0.168D+01-0.501D+00-0.610D+00 0.273D+00-0.617D+00-0.155D+01
 Coeff-Com:  0.167D+01 0.470D+00 0.155D+01
 Coeff:      0.607D-01 0.197D+00-0.418D+00 0.324D+00-0.205D+01 0.525D+00
 Coeff:      0.168D+01-0.501D+00-0.610D+00 0.273D+00-0.617D+00-0.155D+01
 Coeff:      0.167D+01 0.470D+00 0.155D+01
 Gap=    -0.012 Goal=   None    Shift=    0.300
 RMSDP=1.65D-08 MaxDP=1.09D-06 DE=-3.22D-10 OVMax= 2.92D-06

 Cycle  53  Pass 1  IDiag  1:
 Density matrix breaks symmetry, PCut= 1.00D-07
 Density matrix has no symmetry -- integrals replicated.
 E= -1049.66418226659     Delta-E=       -0.000000000279 Rises=F Damp=F
 DIIS: error= 2.44D-06 at cycle  53 NSaved=  16.
 NSaved=16 IEnMin=16 EnMin= -1049.66418226659     IErMin=16 ErrMin= 2.44D-06
 ErrMax= 2.44D-06  0.00D+00 EMaxC= 1.00D-01 BMatC= 5.91D-10 BMatP= 6.85D-10
 IDIUse=1 WtCom= 1.00D+00 WtEn= 0.00D+00
 Large coefficients: NSaved= 16 BigCof=    0.00 CofMax=   10.00 Det=-8.51D-16
 Inversion failed.  Reducing to 15 matrices.
 Coeff-Com:  0.255D+00-0.326D+00 0.246D+00-0.186D+01 0.596D+00 0.142D+01
 Coeff-Com: -0.426D+00-0.413D+00 0.140D-01-0.723D+00-0.145D+01 0.193D+01
 Coeff-Com:  0.320D+00-0.535D+00 0.196D+01
 Coeff:      0.255D+00-0.326D+00 0.246D+00-0.186D+01 0.596D+00 0.142D+01
 Coeff:     -0.426D+00-0.413D+00 0.140D-01-0.723D+00-0.145D+01 0.193D+01
 Coeff:      0.320D+00-0.535D+00 0.196D+01
 Gap=    -0.012 Goal=   None    Shift=    0.300
 RMSDP=1.52D-08 MaxDP=1.01D-06 DE=-2.79D-10 OVMax= 2.70D-06

 Cycle  54  Pass 1  IDiag  1:
 Density matrix breaks symmetry, PCut= 1.00D-07
 Density matrix has no symmetry -- integrals replicated.
 E= -1049.66418226683     Delta-E=       -0.000000000240 Rises=F Damp=F
 DIIS: error= 2.26D-06 at cycle  54 NSaved=  16.
 NSaved=16 IEnMin=16 EnMin= -1049.66418226683     IErMin=16 ErrMin= 2.26D-06
 ErrMax= 2.26D-06  0.00D+00 EMaxC= 1.00D-01 BMatC= 5.10D-10 BMatP= 5.91D-10
 IDIUse=1 WtCom= 1.00D+00 WtEn= 0.00D+00
 Large coefficients: NSaved= 16 BigCof=    0.00 CofMax=   10.00 Det=-2.35D-16
 Inversion failed.  Reducing to 15 matrices.
 Coeff-Com: -0.368D-02 0.943D-01-0.177D+01 0.250D+00 0.132D+01 0.412D+00
 Coeff-Com:  0.233D+00-0.249D+00-0.150D+01-0.864D+00 0.254D+01 0.662D+00
 Coeff-Com:  0.396D-01-0.800D+01 0.783D+01
 Coeff:     -0.368D-02 0.943D-01-0.177D+01 0.250D+00 0.132D+01 0.412D+00
 Coeff:      0.233D+00-0.249D+00-0.150D+01-0.864D+00 0.254D+01 0.662D+00
 Coeff:      0.396D-01-0.800D+01 0.783D+01
 Gap=    -0.012 Goal=   None    Shift=    0.300
 RMSDP=1.43D-08 MaxDP=9.43D-07 DE=-2.40D-10 OVMax= 2.35D-06

 Cycle  55  Pass 1  IDiag  1:
 Density matrix breaks symmetry, PCut= 1.00D-07
 Density matrix has no symmetry -- integrals replicated.
 E= -1049.66418226704     Delta-E=       -0.000000000208 Rises=F Damp=F
 DIIS: error= 2.10D-06 at cycle  55 NSaved=  16.
 NSaved=16 IEnMin=16 EnMin= -1049.66418226704     IErMin=16 ErrMin= 2.10D-06
 ErrMax= 2.10D-06  0.00D+00 EMaxC= 1.00D-01 BMatC= 4.41D-10 BMatP= 5.10D-10
 IDIUse=1 WtCom= 1.00D+00 WtEn= 0.00D+00
 Large coefficients: NSaved= 16 BigCof=    0.00 CofMax=   10.00 Det=-2.66D-16
 Inversion failed.  Reducing to 15 matrices.
 Coeff-Com:  0.128D+00-0.165D+01 0.319D+00 0.107D+01 0.517D+00 0.526D+00
 Coeff-Com: -0.451D+00-0.175D+01-0.882D+00 0.252D+01 0.422D+00 0.139D+00
 Coeff-Com: -0.734D+01 0.600D+01 0.142D+01
 Coeff:      0.128D+00-0.165D+01 0.319D+00 0.107D+01 0.517D+00 0.526D+00
 Coeff:     -0.451D+00-0.175D+01-0.882D+00 0.252D+01 0.422D+00 0.139D+00
 Coeff:     -0.734D+01 0.600D+01 0.142D+01
 Gap=    -0.012 Goal=   None    Shift=    0.300
 RMSDP=1.31D-08 MaxDP=8.70D-07 DE=-2.08D-10 OVMax= 2.15D-06

 Cycle  56  Pass 1  IDiag  1:
 Density matrix breaks symmetry, PCut= 1.00D-07
 Density matrix has no symmetry -- integrals replicated.
 E= -1049.66418226722     Delta-E=       -0.000000000179 Rises=F Damp=F
 DIIS: error= 1.95D-06 at cycle  56 NSaved=  16.
 NSaved=16 IEnMin=16 EnMin= -1049.66418226722     IErMin=16 ErrMin= 1.95D-06
 ErrMax= 1.95D-06  0.00D+00 EMaxC= 1.00D-01 BMatC= 3.81D-10 BMatP= 4.41D-10
 IDIUse=1 WtCom= 1.00D+00 WtEn= 0.00D+00
 Large coefficients: NSaved= 16 BigCof=    0.00 CofMax=   10.00 Det=-2.66D-16
 Inversion failed.  Reducing to 15 matrices.
 Coeff-Com: -0.141D+01 0.417D+00 0.923D+00 0.559D+00 0.629D+00-0.519D+00
 Coeff-Com: -0.190D+01-0.790D+00 0.254D+01 0.283D+00 0.430D+00-0.738D+01
 Coeff-Com:  0.586D+01-0.835D+00 0.219D+01
 Coeff:     -0.141D+01 0.417D+00 0.923D+00 0.559D+00 0.629D+00-0.519D+00
 Coeff:     -0.190D+01-0.790D+00 0.254D+01 0.283D+00 0.430D+00-0.738D+01
 Coeff:      0.586D+01-0.835D+00 0.219D+01
 Gap=    -0.012 Goal=   None    Shift=    0.300
 RMSDP=1.22D-08 MaxDP=8.12D-07 DE=-1.79D-10 OVMax= 2.12D-06

 Cycle  57  Pass 1  IDiag  1:
 Density matrix breaks symmetry, PCut= 1.00D-07
 Density matrix has no symmetry -- integrals replicated.
 E= -1049.66418226737     Delta-E=       -0.000000000155 Rises=F Damp=F
 DIIS: error= 1.82D-06 at cycle  57 NSaved=  16.
[...]
  37       29PZ         0.00064   0.00032   0.00032   0.00000
  38       30PX         0.00492   0.00246   0.00246   0.00000
  39       30PY         0.00492   0.00246   0.00246   0.00000
  40       30PZ         0.00492   0.00246   0.00246   0.00000
  41       31PX         0.02768   0.01384   0.01384   0.00000
  42       31PY         0.02768   0.01384   0.01384  -0.00000
  43       31PZ         0.02768   0.01384   0.01384   0.00000
  44       32PX         0.11317   0.05659   0.05659   0.00000
  45       32PY         0.11317   0.05659   0.05659   0.00000
  46       32PZ         0.11317   0.05659   0.05659   0.00000
  47       33PX         0.31897   0.15949   0.15949   0.00000
  48       33PY         0.31897   0.15949   0.15949   0.00000
  49       33PZ         0.31897   0.15949   0.15949   0.00000
  50       34PX         0.58504   0.29252   0.29252  -0.00000
  51       34PY         0.58504   0.29252   0.29252   0.00000
  52       34PZ         0.58504   0.29252   0.29252  -0.00000
  53       35PX         0.61677   0.30839   0.30839  -0.00000
  54       35PY         0.61677   0.30839   0.30839   0.00000
  55       35PZ         0.61677   0.30839   0.30839   0.00000
  56       36PX         0.14741   0.07371   0.07371  -0.00000
  57       36PY         0.14741   0.07371   0.07371   0.00000
  58       36PZ         0.14741   0.07371   0.07371   0.00000
  59       37PX         0.30889   0.15445   0.15445  -0.00000
  60       37PY         0.30889   0.15445   0.15445   0.00000
  61       37PZ         0.30889   0.15445   0.15445   0.00000
  62       38PX         0.68403   0.34202   0.34202   0.00000
  63       38PY         0.68403   0.34202   0.34202  -0.00000
  64       38PZ         0.68403   0.34202   0.34202  -0.00000
  65       39PX         0.71413   0.35706   0.35706  -0.00000
  66       39PY         0.71413   0.35706   0.35706  -0.00000
  67       39PZ         0.71413   0.35706   0.35706  -0.00000
  68       40PX         0.27261   0.13631   0.13631   0.00000
  69       40PY         0.27261   0.13631   0.13631   0.00000
  70       40PZ         0.27261   0.13631   0.13631   0.00000
  71       41PX         0.01885   0.00943   0.00943  -0.00000
  72       41PY         0.01885   0.00943   0.00943   0.00000
  73       41PZ         0.01885   0.00943   0.00943  -0.00000
  74       42PX        -0.00053  -0.00026  -0.00026   0.00000
  75       42PY        -0.00053  -0.00026  -0.00026   0.00000
  76       42PZ        -0.00053  -0.00026  -0.00026   0.00000
  77       43PX         0.00014   0.00007   0.00007  -0.00000
  78       43PY         0.00014   0.00007   0.00007  -0.00000
  79       43PZ         0.00014   0.00007   0.00007  -0.00000
  80       44PX         0.16274   0.08137   0.08137   0.00000
  81       44PY         0.16274   0.08137   0.08137  -0.00000
  82       44PZ         0.16274   0.08137   0.08137  -0.00000
  83       45PX         0.02446   0.01223   0.01223  -0.00000
  84       45PY         0.02446   0.01223   0.01223   0.00000
  85       45PZ         0.02446   0.01223   0.01223   0.00000
  86       46PX        -0.00001  -0.00001  -0.00001   0.00000
  87       46PY        -0.00001  -0.00001  -0.00001   0.00000
  88       46PZ        -0.00001  -0.00001  -0.00001   0.00000
  89       47D 0        0.00000   0.00000   0.00000   0.00000
  90       47D+1        0.00000   0.00000   0.00000   0.00000
  91       47D-1        0.00000   0.00000   0.00000   0.00000
  92       47D+2        0.00000   0.00000   0.00000   0.00000
  93       47D-2        0.00000   0.00000   0.00000   0.00000
  94       48D 0        0.00014   0.00014   0.00000   0.00014
  95       48D+1        0.00014   0.00014   0.00000   0.00014
  96       48D-1        0.00014   0.00014   0.00000   0.00014
  97       48D+2        0.00014   0.00014   0.00000   0.00014
  98       48D-2        0.00014   0.00014   0.00000   0.00014
  99       49D 0        0.00209   0.00209   0.00000   0.00209
 100       49D+1        0.00209   0.00209   0.00000   0.00209
 101       49D-1        0.00209   0.00209   0.00000   0.00209
 102       49D+2        0.00209   0.00209   0.00000   0.00209
 103       49D-2        0.00209   0.00209   0.00000   0.00209
 104       50D 0        0.01504   0.01504   0.00000   0.01504
 105       50D+1        0.01504   0.01504   0.00000   0.01504
 106       50D-1        0.01504   0.01504   0.00000   0.01504
 107       50D+2        0.01504   0.01504   0.00000   0.01504
 108       50D-2        0.01504   0.01504   0.00000   0.01504
 109       51D 0        0.06505   0.06505   0.00000   0.06505
 110       51D+1        0.06505   0.06505   0.00000   0.06505
 111       51D-1        0.06505   0.06505   0.00000   0.06505
 112       51D+2        0.06505   0.06505   0.00000   0.06505
 113       51D-2        0.06505   0.06505   0.00000   0.06505
 114       52D 0        0.16539   0.16539   0.00000   0.16539
 115       52D+1        0.16539   0.16539   0.00000   0.16539
 116       52D-1        0.16539   0.16539   0.00000   0.16539
 117       52D+2        0.16539   0.16539   0.00000   0.16539
 118       52D-2        0.16539   0.16539   0.00000   0.16539
 119       53D 0        0.25833   0.25833   0.00000   0.25833
 120       53D+1        0.25833   0.25833   0.00000   0.25833
 121       53D-1        0.25833   0.25833   0.00000   0.25833
 122       53D+2        0.25833   0.25833   0.00000   0.25833
 123       53D-2        0.25833   0.25833   0.00000   0.25833
 124       54D 0        0.26263   0.26263   0.00000   0.26263
 125       54D+1        0.26263   0.26263   0.00000   0.26263
 126       54D-1        0.26263   0.26263   0.00000   0.26263
 127       54D+2        0.26263   0.26263   0.00000   0.26263
 128       54D-2        0.26263   0.26263   0.00000   0.26263
 129       55D 0        0.17140   0.17140   0.00000   0.17140
 130       55D+1        0.17140   0.17140   0.00000   0.17140
 131       55D-1        0.17140   0.17140   0.00000   0.17140
 132       55D+2        0.17140   0.17140   0.00000   0.17140
 133       55D-2        0.17140   0.17140   0.00000   0.17140
 134       56D 0        0.05537   0.05537   0.00000   0.05537
 135       56D+1        0.05537   0.05537   0.00000   0.05537
 136       56D-1        0.05537   0.05537   0.00000   0.05537
 137       56D+2        0.05537   0.05537   0.00000   0.05537
 138       56D-2        0.05537   0.05537   0.00000   0.05537
 139       57D 0        0.00364   0.00364   0.00000   0.00364
 140       57D+1        0.00364   0.00364   0.00000   0.00364
 141       57D-1        0.00364   0.00364   0.00000   0.00364
 142       57D+2        0.00364   0.00364   0.00000   0.00364
 143       57D-2        0.00364   0.00364   0.00000   0.00364
 144       58D 0        0.00040   0.00040   0.00000   0.00040
 145       58D+1        0.00040   0.00040   0.00000   0.00040
 146       58D-1        0.00040   0.00040   0.00000   0.00040
 147       58D+2        0.00040   0.00040   0.00000   0.00040
 148       58D-2        0.00040   0.00040   0.00000   0.00040
 149       59D 0        0.00056   0.00056   0.00000   0.00056
 150       59D+1        0.00056   0.00056   0.00000   0.00056
 151       59D-1        0.00056   0.00056   0.00000   0.00056
 152       59D+2        0.00056   0.00056   0.00000   0.00056
 153       59D-2        0.00056   0.00056   0.00000   0.00056
 154       60D 0       -0.00004  -0.00004  -0.00000  -0.00004
 155       60D+1       -0.00004  -0.00004  -0.00000  -0.00004
 156       60D-1       -0.00004  -0.00004  -0.00000  -0.00004
 157       60D+2       -0.00004  -0.00004  -0.00000  -0.00004
 158       60D-2       -0.00004  -0.00004  -0.00000  -0.00004
 159       61F 0        0.00000   0.00000   0.00000   0.00000
 160       61F+1        0.00000   0.00000   0.00000   0.00000
 161       61F-1        0.00000   0.00000   0.00000   0.00000
 162       61F+2        0.00000   0.00000   0.00000   0.00000
 163       61F-2        0.00000   0.00000   0.00000   0.00000
 164       61F+3        0.00000   0.00000   0.00000   0.00000
 165       61F-3        0.00000   0.00000   0.00000   0.00000
 166       62F 0        0.00000   0.00000   0.00000   0.00000
 167       62F+1        0.00000   0.00000   0.00000   0.00000
 168       62F-1        0.00000   0.00000   0.00000   0.00000
 169       62F+2        0.00000   0.00000   0.00000   0.00000
 170       62F-2        0.00000   0.00000   0.00000   0.00000
 171       62F+3        0.00000   0.00000   0.00000   0.00000
 172       62F-3        0.00000   0.00000   0.00000   0.00000
 173       63F 0        0.00000   0.00000   0.00000   0.00000
 174       63F+1        0.00000   0.00000   0.00000   0.00000
 175       63F-1        0.00000   0.00000   0.00000   0.00000
 176       63F+2        0.00000   0.00000   0.00000   0.00000
 177       63F-2        0.00000   0.00000   0.00000   0.00000
 178       63F+3        0.00000   0.00000   0.00000   0.00000
 179       63F-3        0.00000   0.00000   0.00000   0.00000
 180       64F 0        0.00000   0.00000   0.00000   0.00000
 181       64F+1        0.00000   0.00000   0.00000   0.00000
 182       64F-1        0.00000  -0.00000   0.00000  -0.00000
 183       64F+2        0.00000   0.00000   0.00000   0.00000
 184       64F-2        0.00000   0.00000   0.00000   0.00000
 185       64F+3        0.00000   0.00000   0.00000   0.00000
 186       64F-3        0.00000   0.00000   0.00000   0.00000
 187       65F 0        0.00000   0.00000   0.00000   0.00000
 188       65F+1        0.00000   0.00000  -0.00000   0.00000
 189       65F-1        0.00000   0.00000   0.00000   0.00000
 190       65F+2        0.00000   0.00000   0.00000   0.00000
 191       65F-2        0.00000   0.00000   0.00000   0.00000
 192       65F+3        0.00000   0.00000   0.00000   0.00000
 193       65F-3        0.00000   0.00000   0.00000   0.00000
 194       66G 0        0.00000   0.00000   0.00000   0.00000
 195       66G+1        0.00000   0.00000   0.00000   0.00000
 196       66G-1        0.00000   0.00000   0.00000   0.00000
 197       66G+2        0.00000   0.00000   0.00000   0.00000
 198       66G-2        0.00000   0.00000   0.00000   0.00000
 199       66G+3        0.00000   0.00000   0.00000   0.00000
 200       66G-3        0.00000   0.00000   0.00000   0.00000
 201       66G+4        0.00000   0.00000   0.00000   0.00000
 202       66G-4        0.00000   0.00000  -0.00000   0.00000
 203       67G 0        0.00000   0.00000   0.00000   0.00000
 204       67G+1        0.00000   0.00000   0.00000   0.00000
 205       67G-1        0.00000   0.00000   0.00000   0.00000
 206       67G+2        0.00000   0.00000   0.00000   0.00000
 207       67G-2        0.00000   0.00000   0.00000   0.00000
 208       67G+3        0.00000   0.00000   0.00000   0.00000
 209       67G-3        0.00000   0.00000   0.00000   0.00000
 210       67G+4        0.00000   0.00000   0.00000   0.00000
 211       67G-4        0.00000   0.00000   0.00000   0.00000
 212       68G 0        0.00000   0.00000   0.00000   0.00000
 213       68G+1        0.00000   0.00000  -0.00000   0.00000
 214       68G-1        0.00000   0.00000  -0.00000   0.00000
 215       68G+2        0.00000   0.00000  -0.00000   0.00000
 216       68G-2        0.00000   0.00000  -0.00000   0.00000
 217       68G+3        0.00000   0.00000  -0.00000   0.00000
 218       68G-3        0.00000   0.00000  -0.00000   0.00000
 219       68G+4        0.00000   0.00000   0.00000   0.00000
 220       68G-4        0.00000   0.00000   0.00000   0.00000
 221       69G 0        0.00000   0.00000   0.00000   0.00000
 222       69G+1        0.00000   0.00000   0.00000   0.00000
 223       69G-1        0.00000   0.00000   0.00000   0.00000
 224       69G+2        0.00000   0.00000   0.00000   0.00000
 225       69G-2        0.00000   0.00000   0.00000   0.00000
 226       69G+3        0.00000   0.00000   0.00000   0.00000
 227       69G-3        0.00000   0.00000   0.00000   0.00000
 228       69G+4        0.00000   0.00000   0.00000   0.00000
 229       69G-4        0.00000   0.00000   0.00000   0.00000
 230       70H 0        0.00000   0.00000   0.00000   0.00000
 231       70H+1        0.00000   0.00000   0.00000   0.00000
 232       70H-1        0.00000   0.00000   0.00000   0.00000
 233       70H+2        0.00000   0.00000   0.00000   0.00000
 234       70H-2        0.00000   0.00000   0.00000   0.00000
 235       70H+3        0.00000   0.00000   0.00000   0.00000
 236       70H-3        0.00000   0.00000   0.00000   0.00000
 237       70H+4        0.00000   0.00000   0.00000   0.00000
 238       70H-4        0.00000   0.00000   0.00000   0.00000
 239       70H+5        0.00000   0.00000   0.00000   0.00000
 240       70H-5        0.00000   0.00000   0.00000   0.00000
 241       71H 0        0.00000   0.00000  -0.00000   0.00000
 242       71H+1        0.00000   0.00000  -0.00000   0.00000
 243       71H-1        0.00000   0.00000  -0.00000   0.00000
 244       71H+2        0.00000   0.00000  -0.00000   0.00000
 245       71H-2        0.00000   0.00000  -0.00000   0.00000
 246       71H+3        0.00000   0.00000   0.00000   0.00000
 247       71H-3        0.00000   0.00000  -0.00000   0.00000
 248       71H+4        0.00000   0.00000  -0.00000   0.00000
 249       71H-4        0.00000   0.00000   0.00000   0.00000
 250       71H+5        0.00000   0.00000  -0.00000   0.00000
 251       71H-5        0.00000   0.00000  -0.00000   0.00000
 252       72H 0        0.00000   0.00000   0.00000   0.00000
 253       72H+1        0.00000   0.00000   0.00000   0.00000
 254       72H-1        0.00000   0.00000   0.00000   0.00000
 255       72H+2        0.00000   0.00000   0.00000   0.00000
 256       72H-2        0.00000   0.00000   0.00000   0.00000
 257       72H+3        0.00000   0.00000   0.00000   0.00000
 258       72H-3        0.00000   0.00000   0.00000   0.00000
 259       72H+4        0.00000   0.00000   0.00000   0.00000
 260       72H-4        0.00000   0.00000   0.00000   0.00000
 261       72H+5        0.00000   0.00000   0.00000   0.00000
 262       72H-5        0.00000   0.00000   0.00000   0.00000
          Condensed to atoms (all electrons):
               1
     1  Cr  24.000000
          Atomic-Atomic Spin Densities.
               1
     1  Cr   6.000000
 Mulliken charges and spin densities:
               1          2
     1  Cr  -0.000000   6.000000
 Sum of Mulliken charges =  -0.00000   6.00000
 Mulliken charges and spin densities with hydrogens summed into heavy atoms:
               1          2
     1  Cr  -0.000000   6.000000
 Electronic spatial extent (au):  <R**2>=             37.3644
 Charge=             -0.0000 electrons
 Dipole moment (field-independent basis, Debye):
    X=              0.0000    Y=              0.0000    Z=              0.0000  Tot=              0.0000
 Quadrupole moment (field-independent basis, Debye-Ang):
   XX=            -16.7521   YY=            -16.7521   ZZ=            -16.7521
   XY=              0.0000   XZ=             -0.0000   YZ=              0.0000
 Traceless Quadrupole moment (field-independent basis, Debye-Ang):
   XX=              0.0000   YY=             -0.0000   ZZ=             -0.0000
   XY=              0.0000   XZ=             -0.0000   YZ=              0.0000
 Octapole moment (field-independent basis, Debye-Ang**2):
  XXX=              0.0000  YYY=              0.0000  ZZZ=              0.0000  XYY=              0.0000
  XXY=              0.0000  XXZ=              0.0000  XZZ=              0.0000  YZZ=              0.0000
  YYZ=              0.0000  XYZ=             -0.0000
 Hexadecapole moment (field-independent basis, Debye-Ang**3):
 XXXX=            -38.7623 YYYY=            -38.7623 ZZZZ=            -38.7623 XXXY=             -0.0000
 XXXZ=             -0.0000 YYYX=             -0.0000 YYYZ=              0.0000 ZZZX=             -0.0000
 ZZZY=             -0.0000 XXYY=            -12.9207 XXZZ=            -12.9207 YYZZ=            -12.9207
 XXYZ=              0.0000 YYXZ=             -0.0000 ZZXY=             -0.0000
 N-N= 0.000000000000D+00 E-N=-2.535685489993D+03  KE= 1.087841438353D+03
 Orbital energies and kinetic energies (alpha):
                                 1                 2
   5         (T1U)--O        -22.246172         49.460280
   6         (A1G)--O         -3.514151         10.429194
   7         (T1U)--O         -2.271762          8.694825
   8         (T1U)--O         -2.271762          8.694825
   9         (T1U)--O         -2.271762          8.694825
  10         (A1G)--O         -0.366885          0.669334
  11         O                -0.366885          4.861485
  12         O                -0.366885          4.861485
  13         O                -0.366884          4.861487
  14         O                -0.366884          4.861486
  15         O                -0.226219          4.861487
  16         (T1U)--V          0.017135          0.045061
  17         (T1U)--V          0.017135          0.045061
  18         (T1U)--V          0.017135          0.045061
  19         (A1G)--V          0.024164          0.050693
  20         V                 0.055243          0.063003
 Total kinetic energy from orbitals= 1.112818203480D+03
 FoFCou: FMM=F IPFlag=           8 FMFlag=           0 FMFlg1=           0
         NFxFlg=           0 DoJE=F BraDBF=T KetDBF=F FulRan=T
         wScrn=  0.000000 ICntrl=   2000500 IOpCl=  0 I1Cent=           5 NGrid=           0
         NMat0=    1 NMatS0=      1 NMatT0=    0 NMatD0=    1 NMtDS0=    0 NMtDT0=    0
 Symmetry not used in FoFCou.
                          Isotropic Fermi Contact Couplings
        Atom                 a.u.       MegaHertz       Gauss      10(-4) cm-1
     1  Cr(53)             4.53871    -191.50577     -68.33402     -63.87945
 --------------------------------------------------------
       Center         ----  Spin Dipole Couplings  ----
                      3XX-RR        3YY-RR        3ZZ-RR
 --------------------------------------------------------
     1   Atom       -0.000000      0.000000     -0.000000
 --------------------------------------------------------
                        XY            XZ            YZ
 --------------------------------------------------------
     1   Atom       -0.000000     -0.000000     -0.000000
 --------------------------------------------------------


 ---------------------------------------------------------------------------------
              Anisotropic Spin Dipole Couplings in Principal Axis System
 ---------------------------------------------------------------------------------

       Atom             a.u.   MegaHertz   Gauss  10(-4) cm-1        Axes

              Baa    -0.0000     0.000     0.000     0.000  0.7468  0.0959  0.6581
     1 Cr(53) Bbb     0.0000    -0.000    -0.000    -0.000 -0.5845 -0.3773  0.7183
              Bcc     0.0000    -0.000    -0.000    -0.000 -0.3172  0.9211  0.2257
 

 ---------------------------------------------------------------------------------

 No NMR shielding tensors so no spin-rotation constants.
 Leave Link  601 at Wed Mar  7 17:21:29 2018, MaxMem= 10737418240 cpu:              14.9 elap:               1.0
 (Enter /home1/apps/gaussian/16rA.03/g16/l9999.exe)

 Test job not archived.
 1\1\GINC-C506-001\SP\ROCCSD(T)-Full\Gen\Cr1(7)\AANNABE\07-Mar-2018\0\\
 #P ROCCSD(T)=(maxcyc=150, Full)/Gen 5d 7f SCF=(maxcycles=300, NoVarAcc
 , VShift=300) Integral(NoXCTest, DKHSO) MaxDisk=100GB Pop=Regular IOp(
 5/15=2)\\Cr\\0,7\Cr,0,0.,0.,0.\\Version=ES64L-G16RevA.03\State=7-A1G\H
 F=-1049.6641823\MP2=-1050.6156907\MP3=-1050.5902962\PUHF=-1049.6641823
 \PMP2-0=-1050.6156907\MP4SDQ=-1050.5971788\CCSD=-1050.5951427\CCSD(T)=
 -1050.6133336\RMSD=9.868e-09\PG=OH [O(Cr1)]\\@


 THE ONLY DIFFERENCE BETWEEN ECCENTRICS AND JOGGERS
 IS THAT JOGGERS WEAR SWEATBANDS WHEN THEY RUN IN THE RAIN.
 Job cpu time:       0 days  5 hours 17 minutes 21.1 seconds.
 Elapsed time:       0 days  0 hours 20 minutes 14.7 seconds.
 File lengths (MBytes):  RWF=  28251 Int=      0 D2E=      0 Chk=     10 Scr=      1
 Normal termination of Gaussian 16 at Wed Mar  7 17:21:30 2018.
