 Entering Gaussian System, Link 0=g16
 Initial command:
 /home1/apps/gaussian/16rA.03/g16/l1.exe "/tmp/Gau-160933.inp" -scrdir="/tmp/"
 Entering Link 1 = /home1/apps/gaussian/16rA.03/g16/l1.exe PID=    160934.
  
 Copyright (c) 1988,1990,1992,1993,1995,1998,2003,2009,2016,
            Gaussian, Inc.  All Rights Reserved.
  
 This is part of the Gaussian(R) 16 program.  It is based on
 the Gaussian(R) 09 system (copyright 2009, Gaussian, Inc.),
 the Gaussian(R) 03 system (copyright 2003, Gaussian, Inc.),
 the Gaussian(R) 98 system (copyright 1998, Gaussian, Inc.),
 the Gaussian(R) 94 system (copyright 1995, Gaussian, Inc.),
 the Gaussian 92(TM) system (copyright 1992, Gaussian, Inc.),
 the Gaussian 90(TM) system (copyright 1990, Gaussian, Inc.),
 the Gaussian 88(TM) system (copyright 1988, Gaussian, Inc.),
 the Gaussian 86(TM) system (copyright 1986, Carnegie Mellon
 University), and the Gaussian 82(TM) system (copyright 1983,
 Carnegie Mellon University). Gaussian is a federally registered
 trademark of Gaussian, Inc.
  
 This software contains proprietary and confidential information,
 including trade secrets, belonging to Gaussian, Inc.
  
 This software is provided under written license and may be
 used, copied, transmitted, or stored only in accord with that
 written license.
  
 The following legend is applicable only to US Government
 contracts under FAR:
  
                    RESTRICTED RIGHTS LEGEND
  
 Use, reproduction and disclosure by the US Government is
 subject to restrictions as set forth in subparagraphs (a)
 and (c) of the Commercial Computer Software - Restricted
 Rights clause in FAR 52.227-19.
  
 Gaussian, Inc.
 340 Quinnipiac St., Bldg. 40, Wallingford CT 06492
  
  
 ---------------------------------------------------------------
 Warning -- This program may not be used in any manner that
 competes with the business of Gaussian, Inc. or will provide
 assistance to any competitor of Gaussian, Inc.  The licensee
 of this program is prohibited from giving any competitor of
 Gaussian, Inc. access to this program.  By using this program,
 the user acknowledges that Gaussian, Inc. is engaged in the
 business of creating and licensing software in the field of
 computational chemistry and represents and warrants to the
 licensee that it is not a competitor of Gaussian, Inc. and that
 it will not use this program in any manner prohibited above.
 ---------------------------------------------------------------
  

 Cite this work as:
 Gaussian 16, Revision A.03,
 M. J. Frisch, G. W. Trucks, H. B. Schlegel, G. E. Scuseria, 
 M. A. Robb, J. R. Cheeseman, G. Scalmani, V. Barone, 
 G. A. Petersson, H. Nakatsuji, X. Li, M. Caricato, A. V. Marenich, 
 J. Bloino, B. G. Janesko, R. Gomperts, B. Mennucci, H. P. Hratchian, 
 J. V. Ortiz, A. F. Izmaylov, J. L. Sonnenberg, D. Williams-Young, 
 F. Ding, F. Lipparini, F. Egidi, J. Goings, B. Peng, A. Petrone, 
 T. Henderson, D. Ranasinghe, V. G. Zakrzewski, J. Gao, N. Rega, 
 G. Zheng, W. Liang, M. Hada, M. Ehara, K. Toyota, R. Fukuda, 
 J. Hasegawa, M. Ishida, T. Nakajima, Y. Honda, O. Kitao, H. Nakai, 
 T. Vreven, K. Throssell, J. A. Montgomery, Jr., J. E. Peralta, 
 F. Ogliaro, M. J. Bearpark, J. J. Heyd, E. N. Brothers, K. N. Kudin, 
 V. N. Staroverov, T. A. Keith, R. Kobayashi, J. Normand, 
 K. Raghavachari, A. P. Rendell, J. C. Burant, S. S. Iyengar, 
 J. Tomasi, M. Cossi, J. M. Millam, M. Klene, C. Adamo, R. Cammi, 
 J. W. Ochterski, R. L. Martin, K. Morokuma, O. Farkas, 
 J. B. Foresman, and D. J. Fox, Gaussian, Inc., Wallingford CT, 2016.
 
 ******************************************
 Gaussian 16:  ES64L-G16RevA.03 25-Dec-2016
                28-Apr-2018 
 ******************************************
 %mem=80GB
 %cpu=0-31
 SetSPE:  set environment variable "MP_BIND" = "yes"
 SetSPE:  set environment variable "MP_BLIST" = "0,1,2,3,4,5,6,7,8,9,10,11,12,13,14,15,16,17,18,19,20,21,22,23,24,25,26,27,28,29,30,31"
 Will use up to   32 processors via shared memory.
 %chk=5z.chk
 %rwf=/scratch/04843/gwang18/znh/
 ----------------------------------------------------------------------
 #P ROCCSD(T)=(MaxCyc=150, Full)/Gen SCF=(maxcycle=400, vshift=200) Pse
 udo=Read Integral(NoXCTest) Pop=Regular MaxDisk=500GB Guess=Read IOp(5
 /15=2)
 ----------------------------------------------------------------------
 1/38=1,172=1/1;
 2/12=2,17=6,18=5,40=1/2;
 3/5=7,11=2,16=1,17=8,25=1,30=1,47=8,116=101/1,2,3;
 4/5=1/1;
 5/5=2,7=400,10=200,15=2,38=6/2;
 8/5=-1,6=4,9=120000,10=90/1,4;
 9/5=7,6=150,14=2/13;
 6//1;
 99/5=1,9=1/99;
 Leave Link    1 at Sat Apr 28 18:55:51 2018, MaxMem= 10737418240 cpu:               8.3 elap:               0.3
 (Enter /home1/apps/gaussian/16rA.03/g16/l101.exe)
 ---
 CoH
 ---
 Symbolic Z-matrix:
 Charge =  0 Multiplicity = 3
 Co                    0.        0.        0. 
 H                     0.        0.        1.6 
 
 ITRead=  0  0
 MicOpt= -1 -1
 NAtoms=      2 NQM=        2 NQMF=       0 NMMI=      0 NMMIF=      0
                NMic=       0 NMicF=      0.
                    Isotopes and Nuclear Properties:
 (Nuclear quadrupole moments (NQMom) in fm**2, nuclear magnetic moments (NMagM)
  in nuclear magnetons)

  Atom         1           2
 IAtWgt=          59           1
 AtmWgt=  58.9331978   1.0078250
 NucSpn=           7           1
 AtZEff=  -0.0000000  -0.0000000
 NQMom=   42.0000000   0.0000000
 NMagM=    4.6270000   2.7928460
 AtZNuc=  27.0000000   1.0000000
 Leave Link  101 at Sat Apr 28 18:55:52 2018, MaxMem= 10737418240 cpu:               3.3 elap:               0.1
 (Enter /home1/apps/gaussian/16rA.03/g16/l202.exe)
                          Input orientation:                          
 ---------------------------------------------------------------------
 Center     Atomic      Atomic             Coordinates (Angstroms)
 Number     Number       Type             X           Y           Z
 ---------------------------------------------------------------------
      1         27           0        0.000000    0.000000    0.000000
      2          1           0        0.000000    0.000000    1.600000
 ---------------------------------------------------------------------
 Stoichiometry    CoH(3)
 Framework group  C*V[C*(HCo)]
 Deg. of freedom     1
 Full point group                 C*V     NOp   4
 Largest Abelian subgroup         C2V     NOp   4
 Largest concise Abelian subgroup C1      NOp   1
                         Standard orientation:                         
 ---------------------------------------------------------------------
 Center     Atomic      Atomic             Coordinates (Angstroms)
 Number     Number       Type             X           Y           Z
 ---------------------------------------------------------------------
      1         27           0        0.000000    0.000000    0.057143
      2          1           0        0.000000    0.000000   -1.542857
 ---------------------------------------------------------------------
 Rotational constants (GHZ):           0.0000000         199.2306874         199.2306874
 Leave Link  202 at Sat Apr 28 18:55:52 2018, MaxMem= 10737418240 cpu:               0.8 elap:               0.1
 (Enter /home1/apps/gaussian/16rA.03/g16/l301.exe)
 General basis read from cards:  (5D, 7F)
 Centers:       1
 S 1 1.00
     Exponent=  1.6103000000D+08 Coefficients=  1.0000000000D+00
 S 1 1.00
     Exponent=  2.8755800000D+07 Coefficients=  1.0000000000D+00
 S 1 1.00
     Exponent=  6.4232400000D+06 Coefficients=  1.0000000000D+00
 S 1 1.00
     Exponent=  1.7212000000D+06 Coefficients=  1.0000000000D+00
 S 1 1.00
     Exponent=  5.3399400000D+05 Coefficients=  1.0000000000D+00
 S 1 1.00
     Exponent=  1.8619400000D+05 Coefficients=  1.0000000000D+00
 S 1 1.00
     Exponent=  7.1201700000D+04 Coefficients=  1.0000000000D+00
 S 1 1.00
     Exponent=  2.9276200000D+04 Coefficients=  1.0000000000D+00
 S 1 1.00
     Exponent=  1.2742300000D+04 Coefficients=  1.0000000000D+00
 S 1 1.00
     Exponent=  5.8005100000D+03 Coefficients=  1.0000000000D+00
 S 1 1.00
     Exponent=  2.7369600000D+03 Coefficients=  1.0000000000D+00
 S 1 1.00
     Exponent=  1.3299900000D+03 Coefficients=  1.0000000000D+00
 S 1 1.00
     Exponent=  6.6261100000D+02 Coefficients=  1.0000000000D+00
 S 1 1.00
     Exponent=  3.3741500000D+02 Coefficients=  1.0000000000D+00
 S 1 1.00
     Exponent=  1.7523400000D+02 Coefficients=  1.0000000000D+00
 S 1 1.00
     Exponent=  9.2643400000D+01 Coefficients=  1.0000000000D+00
 S 1 1.00
     Exponent=  4.9757600000D+01 Coefficients=  1.0000000000D+00
 S 1 1.00
     Exponent=  2.7072800000D+01 Coefficients=  1.0000000000D+00
 S 1 1.00
     Exponent=  1.4861000000D+01 Coefficients=  1.0000000000D+00
 S 1 1.00
     Exponent=  8.1812100000D+00 Coefficients=  1.0000000000D+00
 S 1 1.00
     Exponent=  4.4794100000D+00 Coefficients=  1.0000000000D+00
 S 1 1.00
     Exponent=  2.4119100000D+00 Coefficients=  1.0000000000D+00
 S 1 1.00
     Exponent=  1.2584400000D+00 Coefficients=  1.0000000000D+00
 S 1 1.00
     Exponent=  6.3123400000D-01 Coefficients=  1.0000000000D+00
 S 1 1.00
     Exponent=  2.1529700000D-01 Coefficients=  1.0000000000D+00
 S 1 1.00
     Exponent=  1.1851000000D-01 Coefficients=  1.0000000000D+00
 S 1 1.00
     Exponent=  5.7209000000D-02 Coefficients=  1.0000000000D+00
 S 1 1.00
     Exponent=  2.7166000000D-02 Coefficients=  1.0000000000D+00
 S 1 1.00
     Exponent=  7.3346000000D+00 Coefficients=  1.0000000000D+00
 S 1 1.00
     Exponent=  2.6036000000D+00 Coefficients=  1.0000000000D+00
 S 1 1.00
     Exponent=  1.2900000000D-02 Coefficients=  1.0000000000D+00
 P 1 1.00
     Exponent=  9.7512600000D+04 Coefficients=  1.0000000000D+00
 P 1 1.00
     Exponent=  2.3815100000D+04 Coefficients=  1.0000000000D+00
 P 1 1.00
     Exponent=  7.5404300000D+03 Coefficients=  1.0000000000D+00
 P 1 1.00
     Exponent=  2.8540800000D+03 Coefficients=  1.0000000000D+00
 P 1 1.00
     Exponent=  1.2176900000D+03 Coefficients=  1.0000000000D+00
 P 1 1.00
     Exponent=  5.6251500000D+02 Coefficients=  1.0000000000D+00
 P 1 1.00
     Exponent=  2.7427400000D+02 Coefficients=  1.0000000000D+00
 P 1 1.00
     Exponent=  1.3911400000D+02 Coefficients=  1.0000000000D+00
 P 1 1.00
     Exponent=  7.2859800000D+01 Coefficients=  1.0000000000D+00
 P 1 1.00
     Exponent=  3.9244800000D+01 Coefficients=  1.0000000000D+00
 P 1 1.00
     Exponent=  2.1643000000D+01 Coefficients=  1.0000000000D+00
 P 1 1.00
     Exponent=  1.2114900000D+01 Coefficients=  1.0000000000D+00
 P 1 1.00
     Exponent=  6.7691200000D+00 Coefficients=  1.0000000000D+00
 P 1 1.00
     Exponent=  3.7052800000D+00 Coefficients=  1.0000000000D+00
 P 1 1.00
     Exponent=  1.9790100000D+00 Coefficients=  1.0000000000D+00
 P 1 1.00
     Exponent=  1.0312700000D+00 Coefficients=  1.0000000000D+00
 P 1 1.00
     Exponent=  5.1360900000D-01 Coefficients=  1.0000000000D+00
 P 1 1.00
     Exponent=  2.0448200000D-01 Coefficients=  1.0000000000D+00
 P 1 1.00
     Exponent=  8.3870000000D-02 Coefficients=  1.0000000000D+00
 P 1 1.00
     Exponent=  3.4102000000D-02 Coefficients=  1.0000000000D+00
 P 1 1.00
     Exponent=  1.1226400000D+01 Coefficients=  1.0000000000D+00
 P 1 1.00
     Exponent=  3.6309000000D+00 Coefficients=  1.0000000000D+00
 P 1 1.00
     Exponent=  1.3870000000D-02 Coefficients=  1.0000000000D+00
 D 1 1.00
     Exponent=  5.4511000000D+02 Coefficients=  1.0000000000D+00
 D 1 1.00
     Exponent=  1.6055800000D+02 Coefficients=  1.0000000000D+00
 D 1 1.00
     Exponent=  6.1622300000D+01 Coefficients=  1.0000000000D+00
 D 1 1.00
     Exponent=  2.6822400000D+01 Coefficients=  1.0000000000D+00
 D 1 1.00
     Exponent=  1.2458300000D+01 Coefficients=  1.0000000000D+00
 D 1 1.00
     Exponent=  6.0606600000D+00 Coefficients=  1.0000000000D+00
 D 1 1.00
     Exponent=  2.9951700000D+00 Coefficients=  1.0000000000D+00
 D 1 1.00
     Exponent=  1.4647770000D+00 Coefficients=  1.0000000000D+00
 D 1 1.00
     Exponent=  6.9824200000D-01 Coefficients=  1.0000000000D+00
 D 1 1.00
     Exponent=  3.2005700000D-01 Coefficients=  1.0000000000D+00
 D 1 1.00
     Exponent=  1.3880400000D-01 Coefficients=  1.0000000000D+00
 D 1 1.00
     Exponent=  5.5017000000D-02 Coefficients=  1.0000000000D+00
 D 1 1.00
     Exponent=  8.0293000000D+00 Coefficients=  1.0000000000D+00
 D 1 1.00
     Exponent=  4.9005000000D+00 Coefficients=  1.0000000000D+00
 D 1 1.00
     Exponent=  2.1810000000D-02 Coefficients=  1.0000000000D+00
 F 1 1.00
     Exponent=  1.2554200000D+01 Coefficients=  1.0000000000D+00
 F 1 1.00
     Exponent=  5.5551000000D+00 Coefficients=  1.0000000000D+00
 F 1 1.00
     Exponent=  2.4581000000D+00 Coefficients=  1.0000000000D+00
 F 1 1.00
     Exponent=  1.0877000000D+00 Coefficients=  1.0000000000D+00
 F 1 1.00
     Exponent=  3.6860000000D-01 Coefficients=  1.0000000000D+00
 F 1 1.00
     Exponent=  1.2491000000D-01 Coefficients=  1.0000000000D+00
 G 1 1.00
     Exponent=  8.7355000000D+00 Coefficients=  1.0000000000D+00
 G 1 1.00
     Exponent=  4.2811000000D+00 Coefficients=  1.0000000000D+00
 G 1 1.00
     Exponent=  2.0981000000D+00 Coefficients=  1.0000000000D+00
 G 1 1.00
     Exponent=  7.8280000000D-01 Coefficients=  1.0000000000D+00
 G 1 1.00
     Exponent=  2.9206000000D-01 Coefficients=  1.0000000000D+00
 H 1 1.00
     Exponent=  7.8788000000D+00 Coefficients=  1.0000000000D+00
 H 1 1.00
     Exponent=  3.7437000000D+00 Coefficients=  1.0000000000D+00
 H 1 1.00
     Exponent=  1.5288000000D+00 Coefficients=  1.0000000000D+00
 H 1 1.00
     Exponent=  6.2431000000D-01 Coefficients=  1.0000000000D+00
 I 1 1.00
     Exponent=  8.0114000000D+00 Coefficients=  1.0000000000D+00
 I 1 1.00
     Exponent=  3.6607000000D+00 Coefficients=  1.0000000000D+00
 I 1 1.00
     Exponent=  1.6727100000D+00 Coefficients=  1.0000000000D+00
 ****
 Centers:       2
 S 1 1.00
     Exponent=  4.0200000000D+02 Coefficients=  1.0000000000D+00
 S 1 1.00
     Exponent=  6.0240000000D+01 Coefficients=  1.0000000000D+00
 S 1 1.00
     Exponent=  1.3730000000D+01 Coefficients=  1.0000000000D+00
 S 1 1.00
     Exponent=  3.9050000000D+00 Coefficients=  1.0000000000D+00
 S 1 1.00
     Exponent=  1.2830000000D+00 Coefficients=  1.0000000000D+00
 S 1 1.00
     Exponent=  4.6550000000D-01 Coefficients=  1.0000000000D+00
 S 1 1.00
     Exponent=  1.8110000000D-01 Coefficients=  1.0000000000D+00
 S 1 1.00
     Exponent=  7.2790000000D-02 Coefficients=  1.0000000000D+00
 S 1 1.00
     Exponent=  2.0700000000D-02 Coefficients=  1.0000000000D+00
 P 1 1.00
     Exponent=  4.5160000000D+00 Coefficients=  1.0000000000D+00
 P 1 1.00
     Exponent=  1.7120000000D+00 Coefficients=  1.0000000000D+00
 P 1 1.00
     Exponent=  6.4900000000D-01 Coefficients=  1.0000000000D+00
 P 1 1.00
     Exponent=  2.4600000000D-01 Coefficients=  1.0000000000D+00
 P 1 1.00
     Exponent=  7.4400000000D-02 Coefficients=  1.0000000000D+00
 D 1 1.00
     Exponent=  2.9500000000D+00 Coefficients=  1.0000000000D+00
 D 1 1.00
     Exponent=  1.2060000000D+00 Coefficients=  1.0000000000D+00
 D 1 1.00
     Exponent=  4.9300000000D-01 Coefficients=  1.0000000000D+00
 D 1 1.00
     Exponent=  1.5600000000D-01 Coefficients=  1.0000000000D+00
 F 1 1.00
     Exponent=  2.5060000000D+00 Coefficients=  1.0000000000D+00
 F 1 1.00
     Exponent=  8.7500000000D-01 Coefficients=  1.0000000000D+00
 F 1 1.00
     Exponent=  2.7400000000D-01 Coefficients=  1.0000000000D+00
 G 1 1.00
     Exponent=  2.3580000000D+00 Coefficients=  1.0000000000D+00
 G 1 1.00
     Exponent=  5.4300000000D-01 Coefficients=  1.0000000000D+00
 ****
 ======================================================================================================
                                       Pseudopotential Parameters
 ======================================================================================================
  Center     Atomic      Valence      Angular      Power
  Number     Number     Electrons     Momentum     of R      Exponent        Coefficient   SO-Coeffient
 ======================================================================================================
    1         27           17
                                      D and up 
                                                     1        4.1881932       17.00000000    0.00000000
                                                     3        4.4296881       71.19928469    0.00000000
                                                     2        4.3980067      -77.65278252    0.00000000
                                      S - D
                                                     2       10.8607544      113.90484511    0.00000000
                                      P - D
                                                     2        9.0520277       56.10698766    0.00000000
    2          1            1
                                      P and up 
                                                     2       21.7769666      -10.85192405    0.00000000
                                                     1       21.2435951        1.00000000    0.00000000
                                                     3       21.2435951       21.24359508    0.00000000
                                      S - P
                                                     2        1.0000000        0.00000000    0.00000000
 ======================================================================================================
 Ernie: Thresh=  0.10000D-02 Tol=  0.10000D-05 Strict=F.
 There are   248 symmetry adapted cartesian basis functions of A1  symmetry.
 There are    79 symmetry adapted cartesian basis functions of A2  symmetry.
 There are   137 symmetry adapted cartesian basis functions of B1  symmetry.
 There are   137 symmetry adapted cartesian basis functions of B2  symmetry.
 There are   169 symmetry adapted basis functions of A1  symmetry.
 There are    59 symmetry adapted basis functions of A2  symmetry.
 There are   100 symmetry adapted basis functions of B1  symmetry.
 There are   100 symmetry adapted basis functions of B2  symmetry.
   428 basis functions,   601 primitive gaussians,   601 cartesian basis functions
    10 alpha electrons        8 beta electrons
       nuclear repulsion energy         5.6225078660 Hartrees.
 IExCor=    0 DFT=F Ex=HF Corr=None ExCW=0 ScaHFX=  1.000000
 ScaDFX=  1.000000  1.000000  1.000000  1.000000 ScalE2=  1.000000  1.000000
 IRadAn=      5 IRanWt=     -1 IRanGd=            0 ICorTp=0 IEmpDi=  4
 NAtoms=    2 NActive=    2 NUniq=    2 SFac= 1.00D+00 NAtFMM=   60 NAOKFM=F Big=F
 Integral buffers will be    131072 words long.
 Raffenetti 2 integral format.
 Two-electron integral symmetry is turned on.
 Leave Link  301 at Sat Apr 28 18:55:53 2018, MaxMem= 10737418240 cpu:               9.3 elap:               0.7
 (Enter /home1/apps/gaussian/16rA.03/g16/l302.exe)
 NPDir=0 NMtPBC=     1 NCelOv=     1 NCel=       1 NClECP=     1 NCelD=      1
         NCelK=      1 NCelE2=     1 NClLst=     1 CellRange=     0.0.
 One-electron integrals computed using PRISM.
 One-electron integral symmetry used in STVInt
   4 Symmetry operations used in ECPInt.
 ECPInt:  NShTT=    6105 NPrTT=    6105 LenC2=    5997 LenP2D=    5996.
 LDataN:  DoStor=T MaxTD1=12 Len= 1566
 NBasis=   428 RedAO= T EigKep=  5.48D-06  NBF=   169    59   100   100
 NBsUse=   420 1.00D-06 EigRej=  7.06D-07 NBFU=   165    59    98    98
 Leave Link  302 at Sat Apr 28 18:56:03 2018, MaxMem= 10737418240 cpu:             294.6 elap:               9.3
 (Enter /home1/apps/gaussian/16rA.03/g16/l303.exe)
 DipDrv:  MaxL=1.
 Leave Link  303 at Sat Apr 28 18:56:03 2018, MaxMem= 10737418240 cpu:               4.9 elap:               0.3
 (Enter /home1/apps/gaussian/16rA.03/g16/l401.exe)
 Initial guess from the checkpoint file:  "5z.chk"
 B after Tr=     0.000000    0.000000    0.000000
         Rot=    1.000000    0.000000    0.000000    0.000000 Ang=   0.00 deg.
 Guess basis will be translated and rotated to current coordinates.
 JPrj=2 DoOrth=T DoCkMO=T.
 Initial guess orbital symmetries:
       Occupied  (SG) (PI) (PI) (SG) (DLTA) (PI) (PI) (SG) (SG)
                 (DLTA)
       Virtual   (SG) (PI) (PI) (SG) (SG) (SG) (DLTA) (DLTA) (PI)
                 (PI) (PI) (PI) (SG) (SG) (SG) (SG) (PI) (PI) (DLTA)
                 (DLTA) (PI) (PI) (SG) (PI) (PI) (SG) (SG) (SG)
                 (PI) (PI) (?A) (?A) (?A) (?A) (PHI) (PHI) (SG)
                 (PI) (PI) (PI) (PI) (SG) (DLTA) (DLTA) (SG) (PI)
                 (PI) (SG) (PI) (PI) (SG) (PHI) (PHI) (DLTA) (DLTA)
                 (PI) (PI) (SG) (DLTA) (DLTA) (PI) (PI) (SG) (SG)
                 (PHI) (PHI) (PI) (PI) (SG) (DLTA) (DLTA) (PI)
                 (PI) (?B) (?B) (?B) (PHI) (PHI) (DLTA) (DLTA)
                 (PI) (PI) (SG) (SG) (DLTA) (DLTA) (PI) (PI) (PI)
                 (PI) (SG) (SG) (DLTA) (DLTA) (PI) (PI) (SG) (?C)
                 (?C) (DLTA) (DLTA) (?C) (?C) (PI) (PI) (SG) (SG)
                 (PI) (PI) (DLTA) (DLTA) (SG) (?D) (?D) (?E) (?E)
                 (PHI) (PHI) (?F) (?F) (PHI) (PHI) (?F) (PHI) (PHI)
                 (DLTA) (DLTA) (PI) (PI) (DLTA) (DLTA) (SG) (SG)
                 (PI) (PI) (SG) (DLTA) (DLTA) (PI) (PI) (PI) (PI)
                 (SG) (DLTA) (DLTA) (PI) (PI) (SG) (SG) (?C) (?C)
                 (?C) (?C) (DLTA) (DLTA) (SG) (PI) (PI) (SG) (?G)
                 (?G) (?C) (?C) (DLTA) (DLTA) (?C) (?C) (?G) (?D)
                 (?D) (?H) (?H) (?C) (?C) (DLTA) (?H) (DLTA) (?C)
                 (?C) (SG) (DLTA) (DLTA) (PI) (PI) (SG) (PI) (PI)
                 (SG) (SG) (DLTA) (DLTA) (PI) (PI) (SG) (?C) (?C)
                 (DLTA) (DLTA) (?C) (?C) (SG) (SG) (?I) (?I) (?C)
                 (?C) (DLTA) (DLTA) (?C) (?C) (?I) (?J) (?J) (?K)
                 (?K) (?J) (?J) (DLTA) (DLTA) (?J) (?J) (?K) (PI)
                 (PI) (SG) (DLTA) (DLTA) (PI) (PI) (SG) (SG) (PI)
                 (PI) (SG) (DLTA) (DLTA) (PI) (PI) (SG) (SG) (PI)
                 (PI) (SG) (SG) (DLTA) (DLTA) (PI) (PI) (SG) (SG)
                 (PI) (PI) (SG) (SG) (DLTA) (DLTA) (PI) (PI) (SG)
                 (PI) (PI) (SG) (SG) (PI) (PI) (SG) (DLTA) (DLTA)
                 (PI) (PI) (SG) (SG) (PI) (PI) (SG) (SG) (PI) (PI)
                 (SG) (SG) (PI) (PI) (SG) (SG) (PI) (PI) (SG) (SG)
                 (PI) (PI) (SG) (SG) (SG) (SG) (SG) (SG) (DLTA)
                 (SG) (SG) (SG) (SG) (SG) (DLTA) (SG) (SG) (DLTA)
                 (SG) (DLTA) (?E) (SG) (SG) (DLTA) (DLTA) (SG)
                 (?E) (DLTA) (SG) (SG) (?E) (SG) (DLTA) (SG) (DLTA)
                 (DLTA) (SG) (SG) (?E) (SG) (?E) (DLTA) (SG) (?E)
                 (SG) (SG) (SG) (?E) (SG) (DLTA) (DLTA) (DLTA)
                 (DLTA) (?E) (DLTA) (DLTA) (?E) (DLTA) (?E) (SG)
                 (DLTA) (DLTA) (DLTA) (?E) (?E) (DLTA) (?E) (SG)
                 (SG) (?E) (PI) (PI) (PI) (PHI) (PI) (PI) (PHI)
                 (PI) (PI) (PHI) (PI) (PI) (?D) (PHI) (PI) (PHI)
                 (?D) (PI) (PI) (PHI) (PHI) (PI) (PHI) (?D) (PHI)
                 (?D) (PI) (PI) (PI) (PHI) (PI) (PI) (PHI) (PI)
                 (PI) (PHI) (PI) (PI) (?D) (PHI) (PI) (PHI) (?D)
                 (PI) (PI) (PHI) (PHI) (PI) (PHI) (?D) (PHI) (?D)
 Leave Link  401 at Sat Apr 28 18:56:05 2018, MaxMem= 10737418240 cpu:              40.0 elap:               1.5
 (Enter /home1/apps/gaussian/16rA.03/g16/l502.exe)
 Keep R1 and R2 ints in memory in symmetry-blocked form, NReq=5277864979.
 FoFCou: FMM=F IPFlag=           8 FMFlag=           0 FMFlg1=           0
         NFxFlg=           0 DoJE=F BraDBF=F KetDBF=F FulRan=T
         wScrn=  0.000000 ICntrl=       600 IOpCl=  0 I1Cent=           0 NGrid=           0
         NMat0=    1 NMatS0=  91806 NMatT0=    0 NMatD0=    1 NMtDS0=    0 NMtDT0=    0
 Petite list used in FoFCou.
 Restricted open shell SCF:
 Using DIIS extrapolation, IDIIS=  1040.
 NGot= 10737418240 LenX=  8609582347 LenY=  8609220545
 Requested convergence on RMS density matrix=1.00D-08 within 400 cycles.
 Requested convergence on MAX density matrix=1.00D-06.
 Requested convergence on             energy=1.00D-06.
 Virtual orbitals will be shifted by   0.200 hartree.
 No special actions if energy rises.

 Cycle   1  Pass 1  IDiag  1:
 E= -145.420700607112    
 DIIS: error= 5.93D+00 at cycle   1 NSaved=   1.
 NSaved= 1 IEnMin= 1 EnMin= -145.420700607112     IErMin= 1 ErrMin= 5.93D+00
 ErrMax= 5.93D+00  0.00D+00 EMaxC= 1.00D-01 BMatC= 2.77D+03 BMatP= 2.77D+03
 IDIUse=3 WtCom= 0.00D+00 WtEn= 1.00D+00
 Coeff-Com:  0.100D+01
 Coeff-En:   0.100D+01
 Coeff:      0.100D+01
 Gap=     0.006 Goal=   None    Shift=    0.200
 GapD=    0.006 DampG=0.250 DampE=0.125 DampFc=0.1250 IDamp=-1.
 Damping current iteration by 1.25D-01
 RMSDP=3.65D-04 MaxDP=2.41D-02              OVMax= 1.45D-03

 Cycle   2  Pass 1  IDiag  1:
 E= -145.420799379040     Delta-E=       -0.000098771928 Rises=F Damp=T
 DIIS: error= 5.19D+00 at cycle   2 NSaved=   2.
 NSaved= 2 IEnMin= 2 EnMin= -145.420799379040     IErMin= 2 ErrMin= 5.19D+00
 ErrMax= 5.19D+00  0.00D+00 EMaxC= 1.00D-01 BMatC= 2.12D+03 BMatP= 2.77D+03
 IDIUse=3 WtCom= 0.00D+00 WtEn= 1.00D+00
 Coeff-Com: -0.700D+01 0.800D+01
 Coeff-En:   0.000D+00 0.100D+01
 Coeff:      0.000D+00 0.100D+01
 Gap=     0.005 Goal=   None    Shift=    0.200
 RMSDP=3.25D-04 MaxDP=2.12D-02 DE=-9.88D-05 OVMax= 2.84D-04

 Cycle   3  Pass 1  IDiag  1:
 E= -145.421496057715     Delta-E=       -0.000696678676 Rises=F Damp=F
 DIIS: error= 2.74D-04 at cycle   3 NSaved=   3.
 NSaved= 3 IEnMin= 3 EnMin= -145.421496057715     IErMin= 3 ErrMin= 2.74D-04
 ErrMax= 2.74D-04  0.00D+00 EMaxC= 1.00D-01 BMatC= 2.21D-06 BMatP= 2.12D+03
 IDIUse=3 WtCom= 9.97D-01 WtEn= 2.74D-03
 Coeff-Com: -0.112D+01 0.128D+01 0.840D+00
 Coeff-En:   0.000D+00 0.000D+00 0.100D+01
 Coeff:     -0.112D+01 0.128D+01 0.840D+00
 Gap=     0.005 Goal=   None    Shift=    0.200
 RMSDP=2.31D-05 MaxDP=2.76D-03 DE=-6.97D-04 OVMax= 4.18D-04

 Cycle   4  Pass 1  IDiag  1:
 E= -145.421496008733     Delta-E=        0.000000048983 Rises=F Damp=F
 DIIS: error= 2.07D-04 at cycle   4 NSaved=   4.
 NSaved= 4 IEnMin= 3 EnMin= -145.421496057715     IErMin= 4 ErrMin= 2.07D-04
 ErrMax= 2.07D-04  0.00D+00 EMaxC= 1.00D-01 BMatC= 9.91D-07 BMatP= 2.21D-06
 IDIUse=3 WtCom= 9.98D-01 WtEn= 2.07D-03
 Coeff-Com: -0.108D+01 0.123D+01-0.233D+00 0.108D+01
 Coeff-En:   0.000D+00 0.000D+00 0.701D+00 0.299D+00
 Coeff:     -0.108D+01 0.123D+01-0.231D+00 0.108D+01
 Gap=     0.005 Goal=   None    Shift=    0.200
 RMSDP=1.09D-05 MaxDP=1.48D-03 DE= 4.90D-08 OVMax= 2.63D-04

 Cycle   5  Pass 1  IDiag  1:
 E= -145.421496139337     Delta-E=       -0.000000130604 Rises=F Damp=F
 DIIS: error= 1.98D-04 at cycle   5 NSaved=   5.
 NSaved= 5 IEnMin= 5 EnMin= -145.421496139337     IErMin= 5 ErrMin= 1.98D-04
 ErrMax= 1.98D-04  0.00D+00 EMaxC= 1.00D-01 BMatC= 8.52D-07 BMatP= 9.91D-07
 IDIUse=3 WtCom= 9.98D-01 WtEn= 1.98D-03
 Coeff-Com: -0.102D+01 0.117D+01-0.221D+00 0.309D+00 0.766D+00
 Coeff-En:   0.000D+00 0.000D+00 0.000D+00 0.000D+00 0.100D+01
 Coeff:     -0.102D+01 0.117D+01-0.220D+00 0.309D+00 0.766D+00
 Gap=     0.005 Goal=   None    Shift=    0.200
 RMSDP=1.51D-06 MaxDP=1.31D-04 DE=-1.31D-07 OVMax= 5.82D-05

 Cycle   6  Pass 1  IDiag  1:
 E= -145.421496142575     Delta-E=       -0.000000003237 Rises=F Damp=F
 DIIS: error= 1.88D-04 at cycle   6 NSaved=   6.
 NSaved= 6 IEnMin= 6 EnMin= -145.421496142575     IErMin= 6 ErrMin= 1.88D-04
 ErrMax= 1.88D-04  0.00D+00 EMaxC= 1.00D-01 BMatC= 7.72D-07 BMatP= 8.52D-07
 IDIUse=3 WtCom= 9.98D-01 WtEn= 1.88D-03
 Coeff-Com: -0.964D+00 0.110D+01-0.199D+00 0.422D-01 0.145D+00 0.874D+00
 Coeff-En:   0.000D+00 0.000D+00 0.000D+00 0.000D+00 0.000D+00 0.100D+01
 Coeff:     -0.962D+00 0.110D+01-0.199D+00 0.421D-01 0.145D+00 0.875D+00
 Gap=     0.005 Goal=   None    Shift=    0.200
 RMSDP=1.02D-06 MaxDP=1.18D-04 DE=-3.24D-09 OVMax= 4.13D-05

 Cycle   7  Pass 1  IDiag  1:
 E= -145.421496143426     Delta-E=       -0.000000000852 Rises=F Damp=F
 DIIS: error= 1.77D-04 at cycle   7 NSaved=   7.
 NSaved= 7 IEnMin= 7 EnMin= -145.421496143426     IErMin= 7 ErrMin= 1.77D-04
 ErrMax= 1.77D-04  0.00D+00 EMaxC= 1.00D-01 BMatC= 6.96D-07 BMatP= 7.72D-07
 IDIUse=3 WtCom= 9.98D-01 WtEn= 1.77D-03
 EnCoef did   100 forward-backward iterations
 Coeff-Com: -0.870D+00 0.994D+00-0.168D+00-0.210D+00-0.252D+00 0.499D+00
 Coeff-Com:  0.101D+01
 Coeff-En:   0.000D+00 0.000D+00 0.000D+00 0.000D+00 0.212D+00 0.658D-02
 Coeff-En:   0.782D+00
 Coeff:     -0.869D+00 0.993D+00-0.167D+00-0.210D+00-0.251D+00 0.498D+00
 Coeff:      0.101D+01
 Gap=     0.005 Goal=   None    Shift=    0.200
 RMSDP=1.30D-06 MaxDP=1.69D-04 DE=-8.52D-10 OVMax= 3.65D-05

 Cycle   8  Pass 1  IDiag  1:
 E= -145.421496168706     Delta-E=       -0.000000025280 Rises=F Damp=F
 DIIS: error= 1.60D-04 at cycle   8 NSaved=   8.
 NSaved= 8 IEnMin= 8 EnMin= -145.421496168706     IErMin= 8 ErrMin= 1.60D-04
 ErrMax= 1.60D-04  0.00D+00 EMaxC= 1.00D-01 BMatC= 5.71D-07 BMatP= 6.96D-07
 IDIUse=3 WtCom= 9.98D-01 WtEn= 1.60D-03
 Coeff-Com: -0.787D+00 0.899D+00-0.148D+00-0.227D+00-0.116D+00 0.201D+00
 Coeff-Com:  0.244D+00 0.933D+00
 Coeff-En:   0.000D+00 0.000D+00 0.000D+00 0.000D+00 0.000D+00 0.000D+00
 Coeff-En:   0.000D+00 0.100D+01
 Coeff:     -0.786D+00 0.898D+00-0.148D+00-0.227D+00-0.116D+00 0.201D+00
 Coeff:      0.244D+00 0.933D+00
 Gap=     0.005 Goal=   None    Shift=    0.200
 RMSDP=1.64D-06 MaxDP=2.23D-04 DE=-2.53D-08 OVMax= 3.55D-05

 Cycle   9  Pass 1  IDiag  1:
 E= -145.421496192665     Delta-E=       -0.000000023959 Rises=F Damp=F
 DIIS: error= 1.45D-04 at cycle   9 NSaved=   9.
 NSaved= 9 IEnMin= 9 EnMin= -145.421496192665     IErMin= 9 ErrMin= 1.45D-04
 ErrMax= 1.45D-04  0.00D+00 EMaxC= 1.00D-01 BMatC= 4.68D-07 BMatP= 5.71D-07
 IDIUse=3 WtCom= 9.99D-01 WtEn= 1.45D-03
 Coeff-Com: -0.402D+00 0.460D+00-0.775D-01-0.597D-01 0.518D+00-0.316D+00
 Coeff-Com: -0.127D+01-0.226D+01 0.440D+01
 Coeff-En:   0.000D+00 0.000D+00 0.000D+00 0.000D+00 0.000D+00 0.000D+00
 Coeff-En:   0.000D+00 0.000D+00 0.100D+01
 Coeff:     -0.402D+00 0.459D+00-0.774D-01-0.596D-01 0.517D+00-0.315D+00
 Coeff:     -0.126D+01-0.226D+01 0.440D+01
 Gap=     0.005 Goal=   None    Shift=    0.200
 RMSDP=4.67D-06 MaxDP=6.13D-04 DE=-2.40D-08 OVMax= 9.61D-05

 Cycle  10  Pass 1  IDiag  1:
 E= -145.421496256602     Delta-E=       -0.000000063937 Rises=F Damp=F
 DIIS: error= 7.48D-05 at cycle  10 NSaved=  10.
 NSaved=10 IEnMin=10 EnMin= -145.421496256602     IErMin=10 ErrMin= 7.48D-05
 ErrMax= 7.48D-05  0.00D+00 EMaxC= 1.00D-01 BMatC= 1.37D-07 BMatP= 4.68D-07
 IDIUse=1 WtCom= 1.00D+00 WtEn= 0.00D+00
 Coeff-Com: -0.148D+00 0.169D+00-0.234D-01-0.152D+00 0.700D+00 0.350D+00
 Coeff-Com: -0.912D+00-0.327D+01 0.314D+01 0.115D+01
 Coeff:     -0.148D+00 0.169D+00-0.234D-01-0.152D+00 0.700D+00 0.350D+00
 Coeff:     -0.912D+00-0.327D+01 0.314D+01 0.115D+01
 Gap=     0.005 Goal=   None    Shift=    0.200
 RMSDP=4.28D-06 MaxDP=5.76D-04 DE=-6.39D-08 OVMax= 8.81D-05

 Cycle  11  Pass 1  IDiag  1:
 E= -145.421496288416     Delta-E=       -0.000000031813 Rises=F Damp=F
 DIIS: error= 2.78D-05 at cycle  11 NSaved=  11.
 NSaved=11 IEnMin=11 EnMin= -145.421496288416     IErMin=11 ErrMin= 2.78D-05
 ErrMax= 2.78D-05  0.00D+00 EMaxC= 1.00D-01 BMatC= 2.48D-08 BMatP= 1.37D-07
 IDIUse=1 WtCom= 1.00D+00 WtEn= 0.00D+00
 Coeff-Com: -0.456D-01 0.521D-01-0.501D-02-0.147D+00 0.636D+00 0.410D+00
 Coeff-Com: -0.822D+00-0.213D+01 0.224D+01-0.531D+00 0.134D+01
 Coeff:     -0.456D-01 0.521D-01-0.501D-02-0.147D+00 0.636D+00 0.410D+00
 Coeff:     -0.822D+00-0.213D+01 0.224D+01-0.531D+00 0.134D+01
 Gap=     0.005 Goal=   None    Shift=    0.200
 RMSDP=2.97D-06 MaxDP=4.13D-04 DE=-3.18D-08 OVMax= 6.54D-05

 Cycle  12  Pass 1  IDiag  1:
 E= -145.421496299462     Delta-E=       -0.000000011046 Rises=F Damp=F
 DIIS: error= 8.62D-06 at cycle  12 NSaved=  12.
 NSaved=12 IEnMin=12 EnMin= -145.421496299462     IErMin=12 ErrMin= 8.62D-06
 ErrMax= 8.62D-06  0.00D+00 EMaxC= 1.00D-01 BMatC= 5.01D-09 BMatP= 2.48D-08
 IDIUse=1 WtCom= 1.00D+00 WtEn= 0.00D+00
 Coeff-Com: -0.291D-01 0.333D-01-0.528D-02-0.601D-01 0.541D+00 0.105D+00
 Coeff-Com: -0.118D+01-0.101D+01 0.209D+01-0.751D+00 0.240D+00 0.102D+01
 Coeff:     -0.291D-01 0.333D-01-0.528D-02-0.601D-01 0.541D+00 0.105D+00
 Coeff:     -0.118D+01-0.101D+01 0.209D+01-0.751D+00 0.240D+00 0.102D+01
 Gap=     0.005 Goal=   None    Shift=    0.200
 RMSDP=1.53D-06 MaxDP=2.18D-04 DE=-1.10D-08 OVMax= 3.74D-05

 Cycle  13  Pass 1  IDiag  1:
 E= -145.421496303266     Delta-E=       -0.000000003804 Rises=F Damp=F
 DIIS: error= 5.40D-06 at cycle  13 NSaved=  13.
 NSaved=13 IEnMin=13 EnMin= -145.421496303266     IErMin=13 ErrMin= 5.40D-06
 ErrMax= 5.40D-06  0.00D+00 EMaxC= 1.00D-01 BMatC= 2.19D-09 BMatP= 5.01D-09
 IDIUse=1 WtCom= 1.00D+00 WtEn= 0.00D+00
 Coeff-Com: -0.219D-01 0.250D-01-0.455D-02-0.349D-01 0.463D+00-0.357D-02
 Coeff-Com: -0.108D+01-0.461D+00 0.147D+01-0.503D+00 0.257D+00-0.374D-01
 Coeff-Com:  0.937D+00
 Coeff:     -0.219D-01 0.250D-01-0.455D-02-0.349D-01 0.463D+00-0.357D-02
 Coeff:     -0.108D+01-0.461D+00 0.147D+01-0.503D+00 0.257D+00-0.374D-01
 Coeff:      0.937D+00
 Gap=     0.005 Goal=   None    Shift=    0.200
 RMSDP=9.03D-07 MaxDP=1.26D-04 DE=-3.80D-09 OVMax= 2.61D-05

 Cycle  14  Pass 1  IDiag  1:
 E= -145.421496304960     Delta-E=       -0.000000001695 Rises=F Damp=F
 DIIS: error= 4.05D-06 at cycle  14 NSaved=  14.
 NSaved=14 IEnMin=14 EnMin= -145.421496304960     IErMin=14 ErrMin= 4.05D-06
 ErrMax= 4.05D-06  0.00D+00 EMaxC= 1.00D-01 BMatC= 1.14D-09 BMatP= 2.19D-09
 IDIUse=1 WtCom= 1.00D+00 WtEn= 0.00D+00
 Coeff-Com: -0.343D-02 0.392D-02-0.203D-03-0.170D-01 0.712D-01-0.839D-01
 Coeff-Com: -0.268D+00 0.154D+01-0.137D+01-0.673D-01 0.522D+00-0.900D+00
 Coeff-Com: -0.142D+01 0.300D+01
 Coeff:     -0.343D-02 0.392D-02-0.203D-03-0.170D-01 0.712D-01-0.839D-01
 Coeff:     -0.268D+00 0.154D+01-0.137D+01-0.673D-01 0.522D+00-0.900D+00
 Coeff:     -0.142D+01 0.300D+01
 Gap=     0.005 Goal=   None    Shift=    0.200
 RMSDP=7.00D-07 MaxDP=1.01D-04 DE=-1.69D-09 OVMax= 1.68D-05

 Cycle  15  Pass 1  IDiag  1:
 E= -145.421496305815     Delta-E=       -0.000000000855 Rises=F Damp=F
 DIIS: error= 2.13D-06 at cycle  15 NSaved=  15.
 NSaved=15 IEnMin=15 EnMin= -145.421496305815     IErMin=15 ErrMin= 2.13D-06
 ErrMax= 2.13D-06  0.00D+00 EMaxC= 1.00D-01 BMatC= 4.33D-10 BMatP= 1.14D-09
 IDIUse=1 WtCom= 1.00D+00 WtEn= 0.00D+00
 Coeff-Com:  0.874D-03-0.999D-03 0.297D-03-0.472D-02 0.924D-01-0.157D+00
 Coeff-Com: -0.366D+00 0.136D+01-0.958D+00-0.765D-01 0.286D+00-0.581D+00
 Coeff-Com: -0.115D+01 0.176D+01 0.801D+00
 Coeff:      0.874D-03-0.999D-03 0.297D-03-0.472D-02 0.924D-01-0.157D+00
 Coeff:     -0.366D+00 0.136D+01-0.958D+00-0.765D-01 0.286D+00-0.581D+00
 Coeff:     -0.115D+01 0.176D+01 0.801D+00
 Gap=     0.005 Goal=   None    Shift=    0.200
 RMSDP=3.96D-07 MaxDP=5.55D-05 DE=-8.55D-10 OVMax= 1.19D-05

 Cycle  16  Pass 1  IDiag  1:
 E= -145.421496306236     Delta-E=       -0.000000000421 Rises=F Damp=F
 DIIS: error= 1.46D-06 at cycle  16 NSaved=  16.
 NSaved=16 IEnMin=16 EnMin= -145.421496306236     IErMin=16 ErrMin= 1.46D-06
 ErrMax= 1.46D-06  0.00D+00 EMaxC= 1.00D-01 BMatC= 2.35D-10 BMatP= 4.33D-10
 IDIUse=1 WtCom= 1.00D+00 WtEn= 0.00D+00
 Coeff-Com:  0.289D-02-0.331D-02 0.519D-03-0.138D-02 0.106D+00-0.844D-01
 Coeff-Com: -0.369D+00 0.590D+00-0.206D+00-0.459D-01 0.158D-01 0.185D+00
 Coeff-Com: -0.645D+00 0.393D+00-0.150D+01 0.257D+01
 Coeff:      0.289D-02-0.331D-02 0.519D-03-0.138D-02 0.106D+00-0.844D-01
 Coeff:     -0.369D+00 0.590D+00-0.206D+00-0.459D-01 0.158D-01 0.185D+00
 Coeff:     -0.645D+00 0.393D+00-0.150D+01 0.257D+01
 Gap=     0.005 Goal=   None    Shift=    0.200
 RMSDP=2.44D-07 MaxDP=3.44D-05 DE=-4.21D-10 OVMax= 8.49D-06

 Cycle  17  Pass 1  IDiag  1:
 E= -145.421496306458     Delta-E=       -0.000000000222 Rises=F Damp=F
 DIIS: error= 1.22D-06 at cycle  17 NSaved=  17.
 NSaved=17 IEnMin=17 EnMin= -145.421496306458     IErMin=17 ErrMin= 1.22D-06
 ErrMax= 1.22D-06  0.00D+00 EMaxC= 1.00D-01 BMatC= 1.44D-10 BMatP= 2.35D-10
 IDIUse=1 WtCom= 1.00D+00 WtEn= 0.00D+00
 Coeff-Com:  0.235D-02-0.268D-02 0.491D-03-0.389D-02 0.890D-01-0.154D-01
 Coeff-Com: -0.305D+00 0.268D+00 0.189D-01-0.479D-01-0.683D-01 0.515D+00
 Coeff-Com: -0.400D+00-0.110D+00-0.204D+01 0.192D+01 0.118D+01
 Coeff:      0.235D-02-0.268D-02 0.491D-03-0.389D-02 0.890D-01-0.154D-01
 Coeff:     -0.305D+00 0.268D+00 0.189D-01-0.479D-01-0.683D-01 0.515D+00
 Coeff:     -0.400D+00-0.110D+00-0.204D+01 0.192D+01 0.118D+01
 Gap=     0.005 Goal=   None    Shift=    0.200
 RMSDP=1.53D-07 MaxDP=2.15D-05 DE=-2.22D-10 OVMax= 6.20D-06

 Cycle  18  Pass 1  IDiag  1:
 E= -145.421496306583     Delta-E=       -0.000000000126 Rises=F Damp=F
 DIIS: error= 1.01D-06 at cycle  18 NSaved=  18.
 NSaved=18 IEnMin=18 EnMin= -145.421496306583     IErMin=18 ErrMin= 1.01D-06
 ErrMax= 1.01D-06  0.00D+00 EMaxC= 1.00D-01 BMatC= 8.86D-11 BMatP= 1.44D-10
 IDIUse=1 WtCom= 1.00D+00 WtEn= 0.00D+00
 Coeff-Com:  0.559D-03-0.638D-03 0.164D-03-0.354D-02 0.643D-01-0.274D-01
 Coeff-Com: -0.231D+00 0.321D+00-0.946D-01-0.385D-01-0.406D-01 0.279D+00
 Coeff-Com: -0.157D+00-0.744D-01-0.968D+00 0.125D+01-0.181D+01 0.253D+01
 Coeff:      0.559D-03-0.638D-03 0.164D-03-0.354D-02 0.643D-01-0.274D-01
 Coeff:     -0.231D+00 0.321D+00-0.946D-01-0.385D-01-0.406D-01 0.279D+00
 Coeff:     -0.157D+00-0.744D-01-0.968D+00 0.125D+01-0.181D+01 0.253D+01
 Gap=     0.005 Goal=   None    Shift=    0.200
 RMSDP=8.45D-08 MaxDP=1.09D-05 DE=-1.26D-10 OVMax= 4.51D-06

 Cycle  19  Pass 1  IDiag  1:
 E= -145.421496306656     Delta-E=       -0.000000000073 Rises=F Damp=F
 DIIS: error= 8.44D-07 at cycle  19 NSaved=  19.
 NSaved=19 IEnMin=19 EnMin= -145.421496306656     IErMin=19 ErrMin= 8.44D-07
 ErrMax= 8.44D-07  0.00D+00 EMaxC= 1.00D-01 BMatC= 5.46D-11 BMatP= 8.86D-11
 IDIUse=1 WtCom= 1.00D+00 WtEn= 0.00D+00
 Coeff-Com: -0.120D-03 0.137D-03-0.283D-05-0.152D-02 0.418D-01-0.460D-01
 Coeff-Com: -0.154D+00 0.313D+00-0.152D+00-0.102D-01-0.283D-01 0.897D-02
 Coeff-Com:  0.156D+00-0.123D+00 0.239D-02 0.104D+01-0.316D+01 0.463D+00
 Coeff-Com:  0.265D+01
 Coeff:     -0.120D-03 0.137D-03-0.283D-05-0.152D-02 0.418D-01-0.460D-01
 Coeff:     -0.154D+00 0.313D+00-0.152D+00-0.102D-01-0.283D-01 0.897D-02
 Coeff:      0.156D+00-0.123D+00 0.239D-02 0.104D+01-0.316D+01 0.463D+00
 Coeff:      0.265D+01
 Gap=     0.005 Goal=   None    Shift=    0.200
 RMSDP=5.81D-08 MaxDP=8.51D-06 DE=-7.29D-11 OVMax= 3.46D-06

 Cycle  20  Pass 1  IDiag  1:
 E= -145.421496306700     Delta-E=       -0.000000000044 Rises=F Damp=F
 DIIS: error= 7.12D-07 at cycle  20 NSaved=  20.
 NSaved=20 IEnMin=20 EnMin= -145.421496306700     IErMin=20 ErrMin= 7.12D-07
 ErrMax= 7.12D-07  0.00D+00 EMaxC= 1.00D-01 BMatC= 3.62D-11 BMatP= 5.46D-11
 IDIUse=1 WtCom= 1.00D+00 WtEn= 0.00D+00
 Coeff-Com:  0.494D-04-0.565D-04 0.954D-05-0.853D-03 0.383D-01-0.412D-01
 Coeff-Com: -0.143D+00 0.258D+00-0.107D+00-0.536D-02-0.505D-01 0.181D-01
 Coeff-Com:  0.225D+00-0.213D+00-0.784D-01 0.120D+01-0.240D+01-0.642D+00
 Coeff-Com:  0.183D+01 0.112D+01
 Coeff:      0.494D-04-0.565D-04 0.954D-05-0.853D-03 0.383D-01-0.412D-01
 Coeff:     -0.143D+00 0.258D+00-0.107D+00-0.536D-02-0.505D-01 0.181D-01
 Coeff:      0.225D+00-0.213D+00-0.784D-01 0.120D+01-0.240D+01-0.642D+00
 Coeff:      0.183D+01 0.112D+01
 Gap=     0.005 Goal=   None    Shift=    0.200
 RMSDP=4.71D-08 MaxDP=5.99D-06 DE=-4.37D-11 OVMax= 2.61D-06

 Cycle  21  Pass 1  IDiag  1:
 E= -145.421496306728     Delta-E=       -0.000000000028 Rises=F Damp=F
 DIIS: error= 5.92D-07 at cycle  21 NSaved=  20.
 NSaved=20 IEnMin=20 EnMin= -145.421496306728     IErMin=20 ErrMin= 5.92D-07
 ErrMax= 5.92D-07  0.00D+00 EMaxC= 1.00D-01 BMatC= 2.46D-11 BMatP= 3.62D-11
 IDIUse=1 WtCom= 1.00D+00 WtEn= 0.00D+00
 Coeff-Com: -0.223D-10-0.270D-05-0.849D-03 0.379D-01-0.380D-01-0.141D+00
 Coeff-Com:  0.238D+00-0.888D-01-0.428D-02-0.582D-01 0.305D-01 0.235D+00
 Coeff-Com: -0.240D+00-0.154D+00 0.124D+01-0.203D+01-0.897D+00 0.160D+01
 Coeff-Com:  0.884D+00 0.385D+00
 Coeff:     -0.223D-10-0.270D-05-0.849D-03 0.379D-01-0.380D-01-0.141D+00
 Coeff:      0.238D+00-0.888D-01-0.428D-02-0.582D-01 0.305D-01 0.235D+00
 Coeff:     -0.240D+00-0.154D+00 0.124D+01-0.203D+01-0.897D+00 0.160D+01
 Coeff:      0.884D+00 0.385D+00
 Gap=     0.005 Goal=   None    Shift=    0.200
 RMSDP=3.35D-08 MaxDP=4.33D-06 DE=-2.83D-11 OVMax= 2.10D-06

 Cycle  22  Pass 1  IDiag  1:
 E= -145.421496306747     Delta-E=       -0.000000000018 Rises=F Damp=F
 DIIS: error= 4.92D-07 at cycle  22 NSaved=  20.
 NSaved=20 IEnMin=20 EnMin= -145.421496306747     IErMin=20 ErrMin= 4.92D-07
 ErrMax= 4.92D-07  0.00D+00 EMaxC= 1.00D-01 BMatC= 1.70D-11 BMatP= 2.46D-11
 IDIUse=1 WtCom= 1.00D+00 WtEn= 0.00D+00
 Coeff-Com:  0.101D-04-0.124D-02 0.359D-01-0.316D-01-0.133D+00 0.218D+00
 Coeff-Com: -0.801D-01-0.287D-02-0.601D-01 0.360D-01 0.236D+00-0.247D+00
 Coeff-Com: -0.195D+00 0.115D+01-0.187D+01-0.253D+00 0.956D+00 0.477D+00
 Coeff-Com:  0.115D+00 0.651D+00
 Coeff:      0.101D-04-0.124D-02 0.359D-01-0.316D-01-0.133D+00 0.218D+00
 Coeff:     -0.801D-01-0.287D-02-0.601D-01 0.360D-01 0.236D+00-0.247D+00
 Coeff:     -0.195D+00 0.115D+01-0.187D+01-0.253D+00 0.956D+00 0.477D+00
 Coeff:      0.115D+00 0.651D+00
 Gap=     0.005 Goal=   None    Shift=    0.200
 RMSDP=2.50D-08 MaxDP=3.32D-06 DE=-1.82D-11 OVMax= 1.70D-06

 Cycle  23  Pass 1  IDiag  1:
 E= -145.421496306759     Delta-E=       -0.000000000012 Rises=F Damp=F
 DIIS: error= 4.10D-07 at cycle  23 NSaved=  20.
 NSaved=20 IEnMin=20 EnMin= -145.421496306759     IErMin=20 ErrMin= 4.10D-07
 ErrMax= 4.10D-07  0.00D+00 EMaxC= 1.00D-01 BMatC= 1.19D-11 BMatP= 1.70D-11
 IDIUse=1 WtCom= 1.00D+00 WtEn= 0.00D+00
 Large coefficients: NSaved= 20 BigCof=    0.00 CofMax=   10.00 Det=-9.01D-15
 Inversion failed.  Reducing to 19 matrices.
 Large coefficients: NSaved= 19 BigCof=    0.00 CofMax=   10.00 Det=-9.01D-15
 Inversion failed.  Reducing to 18 matrices.
 Large coefficients: NSaved= 18 BigCof=    0.00 CofMax=   10.00 Det=-9.18D-15
 Inversion failed.  Reducing to 17 matrices.
 Large coefficients: NSaved= 17 BigCof=    0.00 CofMax=   10.00 Det=-9.18D-15
 Inversion failed.  Reducing to 16 matrices.
 Large coefficients: NSaved= 16 BigCof=    0.00 CofMax=   10.00 Det=-9.19D-15
 Inversion failed.  Reducing to 15 matrices.
 Coeff-Com: -0.151D-01 0.487D-01-0.897D-01-0.658D-01 0.548D+00-0.483D+00
 Coeff-Com: -0.131D-01 0.798D+00-0.139D+01 0.417D-01-0.187D+00-0.233D+00
 Coeff-Com: -0.239D+00 0.582D+00 0.170D+01
 Coeff:     -0.151D-01 0.487D-01-0.897D-01-0.658D-01 0.548D+00-0.483D+00
 Coeff:     -0.131D-01 0.798D+00-0.139D+01 0.417D-01-0.187D+00-0.233D+00
 Coeff:     -0.239D+00 0.582D+00 0.170D+01
 Gap=     0.005 Goal=   None    Shift=    0.200
 RMSDP=2.68D-08 MaxDP=3.86D-06 DE=-1.24D-11 OVMax= 1.58D-06

 Cycle  24  Pass 1  IDiag  1:
 E= -145.421496306768     Delta-E=       -0.000000000009 Rises=F Damp=F
 DIIS: error= 3.57D-07 at cycle  24 NSaved=  16.
 NSaved=16 IEnMin=16 EnMin= -145.421496306768     IErMin=16 ErrMin= 3.57D-07
 ErrMax= 3.57D-07  0.00D+00 EMaxC= 1.00D-01 BMatC= 8.29D-12 BMatP= 1.19D-11
 IDIUse=1 WtCom= 1.00D+00 WtEn= 0.00D+00
 Large coefficients: NSaved= 16 BigCof=    0.00 CofMax=   10.00 Det=-9.20D-15
 Inversion failed.  Reducing to 15 matrices.
 Coeff-Com:  0.205D-01-0.694D-01-0.530D-01 0.439D+00-0.373D+00-0.278D-01
 Coeff-Com:  0.410D+00-0.645D+00 0.853D+00-0.122D+01-0.765D+00-0.426D+00
 Coeff-Com:  0.805D+00 0.108D+01 0.975D+00
 Coeff:      0.205D-01-0.694D-01-0.530D-01 0.439D+00-0.373D+00-0.278D-01
 Coeff:      0.410D+00-0.645D+00 0.853D+00-0.122D+01-0.765D+00-0.426D+00
 Coeff:      0.805D+00 0.108D+01 0.975D+00
 Gap=     0.005 Goal=   None    Shift=    0.200
 RMSDP=1.31D-08 MaxDP=1.76D-06 DE=-8.98D-12 OVMax= 1.23D-06

 Cycle  25  Pass 1  IDiag  1:
 E= -145.421496306774     Delta-E=       -0.000000000006 Rises=F Damp=F
 DIIS: error= 3.01D-07 at cycle  25 NSaved=  16.
 NSaved=16 IEnMin=16 EnMin= -145.421496306774     IErMin=16 ErrMin= 3.01D-07
 ErrMax= 3.01D-07  0.00D+00 EMaxC= 1.00D-01 BMatC= 5.80D-12 BMatP= 8.29D-12
 IDIUse=1 WtCom= 1.00D+00 WtEn= 0.00D+00
 Large coefficients: NSaved= 16 BigCof=    0.00 CofMax=   10.00 Det=-9.57D-15
 Inversion failed.  Reducing to 15 matrices.
 Coeff-Com: -0.290D-01-0.744D-01 0.400D+00-0.251D+00 0.113D+00 0.122D+00
 Coeff-Com: -0.108D+01 0.762D+00-0.217D+00-0.435D+00-0.344D+00-0.131D+00
 Coeff-Com:  0.952D+00 0.361D+00 0.852D+00
 Coeff:     -0.290D-01-0.744D-01 0.400D+00-0.251D+00 0.113D+00 0.122D+00
 Coeff:     -0.108D+01 0.762D+00-0.217D+00-0.435D+00-0.344D+00-0.131D+00
 Coeff:      0.952D+00 0.361D+00 0.852D+00
 Gap=     0.005 Goal=   None    Shift=    0.200
 RMSDP=1.31D-08 MaxDP=1.92D-06 DE=-6.08D-12 OVMax= 1.05D-06

 Cycle  26  Pass 1  IDiag  1:
 E= -145.421496306778     Delta-E=       -0.000000000004 Rises=F Damp=F
 DIIS: error= 2.53D-07 at cycle  26 NSaved=  16.
 NSaved=16 IEnMin=16 EnMin= -145.421496306778     IErMin=16 ErrMin= 2.53D-07
 ErrMax= 2.53D-07  0.00D+00 EMaxC= 1.00D-01 BMatC= 3.96D-12 BMatP= 5.80D-12
 IDIUse=1 WtCom= 1.00D+00 WtEn= 0.00D+00
 Large coefficients: NSaved= 16 BigCof=    0.00 CofMax=   10.00 Det=-9.68D-15
 Inversion failed.  Reducing to 15 matrices.
 Coeff-Com: -0.544D-01 0.199D+00-0.136D+00-0.335D-01 0.147D+00-0.330D+00
 Coeff-Com:  0.402D+00-0.630D-01-0.823D+00-0.227D+00 0.568D-01 0.394D+00
 Coeff-Com:  0.213D+00-0.351D+00 0.161D+01
 Coeff:     -0.544D-01 0.199D+00-0.136D+00-0.335D-01 0.147D+00-0.330D+00
 Coeff:      0.402D+00-0.630D-01-0.823D+00-0.227D+00 0.568D-01 0.394D+00
 Coeff:      0.213D+00-0.351D+00 0.161D+01
 Gap=     0.005 Goal=   None    Shift=    0.200
 RMSDP=8.02D-09 MaxDP=9.83D-07 DE=-4.21D-12 OVMax= 7.56D-07

 SCF Done:  E(ROHF) =  -145.421496307     A.U. after   26 cycles
            NFock= 26  Conv=0.80D-08     -V/T= 2.6808
 <Sx>= 0.0000 <Sy>= 0.0000 <Sz>= 1.0000 <S**2>= 2.0000 S= 1.0000
 <L.S>=  0.00000000000    
 KE= 8.652071245787D+01 PE=-3.590156466049D+02 EE= 1.214509299743D+02
 Annihilation of the first spin contaminant:
 S**2 before annihilation     2.0000,   after     2.0000
 Leave Link  502 at Sat Apr 28 19:00:00 2018, MaxMem= 10737418240 cpu:            6354.7 elap:             234.9
 (Enter /home1/apps/gaussian/16rA.03/g16/l801.exe)
 Windowed orbitals will be sorted by symmetry type.
 GenMOA:  NOpAll=  4 NOp2=4 NOpUse=  4 JSym2X=1
 FoFJK:  IHMeth= 1 ICntrl=       0 DoSepK=F KAlg= 0 I1Cent=           0 FoldK=F
 IRaf=         0 NMat=       1 IRICut=       1 DoRegI=T DoRafI=F ISym2E= 1 IDoP0=0 IntGTp=1.
 FoFCou: FMM=F IPFlag=           8 FMFlag=      100000 FMFlg1=           0
         NFxFlg=           0 DoJE=F BraDBF=F KetDBF=F FulRan=T
         wScrn=  0.000000 ICntrl=         0 IOpCl=  1 I1Cent=           0 NGrid=           0
         NMat0=    1 NMatS0=      1 NMatT0=    0 NMatD0=    1 NMtDS0=    0 NMtDT0=    0
 Petite list used in FoFCou.
 <Sx>= 0.0000 <Sy>= 0.0000 <Sz>= 1.0000 <S**2>= 2.0000 S= 1.0000
 Range of M.O.s used for correlation:     1   420
 NBasis=   428 NAE=    10 NBE=     8 NFC=     0 NFV=     0
 NROrb=    420 NOA=    10 NOB=     8 NVA=   410 NVB=   412

 **** Warning!!: The largest alpha MO coefficient is  0.17936848D+03


 **** Warning!!: The largest beta MO coefficient is  0.17933363D+03

 Singles contribution to E2=   -0.6448562473D-02
 Leave Link  801 at Sat Apr 28 19:00:59 2018, MaxMem= 10737418240 cpu:            1868.2 elap:              58.4
 (Enter /home1/apps/gaussian/16rA.03/g16/l804.exe)
 Open-shell transformation, MDV= 10737418240 ITran=4 ISComp=2.
 Unit  1 TFree=       5559804 TCopy=       3937594.
 Semi-Direct transformation.
 ModeAB=           2 MOrb=            10 LenV=   10732023099
 LASXX=     92246279 LTotXX=    92246279 LenRXX=    92246279
 LTotAB=    93071561 MaxLAS=   759784200 LenRXY=   759784200
 NonZer=   772522800 LenScr=  1163328512 LnRSAI=           0
 LnScr1=           0 LExtra=    23712993 Total=   2039071984
 MaxDsk= 67108864000 SrtSym=           F ITran=            4
 DoSDTr:  NPSUse= 32
 JobTyp=1 Pass  1:  I=   1 to  10.
 (rs|ai) integrals will be sorted in core.
 Complete sort for first half transformation.
 First half transformation complete.
 Begin second half transformation for I=  10.
 Begin second half transformation for I=  10.
 Complete sort for second half transformation.
 Second half transformation complete.
 ModeAB=           2 MOrb=             8 LenV=   10732023099
 LASXX=     74209578 LTotXX=    74209578 LenRXX=   607827360
 LTotAB=    71320428 MaxLAS=   607827360 LenRXY=    71320428
 NonZer=   618018240 LenScr=   930663424 LnRSAI=           0
 LnScr1=           0 LExtra=   875743472 Total=   2485554684
 MaxDsk= 67108864000 SrtSym=           F ITran=            4
 DoSDTr:  NPSUse= 32
 JobTyp=2 Pass  1:  I=   1 to   8.
 (rs|ai) integrals will be sorted in core.
 Complete sort for first half transformation.
 First half transformation complete.
 Complete sort for second half transformation.
 Second half transformation complete.
 Spin components of T(2) and E(2):
     alpha-alpha T2 =       0.2710527881D-01 E2=     -0.1694537285D+00
     alpha-beta  T2 =       0.9363968005D-01 E2=     -0.6588612301D+00
     beta-beta   T2 =       0.1383135582D-01 E2=     -0.9661870699D-01
 ANorm=    0.1066152421D+01
 E2 =    -0.9313822281D+00 EUMP2 =    -0.14635287853483D+03
 (S**2,0)=  0.20000D+01           (S**2,1)=  0.20000D+01
 E(PUHF)=      -0.14542149631D+03        E(PMP2)=      -0.14635287853D+03
 Leave Link  804 at Sat Apr 28 19:34:13 2018, MaxMem= 10737418240 cpu:           63750.4 elap:            1992.7
 (Enter /home1/apps/gaussian/16rA.03/g16/l913.exe)
 CIDS:  MDV= 10737418240.
 IFCWin=0 IBDFC=1 NFBD=     0     0 NFCmp=     0     0 NFFFC=     0     0
 Using original routines for 1st iteration.
 Using DD4UQ or CC4UQ for 2nd and later iterations.
 Keep R2 and R3 ints in memory in symmetry-blocked form, NReq=5277885651.
 FoFCou: FMM=F IPFlag=           8 FMFlag=           0 FMFlg1=           0
         NFxFlg=           0 DoJE=F BraDBF=F KetDBF=F FulRan=T
         wScrn=  0.000000 ICntrl=       600 IOpCl=  0 I1Cent=           0 NGrid=           0
         NMat0=    1 NMatS0=  91806 NMatT0=    0 NMatD0=    1 NMtDS0=    0 NMtDT0=    0
 Petite list used in FoFCou.
 CIDS: In Core Option IDoMem=           1.
 CCSD(T)
 =======
 Iterations= 150 Convergence= 0.100D-06
 Produce multiple copies of IABC intergrals
 Iteration Nr.   1
 **********************
 DD1Dir will call FoFMem   1 times, MxPair=       234
 NAB=    80 NAA=    45 NBB=    28.
 DD1Dir will call FoFMem   1 times, MxPair=       234
 NAB=    80 NAA=    45 NBB=    28.
 MP4(R+Q)= -0.87953473D-01
 Maximum subspace dimension=  5
 A-vector RMS=  1.6171964D-04 Max=  1.7294932D-03 conv= 1.00D-05.
 RLE energy=       -0.9280761131
 E3=        0.91115757D-01        EROMP3=      -0.14626176278D+03
 E4(SDQ)=  -0.62186137D-01        ROMP4(SDQ)=  -0.14632394891D+03
 VARIATIONAL ENERGIES WITH THE FIRST-ORDER WAVEFUNCTION:
 DE(Corr)= -0.92806384     E(Corr)=     -146.34956014    
 NORM(A)=   0.10644642D+01
 Iteration Nr.   2
 **********************
 DD1Dir will call FoFMem   1 times, MxPair=       234
 NAB=    80 NAA=    45 NBB=    28.
 A-vector RMS=  3.3203669D-03 Max=  3.0757416D-02 conv= 1.00D-05.
 RLE energy=       -0.9113608981
 DE(Corr)= -0.83292578     E(CORR)=     -146.25442209     Delta= 9.51D-02
 NORM(A)=   0.10613908D+01
 Iteration Nr.   3
 **********************
 DD1Dir will call FoFMem   1 times, MxPair=       234
 NAB=    80 NAA=    45 NBB=    28.
 A-vector RMS=  2.5138830D-03 Max=  2.5819336D-02 conv= 1.00D-05.
 RLE energy=       -0.8977961404
 DE(Corr)= -0.84228266     E(CORR)=     -146.26377896     Delta=-9.36D-03
 NORM(A)=   0.10623764D+01
 Iteration Nr.   4
 **********************
 DD1Dir will call FoFMem   1 times, MxPair=       234
 NAB=    80 NAA=    45 NBB=    28.
 A-vector RMS=  2.0549485D-03 Max=  2.2417318D-02 conv= 1.00D-05.
 RLE energy=       -0.8309167568
 DE(Corr)= -0.85348850     E(CORR)=     -146.27498481     Delta=-1.12D-02
 NORM(A)=   0.11087714D+01
 Iteration Nr.   5
 **********************
 DD1Dir will call FoFMem   1 times, MxPair=       234
 NAB=    80 NAA=    45 NBB=    28.
 A-vector RMS=  3.1313349D-03 Max=  3.3513132D-02 conv= 1.00D-05.
 RLE energy=       -0.8779166776
 DE(Corr)= -0.92084047     E(CORR)=     -146.34233678     Delta=-6.74D-02
 NORM(A)=   0.10886619D+01
 Iteration Nr.   6
 **********************
 DD1Dir will call FoFMem   1 times, MxPair=       234
 NAB=    80 NAA=    45 NBB=    28.
 A-vector RMS=  4.3581111D-04 Max=  7.0083922D-03 conv= 1.00D-05.
 RLE energy=       -0.8798164368
 DE(Corr)= -0.88149022     E(CORR)=     -146.30298653     Delta= 3.94D-02
 NORM(A)=   0.10871333D+01
 Iteration Nr.   7
 **********************
 DD1Dir will call FoFMem   1 times, MxPair=       234
 NAB=    80 NAA=    45 NBB=    28.
 A-vector RMS=  2.1809706D-04 Max=  2.9043292D-03 conv= 1.00D-05.
 RLE energy=       -0.8788289615
 DE(Corr)= -0.87845736     E(CORR)=     -146.29995367     Delta= 3.03D-03
 NORM(A)=   0.10899807D+01
 Iteration Nr.   8
 **********************
 DD1Dir will call FoFMem   1 times, MxPair=       234
 NAB=    80 NAA=    45 NBB=    28.
 A-vector RMS=  1.9270946D-04 Max=  3.4381074D-03 conv= 1.00D-05.
 RLE energy=       -0.8790802194
 DE(Corr)= -0.87936708     E(CORR)=     -146.30086339     Delta=-9.10D-04
 NORM(A)=   0.10920576D+01
 Iteration Nr.   9
 **********************
 DD1Dir will call FoFMem   1 times, MxPair=       234
 NAB=    80 NAA=    45 NBB=    28.
 A-vector RMS=  1.2861163D-04 Max=  2.1601737D-03 conv= 1.00D-05.
 RLE energy=       -0.8794202966
 DE(Corr)= -0.87914949     E(CORR)=     -146.30064579     Delta= 2.18D-04
 NORM(A)=   0.10944231D+01
 Iteration Nr.  10
 **********************
 DD1Dir will call FoFMem   1 times, MxPair=       234
 NAB=    80 NAA=    45 NBB=    28.
 A-vector RMS=  7.4816086D-05 Max=  1.1174706D-03 conv= 1.00D-05.
 RLE energy=       -0.8794584271
 DE(Corr)= -0.87936821     E(CORR)=     -146.30086452     Delta=-2.19D-04
 NORM(A)=   0.10950116D+01
 Iteration Nr.  11
 **********************
 DD1Dir will call FoFMem   1 times, MxPair=       234
 NAB=    80 NAA=    45 NBB=    28.
 A-vector RMS=  5.3783479D-05 Max=  9.4291832D-04 conv= 1.00D-05.
 RLE energy=       -0.8793930352
 DE(Corr)= -0.87944051     E(CORR)=     -146.30093682     Delta=-7.23D-05
 NORM(A)=   0.10947087D+01
 Iteration Nr.  12
 **********************
 DD1Dir will call FoFMem   1 times, MxPair=       234
 NAB=    80 NAA=    45 NBB=    28.
 A-vector RMS=  3.2564647D-05 Max=  5.4523568D-04 conv= 1.00D-05.
 RLE energy=       -0.8793305445
 DE(Corr)= -0.87931104     E(CORR)=     -146.30080735     Delta= 1.29D-04
 NORM(A)=   0.10947750D+01
 Iteration Nr.  13
 **********************
 DD1Dir will call FoFMem   1 times, MxPair=       234
 NAB=    80 NAA=    45 NBB=    28.
 A-vector RMS=  2.4285776D-05 Max=  4.7538505D-04 conv= 1.00D-05.
 RLE energy=       -0.8793240982
 DE(Corr)= -0.87937178     E(CORR)=     -146.30086808     Delta=-6.07D-05
 NORM(A)=   0.10946535D+01
 Iteration Nr.  14
 **********************
 DD1Dir will call FoFMem   1 times, MxPair=       234
 NAB=    80 NAA=    45 NBB=    28.
 A-vector RMS=  1.2033454D-05 Max=  1.5839124D-04 conv= 1.00D-05.
 RLE energy=       -0.8793166754
 DE(Corr)= -0.87931862     E(CORR)=     -146.30081493     Delta= 5.32D-05
 NORM(A)=   0.10946525D+01
 Iteration Nr.  15
 **********************
 DD1Dir will call FoFMem   1 times, MxPair=       234
 NAB=    80 NAA=    45 NBB=    28.
 A-vector RMS=  9.0278209D-06 Max=  8.4632391D-05 conv= 1.00D-05.
 RLE energy=       -0.8792980620
 DE(Corr)= -0.87930364     E(CORR)=     -146.30079995     Delta= 1.50D-05
 NORM(A)=   0.10946680D+01
 Iteration Nr.  16
 **********************
 DD1Dir will call FoFMem   1 times, MxPair=       234
 NAB=    80 NAA=    45 NBB=    28.
 A-vector RMS=  7.6464525D-06 Max=  1.0979454D-04 conv= 1.00D-05.
 RLE energy=       -0.8793039944
 DE(Corr)= -0.87931410     E(CORR)=     -146.30081041     Delta=-1.05D-05
 NORM(A)=   0.10946882D+01
 Iteration Nr.  17
 **********************
 DD1Dir will call FoFMem   1 times, MxPair=       234
 NAB=    80 NAA=    45 NBB=    28.
 A-vector RMS=  4.4616216D-06 Max=  6.8350688D-05 conv= 1.00D-05.
 RLE energy=       -0.8793089813
 DE(Corr)= -0.87930918     E(CORR)=     -146.30080549     Delta= 4.92D-06
 NORM(A)=   0.10947126D+01
 Iteration Nr.  18
 **********************
 DD1Dir will call FoFMem   1 times, MxPair=       234
 NAB=    80 NAA=    45 NBB=    28.
 A-vector RMS=  2.6261378D-06 Max=  4.2608632D-05 conv= 1.00D-05.
 RLE energy=       -0.8793085414
 DE(Corr)= -0.87930882     E(CORR)=     -146.30080513     Delta= 3.55D-07
 NORM(A)=   0.10947345D+01
 Iteration Nr.  19
 **********************
 DD1Dir will call FoFMem   1 times, MxPair=       234
 NAB=    80 NAA=    45 NBB=    28.
 A-vector RMS=  1.9830858D-06 Max=  3.5351085D-05 conv= 1.00D-05.
 RLE energy=       -0.8793122932
 DE(Corr)= -0.87931421     E(CORR)=     -146.30081051     Delta=-5.38D-06
 NORM(A)=   0.10947420D+01
 Iteration Nr.  20
 **********************
 DD1Dir will call FoFMem   1 times, MxPair=       234
 NAB=    80 NAA=    45 NBB=    28.
 A-vector RMS=  1.2809913D-06 Max=  2.3335229D-05 conv= 1.00D-05.
 RLE energy=       -0.8793140578
 DE(Corr)= -0.87931236     E(CORR)=     -146.30080867     Delta= 1.85D-06
 NORM(A)=   0.10947541D+01
 Iteration Nr.  21
 **********************
 DD1Dir will call FoFMem   1 times, MxPair=       234
 NAB=    80 NAA=    45 NBB=    28.
 A-vector RMS=  7.2750576D-07 Max=  1.3129829D-05 conv= 1.00D-05.
 RLE energy=       -0.8793140629
 DE(Corr)= -0.87931382     E(CORR)=     -146.30081013     Delta=-1.46D-06
 NORM(A)=   0.10947579D+01
 Iteration Nr.  22
 **********************
 DD1Dir will call FoFMem   1 times, MxPair=       234
 NAB=    80 NAA=    45 NBB=    28.
 A-vector RMS=  5.0057610D-07 Max=  5.8713494D-06 conv= 1.00D-05.
 RLE energy=       -0.8793146758
 DE(Corr)= -0.87931465     E(CORR)=     -146.30081096     Delta=-8.24D-07
 NORM(A)=   0.10947602D+01
 Iteration Nr.  23
 **********************
 DD1Dir will call FoFMem   1 times, MxPair=       234
 NAB=    80 NAA=    45 NBB=    28.
 A-vector RMS=  3.1968879D-07 Max=  3.7582858D-06 conv= 1.00D-05.
 RLE energy=       -0.8793148846
 DE(Corr)= -0.87931465     E(CORR)=     -146.30081096     Delta= 2.14D-10
 NORM(A)=   0.10947618D+01
 CI/CC converged in   23 iterations to DelEn= 2.14D-10 Conv= 1.00D-07 ErrA1= 3.20D-07 Conv= 1.00D-05
 Wavefunction amplitudes converged. E(Corr)=     -146.30081096    
 Dominant configurations:
 ***********************
 Spin Case        I    J    A    B          Value
    AA           10        11            0.114692D+00
    AA           10        15            0.103075D+00
 Largest amplitude= 1.15D-01
 Time for triples=   131757.11 seconds.
 T4(CCSD)= -0.38812708D-01
 T5(CCSD)=  0.59900398D-02
 CCSD(T)= -0.14633363362D+03
 Discarding MO integrals.
 Leave Link  913 at Sat Apr 28 21:06:46 2018, MaxMem= 10737418240 cpu:          177367.0 elap:            5551.2
 (Enter /home1/apps/gaussian/16rA.03/g16/l601.exe)
 Copying SCF densities to generalized density rwf, IOpCl= 0 IROHF=1.

 **********************************************************************

            Population analysis using the SCF density.

 **********************************************************************

 Orbital symmetries:
       Occupied  (SG) (PI) (PI) (SG) (DLTA) (PI) (PI) (SG) (SG)
                 (DLTA)
       Virtual   (SG) (PI) (PI) (SG) (SG) (SG) (DLTA) (DLTA) (PI)
                 (PI) (PI) (PI) (SG) (SG) (SG) (SG) (PI) (PI) (DLTA)
                 (DLTA) (PI) (PI) (SG) (PI) (PI) (SG) (SG) (SG)
                 (DLTA) (DLTA) (PHI) (PHI) (SG) (PI) (PI) (PI)
                 (PI) (DLTA) (DLTA) (SG) (PI) (PI) (DLTA) (DLTA)
                 (PI) (PI) (SG) (SG) (SG) (PI) (PI) (SG) (PHI)
                 (PHI) (SG) (DLTA) (DLTA) (PI) (PI) (?A) (?A) (DLTA)
                 (DLTA) (PI) (PI) (SG) (PHI) (PHI) (PI) (PI) (DLTA)
                 (DLTA) (SG) (PHI) (PHI) (DLTA) (DLTA) (SG) (PI)
                 (PI) (SG) (PI) (PI) (DLTA) (DLTA) (SG) (PI) (PI)
                 (SG) (SG) (PI) (PI) (?A) (?A) (SG) (PHI) (PHI)
                 (PI) (PI) (DLTA) (DLTA) (SG) (PI) (PI) (DLTA)
                 (DLTA) (?B) (?B) (?A) (?A) (SG) (DLTA) (DLTA)
                 (SG) (?C) (?C) (?C) (?C) (?D) (?D) (?E) (?E) (?E)
                 (DLTA) (DLTA) (?D) (?D) (?D) (?D) (DLTA) (DLTA)
                 (SG) (PHI) (PHI) (PI) (PI) (SG) (PI) (PI) (DLTA)
                 (DLTA) (SG) (PI) (PI) (DLTA) (DLTA) (SG) (PI)
                 (PI) (SG) (PI) (PI) (SG) (DLTA) (DLTA) (PI) (PI)
                 (SG) (SG) (PHI) (PHI) (DLTA) (DLTA) (?F) (?F)
                 (?F) (?F) (?G) (?G) (?G) (?F) (?F) (DLTA) (DLTA)
                 (PI) (PI) (SG) (?A) (?A) (PHI) (PHI) (DLTA) (DLTA)
                 (PI) (PI) (SG) (SG) (SG) (?B) (?B) (?A) (?A) (?C)
                 (?C) (SG) (DLTA) (DLTA) (?C) (?C) (SG) (PI) (PI)
                 (SG) (PHI) (PHI) (?A) (?A) (DLTA) (DLTA) (PHI)
                 (PHI) (PI) (PI) (DLTA) (DLTA) (SG) (DLTA) (DLTA)
                 (SG) (PI) (PI) (PI) (PI) (DLTA) (DLTA) (PI) (PI)
                 (SG) (SG) (PI) (PI) (SG) (SG) (PHI) (PHI) (DLTA)
                 (DLTA) (PI) (PI) (SG) (?A) (?A) (?C) (?C) (DLTA)
                 (DLTA) (?C) (?C) (?B) (?B) (?H) (?H) (?C) (?C)
                 (DLTA) (?H) (DLTA) (?C) (?C) (SG) (PI) (PI) (?I)
                 (?I) (?B) (?B) (?J) (?J) (?J) (?C) (?C) (?I) (?I)
                 (?C) (?C) (?J) (DLTA) (DLTA) (PI) (PI) (SG) (SG)
                 (SG) (?A) (?A) (?C) (?C) (DLTA) (DLTA) (?C) (?C)
                 (SG) (?K) (?K) (?L) (?L) (?K) (?K) (DLTA) (DLTA)
                 (?K) (?K) (?L) (DLTA) (DLTA) (PI) (PI) (SG) (?C)
                 (?C) (DLTA) (DLTA) (?C) (?C) (SG) (PI) (PI) (SG)
                 (?I) (?I) (?L) (?L) (?L) (?L) (?L) (?L) (?I) (?I)
                 (?L) (?L) (?L) (SG) (DLTA) (DLTA) (PI) (PI) (SG)
                 (PI) (PI) (SG) (SG) (SG) (DLTA) (DLTA) (PI) (PI)
                 (SG) (PI) (PI) (SG) (SG) (DLTA) (DLTA) (PI) (PI)
                 (SG) (PI) (PI) (SG) (SG) (PI) (PI) (SG) (DLTA)
                 (DLTA) (PI) (PI) (SG) (SG) (SG) (PI) (PI) (SG)
                 (SG) (DLTA) (DLTA) (PI) (PI) (SG) (PI) (PI) (SG)
                 (SG) (SG) (PI) (PI) (SG) (SG) (PI) (PI) (SG) (SG)
                 (PI) (PI) (SG) (SG) (PI) (PI) (SG) (SG) (SG) (PI)
                 (PI) (SG) (SG) (SG) (SG) (SG) (SG) (SG)
 Unable to determine electronic state:  partially filled degenerate orbitals.
 Alpha  occ. eigenvalues --   -4.40104  -2.92264  -2.92204  -2.92203  -0.48871
 Alpha  occ. eigenvalues --   -0.48736  -0.44020  -0.43704  -0.43703  -0.32755
 Alpha virt. eigenvalues --   -0.00231   0.02318   0.02318   0.02760   0.03894
 Alpha virt. eigenvalues --    0.06417   0.06612   0.06623   0.06884   0.06884
 Alpha virt. eigenvalues --    0.08165   0.08165   0.08820   0.14405   0.18032
 Alpha virt. eigenvalues --    0.18880   0.20972   0.20972   0.21258   0.21387
 Alpha virt. eigenvalues --    0.23042   0.23042   0.26115   0.26318   0.26318
 Alpha virt. eigenvalues --    0.37907   0.42178   0.47454   0.49297   0.49373
 Alpha virt. eigenvalues --    0.49707   0.49707   0.53634   0.55611   0.55611
 Alpha virt. eigenvalues --    0.55857   0.55857   0.57264   0.57811   0.62154
 Alpha virt. eigenvalues --    0.67592   0.67592   0.68712   0.68762   0.71090
 Alpha virt. eigenvalues --    0.71090   0.76854   0.93871   1.04174   1.09579
 Alpha virt. eigenvalues --    1.09579   1.16735   1.25605   1.25605   1.29789
 Alpha virt. eigenvalues --    1.38096   1.38397   1.40331   1.40331   1.43629
 Alpha virt. eigenvalues --    1.43656   1.43656   1.44862   1.45933   1.45933
 Alpha virt. eigenvalues --    1.46864   1.52170   1.52170   1.56507   1.56507
 Alpha virt. eigenvalues --    1.57267   1.57561   1.62371   1.62796   1.62796
 Alpha virt. eigenvalues --    1.73087   1.73257   1.84198   1.85186   1.85186
 Alpha virt. eigenvalues --    2.00628   2.06360   2.06361   2.27054   2.27363
 Alpha virt. eigenvalues --    2.29201   2.53680   2.53680   2.77218   2.85674
 Alpha virt. eigenvalues --    2.90786   2.90786   3.00242   3.00242   3.14346
 Alpha virt. eigenvalues --    3.21271   3.21271   3.31042   3.31042   3.40174
 Alpha virt. eigenvalues --    3.42331   3.52226   3.54938   3.54938   3.62597
 Alpha virt. eigenvalues --    3.62867   3.64009   3.64009   3.75139   3.75140
 Alpha virt. eigenvalues --    3.78962   3.80112   3.80588   3.86208   3.99602
 Alpha virt. eigenvalues --    3.99602   4.00808   4.00808   4.10762   4.10762
 Alpha virt. eigenvalues --    4.11209   4.12890   4.12913   4.15005   4.15408
 Alpha virt. eigenvalues --    4.15408   4.15918   4.16180   4.16180   4.37350
 Alpha virt. eigenvalues --    4.38580   4.47466   4.47973   4.47973   5.05145
 Alpha virt. eigenvalues --    5.05145   5.06030   5.18838   5.18838   5.21085
 Alpha virt. eigenvalues --    5.21402   5.69070   5.73313   5.73313   5.76704
 Alpha virt. eigenvalues --    5.76979   5.96996   6.27379   6.27379   6.77092
 Alpha virt. eigenvalues --    6.82605   6.82605   7.52283   7.58492   7.61500
 Alpha virt. eigenvalues --    7.76793   7.76793   7.94170   8.30059   9.31766
 Alpha virt. eigenvalues --    9.31766   9.40275   9.42959   9.59705   9.59705
 Alpha virt. eigenvalues --    9.67001   9.67001   9.70936   9.70975   9.82327
 Alpha virt. eigenvalues --    9.83766   9.83766   9.92111   9.93598  10.10627
 Alpha virt. eigenvalues --   10.10627  10.24940  10.36276  10.36282  10.41567
 Alpha virt. eigenvalues --   10.41567  10.55946  10.57763  10.74761  10.74761
 Alpha virt. eigenvalues --   10.79486  11.10596  11.10596  11.12386  11.12386
 Alpha virt. eigenvalues --   11.13573  11.13580  11.19387  11.19387  11.24443
 Alpha virt. eigenvalues --   11.32983  11.34328  11.49030  11.49030  11.74082
 Alpha virt. eigenvalues --   12.35814  12.35814  12.88169  13.04592  13.04592
 Alpha virt. eigenvalues --   13.27853  13.27853  13.29670  13.29693  13.34465
 Alpha virt. eigenvalues --   13.34465  13.48323  13.48323  13.63227  13.63367
 Alpha virt. eigenvalues --   13.92933  14.20692  14.20708  14.44640  14.51111
 Alpha virt. eigenvalues --   14.51111  14.94305  14.94305  15.65408  15.68969
 Alpha virt. eigenvalues --   15.86056  15.86056  16.00602  16.22527  17.34799
 Alpha virt. eigenvalues --   17.34799  18.38993  19.02455  20.93302  20.93302
 Alpha virt. eigenvalues --   21.03028  21.06020  21.34793  21.34793  22.39399
 Alpha virt. eigenvalues --   22.52441  22.52454  22.57636  22.57636  22.69031
 Alpha virt. eigenvalues --   22.71805  23.01326  23.01326  23.06847  23.06847
 Alpha virt. eigenvalues --   23.10939  23.10952  23.17875  23.17875  23.22295
 Alpha virt. eigenvalues --   23.22425  23.24896  23.30440  23.30440  23.71323
 Alpha virt. eigenvalues --   26.48558  26.48558  26.96758  26.96759  26.99562
 Alpha virt. eigenvalues --   26.99562  27.00325  27.00465  27.02145  27.02719
 Alpha virt. eigenvalues --   27.02719  27.12389  27.14704  27.37977  27.37977
 Alpha virt. eigenvalues --   27.53328  29.44954  29.48817  29.60771  29.60771
 Alpha virt. eigenvalues --   29.84671  34.33738  39.93282  47.62249  47.62268
 Alpha virt. eigenvalues --   47.66727  47.66727  47.74906  47.77513  47.97908
 Alpha virt. eigenvalues --   47.97908  48.18155  50.37638  50.37638  50.41478
 Alpha virt. eigenvalues --   50.41636  50.45549  50.45549  50.47111  50.49868
 Alpha virt. eigenvalues --   50.49916  50.49916  50.54379  51.54116  51.58124
 Alpha virt. eigenvalues --   51.65948  51.65948  51.78541  52.43761  52.43761
 Alpha virt. eigenvalues --   52.51516  52.53815  52.76460  52.76460  53.40937
 Alpha virt. eigenvalues --   53.42241  53.42241  53.97860  59.81536  59.81542
 Alpha virt. eigenvalues --   59.84861  59.84861  59.85597  59.85721  59.86233
 Alpha virt. eigenvalues --   59.86233  59.89087  59.91848  60.00191  60.00191
 Alpha virt. eigenvalues --   60.05426  75.67397  86.46745  86.50485  86.59892
 Alpha virt. eigenvalues --   86.59892  86.75838 103.76832 103.76832 104.22868
 Alpha virt. eigenvalues --  136.24924 139.82283 152.55649 152.58277 152.66769
 Alpha virt. eigenvalues --  152.66769 152.81882 197.46462 197.46462 197.89531
 Alpha virt. eigenvalues --  245.04963 313.09355 313.10549 313.17707 313.17707
 Alpha virt. eigenvalues --  313.31334 372.67336 372.67336 373.08146 443.12925
 Alpha virt. eigenvalues --  706.97493 706.97493 707.35967 764.97643 764.98007
 Alpha virt. eigenvalues --  765.03577 765.03577 765.14844 809.76575 817.42938
 Alpha virt. eigenvalues -- 1365.990921365.990921366.352281505.389732367.85825
 Alpha virt. eigenvalues -- 2367.858952367.895932367.895932367.973062721.38207
 Alpha virt. eigenvalues -- 2721.382072721.716622859.755195564.340835667.55125
 Alpha virt. eigenvalues -- 5667.551255667.85631******************************
 Alpha virt. eigenvalues -- **************************************************
 Alpha virt. eigenvalues -- **************************************************
 Alpha virt. eigenvalues -- **************************************************
 Alpha virt. eigenvalues -- **************************************************
     Molecular Orbital Coefficients:
                           4         5         6         7         8
                           O         O         O         O         O
     Eigenvalues --    -2.92203  -0.48871  -0.48736  -0.44020  -0.43704
   1 1   Co 1S          0.00000   0.00000   0.00000   0.00000   0.00000
   2        2S         -0.00000  -0.00000   0.00000   0.00000  -0.00000
   3        3S          0.00000   0.00000   0.00000   0.00000   0.00000
   4        4S         -0.00000  -0.00000   0.00000   0.00000  -0.00000
   5        5S          0.00000   0.00000   0.00000   0.00000   0.00000
   6        6S         -0.00000  -0.00000   0.00000   0.00000  -0.00000
   7        7S          0.00000   0.00000   0.00000   0.00000   0.00000
   8        8S         -0.00000  -0.00000   0.00000   0.00000  -0.00000
   9        9S          0.00000   0.00000   0.00000   0.00000   0.00000
  10       10S         -0.00000  -0.00000   0.00000   0.00000  -0.00001
  11       11S          0.00000   0.00000   0.00000   0.00000   0.00002
  12       12S         -0.00001  -0.00000   0.00000   0.00000  -0.00005
  13       13S          0.00001   0.00000   0.00000   0.00000   0.00013
  14       14S         -0.00003  -0.00000   0.00000   0.00000  -0.00031
  15       15S          0.00008   0.00000   0.00000   0.00000   0.00074
  16       16S         -0.00018  -0.00000   0.00000   0.00000  -0.00176
  17       17S          0.00042   0.00000   0.00000   0.00000   0.00421
  18       18S         -0.00091  -0.00000   0.00000   0.00000  -0.00945
  19       19S         -0.00001   0.00000   0.00000   0.00000   0.00158
  20       20S          0.00373   0.00000   0.00000   0.00000   0.03832
  21       21S         -0.00147  -0.00000   0.00000   0.00000  -0.02063
  22       22S         -0.00360  -0.00000   0.00000   0.00000  -0.03182
  23       23S         -0.01077  -0.00000   0.00000   0.00000  -0.13062
  24       24S         -0.00084  -0.00000   0.00000   0.00000  -0.09095
  25       25S          0.00897   0.00000   0.00000   0.00000   0.03564
  26       26S          0.00165   0.00000   0.00000   0.00000   0.18202
  27       27S          0.00702   0.00000   0.00000   0.00000   0.16237
  28       28S         -0.00147   0.00000   0.00000   0.00000   0.03068
  29       29S          0.00324   0.00000   0.00000   0.00000   0.03082
  30       30S         -0.00329  -0.00000   0.00000   0.00000  -0.02793
  31       31S         -0.00007  -0.00000   0.00000   0.00000  -0.00515
  32       32PX         0.00000   0.00000  -0.00000   0.00000   0.00000
  33       32PY         0.00000   0.00000   0.00000  -0.00000   0.00000
  34       32PZ         0.00000   0.00000   0.00000   0.00000   0.00000
  35       33PX         0.00000   0.00000   0.00000   0.00000   0.00000
  36       33PY         0.00000   0.00000   0.00000   0.00000   0.00000
  37       33PZ        -0.00000  -0.00000   0.00000   0.00000  -0.00000
  38       34PX         0.00000   0.00000  -0.00000   0.00000   0.00000
  39       34PY         0.00000   0.00000   0.00000  -0.00000   0.00000
  40       34PZ         0.00000   0.00000   0.00000   0.00000   0.00000
  41       35PX         0.00000   0.00000   0.00000   0.00000   0.00000
  42       35PY         0.00000   0.00000   0.00000   0.00000   0.00000
  43       35PZ        -0.00000  -0.00000   0.00000   0.00000  -0.00000
  44       36PX         0.00000   0.00000  -0.00000   0.00000   0.00000
  45       36PY         0.00000   0.00000   0.00000  -0.00000   0.00000
  46       36PZ         0.00002   0.00000   0.00000   0.00000   0.00000
  47       37PX         0.00000   0.00000   0.00000   0.00000   0.00000
  48       37PY         0.00000   0.00000   0.00000   0.00000   0.00000
  49       37PZ        -0.00006  -0.00000   0.00000   0.00000  -0.00000
  50       38PX         0.00000   0.00000  -0.00000   0.00000   0.00000
  51       38PY         0.00000   0.00000   0.00000  -0.00000   0.00000
  52       38PZ         0.00017   0.00000   0.00000   0.00000   0.00001
  53       39PX         0.00000   0.00000   0.00000   0.00000   0.00000
  54       39PY         0.00000   0.00000   0.00000   0.00000   0.00000
  55       39PZ        -0.00046  -0.00000   0.00000   0.00000  -0.00003
  56       40PX         0.00000   0.00000  -0.00001   0.00000   0.00000
  57       40PY         0.00000   0.00000   0.00000  -0.00001   0.00000
  58       40PZ         0.00124   0.00000   0.00000   0.00000   0.00009
  59       41PX         0.00000   0.00000   0.00002   0.00000   0.00000
  60       41PY         0.00000   0.00000   0.00000   0.00002   0.00000
  61       41PZ        -0.00332  -0.00000   0.00000   0.00000  -0.00026
  62       42PX         0.00000   0.00000  -0.00012   0.00000   0.00000
  63       42PY         0.00000   0.00000   0.00000  -0.00012   0.00000
  64       42PZ         0.01157   0.00000   0.00000   0.00000   0.00098
  65       43PX         0.00000   0.00000   0.00074   0.00000   0.00000
  66       43PY         0.00000   0.00000   0.00000   0.00074   0.00000
  67       43PZ        -0.04160  -0.00000   0.00000   0.00000  -0.00448
  68       44PX         0.00000   0.00000  -0.00118   0.00000   0.00000
  69       44PY         0.00000   0.00000   0.00000  -0.00118   0.00000
  70       44PZ         0.06856   0.00000   0.00000   0.00000   0.00811
  71       45PX         0.00000   0.00000  -0.00258   0.00000   0.00000
  72       45PY         0.00000   0.00000   0.00000  -0.00258   0.00000
  73       45PZ         0.13507   0.00000   0.00000   0.00000   0.01363
  74       46PX         0.00000   0.00000  -0.00678   0.00000   0.00000
  75       46PY         0.00000   0.00000   0.00000  -0.00678   0.00000
  76       46PZ         0.36903   0.00000   0.00000   0.00000   0.04026
  77       47PX         0.00000   0.00000  -0.00744   0.00000   0.00000
  78       47PY         0.00000   0.00000   0.00000  -0.00744   0.00000
  79       47PZ         0.31936   0.00000   0.00000   0.00000   0.03920
  80       48PX         0.00000   0.00000   0.00435   0.00000   0.00000
  81       48PY         0.00000   0.00000   0.00000   0.00435   0.00000
  82       48PZ         0.11731   0.00000   0.00000   0.00000   0.00135
  83       49PX         0.00000   0.00000   0.02004   0.00000   0.00000
  84       49PY         0.00000   0.00000   0.00000   0.02004   0.00000
  85       49PZ         0.00776  -0.00000   0.00000   0.00000  -0.05930
  86       50PX         0.00000   0.00000   0.01110   0.00000   0.00000
  87       50PY         0.00000   0.00000   0.00000   0.01110   0.00000
  88       50PZ        -0.00489  -0.00000   0.00000   0.00000  -0.07122
  89       51PX         0.00000   0.00000   0.00069   0.00000   0.00000
  90       51PY         0.00000   0.00000   0.00000   0.00069   0.00000
  91       51PZ         0.00018  -0.00000   0.00000   0.00000  -0.01681
  92       52PX         0.00000   0.00000   0.00041   0.00000   0.00000
  93       52PY         0.00000   0.00000   0.00000   0.00041   0.00000
  94       52PZ        -0.03404  -0.00000   0.00000   0.00000  -0.00290
  95       53PX         0.00000   0.00000  -0.00277   0.00000   0.00000
  96       53PY         0.00000   0.00000   0.00000  -0.00277   0.00000
  97       53PZ         0.13941   0.00000   0.00000   0.00000   0.01442
  98       54PX         0.00000   0.00000  -0.00001   0.00000   0.00000
  99       54PY         0.00000   0.00000   0.00000  -0.00001   0.00000
 100       54PZ         0.00014   0.00000   0.00000   0.00000   0.00197
 101       55D 0       -0.00000  -0.00000   0.00000   0.00000  -0.00000
 102       55D+1        0.00000   0.00000  -0.00000   0.00000   0.00000
 103       55D-1        0.00000   0.00000   0.00000  -0.00000   0.00000
 104       55D+2       -0.00000  -0.00000   0.00000   0.00000   0.00000
 105       55D-2        0.00000   0.00000   0.00000   0.00000   0.00000
 106       56D 0        0.00000   0.00000   0.00000   0.00000   0.00000
 107       56D+1        0.00000   0.00000   0.00001   0.00000   0.00000
 108       56D-1        0.00000   0.00000   0.00000   0.00001   0.00000
 109       56D+2        0.00000   0.00001   0.00000   0.00000  -0.00000
 110       56D-2        0.00000   0.00000   0.00000   0.00000   0.00000
 111       57D 0       -0.00000  -0.00000   0.00000   0.00000  -0.00000
 112       57D+1        0.00000   0.00000  -0.00005   0.00000   0.00000
 113       57D-1        0.00000   0.00000   0.00000  -0.00005   0.00000
 114       57D+2       -0.00000  -0.00005   0.00000   0.00000   0.00000
 115       57D-2        0.00000   0.00000   0.00000   0.00000   0.00000
 116       58D 0        0.00001   0.00000   0.00000   0.00000   0.00012
 117       58D+1        0.00000   0.00000   0.00119   0.00000   0.00000
 118       58D-1        0.00000   0.00000   0.00000   0.00119   0.00000
 119       58D+2        0.00000   0.00119   0.00000   0.00000  -0.00000
 120       58D-2        0.00000   0.00000   0.00000   0.00000   0.00000
 121       59D 0        0.00052   0.00000   0.00000   0.00000   0.00471
 122       59D+1        0.00000   0.00000   0.04738   0.00000   0.00000
 123       59D-1        0.00000   0.00000   0.00000   0.04738   0.00000
 124       59D+2       -0.00000   0.04757   0.00000   0.00000  -0.00000
 125       59D-2        0.00000   0.00000   0.00000   0.00000   0.00000
 126       60D 0        0.00112   0.00000   0.00000   0.00000   0.01316
 127       60D+1        0.00000   0.00000   0.13110   0.00000   0.00000
 128       60D-1        0.00000   0.00000   0.00000   0.13110   0.00000
 129       60D+2       -0.00000   0.13133   0.00000   0.00000  -0.00000
 130       60D-2        0.00000   0.00000   0.00000   0.00000   0.00000
 131       61D 0        0.00256   0.00000   0.00000   0.00000   0.02515
 132       61D+1        0.00000   0.00000   0.25007   0.00000   0.00000
 133       61D-1        0.00000   0.00000   0.00000   0.25007   0.00000
 134       61D+2       -0.00000   0.25096   0.00000   0.00000  -0.00000
 135       61D-2        0.00000   0.00000   0.00000   0.00000   0.00000
 136       62D 0        0.00398   0.00000   0.00000   0.00000   0.02896
 137       62D+1        0.00000   0.00000   0.28661   0.00000   0.00000
 138       62D-1        0.00000   0.00000   0.00000   0.28661   0.00000
 139       62D+2       -0.00000   0.28785   0.00000   0.00000  -0.00000
 140       62D-2        0.00000   0.00000   0.00000   0.00000   0.00000
 141       63D 0        0.00268   0.00000   0.00000   0.00000   0.03085
 142       63D+1        0.00000   0.00000   0.25806   0.00000   0.00000
 143       63D-1        0.00000   0.00000   0.00000   0.25806   0.00000
 144       63D+2       -0.00000   0.25907   0.00000   0.00000  -0.00000
 145       63D-2        0.00000   0.00000   0.00000   0.00000   0.00000
 146       64D 0        0.00366   0.00000   0.00000   0.00000   0.02902
 147       64D+1        0.00000   0.00000   0.18854   0.00000   0.00000
 148       64D-1        0.00000   0.00000   0.00000   0.18854   0.00000
 149       64D+2       -0.00000   0.18931   0.00000   0.00000  -0.00000
 150       64D-2        0.00000   0.00000   0.00000   0.00000   0.00000
[...]
 209       74F+3        0.00001   0.00000   0.00000   0.00000
 210       74F-3        0.00001   0.00000   0.00000   0.00000
 211       75F 0        0.00091   0.00049   0.00042   0.00007
 212       75F+1        0.00005   0.00003   0.00003   0.00000
 213       75F-1        0.00005   0.00003   0.00003   0.00000
 214       75F+2        0.00009   0.00005   0.00005   0.00000
 215       75F-2        0.00002   0.00002   0.00000   0.00002
 216       75F+3        0.00000   0.00000   0.00000   0.00000
 217       75F-3        0.00000   0.00000   0.00000   0.00000
 218       76G 0        0.00000   0.00000   0.00000   0.00000
 219       76G+1        0.00000   0.00000   0.00000   0.00000
 220       76G-1        0.00000   0.00000   0.00000   0.00000
 221       76G+2        0.00000   0.00000   0.00000   0.00000
 222       76G-2        0.00000   0.00000   0.00000   0.00000
 223       76G+3        0.00000   0.00000   0.00000   0.00000
 224       76G-3        0.00000   0.00000   0.00000   0.00000
 225       76G+4        0.00000   0.00000   0.00000   0.00000
 226       76G-4        0.00000   0.00000   0.00000   0.00000
 227       77G 0        0.00000   0.00000  -0.00000   0.00000
 228       77G+1        0.00000   0.00000   0.00000   0.00000
 229       77G-1        0.00000   0.00000   0.00000   0.00000
 230       77G+2        0.00000   0.00000   0.00000   0.00000
 231       77G-2        0.00000   0.00000   0.00000   0.00000
 232       77G+3        0.00000   0.00000   0.00000   0.00000
 233       77G-3        0.00000   0.00000   0.00000   0.00000
 234       77G+4        0.00000   0.00000   0.00000   0.00000
 235       77G-4        0.00000   0.00000   0.00000   0.00000
 236       78G 0        0.00000   0.00000   0.00000   0.00000
 237       78G+1        0.00000   0.00000   0.00000   0.00000
 238       78G-1        0.00000   0.00000   0.00000   0.00000
 239       78G+2        0.00000   0.00000   0.00000   0.00000
 240       78G-2        0.00000   0.00000   0.00000   0.00000
 241       78G+3        0.00000   0.00000   0.00000   0.00000
 242       78G-3        0.00000   0.00000   0.00000   0.00000
 243       78G+4        0.00000   0.00000   0.00000   0.00000
 244       78G-4        0.00000   0.00000   0.00000   0.00000
 245       79G 0        0.00007   0.00003   0.00003  -0.00000
 246       79G+1       -0.00000  -0.00000  -0.00000   0.00000
 247       79G-1       -0.00000  -0.00000  -0.00000   0.00000
 248       79G+2       -0.00000  -0.00000  -0.00000   0.00000
 249       79G-2        0.00001   0.00001  -0.00000   0.00001
 250       79G+3        0.00000   0.00000   0.00000   0.00000
 251       79G-3        0.00000   0.00000   0.00000   0.00000
 252       79G+4        0.00000   0.00000   0.00000   0.00000
 253       79G-4        0.00000   0.00000   0.00000   0.00000
 254       80G 0        0.00014   0.00007   0.00007  -0.00000
 255       80G+1       -0.00000  -0.00000  -0.00000   0.00000
 256       80G-1       -0.00000  -0.00000  -0.00000   0.00000
 257       80G+2       -0.00000  -0.00000  -0.00000   0.00000
 258       80G-2        0.00000   0.00000  -0.00000   0.00000
 259       80G+3        0.00000   0.00000   0.00000   0.00000
 260       80G-3        0.00000   0.00000   0.00000   0.00000
 261       80G+4        0.00000   0.00000   0.00000   0.00000
 262       80G-4        0.00000   0.00000   0.00000   0.00000
 263       81H 0        0.00000   0.00000   0.00000   0.00000
 264       81H+1        0.00000   0.00000   0.00000   0.00000
 265       81H-1        0.00000   0.00000   0.00000   0.00000
 266       81H+2        0.00000   0.00000   0.00000   0.00000
 267       81H-2        0.00000   0.00000   0.00000   0.00000
 268       81H+3        0.00000   0.00000   0.00000   0.00000
 269       81H-3        0.00000   0.00000   0.00000   0.00000
 270       81H+4        0.00000   0.00000   0.00000   0.00000
 271       81H-4        0.00000   0.00000   0.00000   0.00000
 272       81H+5        0.00000   0.00000   0.00000   0.00000
 273       81H-5        0.00000   0.00000   0.00000   0.00000
 274       82H 0        0.00000   0.00000   0.00000   0.00000
 275       82H+1        0.00000   0.00000   0.00000   0.00000
 276       82H-1        0.00000   0.00000   0.00000   0.00000
 277       82H+2        0.00000   0.00000   0.00000   0.00000
 278       82H-2        0.00000   0.00000   0.00000   0.00000
 279       82H+3        0.00000   0.00000   0.00000   0.00000
 280       82H-3        0.00000   0.00000   0.00000   0.00000
 281       82H+4        0.00000   0.00000   0.00000   0.00000
 282       82H-4        0.00000   0.00000   0.00000   0.00000
 283       82H+5        0.00000   0.00000   0.00000   0.00000
 284       82H-5        0.00000   0.00000   0.00000   0.00000
 285       83H 0        0.00000   0.00000   0.00000   0.00000
 286       83H+1        0.00000   0.00000   0.00000   0.00000
 287       83H-1        0.00000   0.00000   0.00000   0.00000
 288       83H+2       -0.00000  -0.00000  -0.00000   0.00000
 289       83H-2        0.00000   0.00000  -0.00000   0.00000
 290       83H+3        0.00000   0.00000   0.00000   0.00000
 291       83H-3        0.00000   0.00000   0.00000   0.00000
 292       83H+4        0.00000   0.00000   0.00000   0.00000
 293       83H-4        0.00000   0.00000   0.00000   0.00000
 294       83H+5        0.00000   0.00000   0.00000   0.00000
 295       83H-5        0.00000   0.00000   0.00000   0.00000
 296       84H 0        0.00002   0.00001   0.00001  -0.00000
 297       84H+1       -0.00000  -0.00000  -0.00000   0.00000
 298       84H-1       -0.00000  -0.00000  -0.00000   0.00000
 299       84H+2       -0.00000  -0.00000  -0.00000  -0.00000
 300       84H-2       -0.00000  -0.00000  -0.00000  -0.00000
 301       84H+3        0.00000   0.00000   0.00000   0.00000
 302       84H-3        0.00000   0.00000   0.00000   0.00000
 303       84H+4        0.00000   0.00000   0.00000  -0.00000
 304       84H-4        0.00000   0.00000   0.00000   0.00000
 305       84H+5        0.00000   0.00000   0.00000   0.00000
 306       84H-5        0.00000   0.00000   0.00000   0.00000
 307       85I 0        0.00000   0.00000   0.00000   0.00000
 308       85I+1        0.00000   0.00000   0.00000   0.00000
 309       85I-1        0.00000   0.00000   0.00000   0.00000
 310       85I+2        0.00000   0.00000   0.00000   0.00000
 311       85I-2        0.00000   0.00000   0.00000   0.00000
 312       85I+3        0.00000   0.00000   0.00000   0.00000
 313       85I-3        0.00000   0.00000   0.00000   0.00000
 314       85I+4        0.00000   0.00000   0.00000   0.00000
 315       85I-4        0.00000   0.00000   0.00000   0.00000
 316       85I+5        0.00000   0.00000   0.00000   0.00000
 317       85I-5        0.00000   0.00000   0.00000   0.00000
 318       85I+6        0.00000   0.00000   0.00000   0.00000
 319       85I-6        0.00000   0.00000   0.00000   0.00000
 320       86I 0        0.00000   0.00000   0.00000   0.00000
 321       86I+1        0.00000   0.00000   0.00000   0.00000
 322       86I-1        0.00000   0.00000   0.00000   0.00000
 323       86I+2        0.00000   0.00000   0.00000   0.00000
 324       86I-2        0.00000   0.00000   0.00000   0.00000
 325       86I+3        0.00000   0.00000   0.00000   0.00000
 326       86I-3        0.00000   0.00000   0.00000   0.00000
 327       86I+4        0.00000   0.00000   0.00000   0.00000
 328       86I-4        0.00000   0.00000   0.00000   0.00000
 329       86I+5        0.00000   0.00000   0.00000   0.00000
 330       86I-5        0.00000   0.00000   0.00000   0.00000
 331       86I+6        0.00000   0.00000   0.00000   0.00000
 332       86I-6        0.00000   0.00000   0.00000   0.00000
 333       87I 0        0.00000   0.00000   0.00000   0.00000
 334       87I+1        0.00000   0.00000   0.00000   0.00000
 335       87I-1        0.00000   0.00000   0.00000   0.00000
 336       87I+2        0.00000   0.00000   0.00000   0.00000
 337       87I-2        0.00000   0.00000   0.00000   0.00000
 338       87I+3        0.00000   0.00000   0.00000   0.00000
 339       87I-3        0.00000   0.00000   0.00000   0.00000
 340       87I+4        0.00000   0.00000   0.00000   0.00000
 341       87I-4        0.00000   0.00000   0.00000   0.00000
 342       87I+5        0.00000   0.00000   0.00000   0.00000
 343       87I-5        0.00000   0.00000   0.00000   0.00000
 344       87I+6        0.00000   0.00000   0.00000   0.00000
 345       87I-6        0.00000   0.00000   0.00000   0.00000
 346 2   H  1S         -0.00000  -0.00000  -0.00000  -0.00000
 347        2S          0.00006   0.00003   0.00003   0.00000
 348        3S          0.00341   0.00171   0.00170   0.00001
 349        4S          0.02451   0.01227   0.01224   0.00003
 350        5S          0.12194   0.06108   0.06086   0.00022
 351        6S          0.35331   0.17690   0.17641   0.00049
 352        7S          0.51379   0.25726   0.25653   0.00073
 353        8S          0.27721   0.14128   0.13593   0.00535
 354        9S          0.01671   0.00854   0.00816   0.00038
 355       10PX         0.00001   0.00000   0.00000   0.00000
 356       10PY         0.00001   0.00000   0.00000   0.00000
 357       10PZ         0.00003   0.00002   0.00001   0.00001
 358       11PX         0.00008   0.00004   0.00004   0.00000
 359       11PY         0.00008   0.00004   0.00004   0.00000
 360       11PZ         0.00026   0.00018   0.00007   0.00011
 361       12PX         0.00137   0.00068   0.00068   0.00000
 362       12PY         0.00137   0.00068   0.00068   0.00000
 363       12PZ         0.00342   0.00215   0.00127   0.00087
 364       13PX         0.00181   0.00090   0.00090   0.00000
 365       13PY         0.00181   0.00090   0.00090   0.00000
 366       13PZ         0.00251   0.00129   0.00122   0.00008
 367       14PX         0.00010   0.00005   0.00005   0.00000
 368       14PY         0.00010   0.00005   0.00005   0.00000
 369       14PZ         0.00004  -0.00007   0.00011  -0.00017
 370       15D 0        0.00000   0.00000  -0.00000   0.00000
 371       15D+1        0.00000   0.00000   0.00000   0.00000
 372       15D-1        0.00000   0.00000   0.00000   0.00000
 373       15D+2        0.00000   0.00000   0.00000   0.00000
 374       15D-2        0.00000   0.00000   0.00000   0.00000
 375       16D 0        0.00018   0.00014   0.00004   0.00011
 376       16D+1        0.00015   0.00008   0.00008   0.00000
 377       16D-1        0.00015   0.00008   0.00008   0.00000
 378       16D+2        0.00001   0.00000   0.00000  -0.00000
 379       16D-2        0.00000   0.00000   0.00000   0.00000
 380       17D 0        0.00084   0.00052   0.00031   0.00021
 381       17D+1        0.00078   0.00039   0.00039   0.00000
 382       17D-1        0.00078   0.00039   0.00039   0.00000
 383       17D+2        0.00010   0.00005   0.00005   0.00000
 384       17D-2        0.00005   0.00005   0.00000   0.00005
 385       18D 0        0.00068   0.00031   0.00037  -0.00006
 386       18D+1       -0.00021  -0.00010  -0.00010   0.00000
 387       18D-1       -0.00021  -0.00010  -0.00010   0.00000
 388       18D+2        0.00010   0.00005   0.00005  -0.00000
 389       18D-2        0.00005   0.00005   0.00000   0.00005
 390       19F 0        0.00000   0.00000   0.00000   0.00000
 391       19F+1        0.00000   0.00000   0.00000   0.00000
 392       19F-1        0.00000   0.00000   0.00000   0.00000
 393       19F+2       -0.00000  -0.00000  -0.00000  -0.00000
 394       19F-2       -0.00000  -0.00000  -0.00000  -0.00000
 395       19F+3       -0.00000  -0.00000  -0.00000   0.00000
 396       19F-3       -0.00000  -0.00000  -0.00000   0.00000
 397       20F 0        0.00021   0.00015   0.00006   0.00008
 398       20F+1        0.00018   0.00009   0.00009   0.00000
 399       20F-1        0.00018   0.00009   0.00009   0.00000
 400       20F+2        0.00004   0.00002   0.00002   0.00000
 401       20F-2        0.00002   0.00002   0.00000   0.00002
 402       20F+3        0.00000   0.00000   0.00000   0.00000
 403       20F-3        0.00000   0.00000   0.00000   0.00000
 404       21F 0        0.00115   0.00058   0.00057   0.00002
 405       21F+1        0.00008   0.00004   0.00004   0.00000
 406       21F-1        0.00008   0.00004   0.00004   0.00000
 407       21F+2        0.00004   0.00002   0.00002   0.00000
 408       21F-2        0.00005   0.00005   0.00000   0.00005
 409       21F+3       -0.00000  -0.00000  -0.00000   0.00000
 410       21F-3       -0.00000  -0.00000  -0.00000   0.00000
 411       22G 0        0.00000   0.00000   0.00000   0.00000
 412       22G+1        0.00000   0.00000   0.00000   0.00000
 413       22G-1        0.00000   0.00000   0.00000   0.00000
 414       22G+2        0.00000   0.00000   0.00000   0.00000
 415       22G-2        0.00000   0.00000   0.00000   0.00000
 416       22G+3        0.00000   0.00000   0.00000   0.00000
 417       22G-3        0.00000   0.00000   0.00000   0.00000
 418       22G+4       -0.00000  -0.00000  -0.00000   0.00000
 419       22G-4        0.00000   0.00000  -0.00000   0.00000
 420       23G 0        0.00036   0.00020   0.00016   0.00003
 421       23G+1        0.00009   0.00004   0.00004   0.00000
 422       23G-1        0.00009   0.00004   0.00004   0.00000
 423       23G+2        0.00005   0.00002   0.00002   0.00000
 424       23G-2        0.00004   0.00004   0.00000   0.00004
 425       23G+3       -0.00000  -0.00000  -0.00000   0.00000
 426       23G-3       -0.00000  -0.00000  -0.00000   0.00000
 427       23G+4        0.00000  -0.00000   0.00000  -0.00000
 428       23G-4       -0.00000  -0.00000   0.00000  -0.00000
          Condensed to atoms (all electrons):
               1          2
     1  Co  16.288443   0.381555
     2  H    0.381555   0.948448
          Atomic-Atomic Spin Densities.
               1          2
     1  Co   1.984769   0.006520
     2  H    0.006520   0.002190
 Mulliken charges and spin densities:
               1          2
     1  Co   0.330002   1.991290
     2  H   -0.330002   0.008710
 Sum of Mulliken charges =  -0.00000   2.00000
 Mulliken charges and spin densities with hydrogens summed into heavy atoms:
               1          2
     1  Co  -0.000000   2.000000
 Electronic spatial extent (au):  <R**2>=             42.7966
 Charge=             -0.0000 electrons
 Dipole moment (field-independent basis, Debye):
    X=              0.0000    Y=              0.0000    Z=              4.5190  Tot=              4.5190
 Quadrupole moment (field-independent basis, Debye-Ang):
   XX=            -13.8360   YY=            -13.8360   ZZ=            -18.1907
   XY=              0.0000   XZ=              0.0000   YZ=              0.0000
 Traceless Quadrupole moment (field-independent basis, Debye-Ang):
   XX=              1.4516   YY=              1.4516   ZZ=             -2.9031
   XY=              0.0000   XZ=              0.0000   YZ=              0.0000
 Octapole moment (field-independent basis, Debye-Ang**2):
  XXX=              0.0000  YYY=              0.0000  ZZZ=             17.9391  XYY=              0.0000
  XXY=              0.0000  XXZ=              4.3478  XZZ=              0.0000  YZZ=              0.0000
  YYZ=              4.3478  XYZ=              0.0000
 Hexadecapole moment (field-independent basis, Debye-Ang**3):
 XXXX=            -17.1571 YYYY=            -17.1571 ZZZZ=            -57.1684 XXXY=              0.0000
 XXXZ=              0.0000 YYYX=              0.0000 YYYZ=              0.0000 ZZZX=              0.0000
 ZZZY=              0.0000 XXYY=             -5.4528 XXZZ=            -11.9330 YYZZ=            -11.9330
 XXYZ=              0.0000 YYXZ=              0.0000 ZZXY=              0.0000
 N-N= 5.622507866025D+00 E-N=-3.590156467177D+02  KE= 8.652071245787D+01
 Symmetry A1   KE= 3.465685656862D+01
 Symmetry A2   KE= 7.105015242556D+00
 Symmetry B1   KE= 2.237942226324D+01
 Symmetry B2   KE= 2.237941838235D+01
 Symmetry A1   SP= 1.000000000000D+00
 Symmetry A2   SP= 1.000000000000D+00
 Symmetry B1   SP= 0.000000000000D+00
 Symmetry B2   SP= 0.000000000000D+00
 Orbital energies and kinetic energies (alpha):
                                 1                 2
   4         O                -2.922035          4.384936
   5         O                -0.488712          6.858859
   6         O                -0.487359          6.808641
   7         O                -0.440198          6.808639
   8         O                -0.437035          0.530933
   9         O                -0.437035          6.667693
  10         O                -0.327549          7.105015
  11         V                -0.002311          0.112306
  12         V                 0.023181          0.040362
  13         V                 0.023181          0.040362
  14         V                 0.027604          0.029430
  15         V                 0.038942          0.174317
 Total kinetic energy from orbitals= 1.002934202212D+02
                          Isotropic Fermi Contact Couplings
        Atom                 a.u.       MegaHertz       Gauss      10(-4) cm-1
     1  Co(59)             0.00012       0.06296       0.02246       0.02100
     2  H(1)               0.00045       1.00646       0.35913       0.33572
 --------------------------------------------------------
       Center         ----  Spin Dipole Couplings  ----
                      3XX-RR        3YY-RR        3ZZ-RR
 --------------------------------------------------------
     1   Atom       -0.126023     -0.126058      0.252081
     2   Atom       -0.069510     -0.069510      0.139021
 --------------------------------------------------------
                        XY            XZ            YZ
 --------------------------------------------------------
     1   Atom        0.000000      0.000000      0.000000
     2   Atom        0.000000      0.000000      0.000000
 --------------------------------------------------------


 ---------------------------------------------------------------------------------
              Anisotropic Spin Dipole Couplings in Principal Axis System
 ---------------------------------------------------------------------------------

       Atom             a.u.   MegaHertz   Gauss  10(-4) cm-1        Axes

              Baa    -0.1261   -15.919    -5.680    -5.310 -0.0000  1.0000  0.0000
     1 Co(59) Bbb    -0.1260   -15.914    -5.679    -5.308  1.0000  0.0000  0.0000
              Bcc     0.2521    31.833    11.359    10.618  0.0000  0.0000  1.0000
 
              Baa    -0.0695   -37.087   -13.234   -12.371 -0.0000  1.0000  0.0000
     2 H(1)   Bbb    -0.0695   -37.087   -13.234   -12.371  1.0000  0.0000  0.0000
              Bcc     0.1390    74.175    26.467    24.742  0.0000  0.0000  1.0000
 

 ---------------------------------------------------------------------------------

 No NMR shielding tensors so no spin-rotation constants.
 Leave Link  601 at Sat Apr 28 21:07:00 2018, MaxMem= 10737418240 cpu:             419.6 elap:              13.6
 (Enter /home1/apps/gaussian/16rA.03/g16/l9999.exe)

 Test job not archived.
 1\1\GINC-C436-083\SP\ROCCSD(T)-Full\Gen\Co1H1(3)\GWANG18\28-Apr-2018\0
 \\#P ROCCSD(T)=(MaxCyc=150, Full)/Gen SCF=(maxcycle=400, vshift=200) P
 seudo=Read Integral(NoXCTest) Pop=Regular MaxDisk=500GB Guess=Read IOp
 (5/15=2)\\CoH\\0,3\Co,0,0.,0.,0.\H,0,0.,0.,1.6\\Version=ES64L-G16RevA.
 03\HF=-145.4214963\MP2=-146.3528785\MP3=-146.2617628\PUHF=-145.4214963
 \PMP2-0=-146.3528785\MP4SDQ=-146.3239489\CCSD=-146.300811\CCSD(T)=-146
 .3336336\RMSD=8.016e-09\PG=C*V [C*(H1Co1)]\\@


 IF AT FIRST YOU DON'T SUCCEED, TRY, TRY AGAIN.
 THEN GIVE UP;
 THERE'S NO USE BEING A DAMN FOOL ABOUT IT.

                                 -- W. C. FIELDS
 Job cpu time:       2 days 21 hours 28 minutes 49.5 seconds.
 Elapsed time:       0 days  2 hours 11 minutes  3.1 seconds.
 File lengths (MBytes):  RWF=  24672 Int=      0 D2E=      0 Chk=     22 Scr=      1
 Normal termination of Gaussian 16 at Sat Apr 28 21:07:01 2018.
