
 Primary working directories    : /tmp/cmelton
 Secondary working directories  : /tmp/cmelton
 Wavefunction directory         : /remote/cmelton/wfu/
 Main file repository           : /tmp/cmelton/

 SHA1      : 4c1979699e6aeda0524d0210415ba82a958648b0
 NAME      : 2012.1.39
 ARCHNAME  : Linux/x86_64
 FC        : /projects/sems/install/rhel6-x86_64/sems/compiler/intel/16.0.1/base/bin/ifort
 FCVERSION : 16.0.1
 BLASLIB   : -L/projects/sems/install/rhel6-x86_64/sems/compiler/intel/16.0.1/base/compilers_and_libraries_2016.1.150/linux/mkl/lib/intel64 -lmkl_intel_ilp64 -lmkl_sequential -lmkl_core
 id        : sandiacon

 Nodes           nprocs
 breve.sandia.gov    1

 Using customized tuning parameters: mindgm=7; mindgv=16; mindgc=1; mindgr=1; noblas=0; minvec=7
 default implementation of scratch files=df  

 ***,Calculation for Be atom, singlet and triplet
 memory,512,m
 geometry={
 1
 Cu
 Cu  0.0 0.0 0.0
 }
 
 basis={
 Including file /remote/cmelton/data/corrECP/Cu/ae/nr/basis/aug-cc-pwCVQZ-dk.basis
 }
 
 Including file /remote/cmelton/data/corrECP/Cu/ae/nr/basis/states.proc
 
 do i=1,16
     if (i.eq.1) then
         Is2d9
     else if (i.eq.2) then
         Is1dten
     else if (i.eq.3) then
         IIs1d9
     else if (i.eq.4) then
         IIdten
     else if (i.eq.5) then
         IIId9
     else if (i.eq.6) then
         IVd8
     else if (i.eq.7) then
         Vd7
     else if (i.eq.8) then
         VId6
     else if (i.eq.9) then
         VIId5
     else if (i.eq.10) then
         VIIId4
     else if (i.eq.11) then
         IXd3
     else if (i.eq.12) then
         Xd2
     else if (i.eq.13) then
         XId1
     else if (i.eq.14) then
         XII
     else if (i.eq.15) then
         XVIII
     else if (i.eq.16) then
         As2dten
     endif
     scf(i)=energy
     _CC_NORM_MAX=2.0
     {rccsd(t),maxit=100;core}
     ccsd(i)=energy
 enddo
 
 table,scf,ccsd
 save
 type,csv

 Variables initialized (782), CPU time= 0.01 sec
 Commands  initialized (547), CPU time= 0.02 sec, 517 directives.
 Default parameters read. Elapsed time= 0.21 sec

 Checking input...
 Passed
1


                                         ***  PROGRAM SYSTEM MOLPRO  ***
                         Copyright, University College Cardiff Consultants Limited, 2008

                                    Version 2012.1 linked Aug  2 2016 14:07:26


 **********************************************************************************************************************************
 LABEL *   Calculation for Be atom, singlet and triplet                                  
 Linux-3.10.0-693.11.6.el7.x86_64/breve.sandia.gov(x86_64) 64 bit serial version         DATE: 18-Jan-18          TIME: 15:14:22  
 **********************************************************************************************************************************

 SHA1:             4c1979699e6aeda0524d0210415ba82a958648b0
 **********************************************************************************************************************************

Geometry recognized as XYZ


 Variable memory set to  512000000 words,  buffer space   230000 words

 SETTING BASIS          =    USERDEF

 DO I                   =         1.00000000   

 Running procedure=IS2D9


 Recomputing integrals since basis changed


 Using spherical harmonics


1PROGRAM * SEWARD (Integral evaluation for generally contracted gaussian basis sets)     Author: Roland Lindh, 1990

 Geometry written to block  1 of record 700

 Orientation using atomic masses  
 Molecule type: Atom
 Symmetry elements: X,Y,Z
 Rotational constants:       0.0000000      0.0000000      0.0000000 GHz  (calculated with average atomic masses)

 Point group  D2h 



 ATOMIC COORDINATES

 NR  ATOM    CHARGE       X              Y              Z

   1  CU     29.00    0.000000000    0.000000000    0.000000000

 NUCLEAR CHARGE:                   29
 NUMBER OF PRIMITIVE AOS:         345
 NUMBER OF SYMMETRY AOS:          262
 NUMBER OF CONTRACTIONS:          262   (  65Ag  +  40B3u +  40B2u +  22B1g +  40B1u +  22B2g +  22B3g +  11Au  )
 NUMBER OF CORE ORBITALS:           9   (   3Ag  +   2B3u +   2B2u +   0B1g +   2B1u +   0B2g +   0B3g +   0Au  )
 NUMBER OF VALENCE ORBITALS:        6   (   3Ag  +   0B3u +   0B2u +   1B1g +   0B1u +   1B2g +   1B3g +   0Au  )


 NUCLEAR REPULSION ENERGY    0.00000000

 EXTRA SYMMETRY OF AOS IN SYMMETRY 1:   1 1 1 1 1 1 1 1 1 1   1 1 1 1 1 1 1 1 1 1   1 1 1 1 1 2 3 2 3 2   3 2 3 2 3 2 3 2 3 2
                                        3 2 3 2 3 2 3 2 3 2   3 2 3 4 5 6 4 5 6 4   5 6 4 5 6
 EXTRA SYMMETRY OF AOS IN SYMMETRY 2:   1 1 1 1 1 1 1 1 1 1   1 1 1 1 1 1 1 1 1 1   1 2 3 2 3 2 3 2 3 2   3 4 5 6 4 5 6 4 5 6
 EXTRA SYMMETRY OF AOS IN SYMMETRY 3:   1 1 1 1 1 1 1 1 1 1   1 1 1 1 1 1 1 1 1 1   1 2 3 2 3 2 3 2 3 2   3 4 5 6 4 5 6 4 5 6
 EXTRA SYMMETRY OF AOS IN SYMMETRY 4:   1 1 1 1 1 1 1 1 1 1   1 1 1 1 2 3 2 3 2 3   2 3
 EXTRA SYMMETRY OF AOS IN SYMMETRY 5:   1 1 1 1 1 1 1 1 1 1   1 1 1 1 1 1 1 1 1 1   1 2 3 2 3 2 3 2 3 2   3 4 5 6 4 5 6 4 5 6
 EXTRA SYMMETRY OF AOS IN SYMMETRY 6:   1 1 1 1 1 1 1 1 1 1   1 1 1 1 2 3 2 3 2 3   2 3
 EXTRA SYMMETRY OF AOS IN SYMMETRY 7:   1 1 1 1 1 1 1 1 1 1   1 1 1 1 2 3 2 3 2 3   2 3
 EXTRA SYMMETRY OF AOS IN SYMMETRY 8:   1 1 1 1 1 2 3 2 3 2   3

 Eigenvalues of metric

         1 0.588E-06 0.493E-05 0.172E-04 0.172E-04 0.281E-03 0.642E-03 0.642E-03 0.829E-03
         2 0.159E-05 0.156E-04 0.463E-03 0.199E-02 0.534E-02 0.128E-01 0.239E-01 0.425E-01
         3 0.159E-05 0.156E-04 0.463E-03 0.199E-02 0.534E-02 0.128E-01 0.239E-01 0.425E-01
         4 0.172E-04 0.642E-03 0.776E-02 0.281E-01 0.629E-01 0.127E+00 0.153E+00 0.153E+00
         5 0.159E-05 0.156E-04 0.463E-03 0.199E-02 0.534E-02 0.128E-01 0.239E-01 0.425E-01
         6 0.172E-04 0.642E-03 0.776E-02 0.281E-01 0.629E-01 0.127E+00 0.153E+00 0.153E+00
         7 0.172E-04 0.642E-03 0.776E-02 0.281E-01 0.629E-01 0.127E+00 0.153E+00 0.153E+00
         8 0.113E+00 0.245E+00 0.245E+00 0.349E+00 0.779E+00 0.869E+00 0.869E+00 0.149E+01


 Contracted 2-electron integrals neglected if value below      1.0D-13
 AO integral compression algorithm  1   Integral accuracy      1.0D-13

     476.054 MB (compressed) written to integral file ( 48.9%)


 NUMBER OF SORTED TWO-ELECTRON INTEGRALS:   76744857.     BUFFER LENGTH:  32768
 NUMBER OF SEGMENTS:   5  SEGMENT LENGTH:   15998535      RECORD LENGTH: 524288

 Memory used in sort:      16.56 MW

 SORT1 READ   121794176. AND WROTE    46577346. INTEGRALS IN    135 RECORDS. CPU TIME:     6.07 SEC, REAL TIME:     6.87 SEC
 SORT2 READ    46577346. AND WROTE    76744857. INTEGRALS IN   1816 RECORDS. CPU TIME:     2.13 SEC, REAL TIME:     2.67 SEC

 FILE SIZES:   FILE 1:   485.2 MBYTE,  FILE 4:   566.3 MBYTE,   TOTAL:   1051.4 MBYTE

 OPERATOR DM      FOR CENTER  0  COORDINATES:    0.000000    0.000000    0.000000


 **********************************************************************************************************************************
 DATASETS  * FILE   NREC   LENGTH (MB)   RECORD NAMES
              1      19      279.00       500      610      700      900      950      970     1000      129      960     1100   
                                          VAR    BASINP    GEOM    SYMINP    ZMAT    AOBASIS   BASIS     P2S    ABASIS      S 
                                         1400     1410     1200     1210     1080     1600     1650     1300     1700   
                                           T        V       H0       H01     AOSYM     SMH    MOLCAS    ERIS     OPER   

 PROGRAMS   *        TOTAL       INT
 CPU TIMES  *        58.85     58.44
 REAL TIME  *        64.77 SEC
 DISK USED  *         1.05 GB      
 **********************************************************************************************************************************

1PROGRAM * RHF-SCF (OPEN SHELL)       Authors: W. Meyer, H.-J. Werner


 NUMBER OF ELECTRONS:      15+   14-    SPACE SYMMETRY=4    SPIN SYMMETRY: Doublet 
 CONVERGENCE THRESHOLDS:    1.00E-05 (Density)    1.00E-07 (Energy)
 MAX. NUMBER OF ITERATIONS:       60
 INTERPOLATION TYPE:            DIIS
 INTERPOLATION STEPS:              2 (START)      1 (STEP)
 LEVEL SHIFTS:                 -0.30 (CLOSED)  0.00 (OPEN) 


 Singly occupied orbitals:      1.4
 
 Extra symmetries of mos in symmetry 1:   1   1   1   1   3   2
 Orbital guess generated from atomic densities. Full valence occupancy:    6   2   2   1   2   1   1   0


 Molecular orbital dump at record        4202.2

 ITERATION    DDIFF          GRAD             ENERGY        2-EL.EN.            DIPOLE MOMENTS         DIIS   ORB.
    1      0.000D+00      0.000D+00     -1638.47882675   1239.718000    0.00000    0.00000    0.00000    0    start
    2      0.000D+00      0.462D-01     -1638.67403517   1319.641405    0.00000    0.00000    0.00000    1    diag,B
    3      0.399D-01      0.470D-01     -1638.94392877   1290.461994    0.00000    0.00000    0.00000    2    diag,B
    4      0.234D-01      0.536D-02     -1638.95125482   1287.754509    0.00000    0.00000    0.00000    3    diag,B
    5      0.748D-02      0.777D-03     -1638.95281293   1288.151324    0.00000    0.00000    0.00000    4    diag,B
    6      0.243D-02      0.353D-03     -1638.95339093   1288.524895    0.00000    0.00000    0.00000    5    diag,B
    7      0.146D-02      0.126D-03     -1638.95346357   1288.663931    0.00000    0.00000    0.00000    6    fixocc
    8      0.914D-03      0.233D-04     -1638.95346571   1288.673318    0.00000    0.00000    0.00000    7    diag,B
    9      0.126D-03      0.708D-05     -1638.95346590   1288.672032    0.00000    0.00000    0.00000    8    diag,B
   10      0.109D-03      0.176D-05     -1638.95346591   1288.671677    0.00000    0.00000    0.00000    9    orth
   11      0.237D-04      0.370D-06     -1638.95346591   1288.671653    0.00000    0.00000    0.00000    9    diag,B
   12      0.249D-05      0.599D-07     -1638.95346591   1288.671658    0.00000    0.00000    0.00000    0    orth

 Final alpha occupancy:   6   2   2   1   2   1   1   0
 Final beta  occupancy:   6   2   2   0   2   1   1   0

 !RHF STATE 1.4 Energy              -1638.953465911806
 Nuclear energy                         0.00000000
 One-electron energy                -2283.28929492
 Two-electron energy                  644.33582901
 Virial quotient                       -1.00000005
 !RHF STATE 1.4 Dipole moment           0.00000000     0.00000000     0.00000000
 Dipole moment /Debye                   0.00000000     0.00000000     0.00000000

 ELECTRON ORBITALS
 =================


   Orb  Occ    Energy  Couls-En    Coefficients

                                   1 1s      1 1s      1 1s      1 1s      1 1s      1 1s      1 1s      1 1s      1 1s      1 1s   
                                   1 1s      1 1s      1 1s      1 1s      1 1s      1 1s      1 1s      1 1s      1 1s      1 1s   
                                   1 1s      1 1s      1 1s      1 1s      1 1s      1 3d0     1 3d2+    1 3d0     1 3d2+    1 3d0  
                                   1 3d2+    1 3d0     1 3d2+    1 3d0     1 3d2+    1 3d0     1 3d2+    1 3d0     1 3d2+    1 3d0  
                                   1 3d2+    1 3d0     1 3d2+    1 3d0     1 3d2+    1 3d0     1 3d2+    1 3d0     1 3d2+    1 3d0  
                                   1 3d2+    1 3d0     1 3d2+    1 5g0     1 5g4+    1 5g2+    1 5g0     1 5g4+    1 5g2+    1 5g0  
                                   1 5g4+    1 5g2+    1 5g0     1 5g4+    1 5g2+ 

   1.1   2  -329.0344 -749.3839  0.000002  0.000016  0.000086  0.000364  0.001327  0.004319  0.012799  0.034625  0.084282  0.177034
                                 0.294743  0.328655  0.183473  0.028966 -0.002723  0.009969  0.001059  0.002013 -0.000053  0.000007
                                -0.000006  0.000003 -0.009063 -0.002393 -0.000001 -0.000000 -0.000000 -0.000003  0.000000 -0.000007
                                -0.000000 -0.000000  0.000000 -0.000002 -0.000000 -0.000006  0.000000 -0.000001  0.000000  0.000000
                                -0.000000 -0.000000  0.000000  0.000000 -0.000000 -0.000000  0.000000  0.000005  0.000000  0.000004
                                -0.000000  0.000000  0.000000 -0.000000  0.000001 -0.000000  0.000000 -0.000000  0.000000 -0.000000
                                 0.000000 -0.000000  0.000000 -0.000000  0.000000

   2.1   2   -41.0848 -144.3128 -0.000001 -0.000005 -0.000027 -0.000112 -0.000409 -0.001336 -0.003984 -0.010988 -0.027740 -0.063268
                                -0.122997 -0.185092 -0.134125  0.200204  0.560756  0.380775  0.056435  0.024434  0.000156  0.000061
                                -0.000036  0.000017 -0.011314 -0.026827 -0.000005 -0.000000  0.000000 -0.000003  0.000000 -0.000018
                                 0.000000 -0.000150  0.000000 -0.000407  0.000000 -0.000318  0.000000 -0.000017  0.000000  0.000022
                                 0.000000 -0.000000  0.000000  0.000002  0.000000 -0.000000  0.000000  0.000173  0.000000  0.000174
                                 0.000000  0.000000  0.000000 -0.000006  0.000037 -0.000000 -0.000014  0.000081 -0.000000 -0.000002
                                 0.000013 -0.000000 -0.000001  0.000004 -0.000000

   3.1   2    -5.2608  -45.4417  0.000000  0.000002  0.000010  0.000042  0.000154  0.000503  0.001500  0.004154  0.010512  0.024277
                                 0.047989  0.075516  0.057648 -0.099301 -0.388690 -0.376009  0.292268  0.671870  0.309265  0.010671
                                -0.004988  0.002148  0.020967  0.026126 -0.000584 -0.000001 -0.000000 -0.000011 -0.000000 -0.000061
                                -0.000000 -0.000147 -0.000000 -0.000399 -0.000000 -0.001914 -0.000000 -0.003230 -0.000000 -0.001628
                                -0.000000  0.000070 -0.000000  0.000038 -0.000000  0.000004 -0.000000  0.000147  0.000000  0.000254
                                 0.000000 -0.000001  0.000000 -0.000023  0.000146 -0.000000 -0.000016  0.000132  0.000000 -0.000084
                                 0.000529  0.000000 -0.000040  0.000234  0.000000

   4.1   2    -0.2849  -11.7907 -0.000000 -0.000000 -0.000002 -0.000009 -0.000031 -0.000103 -0.000306 -0.000847 -0.002145 -0.004960
                                -0.009830 -0.015547 -0.011969  0.020997  0.085772  0.090114 -0.078710 -0.238574 -0.200208  0.320901
                                 0.587395  0.246181 -0.009309  0.015719  0.001703  0.000001 -0.000000  0.000011 -0.000000  0.000059
                                -0.000000  0.000196 -0.000000  0.000515 -0.000000  0.001239 -0.000000  0.001872 -0.000000  0.001169
                                -0.000000 -0.001917 -0.000000 -0.005462 -0.000000 -0.004634 -0.000000 -0.000022 -0.000000 -0.000051
                                -0.000000 -0.001026  0.000000 -0.000001 -0.000007  0.000000 -0.000018  0.000086  0.000000 -0.000013
                                 0.000056  0.000000  0.000067 -0.000248  0.000000

   5.1   2    -0.7692  -32.9773 -0.000000  0.000000 -0.000000 -0.000000 -0.000000 -0.000000 -0.000000 -0.000000 -0.000000 -0.000000
                                -0.000000 -0.000000 -0.000000  0.000000  0.000000  0.000000 -0.000000 -0.000000 -0.000000  0.000000
                                 0.000000  0.000000  0.000000  0.000000  0.000000  0.000000  0.000239  0.000000  0.002328  0.000000
                                 0.012722  0.000000  0.045675  0.000000  0.119702  0.000000  0.223913  0.000000  0.300643  0.000000
                                 0.304894  0.000000  0.230151  0.000000  0.106694  0.000000  0.016891  0.000000  0.000738  0.000000
                                 0.000963 -0.000000 -0.000303 -0.000000 -0.000000 -0.000241 -0.000000 -0.000000 -0.000655 -0.000000
                                -0.000000 -0.001050 -0.000000 -0.000000 -0.000735

   6.1   2    -0.7063  -32.6604  0.000000  0.000000  0.000000  0.000000  0.000001  0.000002  0.000007  0.000018  0.000046  0.000106
                                 0.000213  0.000331  0.000266 -0.000482 -0.001696 -0.003283  0.000405 -0.004422  0.002645  0.001391
                                -0.000236  0.000198  0.001960  0.007392 -0.000059  0.000237 -0.000000  0.002307 -0.000000  0.012607
                                -0.000000  0.045271 -0.000000  0.118574 -0.000000  0.221409 -0.000000  0.297141 -0.000000  0.302749
                                -0.000000  0.233602 -0.000000  0.115642 -0.000000  0.021224 -0.000000  0.000761 -0.000000  0.001050
                                -0.000000 -0.000327  0.000000 -0.000358 -0.000073  0.000000 -0.000989 -0.000128  0.000000 -0.001586
                                -0.000272  0.000000 -0.001143 -0.000342  0.000000

   7.1   0     0.0315   -3.3479  0.000000  0.000000  0.000000  0.000002  0.000007  0.000022  0.000072  0.000176  0.000521  0.000993
                                 0.002516  0.002682  0.004570 -0.010664  0.003900 -0.369528 -0.184353 -1.421467  0.191546 -0.357836
                                 0.706550 -2.174142  0.409782  1.498039  2.275753 -0.000000 -0.000000 -0.000004 -0.000000 -0.000020
                                -0.000000 -0.000072 -0.000000 -0.000148 -0.000000 -0.000142 -0.000000 -0.000460 -0.000000 -0.000411
                                -0.000000  0.000749 -0.000000  0.001379  0.000000  0.001495 -0.000000 -0.000136  0.000000 -0.000273
                                 0.000000 -0.000449  0.000000  0.000003 -0.000014  0.000000  0.000009 -0.000045  0.000000 -0.000008
                                 0.000049  0.000000 -0.000047  0.000231  0.000000

   8.1   0     0.1344   -4.4867 -0.000000 -0.000000 -0.000000 -0.000000 -0.000000 -0.000000 -0.000000 -0.000000 -0.000000 -0.000000
                                -0.000000 -0.000000 -0.000000  0.000000  0.000000 -0.000000 -0.000000 -0.000000  0.000000 -0.000000
                                 0.000000 -0.000000  0.000000  0.000000 -0.000000 -0.000000 -0.000021 -0.000000 -0.000058 -0.000000
                                -0.001016 -0.000000 -0.000476 -0.000000 -0.026286 -0.000000 -0.186468 -0.000000 -0.121099  0.000000
                                 0.048701 -0.000000 -0.098864  0.000000  0.169869 -0.000000 -0.384434  0.000000  0.085089  0.000000
                                 0.182809  0.000000  1.210999  0.000000 -0.000000  0.000017  0.000000 -0.000000  0.000028  0.000000
                                -0.000000  0.000088 -0.000000  0.000000 -0.000118

                                   1 2px     1 2px     1 2px     1 2px     1 2px     1 2px     1 2px     1 2px     1 2px     1 2px  
                                   1 2px     1 2px     1 2px     1 2px     1 2px     1 2px     1 2px     1 2px     1 2px     1 2px  
                                   1 2px     1 4f1+    1 4f3+    1 4f1+    1 4f3+    1 4f1+    1 4f3+    1 4f1+    1 4f3+    1 4f1+ 
                                   1 4f3+    1 6h1+    1 6h3+    1 6h5+    1 6h1+    1 6h3+    1 6h5+    1 6h1+    1 6h3+    1 6h5+ 


   1.2   2   -35.8858 -138.4524  0.000011  0.000097  0.000568  0.002582  0.009715  0.030840  0.082294  0.177196  0.291363  0.329070
                                 0.205063  0.055256  0.006576  0.000685  0.000213  0.000027 -0.000005  0.000002  0.001455 -0.002384
                                -0.000001 -0.000224  0.000176  0.000103  0.000220 -0.000007  0.000130  0.000023  0.000025 -0.000005
                                 0.000002  0.000003  0.000003 -0.000019 -0.000004 -0.000004  0.000027  0.000001  0.000001 -0.000005

   2.2   2    -3.5611  -41.6517 -0.000004 -0.000036 -0.000211 -0.000963 -0.003642 -0.011723 -0.032038 -0.071649 -0.123202 -0.146625
                                -0.045311  0.212798  0.422242  0.369050  0.153477  0.013530 -0.001406  0.000784  0.002205 -0.011686
                                -0.000233  0.000009  0.000574 -0.000848  0.001289 -0.001067  0.002770 -0.000001  0.002007  0.000090
                                 0.000114  0.000010  0.000010 -0.000072  0.000026  0.000025 -0.000179 -0.000004 -0.000008  0.000032

   3.2   0     0.0226   -4.0980  0.000000  0.000002  0.000011  0.000044  0.000192  0.000529  0.001722  0.003075  0.007717 -0.001302
                                -0.056851  0.034732  0.135505 -0.064319  0.024458  0.002618  0.245762 -0.182457  0.050719 -0.167436
                                 1.035006  0.000009  0.000005  0.000104  0.000060  0.000060  0.000040 -0.000333 -0.000165 -0.001349
                                -0.000301 -0.000002 -0.000002  0.000012 -0.000006 -0.000006  0.000040  0.000014  0.000015 -0.000090

   4.2   0     0.0721   -5.7237 -0.000000 -0.000004 -0.000018 -0.000100 -0.000304 -0.001230 -0.002612 -0.008056 -0.007230 -0.037935
                                -0.166636  0.153866  0.485856 -0.064169  0.099762 -0.240569  0.134212 -1.541862  0.141258 -0.463350
                                 1.226280 -0.000018 -0.000009 -0.000196 -0.000114 -0.000118 -0.000076  0.000685  0.000332  0.002536
                                 0.000586  0.000003  0.000004 -0.000023  0.000012  0.000012 -0.000077 -0.000028 -0.000028  0.000175

                                   1 2py     1 2py     1 2py     1 2py     1 2py     1 2py     1 2py     1 2py     1 2py     1 2py  
                                   1 2py     1 2py     1 2py     1 2py     1 2py     1 2py     1 2py     1 2py     1 2py     1 2py  
                                   1 2py     1 4f1-    1 4f3-    1 4f1-    1 4f3-    1 4f1-    1 4f3-    1 4f1-    1 4f3-    1 4f1- 
                                   1 4f3-    1 6h1-    1 6h3-    1 6h5-    1 6h1-    1 6h3-    1 6h5-    1 6h1-    1 6h3-    1 6h5- 


   1.3   2   -35.8858 -138.4524  0.000011  0.000097  0.000568  0.002582  0.009715  0.030840  0.082294  0.177196  0.291363  0.329070
                                 0.205063  0.055256  0.006576  0.000685  0.000213  0.000027 -0.000005  0.000002  0.001455 -0.002384
                                -0.000001 -0.000224 -0.000176  0.000103 -0.000220 -0.000007 -0.000130  0.000023 -0.000025 -0.000005
                                -0.000002  0.000003 -0.000003 -0.000019 -0.000004  0.000004  0.000027  0.000001 -0.000001 -0.000005

   2.3   2    -3.5611  -41.6517 -0.000004 -0.000036 -0.000211 -0.000963 -0.003642 -0.011723 -0.032038 -0.071649 -0.123202 -0.146625
                                -0.045311  0.212798  0.422242  0.369050  0.153477  0.013530 -0.001406  0.000784  0.002205 -0.011686
                                -0.000233  0.000009 -0.000574 -0.000848 -0.001289 -0.001067 -0.002770 -0.000001 -0.002007  0.000090
                                -0.000114  0.000010 -0.000010 -0.000072  0.000026 -0.000025 -0.000179 -0.000004  0.000008  0.000032

   3.3   0     0.0226   -4.0980  0.000000  0.000002  0.000011  0.000044  0.000192  0.000529  0.001722  0.003075  0.007717 -0.001302
                                -0.056851  0.034732  0.135505 -0.064319  0.024458  0.002618  0.245762 -0.182457  0.050719 -0.167436
                                 1.035006  0.000009 -0.000005  0.000104 -0.000060  0.000060 -0.000040 -0.000333  0.000165 -0.001349
                                 0.000301 -0.000002  0.000002  0.000012 -0.000006  0.000006  0.000040  0.000014 -0.000015 -0.000090

   4.3   0     0.0721   -5.7237 -0.000000 -0.000004 -0.000018 -0.000100 -0.000304 -0.001230 -0.002612 -0.008056 -0.007230 -0.037935
                                -0.166636  0.153866  0.485856 -0.064169  0.099762 -0.240569  0.134212 -1.541862  0.141258 -0.463350
                                 1.226280 -0.000018  0.000009 -0.000196  0.000114 -0.000118  0.000076  0.000685 -0.000332  0.002536
                                -0.000586  0.000003 -0.000004 -0.000023  0.000012 -0.000012 -0.000077 -0.000028  0.000028  0.000175

                                   1 3d2-    1 3d2-    1 3d2-    1 3d2-    1 3d2-    1 3d2-    1 3d2-    1 3d2-    1 3d2-    1 3d2- 
                                   1 3d2-    1 3d2-    1 3d2-    1 3d2-    1 5g2-    1 5g4-    1 5g2-    1 5g4-    1 5g2-    1 5g4- 
                                   1 5g2-    1 5g4- 

   1.4   +    -0.8309  -33.3015  0.000241  0.002349  0.012838  0.046070  0.120753  0.226456  0.304648  0.307142  0.225491  0.097432
                                 0.013284  0.000713  0.000951 -0.000236 -0.000442 -0.000000 -0.001288 -0.000000 -0.001897  0.000000
                                -0.001063  0.000000

   2.4   0     0.1341   -4.4871 -0.000020 -0.000051 -0.000978 -0.000351 -0.025883 -0.185337 -0.119981  0.049446 -0.097543  0.170722
                                -0.381609  0.084841  0.182285  1.209303  0.000025 -0.000000  0.000047  0.000000  0.000120 -0.000000
                                -0.000165  0.000000

   3.4   0     0.4162   -7.0386 -0.000021 -0.000608 -0.001372 -0.013803  0.033808  0.449339  0.243481 -0.237470  0.226257 -0.488399
                                 1.740526 -0.238856 -0.514964 -0.920400  0.000095 -0.000000  0.000168  0.000000  0.000433 -0.000000
                                -0.000836  0.000000

                                   1 2pz     1 2pz     1 2pz     1 2pz     1 2pz     1 2pz     1 2pz     1 2pz     1 2pz     1 2pz  
                                   1 2pz     1 2pz     1 2pz     1 2pz     1 2pz     1 2pz     1 2pz     1 2pz     1 2pz     1 2pz  
                                   1 2pz     1 4f0     1 4f2+    1 4f0     1 4f2+    1 4f0     1 4f2+    1 4f0     1 4f2+    1 4f0  
                                   1 4f2+    1 6h2+    1 6h4+    1 6h0     1 6h2+    1 6h4+    1 6h0     1 6h2+    1 6h4+    1 6h0  


   1.5   2   -35.8658 -138.4323  0.000011  0.000097  0.000568  0.002582  0.009716  0.030844  0.082308  0.177232  0.291423  0.329001
                                 0.204897  0.055330  0.006746  0.000781  0.000254  0.000036 -0.000005  0.000002  0.001399 -0.002335
                                -0.000001 -0.000331 -0.000000  0.000056  0.000000 -0.000050 -0.000000  0.000020  0.000000 -0.000006
                                 0.000000  0.000000 -0.000012  0.000003 -0.000000  0.000017 -0.000005  0.000000 -0.000003  0.000001

   2.5   2    -3.5492  -41.6097 -0.000004 -0.000036 -0.000211 -0.000963 -0.003641 -0.011723 -0.032035 -0.071656 -0.123189 -0.146647
                                -0.045735  0.213217  0.422567  0.367730  0.156231  0.014607 -0.001527  0.000849  0.002888 -0.013829
                                -0.000254 -0.000171 -0.000000 -0.001442 -0.000000 -0.002182  0.000000 -0.000641  0.000000  0.000075
                                 0.000000  0.000000 -0.000046  0.000014 -0.000000 -0.000114  0.000035 -0.000000  0.000019 -0.000003

   3.5   0     0.0237   -3.9248  0.000000  0.000001  0.000010  0.000038  0.000173  0.000463  0.001555  0.002659  0.007127 -0.002577
                                -0.060189  0.038603  0.146516 -0.063454  0.025986 -0.008638  0.238307 -0.222074  0.053425 -0.176090
                                 1.072621  0.000009  0.000000  0.000097  0.000000  0.000055  0.000000 -0.000300  0.000000 -0.001416
                                 0.000000  0.000000  0.000007 -0.000002 -0.000000  0.000023 -0.000007 -0.000000 -0.000050  0.000016

   4.5   0     0.0755   -5.7162 -0.000000 -0.000004 -0.000017 -0.000097 -0.000291 -0.001196 -0.002488 -0.007865 -0.006638 -0.038356
                                -0.172848  0.158049  0.501342 -0.070727  0.104521 -0.236189  0.160665 -1.580729  0.146772 -0.481724
                                 1.205822 -0.000018  0.000000 -0.000197  0.000000 -0.000120  0.000000  0.000677 -0.000000  0.002880
                                 0.000000 -0.000000 -0.000014  0.000004  0.000000 -0.000047  0.000014 -0.000000  0.000105 -0.000033

                                   1 3d1+    1 3d1+    1 3d1+    1 3d1+    1 3d1+    1 3d1+    1 3d1+    1 3d1+    1 3d1+    1 3d1+ 
                                   1 3d1+    1 3d1+    1 3d1+    1 3d1+    1 5g1+    1 5g3+    1 5g1+    1 5g3+    1 5g1+    1 5g3+ 
                                   1 5g1+    1 5g3+ 

   1.6   2    -0.7221  -32.7427  0.000237  0.002312  0.012637  0.045377  0.118869  0.222067  0.298057  0.303318  0.232752  0.113316
                                 0.020033  0.000752  0.001022 -0.000327 -0.000322  0.000045 -0.000893  0.000079 -0.001425  0.000169
                                -0.001002  0.000211

   2.6   0     0.1349   -4.4831 -0.000021 -0.000062 -0.001043 -0.000557 -0.026621 -0.187772 -0.122196  0.048372 -0.100011  0.169544
                                -0.388629  0.085518  0.183719  1.213388  0.000029  0.000008  0.000050  0.000021  0.000141  0.000035
                                -0.000171 -0.000034

   3.6   0     0.4215   -7.0865 -0.000024 -0.000638 -0.001499 -0.014421  0.033440  0.455536  0.245501 -0.244530  0.225389 -0.508237
                                 1.752905 -0.243070 -0.524008 -0.918975  0.000105  0.000031  0.000171  0.000073  0.000505  0.000121
                                -0.000896 -0.000191

                                   1 3d1-    1 3d1-    1 3d1-    1 3d1-    1 3d1-    1 3d1-    1 3d1-    1 3d1-    1 3d1-    1 3d1- 
                                   1 3d1-    1 3d1-    1 3d1-    1 3d1-    1 5g1-    1 5g3-    1 5g1-    1 5g3-    1 5g1-    1 5g3- 
                                   1 5g1-    1 5g3- 

   1.7   2    -0.7221  -32.7427  0.000237  0.002312  0.012637  0.045377  0.118869  0.222067  0.298057  0.303318  0.232752  0.113316
                                 0.020033  0.000752  0.001022 -0.000327 -0.000322 -0.000045 -0.000893 -0.000079 -0.001425 -0.000169
                                -0.001002 -0.000211

   2.7   0     0.1349   -4.4831 -0.000021 -0.000062 -0.001043 -0.000557 -0.026621 -0.187772 -0.122196  0.048372 -0.100011  0.169544
                                -0.388629  0.085518  0.183719  1.213388  0.000029 -0.000008  0.000050 -0.000021  0.000141 -0.000035
                                -0.000171  0.000034

   3.7   0     0.4215   -7.0865 -0.000024 -0.000638 -0.001499 -0.014421  0.033440  0.455536  0.245501 -0.244530  0.225389 -0.508237
                                 1.752905 -0.243070 -0.524008 -0.918975  0.000105 -0.000031  0.000171 -0.000073  0.000505 -0.000121
                                -0.000896  0.000191

                                   1 4f2-    1 4f2-    1 4f2-    1 4f2-    1 4f2-    1 6h4-    1 6h2-    1 6h4-    1 6h2-    1 6h4- 
                                   1 6h2- 

   1.8   0     0.9380   -8.1582  0.004398 -0.012417  0.052639 -0.125424  1.058574  0.000000 -0.000035 -0.000000  0.000087  0.000000
                                -0.000566

   2.8   0     2.7945  -11.3957 -0.006502  0.074607 -0.073449  1.218525 -0.574492  0.000000 -0.000180 -0.000000  0.000248  0.000000
                                -0.003444

 HOMO      6.1    -0.706285 =     -19.2190eV
 LUMO      3.2     0.022589 =       0.6147eV
 LUMO-HOMO         0.728875 =      19.8337eV


 **********************************************************************************************************************************
 DATASETS  * FILE   NREC   LENGTH (MB)   RECORD NAMES
              1      19      279.00       500      610      700      900      950      970     1000      129      960     1100   
                                          VAR    BASINP    GEOM    SYMINP    ZMAT    AOBASIS   BASIS     P2S    ABASIS      S 
                                         1400     1410     1200     1210     1080     1600     1650     1300     1700   
                                           T        V       H0       H01     AOSYM     SMH    MOLCAS    ERIS     OPER   

              2       5        5.68       200      700     1000      520     4202   
                                        OPTIONS   GEOM     BASIS   MCVARS     RHF  

 PROGRAMS   *        TOTAL       RHF       INT
 CPU TIMES  *        63.12      4.27     58.44
 REAL TIME  *        69.63 SEC
 DISK USED  *         1.05 GB      
 **********************************************************************************************************************************

1PROGRAM * POP (Mulliken population analysis)

 
 Density matrix read from record         4202.2  Type=RHF/CHARGE (state 1.4)
 
 Population analysis by basis function type

 Unique atom        s        p        d        f        g    Total    Charge
   1  CU      7.99975 11.99985  9.00018  0.00015  0.00008 29.00000  + 0.00000


 **********************************************************************************************************************************
 DATASETS  * FILE   NREC   LENGTH (MB)   RECORD NAMES
              1      19      279.00       500      610      700      900      950      970     1000      129      960     1100   
                                          VAR    BASINP    GEOM    SYMINP    ZMAT    AOBASIS   BASIS     P2S    ABASIS      S 
                                         1400     1410     1200     1210     1080     1600     1650     1300     1700   
                                           T        V       H0       H01     AOSYM     SMH    MOLCAS    ERIS     OPER   

              2       5        5.68       200      700     1000      520     4202   
                                        OPTIONS   GEOM     BASIS   MCVARS     RHF  

 PROGRAMS   *        TOTAL       POP       RHF       INT
 CPU TIMES  *        63.13      0.00      4.27     58.44
 REAL TIME  *        69.64 SEC
 DISK USED  *         1.05 GB      
 **********************************************************************************************************************************

1PROGRAM * MULTI (Direct Multiconfiguration SCF)       Authors: P.J. Knowles, H.-J. Werner (1984)     S.T. Elbert (1988)


 Number of closed-shell orbitals:  10 (   4   2   2   0   2   0   0   0 )
 Number of active  orbitals:        5 (   2   0   0   1   0   1   1   0 )
 Number of external orbitals:     247 (  59  38  38  21  38  21  21  11 )

 State symmetry 1

 Number of electrons:     9    Spin symmetry=Doublet   Space symmetry=1
 Number of states:        2
 Number of CSFs:          2   (2 determinants, 5 intermediate states)

 State symmetry 2

 Number of electrons:     9    Spin symmetry=Doublet   Space symmetry=4
 Number of states:        1
 Number of CSFs:          1   (1 determinants, 5 intermediate states)

 State symmetry 3

 Number of electrons:     9    Spin symmetry=Doublet   Space symmetry=6
 Number of states:        1
 Number of CSFs:          1   (1 determinants, 5 intermediate states)

 State symmetry 4

 Number of electrons:     9    Spin symmetry=Doublet   Space symmetry=7
 Number of states:        1
 Number of CSFs:          1   (1 determinants, 5 intermediate states)

 Molecular orbitals read from record     4202.2  Type=RHF/CANONICAL (state 1.4)
 *** IN SYMMETRY 1 ORBITAL  1 SYMMETRY CONTAMINATION OF 0.247D-04 HAS BEEN REMOVED
 *** IN SYMMETRY 1 ORBITAL  2 SYMMETRY CONTAMINATION OF 0.796D-03 HAS BEEN REMOVED
 *** IN SYMMETRY 1 ORBITAL  3 SYMMETRY CONTAMINATION OF 0.374D-02 HAS BEEN REMOVED
 *** IN SYMMETRY 1 ORBITAL  4 SYMMETRY CONTAMINATION OF 0.953D-02 HAS BEEN REMOVED
 *** IN SYMMETRY 1 ORBITAL  5 SYMMETRY CONTAMINATION OF 0.196D-02 HAS BEEN REMOVED
 *** IN SYMMETRY 1 ORBITAL  6 SYMMETRY CONTAMINATION OF 0.214D-01 HAS BEEN REMOVED

 EXTRA SYMMETRY OF MOS IN SYMMETRY 1:   1 1 1 1 3 2 1 3 2 1   3 2 1 3 2 1 3 2 5 6   4 3 2 1 5 6 4 3 2 1   5 6 4 3 2 1 3 2 5 6
                                        4 1 3 2 3 2 1 3 2 1   3 2 1 1 3 2 1 1 1 1   1 1 1 1 1
 *** IN SYMMETRY 2 ORBITAL  1 SYMMETRY CONTAMINATION OF 0.819D-03 HAS BEEN REMOVED
 *** IN SYMMETRY 2 ORBITAL  2 SYMMETRY CONTAMINATION OF 0.560D-02 HAS BEEN REMOVED
 EXTRA SYMMETRY OF MOS IN SYMMETRY 2:   1 1 1 1 1 1 3 2 1 3   2 1 3 2 6 5 4 1 3 2   6 5 4 1 3 2 1 6 5 4   1 1 1 1 1 1 1 1 1 1
 *** IN SYMMETRY 3 ORBITAL  1 SYMMETRY CONTAMINATION OF 0.819D-03 HAS BEEN REMOVED
 *** IN SYMMETRY 3 ORBITAL  2 SYMMETRY CONTAMINATION OF 0.560D-02 HAS BEEN REMOVED
 EXTRA SYMMETRY OF MOS IN SYMMETRY 3:   1 1 1 1 1 1 3 2 1 3   2 1 3 2 6 5 4 1 3 2   6 5 4 1 3 2 1 6 5 4   1 1 1 1 1 1 1 1 1 1
 *** IN SYMMETRY 4 ORBITAL  1 SYMMETRY CONTAMINATION OF 0.344D-02 HAS BEEN REMOVED
 EXTRA SYMMETRY OF MOS IN SYMMETRY 4:   1 1 1 1 1 3 2 1 3 2   1 3 2 1 1 3 2 1 1 1   1 1
 *** IN SYMMETRY 5 ORBITAL  1 SYMMETRY CONTAMINATION OF 0.421D-03 HAS BEEN REMOVED
 *** IN SYMMETRY 5 ORBITAL  2 SYMMETRY CONTAMINATION OF 0.290D-02 HAS BEEN REMOVED
 EXTRA SYMMETRY OF MOS IN SYMMETRY 5:   1 1 1 1 1 1 3 2 1 3   2 1 3 2 5 4 6 1 3 2   5 6 4 1 3 2 1 5 6 4   1 1 1 1 1 1 1 1 1 1
 *** IN SYMMETRY 6 ORBITAL  1 SYMMETRY CONTAMINATION OF 0.302D-02 HAS BEEN REMOVED
 EXTRA SYMMETRY OF MOS IN SYMMETRY 6:   1 1 1 1 1 3 2 1 3 2   1 3 2 1 1 3 2 1 1 1   1 1
 *** IN SYMMETRY 7 ORBITAL  1 SYMMETRY CONTAMINATION OF 0.302D-02 HAS BEEN REMOVED
 EXTRA SYMMETRY OF MOS IN SYMMETRY 7:   1 1 1 1 1 3 2 1 3 2   1 3 2 1 1 3 2 1 1 1   1 1
 EXTRA SYMMETRY OF MOS IN SYMMETRY 8:   1 1 1 2 3 1 2 3 1 2   3

 Wavefunction dump at record             5202.2

 Convergence thresholds  0.10E-01 (gradient)  0.10E-05 (energy)  0.10E-02 (step length)

 Weight factors for state symmetry  1:    0.20000   0.20000
 Weight factors for state symmetry  2:    0.20000
 Weight factors for state symmetry  3:    0.20000
 Weight factors for state symmetry  4:    0.20000

 Number of orbital rotations:      653   (     8 Core/Active    464 Core/Virtual   0 Active/Active    181 Active/Virtual)
 Total number of variables:        660


 ITER. MIC  NCI  NEG     ENERGY(VAR)     ENERGY(PROJ)   ENERGY CHANGE     GRAD(0)  GRAD(ORB)   GRAD(CI)     STEP       TIME

   1   35   16    0   -1638.94849911   -1638.94999505   -0.00149594    0.07914322 0.00000000 0.00000000  0.26D-01      1.46
   2   18   20    0   -1638.94999601   -1638.94999608   -0.00000006    0.00049000 0.00000000 0.00000000  0.28D-03      3.47

 ** WVFN ****  CONVERGENCE REACHED, FINAL GRADIENT:  0.32D-07



 Results for state 1.1
 =====================

 !MCSCF STATE 1.1 Energy            -1638.949996077840
 Nuclear energy                         0.00000000
 Kinetic energy                      1638.94995086
 One electron energy                -2283.29345531
 Two electron energy                  644.34345923
 Virial ratio                           2.00000003

 !MCSCF STATE 1.1 Dipole moment         0.00000000     0.00000000     0.00000000
 Dipole moment /Debye                   0.00000000     0.00000000     0.00000000

 Results for state 2.1
 =====================

 !MCSCF STATE 2.1 Energy            -1638.949996077515
 Nuclear energy                         0.00000000
 Kinetic energy                      1638.94995092
 One electron energy                -2283.29345539
 Two electron energy                  644.34345931
 Virial ratio                           2.00000003

 !MCSCF STATE 2.1 Dipole moment         0.00000000     0.00000000     0.00000000
 Dipole moment /Debye                   0.00000000     0.00000000     0.00000000



 Results for state 1.4
 =====================

 !MCSCF STATE 1.4 Energy            -1638.949996077764
 Nuclear energy                         0.00000000
 Kinetic energy                      1638.94995090
 One electron energy                -2283.29345537
 Two electron energy                  644.34345929
 Virial ratio                           2.00000003

 !MCSCF STATE 1.4 Dipole moment         0.00000000     0.00000000     0.00000000
 Dipole moment /Debye                   0.00000000     0.00000000     0.00000000



 Results for state 1.6
 =====================

 !MCSCF STATE 1.6 Energy            -1638.949996077616
 Nuclear energy                         0.00000000
 Kinetic energy                      1638.94995089
 One electron energy                -2283.29345535
 Two electron energy                  644.34345927
 Virial ratio                           2.00000003

 !MCSCF STATE 1.6 Dipole moment         0.00000000     0.00000000     0.00000000
 Dipole moment /Debye                   0.00000000     0.00000000     0.00000000



 Results for state 1.7
 =====================

 !MCSCF STATE 1.7 Energy            -1638.949996077616
 Nuclear energy                         0.00000000
 Kinetic energy                      1638.94995089
 One electron energy                -2283.29345535
 Two electron energy                  644.34345927
 Virial ratio                           2.00000003

 !MCSCF STATE 1.7 Dipole moment         0.00000000     0.00000000     0.00000000
 Dipole moment /Debye                   0.00000000     0.00000000     0.00000000

 State-averaged charge density matrix saved on record  5202.2 (density set 1)


 NATURAL ORBITALS (state averaged)
 =================================

   Orb     Occ        Energy       Coefficients

                                   1 1s      1 1s      1 1s      1 1s      1 1s      1 1s      1 1s      1 1s      1 1s      1 1s   
                                   1 1s      1 1s      1 1s      1 1s      1 1s      1 1s      1 1s      1 1s      1 1s      1 1s   
                                   1 1s      1 1s      1 1s      1 1s      1 1s      1 3d0     1 3d2+    1 3d0     1 3d2+    1 3d0  
                                   1 3d2+    1 3d0     1 3d2+    1 3d0     1 3d2+    1 3d0     1 3d2+    1 3d0     1 3d2+    1 3d0  
                                   1 3d2+    1 3d0     1 3d2+    1 3d0     1 3d2+    1 3d0     1 3d2+    1 3d0     1 3d2+    1 3d0  
                                   1 3d2+    1 3d0     1 3d2+    1 5g0     1 5g4+    1 5g2+    1 5g0     1 5g4+    1 5g2+    1 5g0  
                                   1 5g4+    1 5g2+    1 5g0     1 5g4+    1 5g2+ 

   1.1  2.00000  -329.034421     0.000002  0.000016  0.000086  0.000364  0.001327  0.004319  0.012799  0.034625  0.084282  0.177034
                                 0.294743  0.328655  0.183474  0.028966 -0.002723  0.009969  0.001059  0.002013 -0.000053  0.000007
                                -0.000006  0.000003 -0.009063 -0.002393 -0.000001  0.000000  0.000000  0.000000  0.000000  0.000000
                                 0.000000  0.000000  0.000000  0.000000  0.000000  0.000000  0.000000  0.000000  0.000000  0.000000
                                 0.000000  0.000000  0.000000  0.000000  0.000000  0.000000  0.000000  0.000000  0.000000  0.000000
                                 0.000000  0.000000  0.000000  0.000000  0.000000  0.000000  0.000000  0.000000  0.000000  0.000000
                                 0.000000  0.000000  0.000000  0.000000  0.000000

   2.1  2.00000   -41.084739    -0.000001 -0.000005 -0.000027 -0.000112 -0.000409 -0.001336 -0.003984 -0.010988 -0.027740 -0.063268
                                -0.122997 -0.185092 -0.134125  0.200204  0.560757  0.380777  0.056435  0.024434  0.000156  0.000061
                                -0.000036  0.000017 -0.011316 -0.026826 -0.000005  0.000000  0.000000  0.000000  0.000000  0.000000
                                 0.000000  0.000000  0.000000  0.000000  0.000000  0.000000  0.000000  0.000000  0.000000  0.000000
                                 0.000000  0.000000  0.000000  0.000000  0.000000  0.000000  0.000000  0.000000  0.000000  0.000000
                                 0.000000  0.000000  0.000000  0.000000  0.000000  0.000000  0.000000  0.000000  0.000000  0.000000
                                 0.000000  0.000000  0.000000  0.000000  0.000000

   3.1  2.00000    -5.260592     0.000000  0.000002  0.000010  0.000042  0.000154  0.000503  0.001500  0.004154  0.010512  0.024277
                                 0.047989  0.075517  0.057649 -0.099303 -0.388693 -0.376059  0.292259  0.671695  0.309302  0.010676
                                -0.004992  0.002150  0.021021  0.026286 -0.000584  0.000000  0.000000  0.000000  0.000000  0.000000
                                 0.000000  0.000000  0.000000  0.000000  0.000000  0.000000  0.000000  0.000000  0.000000  0.000000
                                 0.000000  0.000000  0.000000  0.000000  0.000000  0.000000  0.000000  0.000000  0.000000  0.000000
                                 0.000000  0.000000  0.000000  0.000000  0.000000  0.000000  0.000000  0.000000  0.000000  0.000000
                                 0.000000  0.000000  0.000000  0.000000  0.000000

   4.1  2.00000    -0.284742    -0.000000 -0.000000 -0.000002 -0.000009 -0.000031 -0.000103 -0.000306 -0.000847 -0.002145 -0.004959
                                -0.009828 -0.015544 -0.011968  0.020996  0.085740  0.090303 -0.078567 -0.237411 -0.200278  0.320533
                                 0.587507  0.246438 -0.009553  0.014636  0.001734  0.000000  0.000000  0.000000  0.000000  0.000000
                                 0.000000  0.000000  0.000000  0.000000  0.000000  0.000000  0.000000  0.000000  0.000000  0.000000
                                 0.000000  0.000000  0.000000  0.000000  0.000000  0.000000  0.000000  0.000000  0.000000  0.000000
                                 0.000000  0.000000  0.000000  0.000000  0.000000  0.000000  0.000000  0.000000  0.000000  0.000000
                                 0.000000  0.000000  0.000000  0.000000  0.000000

   5.1  1.80000    -0.640862     0.000000  0.000000  0.000000  0.000000  0.000000  0.000000  0.000000  0.000000  0.000000  0.000000
                                 0.000000  0.000000  0.000000  0.000000  0.000000  0.000000  0.000000  0.000000  0.000000  0.000000
                                 0.000000  0.000000  0.000000  0.000000  0.000000  0.000238  0.000000  0.002318  0.000000  0.012672
                                 0.000000  0.045498  0.000000  0.119202  0.000000  0.222824  0.000000  0.299149  0.000000  0.303979
                                 0.000000  0.231664  0.000000  0.110604  0.000000  0.018734  0.000000  0.000743  0.000000  0.000999
                                 0.000000 -0.000322  0.000000  0.000000  0.000000  0.000000  0.000000  0.000000  0.000000  0.000000
                                 0.000000  0.000000  0.000000  0.000000  0.000000

   6.1  1.80000    -0.640862     0.000000  0.000000  0.000000  0.000000  0.000000  0.000000  0.000000  0.000000  0.000000  0.000000
                                 0.000000  0.000000  0.000000  0.000000  0.000000  0.000000  0.000000  0.000000  0.000000  0.000000
                                 0.000000  0.000000  0.000000  0.000000  0.000000  0.000000  0.000238  0.000000  0.002318  0.000000
                                 0.012672  0.000000  0.045498  0.000000  0.119202  0.000000  0.222824  0.000000  0.299149  0.000000
                                 0.303979  0.000000  0.231664  0.000000  0.110604  0.000000  0.018734  0.000000  0.000743  0.000000
                                 0.000999  0.000000 -0.000322  0.000000  0.000000  0.000000  0.000000  0.000000  0.000000  0.000000
                                 0.000000  0.000000  0.000000  0.000000  0.000000

                                   1 2px     1 2px     1 2px     1 2px     1 2px     1 2px     1 2px     1 2px     1 2px     1 2px  
                                   1 2px     1 2px     1 2px     1 2px     1 2px     1 2px     1 2px     1 2px     1 2px     1 2px  
                                   1 2px     1 4f1+    1 4f3+    1 4f1+    1 4f3+    1 4f1+    1 4f3+    1 4f1+    1 4f3+    1 4f1+ 
                                   1 4f3+    1 6h1+    1 6h3+    1 6h5+    1 6h1+    1 6h3+    1 6h5+    1 6h1+    1 6h3+    1 6h5+ 


   1.2  2.00000   -35.879074     0.000011  0.000097  0.000568  0.002582  0.009715  0.030842  0.082299  0.177208  0.291383  0.329047
                                 0.205007  0.055280  0.006632  0.000717  0.000227  0.000030 -0.000005  0.000002  0.001437 -0.002367
                                -0.000001  0.000000  0.000000  0.000000  0.000000  0.000000  0.000000  0.000000  0.000000  0.000000
                                 0.000000  0.000000  0.000000  0.000000  0.000000  0.000000  0.000000  0.000000  0.000000  0.000000

   2.2  2.00000    -3.556898    -0.000004 -0.000036 -0.000211 -0.000963 -0.003642 -0.011723 -0.032037 -0.071652 -0.123199 -0.146634
                                -0.045451  0.212943  0.422346  0.368607  0.154411  0.013889 -0.001448  0.000806  0.002432 -0.012397
                                -0.000240  0.000000  0.000000  0.000000  0.000000  0.000000  0.000000  0.000000  0.000000  0.000000
                                 0.000000  0.000000  0.000000  0.000000  0.000000  0.000000  0.000000  0.000000  0.000000  0.000000

                                   1 2py     1 2py     1 2py     1 2py     1 2py     1 2py     1 2py     1 2py     1 2py     1 2py  
                                   1 2py     1 2py     1 2py     1 2py     1 2py     1 2py     1 2py     1 2py     1 2py     1 2py  
                                   1 2py     1 4f1-    1 4f3-    1 4f1-    1 4f3-    1 4f1-    1 4f3-    1 4f1-    1 4f3-    1 4f1- 
                                   1 4f3-    1 6h1-    1 6h3-    1 6h5-    1 6h1-    1 6h3-    1 6h5-    1 6h1-    1 6h3-    1 6h5- 


   1.3  2.00000   -35.879074     0.000011  0.000097  0.000568  0.002582  0.009715  0.030842  0.082299  0.177208  0.291383  0.329047
                                 0.205007  0.055280  0.006632  0.000717  0.000227  0.000030 -0.000005  0.000002  0.001437 -0.002367
                                -0.000001  0.000000  0.000000  0.000000  0.000000  0.000000  0.000000  0.000000  0.000000  0.000000
                                 0.000000  0.000000  0.000000  0.000000  0.000000  0.000000  0.000000  0.000000  0.000000  0.000000

   2.3  2.00000    -3.556898    -0.000004 -0.000036 -0.000211 -0.000963 -0.003642 -0.011723 -0.032037 -0.071652 -0.123199 -0.146634
                                -0.045451  0.212943  0.422346  0.368607  0.154411  0.013889 -0.001448  0.000806  0.002432 -0.012397
                                -0.000240  0.000000  0.000000  0.000000  0.000000  0.000000  0.000000  0.000000  0.000000  0.000000
                                 0.000000  0.000000  0.000000  0.000000  0.000000  0.000000  0.000000  0.000000  0.000000  0.000000

                                   1 3d2-    1 3d2-    1 3d2-    1 3d2-    1 3d2-    1 3d2-    1 3d2-    1 3d2-    1 3d2-    1 3d2- 
                                   1 3d2-    1 3d2-    1 3d2-    1 3d2-    1 5g2-    1 5g4-    1 5g2-    1 5g4-    1 5g2-    1 5g4- 
                                   1 5g2-    1 5g4- 

   1.4  1.80000    -0.640862     0.000238  0.002318  0.012672  0.045498  0.119202  0.222824  0.299149  0.303979  0.231664  0.110604
                                 0.018734  0.000743  0.000999 -0.000322  0.000000  0.000000  0.000000  0.000000  0.000000  0.000000
                                 0.000000  0.000000

                                   1 2pz     1 2pz     1 2pz     1 2pz     1 2pz     1 2pz     1 2pz     1 2pz     1 2pz     1 2pz  
                                   1 2pz     1 2pz     1 2pz     1 2pz     1 2pz     1 2pz     1 2pz     1 2pz     1 2pz     1 2pz  
                                   1 2pz     1 4f0     1 4f2+    1 4f0     1 4f2+    1 4f0     1 4f2+    1 4f0     1 4f2+    1 4f0  
                                   1 4f2+    1 6h2+    1 6h4+    1 6h0     1 6h2+    1 6h4+    1 6h0     1 6h2+    1 6h4+    1 6h0  


   1.5  2.00000   -35.879074     0.000011  0.000097  0.000568  0.002582  0.009715  0.030842  0.082299  0.177208  0.291383  0.329047
                                 0.205007  0.055280  0.006632  0.000717  0.000227  0.000030 -0.000005  0.000002  0.001437 -0.002367
                                -0.000001  0.000000  0.000000  0.000000  0.000000  0.000000  0.000000  0.000000  0.000000  0.000000
                                 0.000000  0.000000  0.000000  0.000000  0.000000  0.000000  0.000000  0.000000  0.000000  0.000000

   2.5  2.00000    -3.556898    -0.000004 -0.000036 -0.000211 -0.000963 -0.003642 -0.011723 -0.032037 -0.071652 -0.123199 -0.146634
                                -0.045451  0.212943  0.422346  0.368607  0.154411  0.013889 -0.001448  0.000806  0.002432 -0.012397
                                -0.000240  0.000000  0.000000  0.000000  0.000000  0.000000  0.000000  0.000000  0.000000  0.000000
                                 0.000000  0.000000  0.000000  0.000000  0.000000  0.000000  0.000000  0.000000  0.000000  0.000000

                                   1 3d1+    1 3d1+    1 3d1+    1 3d1+    1 3d1+    1 3d1+    1 3d1+    1 3d1+    1 3d1+    1 3d1+ 
                                   1 3d1+    1 3d1+    1 3d1+    1 3d1+    1 5g1+    1 5g3+    1 5g1+    1 5g3+    1 5g1+    1 5g3+ 
                                   1 5g1+    1 5g3+ 

   1.6  1.80000    -0.640862     0.000238  0.002318  0.012672  0.045498  0.119202  0.222824  0.299149  0.303979  0.231664  0.110604
                                 0.018734  0.000743  0.000999 -0.000322  0.000000  0.000000  0.000000  0.000000  0.000000  0.000000
                                 0.000000  0.000000

                                   1 3d1-    1 3d1-    1 3d1-    1 3d1-    1 3d1-    1 3d1-    1 3d1-    1 3d1-    1 3d1-    1 3d1- 
                                   1 3d1-    1 3d1-    1 3d1-    1 3d1-    1 5g1-    1 5g3-    1 5g1-    1 5g3-    1 5g1-    1 5g3- 
                                   1 5g1-    1 5g3- 

   1.7  1.80000    -0.640862     0.000238  0.002318  0.012672  0.045498  0.119202  0.222824  0.299149  0.303979  0.231664  0.110604
                                 0.018734  0.000743  0.000999 -0.000322  0.000000  0.000000  0.000000  0.000000  0.000000  0.000000
                                 0.000000  0.000000
 

 EXTRA SYMMETRY OF MOS IN SYMMETRY 1:   1 1 1 1 2 3 1 2 3 1   2 3 1 2 3 1 2 3 6 5   4 2 3 1 4 6 5 2 3 1   5 6 4 2 3 1 3 2 5 4
                                        6 1 3 2 3 2 1 3 2 1   2 3 1 1 2 3 1 1 1 1   1 1 1 1 1
 EXTRA SYMMETRY OF MOS IN SYMMETRY 2:   1 1 1 1 1 1 3 2 1 2   3 1 3 2 6 4 5 1 2 3   4 5 6 1 2 3 1 4 5 6   1 1 1 1 1 1 1 1 1 1
 EXTRA SYMMETRY OF MOS IN SYMMETRY 3:   1 1 1 1 1 1 3 2 1 2   3 1 3 2 6 5 4 1 2 3   4 5 6 1 2 3 1 4 5 6   1 1 1 1 1 1 1 1 1 1
 EXTRA SYMMETRY OF MOS IN SYMMETRY 4:   1 1 1 1 1 3 2 1 3 2   1 2 3 1 1 2 3 1 1 1   1 1
 EXTRA SYMMETRY OF MOS IN SYMMETRY 5:   1 1 1 1 1 1 2 3 1 2   3 1 3 2 5 4 6 1 3 2   6 4 5 1 2 3 1 6 4 5   1 1 1 1 1 1 1 1 1 1
 EXTRA SYMMETRY OF MOS IN SYMMETRY 6:   1 1 1 1 1 3 2 1 3 2   1 2 3 1 1 2 3 1 1 1   1 1
 EXTRA SYMMETRY OF MOS IN SYMMETRY 7:   1 1 1 1 1 3 2 1 3 2   1 2 3 1 1 2 3 1 1 1   1 1
 EXTRA SYMMETRY OF MOS IN SYMMETRY 8:   1 1 1 2 3 1 3 2 1 3   2

 Natural orbital dump (state averaged) at molpro section  5202.2    (Orbital set 2)


 CI vector for state symmetry 1
 ==============================

 a2 2 2 2          0.0000000   1.0000000
 2a 2 2 2          1.0000000   0.0000000

 TOTAL ENERGIES                     -1638.94999608 -1638.94999608

 CI vector for state symmetry 2
 ==============================

 22 a 2 2          1.0000000

 TOTAL ENERGIES                     -1638.94999608

 CI vector for state symmetry 3
 ==============================

 22 2 a 2          1.0000000

 TOTAL ENERGIES                     -1638.94999608

 CI vector for state symmetry 4
 ==============================

 22 2 2 a          1.0000000

 TOTAL ENERGIES                     -1638.94999608



 **********************************************************************************************************************************
 DATASETS  * FILE   NREC   LENGTH (MB)   RECORD NAMES
              1      20      292.34       500      610      700      900      950      970     1000      129      960     1100   
                                          VAR    BASINP    GEOM    SYMINP    ZMAT    AOBASIS   BASIS     P2S    ABASIS      S 
                                         1400     1410     1200     1210     1080     1600     1650     1300     1700     1380   
                                           T        V       H0       H01     AOSYM     SMH    MOLCAS    ERIS     OPER     JKOP   

              2       6        8.52       200      700     1000      520     4202     5202   
                                        OPTIONS   GEOM     BASIS   MCVARS     RHF     MCSCF   

 PROGRAMS   *        TOTAL     MULTI       POP       RHF       INT
 CPU TIMES  *        68.62      5.49      0.00      4.27     58.44
 REAL TIME  *        77.09 SEC
 DISK USED  *         1.05 GB      
 **********************************************************************************************************************************

1PROGRAM * RHF-SCF (OPEN SHELL)       Authors: W. Meyer, H.-J. Werner


 NUMBER OF ELECTRONS:      15+   14-    SPACE SYMMETRY=4    SPIN SYMMETRY: Doublet 
 CONVERGENCE THRESHOLDS:    1.00E-05 (Density)    1.00E-07 (Energy)
 MAX. NUMBER OF ITERATIONS:        0
 INTERPOLATION TYPE:            DIIS
 INTERPOLATION STEPS:              2 (START)      1 (STEP)
 LEVEL SHIFTS:                 -0.30 (CLOSED)  0.00 (OPEN) 


 Singly occupied orbitals:      1.4
 Molecular orbitals read from record     5202.2  Type=MCSCF/NATURAL  

 Molecular orbital dump at record        2101.2

 ITERATION    DDIFF          GRAD             ENERGY        2-EL.EN.            DIPOLE MOMENTS         DIIS   ORB.
    1      0.000D+00      0.000D+00     -1638.94999608   1288.686919    0.00000    0.00000    0.00000    0    start

 Final alpha occupancy:   6   2   2   1   2   1   1   0
 Final beta  occupancy:   6   2   2   0   2   1   1   0

 !RHF STATE 1.4 Energy              -1638.949996077763
 Nuclear energy                         0.00000000
 One-electron energy                -2283.29345537
 Two-electron energy                  644.34345929
 Virial quotient                       -1.00000003
 !RHF STATE 1.4 Dipole moment           0.00000000     0.00000000     0.00000000
 Dipole moment /Debye                   0.00000000     0.00000000     0.00000000

 Orbital energies:

         1.1          2.1          3.1          4.1          5.1          6.1          7.1          8.1
   -329.034421   -41.084739    -5.260592    -0.284742    -0.640862    -0.640862     0.031650     0.134835

         1.2          2.2          3.2          4.2
    -35.879074    -3.556898     0.023153     0.073899

         1.3          2.3          3.3          4.3
    -35.879074    -3.556898     0.023153     0.073899

         1.4          2.4          3.4
     -0.640862     0.134835     0.422195

         1.5          2.5          3.5          4.5
    -35.879074    -3.556898     0.023153     0.073899

         1.6          2.6          3.6
     -0.640862     0.134835     0.422195

         1.7          2.7          3.7
     -0.640862     0.134835     0.422195

         1.8          2.8
      0.939748     2.809498

 HOMO      1.4    -0.640862 =     -17.4387eV
 LUMO      3.2     0.023153 =       0.6300eV
 LUMO-HOMO         0.664015 =      18.0688eV


 **********************************************************************************************************************************
 DATASETS  * FILE   NREC   LENGTH (MB)   RECORD NAMES
              1      20      292.34       500      610      700      900      950      970     1000      129      960     1100   
                                          VAR    BASINP    GEOM    SYMINP    ZMAT    AOBASIS   BASIS     P2S    ABASIS      S 
                                         1400     1410     1200     1210     1080     1600     1650     1300     1700     1380   
                                           T        V       H0       H01     AOSYM     SMH    MOLCAS    ERIS     OPER     JKOP   

              2       7       11.63       200      700     1000      520     4202     5202     2101   
                                        OPTIONS   GEOM     BASIS   MCVARS     RHF     MCSCF     RHF  

 PROGRAMS   *        TOTAL       RHF     MULTI       POP       RHF       INT
 CPU TIMES  *        69.05      0.41      5.49      0.00      4.27     58.44
 REAL TIME  *        77.62 SEC
 DISK USED  *         1.05 GB      
 **********************************************************************************************************************************
 SETTING SCF(1)         =     -1638.94999608  AU                              
 SETTING _CC_NORM_MAX   =         2.00000000                                  


1PROGRAM * CCSD (Restricted open-shell coupled cluster)     Authors: C. Hampel, H.-J. Werner, 1991, M. Deegan, P.J. Knowles, 1992


 Convergence thresholds:  THRVAR = 1.00D-08  THRDEN = 1.00D-06

 CCSD(T)     terms to be evaluated (factor= 1.000)


 Number of closed-shell orbitals:  14 (   6   2   2   0   2   1   1   0 )
 Number of active  orbitals:        1 (   0   0   0   1   0   0   0   0 )
 Number of external orbitals:     247 (  59  38  38  21  38  21  21  11 )

 Memory could be reduced to 51.67 Mwords without degradation in triples

 Number of N-1 electron functions:              29
 Number of N-2 electron functions:             406
 Number of singly external CSFs:              1270
 Number of doubly external CSFs:           2532360
 Total number of CSFs:                     2533630

 Molecular orbitals read from record     2101.2  Type=RHF/CANONICAL (state 1.4)

 Integral transformation finished. Total CPU:   3.08 sec, npass=  1  Memory used:  10.16 MW

 Starting RMP2 calculation

 Wavefunction is spin-projected

 ITER.      SQ.NORM     CORR.ENERGY   TOTAL ENERGY   ENERGY CHANGE        DEN1      VAR(S)    VAR(P)  DIIS     TIME
   1      1.11897463    -1.41608130 -1640.36607737    -1.41608130    -0.00125690  0.57D-05  0.74D-03  1  1     3.38
   2      1.12082872    -1.41740199 -1640.36739807    -0.00132070    -0.00001589  0.82D-07  0.16D-04  2  2     3.63
   3      1.12112366    -1.41752153 -1640.36751761    -0.00011954    -0.00000006  0.19D-08  0.58D-07  3  3     3.89
   4      1.12113470    -1.41752377 -1640.36751985    -0.00000224    -0.00000000  0.13D-09  0.39D-09  4  4     4.18
   5      1.12113480    -1.41752375 -1640.36751983     0.00000002    -0.00000000  0.77D-11  0.84D-11  5  5     4.48

 Norm of t1 vector:      0.03245371      S-energy:    -0.00592149      T1 diagnostic:  0.00359436
 Norm of t2 vector:      0.34652786      P-energy:    -1.41160226
                                         Alpha-Beta:  -0.97382023
                                         Alpha-Alpha: -0.23897701
                                         Beta-Beta:   -0.19880502

 Spin contamination <S**2-Sz**2-Sz>     0.00000000
  Reference energy                  -1638.949996077765
  RHF-RMP2 correlation energy          -1.417523752612
 !RHF-RMP2 energy                   -1640.367519830377
 (NB above energy spin projected)

 Starting RCCSD calculation

 ITER.      SQ.NORM     CORR.ENERGY   TOTAL ENERGY   ENERGY CHANGE        DEN1      VAR(S)    VAR(P)  DIIS     TIME
   1      1.10263246    -1.30116793 -1640.25116400    -1.30116793    -0.04208478  0.55D-02  0.57D-02  0  0    12.81
   2      1.12039591    -1.33876753 -1640.28876360    -0.03759960    -0.00491864  0.67D-03  0.12D-02  1  1    22.80
   3      1.12409676    -1.33298614 -1640.28298222     0.00578138    -0.00057099  0.30D-03  0.21D-03  2  2    32.85
   4      1.12910278    -1.33454774 -1640.28454381    -0.00156160    -0.00013445  0.70D-04  0.55D-04  3  3    42.16
   5      1.13415286    -1.33598454 -1640.28598062    -0.00143681    -0.00000570  0.33D-05  0.18D-05  4  4    51.64
   6      1.13481794    -1.33607227 -1640.28606835    -0.00008773    -0.00000049  0.20D-06  0.19D-06  5  5    61.26
   7      1.13492440    -1.33608122 -1640.28607730    -0.00000895    -0.00000009  0.47D-07  0.35D-07  6  6    71.38
   8      1.13495714    -1.33608526 -1640.28608134    -0.00000404    -0.00000002  0.42D-08  0.87D-08  6  1    81.36
   9      1.13496206    -1.33608554 -1640.28608162    -0.00000028    -0.00000000  0.14D-09  0.98D-09  6  2    91.10

 Norm of t1 vector:      0.12064166      S-energy:    -0.00635792      T1 diagnostic:  0.01556068
                                                                       D1 diagnostic:  0.06637155
 Norm of t2 vector:      0.34699806      P-energy:    -1.32972762
                                         Alpha-Beta:  -0.94344084
                                         Alpha-Alpha: -0.20925475
                                         Beta-Beta:   -0.17703203

 Singles amplitudes (print threshold =  0.500E-01):

         I         SYM. A    A   T(IA) [Alpha-Alpha]

         4         1         4     -0.05081719

 Doubles amplitudes (print threshold =  0.500E-01):

         I         J         SYM. A    SYM. B    A         B      T(IJ, AB) [Alpha-Beta]

         4         4         2         2         2         2     -0.05456084
         4         4         3         3         2         2     -0.05456084
         4         4         5         5         2         2     -0.05115402

 Spin contamination <S**2-Sz**2-Sz>     0.00000000

 Memory could be reduced to 56.17 Mwords without degradation in triples
 

  Correlated core orbitals:             1.1       2.1       3.1       1.2       2.2       1.3       2.3       1.5       2.5
  Orbital energies:                  -329.0347  -41.1036   -5.3089  -35.9131   -3.6456  -35.9131   -3.6456  -35.8663   -3.5571
 
  RCCSD core-core energy               -0.487696677510
  RCCSD core-valence energy            -0.425009102478
  RCCSD valence correlation energy     -0.423379759576
 

 RESULTS
 =======

  Reference energy                  -1638.949996077765
  RCCSD singles energy                 -0.006357924511
  RCCSD pair energy                    -1.329727615053
  RCCSD correlation energy             -1.336085539564
  Triples (T) contribution             -0.028985114979
  Total correlation energy             -1.365070654543
 
  RHF-RCCSD energy                  -1640.286081617329
  RHF-RCCSD[T] energy               -1640.317121560745
  RHF-RCCSD-T energy                -1640.314703526019
 !RHF-RCCSD(T) energy               -1640.315066732308

 Program statistics:

 Available memory in ccsd:               511997950
 Min. memory needed in ccsd:               7141405
 Max. memory used in ccsd:                10332725
 Max. memory used in cckext:               7937645 ( 9 integral passes)
 Max. memory used in cckint:              10155437 ( 1 integral passes)



 **********************************************************************************************************************************
 DATASETS  * FILE   NREC   LENGTH (MB)   RECORD NAMES
              1      20      292.34       500      610      700      900      950      970     1000      129      960     1100   
                                          VAR    BASINP    GEOM    SYMINP    ZMAT    AOBASIS   BASIS     P2S    ABASIS      S 
                                         1400     1410     1200     1210     1080     1600     1650     1300     1700     1380   
                                           T        V       H0       H01     AOSYM     SMH    MOLCAS    ERIS     OPER     JKOP   

              2       7       11.63       200      700     1000      520     4202     5202     2101   
                                        OPTIONS   GEOM     BASIS   MCVARS     RHF     MCSCF     RHF  

 PROGRAMS   *        TOTAL  RCCSD(T)       RHF     MULTI       POP       RHF       INT
 CPU TIMES  *       595.25    526.20      0.41      5.49      0.00      4.27     58.44
 REAL TIME  *       653.48 SEC
 DISK USED  *         1.47 GB      
 **********************************************************************************************************************************
 SETTING CCSD(1)        =     -1640.31506673  AU                              

 DO I                   =         2.00000000   

 Running procedure=IS1DTEN

1PROGRAM * RHF-SCF (OPEN SHELL)       Authors: W. Meyer, H.-J. Werner


 NUMBER OF ELECTRONS:      15+   14-    SPACE SYMMETRY=1    SPIN SYMMETRY: Doublet 
 CONVERGENCE THRESHOLDS:    1.00E-05 (Density)    1.00E-07 (Energy)
 MAX. NUMBER OF ITERATIONS:       60
 INTERPOLATION TYPE:            DIIS
 INTERPOLATION STEPS:              2 (START)      1 (STEP)
 LEVEL SHIFTS:                 -0.30 (CLOSED)  0.00 (OPEN) 


 Singly occupied orbitals:      6.1
 
 Extra symmetries of mos in symmetry 1:   1   1   1   3   2   1
 Orbital guess generated from atomic densities. Full valence occupancy:    6   2   2   1   2   1   1   0


 Molecular orbital dump at record        4202.2

 ITERATION    DDIFF          GRAD             ENERGY        2-EL.EN.            DIPOLE MOMENTS         DIIS   ORB.
    1      0.000D+00      0.000D+00     -1638.87962247   1280.402696    0.00000    0.00000    0.00000    0    start
    2      0.000D+00      0.225D-01     -1638.87178302   1322.329026    0.00000    0.00000    0.00000    1    diag,B
    3      0.546D-02      0.265D-01     -1638.96304243   1302.709799    0.00000    0.00000    0.00000    2    diag,B
    4      0.325D-02      0.152D-02     -1638.96357405   1301.725864    0.00000    0.00000    0.00000    3    diag,B
    5      0.897D-03      0.134D-03     -1638.96363427   1301.767633    0.00000    0.00000    0.00000    4    diag,B
    6      0.373D-03      0.349D-04     -1638.96364471   1301.803754    0.00000    0.00000    0.00000    5    diag,B
    7      0.160D-03      0.115D-04     -1638.96364553   1301.815080    0.00000    0.00000    0.00000    6    fixocc
    8      0.440D-04      0.244D-05     -1638.96364556   1301.816714    0.00000    0.00000    0.00000    7    diag,B
    9      0.861D-05      0.405D-06     -1638.96364556   1301.816642    0.00000    0.00000    0.00000    0    orth

 Final alpha occupancy:   6   2   2   1   2   1   1   0
 Final beta  occupancy:   5   2   2   1   2   1   1   0

 !RHF STATE 1.1 Energy              -1638.963645556288
 Nuclear energy                         0.00000000
 One-electron energy                -2289.87196648
 Two-electron energy                  650.90832092
 Virial quotient                       -0.99999994
 !RHF STATE 1.1 Dipole moment           0.00000000     0.00000000     0.00000000
 Dipole moment /Debye                   0.00000000     0.00000000     0.00000000

 ELECTRON ORBITALS
 =================


   Orb  Occ    Energy  Couls-En    Coefficients

                                   1 1s      1 1s      1 1s      1 1s      1 1s      1 1s      1 1s      1 1s      1 1s      1 1s   
                                   1 1s      1 1s      1 1s      1 1s      1 1s      1 1s      1 1s      1 1s      1 1s      1 1s   
                                   1 1s      1 1s      1 1s      1 1s      1 1s      1 3d0     1 3d2+    1 3d0     1 3d2+    1 3d0  
                                   1 3d2+    1 3d0     1 3d2+    1 3d0     1 3d2+    1 3d0     1 3d2+    1 3d0     1 3d2+    1 3d0  
                                   1 3d2+    1 3d0     1 3d2+    1 3d0     1 3d2+    1 3d0     1 3d2+    1 3d0     1 3d2+    1 3d0  
                                   1 3d2+    1 3d0     1 3d2+    1 5g0     1 5g4+    1 5g2+    1 5g0     1 5g4+    1 5g2+    1 5g0  
                                   1 5g4+    1 5g2+    1 5g0     1 5g4+    1 5g2+ 

   1.1   2  -328.7930 -749.1426  0.000002  0.000016  0.000086  0.000364  0.001327  0.004319  0.012799  0.034625  0.084283  0.177037
                                 0.294747  0.328662  0.183466  0.028952 -0.002718  0.009946  0.001056  0.002005 -0.000053  0.000007
                                -0.000006  0.000003 -0.009039 -0.002383 -0.000001 -0.000000  0.000000  0.000000 -0.000000 -0.000000
                                -0.000000  0.000000  0.000000 -0.000000 -0.000000 -0.000000 -0.000000 -0.000000 -0.000000  0.000000
                                 0.000000 -0.000000 -0.000000  0.000000  0.000000 -0.000000 -0.000000  0.000000  0.000000  0.000000
                                 0.000000  0.000000  0.000000  0.000000 -0.000000  0.000000 -0.000000  0.000000 -0.000000  0.000000
                                -0.000000 -0.000000  0.000000  0.000000  0.000000

   2.1   2   -40.8190 -144.0475 -0.000001 -0.000005 -0.000027 -0.000112 -0.000409 -0.001336 -0.003984 -0.010989 -0.027741 -0.063271
                                -0.123001 -0.185108 -0.134109  0.200278  0.560679  0.381131  0.056425  0.024342  0.000212  0.000072
                                -0.000042  0.000018 -0.011693 -0.026708 -0.000005  0.000000  0.000000 -0.000000  0.000000  0.000000
                                 0.000000 -0.000000  0.000000  0.000000  0.000000  0.000000  0.000000  0.000000  0.000000 -0.000000
                                 0.000000  0.000000  0.000000 -0.000000  0.000000  0.000000  0.000000 -0.000000 -0.000000 -0.000000
                                -0.000000 -0.000000 -0.000000  0.000000 -0.000000  0.000000 -0.000000 -0.000000  0.000000  0.000000
                                -0.000000  0.000000 -0.000000 -0.000000 -0.000000

   3.1   2    -5.0120  -45.0678  0.000000  0.000002  0.000010  0.000042  0.000153  0.000500  0.001491  0.004129  0.010453  0.024129
                                 0.047728  0.075026  0.057416 -0.099136 -0.384539 -0.395535  0.276912  0.572800  0.327673  0.015035
                                -0.007114  0.003302  0.046906  0.113493 -0.000880 -0.000000  0.000000  0.000000  0.000000 -0.000000
                                 0.000000  0.000000  0.000000 -0.000000  0.000000 -0.000000  0.000000 -0.000000  0.000000  0.000000
                                 0.000000 -0.000000  0.000000  0.000000  0.000000  0.000000  0.000000  0.000000  0.000000  0.000000
                                 0.000000 -0.000000 -0.000000 -0.000000 -0.000000 -0.000000  0.000000 -0.000000 -0.000000 -0.000000
                                 0.000000  0.000000  0.000000  0.000000 -0.000000

   4.1   2    -0.4912  -31.4272  0.000000 -0.000000 -0.000000 -0.000000 -0.000000 -0.000000 -0.000000 -0.000000 -0.000000 -0.000000
                                -0.000000 -0.000000 -0.000000  0.000000  0.000000  0.000000 -0.000000 -0.000000 -0.000000  0.000000
                                 0.000000  0.000000 -0.000000 -0.000000 -0.000000  0.000049  0.000222  0.000477  0.002162  0.002608
                                 0.011814  0.009363  0.042420  0.024497  0.110979  0.045691  0.206996  0.061494  0.278592  0.063322
                                 0.286869  0.051917  0.235202  0.032132  0.145570  0.009826  0.044515  0.000207  0.000937  0.000344
                                 0.001558  0.000241  0.001093  0.000000  0.000000  0.000000  0.000000  0.000000  0.000000 -0.000000
                                -0.000000 -0.000000  0.000000 -0.000000  0.000000

   5.1   2    -0.4912  -31.4272 -0.000000 -0.000000  0.000000  0.000000  0.000000  0.000000  0.000000  0.000000  0.000000  0.000000
                                 0.000000  0.000000 -0.000000  0.000000 -0.000000  0.000000  0.000000  0.000000  0.000000  0.000000
                                 0.000000 -0.000000 -0.000000 -0.000000 -0.000000  0.000222 -0.000049  0.002162 -0.000477  0.011814
                                -0.002608  0.042420 -0.009363  0.110979 -0.024497  0.206996 -0.045691  0.278592 -0.061494  0.286869
                                -0.063322  0.235202 -0.051917  0.145570 -0.032132  0.044515 -0.009826  0.000937 -0.000207  0.001558
                                -0.000344  0.001093 -0.000241  0.000000 -0.000000  0.000000  0.000000 -0.000000  0.000000 -0.000000
                                 0.000000 -0.000000  0.000000  0.000000 -0.000000

   6.1   +    -0.2385  -10.6180 -0.000000 -0.000000 -0.000002 -0.000007 -0.000027 -0.000087 -0.000259 -0.000714 -0.001822 -0.004173
                                -0.008369 -0.012996 -0.010459  0.018838  0.067847  0.142105 -0.025224  0.146752 -0.203437  0.140531
                                 0.583372  0.379898 -0.085787 -0.325668  0.025304 -0.000000 -0.000000  0.000000 -0.000000 -0.000000
                                -0.000000  0.000000 -0.000000 -0.000000 -0.000000 -0.000000 -0.000000 -0.000000 -0.000000  0.000000
                                -0.000000  0.000000 -0.000000 -0.000000 -0.000000  0.000000 -0.000000  0.000000  0.000000  0.000000
                                 0.000000 -0.000000  0.000000  0.000000 -0.000000 -0.000000 -0.000000  0.000000 -0.000000  0.000000
                                -0.000000  0.000000  0.000000  0.000000 -0.000000

   7.1   0     0.0345   -3.3734  0.000000  0.000000  0.000000  0.000002  0.000008  0.000023  0.000077  0.000184  0.000551  0.001033
                                 0.002674  0.002744  0.004977 -0.011759  0.006357 -0.420921 -0.213553 -1.652548  0.217170 -0.344031
                                 0.757462 -2.380257  0.468985  1.730731  2.355140 -0.000000 -0.000000  0.000000 -0.000000 -0.000000
                                -0.000000  0.000000 -0.000000 -0.000000 -0.000000 -0.000000 -0.000000 -0.000000 -0.000000  0.000000
                                 0.000000 -0.000000 -0.000000  0.000000  0.000000 -0.000000 -0.000000  0.000000  0.000000  0.000000
                                 0.000000  0.000000  0.000000  0.000000  0.000000 -0.000000  0.000000 -0.000000  0.000000 -0.000000
                                 0.000000 -0.000000  0.000000 -0.000000  0.000000

   8.1   0     0.1340   -4.5052  0.000000 -0.000000  0.000000 -0.000000  0.000000 -0.000000  0.000000 -0.000000  0.000000 -0.000000
                                 0.000000 -0.000000  0.000000 -0.000000  0.000000 -0.000000 -0.000000 -0.000000  0.000000  0.000000
                                -0.000000  0.000000  0.000000  0.000000 -0.000000 -0.000018 -0.000017 -0.000073 -0.000065 -0.000919
                                -0.000827 -0.000939 -0.000845 -0.021083 -0.018976 -0.141511 -0.127372 -0.093855 -0.084477  0.031982
                                 0.028787 -0.077972 -0.070182  0.118199  0.106389 -0.294621 -0.265184  0.063284  0.056961  0.135881
                                 0.122304  0.905824  0.815319  0.000000 -0.000000 -0.000000 -0.000000 -0.000000  0.000000  0.000000
                                 0.000000  0.000000  0.000000 -0.000000  0.000000

                                   1 2px     1 2px     1 2px     1 2px     1 2px     1 2px     1 2px     1 2px     1 2px     1 2px  
                                   1 2px     1 2px     1 2px     1 2px     1 2px     1 2px     1 2px     1 2px     1 2px     1 2px  
                                   1 2px     1 4f1+    1 4f3+    1 4f1+    1 4f3+    1 4f1+    1 4f3+    1 4f1+    1 4f3+    1 4f1+ 
                                   1 4f3+    1 6h1+    1 6h3+    1 6h5+    1 6h1+    1 6h3+    1 6h5+    1 6h1+    1 6h3+    1 6h5+ 


   1.2   2   -35.6179 -138.1862  0.000011  0.000097  0.000568  0.002583  0.009717  0.030847  0.082314  0.177247  0.291415  0.328990
                                 0.204878  0.055266  0.006730  0.000747  0.000277  0.000054 -0.000003  0.000002  0.001525 -0.002437
                                -0.000001  0.000000  0.000000 -0.000000 -0.000000  0.000000  0.000000 -0.000000 -0.000000  0.000000
                                -0.000000  0.000000 -0.000000  0.000000  0.000000  0.000000 -0.000000  0.000000 -0.000000  0.000000

   2.2   2    -3.3248  -41.2340 -0.000004 -0.000036 -0.000209 -0.000956 -0.003614 -0.011641 -0.031795 -0.071161 -0.122182 -0.145971
                                -0.048620  0.213538  0.424702  0.363375  0.166236  0.017768 -0.002129  0.001110  0.005450 -0.021060
                                -0.000336 -0.000000 -0.000000  0.000000  0.000000 -0.000000 -0.000000  0.000000 -0.000000 -0.000000
                                 0.000000 -0.000000  0.000000  0.000000 -0.000000 -0.000000  0.000000  0.000000  0.000000 -0.000000

   3.2   0     0.0225   -3.8919  0.000000  0.000001  0.000009  0.000033  0.000154  0.000406  0.001386  0.002313  0.006417 -0.002938
                                -0.057568  0.037684  0.141061 -0.058064  0.023440 -0.023390  0.222537 -0.186121  0.051036 -0.167633
                                 1.055411  0.000000  0.000000  0.000000 -0.000000 -0.000000  0.000000  0.000000 -0.000000 -0.000000
[...]
                                -0.151238  0.118265  0.402939 -0.107599  0.077101 -0.115844  0.332005 -0.782481  0.131266 -0.429921
                                 1.429908 -0.000000  0.000000  0.000000 -0.000000 -0.000000  0.000000  0.000000  0.000000 -0.000000
                                -0.000000  0.000000  0.000000 -0.000000 -0.000000 -0.000000 -0.000000  0.000000 -0.000000  0.000000

   4.3   0     0.2251   -5.2497  0.000000  0.000003  0.000008  0.000075  0.000149  0.000929  0.001182  0.006595 -0.000626  0.051831
                                 0.295120 -0.248670 -0.819381  0.171259 -0.166834  0.286298 -0.552053  1.901712 -0.253503  0.832547
                                -0.952456  0.000000 -0.000000 -0.000000  0.000000  0.000000 -0.000000 -0.000000 -0.000000  0.000000
                                -0.000000 -0.000000 -0.000000 -0.000000 -0.000000  0.000000 -0.000000  0.000000 -0.000000  0.000000

                                   1 3d2-    1 3d2-    1 3d2-    1 3d2-    1 3d2-    1 3d2-    1 3d2-    1 3d2-    1 3d2-    1 3d2- 
                                   1 3d2-    1 3d2-    1 3d2-    1 3d2-    1 5g2-    1 5g4-    1 5g2-    1 5g4-    1 5g2-    1 5g4- 
                                   1 5g2-    1 5g4- 

   1.4   2    -0.2922  -31.1956  0.000227  0.002213  0.012091  0.043415  0.113593  0.211922  0.285175  0.293501  0.240210  0.148401
                                 0.049276  0.000930  0.001532  0.004294  0.000000  0.000000  0.000000  0.000000 -0.000000 -0.000000
                                -0.000000 -0.000000

   2.4   0     0.2714   -4.2224 -0.000025 -0.000064 -0.001246 -0.000405 -0.033123 -0.237591 -0.153503  0.062733 -0.127035  0.202833
                                -0.507552  0.108944  0.233763  1.272783 -0.000000 -0.000000  0.000000 -0.000000  0.000000  0.000000
                                 0.000000 -0.000000

   3.4   0     0.6114   -7.0549 -0.000025 -0.000717 -0.001626 -0.016250  0.039503  0.526135  0.284323 -0.280190  0.252304 -0.623180
                                 1.806157 -0.279856 -0.602977 -0.863730  0.000000  0.000000 -0.000000 -0.000000  0.000000  0.000000
                                -0.000000 -0.000000

                                   1 2pz     1 2pz     1 2pz     1 2pz     1 2pz     1 2pz     1 2pz     1 2pz     1 2pz     1 2pz  
                                   1 2pz     1 2pz     1 2pz     1 2pz     1 2pz     1 2pz     1 2pz     1 2pz     1 2pz     1 2pz  
                                   1 2pz     1 4f0     1 4f2+    1 4f0     1 4f2+    1 4f0     1 4f2+    1 4f0     1 4f2+    1 4f0  
                                   1 4f2+    1 6h2+    1 6h4+    1 6h0     1 6h2+    1 6h4+    1 6h0     1 6h2+    1 6h4+    1 6h0  


   1.5   2   -35.4214 -137.9896  0.000011  0.000097  0.000568  0.002583  0.009717  0.030847  0.082314  0.177246  0.291415  0.328995
                                 0.204880  0.055263  0.006726  0.000745  0.000276  0.000054 -0.000003  0.000002  0.001522 -0.002435
                                -0.000001  0.000000  0.000000 -0.000000 -0.000000  0.000000  0.000000 -0.000000 -0.000000  0.000000
                                 0.000000 -0.000000  0.000000  0.000000  0.000000 -0.000000 -0.000000 -0.000000  0.000000  0.000000

   2.5   2    -3.1265  -41.0401 -0.000004 -0.000036 -0.000209 -0.000956 -0.003615 -0.011643 -0.031803 -0.071175 -0.122214 -0.145991
                                -0.048508  0.213535  0.424649  0.363443  0.165782  0.017863 -0.001938  0.001218  0.005347 -0.020785
                                -0.000321 -0.000000 -0.000000  0.000000  0.000000 -0.000000 -0.000000  0.000000 -0.000000 -0.000000
                                 0.000000 -0.000000  0.000000  0.000000 -0.000000  0.000000 -0.000000  0.000000  0.000000  0.000000

   3.5   0     0.1223   -2.7928  0.000000  0.000000  0.000005  0.000002  0.000077  0.000015  0.000748 -0.000367  0.005594 -0.020572
                                -0.151238  0.118265  0.402939 -0.107599  0.077101 -0.115844  0.332005 -0.782481  0.131266 -0.429921
                                 1.429908  0.000000  0.000000 -0.000000  0.000000  0.000000  0.000000  0.000000  0.000000  0.000000
                                 0.000000  0.000000  0.000000  0.000000  0.000000 -0.000000  0.000000 -0.000000  0.000000  0.000000

   4.5   0     0.2251   -5.2497  0.000000  0.000003  0.000008  0.000075  0.000149  0.000929  0.001182  0.006595 -0.000626  0.051831
                                 0.295120 -0.248670 -0.819381  0.171259 -0.166834  0.286298 -0.552053  1.901712 -0.253503  0.832547
                                -0.952456 -0.000000 -0.000000  0.000000 -0.000000 -0.000000 -0.000000 -0.000000 -0.000000  0.000000
                                -0.000000 -0.000000 -0.000000  0.000000  0.000000 -0.000000 -0.000000 -0.000000  0.000000  0.000000

                                   1 3d1+    1 3d1+    1 3d1+    1 3d1+    1 3d1+    1 3d1+    1 3d1+    1 3d1+    1 3d1+    1 3d1+ 
                                   1 3d1+    1 3d1+    1 3d1+    1 3d1+    1 5g1+    1 5g3+    1 5g1+    1 5g3+    1 5g1+    1 5g3+ 
                                   1 5g1+    1 5g3+ 

   1.6   2    -0.2922  -31.1956  0.000227  0.002213  0.012091  0.043415  0.113593  0.211922  0.285175  0.293501  0.240210  0.148401
                                 0.049276  0.000930  0.001532  0.004294  0.000000  0.000000  0.000000  0.000000 -0.000000 -0.000000
                                 0.000000 -0.000000

   2.6   0     0.2714   -4.2224 -0.000025 -0.000064 -0.001246 -0.000405 -0.033123 -0.237591 -0.153503  0.062733 -0.127035  0.202833
                                -0.507552  0.108944  0.233763  1.272783 -0.000000  0.000000  0.000000 -0.000000 -0.000000  0.000000
                                 0.000000 -0.000000

   3.6   0     0.6114   -7.0549 -0.000025 -0.000717 -0.001626 -0.016250  0.039503  0.526135  0.284323 -0.280190  0.252304 -0.623180
                                 1.806157 -0.279856 -0.602977 -0.863730  0.000000  0.000000 -0.000000 -0.000000  0.000000  0.000000
                                -0.000000 -0.000000

                                   1 3d1-    1 3d1-    1 3d1-    1 3d1-    1 3d1-    1 3d1-    1 3d1-    1 3d1-    1 3d1-    1 3d1- 
                                   1 3d1-    1 3d1-    1 3d1-    1 3d1-    1 5g1-    1 5g3-    1 5g1-    1 5g3-    1 5g1-    1 5g3- 
                                   1 5g1-    1 5g3- 

   1.7   2    -0.2922  -31.1956  0.000227  0.002213  0.012091  0.043415  0.113593  0.211922  0.285175  0.293501  0.240210  0.148401
                                 0.049276  0.000930  0.001532  0.004294  0.000000  0.000000  0.000000  0.000000 -0.000000 -0.000000
                                -0.000000 -0.000000

   2.7   0     0.2714   -4.2224 -0.000025 -0.000064 -0.001246 -0.000405 -0.033123 -0.237591 -0.153503  0.062733 -0.127035  0.202833
                                -0.507552  0.108944  0.233763  1.272783 -0.000000 -0.000000  0.000000  0.000000 -0.000000 -0.000000
                                 0.000000 -0.000000

   3.7   0     0.6114   -7.0549 -0.000025 -0.000717 -0.001626 -0.016250  0.039503  0.526135  0.284323 -0.280190  0.252304 -0.623180
                                 1.806157 -0.279856 -0.602977 -0.863730  0.000000  0.000000 -0.000000 -0.000000  0.000000  0.000000
                                -0.000000 -0.000000

                                   1 4f2-    1 4f2-    1 4f2-    1 4f2-    1 4f2-    1 6h4-    1 6h2-    1 6h4-    1 6h2-    1 6h4- 
                                   1 6h2- 

   1.8   0     1.1578   -7.8744  0.004620 -0.013909  0.054833 -0.144494  1.067358 -0.000000  0.000000  0.000000  0.000000 -0.000000
                                -0.000000

   2.8   0     3.1180  -11.0301 -0.007699  0.076769 -0.089401  1.227118 -0.561907 -0.000000 -0.000000  0.000000  0.000000 -0.000000
                                -0.000000

 HOMO      6.1    -0.019494 =      -0.5305eV
 LUMO      3.2     0.122336 =       3.3289eV
 LUMO-HOMO         0.141830 =       3.8594eV


 **********************************************************************************************************************************
 DATASETS  * FILE   NREC   LENGTH (MB)   RECORD NAMES
              1      20      292.34       500      610      700      900      950      970     1000      129      960     1100   
                                          VAR    BASINP    GEOM    SYMINP    ZMAT    AOBASIS   BASIS     P2S    ABASIS      S 
                                         1400     1410     1200     1210     1080     1600     1650     1300     1700     1380   
                                           T        V       H0       H01     AOSYM     SMH    MOLCAS    ERIS     OPER     JKOP   

              2      23       55.69       200      700     1000      520     4202     5202     2101     2103     2105     2107   
                                        OPTIONS   GEOM     BASIS   MCVARS     RHF     MCSCF     RHF      RHF      RHF      RHF  
                                         2112     5202(1)  2114     2116     2118     2120     2122     2124     2126     2128   
                                          RHF     MCSCF     RHF      RHF      RHF      RHF      RHF      RHF      RHF      RHF  
                                         2108     2109     2110   
                                          RHF      RHF      RHF  

 PROGRAMS   *        TOTAL       RHF  RCCSD(T)       RHF  RCCSD(T)       RHF  RCCSD(T)       RHF     MULTI       POP       RHF
 CPU TIMES  *      4888.46      3.87     48.98      2.55    133.06      3.18    152.67      0.48      5.12      0.00     22.91
 REAL TIME  *      5465.46 SEC
 DISK USED  *         1.47 GB      
 **********************************************************************************************************************************
 SETTING SCF(16)        =     -1638.96372622  AU                              
 SETTING _CC_NORM_MAX   =         2.00000000                                  


1PROGRAM * CCSD (Restricted open-shell coupled cluster)     Authors: C. Hampel, H.-J. Werner, 1991, M. Deegan, P.J. Knowles, 1992


 Convergence thresholds:  THRVAR = 1.00D-08  THRDEN = 1.00D-06

 CCSD(T)     terms to be evaluated (factor= 1.000)


 Number of closed-shell orbitals:  15 (   6   2   2   1   2   1   1   0 )
 Number of external orbitals:     247 (  59  38  38  21  38  21  21  11 )

 Memory could be reduced to 52.53 Mwords without degradation in triples

 Number of N-1 electron functions:              30
 Number of N-2 electron functions:             435
 Number of singly external CSFs:              1290
 Number of doubly external CSFs:           2680542
 Total number of CSFs:                     2681832

 Molecular orbitals read from record     2110.2  Type=RHF/CANONICAL (state 1.1)

 Integral transformation finished. Total CPU:   3.00 sec, npass=  1  Memory used:  10.15 MW

 Starting RMP2 calculation

 Wavefunction is spin-projected

 ITER.      SQ.NORM     CORR.ENERGY   TOTAL ENERGY   ENERGY CHANGE        DEN1      VAR(S)    VAR(P)  DIIS     TIME
   1      1.16379929    -1.55323837 -1640.51696459    -1.55323837    -0.00200089  0.11D-12  0.17D-02  1  1     3.32
   2      1.16841113    -1.55536332 -1640.51908954    -0.00212495    -0.00005948  0.20D-13  0.93D-04  2  2     3.58
   3      1.16975658    -1.55568197 -1640.51940819    -0.00031865    -0.00000099  0.18D-14  0.17D-05  3  3     3.85
   4      1.16988805    -1.55569754 -1640.51942376    -0.00001557    -0.00000002  0.16D-15  0.43D-07  4  4     4.12
   5      1.16989442    -1.55569774 -1640.51942397    -0.00000021    -0.00000000  0.98D-17  0.69D-09  5  5     4.37

 Norm of t1 vector:      0.00000146      S-energy:    -0.00000000      T1 diagnostic:  0.00000019
 Norm of t2 vector:      0.41218250      P-energy:    -1.55569774
                                         Alpha-Beta:  -1.06143417
                                         Alpha-Alpha: -0.24713179
                                         Beta-Beta:   -0.24713179

 Spin contamination <S**2-Sz**2-Sz>     0.00000000
  Reference energy                  -1638.963726224497
  RHF-RMP2 correlation energy          -1.555697744389
 !RHF-RMP2 energy                   -1640.519423968886
 (NB above energy spin projected)

 Starting RCCSD calculation

 ITER.      SQ.NORM     CORR.ENERGY   TOTAL ENERGY   ENERGY CHANGE        DEN1      VAR(S)    VAR(P)  DIIS     TIME
   1      1.12770418    -1.35249714 -1640.31622336    -1.35249714    -0.09234713  0.18D-01  0.16D-01  0  0    14.89
   2      1.16370686    -1.43399652 -1640.39772274    -0.08149938    -0.02181655  0.52D-02  0.56D-02  1  1    24.63
   3      1.17013788    -1.41307540 -1640.37680162     0.02092112    -0.00170361  0.18D-02  0.54D-03  2  2    34.73
   4      1.18039772    -1.41424664 -1640.37797287    -0.00117124    -0.00072534  0.93D-03  0.26D-03  3  3    45.04
   5      1.21110999    -1.41833897 -1640.38206519    -0.00409232    -0.00010272  0.15D-03  0.36D-04  4  4    55.04
   6      1.21825319    -1.41897971 -1640.38270593    -0.00064074    -0.00003884  0.50D-04  0.25D-04  5  5    65.31
   7      1.22464004    -1.41926201 -1640.38298823    -0.00028230    -0.00001071  0.12D-04  0.87D-05  6  6    75.14
   8      1.22700094    -1.41929737 -1640.38302360    -0.00003536    -0.00000310  0.35D-05  0.25D-05  6  1    85.05
   9      1.22879945    -1.41936735 -1640.38309357    -0.00006997    -0.00000044  0.44D-06  0.31D-06  6  2    94.92
  10      1.22901902    -1.41935024 -1640.38307646     0.00001711    -0.00000011  0.15D-06  0.74D-07  6  5   105.38
  11      1.22929881    -1.41936004 -1640.38308627    -0.00000980    -0.00000002  0.23D-07  0.76D-08  6  4   116.11
  12      1.22938668    -1.41936318 -1640.38308941    -0.00000314    -0.00000000  0.65D-08  0.21D-08  6  3   126.43
  13      1.22936187    -1.41936154 -1640.38308777     0.00000164    -0.00000000  0.42D-08  0.14D-08  6  6   136.41
  14      1.22945084    -1.41936578 -1640.38309201    -0.00000424    -0.00000000  0.18D-09  0.79D-10  6  2   145.83
  15      1.22946160    -1.41936640 -1640.38309263    -0.00000062    -0.00000000  0.25D-10  0.30D-10  6  4   156.21

 Norm of t1 vector:      0.26470483      S-energy:    -0.00000001      T1 diagnostic:  0.03417325
                                                                       D1 diagnostic:  0.16433175
 Norm of t2 vector:      0.39924048      P-energy:    -1.41936640
                                         Alpha-Beta:  -1.00109593
                                         Alpha-Alpha: -0.20913523
                                         Beta-Beta:   -0.20913523

 Singles amplitudes (print threshold =  0.500E-01):

         I         SYM. A    A   T(IA) [Alpha-Alpha]

         6         1         1     -0.13891138
         6         1         4     -0.08196377
 
         I         SYM. A    A   T(IA) [Beta-Beta]

         6         1         1     -0.13891138
         6         1         4     -0.08196377

 Doubles amplitudes (print threshold =  0.500E-01):

         I         J         SYM. A    SYM. B    A         B      T(IJ, AB) [Alpha-Beta]

         6         6         2         2         2         2     -0.08035104
         6         6         3         3         2         2     -0.08035104
         6         6         5         5         2         2     -0.08035104

 Spin contamination <S**2-Sz**2-Sz>     0.00000000

 Memory could be reduced to 56.11 Mwords without degradation in triples
 

  Correlated core orbitals:             1.1       2.1       3.1       1.2       2.2       1.3       2.3       1.5       2.5
  Orbital energies:                  -328.5957  -40.6226   -4.8144  -35.4214   -3.1265  -35.4214   -3.1265  -35.4214   -3.1265
 
  RCCSD core-core energy               -0.480801673609
  RCCSD core-valence energy            -0.436351559325
  RCCSD valence correlation energy     -0.502213170628
 

 RESULTS
 =======

  Reference energy                  -1638.963726224497
  RCCSD singles energy                 -0.000000007346
  RCCSD pair energy                    -1.419366396214
  RCCSD correlation energy             -1.419366403561
  Triples (T) contribution             -0.042750531216
  Total correlation energy             -1.462116934776
 
  RHF-RCCSD energy                  -1640.383092628058
  RHF-RCCSD[T] energy               -1640.432571372830
  RHF-RCCSD-T energy                -1640.425295412518
 !RHF-RCCSD(T) energy               -1640.425843159273

 Program statistics:

 Available memory in ccsd:               511997950
 Min. memory needed in ccsd:               7528767
 Max. memory used in ccsd:                10914171
 Max. memory used in cckext:               8424781 (15 integral passes)
 Max. memory used in cckint:              10147889 ( 1 integral passes)



 **********************************************************************************************************************************
 DATASETS  * FILE   NREC   LENGTH (MB)   RECORD NAMES
              1      20      292.34       500      610      700      900      950      970     1000      129      960     1100   
                                          VAR    BASINP    GEOM    SYMINP    ZMAT    AOBASIS   BASIS     P2S    ABASIS      S 
                                         1400     1410     1200     1210     1080     1600     1650     1300     1700     1380   
                                           T        V       H0       H01     AOSYM     SMH    MOLCAS    ERIS     OPER     JKOP   

              2      23       55.69       200      700     1000      520     4202     5202     2101     2103     2105     2107   
                                        OPTIONS   GEOM     BASIS   MCVARS     RHF     MCSCF     RHF      RHF      RHF      RHF  
                                         2112     5202(1)  2114     2116     2118     2120     2122     2124     2126     2128   
                                          RHF     MCSCF     RHF      RHF      RHF      RHF      RHF      RHF      RHF      RHF  
                                         2108     2109     2110   
                                          RHF      RHF      RHF  

 PROGRAMS   *        TOTAL  RCCSD(T)       RHF  RCCSD(T)       RHF  RCCSD(T)       RHF  RCCSD(T)       RHF     MULTI       POP
 CPU TIMES  *      5529.15    640.68      3.87     48.98      2.55    133.06      3.18    152.67      0.48      5.12      0.00
 REAL TIME  *      6161.65 SEC
 DISK USED  *         1.54 GB      
 **********************************************************************************************************************************
 SETTING CCSD(16)       =     -1640.42584316  AU                              
 Output type csv         
                                                                                                                                                                                                                                                                

         SCF,CCSD
   -1638.949996,   -1640.315067
   -1638.963646,   -1640.383877
   -1638.681053,   -1639.988830
   -1638.728149,   -1640.108056
   -1638.084422,   -1639.354085
   -1636.819963,   -1637.991003
   -1634.782448,   -1635.871066
   -1631.885144,   -1632.903128
   -1628.123275,   -1629.067402
   -1623.016334,   -1623.928824
   -1616.883186,   -1617.757628
   -1609.584033,   -1610.427991
   -1601.054699,   -1601.875875
   -1591.321808,   -1592.113664
   -1490.604370,   -1491.084117
   -1638.963726,   -1640.425843
                                                  

        RCCSD(T)        RHF-SCF         RCCSD(T)        RHF-SCF         RCCSD(T)        RHF-SCF         RCCSD(T)        RHF-SCF 
  -1640.42584316  -1638.96372622  -1491.08411658  -1490.60437041  -1592.11366423  -1591.32180801  -1601.87587500  -1601.05469866
 **********************************************************************************************************************************
 Variable memory released
