 Entering Gaussian System, Link 0=g16
 Initial command:
 /home1/apps/gaussian/16rA.03/g16/l1.exe "/tmp/Gau-154860.inp" -scrdir="/tmp/"
 Entering Link 1 = /home1/apps/gaussian/16rA.03/g16/l1.exe PID=    154861.
  
 Copyright (c) 1988,1990,1992,1993,1995,1998,2003,2009,2016,
            Gaussian, Inc.  All Rights Reserved.
  
 This is part of the Gaussian(R) 16 program.  It is based on
 the Gaussian(R) 09 system (copyright 2009, Gaussian, Inc.),
 the Gaussian(R) 03 system (copyright 2003, Gaussian, Inc.),
 the Gaussian(R) 98 system (copyright 1998, Gaussian, Inc.),
 the Gaussian(R) 94 system (copyright 1995, Gaussian, Inc.),
 the Gaussian 92(TM) system (copyright 1992, Gaussian, Inc.),
 the Gaussian 90(TM) system (copyright 1990, Gaussian, Inc.),
 the Gaussian 88(TM) system (copyright 1988, Gaussian, Inc.),
 the Gaussian 86(TM) system (copyright 1986, Carnegie Mellon
 University), and the Gaussian 82(TM) system (copyright 1983,
 Carnegie Mellon University). Gaussian is a federally registered
 trademark of Gaussian, Inc.
  
 This software contains proprietary and confidential information,
 including trade secrets, belonging to Gaussian, Inc.
  
 This software is provided under written license and may be
 used, copied, transmitted, or stored only in accord with that
 written license.
  
 The following legend is applicable only to US Government
 contracts under FAR:
  
                    RESTRICTED RIGHTS LEGEND
  
 Use, reproduction and disclosure by the US Government is
 subject to restrictions as set forth in subparagraphs (a)
 and (c) of the Commercial Computer Software - Restricted
 Rights clause in FAR 52.227-19.
  
 Gaussian, Inc.
 340 Quinnipiac St., Bldg. 40, Wallingford CT 06492
  
  
 ---------------------------------------------------------------
 Warning -- This program may not be used in any manner that
 competes with the business of Gaussian, Inc. or will provide
 assistance to any competitor of Gaussian, Inc.  The licensee
 of this program is prohibited from giving any competitor of
 Gaussian, Inc. access to this program.  By using this program,
 the user acknowledges that Gaussian, Inc. is engaged in the
 business of creating and licensing software in the field of
 computational chemistry and represents and warrants to the
 licensee that it is not a competitor of Gaussian, Inc. and that
 it will not use this program in any manner prohibited above.
 ---------------------------------------------------------------
  

 Cite this work as:
 Gaussian 16, Revision A.03,
 M. J. Frisch, G. W. Trucks, H. B. Schlegel, G. E. Scuseria, 
 M. A. Robb, J. R. Cheeseman, G. Scalmani, V. Barone, 
 G. A. Petersson, H. Nakatsuji, X. Li, M. Caricato, A. V. Marenich, 
 J. Bloino, B. G. Janesko, R. Gomperts, B. Mennucci, H. P. Hratchian, 
 J. V. Ortiz, A. F. Izmaylov, J. L. Sonnenberg, D. Williams-Young, 
 F. Ding, F. Lipparini, F. Egidi, J. Goings, B. Peng, A. Petrone, 
 T. Henderson, D. Ranasinghe, V. G. Zakrzewski, J. Gao, N. Rega, 
 G. Zheng, W. Liang, M. Hada, M. Ehara, K. Toyota, R. Fukuda, 
 J. Hasegawa, M. Ishida, T. Nakajima, Y. Honda, O. Kitao, H. Nakai, 
 T. Vreven, K. Throssell, J. A. Montgomery, Jr., J. E. Peralta, 
 F. Ogliaro, M. J. Bearpark, J. J. Heyd, E. N. Brothers, K. N. Kudin, 
 V. N. Staroverov, T. A. Keith, R. Kobayashi, J. Normand, 
 K. Raghavachari, A. P. Rendell, J. C. Burant, S. S. Iyengar, 
 J. Tomasi, M. Cossi, J. M. Millam, M. Klene, C. Adamo, R. Cammi, 
 J. W. Ochterski, R. L. Martin, K. Morokuma, O. Farkas, 
 J. B. Foresman, and D. J. Fox, Gaussian, Inc., Wallingford CT, 2016.
 
 ******************************************
 Gaussian 16:  ES64L-G16RevA.03 25-Dec-2016
                26-Mar-2018 
 ******************************************
 %mem=80GB
 %cpu=0-31
 SetSPE:  set environment variable "MP_BIND" = "yes"
 SetSPE:  set environment variable "MP_BLIST" = "0,1,2,3,4,5,6,7,8,9,10,11,12,13,14,15,16,17,18,19,20,21,22,23,24,25,26,27,28,29,30,31"
 Will use up to   32 processors via shared memory.
 %chk=tz.chk
 %rwf=/scratch/04843/gwang18/nio/
 ----------------------------------------------------------------------
 #P ROCCSD(T)=(MaxCyc=150, Full)/Gen SCF=(maxcycle=400) Pseudo=Read Int
 egral(NoXCTest) Pop=Regular MaxDisk=500GB Guess=Read IOp(5/15=2)
 ----------------------------------------------------------------------
 1/38=1,172=1/1;
 2/12=2,17=6,18=5,40=1/2;
 3/5=7,11=2,16=1,17=8,25=1,30=1,47=8,116=101/1,2,3;
 4/5=1/1;
 5/5=2,7=400,15=2,38=6/2;
 8/5=-1,6=4,9=120000,10=90/1,4;
 9/5=7,6=150,14=2/13;
 6//1;
 99/5=1,9=1/99;
 Leave Link    1 at Mon Mar 26 16:08:32 2018, MaxMem= 10737418240 cpu:               8.6 elap:               0.3
 (Enter /home1/apps/gaussian/16rA.03/g16/l101.exe)
 ---
 NiO
 ---
 Symbolic Z-matrix:
 Charge =  0 Multiplicity = 3
 Ni                    0.        0.        0. 
 O                     0.        0.        1.5 
 
 ITRead=  0  0
 MicOpt= -1 -1
 NAtoms=      2 NQM=        2 NQMF=       0 NMMI=      0 NMMIF=      0
                NMic=       0 NMicF=      0.
                    Isotopes and Nuclear Properties:
 (Nuclear quadrupole moments (NQMom) in fm**2, nuclear magnetic moments (NMagM)
  in nuclear magnetons)

  Atom         1           2
 IAtWgt=          58          16
 AtmWgt=  57.9353471  15.9949146
 NucSpn=           0           0
 AtZEff=  -0.0000000  -0.0000000
 NQMom=    0.0000000   0.0000000
 NMagM=    0.0000000   0.0000000
 AtZNuc=  28.0000000   8.0000000
 Leave Link  101 at Mon Mar 26 16:08:33 2018, MaxMem= 10737418240 cpu:               3.2 elap:               0.1
 (Enter /home1/apps/gaussian/16rA.03/g16/l202.exe)
                          Input orientation:                          
 ---------------------------------------------------------------------
 Center     Atomic      Atomic             Coordinates (Angstroms)
 Number     Number       Type             X           Y           Z
 ---------------------------------------------------------------------
      1         28           0        0.000000    0.000000    0.000000
      2          8           0        0.000000    0.000000    1.500000
 ---------------------------------------------------------------------
 Stoichiometry    NiO(3)
 Framework group  C*V[C*(ONi)]
 Deg. of freedom     1
 Full point group                 C*V     NOp   4
 Largest Abelian subgroup         C2V     NOp   4
 Largest concise Abelian subgroup C1      NOp   1
                         Standard orientation:                         
 ---------------------------------------------------------------------
 Center     Atomic      Atomic             Coordinates (Angstroms)
 Number     Number       Type             X           Y           Z
 ---------------------------------------------------------------------
      1         28           0        0.000000    0.000000    0.333333
      2          8           0        0.000000    0.000000   -1.166667
 ---------------------------------------------------------------------
 Rotational constants (GHZ):           0.0000000          17.9197268          17.9197268
 Leave Link  202 at Mon Mar 26 16:08:33 2018, MaxMem= 10737418240 cpu:               0.8 elap:               0.1
 (Enter /home1/apps/gaussian/16rA.03/g16/l301.exe)
 General basis read from cards:  (5D, 7F)
 Centers:       1
 S 1 1.00
     Exponent=  5.0459910000D+06 Coefficients=  1.0000000000D+00
 S 1 1.00
     Exponent=  7.5561420000D+05 Coefficients=  1.0000000000D+00
 S 1 1.00
     Exponent=  1.7195680000D+05 Coefficients=  1.0000000000D+00
 S 1 1.00
     Exponent=  4.8704790000D+04 Coefficients=  1.0000000000D+00
 S 1 1.00
     Exponent=  1.5888410000D+04 Coefficients=  1.0000000000D+00
 S 1 1.00
     Exponent=  5.7351230000D+03 Coefficients=  1.0000000000D+00
 S 1 1.00
     Exponent=  2.2361370000D+03 Coefficients=  1.0000000000D+00
 S 1 1.00
     Exponent=  9.2664680000D+02 Coefficients=  1.0000000000D+00
 S 1 1.00
     Exponent=  4.0317430000D+02 Coefficients=  1.0000000000D+00
 S 1 1.00
     Exponent=  1.8234760000D+02 Coefficients=  1.0000000000D+00
 S 1 1.00
     Exponent=  8.4548850000D+01 Coefficients=  1.0000000000D+00
 S 1 1.00
     Exponent=  3.8396340000D+01 Coefficients=  1.0000000000D+00
 S 1 1.00
     Exponent=  1.8458590000D+01 Coefficients=  1.0000000000D+00
 S 1 1.00
     Exponent=  8.8635480000D+00 Coefficients=  1.0000000000D+00
 S 1 1.00
     Exponent=  3.9162270000D+00 Coefficients=  1.0000000000D+00
 S 1 1.00
     Exponent=  1.8388700000D+00 Coefficients=  1.0000000000D+00
 S 1 1.00
     Exponent=  8.0436200000D-01 Coefficients=  1.0000000000D+00
 S 1 1.00
     Exponent=  1.6979700000D-01 Coefficients=  1.0000000000D+00
 S 1 1.00
     Exponent=  7.9306000000D-02 Coefficients=  1.0000000000D+00
 S 1 1.00
     Exponent=  3.4677000000D-02 Coefficients=  1.0000000000D+00
 S 1 1.00
     Exponent=  5.7408000000D+00 Coefficients=  1.0000000000D+00
 S 1 1.00
     Exponent=  1.5172000000D+00 Coefficients=  1.0000000000D+00
 S 1 1.00
     Exponent=  1.5160000000D-02 Coefficients=  1.0000000000D+00
 P 1 1.00
     Exponent=  2.1027920000D+04 Coefficients=  1.0000000000D+00
 P 1 1.00
     Exponent=  4.9775600000D+03 Coefficients=  1.0000000000D+00
 P 1 1.00
     Exponent=  1.6167400000D+03 Coefficients=  1.0000000000D+00
 P 1 1.00
     Exponent=  6.1867180000D+02 Coefficients=  1.0000000000D+00
 P 1 1.00
     Exponent=  2.6251830000D+02 Coefficients=  1.0000000000D+00
 P 1 1.00
     Exponent=  1.1969070000D+02 Coefficients=  1.0000000000D+00
 P 1 1.00
     Exponent=  5.7465850000D+01 Coefficients=  1.0000000000D+00
 P 1 1.00
     Exponent=  2.8528290000D+01 Coefficients=  1.0000000000D+00
 P 1 1.00
     Exponent=  1.4521480000D+01 Coefficients=  1.0000000000D+00
 P 1 1.00
     Exponent=  7.4538500000D+00 Coefficients=  1.0000000000D+00
 P 1 1.00
     Exponent=  3.7235530000D+00 Coefficients=  1.0000000000D+00
 P 1 1.00
     Exponent=  1.8098130000D+00 Coefficients=  1.0000000000D+00
 P 1 1.00
     Exponent=  8.5133600000D-01 Coefficients=  1.0000000000D+00
 P 1 1.00
     Exponent=  3.2481400000D-01 Coefficients=  1.0000000000D+00
 P 1 1.00
     Exponent=  1.1952200000D-01 Coefficients=  1.0000000000D+00
 P 1 1.00
     Exponent=  4.2366000000D-02 Coefficients=  1.0000000000D+00
 P 1 1.00
     Exponent=  8.6879000000D+00 Coefficients=  1.0000000000D+00
 P 1 1.00
     Exponent=  2.0080000000D+00 Coefficients=  1.0000000000D+00
 P 1 1.00
     Exponent=  1.5020000000D-02 Coefficients=  1.0000000000D+00
 D 1 1.00
     Exponent=  1.4025270000D+02 Coefficients=  1.0000000000D+00
 D 1 1.00
     Exponent=  4.1726100000D+01 Coefficients=  1.0000000000D+00
 D 1 1.00
     Exponent=  1.5398100000D+01 Coefficients=  1.0000000000D+00
 D 1 1.00
     Exponent=  6.2771000000D+00 Coefficients=  1.0000000000D+00
 D 1 1.00
     Exponent=  2.6185000000D+00 Coefficients=  1.0000000000D+00
 D 1 1.00
     Exponent=  1.0526000000D+00 Coefficients=  1.0000000000D+00
 D 1 1.00
     Exponent=  3.9160000000D-01 Coefficients=  1.0000000000D+00
 D 1 1.00
     Exponent=  1.2620000000D-01 Coefficients=  1.0000000000D+00
 D 1 1.00
     Exponent=  5.7882000000D+00 Coefficients=  1.0000000000D+00
 D 1 1.00
     Exponent=  2.7127000000D+00 Coefficients=  1.0000000000D+00
 D 1 1.00
     Exponent=  4.0670000000D-02 Coefficients=  1.0000000000D+00
 F 1 1.00
     Exponent=  8.0748000000D+00 Coefficients=  1.0000000000D+00
 F 1 1.00
     Exponent=  3.1196000000D+00 Coefficients=  1.0000000000D+00
 F 1 1.00
     Exponent=  1.1286000000D+00 Coefficients=  1.0000000000D+00
 F 1 1.00
     Exponent=  4.0830000000D-01 Coefficients=  1.0000000000D+00
 G 1 1.00
     Exponent=  7.3562000000D+00 Coefficients=  1.0000000000D+00
 G 1 1.00
     Exponent=  2.9771000000D+00 Coefficients=  1.0000000000D+00
 G 1 1.00
     Exponent=  1.2048500000D+00 Coefficients=  1.0000000000D+00
 ****
 Centers:       2
 S 1 1.00
     Exponent=  1.5330000000D+04 Coefficients=  1.0000000000D+00
 S 1 1.00
     Exponent=  2.2990000000D+03 Coefficients=  1.0000000000D+00
 S 1 1.00
     Exponent=  5.2240000000D+02 Coefficients=  1.0000000000D+00
 S 1 1.00
     Exponent=  1.4730000000D+02 Coefficients=  1.0000000000D+00
 S 1 1.00
     Exponent=  4.7550000000D+01 Coefficients=  1.0000000000D+00
 S 1 1.00
     Exponent=  1.6760000000D+01 Coefficients=  1.0000000000D+00
 S 1 1.00
     Exponent=  6.2070000000D+00 Coefficients=  1.0000000000D+00
 S 1 1.00
     Exponent=  6.8820000000D-01 Coefficients=  1.0000000000D+00
 S 1 1.00
     Exponent=  1.7520000000D+00 Coefficients=  1.0000000000D+00
 S 1 1.00
     Exponent=  2.3840000000D-01 Coefficients=  1.0000000000D+00
 S 1 1.00
     Exponent=  7.8450000000D+00 Coefficients=  1.0000000000D+00
 S 1 1.00
     Exponent=  2.1032000000D+01 Coefficients=  1.0000000000D+00
 S 1 1.00
     Exponent=  7.3760000000D-02 Coefficients=  1.0000000000D+00
 P 1 1.00
     Exponent=  3.4460000000D+01 Coefficients=  1.0000000000D+00
 P 1 1.00
     Exponent=  7.7490000000D+00 Coefficients=  1.0000000000D+00
 P 1 1.00
     Exponent=  2.2800000000D+00 Coefficients=  1.0000000000D+00
 P 1 1.00
     Exponent=  7.1560000000D-01 Coefficients=  1.0000000000D+00
 P 1 1.00
     Exponent=  2.1400000000D-01 Coefficients=  1.0000000000D+00
 P 1 1.00
     Exponent=  1.5159000000D+01 Coefficients=  1.0000000000D+00
 P 1 1.00
     Exponent=  5.7437000000D+01 Coefficients=  1.0000000000D+00
 P 1 1.00
     Exponent=  5.9740000000D-02 Coefficients=  1.0000000000D+00
 D 1 1.00
     Exponent=  2.3140000000D+00 Coefficients=  1.0000000000D+00
 D 1 1.00
     Exponent=  6.4500000000D-01 Coefficients=  1.0000000000D+00
 D 1 1.00
     Exponent=  1.5858000000D+01 Coefficients=  1.0000000000D+00
 D 1 1.00
     Exponent=  2.1400000000D-01 Coefficients=  1.0000000000D+00
 F 1 1.00
     Exponent=  1.4280000000D+00 Coefficients=  1.0000000000D+00
 F 1 1.00
     Exponent=  5.0000000000D-01 Coefficients=  1.0000000000D+00
 ****
 ======================================================================================================
                                       Pseudopotential Parameters
 ======================================================================================================
  Center     Atomic      Valence      Angular      Power
  Number     Number     Electrons     Momentum     of R      Exponent        Coefficient   SO-Coeffient
 ======================================================================================================
    1         28           18
                                      D and up 
                                                     1        4.2287892       18.00000000    0.00000000
                                                     3        4.4620242       76.11820629    0.00000000
                                                     2        4.4496046      -82.85330412    0.00000000
                                      S - D
                                                     2       11.6270006      120.84003628    0.00000000
                                      P - D
                                                     2        9.5732709       58.54148726    0.00000000
    2          8            6
                                      P and up 
                                                     1        9.2979390        6.00000000    0.00000000
                                                     3        8.8649220       55.78763416    0.00000000
                                                     2        8.6292567      -38.81978498    0.00000000
                                      S - P
                                                     2        8.7192445       38.41914135    0.00000000
 ======================================================================================================
 Ernie: Thresh=  0.10000D-02 Tol=  0.10000D-05 Strict=F.
 There are   144 symmetry adapted cartesian basis functions of A1  symmetry.
 There are    30 symmetry adapted cartesian basis functions of A2  symmetry.
 There are    69 symmetry adapted cartesian basis functions of B1  symmetry.
 There are    69 symmetry adapted cartesian basis functions of B2  symmetry.
 There are   114 symmetry adapted basis functions of A1  symmetry.
 There are    27 symmetry adapted basis functions of A2  symmetry.
 There are    60 symmetry adapted basis functions of B1  symmetry.
 There are    60 symmetry adapted basis functions of B2  symmetry.
   261 basis functions,   312 primitive gaussians,   312 cartesian basis functions
    13 alpha electrons       11 beta electrons
       nuclear repulsion energy        38.1007591862 Hartrees.
 IExCor=    0 DFT=F Ex=HF Corr=None ExCW=0 ScaHFX=  1.000000
 ScaDFX=  1.000000  1.000000  1.000000  1.000000 ScalE2=  1.000000  1.000000
 IRadAn=      5 IRanWt=     -1 IRanGd=            0 ICorTp=0 IEmpDi=  4
 NAtoms=    2 NActive=    2 NUniq=    2 SFac= 1.00D+00 NAtFMM=   60 NAOKFM=F Big=F
 Integral buffers will be    131072 words long.
 Raffenetti 2 integral format.
 Two-electron integral symmetry is turned on.
 Leave Link  301 at Mon Mar 26 16:08:34 2018, MaxMem= 10737418240 cpu:               8.0 elap:               0.3
 (Enter /home1/apps/gaussian/16rA.03/g16/l302.exe)
 NPDir=0 NMtPBC=     1 NCelOv=     1 NCel=       1 NClECP=     1 NCelD=      1
         NCelK=      1 NCelE2=     1 NClLst=     1 CellRange=     0.0.
 One-electron integrals computed using PRISM.
 One-electron integral symmetry used in STVInt
   4 Symmetry operations used in ECPInt.
 ECPInt:  NShTT=    3828 NPrTT=    3828 LenC2=    3540 LenP2D=    3539.
 LDataN:  DoStor=T MaxTD1= 8 Len=  415
 NBasis=   261 RedAO= T EigKep=  3.03D-06  NBF=   114    27    60    60
 NBsUse=   261 1.00D-06 EigRej= -1.00D+00 NBFU=   114    27    60    60
 Leave Link  302 at Mon Mar 26 16:08:35 2018, MaxMem= 10737418240 cpu:              30.8 elap:               1.1
 (Enter /home1/apps/gaussian/16rA.03/g16/l303.exe)
 DipDrv:  MaxL=1.
 Leave Link  303 at Mon Mar 26 16:08:36 2018, MaxMem= 10737418240 cpu:               2.4 elap:               0.1
 (Enter /home1/apps/gaussian/16rA.03/g16/l401.exe)
 Initial guess from the checkpoint file:  "tz.chk"
 B after Tr=     0.000000    0.000000    0.000000
         Rot=    1.000000    0.000000    0.000000    0.000000 Ang=   0.00 deg.
 Guess basis will be translated and rotated to current coordinates.
 JPrj=2 DoOrth=T DoCkMO=T.
 Initial guess orbital symmetries:
       Occupied  (SG) (PI) (PI) (SG) (SG) (SG) (DLTA) (DLTA) (PI)
                 (PI) (SG) (PI) (PI)
       Virtual   (SG) (PI) (PI) (SG) (SG) (PI) (PI) (SG) (DLTA)
                 (DLTA) (PI) (PI) (SG) (SG) (SG) (PI) (PI) (PI)
                 (PI) (SG) (DLTA) (DLTA) (SG) (PI) (PI) (SG) (SG)
                 (DLTA) (DLTA) (PI) (PI) (SG) (PI) (PI) (SG) (PI)
                 (PI) (SG) (PHI) (PHI) (DLTA) (DLTA) (PI) (PI)
                 (SG) (DLTA) (DLTA) (PI) (PI) (SG) (SG) (SG) (PHI)
                 (PHI) (DLTA) (DLTA) (DLTA) (DLTA) (PI) (PI) (SG)
                 (PI) (PI) (SG) (PI) (PI) (SG) (PI) (PI) (PHI)
                 (PHI) (SG) (DLTA) (DLTA) (PI) (PI) (DLTA) (DLTA)
                 (SG) (PI) (PI) (SG) (PHI) (PHI) (?A) (?A) (SG)
                 (DLTA) (DLTA) (PI) (PI) (SG) (PHI) (PHI) (DLTA)
                 (DLTA) (PI) (PI) (SG) (DLTA) (DLTA) (SG) (PI)
                 (PI) (PI) (PI) (SG) (SG) (DLTA) (DLTA) (PI) (PI)
                 (SG) (PHI) (PHI) (DLTA) (DLTA) (PI) (PI) (SG)
                 (PHI) (PHI) (?A) (?A) (DLTA) (DLTA) (PI) (PI)
                 (SG) (PI) (PI) (SG) (PI) (PI) (SG) (SG) (SG) (DLTA)
                 (DLTA) (PI) (PI) (SG) (DLTA) (DLTA) (PHI) (PHI)
                 (PI) (PI) (SG) (PI) (PI) (SG) (SG) (PHI) (PHI)
                 (DLTA) (DLTA) (?A) (?A) (PI) (PI) (SG) (DLTA)
                 (DLTA) (PI) (PI) (SG) (SG) (DLTA) (DLTA) (PI)
                 (PI) (SG) (PI) (PI) (SG) (PI) (PI) (SG) (DLTA)
                 (DLTA) (PI) (PI) (SG) (SG) (SG) (PI) (PI) (SG)
                 (PI) (PI) (SG) (SG) (DLTA) (DLTA) (PI) (PI) (SG)
                 (SG) (PI) (PI) (SG) (SG) (PI) (PI) (SG) (SG) (PI)
                 (PI) (SG) (SG) (DLTA) (DLTA) (PI) (PI) (SG) (SG)
                 (PI) (PI) (SG) (SG) (PI) (PI) (SG) (SG) (SG) (PI)
                 (PI) (SG) (SG) (SG) (PI) (PI) (SG) (SG) (PI) (PI)
                 (SG) (SG) (SG) (SG) (PI) (PI) (SG) (SG) (SG) (SG)
                 (SG)
 The electronic state of the initial guess is 3-SG.
 Leave Link  401 at Mon Mar 26 16:08:36 2018, MaxMem= 10737418240 cpu:              14.0 elap:               0.5
 (Enter /home1/apps/gaussian/16rA.03/g16/l502.exe)
 Keep R1 and R2 ints in memory in symmetry-blocked form, NReq=734602573.
 FoFCou: FMM=F IPFlag=           8 FMFlag=           0 FMFlg1=           0
         NFxFlg=           0 DoJE=F BraDBF=F KetDBF=F FulRan=T
         wScrn=  0.000000 ICntrl=       600 IOpCl=  0 I1Cent=           0 NGrid=           0
         NMat0=    1 NMatS0=  34191 NMatT0=    0 NMatD0=    1 NMtDS0=    0 NMtDT0=    0
 Petite list used in FoFCou.
 Restricted open shell SCF:
 Using DIIS extrapolation, IDIIS=  1040.
 NGot= 10737418240 LenX= 10437146893 LenY= 10437049108
 Requested convergence on RMS density matrix=1.00D-08 within 400 cycles.
 Requested convergence on MAX density matrix=1.00D-06.
 Requested convergence on             energy=1.00D-06.
 No special actions if energy rises.

 Cycle   1  Pass 1  IDiag  1:
 E= -183.368099813272    
 DIIS: error= 7.08D-01 at cycle   1 NSaved=   1.
 NSaved= 1 IEnMin= 1 EnMin= -183.368099813272     IErMin= 1 ErrMin= 7.08D-01
 ErrMax= 7.08D-01  0.00D+00 EMaxC= 1.00D-01 BMatC= 6.18D+01 BMatP= 6.18D+01
 IDIUse=3 WtCom= 0.00D+00 WtEn= 1.00D+00
 Coeff-Com:  0.100D+01
 Coeff-En:   0.100D+01
 Coeff:      0.100D+01
 Gap=     0.138 Goal=   None    Shift=    0.000
 GapD=    0.138 DampG=1.000 DampE=0.125 DampFc=0.1250 IDamp=-1.
 Damping current iteration by 1.25D-01
 RMSDP=9.86D-03 MaxDP=4.53D-01              OVMax= 5.42D-02

 Cycle   2  Pass 1  IDiag  1:
 E= -183.555880852931     Delta-E=       -0.187781039659 Rises=F Damp=T
 DIIS: error= 6.23D-01 at cycle   2 NSaved=   2.
 NSaved= 2 IEnMin= 2 EnMin= -183.555880852931     IErMin= 2 ErrMin= 6.23D-01
 ErrMax= 6.23D-01  0.00D+00 EMaxC= 1.00D-01 BMatC= 4.73D+01 BMatP= 6.18D+01
 IDIUse=3 WtCom= 0.00D+00 WtEn= 1.00D+00
 Coeff-Com: -0.699D+01 0.799D+01
 Coeff-En:   0.000D+00 0.100D+01
 Coeff:      0.000D+00 0.100D+01
 Gap=     0.107 Goal=   None    Shift=    0.000
 RMSDP=8.47D-03 MaxDP=3.95D-01 DE=-1.88D-01 OVMax= 3.41D-02

 Cycle   3  Pass 1  IDiag  1:
 E= -184.897225057913     Delta-E=       -1.341344204982 Rises=F Damp=F
 DIIS: error= 1.41D-02 at cycle   3 NSaved=   3.
 NSaved= 3 IEnMin= 3 EnMin= -184.897225057913     IErMin= 3 ErrMin= 1.41D-02
 ErrMax= 1.41D-02  0.00D+00 EMaxC= 1.00D-01 BMatC= 2.60D-02 BMatP= 4.73D+01
 IDIUse=3 WtCom= 8.59D-01 WtEn= 1.41D-01
 Coeff-Com: -0.170D+00 0.177D+00 0.993D+00
 Coeff-En:   0.000D+00 0.000D+00 0.100D+01
 Coeff:     -0.146D+00 0.152D+00 0.994D+00
 Gap=     0.089 Goal=   None    Shift=    0.000
 RMSDP=5.19D-04 MaxDP=2.16D-02 DE=-1.34D+00 OVMax= 4.80D-02

 Cycle   4  Pass 1  IDiag  1:
 E= -184.897351103718     Delta-E=       -0.000126045805 Rises=F Damp=F
 DIIS: error= 8.62D-03 at cycle   4 NSaved=   4.
 NSaved= 4 IEnMin= 4 EnMin= -184.897351103718     IErMin= 4 ErrMin= 8.62D-03
 ErrMax= 8.62D-03  0.00D+00 EMaxC= 1.00D-01 BMatC= 1.06D-02 BMatP= 2.60D-02
 IDIUse=3 WtCom= 9.14D-01 WtEn= 8.62D-02
 Coeff-Com:  0.128D+00-0.155D+00 0.499D+00 0.529D+00
 Coeff-En:   0.000D+00 0.000D+00 0.494D+00 0.506D+00
 Coeff:      0.117D+00-0.142D+00 0.498D+00 0.527D+00
 Gap=     0.096 Goal=   None    Shift=    0.000
 RMSDP=3.92D-04 MaxDP=2.22D-02 DE=-1.26D-04 OVMax= 3.73D-02

 Cycle   5  Pass 1  IDiag  1:
 E= -184.905185288352     Delta-E=       -0.007834184634 Rises=F Damp=F
 DIIS: error= 2.90D-03 at cycle   5 NSaved=   5.
 NSaved= 5 IEnMin= 5 EnMin= -184.905185288352     IErMin= 5 ErrMin= 2.90D-03
 ErrMax= 2.90D-03  0.00D+00 EMaxC= 1.00D-01 BMatC= 1.12D-03 BMatP= 1.06D-02
 IDIUse=3 WtCom= 9.71D-01 WtEn= 2.90D-02
 Coeff-Com: -0.493D-02 0.448D-02 0.657D-01 0.217D+00 0.718D+00
 Coeff-En:   0.000D+00 0.000D+00 0.000D+00 0.000D+00 0.100D+01
 Coeff:     -0.479D-02 0.435D-02 0.638D-01 0.210D+00 0.726D+00
 Gap=     0.097 Goal=   None    Shift=    0.000
 RMSDP=3.28D-04 MaxDP=2.37D-02 DE=-7.83D-03 OVMax= 3.11D-02

 Cycle   6  Pass 1  IDiag  1:
 E= -184.905461745262     Delta-E=       -0.000276456910 Rises=F Damp=F
 DIIS: error= 1.45D-03 at cycle   6 NSaved=   6.
 NSaved= 6 IEnMin= 6 EnMin= -184.905461745262     IErMin= 6 ErrMin= 1.45D-03
 ErrMax= 1.45D-03  0.00D+00 EMaxC= 1.00D-01 BMatC= 3.01D-04 BMatP= 1.12D-03
 IDIUse=3 WtCom= 9.85D-01 WtEn= 1.45D-02
 Coeff-Com:  0.655D-02-0.770D-02 0.116D-01 0.937D-01 0.352D+00 0.543D+00
 Coeff-En:   0.000D+00 0.000D+00 0.000D+00 0.000D+00 0.428D+00 0.572D+00
 Coeff:      0.645D-02-0.759D-02 0.114D-01 0.924D-01 0.354D+00 0.544D+00
 Gap=     0.097 Goal=   None    Shift=    0.000
 RMSDP=3.62D-04 MaxDP=2.87D-02 DE=-2.76D-04 OVMax= 3.56D-02

 Cycle   7  Pass 1  IDiag  1:
 E= -184.905510715919     Delta-E=       -0.000048970658 Rises=F Damp=F
 DIIS: error= 1.56D-03 at cycle   7 NSaved=   7.
 NSaved= 7 IEnMin= 7 EnMin= -184.905510715919     IErMin= 6 ErrMin= 1.45D-03
 ErrMax= 1.56D-03  0.00D+00 EMaxC= 1.00D-01 BMatC= 2.72D-04 BMatP= 3.01D-04
 IDIUse=3 WtCom= 9.85D-01 WtEn= 1.45D-02
 Coeff-Com:  0.125D-01-0.141D-01-0.113D-01 0.437D-03-0.658D-02 0.496D+00
 Coeff-Com:  0.523D+00
 Coeff-En:   0.000D+00 0.000D+00 0.000D+00 0.000D+00 0.000D+00 0.490D+00
 Coeff-En:   0.510D+00
 Coeff:      0.123D-01-0.139D-01-0.112D-01 0.430D-03-0.649D-02 0.496D+00
 Coeff:      0.522D+00
 Gap=     0.098 Goal=   None    Shift=    0.000
 RMSDP=1.69D-04 MaxDP=1.44D-02 DE=-4.90D-05 OVMax= 1.89D-02

 Cycle   8  Pass 1  IDiag  1:
 E= -184.905940768363     Delta-E=       -0.000430052443 Rises=F Damp=F
 DIIS: error= 3.18D-04 at cycle   8 NSaved=   8.
 NSaved= 8 IEnMin= 8 EnMin= -184.905940768363     IErMin= 8 ErrMin= 3.18D-04
 ErrMax= 3.18D-04  0.00D+00 EMaxC= 1.00D-01 BMatC= 7.93D-06 BMatP= 2.72D-04
 IDIUse=3 WtCom= 9.97D-01 WtEn= 3.18D-03
 Rare condition: small coef for last iteration:  0.000D+00
 Coeff-Com:  0.189D-01-0.215D-01 0.112D-02-0.170D-01-0.404D-01-0.501D-01
 Coeff-Com:  0.180D-01 0.109D+01
 Coeff-En:   0.000D+00 0.000D+00 0.000D+00 0.000D+00 0.000D+00 0.165D+00
 Coeff-En:   0.143D+00 0.692D+00
 Coeff:      0.189D-01-0.215D-01 0.112D-02-0.170D-01-0.404D-01-0.501D-01
 Coeff:      0.180D-01 0.109D+01
 Gap=     0.097 Goal=   None    Shift=    0.000
 RMSDP=6.76D-05 MaxDP=4.80D-03 DE=-4.30D-04 OVMax= 3.36D-03

 Cycle   9  Pass 1  IDiag  1:
 E= -184.905953557029     Delta-E=       -0.000012788666 Rises=F Damp=F
 DIIS: error= 2.80D-04 at cycle   9 NSaved=   9.
 NSaved= 9 IEnMin= 9 EnMin= -184.905953557029     IErMin= 9 ErrMin= 2.80D-04
 ErrMax= 2.80D-04  0.00D+00 EMaxC= 1.00D-01 BMatC= 5.46D-06 BMatP= 7.93D-06
 IDIUse=3 WtCom= 9.97D-01 WtEn= 2.80D-03
 EnCoef did   100 forward-backward iterations
 Rare condition: small coef for last iteration:  0.322D-17
 Coeff-Com:  0.143D-01-0.164D-01 0.676D-02-0.174D-01-0.411D-01-0.191D+00
 Coeff-Com: -0.146D+00 0.714D+00 0.677D+00
 Coeff-En:   0.000D+00 0.000D+00 0.000D+00 0.000D+00 0.000D+00 0.134D+00
 Coeff-En:   0.915D-01 0.000D+00 0.774D+00
 Coeff:      0.143D-01-0.164D-01 0.676D-02-0.174D-01-0.411D-01-0.191D+00
 Coeff:     -0.146D+00 0.714D+00 0.677D+00
 Gap=     0.097 Goal=   None    Shift=    0.000
 RMSDP=4.93D-05 MaxDP=3.60D-03 DE=-1.28D-05 OVMax= 2.10D-03

 Cycle  10  Pass 1  IDiag  1:
 E= -184.905961977010     Delta-E=       -0.000008419981 Rises=F Damp=F
 DIIS: error= 8.68D-05 at cycle  10 NSaved=  10.
 NSaved=10 IEnMin=10 EnMin= -184.905961977010     IErMin=10 ErrMin= 8.68D-05
 ErrMax= 8.68D-05  0.00D+00 EMaxC= 1.00D-01 BMatC= 7.24D-07 BMatP= 5.46D-06
 IDIUse=1 WtCom= 1.00D+00 WtEn= 0.00D+00
 Coeff-Com:  0.109D-01-0.125D-01 0.343D-02-0.217D-02-0.842D-02-0.416D-01
 Coeff-Com: -0.354D-01 0.284D-01 0.161D+00 0.897D+00
 Coeff:      0.109D-01-0.125D-01 0.343D-02-0.217D-02-0.842D-02-0.416D-01
 Coeff:     -0.354D-01 0.284D-01 0.161D+00 0.897D+00
 Gap=     0.097 Goal=   None    Shift=    0.000
 RMSDP=1.25D-05 MaxDP=6.66D-04 DE=-8.42D-06 OVMax= 6.12D-04

 Cycle  11  Pass 1  IDiag  1:
 E= -184.905962948650     Delta-E=       -0.000000971640 Rises=F Damp=F
 DIIS: error= 1.01D-04 at cycle  11 NSaved=  11.
 NSaved=11 IEnMin=11 EnMin= -184.905962948650     IErMin=10 ErrMin= 8.68D-05
 ErrMax= 1.01D-04  0.00D+00 EMaxC= 1.00D-01 BMatC= 3.98D-07 BMatP= 7.24D-07
 IDIUse=1 WtCom= 1.00D+00 WtEn= 0.00D+00
 Coeff-Com:  0.931D-02-0.106D-01 0.100D-02 0.498D-02 0.719D-02 0.227D-01
 Coeff-Com:  0.141D-01-0.123D+00-0.116D+00 0.194D+00 0.996D+00
 Coeff:      0.931D-02-0.106D-01 0.100D-02 0.498D-02 0.719D-02 0.227D-01
 Coeff:      0.141D-01-0.123D+00-0.116D+00 0.194D+00 0.996D+00
 Gap=     0.097 Goal=   None    Shift=    0.000
 RMSDP=5.11D-06 MaxDP=2.73D-04 DE=-9.72D-07 OVMax= 4.24D-04

 Cycle  12  Pass 1  IDiag  1:
 E= -184.905963420021     Delta-E=       -0.000000471371 Rises=F Damp=F
 DIIS: error= 6.26D-05 at cycle  12 NSaved=  12.
 NSaved=12 IEnMin=12 EnMin= -184.905963420021     IErMin=12 ErrMin= 6.26D-05
 ErrMax= 6.26D-05  0.00D+00 EMaxC= 1.00D-01 BMatC= 1.98D-07 BMatP= 3.98D-07
 IDIUse=1 WtCom= 1.00D+00 WtEn= 0.00D+00
 Coeff-Com:  0.665D-02-0.759D-02 0.882D-03 0.167D-02-0.425D-03 0.399D-02
 Coeff-Com:  0.449D-02 0.197D-01-0.337D-01-0.216D+00 0.103D-01 0.121D+01
 Coeff:      0.665D-02-0.759D-02 0.882D-03 0.167D-02-0.425D-03 0.399D-02
 Coeff:      0.449D-02 0.197D-01-0.337D-01-0.216D+00 0.103D-01 0.121D+01
 Gap=     0.097 Goal=   None    Shift=    0.000
 RMSDP=2.84D-06 MaxDP=1.81D-04 DE=-4.71D-07 OVMax= 2.97D-04

 Cycle  13  Pass 1  IDiag  1:
 E= -184.905963754057     Delta-E=       -0.000000334036 Rises=F Damp=F
 DIIS: error= 4.39D-05 at cycle  13 NSaved=  13.
 NSaved=13 IEnMin=13 EnMin= -184.905963754057     IErMin=13 ErrMin= 4.39D-05
 ErrMax= 4.39D-05  0.00D+00 EMaxC= 1.00D-01 BMatC= 8.49D-08 BMatP= 1.98D-07
 IDIUse=1 WtCom= 1.00D+00 WtEn= 0.00D+00
 Coeff-Com:  0.382D-02-0.436D-02 0.876D-03-0.522D-03-0.580D-02-0.262D-02
 Coeff-Com:  0.316D-02 0.593D-01 0.136D-01-0.193D+00-0.281D+00 0.522D+00
 Coeff-Com:  0.885D+00
 Coeff:      0.382D-02-0.436D-02 0.876D-03-0.522D-03-0.580D-02-0.262D-02
 Coeff:      0.316D-02 0.593D-01 0.136D-01-0.193D+00-0.281D+00 0.522D+00
 Coeff:      0.885D+00
 Gap=     0.097 Goal=   None    Shift=    0.000
 RMSDP=2.33D-06 MaxDP=1.80D-04 DE=-3.34D-07 OVMax= 1.64D-04

 Cycle  14  Pass 1  IDiag  1:
 E= -184.905963926422     Delta-E=       -0.000000172365 Rises=F Damp=F
 DIIS: error= 2.10D-05 at cycle  14 NSaved=  14.
 NSaved=14 IEnMin=14 EnMin= -184.905963926422     IErMin=14 ErrMin= 2.10D-05
 ErrMax= 2.10D-05  0.00D+00 EMaxC= 1.00D-01 BMatC= 2.66D-08 BMatP= 8.49D-08
 IDIUse=1 WtCom= 1.00D+00 WtEn= 0.00D+00
 Coeff-Com:  0.192D-02-0.220D-02 0.482D-03-0.163D-03-0.326D-02 0.788D-03
 Coeff-Com:  0.393D-02 0.194D-01 0.219D-02-0.517D-01-0.682D-01-0.153D-01
 Coeff-Com:  0.117D+00 0.995D+00
 Coeff:      0.192D-02-0.220D-02 0.482D-03-0.163D-03-0.326D-02 0.788D-03
 Coeff:      0.393D-02 0.194D-01 0.219D-02-0.517D-01-0.682D-01-0.153D-01
 Coeff:      0.117D+00 0.995D+00
 Gap=     0.097 Goal=   None    Shift=    0.000
 RMSDP=1.42D-06 MaxDP=5.93D-05 DE=-1.72D-07 OVMax= 7.55D-05

 Cycle  15  Pass 1  IDiag  1:
 E= -184.905963985180     Delta-E=       -0.000000058758 Rises=F Damp=F
 DIIS: error= 1.38D-05 at cycle  15 NSaved=  15.
 NSaved=15 IEnMin=15 EnMin= -184.905963985180     IErMin=15 ErrMin= 1.38D-05
 ErrMax= 1.38D-05  0.00D+00 EMaxC= 1.00D-01 BMatC= 8.76D-09 BMatP= 2.66D-08
 IDIUse=1 WtCom= 1.00D+00 WtEn= 0.00D+00
 Coeff-Com:  0.738D-03-0.844D-03 0.127D-03 0.431D-03-0.336D-04 0.264D-02
 Coeff-Com:  0.268D-02-0.110D-01-0.110D-01 0.296D-01 0.101D+00-0.166D+00
 Coeff-Com: -0.416D+00 0.696D+00 0.772D+00
 Coeff:      0.738D-03-0.844D-03 0.127D-03 0.431D-03-0.336D-04 0.264D-02
 Coeff:      0.268D-02-0.110D-01-0.110D-01 0.296D-01 0.101D+00-0.166D+00
 Coeff:     -0.416D+00 0.696D+00 0.772D+00
 Gap=     0.097 Goal=   None    Shift=    0.000
 RMSDP=9.03D-07 MaxDP=4.95D-05 DE=-5.88D-08 OVMax= 6.23D-05

 Cycle  16  Pass 1  IDiag  1:
 E= -184.905964006183     Delta-E=       -0.000000021003 Rises=F Damp=F
 DIIS: error= 3.51D-06 at cycle  16 NSaved=  16.
 NSaved=16 IEnMin=16 EnMin= -184.905964006183     IErMin=16 ErrMin= 3.51D-06
 ErrMax= 3.51D-06  0.00D+00 EMaxC= 1.00D-01 BMatC= 1.11D-09 BMatP= 8.76D-09
 IDIUse=1 WtCom= 1.00D+00 WtEn= 0.00D+00
 Coeff-Com:  0.324D-03-0.369D-03 0.250D-04 0.270D-03 0.210D-03 0.929D-03
 Coeff-Com:  0.659D-03-0.195D-02-0.682D-02-0.670D-02 0.359D-01 0.501D-01
 Coeff-Com: -0.153D+00-0.817D-01 0.227D+00 0.935D+00
 Coeff:      0.324D-03-0.369D-03 0.250D-04 0.270D-03 0.210D-03 0.929D-03
 Coeff:      0.659D-03-0.195D-02-0.682D-02-0.670D-02 0.359D-01 0.501D-01
 Coeff:     -0.153D+00-0.817D-01 0.227D+00 0.935D+00
 Gap=     0.097 Goal=   None    Shift=    0.000
 RMSDP=3.08D-07 MaxDP=1.90D-05 DE=-2.10D-08 OVMax= 1.33D-05

 Cycle  17  Pass 1  IDiag  1:
 E= -184.905964008953     Delta-E=       -0.000000002770 Rises=F Damp=F
 DIIS: error= 1.58D-06 at cycle  17 NSaved=  17.
 NSaved=17 IEnMin=17 EnMin= -184.905964008953     IErMin=17 ErrMin= 1.58D-06
 ErrMax= 1.58D-06  0.00D+00 EMaxC= 1.00D-01 BMatC= 2.68D-10 BMatP= 1.11D-09
 IDIUse=1 WtCom= 1.00D+00 WtEn= 0.00D+00
 Coeff-Com:  0.111D-03-0.127D-03 0.865D-05 0.766D-04-0.840D-04 0.261D-03
 Coeff-Com:  0.291D-03 0.230D-02-0.209D-02-0.169D-01-0.326D-02 0.791D-01
 Coeff-Com:  0.212D-01-0.161D+00-0.113D+00 0.112D+00 0.108D+01
 Coeff:      0.111D-03-0.127D-03 0.865D-05 0.766D-04-0.840D-04 0.261D-03
 Coeff:      0.291D-03 0.230D-02-0.209D-02-0.169D-01-0.326D-02 0.791D-01
 Coeff:      0.212D-01-0.161D+00-0.113D+00 0.112D+00 0.108D+01
 Gap=     0.097 Goal=   None    Shift=    0.000
 RMSDP=1.39D-07 MaxDP=5.69D-06 DE=-2.77D-09 OVMax= 1.11D-05

 Cycle  18  Pass 1  IDiag  1:
 E= -184.905964009619     Delta-E=       -0.000000000667 Rises=F Damp=F
 DIIS: error= 7.26D-07 at cycle  18 NSaved=  18.
 NSaved=18 IEnMin=18 EnMin= -184.905964009619     IErMin=18 ErrMin= 7.26D-07
 ErrMax= 7.26D-07  0.00D+00 EMaxC= 1.00D-01 BMatC= 5.68D-11 BMatP= 2.68D-10
 IDIUse=1 WtCom= 1.00D+00 WtEn= 0.00D+00
 Coeff-Com: -0.734D-05 0.845D-05-0.184D-05 0.509D-05-0.998D-04 0.141D-03
 Coeff-Com:  0.214D-03 0.141D-02-0.686D-03-0.856D-02-0.475D-02 0.349D-01
 Coeff-Com:  0.247D-01-0.608D-01-0.790D-01-0.104D+00 0.177D+00 0.102D+01
 Coeff:     -0.734D-05 0.845D-05-0.184D-05 0.509D-05-0.998D-04 0.141D-03
 Coeff:      0.214D-03 0.141D-02-0.686D-03-0.856D-02-0.475D-02 0.349D-01
 Coeff:      0.247D-01-0.608D-01-0.790D-01-0.104D+00 0.177D+00 0.102D+01
 Gap=     0.097 Goal=   None    Shift=    0.000
 RMSDP=7.80D-08 MaxDP=3.18D-06 DE=-6.67D-10 OVMax= 7.23D-06

 Cycle  19  Pass 1  IDiag  1:
 E= -184.905964009728     Delta-E=       -0.000000000109 Rises=F Damp=F
 DIIS: error= 4.97D-07 at cycle  19 NSaved=  19.
 NSaved=19 IEnMin=19 EnMin= -184.905964009728     IErMin=19 ErrMin= 4.97D-07
 ErrMax= 4.97D-07  0.00D+00 EMaxC= 1.00D-01 BMatC= 1.46D-11 BMatP= 5.68D-11
 IDIUse=1 WtCom= 1.00D+00 WtEn= 0.00D+00
 Coeff-Com: -0.450D-04 0.514D-04-0.585D-05-0.116D-04-0.557D-04 0.888D-04
 Coeff-Com:  0.136D-03 0.411D-03-0.216D-03-0.235D-02-0.185D-02 0.668D-02
 Coeff-Com:  0.966D-02 0.214D-03-0.227D-01-0.107D+00-0.241D+00 0.847D+00
 Coeff-Com:  0.511D+00
 Coeff:     -0.450D-04 0.514D-04-0.585D-05-0.116D-04-0.557D-04 0.888D-04
 Coeff:      0.136D-03 0.411D-03-0.216D-03-0.235D-02-0.185D-02 0.668D-02
 Coeff:      0.966D-02 0.214D-03-0.227D-01-0.107D+00-0.241D+00 0.847D+00
 Coeff:      0.511D+00
 Gap=     0.097 Goal=   None    Shift=    0.000
 RMSDP=4.54D-08 MaxDP=3.23D-06 DE=-1.09D-10 OVMax= 4.23D-06

 Cycle  20  Pass 1  IDiag  1:
 E= -184.905964009735     Delta-E=       -0.000000000007 Rises=F Damp=F
 DIIS: error= 3.35D-07 at cycle  20 NSaved=  20.
 NSaved=20 IEnMin=20 EnMin= -184.905964009735     IErMin=20 ErrMin= 3.35D-07
 ErrMax= 3.35D-07  0.00D+00 EMaxC= 1.00D-01 BMatC= 6.48D-12 BMatP= 1.46D-11
 IDIUse=1 WtCom= 1.00D+00 WtEn= 0.00D+00
 Coeff-Com: -0.156D-04 0.179D-04-0.428D-05 0.131D-04 0.391D-04 0.463D-04
 Coeff-Com:  0.109D-04-0.587D-03-0.283D-03 0.205D-02 0.340D-02-0.792D-02
 Coeff-Com: -0.151D-01 0.238D-01 0.401D-01 0.573D-01-0.134D+00-0.239D+00
 Coeff-Com:  0.335D+00 0.936D+00
 Coeff:     -0.156D-04 0.179D-04-0.428D-05 0.131D-04 0.391D-04 0.463D-04
 Coeff:      0.109D-04-0.587D-03-0.283D-03 0.205D-02 0.340D-02-0.792D-02
 Coeff:     -0.151D-01 0.238D-01 0.401D-01 0.573D-01-0.134D+00-0.239D+00
 Coeff:      0.335D+00 0.936D+00
 Gap=     0.097 Goal=   None    Shift=    0.000
 RMSDP=2.00D-08 MaxDP=1.01D-06 DE=-7.39D-12 OVMax= 1.52D-06

 Cycle  21  Pass 1  IDiag  1:
 E= -184.905964009747     Delta-E=       -0.000000000011 Rises=F Damp=F
 DIIS: error= 1.20D-07 at cycle  21 NSaved=  20.
 NSaved=20 IEnMin=20 EnMin= -184.905964009747     IErMin=20 ErrMin= 1.20D-07
 ErrMax= 1.20D-07  0.00D+00 EMaxC= 1.00D-01 BMatC= 8.86D-13 BMatP= 6.48D-12
 IDIUse=1 WtCom= 1.00D+00 WtEn= 0.00D+00
 Coeff-Com:  0.111D-07-0.833D-06 0.770D-05 0.261D-05 0.151D-04 0.113D-04
 Coeff-Com:  0.174D-04-0.116D-03-0.415D-03 0.338D-03 0.257D-02-0.113D-02
 Coeff-Com: -0.485D-02-0.605D-03 0.193D-01 0.588D-01-0.951D-01-0.815D-01
 Coeff-Com: -0.672D-01 0.117D+01
 Coeff:      0.111D-07-0.833D-06 0.770D-05 0.261D-05 0.151D-04 0.113D-04
 Coeff:      0.174D-04-0.116D-03-0.415D-03 0.338D-03 0.257D-02-0.113D-02
 Coeff:     -0.485D-02-0.605D-03 0.193D-01 0.588D-01-0.951D-01-0.815D-01
 Coeff:     -0.672D-01 0.117D+01
 Gap=     0.097 Goal=   None    Shift=    0.000
 RMSDP=7.79D-09 MaxDP=5.52D-07 DE=-1.12D-11 OVMax= 4.14D-07

 SCF Done:  E(ROHF) =  -184.905964010     A.U. after   21 cycles
            NFock= 21  Conv=0.78D-08     -V/T= 2.6250
 <Sx>= 0.0000 <Sy>= 0.0000 <Sz>= 1.0000 <S**2>= 2.0000 S= 1.0000
 <L.S>=  0.00000000000    
 KE= 1.137884566005D+02 PE=-5.199151730661D+02 EE= 1.831199932697D+02
 Annihilation of the first spin contaminant:
 S**2 before annihilation     2.0000,   after     2.0000
 Leave Link  502 at Mon Mar 26 16:09:00 2018, MaxMem= 10737418240 cpu:             585.8 elap:              22.7
 (Enter /home1/apps/gaussian/16rA.03/g16/l801.exe)
 Windowed orbitals will be sorted by symmetry type.
 GenMOA:  NOpAll=  4 NOp2=4 NOpUse=  4 JSym2X=1
 FoFJK:  IHMeth= 1 ICntrl=       0 DoSepK=F KAlg= 0 I1Cent=           0 FoldK=F
 IRaf=         0 NMat=       1 IRICut=       1 DoRegI=T DoRafI=F ISym2E= 1 IDoP0=0 IntGTp=1.
 FoFCou: FMM=F IPFlag=           8 FMFlag=      100000 FMFlg1=           0
         NFxFlg=           0 DoJE=F BraDBF=F KetDBF=F FulRan=T
         wScrn=  0.000000 ICntrl=         0 IOpCl=  1 I1Cent=           0 NGrid=           0
         NMat0=    1 NMatS0=      1 NMatT0=    0 NMatD0=    1 NMtDS0=    0 NMtDT0=    0
 Petite list used in FoFCou.
 <Sx>= 0.0000 <Sy>= 0.0000 <Sz>= 1.0000 <S**2>= 2.0000 S= 1.0000
 Range of M.O.s used for correlation:     1   261
 NBasis=   261 NAE=    13 NBE=    11 NFC=     0 NFV=     0
 NROrb=    261 NOA=    13 NOB=    11 NVA=   248 NVB=   250

 **** Warning!!: The largest alpha MO coefficient is  0.18500513D+03


 **** Warning!!: The largest beta MO coefficient is  0.18495510D+03

 Singles contribution to E2=   -0.8431959458D-02
 Leave Link  801 at Mon Mar 26 16:09:04 2018, MaxMem= 10737418240 cpu:             137.1 elap:               4.3
 (Enter /home1/apps/gaussian/16rA.03/g16/l804.exe)
 Open-shell transformation, MDV= 10737418240 ITran=4 ISComp=2.
 Unit  1 TFree=       2048478 TCopy=       1562243.
 Semi-Direct transformation.
 ModeAB=           4 MOrb=            13 LenV=   10735322230
 LASXX=     28704759 LTotXX=    28704759 LenRXX=    57882687
 LTotAB=    29177928 MaxLAS=   162989541 LenRXY=           0
 NonZer=    86587446 LenScr=   130658304 LnRSAI=   162989541
 LnScr1=   245443584 LExtra=    14644384 Total=    611618500
 MaxDsk= 67108864000 SrtSym=           T ITran=            4
 DoSDTr:  NPSUse= 32
 JobTyp=1 Pass  1:  I=   1 to  13.
 (rs|ai) integrals will be sorted in core.
 Complete sort for first half transformation.
 First half transformation complete.
 Begin second half transformation for I=  10.
 Complete sort for second half transformation.
 Second half transformation complete.
 ModeAB=           4 MOrb=            11 LenV=   10735322230
 LASXX=     24516867 LTotXX=    24516867 LenRXX=    47004759
 LTotAB=    22487892 MaxLAS=   137914227 LenRXY=           0
 NonZer=    71521626 LenScr=   108038144 LnRSAI=   137914227
 LnScr1=   207683584 LExtra=    72527071 Total=    573167785
 MaxDsk= 67108864000 SrtSym=           T ITran=            4
 DoSDTr:  NPSUse= 32
 JobTyp=2 Pass  1:  I=   1 to  11.
 (rs|ai) integrals will be sorted in core.
 Complete sort for first half transformation.
 First half transformation complete.
 Begin second half transformation for I=  10.
 Complete sort for second half transformation.
 Second half transformation complete.
 Spin components of T(2) and E(2):
     alpha-alpha T2 =       0.3400637521D-01 E2=     -0.1970159163D+00
     alpha-beta  T2 =       0.1503297184D+00 E2=     -0.8336769346D+00
     beta-beta   T2 =       0.3522703441D-01 E2=     -0.1572971765D+00
 ANorm=    0.1105766887D+01
 E2 =    -0.1196421987D+01 EUMP2 =    -0.18610238599661D+03
 (S**2,0)=  0.20000D+01           (S**2,1)=  0.20000D+01
 E(PUHF)=      -0.18490596401D+03        E(PMP2)=      -0.18610238600D+03
 Leave Link  804 at Mon Mar 26 16:11:12 2018, MaxMem= 10737418240 cpu:            4065.7 elap:             127.2
 (Enter /home1/apps/gaussian/16rA.03/g16/l913.exe)
 CIDS:  MDV= 10737418240.
 IFCWin=0 IBDFC=1 NFBD=     0     0 NFCmp=     0     0 NFFFC=     0     0
 Using original routines for 1st iteration.
 Using DD4UQ or CC4UQ for 2nd and later iterations.
 Keep R2 and R3 ints in memory in symmetry-blocked form, NReq=734619643.
 FoFCou: FMM=F IPFlag=           8 FMFlag=           0 FMFlg1=           0
         NFxFlg=           0 DoJE=F BraDBF=F KetDBF=F FulRan=T
         wScrn=  0.000000 ICntrl=       600 IOpCl=  0 I1Cent=           0 NGrid=           0
         NMat0=    1 NMatS0=  34191 NMatT0=    0 NMatD0=    1 NMtDS0=    0 NMtDT0=    0
 Petite list used in FoFCou.
 CIDS: In Core Option IDoMem=           1.
 CCSD(T)
 =======
 Iterations= 150 Convergence= 0.100D-06
 Produce multiple copies of IABC intergrals
 Iteration Nr.   1
 **********************
 DD1Dir will call FoFMem   1 times, MxPair=       420
 NAB=   143 NAA=    78 NBB=    55.
 DD1Dir will call FoFMem   1 times, MxPair=       420
 NAB=   143 NAA=    78 NBB=    55.
 MP4(R+Q)= -0.10981958D+00
 Maximum subspace dimension=  5
 A-vector RMS=  2.2452396D-04 Max=  1.5279641D-02 conv= 1.00D-05.
 RLE energy=       -1.1845543753
 E3=        0.12150432D+00        EROMP3=      -0.18598088167D+03
 E4(SDQ)=  -0.98875094D-01        ROMP4(SDQ)=  -0.18607975677D+03
 VARIATIONAL ENERGIES WITH THE FIRST-ORDER WAVEFUNCTION:
 DE(Corr)=  -1.1844334     E(Corr)=     -186.09039736    
 NORM(A)=   0.10991988D+01
 Iteration Nr.   2
 **********************
 DD1Dir will call FoFMem   1 times, MxPair=       420
 NAB=   143 NAA=    78 NBB=    55.
 A-vector RMS=  6.8406103D-03 Max=  9.6027795D-02 conv= 1.00D-05.
 RLE energy=       -1.1491840550
 DE(Corr)=  -1.0592974     E(CORR)=     -185.96526140     Delta= 1.25D-01
 NORM(A)=   0.10929922D+01
 Iteration Nr.   3
 **********************
 DD1Dir will call FoFMem   1 times, MxPair=       420
 NAB=   143 NAA=    78 NBB=    55.
 A-vector RMS=  4.1941228D-03 Max=  6.3398583D-02 conv= 1.00D-05.
 RLE energy=       -1.1524095469
 DE(Corr)=  -1.0855441     E(CORR)=     -185.99150814     Delta=-2.62D-02
 NORM(A)=   0.11003958D+01
 Iteration Nr.   4
 **********************
 DD1Dir will call FoFMem   1 times, MxPair=       420
 NAB=   143 NAA=    78 NBB=    55.
 A-vector RMS=  4.6311475D-03 Max=  6.8445882D-02 conv= 1.00D-05.
 RLE energy=       -1.2161132973
 DE(Corr)=  -1.0920542     E(CORR)=     -185.99801816     Delta=-6.51D-03
 NORM(A)=   0.47292273D+01
 Iteration Nr.   5
 **********************
 DD1Dir will call FoFMem   1 times, MxPair=       420
 NAB=   143 NAA=    78 NBB=    55.
 A-vector RMS=  9.8042665D-02 Max=  3.3863940D+00 conv= 1.00D-05.
 RLE energy=       -1.3750982206
 DE(Corr)=  0.37179871     E(CORR)=     -184.53416530     Delta= 1.46D+00
 NORM(A)=   0.15805937D+01
 Iteration Nr.   6
 **********************
 DD1Dir will call FoFMem   1 times, MxPair=       420
 NAB=   143 NAA=    78 NBB=    55.
 A-vector RMS=  2.8994069D-02 Max=  4.5028626D-01 conv= 1.00D-05.
 RLE energy=       -1.0868773141
 DE(Corr)= -0.92126730     E(CORR)=     -185.82723131     Delta=-1.29D+00
 NORM(A)=   0.11558626D+01
 Iteration Nr.   7
 **********************
 DD1Dir will call FoFMem   1 times, MxPair=       420
 NAB=   143 NAA=    78 NBB=    55.
 A-vector RMS=  5.9731457D-03 Max=  1.1713032D-01 conv= 1.00D-05.
 RLE energy=       -1.1143136018
 DE(Corr)=  -1.1639722     E(CORR)=     -186.06993624     Delta=-2.43D-01
 NORM(A)=   0.11575572D+01
 Iteration Nr.   8
 **********************
 DD1Dir will call FoFMem   1 times, MxPair=       420
 NAB=   143 NAA=    78 NBB=    55.
 A-vector RMS=  2.7836238D-03 Max=  7.1485675D-02 conv= 1.00D-05.
 RLE energy=       -1.1369151485
 DE(Corr)=  -1.1528526     E(CORR)=     -186.05881664     Delta= 1.11D-02
 NORM(A)=   0.11916492D+01
 Iteration Nr.   9
 **********************
 DD1Dir will call FoFMem   1 times, MxPair=       420
 NAB=   143 NAA=    78 NBB=    55.
 A-vector RMS=  1.4317847D-03 Max=  3.8724651D-02 conv= 1.00D-05.
 RLE energy=       -1.1425226845
 DE(Corr)=  -1.1498686     E(CORR)=     -186.05583261     Delta= 2.98D-03
 NORM(A)=   0.12237291D+01
 Iteration Nr.  10
 **********************
 DD1Dir will call FoFMem   1 times, MxPair=       420
 NAB=   143 NAA=    78 NBB=    55.
 A-vector RMS=  1.1611154D-03 Max=  2.6207787D-02 conv= 1.00D-05.
 RLE energy=       -1.1562319469
 DE(Corr)=  -1.1546833     E(CORR)=     -186.06064735     Delta=-4.81D-03
 NORM(A)=   0.12681170D+01
 Iteration Nr.  11
 **********************
 DD1Dir will call FoFMem   1 times, MxPair=       420
 NAB=   143 NAA=    78 NBB=    55.
 A-vector RMS=  4.5158209D-04 Max=  6.4633128D-03 conv= 1.00D-05.
 RLE energy=       -1.1567829907
 DE(Corr)=  -1.1550543     E(CORR)=     -186.06101834     Delta=-3.71D-04
 NORM(A)=   0.12702639D+01
 Iteration Nr.  12
 **********************
 DD1Dir will call FoFMem   1 times, MxPair=       420
 NAB=   143 NAA=    78 NBB=    55.
 A-vector RMS=  3.3915886D-04 Max=  6.1742025D-03 conv= 1.00D-05.
 RLE energy=       -1.1562576753
 DE(Corr)=  -1.1558006     E(CORR)=     -186.06176460     Delta=-7.46D-04
 NORM(A)=   0.12713382D+01
 Iteration Nr.  13
 **********************
 DD1Dir will call FoFMem   1 times, MxPair=       420
 NAB=   143 NAA=    78 NBB=    55.
 A-vector RMS=  1.2372681D-04 Max=  2.4943594D-03 conv= 1.00D-05.
 RLE energy=       -1.1562476975
 DE(Corr)=  -1.1563978     E(CORR)=     -186.06236178     Delta=-5.97D-04
 NORM(A)=   0.12712714D+01
 Iteration Nr.  14
 **********************
 DD1Dir will call FoFMem   1 times, MxPair=       420
 NAB=   143 NAA=    78 NBB=    55.
 A-vector RMS=  1.2458016D-04 Max=  3.8399469D-03 conv= 1.00D-05.
 RLE energy=       -1.1571379686
 DE(Corr)=  -1.1569133     E(CORR)=     -186.06287729     Delta=-5.16D-04
 NORM(A)=   0.12721137D+01
 Iteration Nr.  15
 **********************
 DD1Dir will call FoFMem   1 times, MxPair=       420
 NAB=   143 NAA=    78 NBB=    55.
 A-vector RMS=  1.1241554D-04 Max=  2.1749651D-03 conv= 1.00D-05.
 RLE energy=       -1.1567892980
 DE(Corr)=  -1.1566030     E(CORR)=     -186.06256701     Delta= 3.10D-04
 NORM(A)=   0.12726906D+01
 Iteration Nr.  16
 **********************
 DD1Dir will call FoFMem   1 times, MxPair=       420
 NAB=   143 NAA=    78 NBB=    55.
 A-vector RMS=  5.9843473D-05 Max=  1.6857663D-03 conv= 1.00D-05.
 RLE energy=       -1.1572662177
 DE(Corr)=  -1.1573200     E(CORR)=     -186.06328397     Delta=-7.17D-04
 NORM(A)=   0.12725934D+01
 Iteration Nr.  17
 **********************
 DD1Dir will call FoFMem   1 times, MxPair=       420
 NAB=   143 NAA=    78 NBB=    55.
 A-vector RMS=  4.1215358D-05 Max=  7.0903182D-04 conv= 1.00D-05.
 RLE energy=       -1.1571619277
 DE(Corr)=  -1.1570052     E(CORR)=     -186.06296917     Delta= 3.15D-04
 NORM(A)=   0.12728566D+01
 Iteration Nr.  18
 **********************
 DD1Dir will call FoFMem   1 times, MxPair=       420
 NAB=   143 NAA=    78 NBB=    55.
 A-vector RMS=  2.8557876D-05 Max=  3.8352753D-04 conv= 1.00D-05.
 RLE energy=       -1.1571672099
 DE(Corr)=  -1.1571920     E(CORR)=     -186.06315598     Delta=-1.87D-04
 NORM(A)=   0.12727288D+01
 Iteration Nr.  19
 **********************
 DD1Dir will call FoFMem   1 times, MxPair=       420
 NAB=   143 NAA=    78 NBB=    55.
 A-vector RMS=  2.2469942D-05 Max=  4.9389793D-04 conv= 1.00D-05.
 RLE energy=       -1.1571703585
 DE(Corr)=  -1.1571776     E(CORR)=     -186.06314165     Delta= 1.43D-05
 NORM(A)=   0.12726580D+01
 Iteration Nr.  20
 **********************
 DD1Dir will call FoFMem   1 times, MxPair=       420
 NAB=   143 NAA=    78 NBB=    55.
 A-vector RMS=  1.4700996D-05 Max=  3.3755928D-04 conv= 1.00D-05.
 RLE energy=       -1.1571974493
 DE(Corr)=  -1.1571781     E(CORR)=     -186.06314212     Delta=-4.71D-07
 NORM(A)=   0.12725366D+01
 Iteration Nr.  21
 **********************
 DD1Dir will call FoFMem   1 times, MxPair=       420
 NAB=   143 NAA=    78 NBB=    55.
 A-vector RMS=  1.4868138D-05 Max=  4.2573254D-04 conv= 1.00D-05.
 RLE energy=       -1.1571199565
 DE(Corr)=  -1.1571129     E(CORR)=     -186.06307689     Delta= 6.52D-05
 NORM(A)=   0.12724955D+01
 Iteration Nr.  22
 **********************
 DD1Dir will call FoFMem   1 times, MxPair=       420
 NAB=   143 NAA=    78 NBB=    55.
 A-vector RMS=  1.1346628D-05 Max=  2.0553179D-04 conv= 1.00D-05.
 RLE energy=       -1.1571575401
 DE(Corr)=  -1.1571780     E(CORR)=     -186.06314204     Delta=-6.52D-05
 NORM(A)=   0.12723756D+01
 Iteration Nr.  23
 **********************
 DD1Dir will call FoFMem   1 times, MxPair=       420
 NAB=   143 NAA=    78 NBB=    55.
 A-vector RMS=  6.5426169D-06 Max=  1.6175112D-04 conv= 1.00D-05.
 RLE energy=       -1.1571179504
 DE(Corr)=  -1.1571125     E(CORR)=     -186.06307649     Delta= 6.56D-05
 NORM(A)=   0.12723773D+01
 Iteration Nr.  24
 **********************
 DD1Dir will call FoFMem   1 times, MxPair=       420
 NAB=   143 NAA=    78 NBB=    55.
 A-vector RMS=  5.7942897D-06 Max=  8.1399032D-05 conv= 1.00D-05.
 RLE energy=       -1.1571184073
 DE(Corr)=  -1.1571367     E(CORR)=     -186.06310070     Delta=-2.42D-05
 NORM(A)=   0.12723425D+01
 Iteration Nr.  25
 **********************
 DD1Dir will call FoFMem   1 times, MxPair=       420
 NAB=   143 NAA=    78 NBB=    55.
 A-vector RMS=  4.4586823D-06 Max=  9.4363685D-05 conv= 1.00D-05.
 RLE energy=       -1.1571160251
 DE(Corr)=  -1.1571234     E(CORR)=     -186.06308741     Delta= 1.33D-05
 NORM(A)=   0.12723463D+01
 Iteration Nr.  26
 **********************
 DD1Dir will call FoFMem   1 times, MxPair=       420
 NAB=   143 NAA=    78 NBB=    55.
 A-vector RMS=  3.1380915D-06 Max=  6.9935435D-05 conv= 1.00D-05.
 RLE energy=       -1.1571219141
 DE(Corr)=  -1.1571212     E(CORR)=     -186.06308526     Delta= 2.15D-06
 NORM(A)=   0.12723565D+01
 Iteration Nr.  27
 **********************
 DD1Dir will call FoFMem   1 times, MxPair=       420
 NAB=   143 NAA=    78 NBB=    55.
 A-vector RMS=  3.4121067D-06 Max=  8.7004190D-05 conv= 1.00D-05.
 RLE energy=       -1.1571107986
 DE(Corr)=  -1.1571109     E(CORR)=     -186.06307487     Delta= 1.04D-05
 NORM(A)=   0.12723761D+01
 Iteration Nr.  28
 **********************
 DD1Dir will call FoFMem   1 times, MxPair=       420
 NAB=   143 NAA=    78 NBB=    55.
 A-vector RMS=  1.6549403D-06 Max=  3.0731563D-05 conv= 1.00D-05.
 RLE energy=       -1.1571210680
 DE(Corr)=  -1.1571244     E(CORR)=     -186.06308842     Delta=-1.35D-05
 NORM(A)=   0.12723889D+01
 Iteration Nr.  29
 **********************
 DD1Dir will call FoFMem   1 times, MxPair=       420
 NAB=   143 NAA=    78 NBB=    55.
 A-vector RMS=  1.5913525D-06 Max=  4.0185022D-05 conv= 1.00D-05.
 RLE energy=       -1.1571165258
 DE(Corr)=  -1.1571143     E(CORR)=     -186.06307832     Delta= 1.01D-05
 NORM(A)=   0.12724089D+01
 Iteration Nr.  30
 **********************
 DD1Dir will call FoFMem   1 times, MxPair=       420
 NAB=   143 NAA=    78 NBB=    55.
 A-vector RMS=  8.1392025D-07 Max=  1.4966298D-05 conv= 1.00D-05.
 RLE energy=       -1.1571199024
 DE(Corr)=  -1.1571207     E(CORR)=     -186.06308470     Delta=-6.37D-06
 NORM(A)=   0.12724221D+01
 Iteration Nr.  31
 **********************
 DD1Dir will call FoFMem   1 times, MxPair=       420
 NAB=   143 NAA=    78 NBB=    55.
 A-vector RMS=  8.3094505D-07 Max=  1.7733446D-05 conv= 1.00D-05.
 RLE energy=       -1.1571209299
 DE(Corr)=  -1.1571195     E(CORR)=     -186.06308351     Delta= 1.19D-06
 NORM(A)=   0.12724332D+01
 Iteration Nr.  32
 **********************
 DD1Dir will call FoFMem   1 times, MxPair=       420
 NAB=   143 NAA=    78 NBB=    55.
 A-vector RMS=  7.7542530D-07 Max=  1.5844656D-05 conv= 1.00D-05.
 RLE energy=       -1.1571230059
 DE(Corr)=  -1.1571204     E(CORR)=     -186.06308436     Delta=-8.52D-07
 NORM(A)=   0.12724418D+01
 Iteration Nr.  33
 **********************
 DD1Dir will call FoFMem   1 times, MxPair=       420
 NAB=   143 NAA=    78 NBB=    55.
 A-vector RMS=  6.9169234D-07 Max=  2.0417817D-05 conv= 1.00D-05.
 RLE energy=       -1.1571202216
 DE(Corr)=  -1.1571196     E(CORR)=     -186.06308361     Delta= 7.51D-07
 NORM(A)=   0.12724478D+01
 Iteration Nr.  34
 **********************
 DD1Dir will call FoFMem   1 times, MxPair=       420
 NAB=   143 NAA=    78 NBB=    55.
 A-vector RMS=  7.3149949D-07 Max=  2.1271157D-05 conv= 1.00D-05.
 RLE energy=       -1.1571235186
 DE(Corr)=  -1.1571238     E(CORR)=     -186.06308778     Delta=-4.17D-06
 NORM(A)=   0.12724496D+01
 Iteration Nr.  35
 **********************
 DD1Dir will call FoFMem   1 times, MxPair=       420
 NAB=   143 NAA=    78 NBB=    55.
 A-vector RMS=  3.7226396D-07 Max=  5.7435067D-06 conv= 1.00D-05.
 RLE energy=       -1.1571218051
 DE(Corr)=  -1.1571212     E(CORR)=     -186.06308517     Delta= 2.61D-06
 NORM(A)=   0.12724523D+01
 Iteration Nr.  36
 **********************
 DD1Dir will call FoFMem   1 times, MxPair=       420
 NAB=   143 NAA=    78 NBB=    55.
 A-vector RMS=  3.5321103D-07 Max=  7.3288163D-06 conv= 1.00D-05.
 RLE energy=       -1.1571227475
 DE(Corr)=  -1.1571232     E(CORR)=     -186.06308717     Delta=-2.01D-06
 NORM(A)=   0.12724506D+01
 Iteration Nr.  37
 **********************
 DD1Dir will call FoFMem   1 times, MxPair=       420
 NAB=   143 NAA=    78 NBB=    55.
 A-vector RMS=  2.1446856D-07 Max=  4.7753659D-06 conv= 1.00D-05.
 RLE energy=       -1.1571225417
 DE(Corr)=  -1.1571223     E(CORR)=     -186.06308635     Delta= 8.19D-07
 NORM(A)=   0.12724484D+01
 Iteration Nr.  38
 **********************
 DD1Dir will call FoFMem   1 times, MxPair=       420
 NAB=   143 NAA=    78 NBB=    55.
 A-vector RMS=  2.1934409D-07 Max=  4.6765587D-06 conv= 1.00D-05.
 RLE energy=       -1.1571225685
 DE(Corr)=  -1.1571223     E(CORR)=     -186.06308627     Delta= 8.45D-08
 NORM(A)=   0.12724460D+01
 CI/CC converged in   38 iterations to DelEn= 8.45D-08 Conv= 1.00D-07 ErrA1= 2.19D-07 Conv= 1.00D-05
 Wavefunction amplitudes converged. E(Corr)=     -186.06308627    
 Dominant configurations:
 ***********************
 Spin Case        I    J    A    B          Value
    AA           13        14            0.116763D+00
    BB            6        12           -0.109597D+00
    BB           11        12            0.162675D+00
    BB           10        17           -0.113523D+00
    BB           10        26            0.282675D+00
    BB           10        31           -0.156716D+00
    BB            9        18           -0.113523D+00
    BB            9        27            0.282675D+00
    BB            9        32           -0.156716D+00
 Largest amplitude= 2.83D-01
 Time for triples=    51854.94 seconds.
 T4(CCSD)= -0.95090738D-01
 T5(CCSD)=  0.37103297D-01
 CCSD(T)= -0.18612107371D+03
 Discarding MO integrals.
 Leave Link  913 at Mon Mar 26 16:55:08 2018, MaxMem= 10737418240 cpu:           83962.5 elap:            2635.4
 (Enter /home1/apps/gaussian/16rA.03/g16/l601.exe)
 Copying SCF densities to generalized density rwf, IOpCl= 0 IROHF=1.

 **********************************************************************

            Population analysis using the SCF density.

 **********************************************************************

 Orbital symmetries:
       Occupied  (SG) (PI) (PI) (SG) (SG) (SG) (DLTA) (DLTA) (PI)
                 (PI) (SG) (PI) (PI)
       Virtual   (SG) (PI) (PI) (SG) (SG) (PI) (PI) (SG) (DLTA)
                 (DLTA) (PI) (PI) (SG) (SG) (SG) (PI) (PI) (PI)
                 (PI) (SG) (DLTA) (DLTA) (SG) (PI) (PI) (SG) (SG)
                 (DLTA) (DLTA) (PI) (PI) (SG) (PI) (PI) (SG) (PI)
                 (PI) (SG) (PHI) (PHI) (DLTA) (DLTA) (PI) (PI)
                 (SG) (DLTA) (DLTA) (PI) (PI) (SG) (SG) (PHI) (PHI)
                 (SG) (DLTA) (DLTA) (PI) (PI) (DLTA) (DLTA) (SG)
                 (SG) (PI) (PI) (PI) (PI) (SG) (PI) (PI) (PHI)
                 (PHI) (SG) (DLTA) (DLTA) (PI) (PI) (DLTA) (DLTA)
                 (PI) (PI) (SG) (SG) (?A) (?A) (PHI) (PHI) (SG)
                 (DLTA) (DLTA) (PI) (PI) (SG) (PHI) (PHI) (DLTA)
                 (DLTA) (SG) (PI) (PI) (DLTA) (DLTA) (PI) (PI)
                 (SG) (PI) (PI) (SG) (SG) (DLTA) (DLTA) (PI) (PI)
                 (PHI) (PHI) (SG) (DLTA) (DLTA) (PI) (PI) (SG)
                 (SG) (PHI) (PHI) (?A) (?A) (DLTA) (DLTA) (PI)
                 (PI) (SG) (PI) (PI) (PI) (PI) (SG) (SG) (SG) (DLTA)
                 (DLTA) (PI) (PI) (SG) (DLTA) (DLTA) (PHI) (PHI)
                 (PI) (PI) (SG) (PI) (PI) (SG) (SG) (SG) (PHI)
                 (PHI) (?A) (?A) (DLTA) (DLTA) (PI) (PI) (SG) (DLTA)
                 (DLTA) (PI) (PI) (SG) (DLTA) (DLTA) (PI) (PI)
                 (SG) (PI) (PI) (SG) (PI) (PI) (SG) (SG) (SG) (DLTA)
                 (DLTA) (PI) (PI) (SG) (PI) (PI) (SG) (SG) (PI)
                 (PI) (SG) (SG) (PI) (PI) (SG) (DLTA) (DLTA) (PI)
                 (PI) (SG) (SG) (SG) (PI) (PI) (SG) (PI) (PI) (SG)
                 (SG) (SG) (DLTA) (DLTA) (PI) (PI) (SG) (PI) (PI)
                 (SG) (SG) (PI) (PI) (SG) (SG) (SG) (PI) (PI) (SG)
                 (SG) (SG) (PI) (PI) (SG) (SG) (PI) (PI) (SG) (SG)
                 (SG) (SG) (PI) (PI) (SG) (SG) (SG) (SG) (SG)
 The electronic state is 3-SG.
 Alpha  occ. eigenvalues --   -5.02360  -3.47704  -3.38684  -3.38684  -1.18295
 Alpha  occ. eigenvalues --   -0.79029  -0.79029  -0.71268  -0.68873  -0.68873
 Alpha  occ. eigenvalues --   -0.39297  -0.39297  -0.37942
 Alpha virt. eigenvalues --   -0.04540   0.02424   0.02424   0.02490   0.04275
 Alpha virt. eigenvalues --    0.08493   0.08493   0.10744   0.12338   0.12338
 Alpha virt. eigenvalues --    0.13263   0.13263   0.15601   0.16337   0.26437
 Alpha virt. eigenvalues --    0.28724   0.28724   0.30126   0.30126   0.36648
 Alpha virt. eigenvalues --    0.43993   0.43993   0.46436   0.46640   0.46640
 Alpha virt. eigenvalues --    0.57322   0.65938   0.77754   0.77754   0.88012
 Alpha virt. eigenvalues --    0.88012   0.90864   1.01361   1.01361   1.14638
 Alpha virt. eigenvalues --    1.22317   1.22317   1.23591   1.41785   1.41785
 Alpha virt. eigenvalues --    1.43742   1.43742   1.44118   1.44118   1.51595
 Alpha virt. eigenvalues --    1.54929   1.54929   1.80901   1.80901   1.84391
 Alpha virt. eigenvalues --    2.13370   2.19107   2.19107   2.22187   2.30600
 Alpha virt. eigenvalues --    2.30600   2.51281   2.51281   2.51531   2.51531
 Alpha virt. eigenvalues --    2.75752   2.99546   3.00676   3.00676   3.06055
 Alpha virt. eigenvalues --    3.06055   3.50656   4.03912   4.03912   4.16354
 Alpha virt. eigenvalues --    4.16354   4.16533   4.16533   4.17552   4.21146
 Alpha virt. eigenvalues --    4.21146   4.30063   4.30063   4.47056   4.47056
 Alpha virt. eigenvalues --    4.49996   4.92560   5.33276   5.33276   5.33689
 Alpha virt. eigenvalues --    5.33689   5.52460   5.54172   5.54172   5.95727
 Alpha virt. eigenvalues --    5.95727   6.21356   6.62093   6.62093   6.71251
 Alpha virt. eigenvalues --    6.71251   7.10449   7.11947   7.11947   7.15382
 Alpha virt. eigenvalues --    7.15382   7.52734   7.52734   7.54522   7.61414
 Alpha virt. eigenvalues --    7.61414   7.92516   8.30217  10.25883  10.25883
 Alpha virt. eigenvalues --   10.26870  10.26870  10.44507  10.44507  10.46271
 Alpha virt. eigenvalues --   10.46271  10.46530  10.69720  10.69720  11.88613
 Alpha virt. eigenvalues --   13.87878  14.51939  14.51939  14.57087  14.57087
 Alpha virt. eigenvalues --   14.62510  14.62510  14.80805  14.80805  15.17420
 Alpha virt. eigenvalues --   15.28155  15.28155  15.53683  15.53683  15.57002
 Alpha virt. eigenvalues --   16.11973  16.81904  21.19417  21.19417  21.23007
 Alpha virt. eigenvalues --   21.23007  21.77691  27.28568  27.28568  27.31792
 Alpha virt. eigenvalues --   27.31792  27.39885  27.39885  27.85311  29.32786
 Alpha virt. eigenvalues --   29.32786  29.62670  31.36901  31.58828  34.84896
 Alpha virt. eigenvalues --   34.84896  34.90655  34.90655  34.91303  34.91303
 Alpha virt. eigenvalues --   35.13198  35.13198  35.31006  39.52924  39.52924
 Alpha virt. eigenvalues --   39.55324  39.55324  40.05341  44.08631  44.08631
 Alpha virt. eigenvalues --   44.21771  44.21771  44.36339  46.44360  46.44360
 Alpha virt. eigenvalues --   47.51295  52.44337  52.44337  52.72942  58.39448
 Alpha virt. eigenvalues --   63.69358  74.27847  74.27847  74.30257  74.30257
 Alpha virt. eigenvalues --   74.74055  91.45723  91.45723  91.72950 105.05293
 Alpha virt. eigenvalues --  121.02787 121.02787 121.68734 122.50734 162.12344
 Alpha virt. eigenvalues --  162.12344 162.37722 176.51850 176.51850 176.55197
 Alpha virt. eigenvalues --  176.55197 176.89069 192.77785 236.52255 290.63178
 Alpha virt. eigenvalues --  290.63178 291.43818 300.61019 300.61019 300.86539
 Alpha virt. eigenvalues --  369.78210 525.85704 576.65063 576.65063 576.68310
 Alpha virt. eigenvalues --  576.68310 576.89211 588.09038 588.09038 588.34059
 Alpha virt. eigenvalues --  741.324311219.547901219.547901219.777851494.64338
 Alpha virt. eigenvalues -- 1552.215562711.249032711.249032711.457903399.17837
 Alpha virt. eigenvalues -- 5622.330176616.941326616.941326617.123947818.58351
 Alpha virt. eigenvalues -- **************************************************
 Alpha virt. eigenvalues -- **************************************************
 Alpha virt. eigenvalues -- ******************************
     Molecular Orbital Coefficients:
                           7         8         9        10        11
                           O         O         O         O         O
     Eigenvalues --    -0.79029  -0.71268  -0.68873  -0.68873  -0.39297
   1 1   Ni 1S          0.00000  -0.00000   0.00000   0.00000   0.00000
   2        2S          0.00000   0.00000   0.00000   0.00000  -0.00000
   3        3S          0.00000  -0.00000   0.00000   0.00000   0.00000
   4        4S          0.00000   0.00000   0.00000   0.00000  -0.00000
   5        5S          0.00000  -0.00000   0.00000   0.00000   0.00000
   6        6S          0.00000   0.00000   0.00000   0.00000  -0.00000
   7        7S          0.00000  -0.00000   0.00000   0.00000   0.00001
   8        8S          0.00000   0.00000   0.00000   0.00000  -0.00002
   9        9S          0.00000   0.00000   0.00000   0.00000   0.00007
  10       10S          0.00000   0.00000   0.00000   0.00000  -0.00019
  11       11S          0.00000  -0.00000   0.00000   0.00000   0.00045
  12       12S          0.00000   0.00000   0.00000   0.00000  -0.00043
  13       13S          0.00000  -0.00000   0.00000   0.00000  -0.01706
  14       14S          0.00000   0.00000   0.00000   0.00000   0.11932
  15       15S          0.00000   0.00000   0.00000   0.00000  -0.04595
  16       16S          0.00000  -0.00000   0.00000   0.00000  -0.06849
  17       17S          0.00000  -0.00000   0.00000   0.00000  -0.13560
  18       18S          0.00000  -0.00000   0.00000   0.00000   0.29379
  19       19S          0.00000  -0.00000   0.00000   0.00000   0.19461
  20       20S          0.00000  -0.00000   0.00000   0.00000   0.04691
  21       21S          0.00000  -0.00000   0.00000   0.00000  -0.02918
  22       22S          0.00000   0.00000   0.00000   0.00000  -0.15398
  23       23S          0.00000   0.00000   0.00000   0.00000  -0.00130
  24       24PX         0.00000   0.00000   0.00000   0.00000   0.00000
  25       24PY         0.00000   0.00000   0.00000   0.00000   0.00000
  26       24PZ         0.00000   0.00000   0.00000   0.00000  -0.00000
  27       25PX         0.00000   0.00000   0.00000  -0.00000   0.00000
  28       25PY         0.00000   0.00000  -0.00000   0.00000   0.00000
  29       25PZ         0.00000  -0.00000   0.00000   0.00000   0.00000
  30       26PX         0.00000   0.00000   0.00000   0.00000   0.00000
  31       26PY         0.00000   0.00000   0.00000   0.00000   0.00000
  32       26PZ         0.00000  -0.00000   0.00000   0.00000  -0.00000
  33       27PX         0.00000   0.00000   0.00000  -0.00000   0.00000
  34       27PY         0.00000   0.00000  -0.00000   0.00000   0.00000
  35       27PZ         0.00000   0.00000   0.00000   0.00000   0.00000
  36       28PX         0.00000   0.00000   0.00000   0.00001   0.00000
  37       28PY         0.00000   0.00000   0.00001   0.00000   0.00000
  38       28PZ         0.00000  -0.00000   0.00000   0.00000  -0.00000
  39       29PX         0.00000   0.00000   0.00000  -0.00002   0.00000
  40       29PY         0.00000   0.00000  -0.00002   0.00000   0.00000
  41       29PZ         0.00000   0.00000   0.00000   0.00000   0.00001
  42       30PX         0.00000   0.00000   0.00000   0.00007   0.00000
  43       30PY         0.00000   0.00000   0.00007   0.00000   0.00000
  44       30PZ         0.00000  -0.00000   0.00000   0.00000  -0.00006
  45       31PX         0.00000   0.00000   0.00000  -0.00037   0.00000
  46       31PY         0.00000   0.00000  -0.00037   0.00000   0.00000
  47       31PZ         0.00000   0.00000   0.00000   0.00000   0.00036
  48       32PX         0.00000   0.00000   0.00000   0.00255   0.00000
  49       32PY         0.00000   0.00000   0.00255   0.00000   0.00000
  50       32PZ         0.00000  -0.00000   0.00000   0.00000  -0.00277
  51       33PX         0.00000   0.00000   0.00000  -0.01699   0.00000
  52       33PY         0.00000   0.00000  -0.01699   0.00000   0.00000
  53       33PZ         0.00000  -0.00000   0.00000   0.00000   0.02687
  54       34PX         0.00000   0.00000   0.00000  -0.02857   0.00000
  55       34PY         0.00000   0.00000  -0.02857   0.00000   0.00000
  56       34PZ         0.00000   0.00000   0.00000   0.00000   0.03747
  57       35PX         0.00000   0.00000   0.00000  -0.05599   0.00000
  58       35PY         0.00000   0.00000  -0.05599   0.00000   0.00000
  59       35PZ         0.00000   0.00000   0.00000   0.00000   0.08297
  60       36PX         0.00000   0.00000   0.00000  -0.02132   0.00000
  61       36PY         0.00000   0.00000  -0.02132   0.00000   0.00000
  62       36PZ         0.00000  -0.00000   0.00000   0.00000   0.01873
  63       37PX         0.00000   0.00000   0.00000   0.04003   0.00000
  64       37PY         0.00000   0.00000   0.04003   0.00000   0.00000
  65       37PZ         0.00000   0.00000   0.00000   0.00000  -0.05075
  66       38PX         0.00000   0.00000   0.00000   0.07415   0.00000
  67       38PY         0.00000   0.00000   0.07415   0.00000   0.00000
  68       38PZ         0.00000   0.00000   0.00000   0.00000   0.01047
  69       39PX         0.00000   0.00000   0.00000   0.01405   0.00000
  70       39PY         0.00000   0.00000   0.01405   0.00000   0.00000
  71       39PZ         0.00000   0.00000   0.00000   0.00000   0.01505
  72       40PX         0.00000   0.00000   0.00000   0.01214   0.00000
  73       40PY         0.00000   0.00000   0.01214   0.00000   0.00000
  74       40PZ         0.00000   0.00000   0.00000   0.00000  -0.02021
  75       41PX         0.00000   0.00000   0.00000   0.01449   0.00000
  76       41PY         0.00000   0.00000   0.01449   0.00000   0.00000
  77       41PZ         0.00000  -0.00000   0.00000   0.00000  -0.02396
  78       42PX         0.00000   0.00000   0.00000  -0.00312   0.00000
  79       42PY         0.00000   0.00000  -0.00312   0.00000   0.00000
  80       42PZ         0.00000   0.00000   0.00000   0.00000  -0.00358
  81       43D 0        0.00000   0.00000   0.00000   0.00000  -0.00005
  82       43D+1        0.00000   0.00000   0.00000  -0.00004   0.00000
  83       43D-1        0.00000   0.00000  -0.00004   0.00000   0.00000
  84       43D+2        0.00000   0.00017   0.00000   0.00000   0.00000
  85       43D-2        0.00017   0.00000   0.00000   0.00000   0.00000
  86       44D 0        0.00000  -0.00000   0.00000   0.00000   0.00041
  87       44D+1        0.00000   0.00000   0.00000   0.00030   0.00000
  88       44D-1        0.00000   0.00000   0.00030   0.00000   0.00000
  89       44D+2        0.00000  -0.00140   0.00000   0.00000  -0.00000
  90       44D-2       -0.00140   0.00000   0.00000   0.00000   0.00000
  91       45D 0        0.00000   0.00000   0.00000   0.00000  -0.01295
  92       45D+1        0.00000   0.00000   0.00000  -0.01045   0.00000
  93       45D-1        0.00000   0.00000  -0.01045   0.00000   0.00000
  94       45D+2        0.00000   0.04553   0.00000   0.00000   0.00000
  95       45D-2        0.04553   0.00000   0.00000   0.00000   0.00000
  96       46D 0        0.00000   0.00000   0.00000   0.00000  -0.15772
  97       46D+1        0.00000   0.00000   0.00000  -0.15018   0.00000
  98       46D-1        0.00000   0.00000  -0.15018   0.00000   0.00000
  99       46D+2        0.00000   0.59333   0.00000   0.00000  -0.00000
 100       46D-2        0.59333   0.00000   0.00000   0.00000   0.00000
 101       47D 0        0.00000  -0.00000   0.00000   0.00000  -0.01594
 102       47D+1        0.00000   0.00000   0.00000   0.12319   0.00000
 103       47D-1        0.00000   0.00000   0.12319   0.00000   0.00000
 104       47D+2        0.00000  -0.19206   0.00000   0.00000   0.00000
 105       47D-2       -0.19206   0.00000   0.00000   0.00000   0.00000
 106       48D 0        0.00000   0.00000   0.00000   0.00000  -0.09650
 107       48D+1        0.00000   0.00000   0.00000  -0.09726   0.00000
 108       48D-1        0.00000   0.00000  -0.09726   0.00000   0.00000
 109       48D+2        0.00000   0.36735   0.00000   0.00000   0.00000
 110       48D-2        0.36735   0.00000   0.00000   0.00000   0.00000
 111       49D 0        0.00000   0.00000   0.00000   0.00000  -0.04975
 112       49D+1        0.00000   0.00000   0.00000  -0.07597   0.00000
 113       49D-1        0.00000   0.00000  -0.07597   0.00000   0.00000
 114       49D+2        0.00000   0.22346   0.00000   0.00000  -0.00000
 115       49D-2        0.22346   0.00000   0.00000   0.00000   0.00000
 116       50D 0        0.00000   0.00000   0.00000   0.00000  -0.04058
 117       50D+1        0.00000   0.00000   0.00000  -0.02218   0.00000
 118       50D-1        0.00000   0.00000  -0.02218   0.00000   0.00000
 119       50D+2        0.00000   0.05230   0.00000   0.00000   0.00000
 120       50D-2        0.05230   0.00000   0.00000   0.00000   0.00000
 121       51D 0        0.00000  -0.00000   0.00000   0.00000   0.08299
 122       51D+1        0.00000   0.00000   0.00000   0.09117   0.00000
 123       51D-1        0.00000   0.00000   0.09117   0.00000   0.00000
 124       51D+2        0.00000  -0.33433   0.00000   0.00000   0.00000
 125       51D-2       -0.33433   0.00000   0.00000   0.00000   0.00000
 126       52D 0        0.00000   0.00000   0.00000   0.00000  -0.09362
 127       52D+1        0.00000   0.00000   0.00000  -0.21516   0.00000
 128       52D-1        0.00000   0.00000  -0.21516   0.00000   0.00000
 129       52D+2        0.00000   0.57999   0.00000   0.00000  -0.00000
 130       52D-2        0.57999   0.00000   0.00000   0.00000   0.00000
 131       53D 0        0.00000  -0.00000   0.00000   0.00000  -0.00182
 132       53D+1        0.00000   0.00000   0.00000  -0.00050   0.00000
 133       53D-1        0.00000   0.00000  -0.00050   0.00000   0.00000
 134       53D+2        0.00000  -0.00327   0.00000   0.00000  -0.00000
 135       53D-2       -0.00327   0.00000   0.00000   0.00000   0.00000
 136       54F 0        0.00000   0.00000   0.00000   0.00000  -0.00055
 137       54F+1        0.00000   0.00000   0.00000   0.00041   0.00000
 138       54F-1        0.00000   0.00000   0.00041   0.00000   0.00000
 139       54F+2        0.00000   0.00054   0.00000   0.00000   0.00000
 140       54F-2        0.00054   0.00000   0.00000   0.00000   0.00000
 141       54F+3        0.00000   0.00000   0.00000  -0.00000   0.00000
 142       54F-3        0.00000   0.00000  -0.00000   0.00000   0.00000
 143       55F 0        0.00000   0.00000   0.00000   0.00000  -0.00141
 144       55F+1        0.00000   0.00000   0.00000   0.00029   0.00000
 145       55F-1        0.00000   0.00000   0.00029   0.00000   0.00000
 146       55F+2        0.00000   0.00145   0.00000   0.00000   0.00000
 147       55F-2        0.00145   0.00000   0.00000   0.00000   0.00000
 148       55F+3        0.00000   0.00000   0.00000   0.00000   0.00000
 149       55F-3        0.00000   0.00000   0.00000   0.00000   0.00000
 150       56F 0        0.00000   0.00000   0.00000   0.00000  -0.00605
 151       56F+1        0.00000   0.00000   0.00000   0.00570   0.00000
 152       56F-1        0.00000   0.00000   0.00570   0.00000   0.00000
 153       56F+2        0.00000   0.00429   0.00000   0.00000   0.00000
 154       56F-2        0.00429   0.00000   0.00000   0.00000   0.00000
 155       56F+3        0.00000   0.00000   0.00000  -0.00000   0.00000
 156       56F-3        0.00000   0.00000  -0.00000   0.00000   0.00000
 157       57F 0        0.00000   0.00000   0.00000   0.00000  -0.01359
 158       57F+1        0.00000   0.00000   0.00000   0.00970   0.00000
 159       57F-1        0.00000   0.00000   0.00970   0.00000   0.00000
 160       57F+2        0.00000   0.01038   0.00000   0.00000   0.00000
 161       57F-2        0.01038   0.00000   0.00000   0.00000   0.00000
 162       57F+3        0.00000   0.00000   0.00000   0.00000   0.00000
 163       57F-3        0.00000   0.00000   0.00000   0.00000   0.00000
 164       58G 0        0.00000   0.00000   0.00000   0.00000  -0.00005
 165       58G+1        0.00000   0.00000   0.00000  -0.00029   0.00000
 166       58G-1        0.00000   0.00000  -0.00029   0.00000   0.00000
 167       58G+2        0.00000   0.00026   0.00000   0.00000   0.00000
 168       58G-2        0.00026   0.00000   0.00000   0.00000   0.00000
 169       58G+3        0.00000   0.00000   0.00000  -0.00000   0.00000
 170       58G-3        0.00000   0.00000  -0.00000   0.00000   0.00000
 171       58G+4        0.00000   0.00000   0.00000   0.00000   0.00000
 172       58G-4        0.00000   0.00000   0.00000   0.00000   0.00000
 173       59G 0        0.00000   0.00000   0.00000   0.00000  -0.00040
 174       59G+1        0.00000   0.00000   0.00000   0.00010   0.00000
 175       59G-1        0.00000   0.00000   0.00010   0.00000   0.00000
 176       59G+2        0.00000   0.00054   0.00000   0.00000  -0.00000
 177       59G-2        0.00054   0.00000   0.00000   0.00000   0.00000
 178       59G+3        0.00000   0.00000   0.00000   0.00000   0.00000
 179       59G-3        0.00000   0.00000   0.00000   0.00000   0.00000
 180       59G+4        0.00000  -0.00000   0.00000   0.00000  -0.00000
 181       59G-4        0.00000   0.00000   0.00000   0.00000   0.00000
 182       60G 0        0.00000   0.00000   0.00000   0.00000   0.00041
 183       60G+1        0.00000   0.00000   0.00000  -0.00372   0.00000
 184       60G-1        0.00000   0.00000  -0.00372   0.00000   0.00000
 185       60G+2        0.00000   0.00146   0.00000   0.00000  -0.00000
 186       60G-2        0.00146   0.00000   0.00000   0.00000   0.00000
 187       60G+3        0.00000   0.00000   0.00000  -0.00000   0.00000
 188       60G-3        0.00000   0.00000  -0.00000   0.00000   0.00000
 189       60G+4        0.00000   0.00000   0.00000   0.00000   0.00000
 190       60G-4        0.00000   0.00000   0.00000   0.00000   0.00000
 191 2   O  1S          0.00000   0.00000   0.00000   0.00000   0.00000
 192        2S          0.00000   0.00000   0.00000   0.00000  -0.00000
 193        3S          0.00000  -0.00000   0.00000   0.00000   0.00000
 194        4S          0.00000   0.00000   0.00000   0.00000  -0.00003
 195        5S          0.00000  -0.00000   0.00000   0.00000   0.00023
 196        6S          0.00000  -0.00000   0.00000   0.00000   0.00443
 197        7S          0.00000   0.00000   0.00000   0.00000   0.03420
 198        8S          0.00000  -0.00000   0.00000   0.00000  -0.08927
 199        9S          0.00000  -0.00000   0.00000   0.00000  -0.02756
 200       10S          0.00000  -0.00000   0.00000   0.00000  -0.09642
 201       11S          0.00000  -0.00000   0.00000   0.00000  -0.01814
 202       12S          0.00000   0.00000   0.00000   0.00000  -0.00325
 203       13S          0.00000  -0.00000   0.00000   0.00000  -0.03101
 204       14PX         0.00000   0.00000   0.00000   0.00493   0.00000
 205       14PY         0.00000   0.00000   0.00493   0.00000   0.00000
 206       14PZ         0.00000   0.00000   0.00000   0.00000   0.00424
 207       15PX         0.00000   0.00000   0.00000   0.08327   0.00000
 208       15PY         0.00000   0.00000   0.08327   0.00000   0.00000
 209       15PZ         0.00000   0.00000   0.00000   0.00000   0.07277
 210       16PX         0.00000   0.00000   0.00000   0.24989   0.00000
 211       16PY         0.00000   0.00000   0.24989   0.00000   0.00000
 212       16PZ         0.00000   0.00000   0.00000   0.00000   0.21961
 213       17PX         0.00000   0.00000   0.00000   0.40173   0.00000
 214       17PY         0.00000   0.00000   0.40173   0.00000   0.00000
 215       17PZ         0.00000   0.00000   0.00000   0.00000   0.35042
 216       18PX         0.00000   0.00000   0.00000   0.33009   0.00000
 217       18PY         0.00000   0.00000   0.33009   0.00000   0.00000
 218       18PZ         0.00000   0.00000   0.00000   0.00000   0.28121
 219       19PX         0.00000   0.00000   0.00000   0.00082   0.00000
 220       19PY         0.00000   0.00000   0.00082   0.00000   0.00000
 221       19PZ         0.00000   0.00000   0.00000   0.00000   0.00091
 222       20PX         0.00000   0.00000   0.00000  -0.00156   0.00000
 223       20PY         0.00000   0.00000  -0.00156   0.00000   0.00000
 224       20PZ         0.00000  -0.00000   0.00000   0.00000  -0.00134
 225       21PX         0.00000   0.00000   0.00000   0.05532   0.00000
 226       21PY         0.00000   0.00000   0.05532   0.00000   0.00000
 227       21PZ         0.00000   0.00000   0.00000   0.00000   0.05595
 228       22D 0        0.00000   0.00000   0.00000   0.00000   0.00325
 229       22D+1        0.00000   0.00000   0.00000   0.00642   0.00000
 230       22D-1        0.00000   0.00000   0.00642   0.00000   0.00000
 231       22D+2        0.00000   0.00082   0.00000   0.00000  -0.00000
 232       22D-2        0.00082   0.00000   0.00000   0.00000   0.00000
 233       23D 0        0.00000   0.00000   0.00000   0.00000   0.01191
 234       23D+1        0.00000   0.00000   0.00000   0.02654   0.00000
 235       23D-1        0.00000   0.00000   0.02654   0.00000   0.00000
 236       23D+2        0.00000   0.00418   0.00000   0.00000   0.00000
 237       23D-2        0.00418   0.00000   0.00000   0.00000   0.00000
 238       24D 0        0.00000   0.00000   0.00000   0.00000   0.00016
 239       24D+1        0.00000   0.00000   0.00000   0.00034   0.00000
[...]
  43       30PY        -0.00009  -0.00004  -0.00004  -0.00000
  44       30PZ        -0.00009  -0.00005  -0.00005   0.00000
  45       31PX         0.00116   0.00058   0.00058   0.00000
  46       31PY         0.00116   0.00058   0.00058   0.00000
  47       31PZ         0.00123   0.00061   0.00061   0.00000
  48       32PX        -0.01544  -0.00774  -0.00770  -0.00004
  49       32PY        -0.01544  -0.00774  -0.00770  -0.00004
  50       32PZ        -0.01610  -0.00805  -0.00805   0.00000
  51       33PX         0.33457   0.16773   0.16684   0.00090
  52       33PY         0.33457   0.16773   0.16684   0.00090
  53       33PZ         0.33308   0.16654   0.16654   0.00000
  54       34PX         0.55146   0.27626   0.27520   0.00105
  55       34PY         0.55146   0.27626   0.27520   0.00105
  56       34PZ         0.56241   0.28121   0.28121   0.00000
  57       35PX         0.68873   0.34465   0.34408   0.00057
  58       35PY         0.68873   0.34465   0.34408   0.00057
  59       35PZ         0.70666   0.35333   0.35333   0.00000
  60       36PX         0.46067   0.23007   0.23060  -0.00053
  61       36PY         0.46067   0.23007   0.23060  -0.00053
  62       36PZ         0.45644   0.22822   0.22822   0.00000
  63       37PX         0.06878   0.03834   0.03044   0.00789
  64       37PY         0.06878   0.03834   0.03044   0.00789
  65       37PZ         0.05529   0.02765   0.02765   0.00000
  66       38PX         0.06895   0.04026   0.02868   0.01158
  67       38PY         0.06895   0.04026   0.02868   0.01158
  68       38PZ        -0.01285  -0.00643  -0.00643  -0.00000
  69       39PX         0.00826   0.00411   0.00415  -0.00004
  70       39PY         0.00826   0.00411   0.00415  -0.00004
  71       39PZ        -0.00113  -0.00056  -0.00056   0.00000
  72       40PX        -0.24650  -0.12357  -0.12293  -0.00063
  73       40PY        -0.24650  -0.12357  -0.12293  -0.00063
  74       40PZ        -0.24524  -0.12262  -0.12262  -0.00000
  75       41PX         0.18940   0.09501   0.09440   0.00061
  76       41PY         0.18940   0.09501   0.09440   0.00061
  77       41PZ         0.17669   0.08835   0.08835   0.00000
  78       42PX        -0.00090  -0.00048  -0.00042  -0.00006
  79       42PY        -0.00090  -0.00048  -0.00042  -0.00006
  80       42PZ        -0.00032  -0.00016  -0.00016   0.00000
  81       43D 0        0.00001   0.00000   0.00000   0.00000
  82       43D+1        0.00000   0.00000   0.00000   0.00000
  83       43D-1        0.00000   0.00000   0.00000   0.00000
  84       43D+2        0.00001   0.00000   0.00000   0.00000
  85       43D-2        0.00001   0.00000   0.00000   0.00000
  86       44D 0       -0.00035  -0.00018  -0.00018   0.00000
  87       44D+1       -0.00021  -0.00020  -0.00001  -0.00019
  88       44D-1       -0.00021  -0.00020  -0.00001  -0.00019
  89       44D+2       -0.00039  -0.00019  -0.00019  -0.00000
  90       44D-2       -0.00039  -0.00019  -0.00019  -0.00000
  91       45D 0        0.03356   0.01678   0.01678   0.00000
  92       45D+1        0.01979   0.01878   0.00101   0.01777
  93       45D-1        0.01979   0.01878   0.00101   0.01777
  94       45D+2        0.03632   0.01816   0.01816   0.00000
  95       45D-2        0.03632   0.01816   0.01816   0.00000
  96       46D 0        0.80233   0.40117   0.40117   0.00000
  97       46D+1        0.46380   0.43744   0.02636   0.41108
  98       46D-1        0.46380   0.43744   0.02636   0.41108
  99       46D+2        0.83751   0.41875   0.41875   0.00000
 100       46D-2        0.83751   0.41875   0.41875   0.00000
 101       47D 0       -0.51952  -0.25976  -0.25976  -0.00000
 102       47D+1       -0.22673  -0.19704  -0.02969  -0.16735
 103       47D-1       -0.22673  -0.19704  -0.02969  -0.16735
 104       47D+2       -0.34229  -0.17115  -0.17115   0.00000
 105       47D-2       -0.34229  -0.17115  -0.17115  -0.00000
 106       48D 0        0.61323   0.30661   0.30661   0.00000
 107       48D+1        0.34588   0.31560   0.03028   0.28532
 108       48D-1        0.34588   0.31560   0.03028   0.28532
 109       48D+2        0.62885   0.31442   0.31442   0.00000
 110       48D-2        0.62885   0.31442   0.31442   0.00000
 111       49D 0        0.22607   0.11304   0.11304   0.00000
 112       49D+1        0.15471   0.11995   0.03476   0.08518
 113       49D-1        0.15471   0.11995   0.03476   0.08518
 114       49D+2        0.27007   0.13503   0.13503   0.00000
 115       49D-2        0.27007   0.13503   0.13503   0.00000
 116       50D 0        0.02465   0.01233   0.01233   0.00000
 117       50D+1        0.02344   0.01300   0.01044   0.00256
 118       50D-1        0.02344   0.01300   0.01044   0.00256
 119       50D+2        0.02821   0.01410   0.01410   0.00000
 120       50D-2        0.02821   0.01410   0.01410   0.00000
 121       51D 0       -0.48199  -0.24100  -0.24100   0.00000
 122       51D+1       -0.27281  -0.25618  -0.01663  -0.23956
 123       51D-1       -0.27281  -0.25618  -0.01663  -0.23956
 124       51D+2       -0.48833  -0.24416  -0.24416   0.00000
 125       51D-2       -0.48833  -0.24416  -0.24416  -0.00000
 126       52D 0        1.16259   0.58129   0.58129   0.00000
 127       52D+1        0.60516   0.55376   0.05140   0.50236
 128       52D-1        0.60516   0.55376   0.05140   0.50236
 129       52D+2        1.02957   0.51479   0.51479   0.00000
 130       52D-2        1.02957   0.51479   0.51479   0.00000
 131       53D 0        0.00081   0.00041   0.00041   0.00000
 132       53D+1        0.00019   0.00008   0.00011  -0.00002
 133       53D-1        0.00019   0.00008   0.00011  -0.00002
 134       53D+2       -0.00050  -0.00025  -0.00025  -0.00000
 135       53D-2       -0.00050  -0.00025  -0.00025   0.00000
 136       54F 0        0.00003   0.00001   0.00001   0.00000
 137       54F+1        0.00000   0.00000   0.00000   0.00000
 138       54F-1        0.00000   0.00000   0.00000   0.00000
 139       54F+2        0.00000   0.00000   0.00000   0.00000
 140       54F-2        0.00000   0.00000   0.00000   0.00000
 141       54F+3        0.00000   0.00000  -0.00000   0.00000
 142       54F-3       -0.00000  -0.00000  -0.00000  -0.00000
 143       55F 0        0.00016   0.00008   0.00008   0.00000
 144       55F+1        0.00003   0.00002   0.00000   0.00002
 145       55F-1        0.00003   0.00002   0.00000   0.00002
 146       55F+2        0.00002   0.00001   0.00001   0.00000
 147       55F-2        0.00002   0.00001   0.00001   0.00000
 148       55F+3        0.00000   0.00000   0.00000   0.00000
 149       55F-3        0.00000   0.00000   0.00000   0.00000
 150       56F 0        0.00171   0.00085   0.00085   0.00000
 151       56F+1        0.00125   0.00076   0.00049   0.00028
 152       56F-1        0.00125   0.00076   0.00049   0.00028
 153       56F+2        0.00009   0.00005   0.00005   0.00000
 154       56F-2        0.00009   0.00005   0.00005   0.00000
 155       56F+3       -0.00000  -0.00000  -0.00000  -0.00000
 156       56F-3        0.00000   0.00000   0.00000   0.00000
 157       57F 0        0.00391   0.00196   0.00196   0.00000
 158       57F+1        0.00834   0.00528   0.00305   0.00223
 159       57F-1        0.00834   0.00528   0.00305   0.00223
 160       57F+2        0.00024   0.00012   0.00012   0.00000
 161       57F-2        0.00024   0.00012   0.00012   0.00000
 162       57F+3        0.00000   0.00000  -0.00000   0.00000
 163       57F-3        0.00000   0.00000  -0.00000   0.00000
 164       58G 0        0.00000   0.00000   0.00000   0.00000
 165       58G+1        0.00000   0.00000   0.00000   0.00000
 166       58G-1        0.00000   0.00000   0.00000   0.00000
 167       58G+2        0.00000   0.00000   0.00000   0.00000
 168       58G-2        0.00000   0.00000   0.00000   0.00000
 169       58G+3       -0.00000  -0.00000  -0.00000   0.00000
 170       58G-3       -0.00000   0.00000  -0.00000   0.00000
 171       58G+4        0.00000   0.00000   0.00000   0.00000
 172       58G-4       -0.00000  -0.00000  -0.00000  -0.00000
 173       59G 0        0.00002   0.00001   0.00001   0.00000
 174       59G+1       -0.00000   0.00000  -0.00000   0.00000
 175       59G-1       -0.00000   0.00000  -0.00000   0.00000
 176       59G+2        0.00000   0.00000   0.00000   0.00000
 177       59G-2        0.00000   0.00000   0.00000   0.00000
 178       59G+3        0.00000   0.00000  -0.00000   0.00000
 179       59G-3        0.00000   0.00000  -0.00000   0.00000
 180       59G+4       -0.00000  -0.00000  -0.00000  -0.00000
 181       59G-4        0.00000   0.00000   0.00000   0.00000
 182       60G 0        0.00037   0.00019   0.00019   0.00000
 183       60G+1        0.00045   0.00021   0.00024  -0.00003
 184       60G-1        0.00045   0.00021   0.00024  -0.00003
 185       60G+2        0.00001   0.00000   0.00000   0.00000
 186       60G-2        0.00001   0.00000   0.00000   0.00000
 187       60G+3       -0.00000  -0.00000  -0.00000  -0.00000
 188       60G-3        0.00000   0.00000   0.00000  -0.00000
 189       60G+4        0.00000   0.00000   0.00000  -0.00000
 190       60G-4       -0.00000  -0.00000  -0.00000  -0.00000
 191 2   O  1S         -0.00000  -0.00000  -0.00000  -0.00000
 192        2S          0.00000   0.00000   0.00000   0.00000
 193        3S         -0.00000  -0.00000  -0.00000  -0.00000
 194        4S          0.00001   0.00000   0.00000  -0.00000
 195        5S         -0.00019  -0.00009  -0.00009   0.00000
 196        6S         -0.00809  -0.00405  -0.00405  -0.00000
 197        7S         -0.15780  -0.07890  -0.07890  -0.00000
 198        8S          1.05316   0.52658   0.52658   0.00000
 199        9S          0.22416   0.11208   0.11208   0.00000
 200       10S          0.76860   0.38430   0.38430   0.00000
 201       11S          0.06856   0.03428   0.03428   0.00000
 202       12S          0.00496   0.00248   0.00248   0.00000
 203       13S          0.08520   0.04260   0.04260   0.00000
 204       14PX         0.00114   0.00060   0.00054   0.00006
 205       14PY         0.00114   0.00060   0.00054   0.00006
 206       14PZ         0.00097   0.00049   0.00049   0.00000
 207       15PX         0.06385   0.03356   0.03029   0.00328
 208       15PY         0.06385   0.03356   0.03029   0.00328
 209       15PZ         0.05638   0.02819   0.02819   0.00000
 210       16PX         0.35340   0.18551   0.16789   0.01763
 211       16PY         0.35340   0.18551   0.16789   0.01763
 212       16PZ         0.31789   0.15894   0.15894   0.00000
 213       17PX         0.73192   0.38072   0.35121   0.02951
 214       17PY         0.73192   0.38072   0.35121   0.02951
 215       17PZ         0.65721   0.32860   0.32860   0.00000
 216       18PX         0.54832   0.28563   0.26269   0.02293
 217       18PY         0.54832   0.28563   0.26269   0.02293
 218       18PZ         0.45904   0.22952   0.22952   0.00000
 219       19PX         0.00039   0.00021   0.00018   0.00002
 220       19PY         0.00039   0.00021   0.00018   0.00002
 221       19PZ         0.00051   0.00026   0.00026   0.00000
 222       20PX        -0.00022  -0.00011  -0.00010  -0.00001
 223       20PY        -0.00022  -0.00011  -0.00010  -0.00001
 224       20PZ        -0.00018  -0.00009  -0.00009   0.00000
 225       21PX         0.05510   0.03061   0.02449   0.00611
 226       21PY         0.05510   0.03061   0.02449   0.00611
 227       21PZ         0.06465   0.03233   0.03233   0.00000
 228       22D 0        0.00098   0.00049   0.00049   0.00000
 229       22D+1        0.00051   0.00027   0.00024   0.00003
 230       22D-1        0.00051   0.00027   0.00024   0.00003
 231       22D+2        0.00001   0.00001   0.00001   0.00000
 232       22D-2        0.00001   0.00001   0.00001   0.00000
 233       23D 0        0.00699   0.00350   0.00350  -0.00000
 234       23D+1        0.00666   0.00345   0.00322   0.00023
 235       23D-1        0.00666   0.00345   0.00322   0.00023
 236       23D+2        0.00044   0.00022   0.00022   0.00000
 237       23D-2        0.00044   0.00022   0.00022   0.00000
 238       24D 0        0.00000   0.00000   0.00000   0.00000
 239       24D+1        0.00000   0.00000   0.00000   0.00000
 240       24D-1        0.00000   0.00000   0.00000   0.00000
 241       24D+2        0.00000   0.00000   0.00000   0.00000
 242       24D-2        0.00000   0.00000   0.00000   0.00000
 243       25D 0       -0.00026  -0.00013  -0.00013   0.00000
 244       25D+1        0.00517   0.00217   0.00299  -0.00082
 245       25D-1        0.00517   0.00217   0.00299  -0.00082
 246       25D+2       -0.00021  -0.00011  -0.00011  -0.00000
 247       25D-2       -0.00021  -0.00011  -0.00011  -0.00000
 248       26F 0        0.00060   0.00030   0.00030   0.00000
 249       26F+1        0.00038   0.00024   0.00015   0.00009
 250       26F-1        0.00038   0.00024   0.00015   0.00009
 251       26F+2        0.00005   0.00002   0.00002   0.00000
 252       26F-2        0.00005   0.00002   0.00002   0.00000
 253       26F+3        0.00000   0.00000   0.00000   0.00000
 254       26F-3       -0.00000  -0.00000  -0.00000  -0.00000
 255       27F 0        0.00010   0.00005   0.00005  -0.00000
 256       27F+1        0.00098   0.00048   0.00050  -0.00003
 257       27F-1        0.00098   0.00048   0.00050  -0.00003
 258       27F+2        0.00033   0.00017   0.00017   0.00000
 259       27F-2        0.00033   0.00017   0.00017   0.00000
 260       27F+3        0.00000   0.00000   0.00000  -0.00000
 261       27F-3        0.00000   0.00000   0.00000  -0.00000
          Condensed to atoms (all electrons):
               1          2
     1  Ni  16.563666   0.296411
     2  O    0.296411   6.843511
          Atomic-Atomic Spin Densities.
               1          2
     1  Ni   1.890104  -0.048179
     2  O   -0.048179   0.206253
 Mulliken charges and spin densities:
               1          2
     1  Ni   1.139923   1.841925
     2  O   -1.139923   0.158075
 Sum of Mulliken charges =  -0.00000   2.00000
 Mulliken charges and spin densities with hydrogens summed into heavy atoms:
               1          2
     1  Ni   1.139923   1.841925
     2  O   -1.139923   0.158075
 Electronic spatial extent (au):  <R**2>=             78.2634
 Charge=             -0.0000 electrons
 Dipole moment (field-independent basis, Debye):
    X=              0.0000    Y=              0.0000    Z=              7.5028  Tot=              7.5028
 Quadrupole moment (field-independent basis, Debye-Ang):
   XX=            -18.1510   YY=            -18.1510   ZZ=            -20.1324
   XY=              0.0000   XZ=              0.0000   YZ=              0.0000
 Traceless Quadrupole moment (field-independent basis, Debye-Ang):
   XX=              0.6605   YY=              0.6605   ZZ=             -1.3209
   XY=              0.0000   XZ=              0.0000   YZ=              0.0000
 Octapole moment (field-independent basis, Debye-Ang**2):
  XXX=              0.0000  YYY=              0.0000  ZZZ=             21.5628  XYY=              0.0000
  XXY=              0.0000  XXZ=              5.2104  XZZ=              0.0000  YZZ=              0.0000
  YYZ=              5.2104  XYZ=              0.0000
 Hexadecapole moment (field-independent basis, Debye-Ang**3):
 XXXX=            -19.2652 YYYY=            -19.2652 ZZZZ=            -78.7139 XXXY=              0.0000
 XXXZ=              0.0000 YYYX=              0.0000 YYYZ=              0.0000 ZZZX=              0.0000
 ZZZY=              0.0000 XXYY=             -6.4217 XXZZ=            -15.7425 YYZZ=            -15.7425
 XXYZ=              0.0000 YYXZ=              0.0000 ZZXY=              0.0000
 N-N= 3.810075918624D+01 E-N=-5.199151804026D+02  KE= 1.137884566005D+02
 Symmetry A1   KE= 5.212735396398D+01
 Symmetry A2   KE= 1.642460532417D+01
 Symmetry B1   KE= 2.261824865656D+01
 Symmetry B2   KE= 2.261824865644D+01
 Symmetry A1   SP= 1.135914886377D-15
 Symmetry A2   SP= 2.999793770243D-16
 Symmetry B1   SP= 1.000000000000D+00
 Symmetry B2   SP= 1.000000000000D+00
 Orbital energies and kinetic energies (alpha):
                                 1                 2
   7         O                -0.790290          8.212303
   8         O                -0.712678          8.212303
   9         O                -0.688731          2.307287
  10         O                -0.688731          2.307287
  11         O                -0.392966          2.292043
  12         O                -0.392966          8.225363
  13         O                -0.379417          8.225363
  14         V                -0.045401          0.588397
  15         V                 0.024239          0.084645
  16         V                 0.024239          0.084645
  17         V                 0.024897          0.204859
  18         V                 0.042750          0.046462
 Total kinetic energy from orbitals= 1.302391830171D+02
                          Isotropic Fermi Contact Couplings
        Atom                 a.u.       MegaHertz       Gauss      10(-4) cm-1
     1  Ni(61)            -0.00000       0.00000       0.00000       0.00000
     2  O(17)              0.00000      -0.00000      -0.00000      -0.00000
 --------------------------------------------------------
       Center         ----  Spin Dipole Couplings  ----
                      3XX-RR        3YY-RR        3ZZ-RR
 --------------------------------------------------------
     1   Atom       -1.378328     -1.378328      2.756656
     2   Atom        0.051562      0.051562     -0.103125
 --------------------------------------------------------
                        XY            XZ            YZ
 --------------------------------------------------------
     1   Atom        0.000000      0.000000      0.000000
     2   Atom        0.000000      0.000000      0.000000
 --------------------------------------------------------


 ---------------------------------------------------------------------------------
              Anisotropic Spin Dipole Couplings in Principal Axis System
 ---------------------------------------------------------------------------------

       Atom             a.u.   MegaHertz   Gauss  10(-4) cm-1        Axes

              Baa    -1.3783    65.832    23.490    21.959 -0.0000  1.0000  0.0000
     1 Ni(61) Bbb    -1.3783    65.832    23.490    21.959  1.0000  0.0000  0.0000
              Bcc     2.7567  -131.663   -46.981   -43.918  0.0000  0.0000  1.0000
 
              Baa    -0.1031     7.462     2.663     2.489  0.0000  0.0000  1.0000
     2 O(17)  Bbb     0.0516    -3.731    -1.331    -1.245 -0.0000  1.0000  0.0000
              Bcc     0.0516    -3.731    -1.331    -1.245  1.0000  0.0000  0.0000
 

 ---------------------------------------------------------------------------------

 No NMR shielding tensors so no spin-rotation constants.
 Leave Link  601 at Mon Mar 26 16:55:12 2018, MaxMem= 10737418240 cpu:             112.5 elap:               3.7
 (Enter /home1/apps/gaussian/16rA.03/g16/l9999.exe)

 Test job not archived.
 1\1\GINC-C441-082\SP\ROCCSD(T)-Full\Gen\Ni1O1(3)\GWANG18\26-Mar-2018\0
 \\#P ROCCSD(T)=(MaxCyc=150, Full)/Gen SCF=(maxcycle=400) Pseudo=Read I
 ntegral(NoXCTest) Pop=Regular MaxDisk=500GB Guess=Read IOp(5/15=2)\\Ni
 O\\0,3\Ni,0,0.,0.,0.\O,0,0.,0.,1.5\\Version=ES64L-G16RevA.03\State=3-S
 G\HF=-184.905964\MP2=-186.102386\MP3=-185.9808817\PUHF=-184.905964\PMP
 2-0=-186.102386\MP4SDQ=-186.0797568\CCSD=-186.0630863\CCSD(T)=-186.121
 0737\RMSD=7.786e-09\PG=C*V [C*(O1Ni1)]\\@


 ALTHOUGH J.J. COULD DIAGNOSE THE FAULTS OF AN
 APPARATUS WITH UNCANNY ACCURACY, IT WAS JUST AS
 WELL NOT TO LET HIM HANDLE IT.
   -- GEORGE THOMPSON, ABOUT HIS FATHER
 Job cpu time:       1 days  0 hours 42 minutes 17.3 seconds.
 Elapsed time:       0 days  0 hours 46 minutes 36.0 seconds.
 File lengths (MBytes):  RWF=   5037 Int=      0 D2E=      0 Chk=      9 Scr=      1
 Normal termination of Gaussian 16 at Mon Mar 26 16:55:12 2018.
