 Entering Gaussian System, Link 0=g16
 Initial command:
 /home1/apps/gaussian/16rA.03/g16/l1.exe "/tmp/Gau-145243.inp" -scrdir="/tmp/"
 Entering Link 1 = /home1/apps/gaussian/16rA.03/g16/l1.exe PID=    145244.
  
 Copyright (c) 1988,1990,1992,1993,1995,1998,2003,2009,2016,
            Gaussian, Inc.  All Rights Reserved.
  
 This is part of the Gaussian(R) 16 program.  It is based on
 the Gaussian(R) 09 system (copyright 2009, Gaussian, Inc.),
 the Gaussian(R) 03 system (copyright 2003, Gaussian, Inc.),
 the Gaussian(R) 98 system (copyright 1998, Gaussian, Inc.),
 the Gaussian(R) 94 system (copyright 1995, Gaussian, Inc.),
 the Gaussian 92(TM) system (copyright 1992, Gaussian, Inc.),
 the Gaussian 90(TM) system (copyright 1990, Gaussian, Inc.),
 the Gaussian 88(TM) system (copyright 1988, Gaussian, Inc.),
 the Gaussian 86(TM) system (copyright 1986, Carnegie Mellon
 University), and the Gaussian 82(TM) system (copyright 1983,
 Carnegie Mellon University). Gaussian is a federally registered
 trademark of Gaussian, Inc.
  
 This software contains proprietary and confidential information,
 including trade secrets, belonging to Gaussian, Inc.
  
 This software is provided under written license and may be
 used, copied, transmitted, or stored only in accord with that
 written license.
  
 The following legend is applicable only to US Government
 contracts under FAR:
  
                    RESTRICTED RIGHTS LEGEND
  
 Use, reproduction and disclosure by the US Government is
 subject to restrictions as set forth in subparagraphs (a)
 and (c) of the Commercial Computer Software - Restricted
 Rights clause in FAR 52.227-19.
  
 Gaussian, Inc.
 340 Quinnipiac St., Bldg. 40, Wallingford CT 06492
  
  
 ---------------------------------------------------------------
 Warning -- This program may not be used in any manner that
 competes with the business of Gaussian, Inc. or will provide
 assistance to any competitor of Gaussian, Inc.  The licensee
 of this program is prohibited from giving any competitor of
 Gaussian, Inc. access to this program.  By using this program,
 the user acknowledges that Gaussian, Inc. is engaged in the
 business of creating and licensing software in the field of
 computational chemistry and represents and warrants to the
 licensee that it is not a competitor of Gaussian, Inc. and that
 it will not use this program in any manner prohibited above.
 ---------------------------------------------------------------
  

 Cite this work as:
 Gaussian 16, Revision A.03,
 M. J. Frisch, G. W. Trucks, H. B. Schlegel, G. E. Scuseria, 
 M. A. Robb, J. R. Cheeseman, G. Scalmani, V. Barone, 
 G. A. Petersson, H. Nakatsuji, X. Li, M. Caricato, A. V. Marenich, 
 J. Bloino, B. G. Janesko, R. Gomperts, B. Mennucci, H. P. Hratchian, 
 J. V. Ortiz, A. F. Izmaylov, J. L. Sonnenberg, D. Williams-Young, 
 F. Ding, F. Lipparini, F. Egidi, J. Goings, B. Peng, A. Petrone, 
 T. Henderson, D. Ranasinghe, V. G. Zakrzewski, J. Gao, N. Rega, 
 G. Zheng, W. Liang, M. Hada, M. Ehara, K. Toyota, R. Fukuda, 
 J. Hasegawa, M. Ishida, T. Nakajima, Y. Honda, O. Kitao, H. Nakai, 
 T. Vreven, K. Throssell, J. A. Montgomery, Jr., J. E. Peralta, 
 F. Ogliaro, M. J. Bearpark, J. J. Heyd, E. N. Brothers, K. N. Kudin, 
 V. N. Staroverov, T. A. Keith, R. Kobayashi, J. Normand, 
 K. Raghavachari, A. P. Rendell, J. C. Burant, S. S. Iyengar, 
 J. Tomasi, M. Cossi, J. M. Millam, M. Klene, C. Adamo, R. Cammi, 
 J. W. Ochterski, R. L. Martin, K. Morokuma, O. Farkas, 
 J. B. Foresman, and D. J. Fox, Gaussian, Inc., Wallingford CT, 2016.
 
 ******************************************
 Gaussian 16:  ES64L-G16RevA.03 25-Dec-2016
                27-Feb-2018 
 ******************************************
 %MEM=80GB
 %CPU=0-15
 SetSPE:  set environment variable "MP_BIND" = "yes"
 SetSPE:  set environment variable "MP_BLIST" = "0,1,2,3,4,5,6,7,8,9,10,11,12,13,14,15"
 Will use up to   16 processors via shared memory.
 %RWF=/scratch/04843/aannabe/gaussian/
 %Int=/scratch/04843/aannabe/gaussian/
 %D2E=/scratch/04843/aannabe/gaussian/
 %NoSave
 %CHK=ScO
 ----------------------------------------------------------------------
 #P ROCCSD(T)=(maxcyc=150, Full, SaveAmplitudes, ReadAmplitudes)/Gen 5d
  7f SCF=(maxcycles=300) Integral(NoXCTest) MaxDisk=500GB Pop=Regular P
 seudo=Read Guess=Read
 ----------------------------------------------------------------------
 1/38=1,172=1/1;
 2/12=2,17=6,18=5,40=1/2;
 3/5=7,8=11,11=2,16=1,17=8,25=1,30=1,47=8,116=101/1,2,3;
 4/5=1/1;
 5/5=2,7=300,38=6/2;
 8/5=-1,6=4,9=120000,10=90,24=1/1,4;
 9/5=7,6=150,14=2,77=1/13;
 6//1;
 99/5=1,9=1/99;
 Leave Link    1 at Tue Feb 27 13:05:50 2018, MaxMem= 10737418240 cpu:               3.5 elap:               0.2
 (Enter /home1/apps/gaussian/16rA.03/g16/l101.exe)
 ---
 ScO
 ---
 Symbolic Z-matrix:
 Charge =  0 Multiplicity = 2
 Sc                    0.        0.        0. 
 O                     0.        0.        1.3 
 
 ITRead=  0  0
 MicOpt= -1 -1
 NAtoms=      2 NQM=        2 NQMF=       0 NMMI=      0 NMMIF=      0
                NMic=       0 NMicF=      0.
                    Isotopes and Nuclear Properties:
 (Nuclear quadrupole moments (NQMom) in fm**2, nuclear magnetic moments (NMagM)
  in nuclear magnetons)

  Atom         1           2
 IAtWgt=          45          16
 AtmWgt=  44.9559136  15.9949146
 NucSpn=           7           0
 AtZEff=  -0.0000000  -0.0000000
 NQMom=  -22.0000000   0.0000000
 NMagM=    4.7564830   0.0000000
 AtZNuc=  21.0000000   8.0000000
 Leave Link  101 at Tue Feb 27 13:05:50 2018, MaxMem= 10737418240 cpu:               1.4 elap:               0.1
 (Enter /home1/apps/gaussian/16rA.03/g16/l202.exe)
                          Input orientation:                          
 ---------------------------------------------------------------------
 Center     Atomic      Atomic             Coordinates (Angstroms)
 Number     Number       Type             X           Y           Z
 ---------------------------------------------------------------------
      1         21           0        0.000000    0.000000    0.000000
      2          8           0        0.000000    0.000000    1.300000
 ---------------------------------------------------------------------
 Stoichiometry    OSc(2)
 Framework group  C*V[C*(OSc)]
 Deg. of freedom     1
 Full point group                 C*V     NOp   4
 Largest Abelian subgroup         C2V     NOp   4
 Largest concise Abelian subgroup C1      NOp   1
                         Standard orientation:                         
 ---------------------------------------------------------------------
 Center     Atomic      Atomic             Coordinates (Angstroms)
 Number     Number       Type             X           Y           Z
 ---------------------------------------------------------------------
      1         21           0        0.000000    0.000000    0.358621
      2          8           0        0.000000    0.000000   -0.941379
 ---------------------------------------------------------------------
 Rotational constants (GHZ):           0.0000000          25.3478630          25.3478630
 Leave Link  202 at Tue Feb 27 13:05:51 2018, MaxMem= 10737418240 cpu:               0.3 elap:               0.1
 (Enter /home1/apps/gaussian/16rA.03/g16/l301.exe)
 General basis read from cards:  (5D, 7F)
 Centers:       1
 S 1 1.00
     Exponent=  8.4179090000D+06 Coefficients=  1.0000000000D+00
 S 1 1.00
     Exponent=  1.2603120000D+06 Coefficients=  1.0000000000D+00
 S 1 1.00
     Exponent=  2.8679840000D+05 Coefficients=  1.0000000000D+00
 S 1 1.00
     Exponent=  8.1234690000D+04 Coefficients=  1.0000000000D+00
 S 1 1.00
     Exponent=  2.6503110000D+04 Coefficients=  1.0000000000D+00
 S 1 1.00
     Exponent=  9.5687010000D+03 Coefficients=  1.0000000000D+00
 S 1 1.00
     Exponent=  3.7324970000D+03 Coefficients=  1.0000000000D+00
 S 1 1.00
     Exponent=  1.5484220000D+03 Coefficients=  1.0000000000D+00
 S 1 1.00
     Exponent=  6.7554200000D+02 Coefficients=  1.0000000000D+00
 S 1 1.00
     Exponent=  3.0725220000D+02 Coefficients=  1.0000000000D+00
 S 1 1.00
     Exponent=  1.4466720000D+02 Coefficients=  1.0000000000D+00
 S 1 1.00
     Exponent=  7.0043870000D+01 Coefficients=  1.0000000000D+00
 S 1 1.00
     Exponent=  3.4322500000D+01 Coefficients=  1.0000000000D+00
 S 1 1.00
     Exponent=  1.5612240000D+01 Coefficients=  1.0000000000D+00
 S 1 1.00
     Exponent=  7.7437220000D+00 Coefficients=  1.0000000000D+00
 S 1 1.00
     Exponent=  3.8442600000D+00 Coefficients=  1.0000000000D+00
 S 1 1.00
     Exponent=  1.7197660000D+00 Coefficients=  1.0000000000D+00
 S 1 1.00
     Exponent=  8.3252300000D-01 Coefficients=  1.0000000000D+00
 S 1 1.00
     Exponent=  3.8556400000D-01 Coefficients=  1.0000000000D+00
 S 1 1.00
     Exponent=  9.6700000000D-02 Coefficients=  1.0000000000D+00
 S 1 1.00
     Exponent=  4.7778000000D-02 Coefficients=  1.0000000000D+00
 S 1 1.00
     Exponent=  2.2363000000D-02 Coefficients=  1.0000000000D+00
 S 1 1.00
     Exponent=  3.1672000000D+00 Coefficients=  1.0000000000D+00
 S 1 1.00
     Exponent=  1.6879000000D+00 Coefficients=  1.0000000000D+00
 S 1 1.00
     Exponent=  1.0470000000D-02 Coefficients=  1.0000000000D+00
 P 1 1.00
     Exponent=  2.2640970000D+04 Coefficients=  1.0000000000D+00
 P 1 1.00
     Exponent=  5.3575450000D+03 Coefficients=  1.0000000000D+00
 P 1 1.00
     Exponent=  1.7403730000D+03 Coefficients=  1.0000000000D+00
 P 1 1.00
     Exponent=  6.6661630000D+02 Coefficients=  1.0000000000D+00
 P 1 1.00
     Exponent=  2.8363840000D+02 Coefficients=  1.0000000000D+00
 P 1 1.00
     Exponent=  1.2979760000D+02 Coefficients=  1.0000000000D+00
 P 1 1.00
     Exponent=  6.2679560000D+01 Coefficients=  1.0000000000D+00
 P 1 1.00
     Exponent=  3.1504410000D+01 Coefficients=  1.0000000000D+00
 P 1 1.00
     Exponent=  1.6235250000D+01 Coefficients=  1.0000000000D+00
 P 1 1.00
     Exponent=  8.5183240000D+00 Coefficients=  1.0000000000D+00
 P 1 1.00
     Exponent=  4.5190050000D+00 Coefficients=  1.0000000000D+00
 P 1 1.00
     Exponent=  2.3665910000D+00 Coefficients=  1.0000000000D+00
 P 1 1.00
     Exponent=  1.2152350000D+00 Coefficients=  1.0000000000D+00
 P 1 1.00
     Exponent=  6.1434800000D-01 Coefficients=  1.0000000000D+00
 P 1 1.00
     Exponent=  3.0074500000D-01 Coefficients=  1.0000000000D+00
 P 1 1.00
     Exponent=  1.2583400000D-01 Coefficients=  1.0000000000D+00
 P 1 1.00
     Exponent=  5.4719000000D-02 Coefficients=  1.0000000000D+00
 P 1 1.00
     Exponent=  2.3488000000D-02 Coefficients=  1.0000000000D+00
 P 1 1.00
     Exponent=  4.0719000000D+00 Coefficients=  1.0000000000D+00
 P 1 1.00
     Exponent=  9.9940000000D-01 Coefficients=  1.0000000000D+00
 P 1 1.00
     Exponent=  1.0080000000D-02 Coefficients=  1.0000000000D+00
 D 1 1.00
     Exponent=  1.4802800000D+02 Coefficients=  1.0000000000D+00
 D 1 1.00
     Exponent=  4.3852800000D+01 Coefficients=  1.0000000000D+00
 D 1 1.00
     Exponent=  1.6664600000D+01 Coefficients=  1.0000000000D+00
 D 1 1.00
     Exponent=  6.9789300000D+00 Coefficients=  1.0000000000D+00
 D 1 1.00
     Exponent=  3.1236900000D+00 Coefficients=  1.0000000000D+00
 D 1 1.00
     Exponent=  1.4468700000D+00 Coefficients=  1.0000000000D+00
 D 1 1.00
     Exponent=  6.6740700000D-01 Coefficients=  1.0000000000D+00
 D 1 1.00
     Exponent=  3.0163300000D-01 Coefficients=  1.0000000000D+00
 D 1 1.00
     Exponent=  1.3267400000D-01 Coefficients=  1.0000000000D+00
 D 1 1.00
     Exponent=  5.6739000000D-02 Coefficients=  1.0000000000D+00
 D 1 1.00
     Exponent=  2.3175000000D-02 Coefficients=  1.0000000000D+00
 D 1 1.00
     Exponent=  2.1282000000D+00 Coefficients=  1.0000000000D+00
 D 1 1.00
     Exponent=  9.6910000000D-01 Coefficients=  1.0000000000D+00
 D 1 1.00
     Exponent=  9.4700000000D-03 Coefficients=  1.0000000000D+00
 F 1 1.00
     Exponent=  2.7590000000D+00 Coefficients=  1.0000000000D+00
 F 1 1.00
     Exponent=  1.0490000000D+00 Coefficients=  1.0000000000D+00
 F 1 1.00
     Exponent=  3.9890000000D-01 Coefficients=  1.0000000000D+00
 F 1 1.00
     Exponent=  1.1060000000D-01 Coefficients=  1.0000000000D+00
 F 1 1.00
     Exponent=  3.0670000000D-02 Coefficients=  1.0000000000D+00
 G 1 1.00
     Exponent=  2.4852000000D+00 Coefficients=  1.0000000000D+00
 G 1 1.00
     Exponent=  9.0670000000D-01 Coefficients=  1.0000000000D+00
 G 1 1.00
     Exponent=  2.5300000000D-01 Coefficients=  1.0000000000D+00
 G 1 1.00
     Exponent=  7.0600000000D-02 Coefficients=  1.0000000000D+00
 H 1 1.00
     Exponent=  2.0405000000D+00 Coefficients=  1.0000000000D+00
 H 1 1.00
     Exponent=  4.9340000000D-01 Coefficients=  1.0000000000D+00
 H 1 1.00
     Exponent=  1.1931000000D-01 Coefficients=  1.0000000000D+00
 ****
 Centers:       2
 S 1 1.00
     Exponent=  6.1420000000D+04 Coefficients=  1.0000000000D+00
 S 1 1.00
     Exponent=  9.1990000000D+03 Coefficients=  1.0000000000D+00
 S 1 1.00
     Exponent=  2.0910000000D+03 Coefficients=  1.0000000000D+00
 S 1 1.00
     Exponent=  5.9090000000D+02 Coefficients=  1.0000000000D+00
 S 1 1.00
     Exponent=  1.9230000000D+02 Coefficients=  1.0000000000D+00
 S 1 1.00
     Exponent=  6.9320000000D+01 Coefficients=  1.0000000000D+00
 S 1 1.00
     Exponent=  2.6970000000D+01 Coefficients=  1.0000000000D+00
 S 1 1.00
     Exponent=  1.1100000000D+01 Coefficients=  1.0000000000D+00
 S 1 1.00
     Exponent=  4.6820000000D+00 Coefficients=  1.0000000000D+00
 S 1 1.00
     Exponent=  1.4280000000D+00 Coefficients=  1.0000000000D+00
 S 1 1.00
     Exponent=  5.5470000000D-01 Coefficients=  1.0000000000D+00
 S 1 1.00
     Exponent=  2.0670000000D-01 Coefficients=  1.0000000000D+00
 S 1 1.00
     Exponent=  1.2974000000D+01 Coefficients=  1.0000000000D+00
 S 1 1.00
     Exponent=  3.4900000000D+01 Coefficients=  1.0000000000D+00
 S 1 1.00
     Exponent=  9.3881000000D+01 Coefficients=  1.0000000000D+00
 S 1 1.00
     Exponent=  6.9590000000D-02 Coefficients=  1.0000000000D+00
 P 1 1.00
     Exponent=  6.3420000000D+01 Coefficients=  1.0000000000D+00
 P 1 1.00
     Exponent=  1.4660000000D+01 Coefficients=  1.0000000000D+00
 P 1 1.00
     Exponent=  4.4590000000D+00 Coefficients=  1.0000000000D+00
 P 1 1.00
     Exponent=  1.5310000000D+00 Coefficients=  1.0000000000D+00
 P 1 1.00
     Exponent=  5.3020000000D-01 Coefficients=  1.0000000000D+00
 P 1 1.00
     Exponent=  1.7500000000D-01 Coefficients=  1.0000000000D+00
 P 1 1.00
     Exponent=  1.4475000000D+01 Coefficients=  1.0000000000D+00
 P 1 1.00
     Exponent=  4.2730000000D+01 Coefficients=  1.0000000000D+00
 P 1 1.00
     Exponent=  1.2614000000D+02 Coefficients=  1.0000000000D+00
 P 1 1.00
     Exponent=  5.3480000000D-02 Coefficients=  1.0000000000D+00
 D 1 1.00
     Exponent=  3.7750000000D+00 Coefficients=  1.0000000000D+00
 D 1 1.00
     Exponent=  1.3000000000D+00 Coefficients=  1.0000000000D+00
 D 1 1.00
     Exponent=  4.4400000000D-01 Coefficients=  1.0000000000D+00
 D 1 1.00
     Exponent=  1.4927000000D+01 Coefficients=  1.0000000000D+00
 D 1 1.00
     Exponent=  5.7544000000D+01 Coefficients=  1.0000000000D+00
 D 1 1.00
     Exponent=  1.5400000000D-01 Coefficients=  1.0000000000D+00
 F 1 1.00
     Exponent=  2.6660000000D+00 Coefficients=  1.0000000000D+00
 F 1 1.00
     Exponent=  8.5900000000D-01 Coefficients=  1.0000000000D+00
 F 1 1.00
     Exponent=  2.6483000000D+01 Coefficients=  1.0000000000D+00
 F 1 1.00
     Exponent=  3.2400000000D-01 Coefficients=  1.0000000000D+00
 G 1 1.00
     Exponent=  1.8460000000D+00 Coefficients=  1.0000000000D+00
 G 1 1.00
     Exponent=  7.1400000000D-01 Coefficients=  1.0000000000D+00
 ****
 ======================================================================================================
                                       Pseudopotential Parameters
 ======================================================================================================
  Center     Atomic      Valence      Angular      Power
  Number     Number     Electrons     Momentum     of R      Exponent        Coefficient   SO-Coeffient
 ======================================================================================================
    1         21           11
                                      F and up 
                                                     2        1.0000000        0.00000000    0.00000000
                                      S - F
                                                     2       11.5000000      138.53815200    0.00000000
                                                     2        5.1840000       14.83404200    0.00000000
                                      P - F
                                                     2       10.9300000       82.45861400    0.00000000
                                                     2        4.5810000        8.56520600    0.00000000
                                      D - F
                                                     2       13.4700000      -16.12986200    0.00000000
                                                     2        4.3750000       -0.53469000    0.00000000
    2          8            6
                                      P and up 
                                                     1       12.3099700        6.00000000    0.00000000
                                                     3       14.7696200       73.85984000    0.00000000
                                                     2       13.7141900      -47.87600000    0.00000000
                                      S - P
                                                     2       13.6551200       85.86406000    0.00000000
 ======================================================================================================
 Ernie: Thresh=  0.10000D-02 Tol=  0.10000D-05 Strict=F.
 There are   213 symmetry adapted cartesian basis functions of A1  symmetry.
 There are    56 symmetry adapted cartesian basis functions of A2  symmetry.
 There are   114 symmetry adapted cartesian basis functions of B1  symmetry.
 There are   114 symmetry adapted cartesian basis functions of B2  symmetry.
 There are   157 symmetry adapted basis functions of A1  symmetry.
 There are    47 symmetry adapted basis functions of A2  symmetry.
 There are    90 symmetry adapted basis functions of B1  symmetry.
 There are    90 symmetry adapted basis functions of B2  symmetry.
   384 basis functions,   497 primitive gaussians,   497 cartesian basis functions
     9 alpha electrons        8 beta electrons
       nuclear repulsion energy        26.8659199390 Hartrees.
 IExCor=    0 DFT=F Ex=HF Corr=None ExCW=0 ScaHFX=  1.000000
 ScaDFX=  1.000000  1.000000  1.000000  1.000000 ScalE2=  1.000000  1.000000
 IRadAn=      5 IRanWt=     -1 IRanGd=            0 ICorTp=0 IEmpDi=  4
 NAtoms=    2 NActive=    2 NUniq=    2 SFac= 1.00D+00 NAtFMM=   60 NAOKFM=F Big=F
 Integral buffers will be    131072 words long.
 Raffenetti 2 integral format.
 Two-electron integral symmetry is turned on.
 Leave Link  301 at Tue Feb 27 13:05:51 2018, MaxMem= 10737418240 cpu:               4.5 elap:               0.3
 (Enter /home1/apps/gaussian/16rA.03/g16/l302.exe)
 NPDir=0 NMtPBC=     1 NCelOv=     1 NCel=       1 NClECP=     1 NCelD=      1
         NCelK=      1 NCelE2=     1 NClLst=     1 CellRange=     0.0.
 One-electron integrals computed using PRISM.
 One-electron integral symmetry used in STVInt
   4 Symmetry operations used in ECPInt.
 ECPInt:  NShTT=    6105 NPrTT=    6105 LenC2=    5682 LenP2D=    5681.
 LDataN:  DoStor=T MaxTD1=10 Len=  848
 NBasis=   384 RedAO= T EigKep=  1.15D-06  NBF=   157    47    90    90
 NBsUse=   383 1.00D-06 EigRej=  7.16D-09 NBFU=   156    47    90    90
 Leave Link  302 at Tue Feb 27 13:05:54 2018, MaxMem= 10737418240 cpu:              50.3 elap:               3.2
 (Enter /home1/apps/gaussian/16rA.03/g16/l303.exe)
 DipDrv:  MaxL=1.
 Leave Link  303 at Tue Feb 27 13:05:54 2018, MaxMem= 10737418240 cpu:               1.9 elap:               0.2
 (Enter /home1/apps/gaussian/16rA.03/g16/l401.exe)
 Initial guess from the checkpoint file:  "ScO.chk"
 B after Tr=     0.000000    0.000000    0.000000
         Rot=    1.000000    0.000000    0.000000    0.000000 Ang=   0.00 deg.
 Guess basis will be translated and rotated to current coordinates.
 JPrj=2 DoOrth=T DoCkMO=T.
 Initial guess orbital symmetries:
       Occupied  (SG) (SG) (PI) (PI) (SG) (PI) (PI) (SG) (SG)
       Virtual   (PI) (PI) (SG) (SG) (DLTA) (DLTA) (PI) (PI) (SG)
                 (PI) (PI) (SG) (DLTA) (DLTA) (SG) (PI) (PI) (SG)
                 (SG) (PI) (PI) (PHI) (PHI) (DLTA) (DLTA) (PI)
                 (PI) (SG) (DLTA) (DLTA) (SG) (PI) (PI) (PI) (PI)
                 (SG) (SG) (DLTA) (DLTA) (PI) (PI) (?A) (?A) (SG)
                 (PHI) (PHI) (DLTA) (DLTA) (PI) (PI) (SG) (SG)
                 (PI) (PI) (DLTA) (DLTA) (PHI) (PHI) (PI) (PI)
                 (SG) (SG) (PI) (PI) (DLTA) (DLTA) (SG) (SG) (PI)
                 (PI) (DLTA) (DLTA) (SG) (SG) (PI) (PI) (PI) (PI)
                 (SG) (PHI) (PHI) (DLTA) (DLTA) (?A) (?A) (PI)
                 (PI) (SG) (DLTA) (DLTA) (PHI) (PHI) (PI) (PI)
                 (SG) (PHI) (PHI) (DLTA) (DLTA) (SG) (PI) (PI)
                 (DLTA) (DLTA) (SG) (DLTA) (DLTA) (PI) (PI) (SG)
                 (PI) (PI) (SG) (PI) (PI) (SG) (SG) (PI) (PI) (SG)
                 (DLTA) (DLTA) (PI) (PI) (SG) (DLTA) (DLTA) (SG)
                 (PHI) (PHI) (PI) (PI) (PHI) (PHI) (DLTA) (DLTA)
                 (SG) (DLTA) (DLTA) (PI) (PI) (PI) (PI) (?A) (?A)
                 (PHI) (PHI) (DLTA) (DLTA) (SG) (SG) (PI) (PI)
                 (PI) (PI) (SG) (SG) (SG) (DLTA) (DLTA) (PI) (PI)
                 (PI) (PI) (SG) (SG) (SG) (PI) (PI) (SG) (SG) (DLTA)
                 (DLTA) (PI) (PI) (SG) (PI) (PI) (SG) (SG) (DLTA)
                 (DLTA) (PI) (PI) (SG) (SG) (PI) (PI) (DLTA) (DLTA)
                 (PI) (PI) (SG) (SG) (PI) (PI) (SG) (SG) (SG) (PI)
                 (PI) (SG) (SG) (PI) (PI) (SG) (SG) (DLTA) (DLTA)
                 (PI) (PI) (SG) (SG) (PI) (PI) (SG) (PI) (PI) (SG)
                 (SG) (SG) (PI) (PI) (SG) (SG) (PI) (PI) (SG) (SG)
                 (SG) (PI) (PI) (SG) (SG) (SG) (PI) (PI) (SG) (SG)
                 (SG) (SG) (PI) (PI) (SG) (SG) (SG) (SG) (SG) (SG)
                 (DLTA) (SG) (SG) (DLTA) (SG) (SG) (SG) (SG) (DLTA)
                 (SG) (DLTA) (SG) (SG) (SG) (DLTA) (SG) (SG) (DLTA)
                 (SG) (?A) (DLTA) (SG) (SG) (DLTA) (SG) (?A) (DLTA)
                 (SG) (DLTA) (SG) (DLTA) (SG) (SG) (?A) (SG) (DLTA)
                 (?A) (DLTA) (SG) (DLTA) (SG) (?A) (?A) (DLTA)
                 (DLTA) (DLTA) (DLTA) (DLTA) (DLTA) (?A) (DLTA)
                 (DLTA) (?A) (DLTA) (DLTA) (DLTA) (?A) (DLTA) (?A)
                 (DLTA) (DLTA) (?A) (?A) (PI) (PI) (PI) (PI) (PI)
                 (PI) (PHI) (PI) (PI) (PI) (PI) (PHI) (PI) (PI)
                 (PHI) (PI) (PI) (PI) (PHI) (PI) (PHI) (PI) (?B)
                 (PI) (PHI) (PHI) (PI) (?B) (PHI) (PHI) (?B) (PI)
                 (PI) (PI) (PI) (PI) (PI) (PHI) (PI) (PI) (PI)
                 (PI) (PHI) (PI) (PI) (PHI) (PI) (PI) (PI) (PHI)
                 (PI) (PHI) (PI) (?B) (PI) (PHI) (PHI) (PI) (?B)
                 (PHI) (PHI) (?B)
 The electronic state of the initial guess is 2-SG.
 Leave Link  401 at Tue Feb 27 13:05:55 2018, MaxMem= 10737418240 cpu:              12.3 elap:               0.9
 (Enter /home1/apps/gaussian/16rA.03/g16/l502.exe)
 Keep R1 and R2 ints in memory in symmetry-blocked form, NReq=3425113631.
 FoFCou: FMM=F IPFlag=           8 FMFlag=           0 FMFlg1=           0
         NFxFlg=           0 DoJE=F BraDBF=F KetDBF=F FulRan=T
         wScrn=  0.000000 ICntrl=       600 IOpCl=  0 I1Cent=           0 NGrid=           0
         NMat0=    1 NMatS0=  73920 NMatT0=    0 NMatD0=    1 NMtDS0=    0 NMtDT0=    0
 Petite list used in FoFCou.
 Restricted open shell SCF:
 Using DIIS extrapolation, IDIIS=  1040.
 NGot= 10737418240 LenX=  9351093905 LenY=  9350846399
 Requested convergence on RMS density matrix=1.00D-08 within 300 cycles.
 Requested convergence on MAX density matrix=1.00D-06.
 Requested convergence on             energy=1.00D-06.
 No special actions if energy rises.

 Cycle   1  Pass 1  IDiag  1:
 E= -61.9031291763486    
 DIIS: error= 2.73D-01 at cycle   1 NSaved=   1.
 NSaved= 1 IEnMin= 1 EnMin= -61.9031291763486     IErMin= 1 ErrMin= 2.73D-01
 ErrMax= 2.73D-01  0.00D+00 EMaxC= 1.00D-01 BMatC= 3.24D+01 BMatP= 3.24D+01
 IDIUse=3 WtCom= 0.00D+00 WtEn= 1.00D+00
 Coeff-Com:  0.100D+01
 Coeff-En:   0.100D+01
 Coeff:      0.100D+01
 Gap=     0.069 Goal=   None    Shift=    0.000
 GapD=    0.069 DampG=0.500 DampE=0.125 DampFc=0.1250 IDamp=-1.
 Damping current iteration by 1.25D-01
 RMSDP=3.28D-03 MaxDP=1.51D-01              OVMax= 5.26D-03

 Cycle   2  Pass 1  IDiag  1:
 E= -61.9033521068727     Delta-E=       -0.000222930524 Rises=F Damp=T
 DIIS: error= 2.39D-01 at cycle   2 NSaved=   2.
 NSaved= 2 IEnMin= 2 EnMin= -61.9033521068727     IErMin= 2 ErrMin= 2.39D-01
 ErrMax= 2.39D-01  0.00D+00 EMaxC= 1.00D-01 BMatC= 2.48D+01 BMatP= 3.24D+01
 IDIUse=3 WtCom= 0.00D+00 WtEn= 1.00D+00
 Coeff-Com: -0.700D+01 0.800D+01
 Coeff-En:   0.000D+00 0.100D+01
 Coeff:      0.000D+00 0.100D+01
 Gap=     0.069 Goal=   None    Shift=    0.000
 RMSDP=2.88D-03 MaxDP=1.33D-01 DE=-2.23D-04 OVMax= 1.37D-03

 Cycle   3  Pass 1  IDiag  1:
 E= -61.9049725426080     Delta-E=       -0.001620435735 Rises=F Damp=F
 DIIS: error= 1.72D-04 at cycle   3 NSaved=   3.
 NSaved= 3 IEnMin= 3 EnMin= -61.9049725426080     IErMin= 3 ErrMin= 1.72D-04
 ErrMax= 1.72D-04  0.00D+00 EMaxC= 1.00D-01 BMatC= 1.35D-05 BMatP= 2.48D+01
 IDIUse=3 WtCom= 9.98D-01 WtEn= 1.72D-03
 Coeff-Com:  0.217D+01-0.248D+01 0.131D+01
 Coeff-En:   0.000D+00 0.000D+00 0.100D+01
 Coeff:      0.216D+01-0.247D+01 0.131D+01
 Gap=     0.069 Goal=   None    Shift=    0.000
 RMSDP=2.41D-04 MaxDP=5.32D-02 DE=-1.62D-03 OVMax= 4.99D-03

 Cycle   4  Pass 1  IDiag  1:
 E= -61.9049741057633     Delta-E=       -0.000001563155 Rises=F Damp=F
 DIIS: error= 8.22D-05 at cycle   4 NSaved=   4.
 NSaved= 4 IEnMin= 4 EnMin= -61.9049741057633     IErMin= 4 ErrMin= 8.22D-05
 ErrMax= 8.22D-05  0.00D+00 EMaxC= 1.00D-01 BMatC= 1.08D-06 BMatP= 1.35D-05
 IDIUse=1 WtCom= 1.00D+00 WtEn= 0.00D+00
 Coeff-Com:  0.248D+01-0.283D+01 0.418D+00 0.935D+00
 Coeff:      0.248D+01-0.283D+01 0.418D+00 0.935D+00
 Gap=     0.068 Goal=   None    Shift=    0.000
 RMSDP=8.07D-05 MaxDP=2.08D-02 DE=-1.56D-06 OVMax= 3.12D-03

 Cycle   5  Pass 1  IDiag  1:
 E= -61.9049763944868     Delta-E=       -0.000002288723 Rises=F Damp=F
 DIIS: error= 5.34D-05 at cycle   5 NSaved=   5.
 NSaved= 5 IEnMin= 5 EnMin= -61.9049763944868     IErMin= 5 ErrMin= 5.34D-05
 ErrMax= 5.34D-05  0.00D+00 EMaxC= 1.00D-01 BMatC= 5.44D-07 BMatP= 1.08D-06
 IDIUse=1 WtCom= 1.00D+00 WtEn= 0.00D+00
 Coeff-Com:  0.214D+01-0.244D+01 0.319D+00 0.387D+00 0.600D+00
 Coeff:      0.214D+01-0.244D+01 0.319D+00 0.387D+00 0.600D+00
 Gap=     0.069 Goal=   None    Shift=    0.000
 RMSDP=1.18D-05 MaxDP=1.80D-03 DE=-2.29D-06 OVMax= 1.09D-03

 Cycle   6  Pass 1  IDiag  1:
 E= -61.9049765328297     Delta-E=       -0.000000138343 Rises=F Damp=F
 DIIS: error= 5.26D-05 at cycle   6 NSaved=   6.
 NSaved= 6 IEnMin= 6 EnMin= -61.9049765328297     IErMin= 6 ErrMin= 5.26D-05
 ErrMax= 5.26D-05  0.00D+00 EMaxC= 1.00D-01 BMatC= 2.72D-07 BMatP= 5.44D-07
 IDIUse=1 WtCom= 1.00D+00 WtEn= 0.00D+00
 Coeff-Com:  0.177D+01-0.202D+01 0.283D+00 0.173D-01 0.115D+00 0.838D+00
 Coeff:      0.177D+01-0.202D+01 0.283D+00 0.173D-01 0.115D+00 0.838D+00
 Gap=     0.068 Goal=   None    Shift=    0.000
 RMSDP=1.68D-05 MaxDP=4.39D-03 DE=-1.38D-07 OVMax= 3.48D-04

 Cycle   7  Pass 1  IDiag  1:
 E= -61.9049768175163     Delta-E=       -0.000000284687 Rises=F Damp=F
 DIIS: error= 4.39D-05 at cycle   7 NSaved=   7.
 NSaved= 7 IEnMin= 7 EnMin= -61.9049768175163     IErMin= 7 ErrMin= 4.39D-05
 ErrMax= 4.39D-05  0.00D+00 EMaxC= 1.00D-01 BMatC= 1.90D-07 BMatP= 2.72D-07
 IDIUse=1 WtCom= 1.00D+00 WtEn= 0.00D+00
 Coeff-Com:  0.134D+01-0.153D+01 0.222D+00-0.810D-01-0.816D-01-0.424D-01
 Coeff-Com:  0.117D+01
 Coeff:      0.134D+01-0.153D+01 0.222D+00-0.810D-01-0.816D-01-0.424D-01
 Coeff:      0.117D+01
 Gap=     0.068 Goal=   None    Shift=    0.000
 RMSDP=1.80D-05 MaxDP=3.98D-03 DE=-2.85D-07 OVMax= 4.78D-04

 Cycle   8  Pass 1  IDiag  1:
 E= -61.9049771306418     Delta-E=       -0.000000313126 Rises=F Damp=F
 DIIS: error= 3.29D-05 at cycle   8 NSaved=   8.
 NSaved= 8 IEnMin= 8 EnMin= -61.9049771306418     IErMin= 8 ErrMin= 3.29D-05
 ErrMax= 3.29D-05  0.00D+00 EMaxC= 1.00D-01 BMatC= 1.06D-07 BMatP= 1.90D-07
 IDIUse=1 WtCom= 1.00D+00 WtEn= 0.00D+00
 Coeff-Com:  0.991D+00-0.113D+01 0.163D+00-0.282D-01-0.210D-01-0.213D+00
 Coeff-Com:  0.217D+00 0.102D+01
 Coeff:      0.991D+00-0.113D+01 0.163D+00-0.282D-01-0.210D-01-0.213D+00
 Coeff:      0.217D+00 0.102D+01
 Gap=     0.068 Goal=   None    Shift=    0.000
 RMSDP=1.72D-05 MaxDP=4.42D-03 DE=-3.13D-07 OVMax= 3.32D-04

 Cycle   9  Pass 1  IDiag  1:
 E= -61.9049772992836     Delta-E=       -0.000000168642 Rises=F Damp=F
 DIIS: error= 2.46D-05 at cycle   9 NSaved=   9.
 NSaved= 9 IEnMin= 9 EnMin= -61.9049772992836     IErMin= 9 ErrMin= 2.46D-05
 ErrMax= 2.46D-05  0.00D+00 EMaxC= 1.00D-01 BMatC= 5.92D-08 BMatP= 1.06D-07
 IDIUse=1 WtCom= 1.00D+00 WtEn= 0.00D+00
 Coeff-Com:  0.598D+00-0.684D+00 0.963D-01 0.782D-02 0.255D-01-0.386D-01
 Coeff-Com: -0.229D+00-0.311D+00 0.153D+01
 Coeff:      0.598D+00-0.684D+00 0.963D-01 0.782D-02 0.255D-01-0.386D-01
 Coeff:     -0.229D+00-0.311D+00 0.153D+01
 Gap=     0.068 Goal=   None    Shift=    0.000
 RMSDP=1.72D-05 MaxDP=3.99D-03 DE=-1.69D-07 OVMax= 4.06D-04

 Cycle  10  Pass 1  IDiag  1:
 E= -61.9049774386888     Delta-E=       -0.000000139405 Rises=F Damp=F
 DIIS: error= 1.48D-05 at cycle  10 NSaved=  10.
 NSaved=10 IEnMin=10 EnMin= -61.9049774386888     IErMin=10 ErrMin= 1.48D-05
 ErrMax= 1.48D-05  0.00D+00 EMaxC= 1.00D-01 BMatC= 2.12D-08 BMatP= 5.92D-08
 IDIUse=1 WtCom= 1.00D+00 WtEn= 0.00D+00
 Coeff-Com:  0.336D+00-0.384D+00 0.547D-01-0.753D-02-0.638D-03 0.510D-01
 Coeff-Com:  0.126D+00-0.709D+00 0.296D+00 0.124D+01
 Coeff:      0.336D+00-0.384D+00 0.547D-01-0.753D-02-0.638D-03 0.510D-01
 Coeff:      0.126D+00-0.709D+00 0.296D+00 0.124D+01
 Gap=     0.068 Goal=   None    Shift=    0.000
 RMSDP=1.26D-05 MaxDP=3.16D-03 DE=-1.39D-07 OVMax= 2.63D-04

 Cycle  11  Pass 1  IDiag  1:
 E= -61.9049774917051     Delta-E=       -0.000000053016 Rises=F Damp=F
 DIIS: error= 8.23D-06 at cycle  11 NSaved=  11.
 NSaved=11 IEnMin=11 EnMin= -61.9049774917051     IErMin=11 ErrMin= 8.23D-06
 ErrMax= 8.23D-06  0.00D+00 EMaxC= 1.00D-01 BMatC= 6.66D-09 BMatP= 2.12D-08
 IDIUse=1 WtCom= 1.00D+00 WtEn= 0.00D+00
 Coeff-Com:  0.103D+00-0.118D+00 0.173D-01-0.936D-02-0.102D-01 0.372D-01
 Coeff-Com:  0.174D+00-0.375D+00-0.300D+00 0.335D+00 0.115D+01
 Coeff:      0.103D+00-0.118D+00 0.173D-01-0.936D-02-0.102D-01 0.372D-01
 Coeff:      0.174D+00-0.375D+00-0.300D+00 0.335D+00 0.115D+01
 Gap=     0.068 Goal=   None    Shift=    0.000
 RMSDP=1.06D-05 MaxDP=2.58D-03 DE=-5.30D-08 OVMax= 2.27D-04

 Cycle  12  Pass 1  IDiag  1:
 E= -61.9049775134208     Delta-E=       -0.000000021716 Rises=F Damp=F
 DIIS: error= 2.58D-06 at cycle  12 NSaved=  12.
 NSaved=12 IEnMin=12 EnMin= -61.9049775134208     IErMin=12 ErrMin= 2.58D-06
 ErrMax= 2.58D-06  0.00D+00 EMaxC= 1.00D-01 BMatC= 6.49D-10 BMatP= 6.66D-09
 IDIUse=1 WtCom= 1.00D+00 WtEn= 0.00D+00
 Coeff-Com:  0.897D-01-0.103D+00 0.144D-01 0.187D-02 0.383D-02-0.293D-01
 Coeff-Com: -0.582D-01 0.191D+00 0.257D+00-0.444D+00-0.442D+00 0.152D+01
 Coeff:      0.897D-01-0.103D+00 0.144D-01 0.187D-02 0.383D-02-0.293D-01
 Coeff:     -0.582D-01 0.191D+00 0.257D+00-0.444D+00-0.442D+00 0.152D+01
 Gap=     0.068 Goal=   None    Shift=    0.000
 RMSDP=8.46D-07 MaxDP=2.28D-04 DE=-2.17D-08 OVMax= 1.75D-05

 Cycle  13  Pass 1  IDiag  1:
 E= -61.9049775141000     Delta-E=       -0.000000000679 Rises=F Damp=F
 DIIS: error= 2.18D-06 at cycle  13 NSaved=  13.
 NSaved=13 IEnMin=13 EnMin= -61.9049775141000     IErMin=13 ErrMin= 2.18D-06
 ErrMax= 2.18D-06  0.00D+00 EMaxC= 1.00D-01 BMatC= 4.70D-10 BMatP= 6.49D-10
 IDIUse=1 WtCom= 1.00D+00 WtEn= 0.00D+00
 Coeff-Com:  0.699D-02-0.799D-02 0.108D-02 0.831D-03 0.135D-02-0.305D-02
 Coeff-Com: -0.165D-01 0.916D-02 0.534D-01-0.345D-01-0.400D+00 0.274D+00
 Coeff-Com:  0.112D+01
 Coeff:      0.699D-02-0.799D-02 0.108D-02 0.831D-03 0.135D-02-0.305D-02
 Coeff:     -0.165D-01 0.916D-02 0.534D-01-0.345D-01-0.400D+00 0.274D+00
 Coeff:      0.112D+01
 Gap=     0.068 Goal=   None    Shift=    0.000
 RMSDP=3.79D-06 MaxDP=9.18D-04 DE=-6.79D-10 OVMax= 8.09D-05

 Cycle  14  Pass 1  IDiag  1:
 E= -61.9049775157833     Delta-E=       -0.000000001683 Rises=F Damp=F
 DIIS: error= 1.75D-07 at cycle  14 NSaved=  14.
 NSaved=14 IEnMin=14 EnMin= -61.9049775157833     IErMin=14 ErrMin= 1.75D-07
 ErrMax= 1.75D-07  0.00D+00 EMaxC= 1.00D-01 BMatC= 2.91D-12 BMatP= 4.70D-10
 IDIUse=1 WtCom= 1.00D+00 WtEn= 0.00D+00
 Coeff-Com:  0.110D-02-0.126D-02 0.172D-03 0.649D-04 0.199D-03 0.124D-02
 Coeff-Com: -0.778D-03-0.149D-01 0.594D-02 0.363D-01-0.830D-01-0.443D-01
 Coeff-Com:  0.201D+00 0.898D+00
 Coeff:      0.110D-02-0.126D-02 0.172D-03 0.649D-04 0.199D-03 0.124D-02
 Coeff:     -0.778D-03-0.149D-01 0.594D-02 0.363D-01-0.830D-01-0.443D-01
 Coeff:      0.201D+00 0.898D+00
 Gap=     0.068 Goal=   None    Shift=    0.000
 RMSDP=2.77D-07 MaxDP=7.00D-05 DE=-1.68D-09 OVMax= 5.89D-06

 Cycle  15  Pass 1  IDiag  1:
 E= -61.9049775157934     Delta-E=       -0.000000000010 Rises=F Damp=F
 DIIS: error= 2.50D-08 at cycle  15 NSaved=  15.
 NSaved=15 IEnMin=15 EnMin= -61.9049775157934     IErMin=15 ErrMin= 2.50D-08
 ErrMax= 2.50D-08  0.00D+00 EMaxC= 1.00D-01 BMatC= 7.24D-14 BMatP= 2.91D-12
 IDIUse=1 WtCom= 1.00D+00 WtEn= 0.00D+00
 Coeff-Com: -0.259D-03 0.296D-03-0.368D-04-0.926D-04-0.133D-03 0.629D-03
 Coeff-Com:  0.161D-02-0.368D-02-0.495D-02 0.116D-01 0.337D-01-0.428D-01
 Coeff-Com: -0.113D+00 0.171D+00 0.946D+00
 Coeff:     -0.259D-03 0.296D-03-0.368D-04-0.926D-04-0.133D-03 0.629D-03
 Coeff:      0.161D-02-0.368D-02-0.495D-02 0.116D-01 0.337D-01-0.428D-01
 Coeff:     -0.113D+00 0.171D+00 0.946D+00
 Gap=     0.068 Goal=   None    Shift=    0.000
 RMSDP=6.26D-08 MaxDP=1.45D-05 DE=-1.01D-11 OVMax= 1.37D-06

 Cycle  16  Pass 1  IDiag  1:
 E= -61.9049775157940     Delta-E=       -0.000000000001 Rises=F Damp=F
 DIIS: error= 6.06D-09 at cycle  16 NSaved=  16.
 NSaved=16 IEnMin=16 EnMin= -61.9049775157940     IErMin=16 ErrMin= 6.06D-09
 ErrMax= 6.06D-09  0.00D+00 EMaxC= 1.00D-01 BMatC= 4.04D-15 BMatP= 7.24D-14
 IDIUse=1 WtCom= 1.00D+00 WtEn= 0.00D+00
 Large coefficients: NSaved= 16 BigCof=    0.00 CofMax=   10.00 Det=-6.19D-16
 Inversion failed.  Reducing to 15 matrices.
 Coeff-Com:  0.362D-10 0.307D-06-0.127D-05-0.161D-04-0.162D-03-0.722D-05
 Coeff-Com:  0.182D-02-0.255D-03-0.452D-02 0.652D-02 0.734D-02-0.102D-01
 Coeff-Com: -0.109D+00-0.603D-01 0.117D+01
 Coeff:      0.362D-10 0.307D-06-0.127D-05-0.161D-04-0.162D-03-0.722D-05
 Coeff:      0.182D-02-0.255D-03-0.452D-02 0.652D-02 0.734D-02-0.102D-01
 Coeff:     -0.109D+00-0.603D-01 0.117D+01
 Gap=     0.068 Goal=   None    Shift=    0.000
 RMSDP=1.21D-08 MaxDP=2.88D-06 DE=-6.25D-13 OVMax= 2.60D-07

 Cycle  17  Pass 1  IDiag  1:
 E= -61.9049775157939     Delta-E=        0.000000000000 Rises=F Damp=F
 DIIS: error= 2.67D-10 at cycle  17 NSaved=  16.
 NSaved=16 IEnMin=15 EnMin= -61.9049775157940     IErMin=16 ErrMin= 2.67D-10
 ErrMax= 2.67D-10  0.00D+00 EMaxC= 1.00D-01 BMatC= 1.32D-17 BMatP= 4.04D-15
 IDIUse=1 WtCom= 1.00D+00 WtEn= 0.00D+00
 Large coefficients: NSaved= 16 BigCof=    0.00 CofMax=   10.00 Det=-2.85D-17
 Inversion failed.  Reducing to 15 matrices.
 Coeff-Com: -0.618D-07 0.240D-05 0.635D-06-0.630D-04-0.359D-04 0.571D-03
 Coeff-Com:  0.215D-04-0.134D-02 0.719D-03 0.266D-02 0.334D-03-0.320D-01
 Coeff-Com: -0.440D-01 0.276D+00 0.797D+00
 Coeff:     -0.618D-07 0.240D-05 0.635D-06-0.630D-04-0.359D-04 0.571D-03
 Coeff:      0.215D-04-0.134D-02 0.719D-03 0.266D-02 0.334D-03-0.320D-01
 Coeff:     -0.440D-01 0.276D+00 0.797D+00
 Gap=     0.068 Goal=   None    Shift=    0.000
 RMSDP=1.01D-10 MaxDP=1.75D-08 DE= 1.42D-13 OVMax= 5.35D-09

 SCF Done:  E(ROHF) =  -61.9049775158     A.U. after   17 cycles
            NFock= 17  Conv=0.10D-09     -V/T= 2.8891
 <Sx>= 0.0000 <Sy>= 0.0000 <Sz>= 0.5000 <S**2>= 0.7500 S= 0.5000
 <L.S>=  0.00000000000    
 KE= 3.276950026374D+01 PE=-1.898733613686D+02 EE= 6.833296365004D+01
 Annihilation of the first spin contaminant:
 S**2 before annihilation     0.7500,   after     0.7500
 Leave Link  502 at Tue Feb 27 13:08:05 2018, MaxMem= 10737418240 cpu:            1844.0 elap:             129.8
 (Enter /home1/apps/gaussian/16rA.03/g16/l801.exe)
 Windowed orbitals will be sorted by symmetry type.
 GenMOA:  NOpAll=  4 NOp2=4 NOpUse=  4 JSym2X=1
 FoFJK:  IHMeth= 1 ICntrl=       0 DoSepK=F KAlg= 0 I1Cent=           0 FoldK=F
 IRaf=         0 NMat=       1 IRICut=       1 DoRegI=T DoRafI=F ISym2E= 1 IDoP0=0 IntGTp=1.
 FoFCou: FMM=F IPFlag=           8 FMFlag=      100000 FMFlg1=           0
         NFxFlg=           0 DoJE=F BraDBF=F KetDBF=F FulRan=T
         wScrn=  0.000000 ICntrl=         0 IOpCl=  1 I1Cent=           0 NGrid=           0
         NMat0=    1 NMatS0=      1 NMatT0=    0 NMatD0=    1 NMtDS0=    0 NMtDT0=    0
 Petite list used in FoFCou.
 <Sx>= 0.0000 <Sy>= 0.0000 <Sz>= 0.5000 <S**2>= 0.7500 S= 0.5000
 Range of M.O.s used for correlation:     1   383
 NBasis=   384 NAE=     9 NBE=     8 NFC=     0 NFV=     0
 NROrb=    383 NOA=     9 NOB=     8 NVA=   374 NVB=   375

 **** Warning!!: The largest alpha MO coefficient is  0.31441048D+03


 **** Warning!!: The largest beta MO coefficient is  0.31441052D+03

 Singles contribution to E2=   -0.1214566253D-03
 Leave Link  801 at Tue Feb 27 13:08:41 2018, MaxMem= 10737418240 cpu:             562.7 elap:              35.2
 (Enter /home1/apps/gaussian/16rA.03/g16/l804.exe)
 Open-shell transformation, MDV= 10737418240 ITran=4 ISComp=2.
 Unit  1 TFree=       4459702 TCopy=       3230129.
 Semi-Direct transformation.
 ModeAB=           4 MOrb=             9 LenV=   10733045566
 LASXX=     63702177 LTotXX=    63702177 LenRXX=   128059521
 LTotAB=    64357344 MaxLAS=   424339488 LenRXY=           0
 NonZer=   191761698 LenScr=   288771072 LnRSAI=   424339488
 LnScr1=   639005696 LExtra=    17918606 Total=   1498094383
 MaxDsk= 67108864000 SrtSym=           T ITran=            4
 DoSDTr:  NPSUse= 16
 JobTyp=1 Pass  1:  I=   1 to   9.
 (rs|ai) integrals will be sorted in core.
 Complete sort for first half transformation.
 First half transformation complete.
 Complete sort for second half transformation.
 Second half transformation complete.
 ModeAB=           4 MOrb=             8 LenV=   10733045566
 LASXX=     56573606 LTotXX=    56573606 LenRXX=   111007430
 LTotAB=    54433824 MaxLAS=   377190656 LenRXY=           0
 NonZer=   167581036 LenScr=   252357632 LnRSAI=   377190656
 LnScr1=   568005632 LExtra=   145978127 Total=   1454539477
 MaxDsk= 67108864000 SrtSym=           T ITran=            4
 DoSDTr:  NPSUse= 16
 JobTyp=2 Pass  1:  I=   1 to   8.
 (rs|ai) integrals will be sorted in core.
 Complete sort for first half transformation.
 First half transformation complete.
 Complete sort for second half transformation.
 Second half transformation complete.
 Spin components of T(2) and E(2):
     alpha-alpha T2 =       0.2474304382D-01 E2=     -0.9636317795D-01
     alpha-beta  T2 =       0.1062282762D+00 E2=     -0.5099627900D+00
     beta-beta   T2 =       0.2102498107D-01 E2=     -0.8819556796D-01
 ANorm=    0.1073360785D+01
 E2 =    -0.6946429925D+00 EUMP2 =    -0.62599620508329D+02
 (S**2,0)=  0.75000D+00           (S**2,1)=  0.75000D+00
 E(PUHF)=      -0.61904977516D+02        E(PMP2)=      -0.62599620508D+02
 Recovering and transforming amplitudes from chk file.
 B after Tr=     0.000000    0.000000    0.000000
         Rot=    1.000000    0.000000    0.000000    0.000000 Ang=   0.00 deg.
 Alpha occ  Sing. vals= 9.999995D-01 9.999980D-01 9.999978D-01 9.999978D-01 9.999974D-01 9.999949D-01 9.999669D-01 9.999617D-01 9.999617D-01
 Alpha occ  NOrbO=     9 NOrbN=     9 NSVal=     9 ThrEig=  0.900000.
 TrMax= 1.000000D+00 PrMax= 1.000000D+00 Trace(Pr)= 9.000000D+00
 B after Tr=     0.000000    0.000000    0.000000
         Rot=    1.000000    0.000000    0.000000    0.000000 Ang=   0.00 deg.
 Alpha virt Sing. vals= 1.000000D+00 1.000000D+00 1.000000D+00 1.000000D+00 1.000000D+00 1.000000D+00 1.000000D+00 1.000000D+00 1.000000D+00 1.000000D+00
 Alpha virt Sing. vals= 1.000000D+00 1.000000D+00 1.000000D+00 1.000000D+00 1.000000D+00 1.000000D+00 1.000000D+00 1.000000D+00 1.000000D+00 1.000000D+00
 Alpha virt Sing. vals= 1.000000D+00 1.000000D+00 1.000000D+00 1.000000D+00 1.000000D+00 1.000000D+00 1.000000D+00 1.000000D+00 1.000000D+00 1.000000D+00
 Alpha virt Sing. vals= 1.000000D+00 1.000000D+00 1.000000D+00 1.000000D+00 9.999999D-01 9.999999D-01 9.999999D-01 9.999999D-01 9.999999D-01 9.999999D-01
 Alpha virt Sing. vals= 9.999999D-01 9.999999D-01 9.999999D-01 9.999997D-01 9.999997D-01 9.999996D-01 9.999996D-01 9.999993D-01 9.999992D-01 9.999992D-01
 Alpha virt Sing. vals= 9.999991D-01 9.999990D-01 9.999990D-01 9.999990D-01 9.999987D-01 9.999978D-01 9.999977D-01 9.999977D-01 9.999973D-01 9.999963D-01
 Alpha virt Sing. vals= 9.999963D-01 9.999950D-01 9.999950D-01 9.999950D-01 9.999942D-01 9.999935D-01 9.999931D-01 9.999931D-01 9.999923D-01 9.999923D-01
 Alpha virt Sing. vals= 9.999908D-01 9.999907D-01 9.999907D-01 9.999906D-01 9.999906D-01 9.999904D-01 9.999889D-01 9.999867D-01 9.999867D-01 9.999866D-01
 Alpha virt Sing. vals= 9.999806D-01 9.999773D-01 9.999773D-01 9.999709D-01 9.999659D-01 9.999632D-01 9.999632D-01 9.999607D-01 9.999488D-01 9.999488D-01
 Alpha virt Sing. vals= 9.999439D-01 9.999280D-01 9.999221D-01 9.998912D-01 9.998912D-01 9.998890D-01 9.998890D-01 9.998551D-01 9.998536D-01 9.998536D-01
 Alpha virt Sing. vals= 9.998167D-01 9.998072D-01 9.998072D-01 9.998051D-01 9.998024D-01 9.998024D-01 9.997558D-01 9.997407D-01 9.997407D-01 9.997407D-01
 Alpha virt Sing. vals= 9.996891D-01 9.996891D-01 9.996057D-01 9.995823D-01 9.995626D-01 9.995626D-01 9.995583D-01 9.995583D-01 9.995261D-01 9.994640D-01
 Alpha virt Sing. vals= 9.993801D-01 9.993801D-01 9.993667D-01 9.993071D-01 9.993071D-01 9.992197D-01 9.992197D-01 9.991391D-01 9.991391D-01 9.990700D-01
 Alpha virt Sing. vals= 9.990700D-01 9.990332D-01 9.990332D-01 9.989075D-01 9.988182D-01 9.987788D-01 9.987788D-01 9.987768D-01 9.987768D-01 9.986787D-01
 Alpha virt Sing. vals= 9.985123D-01 9.985123D-01 9.984088D-01 9.983867D-01 9.983867D-01 9.982057D-01 9.982057D-01 9.980951D-01 9.980951D-01 9.979417D-01
 Alpha virt Sing. vals= 9.978885D-01 9.978885D-01 9.977921D-01 9.974961D-01 9.974961D-01 9.973535D-01 9.972510D-01 9.972510D-01 9.971406D-01 9.965028D-01
 Alpha virt Sing. vals= 9.964904D-01 9.960281D-01 9.952795D-01 9.952795D-01 9.952057D-01 9.952057D-01 9.947381D-01 9.947379D-01 9.947379D-01 9.946682D-01
 Alpha virt Sing. vals= 9.946682D-01 9.946043D-01 9.944368D-01 9.944368D-01 9.940285D-01 9.940285D-01 9.926684D-01 9.926684D-01 9.921450D-01 9.921450D-01
 Alpha virt Sing. vals= 9.914519D-01 9.914519D-01 9.902090D-01 9.900805D-01 9.900805D-01 9.884007D-01 9.883566D-01 9.883566D-01 9.866673D-01 9.866673D-01
 Alpha virt Sing. vals= 9.858558D-01 9.858558D-01 9.857771D-01 9.846182D-01 9.800795D-01 9.787300D-01 9.787300D-01 9.786528D-01 9.786528D-01 9.776087D-01
 Alpha virt Sing. vals= 9.776087D-01 9.774654D-01 9.774654D-01 9.771866D-01 9.771866D-01 9.767267D-01 9.767267D-01 9.757658D-01 9.755197D-01 9.755197D-01
 Alpha virt Sing. vals= 9.707397D-01 9.653175D-01 9.639549D-01 9.639549D-01 9.638302D-01 9.638302D-01 9.430294D-01 9.418267D-01 9.418267D-01 9.415053D-01
 Alpha virt Sing. vals= 9.415053D-01 9.398237D-01 9.398237D-01 9.351094D-01 9.351094D-01 9.351059D-01 9.334507D-01 9.252901D-01 9.211133D-01 9.211133D-01
 Alpha virt Sing. vals= 9.153155D-01 9.153155D-01 9.143140D-01 9.101705D-01 9.101705D-01 9.097239D-01 9.097239D-01 9.057108D-01 9.027495D-01 9.027495D-01
 Alpha virt Sing. vals= 8.944738D-01 8.944738D-01 8.909968D-01 8.909968D-01 8.855520D-01 8.855520D-01 8.668858D-01 5.620750D-01
 Alpha virt NOrbO=   248 NOrbN=   374 NSVal=   240 ThrEig=  0.900000.
 TrMax= 9.986684D-01 PrMax= 9.996338D-01 Trace(Pr)= 2.400000D+02
 B after Tr=     0.000000    0.000000    0.000000
         Rot=    1.000000    0.000000    0.000000    0.000000 Ang=   0.00 deg.
 Beta  occ  Sing. vals= 9.999995D-01 9.999978D-01 9.999978D-01 9.999977D-01 9.999951D-01 9.999670D-01 9.999617D-01 9.999617D-01
 Beta  occ  NOrbO=     8 NOrbN=     8 NSVal=     8 ThrEig=  0.900000.
 TrMax= 1.000000D+00 PrMax= 1.000000D+00 Trace(Pr)= 8.000000D+00
 B after Tr=     0.000000    0.000000    0.000000
         Rot=    1.000000    0.000000    0.000000    0.000000 Ang=   0.00 deg.
 Beta  virt Sing. vals= 1.000000D+00 1.000000D+00 1.000000D+00 1.000000D+00 1.000000D+00 1.000000D+00 1.000000D+00 1.000000D+00 1.000000D+00 1.000000D+00
 Beta  virt Sing. vals= 1.000000D+00 1.000000D+00 1.000000D+00 1.000000D+00 1.000000D+00 1.000000D+00 1.000000D+00 1.000000D+00 1.000000D+00 1.000000D+00
 Beta  virt Sing. vals= 1.000000D+00 1.000000D+00 1.000000D+00 1.000000D+00 1.000000D+00 1.000000D+00 1.000000D+00 1.000000D+00 1.000000D+00 1.000000D+00
 Beta  virt Sing. vals= 1.000000D+00 1.000000D+00 1.000000D+00 1.000000D+00 1.000000D+00 9.999999D-01 9.999999D-01 9.999999D-01 9.999999D-01 9.999999D-01
 Beta  virt Sing. vals= 9.999999D-01 9.999999D-01 9.999999D-01 9.999999D-01 9.999997D-01 9.999997D-01 9.999996D-01 9.999996D-01 9.999993D-01 9.999992D-01
 Beta  virt Sing. vals= 9.999992D-01 9.999991D-01 9.999990D-01 9.999990D-01 9.999990D-01 9.999987D-01 9.999978D-01 9.999977D-01 9.999977D-01 9.999972D-01
 Beta  virt Sing. vals= 9.999963D-01 9.999963D-01 9.999950D-01 9.999950D-01 9.999950D-01 9.999942D-01 9.999934D-01 9.999931D-01 9.999931D-01 9.999923D-01
 Beta  virt Sing. vals= 9.999923D-01 9.999908D-01 9.999907D-01 9.999907D-01 9.999906D-01 9.999906D-01 9.999904D-01 9.999889D-01 9.999867D-01 9.999867D-01
 Beta  virt Sing. vals= 9.999866D-01 9.999806D-01 9.999773D-01 9.999773D-01 9.999709D-01 9.999659D-01 9.999632D-01 9.999632D-01 9.999607D-01 9.999488D-01
 Beta  virt Sing. vals= 9.999488D-01 9.999439D-01 9.999280D-01 9.999221D-01 9.998912D-01 9.998912D-01 9.998890D-01 9.998890D-01 9.998549D-01 9.998536D-01
 Beta  virt Sing. vals= 9.998536D-01 9.998167D-01 9.998072D-01 9.998072D-01 9.998050D-01 9.998024D-01 9.998024D-01 9.997557D-01 9.997407D-01 9.997407D-01
 Beta  virt Sing. vals= 9.997407D-01 9.996891D-01 9.996891D-01 9.996057D-01 9.995823D-01 9.995626D-01 9.995626D-01 9.995583D-01 9.995583D-01 9.995261D-01
 Beta  virt Sing. vals= 9.994640D-01 9.993801D-01 9.993801D-01 9.993667D-01 9.993071D-01 9.993071D-01 9.992197D-01 9.992197D-01 9.991391D-01 9.991391D-01
 Beta  virt Sing. vals= 9.990700D-01 9.990700D-01 9.990332D-01 9.990332D-01 9.989075D-01 9.988182D-01 9.987788D-01 9.987788D-01 9.987768D-01 9.987768D-01
 Beta  virt Sing. vals= 9.986787D-01 9.985123D-01 9.985123D-01 9.984088D-01 9.983867D-01 9.983867D-01 9.982057D-01 9.982057D-01 9.980951D-01 9.980951D-01
 Beta  virt Sing. vals= 9.979417D-01 9.978885D-01 9.978885D-01 9.977920D-01 9.974961D-01 9.974961D-01 9.973535D-01 9.972510D-01 9.972510D-01 9.971406D-01
 Beta  virt Sing. vals= 9.965028D-01 9.964904D-01 9.960281D-01 9.952795D-01 9.952795D-01 9.952057D-01 9.952057D-01 9.947381D-01 9.947379D-01 9.947379D-01
 Beta  virt Sing. vals= 9.946682D-01 9.946682D-01 9.946043D-01 9.944368D-01 9.944368D-01 9.940285D-01 9.940285D-01 9.926684D-01 9.926684D-01 9.921450D-01
 Beta  virt Sing. vals= 9.921450D-01 9.914519D-01 9.914519D-01 9.902090D-01 9.900805D-01 9.900805D-01 9.884007D-01 9.883566D-01 9.883566D-01 9.866673D-01
 Beta  virt Sing. vals= 9.866673D-01 9.858558D-01 9.858558D-01 9.857771D-01 9.846181D-01 9.800795D-01 9.787300D-01 9.787300D-01 9.786528D-01 9.786528D-01
 Beta  virt Sing. vals= 9.776087D-01 9.776087D-01 9.774654D-01 9.774654D-01 9.771866D-01 9.771866D-01 9.767267D-01 9.767267D-01 9.757658D-01 9.755197D-01
 Beta  virt Sing. vals= 9.755197D-01 9.707396D-01 9.653174D-01 9.639549D-01 9.639549D-01 9.638302D-01 9.638302D-01 9.430294D-01 9.418267D-01 9.418267D-01
 Beta  virt Sing. vals= 9.415053D-01 9.415053D-01 9.398237D-01 9.398237D-01 9.351094D-01 9.351094D-01 9.351059D-01 9.334508D-01 9.252902D-01 9.211133D-01
 Beta  virt Sing. vals= 9.211133D-01 9.153155D-01 9.153155D-01 9.143139D-01 9.101705D-01 9.101705D-01 9.097239D-01 9.097239D-01 9.057108D-01 9.027495D-01
 Beta  virt Sing. vals= 9.027495D-01 8.944738D-01 8.944738D-01 8.909968D-01 8.909968D-01 8.855520D-01 8.855520D-01 8.668857D-01 5.620750D-01
 Beta  virt NOrbO=   249 NOrbN=   375 NSVal=   241 ThrEig=  0.900000.
 TrMax= 9.993377D-01 PrMax= 9.998230D-01 Trace(Pr)= 2.410000D+02
 Leave Link  804 at Tue Feb 27 13:21:30 2018, MaxMem= 10737418240 cpu:           12291.0 elap:             768.9
 (Enter /home1/apps/gaussian/16rA.03/g16/l913.exe)
 CIDS:  MDV= 10737418240.
 IFCWin=0 IBDFC=1 NFBD=     0     0 NFCmp=     0     0 NFFFC=     0     0
 Amplitudes recovered.
 Using DD4UQ or CC4UQ for all iterations.
 Keep R2 and R3 ints in memory in symmetry-blocked form, NReq=3425131966.
 FoFCou: FMM=F IPFlag=           8 FMFlag=           0 FMFlg1=           0
         NFxFlg=           0 DoJE=F BraDBF=F KetDBF=F FulRan=T
         wScrn=  0.000000 ICntrl=       600 IOpCl=  0 I1Cent=           0 NGrid=           0
         NMat0=    1 NMatS0=  73920 NMatT0=    0 NMatD0=    1 NMtDS0=    0 NMtDT0=    0
 Petite list used in FoFCou.
 CIDS: In Core Option IDoMem=           1.
 CCSD(T)
 =======
 Iterations= 150 Convergence= 0.100D-06
 Produce multiple copies of IABC intergrals
 Iteration Nr.   1
 **********************
 DD1Dir will call FoFMem   1 times, MxPair=       208
 NAB=    72 NAA=    36 NBB=    28.
 Maximum subspace dimension=  5
 A-vector RMS=  1.1605688D-04 Max=  9.4331373D-04 conv= 1.00D-05.
 RLE energy=       -0.6889131989
 DE(Corr)= -0.68886006     E(Corr)=     -62.593837575    
 NORM(A)=   0.10794522D+01
 Iteration Nr.   2
 **********************
 DD1Dir will call FoFMem   1 times, MxPair=       208
 NAB=    72 NAA=    36 NBB=    28.
 A-vector RMS=  4.1263619D-05 Max=  3.3905805D-04 conv= 1.00D-05.
 RLE energy=       -0.6890805791
 DE(Corr)= -0.68907990     E(CORR)=     -62.594057416     Delta=-2.20D-04
 NORM(A)=   0.10795647D+01
 Iteration Nr.   3
 **********************
 DD1Dir will call FoFMem   1 times, MxPair=       208
 NAB=    72 NAA=    36 NBB=    28.
 A-vector RMS=  1.8060823D-05 Max=  1.9921806D-04 conv= 1.00D-05.
 RLE energy=       -0.6892469365
 DE(Corr)= -0.68924146     E(CORR)=     -62.594218973     Delta=-1.62D-04
 NORM(A)=   0.10796286D+01
 Iteration Nr.   4
 **********************
 DD1Dir will call FoFMem   1 times, MxPair=       208
 NAB=    72 NAA=    36 NBB=    28.
 A-vector RMS=  1.0404324D-05 Max=  9.8974251D-05 conv= 1.00D-05.
 RLE energy=       -0.6892108100
 DE(Corr)= -0.68919731     E(CORR)=     -62.594174829     Delta= 4.41D-05
 NORM(A)=   0.10796522D+01
 Iteration Nr.   5
 **********************
 DD1Dir will call FoFMem   1 times, MxPair=       208
 NAB=    72 NAA=    36 NBB=    28.
 A-vector RMS=  4.3093001D-06 Max=  7.9770072D-05 conv= 1.00D-05.
 RLE energy=       -0.6892215388
 DE(Corr)= -0.68922385     E(CORR)=     -62.594201370     Delta=-2.65D-05
 NORM(A)=   0.10796758D+01
 Iteration Nr.   6
 **********************
 DD1Dir will call FoFMem   1 times, MxPair=       208
 NAB=    72 NAA=    36 NBB=    28.
 A-vector RMS=  1.7184870D-06 Max=  3.1611680D-05 conv= 1.00D-05.
 RLE energy=       -0.6892217517
 DE(Corr)= -0.68922050     E(CORR)=     -62.594198017     Delta= 3.35D-06
 NORM(A)=   0.10796861D+01
 Iteration Nr.   7
 **********************
 DD1Dir will call FoFMem   1 times, MxPair=       208
 NAB=    72 NAA=    36 NBB=    28.
 A-vector RMS=  7.4946609D-07 Max=  1.6757391D-05 conv= 1.00D-05.
 RLE energy=       -0.6892239811
 DE(Corr)= -0.68922382     E(CORR)=     -62.594201336     Delta=-3.32D-06
 NORM(A)=   0.10796902D+01
 Iteration Nr.   8
 **********************
 DD1Dir will call FoFMem   1 times, MxPair=       208
 NAB=    72 NAA=    36 NBB=    28.
 A-vector RMS=  2.9278677D-07 Max=  6.1661256D-06 conv= 1.00D-05.
 RLE energy=       -0.6892237929
 DE(Corr)= -0.68922361     E(CORR)=     -62.594201123     Delta= 2.12D-07
 NORM(A)=   0.10796921D+01
 Iteration Nr.   9
 **********************
 DD1Dir will call FoFMem   1 times, MxPair=       208
 NAB=    72 NAA=    36 NBB=    28.
 A-vector RMS=  1.2333263D-07 Max=  1.7351556D-06 conv= 1.00D-05.
 RLE energy=       -0.6892242120
 DE(Corr)= -0.68922416     E(CORR)=     -62.594201680     Delta=-5.56D-07
 NORM(A)=   0.10796927D+01
 Iteration Nr.  10
 **********************
 DD1Dir will call FoFMem   1 times, MxPair=       208
 NAB=    72 NAA=    36 NBB=    28.
 A-vector RMS=  5.3540467D-08 Max=  8.6958394D-07 conv= 1.00D-05.
 RLE energy=       -0.6892241507
 DE(Corr)= -0.68922411     E(CORR)=     -62.594201630     Delta= 4.92D-08
 NORM(A)=   0.10796928D+01
 CI/CC converged in   10 iterations to DelEn= 4.92D-08 Conv= 1.00D-07 ErrA1= 5.35D-08 Conv= 1.00D-05
 Wavefunction amplitudes converged. E(Corr)=     -62.594201630    
 Largest amplitude= 5.03D-02
 Time for triples=    43463.55 seconds.
 T4(CCSD)= -0.33926772D-01
 T5(CCSD)=  0.24035369D-02
 CCSD(T)= -0.62625724866D+02
 Discarding MO integrals.
 Leave Link  913 at Tue Feb 27 14:16:00 2018, MaxMem= 10737418240 cpu:           52288.6 elap:            3270.6
 (Enter /home1/apps/gaussian/16rA.03/g16/l601.exe)
 Copying SCF densities to generalized density rwf, IOpCl= 0 IROHF=1.

 **********************************************************************

            Population analysis using the SCF density.

 **********************************************************************

 Orbital symmetries:
       Occupied  (SG) (SG) (PI) (PI) (SG) (PI) (PI) (SG) (SG)
       Virtual   (PI) (PI) (SG) (SG) (DLTA) (DLTA) (PI) (PI) (SG)
                 (PI) (PI) (SG) (DLTA) (DLTA) (SG) (PI) (PI) (SG)
                 (PI) (PI) (SG) (PHI) (PHI) (DLTA) (DLTA) (PI)
                 (PI) (DLTA) (DLTA) (SG) (SG) (PI) (PI) (PI) (PI)
                 (SG) (DLTA) (DLTA) (SG) (DLTA) (DLTA) (PI) (PI)
                 (SG) (PI) (PI) (?A) (?A) (PHI) (PHI) (SG) (DLTA)
                 (DLTA) (SG) (PHI) (PHI) (PI) (PI) (PI) (PI) (SG)
                 (PI) (PI) (DLTA) (DLTA) (SG) (PHI) (PHI) (DLTA)
                 (DLTA) (?B) (?B) (PI) (PI) (?A) (?A) (SG) (SG)
                 (DLTA) (DLTA) (PI) (PI) (SG) (SG) (PI) (PI) (SG)
                 (PI) (PI) (DLTA) (DLTA) (PHI) (PHI) (?A) (?A)
                 (PI) (PI) (PHI) (PHI) (SG) (DLTA) (DLTA) (SG)
                 (PI) (PI) (DLTA) (DLTA) (PI) (PI) (SG) (SG) (DLTA)
                 (DLTA) (PHI) (PHI) (PI) (PI) (SG) (SG) (DLTA)
                 (DLTA) (PI) (PI) (SG) (PI) (PI) (?A) (?A) (?B)
                 (?B) (SG) (DLTA) (DLTA) (PI) (PI) (DLTA) (DLTA)
                 (PHI) (PHI) (PI) (PI) (SG) (SG) (PI) (PI) (DLTA)
                 (DLTA) (SG) (PHI) (PHI) (?A) (?A) (PHI) (PHI)
                 (PI) (PI) (SG) (?A) (?A) (SG) (DLTA) (DLTA) (PHI)
                 (PHI) (PI) (PI) (DLTA) (DLTA) (DLTA) (DLTA) (SG)
                 (PI) (PI) (PHI) (PHI) (SG) (SG) (PI) (PI) (DLTA)
                 (DLTA) (PI) (PI) (SG) (SG) (DLTA) (DLTA) (PI)
                 (PI) (SG) (PI) (PI) (SG) (SG) (PI) (PI) (PHI)
                 (PHI) (DLTA) (DLTA) (PI) (PI) (DLTA) (DLTA) (SG)
                 (PI) (PI) (DLTA) (DLTA) (SG) (?A) (?A) (PHI) (PHI)
                 (PI) (PI) (SG) (PI) (PI) (?B) (?B) (?A) (?A) (PHI)
                 (PHI) (SG) (PHI) (PHI) (?A) (?A) (DLTA) (DLTA)
                 (PHI) (PHI) (SG) (DLTA) (DLTA) (PI) (PI) (DLTA)
                 (DLTA) (PI) (PI) (SG) (DLTA) (DLTA) (PI) (PI)
                 (SG) (SG) (PI) (PI) (SG) (SG) (DLTA) (DLTA) (PI)
                 (PI) (SG) (PI) (PI) (SG) (PI) (PI) (SG) (SG) (DLTA)
                 (DLTA) (PI) (PI) (SG) (PI) (PI) (SG) (SG) (DLTA)
                 (DLTA) (PI) (PI) (SG) (SG) (PI) (PI) (SG) (DLTA)
                 (DLTA) (PI) (PI) (SG) (SG) (PI) (PI) (SG) (SG)
                 (PI) (PI) (SG) (PHI) (PHI) (DLTA) (DLTA) (PI)
                 (PI) (SG) (SG) (SG) (PI) (PI) (SG) (DLTA) (DLTA)
                 (PI) (PI) (SG) (PI) (PI) (SG) (DLTA) (DLTA) (PI)
                 (PI) (SG) (SG) (SG) (PI) (PI) (SG) (PI) (PI) (SG)
                 (SG) (DLTA) (DLTA) (PI) (PI) (SG) (SG) (PI) (PI)
                 (SG) (SG) (PI) (PI) (SG) (SG) (SG) (PI) (PI) (SG)
                 (SG) (SG) (PI) (PI) (SG) (SG) (SG) (PI) (PI) (SG)
                 (SG) (PI) (PI) (SG) (SG) (SG) (PI) (PI) (SG) (SG)
                 (SG) (SG) (SG) (SG) (SG)
 The electronic state is 2-SG.
 Alpha  occ. eigenvalues --   -2.61649  -1.76798  -1.53040  -1.53040  -1.06673
 Alpha  occ. eigenvalues --   -0.57719  -0.57719  -0.47078  -0.19545
 Alpha virt. eigenvalues --    0.00966   0.00966   0.01896   0.02272   0.02812
 Alpha virt. eigenvalues --    0.02812   0.02897   0.02897   0.02897   0.04185
 Alpha virt. eigenvalues --    0.04185   0.06567   0.08089   0.08089   0.08565
 Alpha virt. eigenvalues --    0.08961   0.08961   0.10862   0.11318   0.11337
 Alpha virt. eigenvalues --    0.11337   0.12722   0.12722   0.12949   0.12949
 Alpha virt. eigenvalues --    0.14594   0.14594   0.16014   0.16014   0.17272
 Alpha virt. eigenvalues --    0.20248   0.22879   0.22879   0.27021   0.27021
 Alpha virt. eigenvalues --    0.27468   0.30061   0.30061   0.32943   0.33639
 Alpha virt. eigenvalues --    0.33639   0.33755   0.33789   0.33789   0.35915
 Alpha virt. eigenvalues --    0.35915   0.36104   0.36104   0.36625   0.36625
 Alpha virt. eigenvalues --    0.42905   0.44271   0.44298   0.44298   0.45415
 Alpha virt. eigenvalues --    0.45415   0.48636   0.48636   0.55832   0.55832
 Alpha virt. eigenvalues --    0.57642   0.65010   0.65010   0.65416   0.65416
 Alpha virt. eigenvalues --    0.72399   0.72770   0.72770   0.72984   0.72984
 Alpha virt. eigenvalues --    0.73360   0.73360   0.73783   0.73783   0.74072
 Alpha virt. eigenvalues --    0.74072   0.76394   0.77407   0.78517   0.78517
 Alpha virt. eigenvalues --    0.78869   0.78869   0.86100   1.06764   1.19345
 Alpha virt. eigenvalues --    1.19345   1.20945   1.22175   1.22175   1.25687
 Alpha virt. eigenvalues --    1.25687   1.28098   1.28098   1.28512   1.28512
 Alpha virt. eigenvalues --    1.40267   1.40267   1.41396   1.41396   1.42400
 Alpha virt. eigenvalues --    1.45037   1.45037   1.52269   1.53232   1.53232
 Alpha virt. eigenvalues --    1.54895   1.54895   1.62719   1.62719   1.64911
 Alpha virt. eigenvalues --    1.74253   1.78393   1.78393   1.81257   1.81257
 Alpha virt. eigenvalues --    2.17736   2.17736   2.19327   2.28940   2.34198
 Alpha virt. eigenvalues --    2.34198   2.46421   2.46421   2.61593   2.86770
 Alpha virt. eigenvalues --    2.86770   2.94060   2.94060   2.94925   2.94925
 Alpha virt. eigenvalues --    2.98267   3.04965   3.04965   3.11379   3.11379
 Alpha virt. eigenvalues --    3.12074   3.12074   3.12176   3.12176   3.13897
 Alpha virt. eigenvalues --    3.13897   3.27618   3.38010   3.64115   3.64115
 Alpha virt. eigenvalues --    3.75143   3.75143   3.81541   3.85384   3.85384
 Alpha virt. eigenvalues --    3.86946   3.86946   3.90473   3.90473   4.02117
 Alpha virt. eigenvalues --    4.02117   4.21951   4.28599   4.28599   4.30685
 Alpha virt. eigenvalues --    4.31439   4.31439   4.31603   4.31603   4.35508
 Alpha virt. eigenvalues --    4.35508   4.60209   4.60209   4.78323   4.78323
 Alpha virt. eigenvalues --    4.80904   4.86507   4.86507   4.99056   4.99056
 Alpha virt. eigenvalues --    5.31800   5.73308   5.76661   5.76661   5.81671
 Alpha virt. eigenvalues --    5.81671   5.91416   5.91416   5.93979   6.13401
 Alpha virt. eigenvalues --    6.15450   6.15450   6.18313   6.18313   6.80568
 Alpha virt. eigenvalues --    6.80601   6.80601   7.77867   9.83221   9.97950
 Alpha virt. eigenvalues --    9.97950  10.07002  10.07002  10.28662  10.28662
 Alpha virt. eigenvalues --   10.29494  10.29494  10.35161  10.35161  10.40324
 Alpha virt. eigenvalues --   10.51629  10.51629  10.54276  10.54276  10.67822
 Alpha virt. eigenvalues --   10.68389  10.68389  10.75199  10.75199  11.02410
 Alpha virt. eigenvalues --   11.02410  11.22966  11.26617  11.26617  11.51978
 Alpha virt. eigenvalues --   11.51978  11.53371  11.53371  11.67100  11.67100
 Alpha virt. eigenvalues --   11.81640  11.92377  11.92377  11.92682  11.92682
 Alpha virt. eigenvalues --   12.08746  12.08746  12.14225  12.14225  12.20570
 Alpha virt. eigenvalues --   12.22891  12.22891  12.35293  12.35293  12.83244
 Alpha virt. eigenvalues --   12.83244  12.88886  12.88886  12.96320  13.02115
 Alpha virt. eigenvalues --   13.02115  13.07409  13.07409  13.83241  14.07214
 Alpha virt. eigenvalues --   15.21694  15.21694  15.76363  16.46518  17.78201
 Alpha virt. eigenvalues --   17.78201  17.89020  17.89020  18.42459  20.16683
 Alpha virt. eigenvalues --   20.16683  20.81522  28.48751  28.48751  28.75446
 Alpha virt. eigenvalues --   29.85441  31.16821  31.16821  31.25828  31.25828
 Alpha virt. eigenvalues --   31.64313  34.71652  34.71652  34.98554  35.27011
 Alpha virt. eigenvalues --   46.80950  46.80950  47.41749  47.41749  48.65043
 Alpha virt. eigenvalues --   54.94334  58.30119  58.30119  58.65093  63.00183
 Alpha virt. eigenvalues --   63.00183  63.07573  63.07573  63.36731  68.26151
 Alpha virt. eigenvalues --   69.89054  69.89054  71.16225  85.31462  98.35211
 Alpha virt. eigenvalues --   98.35211  98.66299 102.95060 102.95060 102.97865
 Alpha virt. eigenvalues --  102.97865 103.02470 103.02470 103.13154 121.69280
 Alpha virt. eigenvalues --  148.25234 154.64446 154.64446 155.66879 160.49631
 Alpha virt. eigenvalues --  160.49631 160.55218 160.55218 160.75747 171.57697
 Alpha virt. eigenvalues --  171.57697 171.89679 206.75724 206.75724 207.08020
 Alpha virt. eigenvalues --  207.08020 207.73551 210.17451 280.01228 313.44568
 Alpha virt. eigenvalues --  313.44568 313.74511 324.85722 324.85722 325.78244
 Alpha virt. eigenvalues --  358.16817 538.29653 538.29653 538.33265 538.33265
 Alpha virt. eigenvalues --  538.46290 546.79565 603.70007 603.70007 603.98241
 Alpha virt. eigenvalues --  612.31967 691.09579 691.09579 691.950481090.21131
 Alpha virt. eigenvalues -- 1112.377061241.215311241.215311241.473152262.54079
 Alpha virt. eigenvalues -- 2369.257042762.989432762.989432763.219075286.81658
 Alpha virt. eigenvalues -- 6141.199566800.899406800.899406801.09746**********
 Alpha virt. eigenvalues -- **************************************************
 Alpha virt. eigenvalues -- **************************************************
 Alpha virt. eigenvalues -- ****************************************
     Molecular Orbital Coefficients:
                           4         5         6         7         8
                           O         O         O         O         O
     Eigenvalues --    -1.53040  -1.06673  -0.57719  -0.57719  -0.47078
   1 1   Sc 1S          0.00000  -0.00000   0.00000   0.00000  -0.00000
   2        2S          0.00000  -0.00000   0.00000   0.00000  -0.00000
   3        3S          0.00000  -0.00000   0.00000   0.00000  -0.00000
   4        4S          0.00000  -0.00000   0.00000   0.00000  -0.00000
   5        5S          0.00000   0.00000   0.00000   0.00000   0.00000
   6        6S          0.00000  -0.00000   0.00000   0.00000  -0.00000
   7        7S          0.00000   0.00000   0.00000   0.00000   0.00000
   8        8S          0.00000  -0.00002   0.00000   0.00000  -0.00002
   9        9S          0.00000   0.00002   0.00000   0.00000   0.00002
  10       10S          0.00000  -0.00014   0.00000   0.00000  -0.00014
  11       11S          0.00000   0.00024   0.00000   0.00000   0.00023
  12       12S          0.00000  -0.00094   0.00000   0.00000  -0.00088
  13       13S          0.00000   0.00256   0.00000   0.00000   0.00239
  14       14S          0.00000  -0.01332   0.00000   0.00000  -0.01245
  15       15S          0.00000   0.01756   0.00000   0.00000   0.01753
  16       16S          0.00000   0.09120   0.00000   0.00000   0.07514
  17       17S          0.00000  -0.02124   0.00000   0.00000  -0.02646
  18       18S          0.00000  -0.13909   0.00000   0.00000  -0.11378
  19       19S          0.00000  -0.07453   0.00000   0.00000  -0.11830
  20       20S          0.00000  -0.03865   0.00000   0.00000  -0.10908
  21       21S          0.00000  -0.02864   0.00000   0.00000  -0.03953
  22       22S          0.00000   0.00251   0.00000   0.00000   0.01003
  23       23S          0.00000  -0.03635   0.00000   0.00000  -0.02027
  24       24S          0.00000  -0.01107   0.00000   0.00000  -0.02076
  25       25S          0.00000  -0.00035   0.00000   0.00000  -0.00065
  26       26PX         0.00000   0.00000  -0.00000   0.00000   0.00000
  27       26PY         0.00000   0.00000   0.00000  -0.00000   0.00000
  28       26PZ         0.00000   0.00000   0.00000   0.00000   0.00000
  29       27PX         0.00000   0.00000  -0.00000   0.00000   0.00000
  30       27PY         0.00000   0.00000   0.00000  -0.00000   0.00000
  31       27PZ         0.00000   0.00000   0.00000   0.00000   0.00000
  32       28PX         0.00000   0.00000  -0.00000   0.00000   0.00000
  33       28PY         0.00000   0.00000   0.00000  -0.00000   0.00000
  34       28PZ         0.00000   0.00000   0.00000   0.00000   0.00000
  35       29PX         0.00001   0.00000  -0.00000   0.00000   0.00000
  36       29PY         0.00000   0.00000   0.00000  -0.00000   0.00000
  37       29PZ         0.00000   0.00001   0.00000   0.00000   0.00000
  38       30PX         0.00005   0.00000  -0.00001   0.00000   0.00000
  39       30PY         0.00000   0.00000   0.00000  -0.00001   0.00000
  40       30PZ         0.00000   0.00002   0.00000   0.00000   0.00001
  41       31PX         0.00014   0.00000  -0.00003   0.00000   0.00000
  42       31PY         0.00000   0.00000   0.00000  -0.00003   0.00000
  43       31PZ         0.00000   0.00008   0.00000   0.00000   0.00005
  44       32PX         0.00041   0.00000  -0.00010   0.00000   0.00000
  45       32PY         0.00000   0.00000   0.00000  -0.00010   0.00000
  46       32PZ         0.00000   0.00022   0.00000   0.00000   0.00011
  47       33PX         0.00034   0.00000  -0.00006   0.00000   0.00000
  48       33PY         0.00000   0.00000   0.00000  -0.00006   0.00000
  49       33PZ         0.00000   0.00023   0.00000   0.00000   0.00017
  50       34PX         0.01167   0.00000  -0.00270   0.00000   0.00000
  51       34PY         0.00000   0.00000   0.00000  -0.00270   0.00000
  52       34PZ         0.00000   0.00645   0.00000   0.00000   0.00342
  53       35PX        -0.06254   0.00000   0.01480   0.00000   0.00000
  54       35PY         0.00000   0.00000   0.00000   0.01480   0.00000
  55       35PZ         0.00000  -0.03531   0.00000   0.00000  -0.01929
  56       36PX        -0.05182   0.00000   0.00435   0.00000   0.00000
  57       36PY         0.00000   0.00000   0.00000   0.00435   0.00000
  58       36PZ         0.00000  -0.03016   0.00000   0.00000  -0.01988
  59       37PX         0.16931   0.00000  -0.04366   0.00000   0.00000
  60       37PY         0.00000   0.00000   0.00000  -0.04366   0.00000
  61       37PZ         0.00000   0.09759   0.00000   0.00000   0.05598
  62       38PX         0.39670   0.00000  -0.09406   0.00000   0.00000
  63       38PY         0.00000   0.00000   0.00000  -0.09406   0.00000
  64       38PZ         0.00000   0.23603   0.00000   0.00000   0.16107
  65       39PX         0.39297   0.00000  -0.09978   0.00000   0.00000
  66       39PY         0.00000   0.00000   0.00000  -0.09978   0.00000
  67       39PZ         0.00000   0.23066   0.00000   0.00000   0.15651
  68       40PX         0.16141   0.00000  -0.07000   0.00000   0.00000
  69       40PY         0.00000   0.00000   0.00000  -0.07000   0.00000
  70       40PZ         0.00000   0.11159   0.00000   0.00000   0.08601
  71       41PX         0.00757   0.00000  -0.08008   0.00000   0.00000
  72       41PY         0.00000   0.00000   0.00000  -0.08008   0.00000
  73       41PZ         0.00000   0.04564   0.00000   0.00000   0.10250
  74       42PX        -0.00489   0.00000  -0.01530   0.00000   0.00000
  75       42PY         0.00000   0.00000   0.00000  -0.01530   0.00000
  76       42PZ         0.00000   0.01458   0.00000   0.00000   0.02062
  77       43PX        -0.00025   0.00000  -0.01172   0.00000   0.00000
  78       43PY         0.00000   0.00000   0.00000  -0.01172   0.00000
  79       43PZ         0.00000  -0.00084   0.00000   0.00000  -0.00985
  80       44PX         0.01131   0.00000   0.00572   0.00000   0.00000
  81       44PY         0.00000   0.00000   0.00000   0.00572   0.00000
  82       44PZ         0.00000   0.00816   0.00000   0.00000   0.00851
  83       45PX        -0.00818   0.00000   0.00425   0.00000   0.00000
  84       45PY         0.00000   0.00000   0.00000   0.00425   0.00000
  85       45PZ         0.00000  -0.01306   0.00000   0.00000  -0.05061
  86       46PX         0.00003   0.00000   0.00269   0.00000   0.00000
  87       46PY         0.00000   0.00000   0.00000   0.00269   0.00000
  88       46PZ         0.00000   0.00002   0.00000   0.00000   0.00169
  89       47D 0        0.00000   0.00004   0.00000   0.00000   0.00014
  90       47D+1       -0.00001   0.00000  -0.00006   0.00000   0.00000
  91       47D-1        0.00000   0.00000   0.00000  -0.00006   0.00000
  92       47D+2        0.00000   0.00000   0.00000   0.00000  -0.00000
  93       47D-2        0.00000   0.00000   0.00000   0.00000   0.00000
  94       48D 0        0.00000   0.00039   0.00000   0.00000   0.00153
  95       48D+1       -0.00010   0.00000  -0.00067   0.00000   0.00000
  96       48D-1        0.00000   0.00000   0.00000  -0.00067   0.00000
  97       48D+2        0.00000   0.00000   0.00000   0.00000  -0.00000
  98       48D-2        0.00000   0.00000   0.00000   0.00000   0.00000
  99       49D 0        0.00000   0.00324   0.00000   0.00000   0.01274
 100       49D+1       -0.00085   0.00000  -0.00564   0.00000   0.00000
 101       49D-1        0.00000   0.00000   0.00000  -0.00564   0.00000
 102       49D+2        0.00000   0.00000   0.00000   0.00000  -0.00000
 103       49D-2        0.00000   0.00000   0.00000   0.00000   0.00000
 104       50D 0        0.00000   0.01075   0.00000   0.00000   0.04210
 105       50D+1       -0.00263   0.00000  -0.01849   0.00000   0.00000
 106       50D-1        0.00000   0.00000   0.00000  -0.01849   0.00000
 107       50D+2        0.00000   0.00000   0.00000   0.00000  -0.00000
 108       50D-2        0.00000   0.00000   0.00000   0.00000   0.00000
 109       51D 0        0.00000   0.02293   0.00000   0.00000   0.09091
 110       51D+1       -0.00662   0.00000  -0.04020   0.00000   0.00000
 111       51D-1        0.00000   0.00000   0.00000  -0.04020   0.00000
 112       51D+2        0.00000   0.00000   0.00000   0.00000  -0.00000
 113       51D-2        0.00000   0.00000   0.00000   0.00000   0.00000
 114       52D 0        0.00000   0.03676   0.00000   0.00000   0.15025
 115       52D+1       -0.01049   0.00000  -0.06433   0.00000   0.00000
 116       52D-1        0.00000   0.00000   0.00000  -0.06433   0.00000
 117       52D+2        0.00000  -0.00000   0.00000   0.00000   0.00000
 118       52D-2        0.00000   0.00000   0.00000   0.00000   0.00000
 119       53D 0        0.00000   0.05082   0.00000   0.00000   0.18898
 120       53D+1       -0.00595   0.00000  -0.08370   0.00000   0.00000
 121       53D-1        0.00000   0.00000   0.00000  -0.08370   0.00000
 122       53D+2        0.00000  -0.00000   0.00000   0.00000   0.00000
 123       53D-2        0.00000   0.00000   0.00000   0.00000   0.00000
 124       54D 0        0.00000   0.03952   0.00000   0.00000   0.17233
 125       54D+1        0.00221   0.00000  -0.07626   0.00000   0.00000
 126       54D-1        0.00000   0.00000   0.00000  -0.07626   0.00000
 127       54D+2        0.00000   0.00000   0.00000   0.00000  -0.00000
 128       54D-2        0.00000   0.00000   0.00000   0.00000   0.00000
 129       55D 0        0.00000  -0.00523   0.00000   0.00000   0.05091
 130       55D+1        0.00550   0.00000   0.01702   0.00000   0.00000
 131       55D-1        0.00000   0.00000   0.00000   0.01702   0.00000
 132       55D+2        0.00000  -0.00000   0.00000   0.00000   0.00000
 133       55D-2        0.00000   0.00000   0.00000   0.00000   0.00000
 134       56D 0        0.00000  -0.00311   0.00000   0.00000   0.01141
 135       56D+1        0.00267   0.00000   0.00506   0.00000   0.00000
 136       56D-1        0.00000   0.00000   0.00000   0.00506   0.00000
 137       56D+2        0.00000  -0.00000   0.00000   0.00000   0.00000
 138       56D-2        0.00000   0.00000   0.00000   0.00000   0.00000
 139       57D 0        0.00000   0.00050   0.00000   0.00000   0.00456
 140       57D+1        0.00034   0.00000   0.00657   0.00000   0.00000
 141       57D-1        0.00000   0.00000   0.00000   0.00657   0.00000
 142       57D+2        0.00000   0.00000   0.00000   0.00000  -0.00000
 143       57D-2        0.00000   0.00000   0.00000   0.00000   0.00000
 144       58D 0        0.00000   0.00160   0.00000   0.00000   0.00607
 145       58D+1       -0.00080   0.00000  -0.00273   0.00000   0.00000
 146       58D-1        0.00000   0.00000   0.00000  -0.00273   0.00000
 147       58D+2        0.00000   0.00000   0.00000   0.00000  -0.00000
 148       58D-2        0.00000   0.00000   0.00000   0.00000   0.00000
 149       59D 0        0.00000   0.00273   0.00000   0.00000   0.01914
 150       59D+1       -0.00629   0.00000  -0.01227   0.00000   0.00000
 151       59D-1        0.00000   0.00000   0.00000  -0.01227   0.00000
 152       59D+2        0.00000   0.00000   0.00000   0.00000  -0.00000
 153       59D-2        0.00000   0.00000   0.00000   0.00000   0.00000
 154       60D 0        0.00000  -0.00008   0.00000   0.00000  -0.00092
 155       60D+1       -0.00007   0.00000  -0.00162   0.00000   0.00000
 156       60D-1        0.00000   0.00000   0.00000  -0.00162   0.00000
 157       60D+2        0.00000  -0.00000   0.00000   0.00000   0.00000
 158       60D-2        0.00000   0.00000   0.00000   0.00000   0.00000
 159       61F 0        0.00000  -0.00150   0.00000   0.00000  -0.00660
 160       61F+1       -0.00066   0.00000   0.00446   0.00000   0.00000
 161       61F-1        0.00000   0.00000   0.00000   0.00446   0.00000
 162       61F+2        0.00000  -0.00000   0.00000   0.00000   0.00000
 163       61F-2        0.00000   0.00000   0.00000   0.00000   0.00000
 164       61F+3       -0.00000   0.00000   0.00000   0.00000   0.00000
 165       61F-3        0.00000   0.00000   0.00000   0.00000   0.00000
 166       62F 0        0.00000  -0.00628   0.00000   0.00000  -0.02442
 167       62F+1       -0.00094   0.00000   0.01758   0.00000   0.00000
 168       62F-1        0.00000   0.00000   0.00000   0.01758   0.00000
 169       62F+2        0.00000  -0.00000   0.00000   0.00000   0.00000
 170       62F-2        0.00000   0.00000   0.00000   0.00000   0.00000
 171       62F+3        0.00000   0.00000   0.00000   0.00000   0.00000
 172       62F-3        0.00000   0.00000   0.00000   0.00000   0.00000
 173       63F 0        0.00000  -0.00595   0.00000   0.00000  -0.02227
 174       63F+1       -0.00474   0.00000   0.01764   0.00000   0.00000
 175       63F-1        0.00000   0.00000   0.00000   0.01764   0.00000
 176       63F+2        0.00000  -0.00000   0.00000   0.00000   0.00000
 177       63F-2        0.00000   0.00000   0.00000   0.00000   0.00000
 178       63F+3       -0.00000   0.00000  -0.00000   0.00000   0.00000
 179       63F-3        0.00000   0.00000   0.00000  -0.00000   0.00000
 180       64F 0        0.00000   0.00305   0.00000   0.00000  -0.00716
 181       64F+1       -0.00276   0.00000  -0.00953   0.00000   0.00000
 182       64F-1        0.00000   0.00000   0.00000  -0.00953   0.00000
 183       64F+2        0.00000   0.00000   0.00000   0.00000  -0.00000
 184       64F-2        0.00000   0.00000   0.00000   0.00000   0.00000
 185       64F+3        0.00000   0.00000   0.00000   0.00000   0.00000
 186       64F-3        0.00000   0.00000   0.00000   0.00000   0.00000
 187       65F 0        0.00000  -0.00004   0.00000   0.00000  -0.00230
 188       65F+1       -0.00039   0.00000  -0.00239   0.00000   0.00000
 189       65F-1        0.00000   0.00000   0.00000  -0.00239   0.00000
 190       65F+2        0.00000  -0.00000   0.00000   0.00000  -0.00000
 191       65F-2        0.00000   0.00000   0.00000   0.00000   0.00000
 192       65F+3       -0.00000   0.00000   0.00000   0.00000   0.00000
 193       65F-3        0.00000   0.00000   0.00000   0.00000   0.00000
 194       66G 0        0.00000   0.00010   0.00000   0.00000   0.00165
 195       66G+1       -0.00055   0.00000  -0.00129   0.00000   0.00000
 196       66G-1        0.00000   0.00000   0.00000  -0.00129   0.00000
 197       66G+2        0.00000  -0.00000   0.00000   0.00000   0.00000
 198       66G-2        0.00000   0.00000   0.00000   0.00000   0.00000
 199       66G+3       -0.00000   0.00000   0.00000   0.00000   0.00000
 200       66G-3        0.00000   0.00000   0.00000   0.00000   0.00000
 201       66G+4        0.00000  -0.00000   0.00000   0.00000   0.00000
 202       66G-4        0.00000   0.00000   0.00000   0.00000   0.00000
 203       67G 0        0.00000   0.00029   0.00000   0.00000   0.00514
 204       67G+1       -0.00131   0.00000  -0.00509   0.00000   0.00000
 205       67G-1        0.00000   0.00000   0.00000  -0.00509   0.00000
 206       67G+2        0.00000   0.00000   0.00000   0.00000  -0.00000
 207       67G-2        0.00000   0.00000   0.00000   0.00000   0.00000
 208       67G+3        0.00000   0.00000   0.00000   0.00000   0.00000
 209       67G-3        0.00000   0.00000   0.00000   0.00000   0.00000
 210       67G+4        0.00000  -0.00000   0.00000   0.00000   0.00000
 211       67G-4        0.00000   0.00000   0.00000   0.00000   0.00000
 212       68G 0        0.00000  -0.00031   0.00000   0.00000   0.00006
 213       68G+1        0.00060   0.00000  -0.00152   0.00000   0.00000
 214       68G-1        0.00000   0.00000   0.00000  -0.00152   0.00000
 215       68G+2        0.00000  -0.00000   0.00000   0.00000   0.00000
 216       68G-2        0.00000   0.00000   0.00000   0.00000   0.00000
 217       68G+3        0.00000   0.00000  -0.00000   0.00000   0.00000
 218       68G-3        0.00000   0.00000   0.00000   0.00000   0.00000
 219       68G+4        0.00000  -0.00000   0.00000   0.00000   0.00000
 220       68G-4        0.00000   0.00000   0.00000   0.00000   0.00000
 221       69G 0        0.00000  -0.00031   0.00000   0.00000   0.00229
 222       69G+1        0.00051   0.00000   0.00155   0.00000   0.00000
 223       69G-1        0.00000   0.00000   0.00000   0.00155   0.00000
 224       69G+2        0.00000   0.00000   0.00000   0.00000  -0.00000
 225       69G-2        0.00000   0.00000   0.00000   0.00000   0.00000
 226       69G+3       -0.00000   0.00000  -0.00000   0.00000   0.00000
 227       69G-3        0.00000   0.00000   0.00000  -0.00000   0.00000
 228       69G+4        0.00000   0.00000   0.00000   0.00000  -0.00000
 229       69G-4        0.00000   0.00000   0.00000   0.00000   0.00000
 230       70H 0        0.00000  -0.00032   0.00000   0.00000  -0.00137
 231       70H+1        0.00035   0.00000   0.00134   0.00000   0.00000
 232       70H-1        0.00000   0.00000   0.00000   0.00134   0.00000
 233       70H+2        0.00000   0.00000   0.00000   0.00000  -0.00000
 234       70H-2        0.00000   0.00000   0.00000   0.00000   0.00000
 235       70H+3       -0.00000   0.00000  -0.00000   0.00000   0.00000
[...]
 163       61F-2       -0.00000  -0.00000   0.00000  -0.00000
 164       61F+3        0.00000   0.00000   0.00000   0.00000
 165       61F-3       -0.00000  -0.00000  -0.00000  -0.00000
 166       62F 0        0.01118   0.00559   0.00559   0.00000
 167       62F+1        0.00620   0.00310   0.00310   0.00000
 168       62F-1        0.00620   0.00310   0.00310   0.00000
 169       62F+2        0.00000   0.00000  -0.00000   0.00000
 170       62F-2        0.00000   0.00000  -0.00000   0.00000
 171       62F+3        0.00000   0.00000   0.00000   0.00000
 172       62F-3        0.00000   0.00000   0.00000  -0.00000
 173       63F 0        0.00759   0.00377   0.00382  -0.00005
 174       63F+1        0.01410   0.00705   0.00705   0.00000
 175       63F-1        0.01410   0.00705   0.00705   0.00000
 176       63F+2       -0.00000   0.00000  -0.00000   0.00000
 177       63F-2        0.00000   0.00000   0.00000   0.00000
 178       63F+3       -0.00000  -0.00000  -0.00000  -0.00000
 179       63F-3       -0.00000  -0.00000  -0.00000   0.00000
 180       64F 0       -0.00391  -0.00200  -0.00191  -0.00010
 181       64F+1       -0.00538  -0.00269  -0.00269   0.00000
 182       64F-1       -0.00538  -0.00269  -0.00269   0.00000
 183       64F+2        0.00000   0.00000   0.00000   0.00000
 184       64F-2        0.00000   0.00000   0.00000   0.00000
 185       64F+3       -0.00000  -0.00000   0.00000  -0.00000
 186       64F-3        0.00000   0.00000   0.00000   0.00000
 187       65F 0       -0.00023  -0.00012  -0.00011  -0.00000
 188       65F+1       -0.00026  -0.00013  -0.00013   0.00000
 189       65F-1       -0.00026  -0.00013  -0.00013   0.00000
 190       65F+2        0.00000   0.00000   0.00000   0.00000
 191       65F-2        0.00000   0.00000  -0.00000   0.00000
 192       65F+3       -0.00000  -0.00000  -0.00000  -0.00000
 193       65F-3        0.00000   0.00000   0.00000   0.00000
 194       66G 0        0.00016   0.00008   0.00008   0.00000
 195       66G+1        0.00007   0.00004   0.00004   0.00000
 196       66G-1        0.00007   0.00004   0.00004   0.00000
 197       66G+2       -0.00000  -0.00000  -0.00000  -0.00000
 198       66G-2       -0.00000  -0.00000  -0.00000  -0.00000
 199       66G+3       -0.00000  -0.00000  -0.00000   0.00000
 200       66G-3       -0.00000  -0.00000  -0.00000  -0.00000
 201       66G+4        0.00000   0.00000   0.00000   0.00000
 202       66G-4        0.00000   0.00000   0.00000   0.00000
 203       67G 0        0.00178   0.00089   0.00089  -0.00000
 204       67G+1        0.00189   0.00095   0.00095   0.00000
 205       67G-1        0.00189   0.00095   0.00095   0.00000
 206       67G+2        0.00000   0.00000   0.00000   0.00000
 207       67G-2        0.00000   0.00000   0.00000   0.00000
 208       67G+3       -0.00000  -0.00000  -0.00000   0.00000
 209       67G-3       -0.00000  -0.00000  -0.00000  -0.00000
 210       67G+4        0.00000   0.00000   0.00000   0.00000
 211       67G-4        0.00000   0.00000   0.00000   0.00000
 212       68G 0       -0.00003  -0.00002  -0.00001  -0.00001
 213       68G+1        0.00093   0.00046   0.00046  -0.00000
 214       68G-1        0.00093   0.00046   0.00046   0.00000
 215       68G+2        0.00000   0.00000   0.00000   0.00000
 216       68G-2        0.00000   0.00000   0.00000   0.00000
 217       68G+3        0.00000   0.00000   0.00000  -0.00000
 218       68G-3       -0.00000  -0.00000  -0.00000   0.00000
 219       68G+4        0.00000   0.00000   0.00000   0.00000
 220       68G-4        0.00000   0.00000   0.00000   0.00000
 221       69G 0       -0.00037  -0.00018  -0.00019   0.00001
 222       69G+1       -0.00026  -0.00013  -0.00013   0.00000
 223       69G-1       -0.00026  -0.00013  -0.00013   0.00000
 224       69G+2        0.00000   0.00000  -0.00000   0.00000
 225       69G-2        0.00000   0.00000  -0.00000   0.00000
 226       69G+3        0.00000   0.00000   0.00000   0.00000
 227       69G-3       -0.00000  -0.00000  -0.00000   0.00000
 228       69G+4       -0.00000  -0.00000  -0.00000  -0.00000
 229       69G-4       -0.00000  -0.00000  -0.00000  -0.00000
 230       70H 0        0.00012   0.00006   0.00006  -0.00000
 231       70H+1        0.00009   0.00004   0.00004   0.00000
 232       70H-1        0.00009   0.00004   0.00004   0.00000
 233       70H+2        0.00000   0.00000   0.00000   0.00000
 234       70H-2        0.00000   0.00000   0.00000   0.00000
 235       70H+3        0.00000   0.00000   0.00000  -0.00000
 236       70H-3        0.00000   0.00000   0.00000   0.00000
 237       70H+4        0.00000   0.00000   0.00000   0.00000
 238       70H-4        0.00000   0.00000   0.00000   0.00000
 239       70H+5       -0.00000  -0.00000  -0.00000   0.00000
 240       70H-5        0.00000   0.00000   0.00000  -0.00000
 241       71H 0       -0.00006  -0.00003  -0.00003   0.00000
 242       71H+1        0.00082   0.00041   0.00041   0.00000
 243       71H-1        0.00082   0.00041   0.00041   0.00000
 244       71H+2        0.00000   0.00000  -0.00000   0.00000
 245       71H-2        0.00000   0.00000  -0.00000   0.00000
 246       71H+3        0.00000   0.00000   0.00000   0.00000
 247       71H-3        0.00000   0.00000   0.00000  -0.00000
 248       71H+4        0.00000   0.00000   0.00000   0.00000
 249       71H-4        0.00000   0.00000   0.00000   0.00000
 250       71H+5       -0.00000  -0.00000  -0.00000   0.00000
 251       71H-5        0.00000   0.00000   0.00000  -0.00000
 252       72H 0       -0.00008  -0.00004  -0.00004  -0.00000
 253       72H+1        0.00021   0.00010   0.00010   0.00000
 254       72H-1        0.00021   0.00010   0.00010   0.00000
 255       72H+2       -0.00000  -0.00000   0.00000  -0.00000
 256       72H-2       -0.00000  -0.00000  -0.00000  -0.00000
 257       72H+3       -0.00000   0.00000  -0.00000   0.00000
 258       72H-3       -0.00000  -0.00000  -0.00000  -0.00000
 259       72H+4       -0.00000  -0.00000  -0.00000  -0.00000
 260       72H-4       -0.00000  -0.00000  -0.00000  -0.00000
 261       72H+5       -0.00000  -0.00000  -0.00000  -0.00000
 262       72H-5        0.00000   0.00000   0.00000  -0.00000
 263 2   O  1S         -0.00000  -0.00000  -0.00000  -0.00000
 264        2S          0.00000   0.00000   0.00000   0.00000
 265        3S         -0.00000  -0.00000  -0.00000  -0.00000
 266        4S          0.00000   0.00000   0.00000   0.00000
 267        5S         -0.00000  -0.00000  -0.00000  -0.00000
 268        6S         -0.00005  -0.00003  -0.00003  -0.00000
 269        7S         -0.00036  -0.00018  -0.00018  -0.00000
 270        8S         -0.09318  -0.04670  -0.04648  -0.00022
 271        9S         -0.08021  -0.04019  -0.04002  -0.00017
 272       10S          0.43607   0.21847   0.21760   0.00087
 273       11S          1.06491   0.53304   0.53187   0.00116
 274       12S          0.58904   0.29141   0.29763  -0.00623
 275       13S          0.05585   0.02799   0.02786   0.00013
 276       14S          0.00022   0.00011   0.00011   0.00000
 277       15S          0.00002   0.00001   0.00001   0.00000
 278       16S          0.06933   0.03147   0.03787  -0.00640
 279       17PX        -0.00018  -0.00009  -0.00009   0.00000
 280       17PY        -0.00018  -0.00009  -0.00009   0.00000
 281       17PZ        -0.00020  -0.00010  -0.00010  -0.00000
 282       18PX        -0.13135  -0.06568  -0.06568   0.00000
 283       18PY        -0.13135  -0.06568  -0.06568  -0.00000
 284       18PZ        -0.13675  -0.06861  -0.06814  -0.00047
 285       19PX         0.13989   0.06994   0.06994   0.00000
 286       19PY         0.13989   0.06994   0.06994   0.00000
 287       19PZ         0.13321   0.06684   0.06637   0.00047
 288       20PX         0.48500   0.24250   0.24250   0.00000
 289       20PY         0.48500   0.24250   0.24250   0.00000
 290       20PZ         0.46995   0.23578   0.23417   0.00162
 291       21PX         0.71095   0.35547   0.35547   0.00000
 292       21PY         0.71095   0.35547   0.35547   0.00000
 293       21PZ         0.51239   0.25736   0.25503   0.00233
 294       22PX         0.41589   0.20794   0.20794   0.00000
 295       22PY         0.41589   0.20794   0.20794   0.00000
 296       22PZ         0.11754   0.05929   0.05826   0.00103
 297       23PX         0.14962   0.07481   0.07481   0.00000
 298       23PY         0.14962   0.07481   0.07481   0.00000
 299       23PZ         0.15451   0.07752   0.07699   0.00054
 300       24PX         0.00069   0.00034   0.00034   0.00000
 301       24PY         0.00069   0.00034   0.00034   0.00000
 302       24PZ         0.00070   0.00035   0.00035   0.00000
 303       25PX         0.00001   0.00000   0.00000  -0.00000
 304       25PY         0.00001   0.00000   0.00000   0.00000
 305       25PZ         0.00001   0.00001   0.00001   0.00000
 306       26PX         0.03252   0.01626   0.01626   0.00000
 307       26PY         0.03252   0.01626   0.01626   0.00000
 308       26PZ         0.00995   0.00262   0.00733  -0.00471
 309       27D 0        0.00063   0.00032   0.00031   0.00001
 310       27D+1        0.00020   0.00010   0.00010   0.00000
 311       27D-1        0.00020   0.00010   0.00010   0.00000
 312       27D+2       -0.00000  -0.00000  -0.00000  -0.00000
 313       27D-2       -0.00000  -0.00000  -0.00000  -0.00000
 314       28D 0        0.00943   0.00477   0.00466   0.00012
 315       28D+1        0.00437   0.00218   0.00218   0.00000
 316       28D-1        0.00437   0.00218   0.00218   0.00000
 317       28D+2        0.00000   0.00000   0.00000   0.00000
 318       28D-2        0.00000   0.00000   0.00000   0.00000
 319       29D 0        0.00772   0.00421   0.00351   0.00070
 320       29D+1        0.01172   0.00586   0.00586   0.00000
 321       29D-1        0.01172   0.00586   0.00586   0.00000
 322       29D+2       -0.00000  -0.00000   0.00000  -0.00000
 323       29D-2       -0.00000  -0.00000   0.00000  -0.00000
 324       30D 0        0.00001   0.00001   0.00001   0.00000
 325       30D+1        0.00000   0.00000   0.00000   0.00000
 326       30D-1        0.00000   0.00000   0.00000   0.00000
 327       30D+2        0.00000   0.00000   0.00000  -0.00000
 328       30D-2        0.00000   0.00000   0.00000  -0.00000
 329       31D 0       -0.00000  -0.00000  -0.00000  -0.00000
 330       31D+1       -0.00000  -0.00000  -0.00000   0.00000
 331       31D-1       -0.00000  -0.00000  -0.00000   0.00000
 332       31D+2       -0.00000  -0.00000   0.00000  -0.00000
 333       31D-2       -0.00000  -0.00000   0.00000  -0.00000
 334       32D 0        0.00071   0.00054   0.00017   0.00038
 335       32D+1       -0.00303  -0.00151  -0.00151   0.00000
 336       32D-1       -0.00303  -0.00151  -0.00151   0.00000
 337       32D+2       -0.00000  -0.00000  -0.00000  -0.00000
 338       32D-2       -0.00000  -0.00000  -0.00000  -0.00000
 339       33F 0        0.00037   0.00018   0.00018   0.00000
 340       33F+1        0.00013   0.00007   0.00007   0.00000
 341       33F-1        0.00013   0.00007   0.00007   0.00000
 342       33F+2       -0.00000  -0.00000  -0.00000  -0.00000
 343       33F-2       -0.00000  -0.00000  -0.00000  -0.00000
 344       33F+3        0.00000   0.00000   0.00000   0.00000
 345       33F-3        0.00000   0.00000   0.00000   0.00000
 346       34F 0        0.00264   0.00135   0.00129   0.00005
 347       34F+1        0.00203   0.00102   0.00102   0.00000
 348       34F-1        0.00203   0.00102   0.00102   0.00000
 349       34F+2        0.00000   0.00000   0.00000   0.00000
 350       34F-2        0.00000   0.00000   0.00000   0.00000
 351       34F+3        0.00000   0.00000   0.00000   0.00000
 352       34F-3       -0.00000  -0.00000  -0.00000  -0.00000
 353       35F 0        0.00000   0.00000   0.00000   0.00000
 354       35F+1        0.00000   0.00000   0.00000   0.00000
 355       35F-1        0.00000   0.00000   0.00000   0.00000
 356       35F+2        0.00000   0.00000   0.00000  -0.00000
 357       35F-2        0.00000   0.00000   0.00000  -0.00000
 358       35F+3        0.00000   0.00000   0.00000  -0.00000
 359       35F-3        0.00000   0.00000   0.00000  -0.00000
 360       36F 0       -0.00028  -0.00012  -0.00017   0.00005
 361       36F+1       -0.00033  -0.00017  -0.00017   0.00000
 362       36F-1       -0.00033  -0.00017  -0.00017  -0.00000
 363       36F+2        0.00000   0.00000  -0.00000   0.00000
 364       36F-2        0.00000   0.00000   0.00000   0.00000
 365       36F+3        0.00000   0.00000   0.00000   0.00000
 366       36F-3       -0.00000  -0.00000  -0.00000  -0.00000
 367       37G 0        0.00022   0.00011   0.00011   0.00000
 368       37G+1        0.00013   0.00007   0.00007   0.00000
 369       37G-1        0.00013   0.00007   0.00007   0.00000
 370       37G+2        0.00000   0.00000   0.00000   0.00000
 371       37G-2        0.00000   0.00000   0.00000   0.00000
 372       37G+3        0.00000   0.00000   0.00000   0.00000
 373       37G-3        0.00000   0.00000   0.00000   0.00000
 374       37G+4        0.00000   0.00000   0.00000  -0.00000
 375       37G-4        0.00000   0.00000   0.00000  -0.00000
 376       38G 0        0.00015   0.00007   0.00008  -0.00001
 377       38G+1        0.00023   0.00011   0.00011   0.00000
 378       38G-1        0.00023   0.00011   0.00011   0.00000
 379       38G+2       -0.00000  -0.00000  -0.00000  -0.00000
 380       38G-2       -0.00000  -0.00000  -0.00000  -0.00000
 381       38G+3       -0.00000  -0.00000  -0.00000  -0.00000
 382       38G-3       -0.00000  -0.00000  -0.00000  -0.00000
 383       38G+4       -0.00000  -0.00000  -0.00000   0.00000
 384       38G-4       -0.00000  -0.00000  -0.00000   0.00000
          Condensed to atoms (all electrons):
               1          2
     1  Sc  10.529414  -0.490949
     2  O   -0.490949   7.452484
          Atomic-Atomic Spin Densities.
               1          2
     1  Sc   1.036878  -0.028122
     2  O   -0.028122   0.019366
 Mulliken charges and spin densities:
               1          2
     1  Sc   0.961535   1.008756
     2  O   -0.961535  -0.008756
 Sum of Mulliken charges =  -0.00000   1.00000
 Mulliken charges and spin densities with hydrogens summed into heavy atoms:
               1          2
     1  Sc   0.961535   1.008756
     2  O   -0.961535  -0.008756
 Electronic spatial extent (au):  <R**2>=             79.5895
 Charge=             -0.0000 electrons
 Dipole moment (field-independent basis, Debye):
    X=              0.0000    Y=              0.0000    Z=              0.2485  Tot=              0.2485
 Quadrupole moment (field-independent basis, Debye-Ang):
   XX=            -22.6689   YY=            -22.6689   ZZ=            -29.3784
   XY=              0.0000   XZ=              0.0000   YZ=              0.0000
 Traceless Quadrupole moment (field-independent basis, Debye-Ang):
   XX=              2.2365   YY=              2.2365   ZZ=             -4.4730
   XY=              0.0000   XZ=              0.0000   YZ=              0.0000
 Octapole moment (field-independent basis, Debye-Ang**2):
  XXX=              0.0000  YYY=              0.0000  ZZZ=            -21.0876  XYY=              0.0000
  XXY=              0.0000  XXZ=             -6.8681  XZZ=              0.0000  YZZ=              0.0000
  YYZ=             -6.8681  XYZ=              0.0000
 Hexadecapole moment (field-independent basis, Debye-Ang**3):
 XXXX=            -64.7195 YYYY=            -64.7195 ZZZZ=           -146.0752 XXXY=              0.0000
 XXXZ=              0.0000 YYYX=              0.0000 YYYZ=              0.0000 ZZZX=              0.0000
 ZZZY=              0.0000 XXYY=            -21.5732 XXZZ=            -35.0909 YYZZ=            -35.0909
 XXYZ=              0.0000 YYXZ=              0.0000 ZZXY=              0.0000
 N-N= 2.686591993902D+01 E-N=-1.898733613694D+02  KE= 3.276950026374D+01
 Symmetry A1   KE= 1.528453715559D+01
 Symmetry A2   KE= 1.012435009679D-48
 Symmetry B1   KE= 8.742481554438D+00
 Symmetry B2   KE= 8.742481553618D+00
 Symmetry A1   SP= 1.000000000000D+00
 Symmetry A2   SP= 2.032626861755D-49
 Symmetry B1   SP=-2.780457716234D-17
 Symmetry B2   SP= 2.769052566362D-17
 Orbital energies and kinetic energies (alpha):
                                 1                 2
   4         O                -1.530397          2.053548
   5         O                -1.066728          1.564202
   6         O                -0.577188          2.317692
   7         O                -0.577188          2.317692
   8         O                -0.470777          3.024212
   9         O                -0.195454          0.238588
  10         V                 0.009661          0.042823
  11         V                 0.009661          0.042823
  12         V                 0.018959          0.027110
  13         V                 0.022724          0.037855
  14         V                 0.028117          0.030375
 Total kinetic energy from orbitals= 3.300808793658D+01
                          Isotropic Fermi Contact Couplings
        Atom                 a.u.       MegaHertz       Gauss      10(-4) cm-1
     1  Sc(45)             0.00051       0.55834       0.19923       0.18624
     2  O(17)              0.00006      -0.03482      -0.01243      -0.01162
 --------------------------------------------------------
       Center         ----  Spin Dipole Couplings  ----
                      3XX-RR        3YY-RR        3ZZ-RR
 --------------------------------------------------------
     1   Atom       -0.017966     -0.017966      0.035932
     2   Atom       -0.012615     -0.012615      0.025231
 --------------------------------------------------------
                        XY            XZ            YZ
 --------------------------------------------------------
     1   Atom        0.000000      0.000000      0.000000
     2   Atom        0.000000      0.000000      0.000000
 --------------------------------------------------------


 ---------------------------------------------------------------------------------
              Anisotropic Spin Dipole Couplings in Principal Axis System
 ---------------------------------------------------------------------------------

       Atom             a.u.   MegaHertz   Gauss  10(-4) cm-1        Axes

              Baa    -0.0180    -2.332    -0.832    -0.778 -0.0000  1.0000  0.0000
     1 Sc(45) Bbb    -0.0180    -2.332    -0.832    -0.778  1.0000  0.0000  0.0000
              Bcc     0.0359     4.664     1.664     1.556  0.0000  0.0000  1.0000
 
              Baa    -0.0126     0.913     0.326     0.304  1.0000  0.0000  0.0000
     2 O(17)  Bbb    -0.0126     0.913     0.326     0.304 -0.0000  1.0000  0.0000
              Bcc     0.0252    -1.826    -0.651    -0.609  0.0000  0.0000  1.0000
 

 ---------------------------------------------------------------------------------

 No NMR shielding tensors so no spin-rotation constants.
 Leave Link  601 at Tue Feb 27 14:16:08 2018, MaxMem= 10737418240 cpu:             115.4 elap:               7.5
 (Enter /home1/apps/gaussian/16rA.03/g16/l9999.exe)
 1\1\GINC-C465-052\SP\ROCCSD(T)-Full\Gen\O1Sc1(2)\AANNABE\27-Feb-2018\0
 \\#P ROCCSD(T)=(maxcyc=150, Full, SaveAmplitudes, ReadAmplitudes)/Gen 
 5d 7f SCF=(maxcycles=300) Integral(NoXCTest) MaxDisk=500GB Pop=Regular
  Pseudo=Read Guess=Read\\ScO\\0,2\Sc,0,0.,0.,0.\O,0,0.,0.,1.3\\Version
 =ES64L-G16RevA.03\State=2-SG\HF=-61.9049775\MP2=-62.5996205\PUHF=-61.9
 049775\PMP2-0=-62.5996205\CCSD=-62.5942016\CCSD(T)=-62.6257249\RMSD=1.
 007e-10\PG=C*V [C*(O1Sc1)]\\@


 Luck is a matter of preparation meeting opportunity.
                                    -- Oprah Winfrey
 Job cpu time:       0 days 18 hours 39 minutes 42.0 seconds.
 Elapsed time:       0 days  1 hours 10 minutes 17.3 seconds.
 File lengths (MBytes):  RWF=  11434 Int=      0 D2E=      0 Chk=     61 Scr=      1
 Normal termination of Gaussian 16 at Tue Feb 27 14:16:09 2018.
