 Entering Gaussian System, Link 0=g16
 Initial command:
 /home1/apps/gaussian/16rA.03/g16/l1.exe "/tmp/Gau-63374.inp" -scrdir="/tmp/"
 Entering Link 1 = /home1/apps/gaussian/16rA.03/g16/l1.exe PID=     63375.
  
 Copyright (c) 1988,1990,1992,1993,1995,1998,2003,2009,2016,
            Gaussian, Inc.  All Rights Reserved.
  
 This is part of the Gaussian(R) 16 program.  It is based on
 the Gaussian(R) 09 system (copyright 2009, Gaussian, Inc.),
 the Gaussian(R) 03 system (copyright 2003, Gaussian, Inc.),
 the Gaussian(R) 98 system (copyright 1998, Gaussian, Inc.),
 the Gaussian(R) 94 system (copyright 1995, Gaussian, Inc.),
 the Gaussian 92(TM) system (copyright 1992, Gaussian, Inc.),
 the Gaussian 90(TM) system (copyright 1990, Gaussian, Inc.),
 the Gaussian 88(TM) system (copyright 1988, Gaussian, Inc.),
 the Gaussian 86(TM) system (copyright 1986, Carnegie Mellon
 University), and the Gaussian 82(TM) system (copyright 1983,
 Carnegie Mellon University). Gaussian is a federally registered
 trademark of Gaussian, Inc.
  
 This software contains proprietary and confidential information,
 including trade secrets, belonging to Gaussian, Inc.
  
 This software is provided under written license and may be
 used, copied, transmitted, or stored only in accord with that
 written license.
  
 The following legend is applicable only to US Government
 contracts under FAR:
  
                    RESTRICTED RIGHTS LEGEND
  
 Use, reproduction and disclosure by the US Government is
 subject to restrictions as set forth in subparagraphs (a)
 and (c) of the Commercial Computer Software - Restricted
 Rights clause in FAR 52.227-19.
  
 Gaussian, Inc.
 340 Quinnipiac St., Bldg. 40, Wallingford CT 06492
  
  
 ---------------------------------------------------------------
 Warning -- This program may not be used in any manner that
 competes with the business of Gaussian, Inc. or will provide
 assistance to any competitor of Gaussian, Inc.  The licensee
 of this program is prohibited from giving any competitor of
 Gaussian, Inc. access to this program.  By using this program,
 the user acknowledges that Gaussian, Inc. is engaged in the
 business of creating and licensing software in the field of
 computational chemistry and represents and warrants to the
 licensee that it is not a competitor of Gaussian, Inc. and that
 it will not use this program in any manner prohibited above.
 ---------------------------------------------------------------
  

 Cite this work as:
 Gaussian 16, Revision A.03,
 M. J. Frisch, G. W. Trucks, H. B. Schlegel, G. E. Scuseria, 
 M. A. Robb, J. R. Cheeseman, G. Scalmani, V. Barone, 
 G. A. Petersson, H. Nakatsuji, X. Li, M. Caricato, A. V. Marenich, 
 J. Bloino, B. G. Janesko, R. Gomperts, B. Mennucci, H. P. Hratchian, 
 J. V. Ortiz, A. F. Izmaylov, J. L. Sonnenberg, D. Williams-Young, 
 F. Ding, F. Lipparini, F. Egidi, J. Goings, B. Peng, A. Petrone, 
 T. Henderson, D. Ranasinghe, V. G. Zakrzewski, J. Gao, N. Rega, 
 G. Zheng, W. Liang, M. Hada, M. Ehara, K. Toyota, R. Fukuda, 
 J. Hasegawa, M. Ishida, T. Nakajima, Y. Honda, O. Kitao, H. Nakai, 
 T. Vreven, K. Throssell, J. A. Montgomery, Jr., J. E. Peralta, 
 F. Ogliaro, M. J. Bearpark, J. J. Heyd, E. N. Brothers, K. N. Kudin, 
 V. N. Staroverov, T. A. Keith, R. Kobayashi, J. Normand, 
 K. Raghavachari, A. P. Rendell, J. C. Burant, S. S. Iyengar, 
 J. Tomasi, M. Cossi, J. M. Millam, M. Klene, C. Adamo, R. Cammi, 
 J. W. Ochterski, R. L. Martin, K. Morokuma, O. Farkas, 
 J. B. Foresman, and D. J. Fox, Gaussian, Inc., Wallingford CT, 2016.
 
 ******************************************
 Gaussian 16:  ES64L-G16RevA.03 25-Dec-2016
                20-Feb-2018 
 ******************************************
 %mem=80GB
 %cpu=0-31
 SetSPE:  set environment variable "MP_BIND" = "yes"
 SetSPE:  set environment variable "MP_BLIST" = "0,1,2,3,4,5,6,7,8,9,10,11,12,13,14,15,16,17,18,19,20,21,22,23,24,25,26,27,28,29,30,31"
 Will use up to   32 processors via shared memory.
 %chk=ScO
 %rwf=/scratch/04843/aannabe/gaussian/
 ----------------------------------------------------------------------
 #P ROCCSD(T)=(maxcyc=150, Full, SaveAmplitudes, ReadAmplitudes)/Gen 5d
  7f SCF=(maxcycles=300) Integral(NoXCTest) MaxDisk=500GB Pop=Regular P
 seudo=Read Guess=Read
 ----------------------------------------------------------------------
 1/38=1,172=1/1;
 2/12=2,17=6,18=5,40=1/2;
 3/5=7,8=11,11=2,16=1,17=8,25=1,30=1,47=8,116=101/1,2,3;
 4/5=1/1;
 5/5=2,7=300,38=6/2;
 8/5=-1,6=4,9=120000,10=90,24=1/1,4;
 9/5=7,6=150,14=2,77=1/13;
 6//1;
 99/5=1,9=1/99;
 Leave Link    1 at Tue Feb 20 22:33:48 2018, MaxMem= 10737418240 cpu:               7.0 elap:               0.2
 (Enter /home1/apps/gaussian/16rA.03/g16/l101.exe)
 ---
 ScO
 ---
 Symbolic Z-matrix:
 Charge =  0 Multiplicity = 2
 Sc                    0.        0.        0. 
 O                     0.        0.        1.3 
 
 ITRead=  0  0
 MicOpt= -1 -1
 NAtoms=      2 NQM=        2 NQMF=       0 NMMI=      0 NMMIF=      0
                NMic=       0 NMicF=      0.
                    Isotopes and Nuclear Properties:
 (Nuclear quadrupole moments (NQMom) in fm**2, nuclear magnetic moments (NMagM)
  in nuclear magnetons)

  Atom         1           2
 IAtWgt=          45          16
 AtmWgt=  44.9559136  15.9949146
 NucSpn=           7           0
 AtZEff=  -0.0000000  -0.0000000
 NQMom=  -22.0000000   0.0000000
 NMagM=    4.7564830   0.0000000
 AtZNuc=  21.0000000   8.0000000
 Leave Link  101 at Tue Feb 20 22:33:48 2018, MaxMem= 10737418240 cpu:               2.9 elap:               0.1
 (Enter /home1/apps/gaussian/16rA.03/g16/l202.exe)
                          Input orientation:                          
 ---------------------------------------------------------------------
 Center     Atomic      Atomic             Coordinates (Angstroms)
 Number     Number       Type             X           Y           Z
 ---------------------------------------------------------------------
      1         21           0        0.000000    0.000000    0.000000
      2          8           0        0.000000    0.000000    1.300000
 ---------------------------------------------------------------------
 Stoichiometry    OSc(2)
 Framework group  C*V[C*(OSc)]
 Deg. of freedom     1
 Full point group                 C*V     NOp   4
 Largest Abelian subgroup         C2V     NOp   4
 Largest concise Abelian subgroup C1      NOp   1
                         Standard orientation:                         
 ---------------------------------------------------------------------
 Center     Atomic      Atomic             Coordinates (Angstroms)
 Number     Number       Type             X           Y           Z
 ---------------------------------------------------------------------
      1         21           0        0.000000    0.000000    0.358621
      2          8           0        0.000000    0.000000   -0.941379
 ---------------------------------------------------------------------
 Rotational constants (GHZ):           0.0000000          25.3478630          25.3478630
 Leave Link  202 at Tue Feb 20 22:33:48 2018, MaxMem= 10737418240 cpu:               0.7 elap:               0.1
 (Enter /home1/apps/gaussian/16rA.03/g16/l301.exe)
 General basis read from cards:  (5D, 7F)
 Centers:       1
 S 1 1.00
     Exponent=  8.4179090000D+06 Coefficients=  1.0000000000D+00
 S 1 1.00
     Exponent=  1.2603120000D+06 Coefficients=  1.0000000000D+00
 S 1 1.00
     Exponent=  2.8679840000D+05 Coefficients=  1.0000000000D+00
 S 1 1.00
     Exponent=  8.1234690000D+04 Coefficients=  1.0000000000D+00
 S 1 1.00
     Exponent=  2.6503110000D+04 Coefficients=  1.0000000000D+00
 S 1 1.00
     Exponent=  9.5687010000D+03 Coefficients=  1.0000000000D+00
 S 1 1.00
     Exponent=  3.7324970000D+03 Coefficients=  1.0000000000D+00
 S 1 1.00
     Exponent=  1.5484220000D+03 Coefficients=  1.0000000000D+00
 S 1 1.00
     Exponent=  6.7554200000D+02 Coefficients=  1.0000000000D+00
 S 1 1.00
     Exponent=  3.0725220000D+02 Coefficients=  1.0000000000D+00
 S 1 1.00
     Exponent=  1.4466720000D+02 Coefficients=  1.0000000000D+00
 S 1 1.00
     Exponent=  7.0043870000D+01 Coefficients=  1.0000000000D+00
 S 1 1.00
     Exponent=  3.4322500000D+01 Coefficients=  1.0000000000D+00
 S 1 1.00
     Exponent=  1.5612240000D+01 Coefficients=  1.0000000000D+00
 S 1 1.00
     Exponent=  7.7437220000D+00 Coefficients=  1.0000000000D+00
 S 1 1.00
     Exponent=  3.8442600000D+00 Coefficients=  1.0000000000D+00
 S 1 1.00
     Exponent=  1.7197660000D+00 Coefficients=  1.0000000000D+00
 S 1 1.00
     Exponent=  8.3252300000D-01 Coefficients=  1.0000000000D+00
 S 1 1.00
     Exponent=  3.8556400000D-01 Coefficients=  1.0000000000D+00
 S 1 1.00
     Exponent=  9.6700000000D-02 Coefficients=  1.0000000000D+00
 S 1 1.00
     Exponent=  4.7778000000D-02 Coefficients=  1.0000000000D+00
 S 1 1.00
     Exponent=  2.2363000000D-02 Coefficients=  1.0000000000D+00
 S 1 1.00
     Exponent=  3.1672000000D+00 Coefficients=  1.0000000000D+00
 S 1 1.00
     Exponent=  1.6879000000D+00 Coefficients=  1.0000000000D+00
 S 1 1.00
     Exponent=  1.0470000000D-02 Coefficients=  1.0000000000D+00
 P 1 1.00
     Exponent=  2.2640970000D+04 Coefficients=  1.0000000000D+00
 P 1 1.00
     Exponent=  5.3575450000D+03 Coefficients=  1.0000000000D+00
 P 1 1.00
     Exponent=  1.7403730000D+03 Coefficients=  1.0000000000D+00
 P 1 1.00
     Exponent=  6.6661630000D+02 Coefficients=  1.0000000000D+00
 P 1 1.00
     Exponent=  2.8363840000D+02 Coefficients=  1.0000000000D+00
 P 1 1.00
     Exponent=  1.2979760000D+02 Coefficients=  1.0000000000D+00
 P 1 1.00
     Exponent=  6.2679560000D+01 Coefficients=  1.0000000000D+00
 P 1 1.00
     Exponent=  3.1504410000D+01 Coefficients=  1.0000000000D+00
 P 1 1.00
     Exponent=  1.6235250000D+01 Coefficients=  1.0000000000D+00
 P 1 1.00
     Exponent=  8.5183240000D+00 Coefficients=  1.0000000000D+00
 P 1 1.00
     Exponent=  4.5190050000D+00 Coefficients=  1.0000000000D+00
 P 1 1.00
     Exponent=  2.3665910000D+00 Coefficients=  1.0000000000D+00
 P 1 1.00
     Exponent=  1.2152350000D+00 Coefficients=  1.0000000000D+00
 P 1 1.00
     Exponent=  6.1434800000D-01 Coefficients=  1.0000000000D+00
 P 1 1.00
     Exponent=  3.0074500000D-01 Coefficients=  1.0000000000D+00
 P 1 1.00
     Exponent=  1.2583400000D-01 Coefficients=  1.0000000000D+00
 P 1 1.00
     Exponent=  5.4719000000D-02 Coefficients=  1.0000000000D+00
 P 1 1.00
     Exponent=  2.3488000000D-02 Coefficients=  1.0000000000D+00
 P 1 1.00
     Exponent=  4.0719000000D+00 Coefficients=  1.0000000000D+00
 P 1 1.00
     Exponent=  9.9940000000D-01 Coefficients=  1.0000000000D+00
 P 1 1.00
     Exponent=  1.0080000000D-02 Coefficients=  1.0000000000D+00
 D 1 1.00
     Exponent=  1.4802800000D+02 Coefficients=  1.0000000000D+00
 D 1 1.00
     Exponent=  4.3852800000D+01 Coefficients=  1.0000000000D+00
 D 1 1.00
     Exponent=  1.6664600000D+01 Coefficients=  1.0000000000D+00
 D 1 1.00
     Exponent=  6.9789300000D+00 Coefficients=  1.0000000000D+00
 D 1 1.00
     Exponent=  3.1236900000D+00 Coefficients=  1.0000000000D+00
 D 1 1.00
     Exponent=  1.4468700000D+00 Coefficients=  1.0000000000D+00
 D 1 1.00
     Exponent=  6.6740700000D-01 Coefficients=  1.0000000000D+00
 D 1 1.00
     Exponent=  3.0163300000D-01 Coefficients=  1.0000000000D+00
 D 1 1.00
     Exponent=  1.3267400000D-01 Coefficients=  1.0000000000D+00
 D 1 1.00
     Exponent=  5.6739000000D-02 Coefficients=  1.0000000000D+00
 D 1 1.00
     Exponent=  2.3175000000D-02 Coefficients=  1.0000000000D+00
 D 1 1.00
     Exponent=  2.1282000000D+00 Coefficients=  1.0000000000D+00
 D 1 1.00
     Exponent=  9.6910000000D-01 Coefficients=  1.0000000000D+00
 D 1 1.00
     Exponent=  9.4700000000D-03 Coefficients=  1.0000000000D+00
 F 1 1.00
     Exponent=  2.7590000000D+00 Coefficients=  1.0000000000D+00
 F 1 1.00
     Exponent=  1.0490000000D+00 Coefficients=  1.0000000000D+00
 F 1 1.00
     Exponent=  3.9890000000D-01 Coefficients=  1.0000000000D+00
 F 1 1.00
     Exponent=  1.1060000000D-01 Coefficients=  1.0000000000D+00
 F 1 1.00
     Exponent=  3.0670000000D-02 Coefficients=  1.0000000000D+00
 G 1 1.00
     Exponent=  2.4852000000D+00 Coefficients=  1.0000000000D+00
 G 1 1.00
     Exponent=  9.0670000000D-01 Coefficients=  1.0000000000D+00
 G 1 1.00
     Exponent=  2.5300000000D-01 Coefficients=  1.0000000000D+00
 G 1 1.00
     Exponent=  7.0600000000D-02 Coefficients=  1.0000000000D+00
 H 1 1.00
     Exponent=  2.0405000000D+00 Coefficients=  1.0000000000D+00
 H 1 1.00
     Exponent=  4.9340000000D-01 Coefficients=  1.0000000000D+00
 H 1 1.00
     Exponent=  1.1931000000D-01 Coefficients=  1.0000000000D+00
 ****
 Centers:       2
 S 1 1.00
     Exponent=  6.1420000000D+04 Coefficients=  1.0000000000D+00
 S 1 1.00
     Exponent=  9.1990000000D+03 Coefficients=  1.0000000000D+00
 S 1 1.00
     Exponent=  2.0910000000D+03 Coefficients=  1.0000000000D+00
 S 1 1.00
     Exponent=  5.9090000000D+02 Coefficients=  1.0000000000D+00
 S 1 1.00
     Exponent=  1.9230000000D+02 Coefficients=  1.0000000000D+00
 S 1 1.00
     Exponent=  6.9320000000D+01 Coefficients=  1.0000000000D+00
 S 1 1.00
     Exponent=  2.6970000000D+01 Coefficients=  1.0000000000D+00
 S 1 1.00
     Exponent=  1.1100000000D+01 Coefficients=  1.0000000000D+00
 S 1 1.00
     Exponent=  4.6820000000D+00 Coefficients=  1.0000000000D+00
 S 1 1.00
     Exponent=  1.4280000000D+00 Coefficients=  1.0000000000D+00
 S 1 1.00
     Exponent=  5.5470000000D-01 Coefficients=  1.0000000000D+00
 S 1 1.00
     Exponent=  2.0670000000D-01 Coefficients=  1.0000000000D+00
 S 1 1.00
     Exponent=  1.2974000000D+01 Coefficients=  1.0000000000D+00
 S 1 1.00
     Exponent=  3.4900000000D+01 Coefficients=  1.0000000000D+00
 S 1 1.00
     Exponent=  9.3881000000D+01 Coefficients=  1.0000000000D+00
 S 1 1.00
     Exponent=  6.9590000000D-02 Coefficients=  1.0000000000D+00
 P 1 1.00
     Exponent=  6.3420000000D+01 Coefficients=  1.0000000000D+00
 P 1 1.00
     Exponent=  1.4660000000D+01 Coefficients=  1.0000000000D+00
 P 1 1.00
     Exponent=  4.4590000000D+00 Coefficients=  1.0000000000D+00
 P 1 1.00
     Exponent=  1.5310000000D+00 Coefficients=  1.0000000000D+00
 P 1 1.00
     Exponent=  5.3020000000D-01 Coefficients=  1.0000000000D+00
 P 1 1.00
     Exponent=  1.7500000000D-01 Coefficients=  1.0000000000D+00
 P 1 1.00
     Exponent=  1.4475000000D+01 Coefficients=  1.0000000000D+00
 P 1 1.00
     Exponent=  4.2730000000D+01 Coefficients=  1.0000000000D+00
 P 1 1.00
     Exponent=  1.2614000000D+02 Coefficients=  1.0000000000D+00
 P 1 1.00
     Exponent=  5.3480000000D-02 Coefficients=  1.0000000000D+00
 D 1 1.00
     Exponent=  3.7750000000D+00 Coefficients=  1.0000000000D+00
 D 1 1.00
     Exponent=  1.3000000000D+00 Coefficients=  1.0000000000D+00
 D 1 1.00
     Exponent=  4.4400000000D-01 Coefficients=  1.0000000000D+00
 D 1 1.00
     Exponent=  1.4927000000D+01 Coefficients=  1.0000000000D+00
 D 1 1.00
     Exponent=  5.7544000000D+01 Coefficients=  1.0000000000D+00
 D 1 1.00
     Exponent=  1.5400000000D-01 Coefficients=  1.0000000000D+00
 F 1 1.00
     Exponent=  2.6660000000D+00 Coefficients=  1.0000000000D+00
 F 1 1.00
     Exponent=  8.5900000000D-01 Coefficients=  1.0000000000D+00
 F 1 1.00
     Exponent=  2.6483000000D+01 Coefficients=  1.0000000000D+00
 F 1 1.00
     Exponent=  3.2400000000D-01 Coefficients=  1.0000000000D+00
 G 1 1.00
     Exponent=  1.8460000000D+00 Coefficients=  1.0000000000D+00
 G 1 1.00
     Exponent=  7.1400000000D-01 Coefficients=  1.0000000000D+00
 ****
 ======================================================================================================
                                       Pseudopotential Parameters
 ======================================================================================================
  Center     Atomic      Valence      Angular      Power
  Number     Number     Electrons     Momentum     of R      Exponent        Coefficient   SO-Coeffient
 ======================================================================================================
    1         21           11
                                      D and up 
                                                     1        1.6491656       11.00000000    0.00000000
                                                     3        3.0683329       18.14082106    0.00000000
                                                     2        2.4198539      -35.19310566    0.00000000
                                      S - D
                                                     2        7.6031935       97.62913482    0.00000000
                                      P - D
                                                     2        5.3112183       33.97033635    0.00000000
    2          8            6
                                      P and up 
                                                     1       12.3099700        6.00000000    0.00000000
                                                     3       14.7696200       73.85984000    0.00000000
                                                     2       13.7141900      -47.87600000    0.00000000
                                      S - P
                                                     2       13.6551200       85.86406000    0.00000000
 ======================================================================================================
 Ernie: Thresh=  0.10000D-02 Tol=  0.10000D-05 Strict=F.
 There are   213 symmetry adapted cartesian basis functions of A1  symmetry.
 There are    56 symmetry adapted cartesian basis functions of A2  symmetry.
 There are   114 symmetry adapted cartesian basis functions of B1  symmetry.
 There are   114 symmetry adapted cartesian basis functions of B2  symmetry.
 There are   157 symmetry adapted basis functions of A1  symmetry.
 There are    47 symmetry adapted basis functions of A2  symmetry.
 There are    90 symmetry adapted basis functions of B1  symmetry.
 There are    90 symmetry adapted basis functions of B2  symmetry.
   384 basis functions,   497 primitive gaussians,   497 cartesian basis functions
     9 alpha electrons        8 beta electrons
       nuclear repulsion energy        26.8659199390 Hartrees.
 IExCor=    0 DFT=F Ex=HF Corr=None ExCW=0 ScaHFX=  1.000000
 ScaDFX=  1.000000  1.000000  1.000000  1.000000 ScalE2=  1.000000  1.000000
 IRadAn=      5 IRanWt=     -1 IRanGd=            0 ICorTp=0 IEmpDi=  4
 NAtoms=    2 NActive=    2 NUniq=    2 SFac= 1.00D+00 NAtFMM=   60 NAOKFM=F Big=F
 Integral buffers will be    131072 words long.
 Raffenetti 2 integral format.
 Two-electron integral symmetry is turned on.
 Leave Link  301 at Tue Feb 20 22:33:49 2018, MaxMem= 10737418240 cpu:               9.0 elap:               0.3
 (Enter /home1/apps/gaussian/16rA.03/g16/l302.exe)
 NPDir=0 NMtPBC=     1 NCelOv=     1 NCel=       1 NClECP=     1 NCelD=      1
         NCelK=      1 NCelE2=     1 NClLst=     1 CellRange=     0.0.
 One-electron integrals computed using PRISM.
 One-electron integral symmetry used in STVInt
   4 Symmetry operations used in ECPInt.
 ECPInt:  NShTT=    6105 NPrTT=    6105 LenC2=    5682 LenP2D=    5681.
 LDataN:  DoStor=T MaxTD1=10 Len=  848
 NBasis=   384 RedAO= T EigKep=  1.15D-06  NBF=   157    47    90    90
 NBsUse=   383 1.00D-06 EigRej=  7.16D-09 NBFU=   156    47    90    90
 Leave Link  302 at Tue Feb 20 22:33:51 2018, MaxMem= 10737418240 cpu:              78.8 elap:               2.5
 (Enter /home1/apps/gaussian/16rA.03/g16/l303.exe)
 DipDrv:  MaxL=1.
 Leave Link  303 at Tue Feb 20 22:33:51 2018, MaxMem= 10737418240 cpu:               3.8 elap:               0.2
 (Enter /home1/apps/gaussian/16rA.03/g16/l401.exe)
 Initial guess from the checkpoint file:  "ScO.chk"
 B after Tr=     0.000000    0.000000    0.000000
         Rot=    1.000000    0.000000    0.000000    0.000000 Ang=   0.00 deg.
 Guess basis will be translated and rotated to current coordinates.
 JPrj=2 DoOrth=T DoCkMO=T.
 Initial guess orbital symmetries:
       Occupied  (SG) (SG) (PI) (PI) (SG) (PI) (PI) (SG) (SG)
       Virtual   (PI) (PI) (SG) (SG) (DLTA) (DLTA) (PI) (PI) (SG)
                 (PI) (PI) (SG) (DLTA) (DLTA) (SG) (PI) (PI) (SG)
                 (SG) (PI) (PI) (PHI) (PHI) (DLTA) (DLTA) (PI)
                 (PI) (SG) (DLTA) (DLTA) (SG) (PI) (PI) (PI) (PI)
                 (SG) (SG) (DLTA) (DLTA) (PI) (PI) (?A) (?A) (SG)
                 (PHI) (PHI) (DLTA) (DLTA) (PI) (PI) (SG) (SG)
                 (PI) (PI) (DLTA) (DLTA) (PHI) (PHI) (PI) (PI)
                 (SG) (SG) (PI) (PI) (DLTA) (DLTA) (SG) (SG) (PI)
                 (PI) (DLTA) (DLTA) (SG) (SG) (PI) (PI) (PI) (PI)
                 (SG) (PHI) (PHI) (DLTA) (DLTA) (?A) (?A) (PI)
                 (PI) (SG) (DLTA) (DLTA) (PHI) (PHI) (PI) (PI)
                 (SG) (PHI) (PHI) (DLTA) (DLTA) (SG) (PI) (PI)
                 (SG) (DLTA) (DLTA) (DLTA) (DLTA) (PI) (PI) (SG)
                 (PI) (PI) (SG) (PI) (PI) (SG) (SG) (PI) (PI) (SG)
                 (PI) (PI) (DLTA) (DLTA) (DLTA) (DLTA) (SG) (SG)
                 (PHI) (PHI) (PHI) (PHI) (PI) (PI) (DLTA) (DLTA)
                 (SG) (DLTA) (DLTA) (PI) (PI) (PI) (PI) (?A) (?A)
                 (PHI) (PHI) (DLTA) (DLTA) (SG) (SG) (PI) (PI)
                 (PI) (PI) (SG) (SG) (SG) (DLTA) (DLTA) (PI) (PI)
                 (PI) (PI) (SG) (SG) (SG) (PI) (PI) (SG) (SG) (DLTA)
                 (DLTA) (PI) (PI) (PI) (PI) (SG) (SG) (SG) (DLTA)
                 (DLTA) (PI) (PI) (SG) (PI) (PI) (SG) (SG) (DLTA)
                 (DLTA) (PI) (PI) (SG) (PI) (PI) (SG) (SG) (SG)
                 (PI) (PI) (SG) (SG) (PI) (PI) (SG) (SG) (DLTA)
                 (DLTA) (PI) (PI) (SG) (SG) (PI) (PI) (PI) (PI)
                 (SG) (SG) (SG) (SG) (PI) (PI) (SG) (SG) (PI) (PI)
                 (SG) (SG) (SG) (PI) (PI) (SG) (SG) (SG) (PI) (PI)
                 (SG) (SG) (SG) (SG) (PI) (PI) (SG) (SG) (SG) (SG)
                 (SG) (SG) (DLTA) (SG) (SG) (DLTA) (SG) (SG) (SG)
                 (SG) (DLTA) (SG) (DLTA) (SG) (SG) (SG) (DLTA)
                 (SG) (SG) (DLTA) (SG) (?A) (DLTA) (SG) (SG) (DLTA)
                 (SG) (?A) (DLTA) (SG) (DLTA) (SG) (DLTA) (SG)
                 (SG) (?A) (SG) (DLTA) (?A) (DLTA) (SG) (DLTA)
                 (SG) (?A) (?A) (DLTA) (DLTA) (DLTA) (DLTA) (DLTA)
                 (DLTA) (?A) (DLTA) (DLTA) (?A) (DLTA) (DLTA) (DLTA)
                 (?A) (DLTA) (?A) (DLTA) (DLTA) (?A) (?A) (PI)
                 (PI) (PI) (PI) (PI) (PI) (PHI) (PI) (PI) (PI)
                 (PI) (PHI) (PI) (PI) (PHI) (PI) (PI) (PI) (PHI)
                 (PI) (PHI) (PI) (?B) (PI) (PHI) (PHI) (PI) (?B)
                 (PHI) (PHI) (?B) (PI) (PI) (PI) (PI) (PI) (PI)
                 (PHI) (PI) (PI) (PI) (PI) (PHI) (PI) (PI) (PHI)
                 (PI) (PI) (PI) (PHI) (PI) (PHI) (PI) (?B) (PI)
                 (PHI) (PHI) (PI) (?B) (PHI) (PHI) (?B)
 The electronic state of the initial guess is 2-SG.
 Leave Link  401 at Tue Feb 20 22:33:52 2018, MaxMem= 10737418240 cpu:              24.6 elap:               0.9
 (Enter /home1/apps/gaussian/16rA.03/g16/l502.exe)
 Keep R1 and R2 ints in memory in symmetry-blocked form, NReq=3425113631.
 FoFCou: FMM=F IPFlag=           8 FMFlag=           0 FMFlg1=           0
         NFxFlg=           0 DoJE=F BraDBF=F KetDBF=F FulRan=T
         wScrn=  0.000000 ICntrl=       600 IOpCl=  0 I1Cent=           0 NGrid=           0
         NMat0=    1 NMatS0=  73920 NMatT0=    0 NMatD0=    1 NMtDS0=    0 NMtDT0=    0
 Petite list used in FoFCou.
 Restricted open shell SCF:
 Using DIIS extrapolation, IDIIS=  1040.
 NGot= 10737418240 LenX=  9351085953 LenY=  9350838447
 Requested convergence on RMS density matrix=1.00D-08 within 300 cycles.
 Requested convergence on MAX density matrix=1.00D-06.
 Requested convergence on             energy=1.00D-06.
 No special actions if energy rises.

 Cycle   1  Pass 1  IDiag  1:
 E= -61.8824068082547    
 DIIS: error= 6.99D-01 at cycle   1 NSaved=   1.
 NSaved= 1 IEnMin= 1 EnMin= -61.8824068082547     IErMin= 1 ErrMin= 6.99D-01
 ErrMax= 6.99D-01  0.00D+00 EMaxC= 1.00D-01 BMatC= 2.41D+02 BMatP= 2.41D+02
 IDIUse=3 WtCom= 0.00D+00 WtEn= 1.00D+00
 Coeff-Com:  0.100D+01
 Coeff-En:   0.100D+01
 Coeff:      0.100D+01
 Gap=     0.069 Goal=   None    Shift=    0.000
 GapD=    0.069 DampG=0.500 DampE=0.125 DampFc=0.1250 IDamp=-1.
 Damping current iteration by 1.25D-01
 RMSDP=4.06D-03 MaxDP=4.01D-01              OVMax= 5.41D-03

 Cycle   2  Pass 1  IDiag  1:
 E= -61.8827389617484     Delta-E=       -0.000332153494 Rises=F Damp=T
 DIIS: error= 6.12D-01 at cycle   2 NSaved=   2.
 NSaved= 2 IEnMin= 2 EnMin= -61.8827389617484     IErMin= 2 ErrMin= 6.12D-01
 ErrMax= 6.12D-01  0.00D+00 EMaxC= 1.00D-01 BMatC= 1.84D+02 BMatP= 2.41D+02
 IDIUse=3 WtCom= 0.00D+00 WtEn= 1.00D+00
 Coeff-Com: -0.700D+01 0.800D+01
 Coeff-En:   0.000D+00 0.100D+01
 Coeff:      0.000D+00 0.100D+01
 Gap=     0.068 Goal=   None    Shift=    0.000
 RMSDP=3.57D-03 MaxDP=3.52D-01 DE=-3.32D-04 OVMax= 1.29D-03

 Cycle   3  Pass 1  IDiag  1:
 E= -61.8851329981215     Delta-E=       -0.002394036373 Rises=F Damp=F
 DIIS: error= 2.39D-04 at cycle   3 NSaved=   3.
 NSaved= 3 IEnMin= 3 EnMin= -61.8851329981215     IErMin= 3 ErrMin= 2.39D-04
 ErrMax= 2.39D-04  0.00D+00 EMaxC= 1.00D-01 BMatC= 1.60D-05 BMatP= 1.84D+02
 IDIUse=3 WtCom= 9.98D-01 WtEn= 2.39D-03
 Coeff-Com:  0.251D+01-0.287D+01 0.136D+01
 Coeff-En:   0.000D+00 0.000D+00 0.100D+01
 Coeff:      0.250D+01-0.286D+01 0.136D+01
 Gap=     0.068 Goal=   None    Shift=    0.000
 RMSDP=2.76D-04 MaxDP=5.77D-02 DE=-2.39D-03 OVMax= 5.21D-03

 Cycle   4  Pass 1  IDiag  1:
 E= -61.8851344750566     Delta-E=       -0.000001476935 Rises=F Damp=F
 DIIS: error= 9.19D-05 at cycle   4 NSaved=   4.
 NSaved= 4 IEnMin= 4 EnMin= -61.8851344750566     IErMin= 4 ErrMin= 9.19D-05
 ErrMax= 9.19D-05  0.00D+00 EMaxC= 1.00D-01 BMatC= 1.18D-06 BMatP= 1.60D-05
 IDIUse=1 WtCom= 1.00D+00 WtEn= 0.00D+00
 Coeff-Com:  0.274D+01-0.313D+01 0.449D+00 0.943D+00
 Coeff:      0.274D+01-0.313D+01 0.449D+00 0.943D+00
 Gap=     0.068 Goal=   None    Shift=    0.000
 RMSDP=9.46D-05 MaxDP=2.28D-02 DE=-1.48D-06 OVMax= 3.34D-03

 Cycle   5  Pass 1  IDiag  1:
 E= -61.8851370683517     Delta-E=       -0.000002593295 Rises=F Damp=F
 DIIS: error= 5.91D-05 at cycle   5 NSaved=   5.
 NSaved= 5 IEnMin= 5 EnMin= -61.8851370683517     IErMin= 5 ErrMin= 5.91D-05
 ErrMax= 5.91D-05  0.00D+00 EMaxC= 1.00D-01 BMatC= 6.06D-07 BMatP= 1.18D-06
 IDIUse=1 WtCom= 1.00D+00 WtEn= 0.00D+00
 Coeff-Com:  0.235D+01-0.269D+01 0.357D+00 0.385D+00 0.595D+00
 Coeff:      0.235D+01-0.269D+01 0.357D+00 0.385D+00 0.595D+00
 Gap=     0.068 Goal=   None    Shift=    0.000
 RMSDP=1.53D-05 MaxDP=2.07D-03 DE=-2.59D-06 OVMax= 1.21D-03

 Cycle   6  Pass 1  IDiag  1:
 E= -61.8851371978417     Delta-E=       -0.000000129490 Rises=F Damp=F
 DIIS: error= 5.81D-05 at cycle   6 NSaved=   6.
 NSaved= 6 IEnMin= 6 EnMin= -61.8851371978417     IErMin= 6 ErrMin= 5.81D-05
 ErrMax= 5.81D-05  0.00D+00 EMaxC= 1.00D-01 BMatC= 3.41D-07 BMatP= 6.06D-07
 IDIUse=1 WtCom= 1.00D+00 WtEn= 0.00D+00
 Coeff-Com:  0.193D+01-0.221D+01 0.311D+00-0.179D-02 0.962D-01 0.871D+00
 Coeff:      0.193D+01-0.221D+01 0.311D+00-0.179D-02 0.962D-01 0.871D+00
 Gap=     0.068 Goal=   None    Shift=    0.000
 RMSDP=1.95D-05 MaxDP=4.94D-03 DE=-1.29D-07 OVMax= 3.83D-04

 Cycle   7  Pass 1  IDiag  1:
 E= -61.8851375334031     Delta-E=       -0.000000335561 Rises=F Damp=F
 DIIS: error= 4.82D-05 at cycle   7 NSaved=   7.
 NSaved= 7 IEnMin= 7 EnMin= -61.8851375334031     IErMin= 7 ErrMin= 4.82D-05
 ErrMax= 4.82D-05  0.00D+00 EMaxC= 1.00D-01 BMatC= 2.35D-07 BMatP= 3.41D-07
 IDIUse=1 WtCom= 1.00D+00 WtEn= 0.00D+00
 Coeff-Com:  0.146D+01-0.167D+01 0.241D+00-0.853D-01-0.878D-01-0.333D-01
 Coeff-Com:  0.117D+01
 Coeff:      0.146D+01-0.167D+01 0.241D+00-0.853D-01-0.878D-01-0.333D-01
 Coeff:      0.117D+01
 Gap=     0.068 Goal=   None    Shift=    0.000
 RMSDP=2.03D-05 MaxDP=4.42D-03 DE=-3.36D-07 OVMax= 5.10D-04

 Cycle   8  Pass 1  IDiag  1:
 E= -61.8851378857505     Delta-E=       -0.000000352347 Rises=F Damp=F
 DIIS: error= 3.60D-05 at cycle   8 NSaved=   8.
 NSaved= 8 IEnMin= 8 EnMin= -61.8851378857505     IErMin= 8 ErrMin= 3.60D-05
 ErrMax= 3.60D-05  0.00D+00 EMaxC= 1.00D-01 BMatC= 1.31D-07 BMatP= 2.35D-07
 IDIUse=1 WtCom= 1.00D+00 WtEn= 0.00D+00
 Coeff-Com:  0.107D+01-0.122D+01 0.176D+00-0.274D-01-0.239D-01-0.241D+00
 Coeff-Com:  0.248D+00 0.102D+01
 Coeff:      0.107D+01-0.122D+01 0.176D+00-0.274D-01-0.239D-01-0.241D+00
 Coeff:      0.248D+00 0.102D+01
 Gap=     0.068 Goal=   None    Shift=    0.000
 RMSDP=1.97D-05 MaxDP=4.92D-03 DE=-3.52D-07 OVMax= 3.55D-04

 Cycle   9  Pass 1  IDiag  1:
 E= -61.8851380758215     Delta-E=       -0.000000190071 Rises=F Damp=F
 DIIS: error= 2.67D-05 at cycle   9 NSaved=   9.
 NSaved= 9 IEnMin= 9 EnMin= -61.8851380758215     IErMin= 9 ErrMin= 2.67D-05
 ErrMax= 2.67D-05  0.00D+00 EMaxC= 1.00D-01 BMatC= 7.14D-08 BMatP= 1.31D-07
 IDIUse=1 WtCom= 1.00D+00 WtEn= 0.00D+00
 Coeff-Com:  0.673D+00-0.769D+00 0.109D+00 0.561D-02 0.214D-01-0.480D-01
 Coeff-Com: -0.176D+00-0.273D+00 0.146D+01
 Coeff:      0.673D+00-0.769D+00 0.109D+00 0.561D-02 0.214D-01-0.480D-01
 Coeff:     -0.176D+00-0.273D+00 0.146D+01
 Gap=     0.068 Goal=   None    Shift=    0.000
 RMSDP=1.77D-05 MaxDP=4.05D-03 DE=-1.90D-07 OVMax= 3.98D-04

 Cycle  10  Pass 1  IDiag  1:
 E= -61.8851382205531     Delta-E=       -0.000000144732 Rises=F Damp=F
 DIIS: error= 1.66D-05 at cycle  10 NSaved=  10.
 NSaved=10 IEnMin=10 EnMin= -61.8851382205531     IErMin=10 ErrMin= 1.66D-05
 ErrMax= 1.66D-05  0.00D+00 EMaxC= 1.00D-01 BMatC= 2.77D-08 BMatP= 7.14D-08
 IDIUse=1 WtCom= 1.00D+00 WtEn= 0.00D+00
 Coeff-Com:  0.385D+00-0.440D+00 0.628D-01-0.829D-02-0.786D-03 0.572D-01
 Coeff-Com:  0.108D+00-0.694D+00 0.296D+00 0.123D+01
 Coeff:      0.385D+00-0.440D+00 0.628D-01-0.829D-02-0.786D-03 0.572D-01
 Coeff:      0.108D+00-0.694D+00 0.296D+00 0.123D+01
 Gap=     0.068 Goal=   None    Shift=    0.000
 RMSDP=1.40D-05 MaxDP=3.42D-03 DE=-1.45D-07 OVMax= 2.75D-04

 Cycle  11  Pass 1  IDiag  1:
 E= -61.8851382813242     Delta-E=       -0.000000060771 Rises=F Damp=F
 DIIS: error= 9.47D-06 at cycle  11 NSaved=  11.
 NSaved=11 IEnMin=11 EnMin= -61.8851382813242     IErMin=11 ErrMin= 9.47D-06
 ErrMax= 9.47D-06  0.00D+00 EMaxC= 1.00D-01 BMatC= 9.07D-09 BMatP= 2.77D-08
 IDIUse=1 WtCom= 1.00D+00 WtEn= 0.00D+00
 Coeff-Com:  0.106D+00-0.121D+00 0.177D-01-0.862D-02-0.921D-02 0.350D-01
 Coeff-Com:  0.139D+00-0.291D+00-0.278D+00 0.195D-01 0.139D+01
 Coeff:      0.106D+00-0.121D+00 0.177D-01-0.862D-02-0.921D-02 0.350D-01
 Coeff:      0.139D+00-0.291D+00-0.278D+00 0.195D-01 0.139D+01
 Gap=     0.068 Goal=   None    Shift=    0.000
 RMSDP=1.30D-05 MaxDP=3.08D-03 DE=-6.08D-08 OVMax= 2.62D-04

 Cycle  12  Pass 1  IDiag  1:
 E= -61.8851383084534     Delta-E=       -0.000000027129 Rises=F Damp=F
 DIIS: error= 2.68D-06 at cycle  12 NSaved=  12.
 NSaved=12 IEnMin=12 EnMin= -61.8851383084534     IErMin=12 ErrMin= 2.68D-06
 ErrMax= 2.68D-06  0.00D+00 EMaxC= 1.00D-01 BMatC= 7.11D-10 BMatP= 9.07D-09
 IDIUse=1 WtCom= 1.00D+00 WtEn= 0.00D+00
 Coeff-Com:  0.107D+00-0.122D+00 0.172D-01 0.154D-02 0.276D-02-0.362D-01
 Coeff-Com: -0.419D-01 0.199D+00 0.248D+00-0.566D+00-0.938D-01 0.128D+01
 Coeff:      0.107D+00-0.122D+00 0.172D-01 0.154D-02 0.276D-02-0.362D-01
 Coeff:     -0.419D-01 0.199D+00 0.248D+00-0.566D+00-0.938D-01 0.128D+01
 Gap=     0.068 Goal=   None    Shift=    0.000
 RMSDP=3.55D-07 MaxDP=1.03D-04 DE=-2.71D-08 OVMax= 9.51D-06

 Cycle  13  Pass 1  IDiag  1:
 E= -61.8851383085800     Delta-E=       -0.000000000127 Rises=F Damp=F
 DIIS: error= 2.60D-06 at cycle  13 NSaved=  13.
 NSaved=13 IEnMin=13 EnMin= -61.8851383085800     IErMin=13 ErrMin= 2.60D-06
 ErrMax= 2.60D-06  0.00D+00 EMaxC= 1.00D-01 BMatC= 6.89D-10 BMatP= 7.11D-10
 IDIUse=1 WtCom= 1.00D+00 WtEn= 0.00D+00
 Coeff-Com: -0.421D-02 0.481D-02-0.716D-03 0.682D-03 0.103D-02 0.155D-03
 Coeff-Com: -0.115D-01-0.135D-01 0.270D-01 0.212D-01-0.413D+00 0.170D+00
 Coeff-Com:  0.122D+01
 Coeff:     -0.421D-02 0.481D-02-0.716D-03 0.682D-03 0.103D-02 0.155D-03
 Coeff:     -0.115D-01-0.135D-01 0.270D-01 0.212D-01-0.413D+00 0.170D+00
 Coeff:      0.122D+01
 Gap=     0.068 Goal=   None    Shift=    0.000
 RMSDP=5.16D-06 MaxDP=1.23D-03 DE=-1.27D-10 OVMax= 1.04D-04

 Cycle  14  Pass 1  IDiag  1:
 E= -61.8851383108031     Delta-E=       -0.000000002223 Rises=F Damp=F
 DIIS: error= 1.00D-07 at cycle  14 NSaved=  14.
 NSaved=14 IEnMin=14 EnMin= -61.8851383108031     IErMin=14 ErrMin= 1.00D-07
 ErrMax= 1.00D-07  0.00D+00 EMaxC= 1.00D-01 BMatC= 1.06D-12 BMatP= 6.89D-10
 IDIUse=1 WtCom= 1.00D+00 WtEn= 0.00D+00
 Large coefficients: NSaved= 14 BigCof=    0.00 CofMax=   10.00 Det=-3.35D-14
 Inversion failed.  Reducing to 13 matrices.
 Coeff-Com:  0.515D-10-0.312D-05 0.320D-04 0.137D-03 0.131D-02-0.720D-03
 Coeff-Com: -0.117D-01 0.257D-02 0.386D-01-0.630D-01-0.379D-01 0.172D+00
 Coeff-Com:  0.899D+00
 Coeff:      0.515D-10-0.312D-05 0.320D-04 0.137D-03 0.131D-02-0.720D-03
 Coeff:     -0.117D-01 0.257D-02 0.386D-01-0.630D-01-0.379D-01 0.172D+00
 Coeff:      0.899D+00
 Gap=     0.068 Goal=   None    Shift=    0.000
 RMSDP=1.88D-07 MaxDP=4.25D-05 DE=-2.22D-09 OVMax= 3.93D-06

 Cycle  15  Pass 1  IDiag  1:
 E= -61.8851383108069     Delta-E=       -0.000000000004 Rises=F Damp=F
 DIIS: error= 2.64D-09 at cycle  15 NSaved=  14.
 NSaved=14 IEnMin=14 EnMin= -61.8851383108069     IErMin=14 ErrMin= 2.64D-09
 ErrMax= 2.64D-09  0.00D+00 EMaxC= 1.00D-01 BMatC= 1.50D-15 BMatP= 1.06D-12
 IDIUse=1 WtCom= 1.00D+00 WtEn= 0.00D+00
 Coeff-Com:  0.385D-10 0.314D-05-0.703D-04-0.926D-04 0.483D-03 0.105D-02
 Coeff-Com: -0.205D-02-0.326D-02 0.959D-02 0.284D-01-0.332D-01-0.864D-01
 Coeff-Com:  0.210D+00 0.876D+00
 Coeff:      0.385D-10 0.314D-05-0.703D-04-0.926D-04 0.483D-03 0.105D-02
 Coeff:     -0.205D-02-0.326D-02 0.959D-02 0.284D-01-0.332D-01-0.864D-01
 Coeff:      0.210D+00 0.876D+00
 Gap=     0.068 Goal=   None    Shift=    0.000
 RMSDP=3.51D-09 MaxDP=7.55D-07 DE=-3.77D-12 OVMax= 2.44D-07

 SCF Done:  E(ROHF) =  -61.8851383108     A.U. after   15 cycles
            NFock= 15  Conv=0.35D-08     -V/T= 2.8997
 <Sx>= 0.0000 <Sy>= 0.0000 <Sz>= 0.5000 <S**2>= 0.7500 S= 0.5000
 <L.S>=  0.00000000000    
 KE= 3.257547576744D+01 PE=-1.896621666695D+02 EE= 6.833563265226D+01
 Annihilation of the first spin contaminant:
 S**2 before annihilation     0.7500,   after     0.7500
 Leave Link  502 at Tue Feb 20 22:35:15 2018, MaxMem= 10737418240 cpu:            2218.5 elap:              82.8
 (Enter /home1/apps/gaussian/16rA.03/g16/l801.exe)
 Windowed orbitals will be sorted by symmetry type.
 GenMOA:  NOpAll=  4 NOp2=4 NOpUse=  4 JSym2X=1
 FoFJK:  IHMeth= 1 ICntrl=       0 DoSepK=F KAlg= 0 I1Cent=           0 FoldK=F
 IRaf=         0 NMat=       1 IRICut=       1 DoRegI=T DoRafI=F ISym2E= 1 IDoP0=0 IntGTp=1.
 FoFCou: FMM=F IPFlag=           8 FMFlag=      100000 FMFlg1=           0
         NFxFlg=           0 DoJE=F BraDBF=F KetDBF=F FulRan=T
         wScrn=  0.000000 ICntrl=         0 IOpCl=  1 I1Cent=           0 NGrid=           0
         NMat0=    1 NMatS0=      1 NMatT0=    0 NMatD0=    1 NMtDS0=    0 NMtDT0=    0
 Petite list used in FoFCou.
 <Sx>= 0.0000 <Sy>= 0.0000 <Sz>= 0.5000 <S**2>= 0.7500 S= 0.5000
 Range of M.O.s used for correlation:     1   383
 NBasis=   384 NAE=     9 NBE=     8 NFC=     0 NFV=     0
 NROrb=    383 NOA=     9 NOB=     8 NVA=   374 NVB=   375

 **** Warning!!: The largest alpha MO coefficient is  0.31000825D+03


 **** Warning!!: The largest beta MO coefficient is  0.30998663D+03

 Singles contribution to E2=   -0.1162409500D-03
 Leave Link  801 at Tue Feb 20 22:35:37 2018, MaxMem= 10737418240 cpu:             682.6 elap:              21.4
 (Enter /home1/apps/gaussian/16rA.03/g16/l804.exe)
 Open-shell transformation, MDV= 10737418240 ITran=4 ISComp=2.
 Unit  1 TFree=       4459710 TCopy=       3230129.
 Semi-Direct transformation.
 ModeAB=           4 MOrb=             9 LenV=   10733045566
 LASXX=     63702177 LTotXX=    63702177 LenRXX=   128059521
 LTotAB=    64357344 MaxLAS=   424339488 LenRXY=           0
 NonZer=   191761698 LenScr=   288771072 LnRSAI=   424339488
 LnScr1=   639005696 LExtra=    17918598 Total=   1498094375
 MaxDsk= 67108864000 SrtSym=           T ITran=            4
 DoSDTr:  NPSUse= 32
 JobTyp=1 Pass  1:  I=   1 to   9.
 (rs|ai) integrals will be sorted in core.
 Complete sort for first half transformation.
 First half transformation complete.
 Complete sort for second half transformation.
 Second half transformation complete.
 ModeAB=           4 MOrb=             8 LenV=   10733045566
 LASXX=     56573606 LTotXX=    56573606 LenRXX=   111007430
 LTotAB=    54433824 MaxLAS=   377190656 LenRXY=           0
 NonZer=   167581036 LenScr=   252357632 LnRSAI=   377190656
 LnScr1=   568005632 LExtra=   145978119 Total=   1454539469
 MaxDsk= 67108864000 SrtSym=           T ITran=            4
 DoSDTr:  NPSUse= 32
 JobTyp=2 Pass  1:  I=   1 to   8.
 (rs|ai) integrals will be sorted in core.
 Complete sort for first half transformation.
 First half transformation complete.
 Complete sort for second half transformation.
 Second half transformation complete.
 Spin components of T(2) and E(2):
     alpha-alpha T2 =       0.2475422087D-01 E2=     -0.9657086802D-01
     alpha-beta  T2 =       0.1068383329D+00 E2=     -0.5133274775D+00
     beta-beta   T2 =       0.2110291085D-01 E2=     -0.8861745743D-01
 ANorm=    0.1073685438D+01
 E2 =    -0.6986320439D+00 EUMP2 =    -0.62583770354741D+02
 (S**2,0)=  0.75000D+00           (S**2,1)=  0.75000D+00
 E(PUHF)=      -0.61885138311D+02        E(PMP2)=      -0.62583770355D+02
 Recovering and transforming amplitudes from chk file.
 B after Tr=     0.000000    0.000000    0.000000
         Rot=    1.000000    0.000000    0.000000    0.000000 Ang=   0.00 deg.
 Alpha occ  Sing. vals= 9.999991D-01 9.999974D-01 9.999970D-01 9.999963D-01 9.999963D-01 9.999944D-01 9.999666D-01 9.999611D-01 9.999611D-01
 Alpha occ  NOrbO=     9 NOrbN=     9 NSVal=     9 ThrEig=  0.900000.
 TrMax= 1.000000D+00 PrMax= 1.000000D+00 Trace(Pr)= 9.000000D+00
 B after Tr=     0.000000    0.000000    0.000000
         Rot=    1.000000    0.000000    0.000000    0.000000 Ang=   0.00 deg.
 Alpha virt Sing. vals= 1.000000D+00 1.000000D+00 1.000000D+00 1.000000D+00 1.000000D+00 1.000000D+00 1.000000D+00 1.000000D+00 1.000000D+00 1.000000D+00
 Alpha virt Sing. vals= 1.000000D+00 1.000000D+00 1.000000D+00 1.000000D+00 1.000000D+00 1.000000D+00 1.000000D+00 1.000000D+00 1.000000D+00 1.000000D+00
 Alpha virt Sing. vals= 1.000000D+00 1.000000D+00 1.000000D+00 1.000000D+00 1.000000D+00 1.000000D+00 1.000000D+00 1.000000D+00 1.000000D+00 1.000000D+00
 Alpha virt Sing. vals= 1.000000D+00 1.000000D+00 1.000000D+00 1.000000D+00 9.999999D-01 9.999999D-01 9.999999D-01 9.999999D-01 9.999999D-01 9.999999D-01
 Alpha virt Sing. vals= 9.999999D-01 9.999999D-01 9.999998D-01 9.999997D-01 9.999997D-01 9.999996D-01 9.999995D-01 9.999992D-01 9.999991D-01 9.999991D-01
 Alpha virt Sing. vals= 9.999991D-01 9.999990D-01 9.999990D-01 9.999990D-01 9.999987D-01 9.999978D-01 9.999977D-01 9.999977D-01 9.999973D-01 9.999963D-01
 Alpha virt Sing. vals= 9.999963D-01 9.999950D-01 9.999950D-01 9.999950D-01 9.999942D-01 9.999935D-01 9.999931D-01 9.999931D-01 9.999923D-01 9.999923D-01
 Alpha virt Sing. vals= 9.999908D-01 9.999907D-01 9.999907D-01 9.999906D-01 9.999906D-01 9.999904D-01 9.999889D-01 9.999867D-01 9.999867D-01 9.999866D-01
 Alpha virt Sing. vals= 9.999806D-01 9.999773D-01 9.999773D-01 9.999709D-01 9.999658D-01 9.999632D-01 9.999632D-01 9.999607D-01 9.999487D-01 9.999487D-01
 Alpha virt Sing. vals= 9.999439D-01 9.999280D-01 9.999221D-01 9.998911D-01 9.998911D-01 9.998890D-01 9.998890D-01 9.998551D-01 9.998535D-01 9.998535D-01
 Alpha virt Sing. vals= 9.998166D-01 9.998072D-01 9.998072D-01 9.998051D-01 9.998023D-01 9.998023D-01 9.997558D-01 9.997407D-01 9.997407D-01 9.997407D-01
 Alpha virt Sing. vals= 9.996890D-01 9.996890D-01 9.996057D-01 9.995823D-01 9.995626D-01 9.995626D-01 9.995583D-01 9.995583D-01 9.995261D-01 9.994640D-01
 Alpha virt Sing. vals= 9.993801D-01 9.993801D-01 9.993667D-01 9.993071D-01 9.993071D-01 9.992197D-01 9.992197D-01 9.991391D-01 9.991391D-01 9.990700D-01
 Alpha virt Sing. vals= 9.990700D-01 9.990332D-01 9.990332D-01 9.989075D-01 9.988181D-01 9.987787D-01 9.987787D-01 9.987768D-01 9.987768D-01 9.986787D-01
 Alpha virt Sing. vals= 9.985123D-01 9.985123D-01 9.984088D-01 9.983867D-01 9.983867D-01 9.982057D-01 9.982057D-01 9.980951D-01 9.980951D-01 9.979417D-01
 Alpha virt Sing. vals= 9.978884D-01 9.978884D-01 9.977920D-01 9.974961D-01 9.974961D-01 9.973534D-01 9.972508D-01 9.972508D-01 9.971404D-01 9.965028D-01
 Alpha virt Sing. vals= 9.964904D-01 9.960280D-01 9.952795D-01 9.952795D-01 9.952056D-01 9.952056D-01 9.947381D-01 9.947379D-01 9.947379D-01 9.946682D-01
 Alpha virt Sing. vals= 9.946682D-01 9.946043D-01 9.944368D-01 9.944368D-01 9.940282D-01 9.940282D-01 9.926684D-01 9.926684D-01 9.921450D-01 9.921450D-01
 Alpha virt Sing. vals= 9.914519D-01 9.914519D-01 9.902090D-01 9.900806D-01 9.900806D-01 9.884006D-01 9.883565D-01 9.883565D-01 9.866673D-01 9.866673D-01
 Alpha virt Sing. vals= 9.858557D-01 9.858557D-01 9.857771D-01 9.846181D-01 9.800795D-01 9.787300D-01 9.787300D-01 9.786525D-01 9.786525D-01 9.776087D-01
 Alpha virt Sing. vals= 9.776087D-01 9.774654D-01 9.774654D-01 9.771866D-01 9.771866D-01 9.767267D-01 9.767267D-01 9.757656D-01 9.755195D-01 9.755195D-01
 Alpha virt Sing. vals= 9.707396D-01 9.653174D-01 9.639549D-01 9.639549D-01 9.638300D-01 9.638300D-01 9.430294D-01 9.418267D-01 9.418267D-01 9.415053D-01
 Alpha virt Sing. vals= 9.415053D-01 9.398237D-01 9.398237D-01 9.351094D-01 9.351094D-01 9.351059D-01 9.334509D-01 9.252902D-01 9.211133D-01 9.211133D-01
 Alpha virt Sing. vals= 9.153155D-01 9.153155D-01 9.143140D-01 9.101705D-01 9.101705D-01 9.097240D-01 9.097240D-01 9.057109D-01 9.027494D-01 9.027494D-01
 Alpha virt Sing. vals= 8.944738D-01 8.944738D-01 8.909968D-01 8.909968D-01 8.855520D-01 8.855520D-01 8.668856D-01 5.620752D-01
 Alpha virt NOrbO=   248 NOrbN=   374 NSVal=   240 ThrEig=  0.900000.
 TrMax= 9.987136D-01 PrMax= 9.996465D-01 Trace(Pr)= 2.400000D+02
 B after Tr=     0.000000    0.000000    0.000000
         Rot=    1.000000    0.000000    0.000000    0.000000 Ang=   0.00 deg.
 Beta  occ  Sing. vals= 9.999989D-01 9.999970D-01 9.999963D-01 9.999963D-01 9.999946D-01 9.999667D-01 9.999611D-01 9.999611D-01
 Beta  occ  NOrbO=     8 NOrbN=     8 NSVal=     8 ThrEig=  0.900000.
 TrMax= 1.000000D+00 PrMax= 1.000000D+00 Trace(Pr)= 8.000000D+00
 B after Tr=     0.000000    0.000000    0.000000
         Rot=    1.000000    0.000000    0.000000    0.000000 Ang=   0.00 deg.
 Beta  virt Sing. vals= 1.000000D+00 1.000000D+00 1.000000D+00 1.000000D+00 1.000000D+00 1.000000D+00 1.000000D+00 1.000000D+00 1.000000D+00 1.000000D+00
 Beta  virt Sing. vals= 1.000000D+00 1.000000D+00 1.000000D+00 1.000000D+00 1.000000D+00 1.000000D+00 1.000000D+00 1.000000D+00 1.000000D+00 1.000000D+00
 Beta  virt Sing. vals= 1.000000D+00 1.000000D+00 1.000000D+00 1.000000D+00 1.000000D+00 1.000000D+00 1.000000D+00 1.000000D+00 1.000000D+00 1.000000D+00
 Beta  virt Sing. vals= 1.000000D+00 1.000000D+00 1.000000D+00 1.000000D+00 1.000000D+00 9.999999D-01 9.999999D-01 9.999999D-01 9.999999D-01 9.999999D-01
 Beta  virt Sing. vals= 9.999999D-01 9.999999D-01 9.999999D-01 9.999998D-01 9.999997D-01 9.999997D-01 9.999996D-01 9.999995D-01 9.999992D-01 9.999991D-01
 Beta  virt Sing. vals= 9.999991D-01 9.999991D-01 9.999990D-01 9.999990D-01 9.999990D-01 9.999987D-01 9.999978D-01 9.999977D-01 9.999977D-01 9.999972D-01
 Beta  virt Sing. vals= 9.999963D-01 9.999963D-01 9.999950D-01 9.999950D-01 9.999950D-01 9.999942D-01 9.999934D-01 9.999931D-01 9.999931D-01 9.999923D-01
 Beta  virt Sing. vals= 9.999923D-01 9.999908D-01 9.999907D-01 9.999907D-01 9.999906D-01 9.999906D-01 9.999904D-01 9.999889D-01 9.999867D-01 9.999867D-01
 Beta  virt Sing. vals= 9.999866D-01 9.999806D-01 9.999773D-01 9.999773D-01 9.999709D-01 9.999658D-01 9.999632D-01 9.999632D-01 9.999607D-01 9.999487D-01
 Beta  virt Sing. vals= 9.999487D-01 9.999439D-01 9.999280D-01 9.999221D-01 9.998911D-01 9.998911D-01 9.998890D-01 9.998890D-01 9.998550D-01 9.998535D-01
 Beta  virt Sing. vals= 9.998535D-01 9.998166D-01 9.998072D-01 9.998072D-01 9.998050D-01 9.998023D-01 9.998023D-01 9.997557D-01 9.997407D-01 9.997407D-01
 Beta  virt Sing. vals= 9.997407D-01 9.996890D-01 9.996890D-01 9.996057D-01 9.995823D-01 9.995626D-01 9.995626D-01 9.995583D-01 9.995583D-01 9.995261D-01
 Beta  virt Sing. vals= 9.994640D-01 9.993801D-01 9.993801D-01 9.993666D-01 9.993071D-01 9.993071D-01 9.992197D-01 9.992197D-01 9.991391D-01 9.991391D-01
 Beta  virt Sing. vals= 9.990700D-01 9.990700D-01 9.990332D-01 9.990332D-01 9.989075D-01 9.988181D-01 9.987787D-01 9.987787D-01 9.987768D-01 9.987768D-01
 Beta  virt Sing. vals= 9.986787D-01 9.985123D-01 9.985123D-01 9.984088D-01 9.983867D-01 9.983867D-01 9.982057D-01 9.982057D-01 9.980951D-01 9.980951D-01
 Beta  virt Sing. vals= 9.979417D-01 9.978884D-01 9.978884D-01 9.977920D-01 9.974961D-01 9.974961D-01 9.973534D-01 9.972508D-01 9.972508D-01 9.971404D-01
 Beta  virt Sing. vals= 9.965028D-01 9.964904D-01 9.960280D-01 9.952795D-01 9.952795D-01 9.952056D-01 9.952056D-01 9.947381D-01 9.947379D-01 9.947379D-01
 Beta  virt Sing. vals= 9.946682D-01 9.946682D-01 9.946042D-01 9.944368D-01 9.944368D-01 9.940282D-01 9.940282D-01 9.926684D-01 9.926684D-01 9.921450D-01
 Beta  virt Sing. vals= 9.921450D-01 9.914519D-01 9.914519D-01 9.902089D-01 9.900806D-01 9.900806D-01 9.884007D-01 9.883565D-01 9.883565D-01 9.866673D-01
 Beta  virt Sing. vals= 9.866673D-01 9.858557D-01 9.858557D-01 9.857772D-01 9.846180D-01 9.800795D-01 9.787300D-01 9.787300D-01 9.786525D-01 9.786525D-01
 Beta  virt Sing. vals= 9.776087D-01 9.776087D-01 9.774654D-01 9.774654D-01 9.771866D-01 9.771866D-01 9.767267D-01 9.767267D-01 9.757655D-01 9.755195D-01
 Beta  virt Sing. vals= 9.755195D-01 9.707395D-01 9.653173D-01 9.639549D-01 9.639549D-01 9.638300D-01 9.638300D-01 9.430294D-01 9.418267D-01 9.418267D-01
 Beta  virt Sing. vals= 9.415053D-01 9.415053D-01 9.398237D-01 9.398237D-01 9.351094D-01 9.351094D-01 9.351059D-01 9.334509D-01 9.252903D-01 9.211133D-01
 Beta  virt Sing. vals= 9.211133D-01 9.153155D-01 9.153155D-01 9.143140D-01 9.101705D-01 9.101705D-01 9.097240D-01 9.097240D-01 9.057109D-01 9.027494D-01
 Beta  virt Sing. vals= 9.027494D-01 8.944738D-01 8.944738D-01 8.909968D-01 8.909968D-01 8.855520D-01 8.855520D-01 8.668855D-01 5.620752D-01
 Beta  virt NOrbO=   249 NOrbN=   375 NSVal=   241 ThrEig=  0.900000.
 TrMax= 9.993310D-01 PrMax= 9.998207D-01 Trace(Pr)= 2.410000D+02
 Leave Link  804 at Tue Feb 20 22:46:52 2018, MaxMem= 10737418240 cpu:           21595.2 elap:             675.3
 (Enter /home1/apps/gaussian/16rA.03/g16/l913.exe)
 CIDS:  MDV= 10737418240.
 IFCWin=0 IBDFC=1 NFBD=     0     0 NFCmp=     0     0 NFFFC=     0     0
 Amplitudes recovered.
 Using DD4UQ or CC4UQ for all iterations.
 Keep R2 and R3 ints in memory in symmetry-blocked form, NReq=3425131966.
 FoFCou: FMM=F IPFlag=           8 FMFlag=           0 FMFlg1=           0
         NFxFlg=           0 DoJE=F BraDBF=F KetDBF=F FulRan=T
         wScrn=  0.000000 ICntrl=       600 IOpCl=  0 I1Cent=           0 NGrid=           0
         NMat0=    1 NMatS0=  73920 NMatT0=    0 NMatD0=    1 NMtDS0=    0 NMtDT0=    0
 Petite list used in FoFCou.
 CIDS: In Core Option IDoMem=           1.
 CCSD(T)
 =======
 Iterations= 150 Convergence= 0.100D-06
 Produce multiple copies of IABC intergrals
 Iteration Nr.   1
 **********************
 DD1Dir will call FoFMem   1 times, MxPair=       208
 NAB=    72 NAA=    36 NBB=    28.
 Maximum subspace dimension=  5
 A-vector RMS=  1.1644768D-04 Max=  9.5614739D-04 conv= 1.00D-05.
 RLE energy=       -0.6932025003
 DE(Corr)= -0.69315230     E(Corr)=     -62.578290608    
 NORM(A)=   0.10795255D+01
 Iteration Nr.   2
 **********************
 DD1Dir will call FoFMem   1 times, MxPair=       208
 NAB=    72 NAA=    36 NBB=    28.
 A-vector RMS=  4.1227928D-05 Max=  3.2754324D-04 conv= 1.00D-05.
 RLE energy=       -0.6933877150
 DE(Corr)= -0.69338670     E(CORR)=     -62.578525011     Delta=-2.34D-04
 NORM(A)=   0.10796346D+01
 Iteration Nr.   3
 **********************
 DD1Dir will call FoFMem   1 times, MxPair=       208
 NAB=    72 NAA=    36 NBB=    28.
 A-vector RMS=  1.8119044D-05 Max=  2.0458508D-04 conv= 1.00D-05.
 RLE energy=       -0.6935485191
 DE(Corr)= -0.69354288     E(CORR)=     -62.578681189     Delta=-1.56D-04
 NORM(A)=   0.10796960D+01
 Iteration Nr.   4
 **********************
 DD1Dir will call FoFMem   1 times, MxPair=       208
 NAB=    72 NAA=    36 NBB=    28.
 A-vector RMS=  1.0211471D-05 Max=  9.8707890D-05 conv= 1.00D-05.
 RLE energy=       -0.6935147695
 DE(Corr)= -0.69350205     E(CORR)=     -62.578640363     Delta= 4.08D-05
 NORM(A)=   0.10797179D+01
 Iteration Nr.   5
 **********************
 DD1Dir will call FoFMem   1 times, MxPair=       208
 NAB=    72 NAA=    36 NBB=    28.
 A-vector RMS=  4.3058623D-06 Max=  7.8769416D-05 conv= 1.00D-05.
 RLE energy=       -0.6935241963
 DE(Corr)= -0.69352644     E(CORR)=     -62.578664751     Delta=-2.44D-05
 NORM(A)=   0.10797402D+01
 Iteration Nr.   6
 **********************
 DD1Dir will call FoFMem   1 times, MxPair=       208
 NAB=    72 NAA=    36 NBB=    28.
 A-vector RMS=  1.6855032D-06 Max=  3.1135066D-05 conv= 1.00D-05.
 RLE energy=       -0.6935245654
 DE(Corr)= -0.69352348     E(CORR)=     -62.578661792     Delta= 2.96D-06
 NORM(A)=   0.10797499D+01
 Iteration Nr.   7
 **********************
 DD1Dir will call FoFMem   1 times, MxPair=       208
 NAB=    72 NAA=    36 NBB=    28.
 A-vector RMS=  7.4150525D-07 Max=  1.6585792D-05 conv= 1.00D-05.
 RLE energy=       -0.6935267011
 DE(Corr)= -0.69352654     E(CORR)=     -62.578664851     Delta=-3.06D-06
 NORM(A)=   0.10797539D+01
 Iteration Nr.   8
 **********************
 DD1Dir will call FoFMem   1 times, MxPair=       208
 NAB=    72 NAA=    36 NBB=    28.
 A-vector RMS=  2.9185715D-07 Max=  6.0461830D-06 conv= 1.00D-05.
 RLE energy=       -0.6935265331
 DE(Corr)= -0.69352635     E(CORR)=     -62.578664661     Delta= 1.90D-07
 NORM(A)=   0.10797557D+01
 Iteration Nr.   9
 **********************
 DD1Dir will call FoFMem   1 times, MxPair=       208
 NAB=    72 NAA=    36 NBB=    28.
 A-vector RMS=  1.2328948D-07 Max=  1.7461250D-06 conv= 1.00D-05.
 RLE energy=       -0.6935269478
 DE(Corr)= -0.69352690     E(CORR)=     -62.578665207     Delta=-5.46D-07
 NORM(A)=   0.10797563D+01
 Iteration Nr.  10
 **********************
 DD1Dir will call FoFMem   1 times, MxPair=       208
 NAB=    72 NAA=    36 NBB=    28.
 A-vector RMS=  5.3906477D-08 Max=  8.8541328D-07 conv= 1.00D-05.
 RLE energy=       -0.6935268847
 DE(Corr)= -0.69352685     E(CORR)=     -62.578665159     Delta= 4.84D-08
 NORM(A)=   0.10797564D+01
 CI/CC converged in   10 iterations to DelEn= 4.84D-08 Conv= 1.00D-07 ErrA1= 5.39D-08 Conv= 1.00D-05
 Wavefunction amplitudes converged. E(Corr)=     -62.578665159    
 Largest amplitude= 4.95D-02
 Time for triples=    77521.34 seconds.
 T4(CCSD)= -0.33781298D-01
 T5(CCSD)=  0.22765208D-02
 CCSD(T)= -0.62610169936D+02
 Discarding MO integrals.
 Leave Link  913 at Tue Feb 20 23:35:09 2018, MaxMem= 10737418240 cpu:           92637.0 elap:            2896.9
 (Enter /home1/apps/gaussian/16rA.03/g16/l601.exe)
 Copying SCF densities to generalized density rwf, IOpCl= 0 IROHF=1.

 **********************************************************************

            Population analysis using the SCF density.

 **********************************************************************

 Orbital symmetries:
       Occupied  (SG) (SG) (PI) (PI) (SG) (PI) (PI) (SG) (SG)
       Virtual   (PI) (PI) (SG) (SG) (DLTA) (DLTA) (PI) (PI) (SG)
                 (PI) (PI) (SG) (DLTA) (DLTA) (SG) (PI) (PI) (SG)
                 (PI) (PI) (SG) (PHI) (PHI) (DLTA) (DLTA) (PI)
                 (PI) (DLTA) (DLTA) (SG) (SG) (PI) (PI) (PI) (PI)
                 (SG) (DLTA) (DLTA) (SG) (DLTA) (DLTA) (PI) (PI)
                 (SG) (PI) (PI) (?A) (?A) (PHI) (PHI) (SG) (DLTA)
                 (DLTA) (SG) (PHI) (PHI) (PI) (PI) (PI) (PI) (SG)
                 (PI) (PI) (DLTA) (DLTA) (SG) (PHI) (PHI) (DLTA)
                 (DLTA) (?B) (?B) (PI) (PI) (?A) (?A) (SG) (SG)
                 (DLTA) (DLTA) (PI) (PI) (SG) (SG) (PI) (PI) (SG)
                 (PI) (PI) (DLTA) (DLTA) (PHI) (PHI) (?A) (?A)
                 (PI) (PI) (PHI) (PHI) (SG) (DLTA) (DLTA) (SG)
                 (PI) (PI) (DLTA) (DLTA) (PI) (PI) (SG) (SG) (DLTA)
                 (DLTA) (PHI) (PHI) (PI) (PI) (SG) (SG) (DLTA)
                 (DLTA) (PI) (PI) (SG) (PI) (PI) (?A) (?A) (?B)
                 (?B) (SG) (DLTA) (DLTA) (PHI) (PHI) (PI) (PI)
                 (DLTA) (DLTA) (PI) (PI) (SG) (SG) (PI) (PI) (DLTA)
                 (DLTA) (SG) (PHI) (PHI) (PHI) (PHI) (?A) (?A)
                 (PI) (PI) (SG) (DLTA) (DLTA) (SG) (?A) (?A) (PHI)
                 (PHI) (PI) (PI) (DLTA) (DLTA) (DLTA) (DLTA) (SG)
                 (PI) (PI) (PHI) (PHI) (SG) (SG) (PI) (PI) (PI)
                 (PI) (DLTA) (DLTA) (SG) (DLTA) (DLTA) (SG) (PI)
                 (PI) (SG) (PI) (PI) (SG) (PHI) (PHI) (DLTA) (DLTA)
                 (SG) (PI) (PI) (SG) (PI) (PI) (DLTA) (DLTA) (PI)
                 (PI) (?A) (?A) (PHI) (PHI) (SG) (PI) (PI) (DLTA)
                 (DLTA) (SG) (PI) (PI) (?B) (?B) (?A) (?A) (PHI)
                 (PHI) (?A) (?A) (PHI) (PHI) (SG) (DLTA) (DLTA)
                 (PHI) (PHI) (DLTA) (DLTA) (SG) (PI) (PI) (PI)
                 (PI) (DLTA) (DLTA) (SG) (DLTA) (DLTA) (PI) (PI)
                 (SG) (SG) (PI) (PI) (SG) (SG) (DLTA) (DLTA) (PI)
                 (PI) (SG) (PI) (PI) (SG) (PI) (PI) (SG) (SG) (PI)
                 (PI) (SG) (DLTA) (DLTA) (PI) (PI) (SG) (SG) (DLTA)
                 (DLTA) (PI) (PI) (SG) (PI) (PI) (SG) (SG) (SG)
                 (PI) (PI) (SG) (DLTA) (DLTA) (PI) (PI) (SG) (PI)
                 (PI) (SG) (SG) (PHI) (PHI) (DLTA) (DLTA) (PI)
                 (PI) (SG) (SG) (PI) (PI) (SG) (PI) (PI) (SG) (SG)
                 (DLTA) (DLTA) (PI) (PI) (SG) (DLTA) (DLTA) (PI)
                 (PI) (SG) (SG) (PI) (PI) (PI) (PI) (SG) (SG) (SG)
                 (SG) (SG) (SG) (DLTA) (DLTA) (PI) (PI) (SG) (PI)
                 (PI) (SG) (PI) (PI) (SG) (SG) (SG) (PI) (PI) (SG)
                 (SG) (SG) (PI) (PI) (SG) (SG) (SG) (PI) (PI) (SG)
                 (SG) (PI) (PI) (SG) (SG) (SG) (PI) (PI) (SG) (SG)
                 (SG) (SG) (SG) (SG) (SG)
 The electronic state is 2-SG.
 Alpha  occ. eigenvalues --   -2.63529  -1.75906  -1.52069  -1.52069  -1.06625
 Alpha  occ. eigenvalues --   -0.57742  -0.57742  -0.46873  -0.19461
 Alpha virt. eigenvalues --    0.00947   0.00947   0.01884   0.02294   0.02810
 Alpha virt. eigenvalues --    0.02810   0.02894   0.02894   0.02895   0.04169
 Alpha virt. eigenvalues --    0.04169   0.06552   0.08077   0.08077   0.08557
 Alpha virt. eigenvalues --    0.08947   0.08947   0.10922   0.11322   0.11337
 Alpha virt. eigenvalues --    0.11337   0.12711   0.12711   0.12942   0.12942
 Alpha virt. eigenvalues --    0.14581   0.14581   0.16026   0.16026   0.17251
 Alpha virt. eigenvalues --    0.20227   0.22849   0.22849   0.27004   0.27004
 Alpha virt. eigenvalues --    0.27453   0.30080   0.30080   0.33095   0.33622
 Alpha virt. eigenvalues --    0.33622   0.33784   0.33784   0.33796   0.35969
 Alpha virt. eigenvalues --    0.35969   0.36076   0.36076   0.36604   0.36604
 Alpha virt. eigenvalues --    0.42882   0.44237   0.44263   0.44263   0.45366
 Alpha virt. eigenvalues --    0.45366   0.48609   0.48609   0.55793   0.55793
 Alpha virt. eigenvalues --    0.57645   0.65074   0.65074   0.65494   0.65494
 Alpha virt. eigenvalues --    0.72439   0.72742   0.72742   0.72967   0.72967
 Alpha virt. eigenvalues --    0.73315   0.73315   0.73779   0.73779   0.74034
 Alpha virt. eigenvalues --    0.74034   0.76796   0.77461   0.78474   0.78474
 Alpha virt. eigenvalues --    0.78886   0.78886   0.86143   1.07214   1.19314
 Alpha virt. eigenvalues --    1.19314   1.21155   1.22127   1.22127   1.25791
 Alpha virt. eigenvalues --    1.25791   1.28040   1.28040   1.28453   1.28453
 Alpha virt. eigenvalues --    1.40448   1.40448   1.41651   1.41651   1.43657
 Alpha virt. eigenvalues --    1.46035   1.46035   1.52444   1.54271   1.54271
 Alpha virt. eigenvalues --    1.55110   1.55110   1.62678   1.62678   1.65001
 Alpha virt. eigenvalues --    1.74547   1.78336   1.78336   1.81257   1.81257
 Alpha virt. eigenvalues --    2.18069   2.18069   2.20347   2.29522   2.34287
 Alpha virt. eigenvalues --    2.34287   2.46726   2.46726   2.63369   2.86922
 Alpha virt. eigenvalues --    2.86922   2.94254   2.94254   2.95146   2.95146
 Alpha virt. eigenvalues --    3.00519   3.10349   3.10349   3.12405   3.12405
 Alpha virt. eigenvalues --    3.13121   3.13121   3.15285   3.15285   3.19906
 Alpha virt. eigenvalues --    3.19906   3.31071   3.39457   3.64544   3.64544
 Alpha virt. eigenvalues --    3.74980   3.74980   3.81094   3.86460   3.86460
 Alpha virt. eigenvalues --    3.86579   3.86579   3.86938   3.86938   4.00357
 Alpha virt. eigenvalues --    4.00357   4.23044   4.30702   4.30702   4.30746
 Alpha virt. eigenvalues --    4.30836   4.30836   4.31342   4.31342   4.35721
 Alpha virt. eigenvalues --    4.35721   4.57014   4.57014   4.78507   4.78507
 Alpha virt. eigenvalues --    4.79728   4.86081   4.86081   5.00206   5.00206
 Alpha virt. eigenvalues --    5.37862   5.76173   5.81784   5.81784   6.00617
 Alpha virt. eigenvalues --    6.00617   6.10311   6.10356   6.10356   6.16234
 Alpha virt. eigenvalues --    6.16234   6.24646   6.27422   6.27422   6.77867
 Alpha virt. eigenvalues --    6.79221   6.79221   7.78407   9.66101   9.66101
 Alpha virt. eigenvalues --    9.94255   9.94255   9.94612   9.96166   9.96166
 Alpha virt. eigenvalues --   10.35894  10.36202  10.36202  10.47115  10.47115
 Alpha virt. eigenvalues --   10.60119  10.60119  10.68229  10.68229  10.74075
 Alpha virt. eigenvalues --   10.74075  10.91666  11.06562  11.06562  11.09043
 Alpha virt. eigenvalues --   11.09043  11.16846  11.31207  11.31207  11.46432
 Alpha virt. eigenvalues --   11.46432  11.47780  11.47780  11.62020  11.62020
 Alpha virt. eigenvalues --   11.64257  11.64257  11.72869  11.72869  11.79904
 Alpha virt. eigenvalues --   11.98634  11.98634  12.05244  12.05244  12.16868
 Alpha virt. eigenvalues --   12.16868  12.22843  12.30221  12.30221  12.68254
 Alpha virt. eigenvalues --   12.68254  12.69658  12.69658  12.84194  12.97933
 Alpha virt. eigenvalues --   12.97933  13.01892  13.01892  13.76337  14.31362
 Alpha virt. eigenvalues --   15.15995  15.15995  15.73190  16.53139  19.27090
 Alpha virt. eigenvalues --   19.27090  19.37571  19.37571  19.48476  19.51252
 Alpha virt. eigenvalues --   19.51252  20.46957  28.48605  28.48605  29.28644
 Alpha virt. eigenvalues --   29.90461  33.13379  33.13379  33.51296  34.82152
 Alpha virt. eigenvalues --   34.82152  34.91022  34.91022  35.00047  35.39753
 Alpha virt. eigenvalues --   46.80733  46.80733  47.41521  47.41521  48.64744
 Alpha virt. eigenvalues --   55.85821  55.85821  56.18531  56.95613  68.25955
 Alpha virt. eigenvalues --   69.88814  69.88814  71.15339  75.11259  75.11259
 Alpha virt. eigenvalues --   75.18343  75.18343  75.44944  96.49369  96.49369
 Alpha virt. eigenvalues --   96.82352 100.20390 102.94823 102.94823 102.97616
 Alpha virt. eigenvalues --  102.97616 103.02220 103.02220 103.13153 121.69104
 Alpha virt. eigenvalues --  154.64219 154.64219 155.66692 173.29959 173.29959
 Alpha virt. eigenvalues --  173.61071 176.49213 196.07952 196.07952 196.13294
 Alpha virt. eigenvalues --  196.13294 196.33523 206.75474 206.75474 207.07762
 Alpha virt. eigenvalues --  207.07762 207.73337 210.17237 324.72304 324.72304
 Alpha virt. eigenvalues --  324.86123 324.86123 324.95511 325.36393 325.80853
 Alpha virt. eigenvalues --  358.16593 612.31617 624.62540 631.20515 631.20515
 Alpha virt. eigenvalues --  631.24007 631.24007 631.36408 637.37994 637.37994
 Alpha virt. eigenvalues --  637.66624 691.09321 691.09321 691.948101090.20910
 Alpha virt. eigenvalues -- 1249.281171320.867561320.867561321.121382262.53820
 Alpha virt. eigenvalues -- 2607.786922930.249162930.249162930.475545695.65771
 Alpha virt. eigenvalues -- 6141.196897136.605337136.605337136.80135**********
 Alpha virt. eigenvalues -- **************************************************
 Alpha virt. eigenvalues -- **************************************************
 Alpha virt. eigenvalues -- ****************************************
     Molecular Orbital Coefficients:
                           4         5         6         7         8
                           O         O         O         O         O
     Eigenvalues --    -1.52069  -1.06625  -0.57742  -0.57742  -0.46873
   1 1   Sc 1S          0.00000   0.00000   0.00000   0.00000   0.00000
   2        2S          0.00000  -0.00000   0.00000   0.00000  -0.00000
   3        3S          0.00000   0.00000   0.00000   0.00000   0.00000
   4        4S          0.00000  -0.00000   0.00000   0.00000  -0.00000
   5        5S          0.00000   0.00000   0.00000   0.00000   0.00000
   6        6S          0.00000  -0.00000   0.00000   0.00000  -0.00000
   7        7S          0.00000   0.00001   0.00000   0.00000   0.00001
   8        8S          0.00000  -0.00002   0.00000   0.00000  -0.00002
   9        9S          0.00000   0.00006   0.00000   0.00000   0.00005
  10       10S          0.00000  -0.00016   0.00000   0.00000  -0.00016
  11       11S          0.00000   0.00043   0.00000   0.00000   0.00042
  12       12S          0.00000  -0.00111   0.00000   0.00000  -0.00107
  13       13S          0.00000   0.00278   0.00000   0.00000   0.00268
  14       14S          0.00000  -0.00797   0.00000   0.00000  -0.00784
  15       15S          0.00000  -0.01069   0.00000   0.00000  -0.00739
  16       16S          0.00000   0.20420   0.00000   0.00000   0.17520
  17       17S          0.00000  -0.01900   0.00000   0.00000  -0.02293
  18       18S          0.00000  -0.14757   0.00000   0.00000  -0.12315
  19       19S          0.00000  -0.06941   0.00000   0.00000  -0.11123
  20       20S          0.00000  -0.03392   0.00000   0.00000  -0.10334
  21       21S          0.00000  -0.02631   0.00000   0.00000  -0.03400
  22       22S          0.00000   0.00210   0.00000   0.00000   0.00839
  23       23S          0.00000  -0.14064   0.00000   0.00000  -0.11370
  24       24S          0.00000   0.01024   0.00000   0.00000  -0.00058
  25       25S          0.00000  -0.00033   0.00000   0.00000  -0.00044
  26       26PX         0.00000   0.00000   0.00000  -0.00000   0.00000
  27       26PY         0.00000   0.00000  -0.00000   0.00000   0.00000
  28       26PZ         0.00000   0.00000   0.00000   0.00000   0.00000
  29       27PX        -0.00000   0.00000   0.00000   0.00000   0.00000
  30       27PY         0.00000   0.00000   0.00000   0.00000   0.00000
  31       27PZ         0.00000  -0.00000   0.00000   0.00000  -0.00000
  32       28PX         0.00000   0.00000   0.00000  -0.00000   0.00000
  33       28PY         0.00000   0.00000  -0.00000   0.00000   0.00000
  34       28PZ         0.00000   0.00000   0.00000   0.00000   0.00000
  35       29PX        -0.00001   0.00000   0.00000   0.00000   0.00000
  36       29PY         0.00000   0.00000   0.00000   0.00000   0.00000
  37       29PZ         0.00000  -0.00000   0.00000   0.00000  -0.00000
  38       30PX         0.00002   0.00000   0.00000  -0.00001   0.00000
  39       30PY         0.00000   0.00000  -0.00001   0.00000   0.00000
  40       30PZ         0.00000   0.00001   0.00000   0.00000   0.00001
  41       31PX        -0.00008   0.00000   0.00000   0.00002   0.00000
  42       31PY         0.00000   0.00000   0.00002   0.00000   0.00000
  43       31PZ         0.00000  -0.00004   0.00000   0.00000  -0.00002
  44       32PX         0.00025   0.00000   0.00000  -0.00007   0.00000
  45       32PY         0.00000   0.00000  -0.00007   0.00000   0.00000
  46       32PZ         0.00000   0.00014   0.00000   0.00000   0.00008
  47       33PX        -0.00081   0.00000   0.00000   0.00022   0.00000
  48       33PY         0.00000   0.00000   0.00022   0.00000   0.00000
  49       33PZ         0.00000  -0.00045   0.00000   0.00000  -0.00025
  50       34PX         0.00310   0.00000   0.00000  -0.00083   0.00000
  51       34PY         0.00000   0.00000  -0.00083   0.00000   0.00000
  52       34PZ         0.00000   0.00175   0.00000   0.00000   0.00098
  53       35PX        -0.00274   0.00000   0.00000   0.00121   0.00000
  54       35PY         0.00000   0.00000   0.00121   0.00000   0.00000
  55       35PZ         0.00000  -0.00170   0.00000   0.00000  -0.00109
  56       36PX        -0.26029   0.00000   0.00000   0.05838   0.00000
  57       36PY         0.00000   0.00000   0.05838   0.00000   0.00000
  58       36PZ         0.00000  -0.15497   0.00000   0.00000  -0.09224
  59       37PX         0.17335   0.00000   0.00000  -0.04193   0.00000
  60       37PY         0.00000   0.00000  -0.04193   0.00000   0.00000
  61       37PZ         0.00000   0.09773   0.00000   0.00000   0.05385
  62       38PX         0.41551   0.00000   0.00000  -0.09593   0.00000
  63       38PY         0.00000   0.00000  -0.09593   0.00000   0.00000
  64       38PZ         0.00000   0.24034   0.00000   0.00000   0.16228
  65       39PX         0.39463   0.00000   0.00000  -0.09974   0.00000
  66       39PY         0.00000   0.00000  -0.09974   0.00000   0.00000
  67       39PZ         0.00000   0.23122   0.00000   0.00000   0.15488
  68       40PX         0.16004   0.00000   0.00000  -0.06954   0.00000
  69       40PY         0.00000   0.00000  -0.06954   0.00000   0.00000
  70       40PZ         0.00000   0.10843   0.00000   0.00000   0.08137
  71       41PX         0.00813   0.00000   0.00000  -0.08005   0.00000
  72       41PY         0.00000   0.00000  -0.08005   0.00000   0.00000
  73       41PZ         0.00000   0.04403   0.00000   0.00000   0.09937
  74       42PX        -0.00553   0.00000   0.00000  -0.01576   0.00000
  75       42PY         0.00000   0.00000  -0.01576   0.00000   0.00000
  76       42PZ         0.00000   0.01327   0.00000   0.00000   0.01789
  77       43PX        -0.00018   0.00000   0.00000  -0.01189   0.00000
  78       43PY         0.00000   0.00000  -0.01189   0.00000   0.00000
  79       43PZ         0.00000  -0.00039   0.00000   0.00000  -0.00885
  80       44PX         0.17985   0.00000   0.00000  -0.04143   0.00000
  81       44PY         0.00000   0.00000  -0.04143   0.00000   0.00000
  82       44PZ         0.00000   0.11269   0.00000   0.00000   0.07178
  83       45PX        -0.03290   0.00000   0.00000   0.00637   0.00000
  84       45PY         0.00000   0.00000   0.00637   0.00000   0.00000
  85       45PZ         0.00000  -0.01848   0.00000   0.00000  -0.05057
  86       46PX         0.00000   0.00000   0.00000   0.00273   0.00000
  87       46PY         0.00000   0.00000   0.00273   0.00000   0.00000
  88       46PZ         0.00000  -0.00006   0.00000   0.00000   0.00150
  89       47D 0        0.00000  -0.00000   0.00000   0.00000  -0.00001
  90       47D+1        0.00000   0.00000   0.00000   0.00001   0.00000
  91       47D-1        0.00000   0.00000   0.00001   0.00000   0.00000
  92       47D+2        0.00000  -0.00000   0.00000   0.00000  -0.00000
  93       47D-2        0.00000   0.00000   0.00000   0.00000   0.00000
  94       48D 0        0.00000   0.00002   0.00000   0.00000   0.00009
  95       48D+1       -0.00000   0.00000   0.00000  -0.00004   0.00000
  96       48D-1        0.00000   0.00000  -0.00004   0.00000   0.00000
  97       48D+2        0.00000   0.00000   0.00000   0.00000   0.00000
  98       48D-2        0.00000   0.00000   0.00000   0.00000   0.00000
  99       49D 0        0.00000  -0.00011   0.00000   0.00000  -0.00043
 100       49D+1        0.00002   0.00000   0.00000   0.00019   0.00000
 101       49D-1        0.00000   0.00000   0.00019   0.00000   0.00000
 102       49D+2        0.00000  -0.00000   0.00000   0.00000  -0.00000
 103       49D-2        0.00000   0.00000   0.00000   0.00000   0.00000
 104       50D 0        0.00000   0.00441   0.00000   0.00000   0.01742
 105       50D+1       -0.00108   0.00000   0.00000  -0.00765   0.00000
 106       50D-1        0.00000   0.00000  -0.00765   0.00000   0.00000
 107       50D+2        0.00000   0.00000   0.00000   0.00000   0.00000
 108       50D-2        0.00000   0.00000   0.00000   0.00000   0.00000
 109       51D 0        0.00000   0.02857   0.00000   0.00000   0.11494
 110       51D+1       -0.00838   0.00000   0.00000  -0.05052   0.00000
 111       51D-1        0.00000   0.00000  -0.05052   0.00000   0.00000
 112       51D+2        0.00000  -0.00000   0.00000   0.00000  -0.00000
 113       51D-2        0.00000   0.00000   0.00000   0.00000   0.00000
 114       52D 0        0.00000   0.04539   0.00000   0.00000   0.18386
 115       52D+1       -0.01265   0.00000   0.00000  -0.07763   0.00000
 116       52D-1        0.00000   0.00000  -0.07763   0.00000   0.00000
 117       52D+2        0.00000  -0.00000   0.00000   0.00000  -0.00000
 118       52D-2        0.00000   0.00000   0.00000   0.00000   0.00000
 119       53D 0        0.00000   0.05415   0.00000   0.00000   0.20326
 120       53D+1       -0.00680   0.00000   0.00000  -0.08822   0.00000
 121       53D-1        0.00000   0.00000  -0.08822   0.00000   0.00000
 122       53D+2        0.00000  -0.00000   0.00000   0.00000  -0.00000
 123       53D-2        0.00000   0.00000   0.00000   0.00000   0.00000
 124       54D 0        0.00000   0.03914   0.00000   0.00000   0.17158
 125       54D+1        0.00239   0.00000   0.00000  -0.07436   0.00000
 126       54D-1        0.00000   0.00000  -0.07436   0.00000   0.00000
 127       54D+2        0.00000   0.00000   0.00000   0.00000   0.00000
 128       54D-2        0.00000   0.00000   0.00000   0.00000   0.00000
 129       55D 0        0.00000  -0.00458   0.00000   0.00000   0.05360
 130       55D+1        0.00553   0.00000   0.00000   0.01670   0.00000
 131       55D-1        0.00000   0.00000   0.01670   0.00000   0.00000
 132       55D+2        0.00000  -0.00000   0.00000   0.00000  -0.00000
 133       55D-2        0.00000   0.00000   0.00000   0.00000   0.00000
 134       56D 0        0.00000  -0.00313   0.00000   0.00000   0.01128
 135       56D+1        0.00287   0.00000   0.00000   0.00563   0.00000
 136       56D-1        0.00000   0.00000   0.00563   0.00000   0.00000
 137       56D+2        0.00000   0.00000   0.00000   0.00000   0.00000
 138       56D-2        0.00000   0.00000   0.00000   0.00000   0.00000
 139       57D 0        0.00000   0.00040   0.00000   0.00000   0.00448
 140       57D+1        0.00037   0.00000   0.00000   0.00652   0.00000
 141       57D-1        0.00000   0.00000   0.00652   0.00000   0.00000
 142       57D+2        0.00000  -0.00000   0.00000   0.00000  -0.00000
 143       57D-2        0.00000   0.00000   0.00000   0.00000   0.00000
 144       58D 0        0.00000  -0.00330   0.00000   0.00000  -0.01532
 145       58D+1        0.00070   0.00000   0.00000   0.00479   0.00000
 146       58D-1        0.00000   0.00000   0.00479   0.00000   0.00000
 147       58D+2        0.00000   0.00000   0.00000   0.00000   0.00000
 148       58D-2        0.00000   0.00000   0.00000   0.00000   0.00000
 149       59D 0        0.00000  -0.00630   0.00000   0.00000  -0.00952
 150       59D+1       -0.00450   0.00000   0.00000  -0.00022   0.00000
 151       59D-1        0.00000   0.00000  -0.00022   0.00000   0.00000
 152       59D+2        0.00000   0.00000   0.00000   0.00000   0.00000
 153       59D-2        0.00000   0.00000   0.00000   0.00000   0.00000
 154       60D 0        0.00000  -0.00007   0.00000   0.00000  -0.00094
 155       60D+1       -0.00007   0.00000   0.00000  -0.00160   0.00000
 156       60D-1        0.00000   0.00000  -0.00160   0.00000   0.00000
 157       60D+2        0.00000   0.00000   0.00000   0.00000   0.00000
 158       60D-2        0.00000   0.00000   0.00000   0.00000   0.00000
 159       61F 0        0.00000  -0.00197   0.00000   0.00000  -0.00815
 160       61F+1       -0.00068   0.00000   0.00000   0.00567   0.00000
 161       61F-1        0.00000   0.00000   0.00567   0.00000   0.00000
 162       61F+2        0.00000  -0.00000   0.00000   0.00000  -0.00000
 163       61F-2        0.00000   0.00000   0.00000   0.00000   0.00000
 164       61F+3       -0.00000   0.00000   0.00000   0.00000   0.00000
 165       61F-3        0.00000   0.00000   0.00000   0.00000   0.00000
 166       62F 0        0.00000  -0.00580   0.00000   0.00000  -0.02408
 167       62F+1       -0.00103   0.00000   0.00000   0.01693   0.00000
 168       62F-1        0.00000   0.00000   0.01693   0.00000   0.00000
 169       62F+2        0.00000  -0.00000   0.00000   0.00000  -0.00000
 170       62F-2        0.00000   0.00000   0.00000   0.00000   0.00000
 171       62F+3       -0.00000   0.00000   0.00000   0.00000   0.00000
 172       62F-3        0.00000   0.00000   0.00000   0.00000   0.00000
 173       63F 0        0.00000  -0.00609   0.00000   0.00000  -0.02267
 174       63F+1       -0.00482   0.00000   0.00000   0.01725   0.00000
 175       63F-1        0.00000   0.00000   0.01725   0.00000   0.00000
 176       63F+2        0.00000  -0.00000   0.00000   0.00000  -0.00000
 177       63F-2        0.00000   0.00000   0.00000   0.00000   0.00000
 178       63F+3       -0.00000   0.00000   0.00000  -0.00000   0.00000
 179       63F-3        0.00000   0.00000  -0.00000   0.00000   0.00000
 180       64F 0        0.00000   0.00304   0.00000   0.00000  -0.00729
 181       64F+1       -0.00281   0.00000   0.00000  -0.00964   0.00000
 182       64F-1        0.00000   0.00000  -0.00964   0.00000   0.00000
 183       64F+2        0.00000   0.00000   0.00000   0.00000   0.00000
 184       64F-2        0.00000   0.00000   0.00000   0.00000   0.00000
 185       64F+3       -0.00000   0.00000   0.00000   0.00000   0.00000
 186       64F-3        0.00000   0.00000   0.00000   0.00000   0.00000
 187       65F 0        0.00000   0.00003   0.00000   0.00000  -0.00216
 188       65F+1       -0.00043   0.00000   0.00000  -0.00246   0.00000
 189       65F-1        0.00000   0.00000  -0.00246   0.00000   0.00000
 190       65F+2        0.00000  -0.00000   0.00000   0.00000  -0.00000
 191       65F-2        0.00000   0.00000   0.00000   0.00000   0.00000
 192       65F+3        0.00000   0.00000   0.00000   0.00000   0.00000
 193       65F-3        0.00000   0.00000   0.00000   0.00000   0.00000
 194       66G 0        0.00000   0.00013   0.00000   0.00000   0.00186
 195       66G+1       -0.00058   0.00000   0.00000  -0.00147   0.00000
 196       66G-1        0.00000   0.00000  -0.00147   0.00000   0.00000
 197       66G+2        0.00000   0.00000   0.00000   0.00000   0.00000
 198       66G-2        0.00000   0.00000   0.00000   0.00000   0.00000
 199       66G+3        0.00000   0.00000   0.00000   0.00000   0.00000
 200       66G-3        0.00000   0.00000   0.00000   0.00000   0.00000
 201       66G+4        0.00000  -0.00000   0.00000   0.00000   0.00000
 202       66G-4        0.00000   0.00000   0.00000   0.00000   0.00000
 203       67G 0        0.00000   0.00019   0.00000   0.00000   0.00494
 204       67G+1       -0.00125   0.00000   0.00000  -0.00474   0.00000
 205       67G-1        0.00000   0.00000  -0.00474   0.00000   0.00000
 206       67G+2        0.00000  -0.00000   0.00000   0.00000  -0.00000
 207       67G-2        0.00000   0.00000   0.00000   0.00000   0.00000
 208       67G+3        0.00000   0.00000   0.00000   0.00000   0.00000
 209       67G-3        0.00000   0.00000   0.00000   0.00000   0.00000
 210       67G+4        0.00000   0.00000   0.00000   0.00000  -0.00000
 211       67G-4        0.00000   0.00000   0.00000   0.00000   0.00000
 212       68G 0        0.00000  -0.00029   0.00000   0.00000   0.00010
 213       68G+1        0.00060   0.00000   0.00000  -0.00142   0.00000
 214       68G-1        0.00000   0.00000  -0.00142   0.00000   0.00000
 215       68G+2        0.00000  -0.00000   0.00000   0.00000  -0.00000
 216       68G-2        0.00000   0.00000   0.00000   0.00000   0.00000
 217       68G+3        0.00000   0.00000   0.00000  -0.00000   0.00000
 218       68G-3        0.00000   0.00000  -0.00000   0.00000   0.00000
 219       68G+4        0.00000   0.00000   0.00000   0.00000   0.00000
 220       68G-4        0.00000   0.00000   0.00000   0.00000   0.00000
 221       69G 0        0.00000  -0.00033   0.00000   0.00000   0.00228
 222       69G+1        0.00051   0.00000   0.00000   0.00155   0.00000
 223       69G-1        0.00000   0.00000   0.00155   0.00000   0.00000
 224       69G+2        0.00000   0.00000   0.00000   0.00000   0.00000
 225       69G-2        0.00000   0.00000   0.00000   0.00000   0.00000
 226       69G+3        0.00000   0.00000   0.00000  -0.00000   0.00000
 227       69G-3        0.00000   0.00000  -0.00000   0.00000   0.00000
 228       69G+4        0.00000  -0.00000   0.00000   0.00000  -0.00000
 229       69G-4        0.00000   0.00000   0.00000   0.00000   0.00000
 230       70H 0        0.00000  -0.00032   0.00000   0.00000  -0.00141
 231       70H+1        0.00035   0.00000   0.00000   0.00134   0.00000
 232       70H-1        0.00000   0.00000   0.00134   0.00000   0.00000
 233       70H+2        0.00000  -0.00000   0.00000   0.00000  -0.00000
 234       70H-2        0.00000   0.00000   0.00000   0.00000   0.00000
 235       70H+3        0.00000   0.00000   0.00000  -0.00000   0.00000
 236       70H-3        0.00000   0.00000  -0.00000   0.00000   0.00000
 237       70H+4        0.00000  -0.00000   0.00000   0.00000  -0.00000
 238       70H-4        0.00000   0.00000   0.00000   0.00000   0.00000
 239       70H+5       -0.00000   0.00000   0.00000   0.00000   0.00000
 240       70H-5        0.00000   0.00000   0.00000   0.00000   0.00000
 241       71H 0        0.00000  -0.00001   0.00000   0.00000  -0.00160
 242       71H+1        0.00063   0.00000   0.00000   0.00133   0.00000
 243       71H-1        0.00000   0.00000   0.00133   0.00000   0.00000
 244       71H+2        0.00000   0.00000   0.00000   0.00000   0.00000
 245       71H-2        0.00000   0.00000   0.00000   0.00000   0.00000
 246       71H+3       -0.00000   0.00000   0.00000  -0.00000   0.00000
 247       71H-3        0.00000   0.00000  -0.00000   0.00000   0.00000
 248       71H+4        0.00000  -0.00000   0.00000   0.00000  -0.00000
 249       71H-4        0.00000   0.00000   0.00000   0.00000   0.00000
 250       71H+5        0.00000   0.00000   0.00000   0.00000   0.00000
 251       71H-5        0.00000   0.00000   0.00000   0.00000   0.00000
 252       72H 0        0.00000  -0.00004   0.00000   0.00000  -0.00062
 253       72H+1       -0.00016   0.00000   0.00000   0.00119   0.00000
 254       72H-1        0.00000   0.00000   0.00119   0.00000   0.00000
 255       72H+2        0.00000  -0.00000   0.00000   0.00000  -0.00000
 256       72H-2        0.00000   0.00000   0.00000   0.00000   0.00000
 257       72H+3       -0.00000   0.00000   0.00000   0.00000   0.00000
 258       72H-3        0.00000   0.00000   0.00000   0.00000   0.00000
 259       72H+4        0.00000   0.00000   0.00000   0.00000   0.00000
 260       72H-4        0.00000   0.00000   0.00000   0.00000   0.00000
 261       72H+5       -0.00000   0.00000   0.00000  -0.00000   0.00000
 262       72H-5        0.00000   0.00000  -0.00000   0.00000   0.00000
 263 2   O  1S          0.00000  -0.00000   0.00000   0.00000   0.00000
 264        2S          0.00000   0.00000   0.00000   0.00000  -0.00000
 265        3S          0.00000  -0.00000   0.00000   0.00000   0.00000
[...]
 164       61F+3        0.00000   0.00000   0.00000  -0.00000
 165       61F-3       -0.00000  -0.00000  -0.00000   0.00000
 166       62F 0        0.01098   0.00549   0.00549   0.00000
 167       62F+1        0.00596   0.00298   0.00298   0.00000
 168       62F-1        0.00596   0.00298   0.00298   0.00000
 169       62F+2        0.00000   0.00000  -0.00000   0.00000
 170       62F-2        0.00000   0.00000  -0.00000   0.00000
 171       62F+3        0.00000   0.00000   0.00000  -0.00000
 172       62F-3       -0.00000  -0.00000  -0.00000   0.00000
 173       63F 0        0.00769   0.00380   0.00388  -0.00008
 174       63F+1        0.01377   0.00688   0.00688   0.00000
 175       63F-1        0.01377   0.00688   0.00688   0.00000
 176       63F+2        0.00000   0.00000  -0.00000   0.00000
 177       63F-2        0.00000   0.00000  -0.00000   0.00000
 178       63F+3       -0.00000  -0.00000  -0.00000   0.00000
 179       63F-3        0.00000   0.00000   0.00000   0.00000
 180       64F 0       -0.00394  -0.00202  -0.00192  -0.00011
 181       64F+1       -0.00545  -0.00273  -0.00273   0.00000
 182       64F-1       -0.00545  -0.00273  -0.00273   0.00000
 183       64F+2       -0.00000  -0.00000  -0.00000  -0.00000
 184       64F-2       -0.00000  -0.00000   0.00000  -0.00000
 185       64F+3        0.00000   0.00000   0.00000  -0.00000
 186       64F-3        0.00000   0.00000   0.00000  -0.00000
 187       65F 0       -0.00022  -0.00011  -0.00011  -0.00000
 188       65F+1       -0.00027  -0.00013  -0.00013   0.00000
 189       65F-1       -0.00027  -0.00013  -0.00013   0.00000
 190       65F+2        0.00000   0.00000  -0.00000   0.00000
 191       65F-2        0.00000   0.00000  -0.00000   0.00000
 192       65F+3       -0.00000  -0.00000  -0.00000  -0.00000
 193       65F-3        0.00000   0.00000   0.00000   0.00000
 194       66G 0        0.00017   0.00009   0.00009   0.00000
 195       66G+1        0.00008   0.00004   0.00004   0.00000
 196       66G-1        0.00008   0.00004   0.00004   0.00000
 197       66G+2        0.00000   0.00000   0.00000  -0.00000
 198       66G-2        0.00000   0.00000   0.00000   0.00000
 199       66G+3       -0.00000  -0.00000  -0.00000  -0.00000
 200       66G-3       -0.00000  -0.00000  -0.00000  -0.00000
 201       66G+4       -0.00000  -0.00000  -0.00000   0.00000
 202       66G-4       -0.00000   0.00000  -0.00000   0.00000
 203       67G 0        0.00170   0.00085   0.00085  -0.00000
 204       67G+1        0.00176   0.00088   0.00088   0.00000
 205       67G-1        0.00176   0.00088   0.00088   0.00000
 206       67G+2        0.00000  -0.00000   0.00000  -0.00000
 207       67G-2        0.00000   0.00000   0.00000   0.00000
 208       67G+3        0.00000   0.00000   0.00000   0.00000
 209       67G-3        0.00000   0.00000   0.00000   0.00000
 210       67G+4       -0.00000  -0.00000   0.00000  -0.00000
 211       67G-4       -0.00000  -0.00000   0.00000  -0.00000
 212       68G 0       -0.00004  -0.00002  -0.00001  -0.00001
 213       68G+1        0.00086   0.00043   0.00043   0.00000
 214       68G-1        0.00086   0.00043   0.00043   0.00000
 215       68G+2        0.00000   0.00000  -0.00000   0.00000
 216       68G-2        0.00000   0.00000  -0.00000   0.00000
 217       68G+3        0.00000   0.00000   0.00000  -0.00000
 218       68G-3        0.00000   0.00000   0.00000  -0.00000
 219       68G+4       -0.00000  -0.00000  -0.00000  -0.00000
 220       68G-4       -0.00000  -0.00000  -0.00000  -0.00000
 221       69G 0       -0.00037  -0.00018  -0.00019   0.00001
 222       69G+1       -0.00026  -0.00013  -0.00013   0.00000
 223       69G-1       -0.00026  -0.00013  -0.00013   0.00000
 224       69G+2       -0.00000  -0.00000  -0.00000   0.00000
 225       69G-2       -0.00000  -0.00000  -0.00000  -0.00000
 226       69G+3       -0.00000  -0.00000  -0.00000  -0.00000
 227       69G-3        0.00000   0.00000   0.00000  -0.00000
 228       69G+4        0.00000   0.00000   0.00000   0.00000
 229       69G-4        0.00000   0.00000   0.00000   0.00000
 230       70H 0        0.00013   0.00006   0.00006  -0.00000
 231       70H+1        0.00009   0.00004   0.00004   0.00000
 232       70H-1        0.00009   0.00004   0.00004   0.00000
 233       70H+2        0.00000   0.00000   0.00000   0.00000
 234       70H-2        0.00000   0.00000  -0.00000   0.00000
 235       70H+3       -0.00000  -0.00000  -0.00000  -0.00000
 236       70H-3       -0.00000  -0.00000   0.00000  -0.00000
 237       70H+4       -0.00000  -0.00000  -0.00000   0.00000
 238       70H-4       -0.00000  -0.00000  -0.00000   0.00000
 239       70H+5        0.00000   0.00000   0.00000  -0.00000
 240       70H-5       -0.00000  -0.00000  -0.00000  -0.00000
 241       71H 0       -0.00006  -0.00003  -0.00003   0.00000
 242       71H+1        0.00076   0.00038   0.00038   0.00000
 243       71H-1        0.00076   0.00038   0.00038   0.00000
 244       71H+2        0.00000   0.00000   0.00000   0.00000
 245       71H-2        0.00000   0.00000   0.00000   0.00000
 246       71H+3       -0.00000  -0.00000  -0.00000   0.00000
 247       71H-3       -0.00000  -0.00000  -0.00000  -0.00000
 248       71H+4       -0.00000  -0.00000  -0.00000  -0.00000
 249       71H-4       -0.00000  -0.00000  -0.00000  -0.00000
 250       71H+5       -0.00000  -0.00000  -0.00000   0.00000
 251       71H-5        0.00000   0.00000   0.00000  -0.00000
 252       72H 0       -0.00009  -0.00005  -0.00004  -0.00000
 253       72H+1        0.00021   0.00011   0.00011   0.00000
 254       72H-1        0.00021   0.00011   0.00011   0.00000
 255       72H+2       -0.00000  -0.00000  -0.00000  -0.00000
 256       72H-2       -0.00000  -0.00000  -0.00000  -0.00000
 257       72H+3        0.00000   0.00000   0.00000  -0.00000
 258       72H-3       -0.00000  -0.00000  -0.00000  -0.00000
 259       72H+4        0.00000   0.00000   0.00000   0.00000
 260       72H-4        0.00000   0.00000   0.00000   0.00000
 261       72H+5       -0.00000  -0.00000  -0.00000   0.00000
 262       72H-5       -0.00000  -0.00000  -0.00000  -0.00000
 263 2   O  1S         -0.00000  -0.00000  -0.00000  -0.00000
 264        2S          0.00000   0.00000   0.00000   0.00000
 265        3S         -0.00000  -0.00000  -0.00000  -0.00000
 266        4S          0.00000   0.00000   0.00000   0.00000
 267        5S         -0.00000  -0.00000  -0.00000  -0.00000
 268        6S         -0.00006  -0.00003  -0.00003  -0.00000
 269        7S         -0.00038  -0.00019  -0.00019  -0.00000
 270        8S         -0.09336  -0.04679  -0.04657  -0.00021
 271        9S         -0.08023  -0.04020  -0.04003  -0.00016
 272       10S          0.43699   0.21891   0.21808   0.00082
 273       11S          1.06564   0.53339   0.53224   0.00115
 274       12S          0.59516   0.29419   0.30098  -0.00679
 275       13S          0.05600   0.02807   0.02793   0.00013
 276       14S          0.00024   0.00012   0.00012   0.00000
 277       15S          0.00002   0.00001   0.00001   0.00000
 278       16S          0.07933   0.03469   0.04464  -0.00996
 279       17PX        -0.00018  -0.00009  -0.00009  -0.00000
 280       17PY        -0.00018  -0.00009  -0.00009   0.00000
 281       17PZ        -0.00019  -0.00010  -0.00010  -0.00000
 282       18PX        -0.13104  -0.06552  -0.06552   0.00000
 283       18PY        -0.13104  -0.06552  -0.06552   0.00000
 284       18PZ        -0.13456  -0.06753  -0.06703  -0.00050
 285       19PX         0.14015   0.07008   0.07008   0.00000
 286       19PY         0.14015   0.07008   0.07008   0.00000
 287       19PZ         0.13281   0.06664   0.06617   0.00047
 288       20PX         0.48553   0.24276   0.24276   0.00000
 289       20PY         0.48553   0.24276   0.24276   0.00000
 290       20PZ         0.46849   0.23506   0.23343   0.00163
 291       21PX         0.71184   0.35592   0.35592   0.00000
 292       21PY         0.71184   0.35592   0.35592   0.00000
 293       21PZ         0.50943   0.25582   0.25361   0.00221
 294       22PX         0.41725   0.20862   0.20862   0.00000
 295       22PY         0.41725   0.20862   0.20862   0.00000
 296       22PZ         0.11967   0.05991   0.05976   0.00014
 297       23PX         0.14933   0.07466   0.07466   0.00000
 298       23PY         0.14933   0.07466   0.07466  -0.00000
 299       23PZ         0.15222   0.07639   0.07583   0.00056
 300       24PX         0.00068   0.00034   0.00034  -0.00000
 301       24PY         0.00068   0.00034   0.00034  -0.00000
 302       24PZ         0.00069   0.00035   0.00035   0.00000
 303       25PX         0.00001   0.00000   0.00000   0.00000
 304       25PY         0.00001   0.00000   0.00000   0.00000
 305       25PZ         0.00001   0.00001   0.00001   0.00000
 306       26PX         0.03320   0.01660   0.01660   0.00000
 307       26PY         0.03320   0.01660   0.01660  -0.00000
 308       26PZ         0.01002   0.00196   0.00806  -0.00610
 309       27D 0        0.00063   0.00032   0.00031   0.00001
 310       27D+1        0.00020   0.00010   0.00010   0.00000
 311       27D-1        0.00020   0.00010   0.00010  -0.00000
 312       27D+2       -0.00000  -0.00000  -0.00000   0.00000
 313       27D-2        0.00000   0.00000  -0.00000   0.00000
 314       28D 0        0.00924   0.00467   0.00456   0.00011
 315       28D+1        0.00427   0.00213   0.00213   0.00000
 316       28D-1        0.00427   0.00213   0.00213   0.00000
 317       28D+2        0.00000   0.00000   0.00000  -0.00000
 318       28D-2       -0.00000  -0.00000  -0.00000   0.00000
 319       29D 0        0.00699   0.00383   0.00316   0.00067
 320       29D+1        0.01164   0.00582   0.00582   0.00000
 321       29D-1        0.01164   0.00582   0.00582   0.00000
 322       29D+2        0.00000  -0.00000   0.00000  -0.00000
 323       29D-2        0.00000   0.00000   0.00000  -0.00000
 324       30D 0        0.00001   0.00000   0.00000   0.00000
 325       30D+1        0.00000   0.00000   0.00000   0.00000
 326       30D-1        0.00000   0.00000   0.00000   0.00000
 327       30D+2        0.00000  -0.00000   0.00000  -0.00000
 328       30D-2       -0.00000  -0.00000  -0.00000   0.00000
 329       31D 0       -0.00000  -0.00000  -0.00000  -0.00000
 330       31D+1       -0.00000  -0.00000  -0.00000   0.00000
 331       31D-1       -0.00000  -0.00000  -0.00000   0.00000
 332       31D+2       -0.00000  -0.00000  -0.00000   0.00000
 333       31D-2       -0.00000  -0.00000  -0.00000  -0.00000
 334       32D 0        0.00099   0.00069   0.00030   0.00039
 335       32D+1       -0.00289  -0.00145  -0.00145   0.00000
 336       32D-1       -0.00289  -0.00145  -0.00145   0.00000
 337       32D+2        0.00000   0.00000   0.00000   0.00000
 338       32D-2        0.00000   0.00000   0.00000   0.00000
 339       33F 0        0.00036   0.00018   0.00018   0.00000
 340       33F+1        0.00013   0.00006   0.00006   0.00000
 341       33F-1        0.00013   0.00006   0.00006   0.00000
 342       33F+2        0.00000   0.00000   0.00000   0.00000
 343       33F-2        0.00000   0.00000   0.00000   0.00000
 344       33F+3       -0.00000  -0.00000  -0.00000  -0.00000
 345       33F-3        0.00000   0.00000   0.00000  -0.00000
 346       34F 0        0.00212   0.00108   0.00104   0.00003
 347       34F+1        0.00200   0.00100   0.00100   0.00000
 348       34F-1        0.00200   0.00100   0.00100   0.00000
 349       34F+2       -0.00000   0.00000  -0.00000   0.00000
 350       34F-2       -0.00000  -0.00000  -0.00000  -0.00000
 351       34F+3        0.00000   0.00000   0.00000   0.00000
 352       34F-3       -0.00000  -0.00000  -0.00000   0.00000
 353       35F 0        0.00000   0.00000   0.00000   0.00000
 354       35F+1        0.00000   0.00000   0.00000   0.00000
 355       35F-1        0.00000   0.00000   0.00000   0.00000
 356       35F+2        0.00000   0.00000   0.00000   0.00000
 357       35F-2        0.00000   0.00000  -0.00000   0.00000
 358       35F+3        0.00000   0.00000   0.00000  -0.00000
 359       35F-3       -0.00000  -0.00000  -0.00000   0.00000
 360       36F 0       -0.00116  -0.00058  -0.00059   0.00001
 361       36F+1       -0.00027  -0.00013  -0.00013  -0.00000
 362       36F-1       -0.00027  -0.00013  -0.00013   0.00000
 363       36F+2        0.00000   0.00000   0.00000   0.00000
 364       36F-2        0.00000   0.00000   0.00000   0.00000
 365       36F+3        0.00000   0.00000  -0.00000   0.00000
 366       36F-3        0.00000   0.00000   0.00000   0.00000
 367       37G 0        0.00021   0.00011   0.00011   0.00000
 368       37G+1        0.00013   0.00006   0.00006   0.00000
 369       37G-1        0.00013   0.00006   0.00006   0.00000
 370       37G+2       -0.00000   0.00000  -0.00000   0.00000
 371       37G-2       -0.00000   0.00000  -0.00000   0.00000
 372       37G+3       -0.00000  -0.00000   0.00000  -0.00000
 373       37G-3       -0.00000  -0.00000  -0.00000   0.00000
 374       37G+4        0.00000   0.00000   0.00000  -0.00000
 375       37G-4        0.00000   0.00000   0.00000   0.00000
 376       38G 0       -0.00014  -0.00008  -0.00006  -0.00002
 377       38G+1        0.00025   0.00012   0.00012   0.00000
 378       38G-1        0.00025   0.00012   0.00012   0.00000
 379       38G+2        0.00000   0.00000   0.00000  -0.00000
 380       38G-2        0.00000   0.00000   0.00000  -0.00000
 381       38G+3        0.00000   0.00000   0.00000  -0.00000
 382       38G-3        0.00000   0.00000   0.00000   0.00000
 383       38G+4        0.00000   0.00000   0.00000   0.00000
 384       38G-4        0.00000   0.00000  -0.00000   0.00000
          Condensed to atoms (all electrons):
               1          2
     1  Sc  10.453119  -0.434773
     2  O   -0.434773   7.416428
          Atomic-Atomic Spin Densities.
               1          2
     1  Sc   1.053339  -0.037950
     2  O   -0.037950   0.022561
 Mulliken charges and spin densities:
               1          2
     1  Sc   0.981654   1.015389
     2  O   -0.981654  -0.015389
 Sum of Mulliken charges =  -0.00000   1.00000
 Mulliken charges and spin densities with hydrogens summed into heavy atoms:
               1          2
     1  Sc   0.981654   1.015389
     2  O   -0.981654  -0.015389
 Electronic spatial extent (au):  <R**2>=             79.8484
 Charge=             -0.0000 electrons
 Dipole moment (field-independent basis, Debye):
    X=              0.0000    Y=              0.0000    Z=              0.1801  Tot=              0.1801
 Quadrupole moment (field-independent basis, Debye-Ang):
   XX=            -22.7277   YY=            -22.7277   ZZ=            -29.6089
   XY=              0.0000   XZ=              0.0000   YZ=              0.0000
 Traceless Quadrupole moment (field-independent basis, Debye-Ang):
   XX=              2.2937   YY=              2.2937   ZZ=             -4.5875
   XY=              0.0000   XZ=              0.0000   YZ=              0.0000
 Octapole moment (field-independent basis, Debye-Ang**2):
  XXX=              0.0000  YYY=              0.0000  ZZZ=            -21.8511  XYY=              0.0000
  XXY=              0.0000  XXZ=             -7.0535  XZZ=              0.0000  YZZ=              0.0000
  YYZ=             -7.0535  XYZ=              0.0000
 Hexadecapole moment (field-independent basis, Debye-Ang**3):
 XXXX=            -65.5019 YYYY=            -65.5019 ZZZZ=           -148.9184 XXXY=              0.0000
 XXXZ=              0.0000 YYYX=              0.0000 YYYZ=              0.0000 ZZZX=              0.0000
 ZZZY=              0.0000 XXYY=            -21.8340 XXZZ=            -35.6772 YYZZ=            -35.6772
 XXYZ=              0.0000 YYXZ=              0.0000 ZZXY=              0.0000
 N-N= 2.686591993902D+01 E-N=-1.896621668238D+02  KE= 3.257547576744D+01
 Symmetry A1   KE= 1.515882014214D+01
 Symmetry A2   KE= 1.811665954297D-49
 Symmetry B1   KE= 8.708327813047D+00
 Symmetry B2   KE= 8.708327812001D+00
 Symmetry A1   SP= 1.000000000000D+00
 Symmetry A2   SP= 1.092620526205D-49
 Symmetry B1   SP= 3.476649936159D-17
 Symmetry B2   SP=-7.370343563675D-17
 Orbital energies and kinetic energies (alpha):
                                 1                 2
   4         O                -1.520689          2.052294
   5         O                -1.066254          1.559098
   6         O                -0.577422          2.301870
   7         O                -0.577422          2.301870
   8         O                -0.468727          2.931515
   9         O                -0.194612          0.230479
  10         V                 0.009473          0.042762
  11         V                 0.009473          0.042762
  12         V                 0.018844          0.026964
  13         V                 0.022942          0.037686
  14         V                 0.028097          0.030330
 Total kinetic energy from orbitals= 3.280595497039D+01
                          Isotropic Fermi Contact Couplings
        Atom                 a.u.       MegaHertz       Gauss      10(-4) cm-1
     1  Sc(45)             0.00004       0.04256       0.01519       0.01420
     2  O(17)              0.00005      -0.03329      -0.01188      -0.01111
 --------------------------------------------------------
       Center         ----  Spin Dipole Couplings  ----
                      3XX-RR        3YY-RR        3ZZ-RR
 --------------------------------------------------------
     1   Atom       -0.014112     -0.014112      0.028225
     2   Atom       -0.012533     -0.012533      0.025065
 --------------------------------------------------------
                        XY            XZ            YZ
 --------------------------------------------------------
     1   Atom        0.000000      0.000000      0.000000
     2   Atom        0.000000      0.000000      0.000000
 --------------------------------------------------------


 ---------------------------------------------------------------------------------
              Anisotropic Spin Dipole Couplings in Principal Axis System
 ---------------------------------------------------------------------------------

       Atom             a.u.   MegaHertz   Gauss  10(-4) cm-1        Axes

              Baa    -0.0141    -1.832    -0.654    -0.611  1.0000  0.0000  0.0000
     1 Sc(45) Bbb    -0.0141    -1.832    -0.654    -0.611 -0.0000  1.0000  0.0000
              Bcc     0.0282     3.664     1.307     1.222  0.0000  0.0000  1.0000
 
              Baa    -0.0125     0.907     0.324     0.302  1.0000  0.0000  0.0000
     2 O(17)  Bbb    -0.0125     0.907     0.324     0.302 -0.0000  1.0000  0.0000
              Bcc     0.0251    -1.814    -0.647    -0.605  0.0000  0.0000  1.0000
 

 ---------------------------------------------------------------------------------

 No NMR shielding tensors so no spin-rotation constants.
 Leave Link  601 at Tue Feb 20 23:35:17 2018, MaxMem= 10737418240 cpu:             226.7 elap:               7.4
 (Enter /home1/apps/gaussian/16rA.03/g16/l9999.exe)
 1\1\GINC-C420-102\SP\ROCCSD(T)-Full\Gen\O1Sc1(2)\AANNABE\20-Feb-2018\0
 \\#P ROCCSD(T)=(maxcyc=150, Full, SaveAmplitudes, ReadAmplitudes)/Gen 
 5d 7f SCF=(maxcycles=300) Integral(NoXCTest) MaxDisk=500GB Pop=Regular
  Pseudo=Read Guess=Read\\ScO\\0,2\Sc,0,0.,0.,0.\O,0,0.,0.,1.3\\Version
 =ES64L-G16RevA.03\State=2-SG\HF=-61.8851383\MP2=-62.5837704\PUHF=-61.8
 851383\PMP2-0=-62.5837704\CCSD=-62.5786652\CCSD(T)=-62.6101699\RMSD=3.
 508e-09\PG=C*V [C*(O1Sc1)]\\@


 THE ... SCIENTISTS WERE WRONG ... THE MOST PERSISTENT PRINCIPLES 
 OF THE UNIVERSE WERE ACCIDENT AND ERROR.

                          -- FRANK HERBERT IN DUNE
 Job cpu time:       1 days  8 hours 38 minutes 14.7 seconds.
 Elapsed time:       0 days  1 hours  1 minutes 28.3 seconds.
 File lengths (MBytes):  RWF=  11434 Int=      0 D2E=      0 Chk=     61 Scr=      1
 Normal termination of Gaussian 16 at Tue Feb 20 23:35:17 2018.
