 Entering Gaussian System, Link 0=g16
 Initial command:
 /home1/apps/gaussian/16rA.03/g16/l1.exe "/tmp/Gau-128935.inp" -scrdir="/tmp/"
 Entering Link 1 = /home1/apps/gaussian/16rA.03/g16/l1.exe PID=    128937.
  
 Copyright (c) 1988,1990,1992,1993,1995,1998,2003,2009,2016,
            Gaussian, Inc.  All Rights Reserved.
  
 This is part of the Gaussian(R) 16 program.  It is based on
 the Gaussian(R) 09 system (copyright 2009, Gaussian, Inc.),
 the Gaussian(R) 03 system (copyright 2003, Gaussian, Inc.),
 the Gaussian(R) 98 system (copyright 1998, Gaussian, Inc.),
 the Gaussian(R) 94 system (copyright 1995, Gaussian, Inc.),
 the Gaussian 92(TM) system (copyright 1992, Gaussian, Inc.),
 the Gaussian 90(TM) system (copyright 1990, Gaussian, Inc.),
 the Gaussian 88(TM) system (copyright 1988, Gaussian, Inc.),
 the Gaussian 86(TM) system (copyright 1986, Carnegie Mellon
 University), and the Gaussian 82(TM) system (copyright 1983,
 Carnegie Mellon University). Gaussian is a federally registered
 trademark of Gaussian, Inc.
  
 This software contains proprietary and confidential information,
 including trade secrets, belonging to Gaussian, Inc.
  
 This software is provided under written license and may be
 used, copied, transmitted, or stored only in accord with that
 written license.
  
 The following legend is applicable only to US Government
 contracts under FAR:
  
                    RESTRICTED RIGHTS LEGEND
  
 Use, reproduction and disclosure by the US Government is
 subject to restrictions as set forth in subparagraphs (a)
 and (c) of the Commercial Computer Software - Restricted
 Rights clause in FAR 52.227-19.
  
 Gaussian, Inc.
 340 Quinnipiac St., Bldg. 40, Wallingford CT 06492
  
  
 ---------------------------------------------------------------
 Warning -- This program may not be used in any manner that
 competes with the business of Gaussian, Inc. or will provide
 assistance to any competitor of Gaussian, Inc.  The licensee
 of this program is prohibited from giving any competitor of
 Gaussian, Inc. access to this program.  By using this program,
 the user acknowledges that Gaussian, Inc. is engaged in the
 business of creating and licensing software in the field of
 computational chemistry and represents and warrants to the
 licensee that it is not a competitor of Gaussian, Inc. and that
 it will not use this program in any manner prohibited above.
 ---------------------------------------------------------------
  

 Cite this work as:
 Gaussian 16, Revision A.03,
 M. J. Frisch, G. W. Trucks, H. B. Schlegel, G. E. Scuseria, 
 M. A. Robb, J. R. Cheeseman, G. Scalmani, V. Barone, 
 G. A. Petersson, H. Nakatsuji, X. Li, M. Caricato, A. V. Marenich, 
 J. Bloino, B. G. Janesko, R. Gomperts, B. Mennucci, H. P. Hratchian, 
 J. V. Ortiz, A. F. Izmaylov, J. L. Sonnenberg, D. Williams-Young, 
 F. Ding, F. Lipparini, F. Egidi, J. Goings, B. Peng, A. Petrone, 
 T. Henderson, D. Ranasinghe, V. G. Zakrzewski, J. Gao, N. Rega, 
 G. Zheng, W. Liang, M. Hada, M. Ehara, K. Toyota, R. Fukuda, 
 J. Hasegawa, M. Ishida, T. Nakajima, Y. Honda, O. Kitao, H. Nakai, 
 T. Vreven, K. Throssell, J. A. Montgomery, Jr., J. E. Peralta, 
 F. Ogliaro, M. J. Bearpark, J. J. Heyd, E. N. Brothers, K. N. Kudin, 
 V. N. Staroverov, T. A. Keith, R. Kobayashi, J. Normand, 
 K. Raghavachari, A. P. Rendell, J. C. Burant, S. S. Iyengar, 
 J. Tomasi, M. Cossi, J. M. Millam, M. Klene, C. Adamo, R. Cammi, 
 J. W. Ochterski, R. L. Martin, K. Morokuma, O. Farkas, 
 J. B. Foresman, and D. J. Fox, Gaussian, Inc., Wallingford CT, 2016.
 
 ******************************************
 Gaussian 16:  ES64L-G16RevA.03 25-Dec-2016
                25-Mar-2018 
 ******************************************
 %mem=80GB
 %cpu=0-31
 SetSPE:  set environment variable "MP_BIND" = "yes"
 SetSPE:  set environment variable "MP_BLIST" = "0,1,2,3,4,5,6,7,8,9,10,11,12,13,14,15,16,17,18,19,20,21,22,23,24,25,26,27,28,29,30,31"
 Will use up to   32 processors via shared memory.
 %chk=qz.chk
 %rwf=/scratch/04843/gwang18/feo/
 ----------------------------------------------------------------------
 #P ROCCSD(T)=(MaxCyc=150, Full)/Gen SCF=(maxcycle=400) Pseudo=Read Int
 egral(NoXCTest) Pop=Regular MaxDisk=500GB
 ----------------------------------------------------------------------
 1/38=1,172=1/1;
 2/12=2,17=6,18=5,40=1/2;
 3/5=7,11=2,16=1,17=8,25=1,30=1,47=8,116=101/1,2,3;
 4//1;
 5/5=2,7=400,38=5/2;
 8/5=-1,6=4,9=120000,10=90/1,4;
 9/5=7,6=150,14=2/13;
 6//1;
 99/5=1,9=1/99;
 Leave Link    1 at Sun Mar 25 00:44:36 2018, MaxMem= 10737418240 cpu:               7.5 elap:               0.2
 (Enter /home1/apps/gaussian/16rA.03/g16/l101.exe)
 ---
 FeO
 ---
 Symbolic Z-matrix:
 Charge =  0 Multiplicity = 5
 Fe                    0.        0.        0. 
 O                     0.        0.        1.4 
 
 ITRead=  0  0
 MicOpt= -1 -1
 NAtoms=      2 NQM=        2 NQMF=       0 NMMI=      0 NMMIF=      0
                NMic=       0 NMicF=      0.
                    Isotopes and Nuclear Properties:
 (Nuclear quadrupole moments (NQMom) in fm**2, nuclear magnetic moments (NMagM)
  in nuclear magnetons)

  Atom         1           2
 IAtWgt=          56          16
 AtmWgt=  55.9349393  15.9949146
 NucSpn=           0           0
 AtZEff=  -0.0000000  -0.0000000
 NQMom=    0.0000000   0.0000000
 NMagM=    0.0000000   0.0000000
 AtZNuc=  26.0000000   8.0000000
 Leave Link  101 at Sun Mar 25 00:44:36 2018, MaxMem= 10737418240 cpu:               3.1 elap:               0.1
 (Enter /home1/apps/gaussian/16rA.03/g16/l202.exe)
                          Input orientation:                          
 ---------------------------------------------------------------------
 Center     Atomic      Atomic             Coordinates (Angstroms)
 Number     Number       Type             X           Y           Z
 ---------------------------------------------------------------------
      1         26           0        0.000000    0.000000    0.000000
      2          8           0        0.000000    0.000000    1.400000
 ---------------------------------------------------------------------
 Stoichiometry    FeO(5)
 Framework group  C*V[C*(OFe)]
 Deg. of freedom     1
 Full point group                 C*V     NOp   4
 Largest Abelian subgroup         C2V     NOp   4
 Largest concise Abelian subgroup C1      NOp   1
                         Standard orientation:                         
 ---------------------------------------------------------------------
 Center     Atomic      Atomic             Coordinates (Angstroms)
 Number     Number       Type             X           Y           Z
 ---------------------------------------------------------------------
      1         26           0        0.000000    0.000000    0.329412
      2          8           0        0.000000    0.000000   -1.070588
 ---------------------------------------------------------------------
 Rotational constants (GHZ):           0.0000000          20.7302819          20.7302819
 Leave Link  202 at Sun Mar 25 00:44:36 2018, MaxMem= 10737418240 cpu:               0.8 elap:               0.1
 (Enter /home1/apps/gaussian/16rA.03/g16/l301.exe)
 General basis read from cards:  (5D, 7F)
 Centers:       1
 S 1 1.00
     Exponent=  1.3277140000D+07 Coefficients=  1.0000000000D+00
 S 1 1.00
     Exponent=  1.9878880000D+06 Coefficients=  1.0000000000D+00
 S 1 1.00
     Exponent=  4.5238710000D+05 Coefficients=  1.0000000000D+00
 S 1 1.00
     Exponent=  1.2814370000D+05 Coefficients=  1.0000000000D+00
 S 1 1.00
     Exponent=  4.1809170000D+04 Coefficients=  1.0000000000D+00
 S 1 1.00
     Exponent=  1.5095330000D+04 Coefficients=  1.0000000000D+00
 S 1 1.00
     Exponent=  5.8884380000D+03 Coefficients=  1.0000000000D+00
 S 1 1.00
     Exponent=  2.4428760000D+03 Coefficients=  1.0000000000D+00
 S 1 1.00
     Exponent=  1.0658570000D+03 Coefficients=  1.0000000000D+00
 S 1 1.00
     Exponent=  4.8490960000D+02 Coefficients=  1.0000000000D+00
 S 1 1.00
     Exponent=  2.2845850000D+02 Coefficients=  1.0000000000D+00
 S 1 1.00
     Exponent=  1.1074530000D+02 Coefficients=  1.0000000000D+00
 S 1 1.00
     Exponent=  5.4431160000D+01 Coefficients=  1.0000000000D+00
 S 1 1.00
     Exponent=  2.5010960000D+01 Coefficients=  1.0000000000D+00
 S 1 1.00
     Exponent=  1.2592620000D+01 Coefficients=  1.0000000000D+00
 S 1 1.00
     Exponent=  6.3232020000D+00 Coefficients=  1.0000000000D+00
 S 1 1.00
     Exponent=  2.8833840000D+00 Coefficients=  1.0000000000D+00
 S 1 1.00
     Exponent=  1.3828680000D+00 Coefficients=  1.0000000000D+00
 S 1 1.00
     Exponent=  6.3220100000D-01 Coefficients=  1.0000000000D+00
 S 1 1.00
     Exponent=  1.4923800000D-01 Coefficients=  1.0000000000D+00
 S 1 1.00
     Exponent=  6.8494000000D-02 Coefficients=  1.0000000000D+00
 S 1 1.00
     Exponent=  3.0381000000D-02 Coefficients=  1.0000000000D+00
 S 1 1.00
     Exponent=  5.7900000000D+00 Coefficients=  1.0000000000D+00
 S 1 1.00
     Exponent=  1.7335000000D+00 Coefficients=  1.0000000000D+00
 S 1 1.00
     Exponent=  1.3480000000D-02 Coefficients=  1.0000000000D+00
 P 1 1.00
     Exponent=  3.8282050000D+04 Coefficients=  1.0000000000D+00
 P 1 1.00
     Exponent=  9.0615560000D+03 Coefficients=  1.0000000000D+00
 P 1 1.00
     Exponent=  2.9444500000D+03 Coefficients=  1.0000000000D+00
 P 1 1.00
     Exponent=  1.1281580000D+03 Coefficients=  1.0000000000D+00
 P 1 1.00
     Exponent=  4.8033800000D+02 Coefficients=  1.0000000000D+00
 P 1 1.00
     Exponent=  2.2013680000D+02 Coefficients=  1.0000000000D+00
 P 1 1.00
     Exponent=  1.0654820000D+02 Coefficients=  1.0000000000D+00
 P 1 1.00
     Exponent=  5.3742620000D+01 Coefficients=  1.0000000000D+00
 P 1 1.00
     Exponent=  2.7863180000D+01 Coefficients=  1.0000000000D+00
 P 1 1.00
     Exponent=  1.4743820000D+01 Coefficients=  1.0000000000D+00
 P 1 1.00
     Exponent=  7.8933510000D+00 Coefficients=  1.0000000000D+00
 P 1 1.00
     Exponent=  4.1794970000D+00 Coefficients=  1.0000000000D+00
 P 1 1.00
     Exponent=  2.1656690000D+00 Coefficients=  1.0000000000D+00
 P 1 1.00
     Exponent=  1.0972400000D+00 Coefficients=  1.0000000000D+00
 P 1 1.00
     Exponent=  5.3608500000D-01 Coefficients=  1.0000000000D+00
 P 1 1.00
     Exponent=  2.0245300000D-01 Coefficients=  1.0000000000D+00
 P 1 1.00
     Exponent=  8.1695000000D-02 Coefficients=  1.0000000000D+00
 P 1 1.00
     Exponent=  3.2614000000D-02 Coefficients=  1.0000000000D+00
 P 1 1.00
     Exponent=  8.3687000000D+00 Coefficients=  1.0000000000D+00
 P 1 1.00
     Exponent=  2.2601000000D+00 Coefficients=  1.0000000000D+00
 P 1 1.00
     Exponent=  1.3020000000D-02 Coefficients=  1.0000000000D+00
 D 1 1.00
     Exponent=  3.5099500000D+02 Coefficients=  1.0000000000D+00
 D 1 1.00
     Exponent=  1.0366700000D+02 Coefficients=  1.0000000000D+00
 D 1 1.00
     Exponent=  3.9704300000D+01 Coefficients=  1.0000000000D+00
 D 1 1.00
     Exponent=  1.7031000000D+01 Coefficients=  1.0000000000D+00
 D 1 1.00
     Exponent=  7.7890200000D+00 Coefficients=  1.0000000000D+00
 D 1 1.00
     Exponent=  3.6995500000D+00 Coefficients=  1.0000000000D+00
 D 1 1.00
     Exponent=  1.7553200000D+00 Coefficients=  1.0000000000D+00
 D 1 1.00
     Exponent=  8.1284500000D-01 Coefficients=  1.0000000000D+00
 D 1 1.00
     Exponent=  3.6144100000D-01 Coefficients=  1.0000000000D+00
 D 1 1.00
     Exponent=  1.5134600000D-01 Coefficients=  1.0000000000D+00
 D 1 1.00
     Exponent=  5.7513000000D-02 Coefficients=  1.0000000000D+00
 D 1 1.00
     Exponent=  5.4967000000D+00 Coefficients=  1.0000000000D+00
 D 1 1.00
     Exponent=  2.8925000000D+00 Coefficients=  1.0000000000D+00
 D 1 1.00
     Exponent=  2.1860000000D-02 Coefficients=  1.0000000000D+00
 F 1 1.00
     Exponent=  7.7828000000D+00 Coefficients=  1.0000000000D+00
 F 1 1.00
     Exponent=  3.2584000000D+00 Coefficients=  1.0000000000D+00
 F 1 1.00
     Exponent=  1.3641000000D+00 Coefficients=  1.0000000000D+00
 F 1 1.00
     Exponent=  4.5640000000D-01 Coefficients=  1.0000000000D+00
 F 1 1.00
     Exponent=  1.5270000000D-01 Coefficients=  1.0000000000D+00
 G 1 1.00
     Exponent=  6.3816000000D+00 Coefficients=  1.0000000000D+00
 G 1 1.00
     Exponent=  2.7717000000D+00 Coefficients=  1.0000000000D+00
 G 1 1.00
     Exponent=  1.0505000000D+00 Coefficients=  1.0000000000D+00
 G 1 1.00
     Exponent=  3.9815000000D-01 Coefficients=  1.0000000000D+00
 H 1 1.00
     Exponent=  5.8964000000D+00 Coefficients=  1.0000000000D+00
 H 1 1.00
     Exponent=  2.3448000000D+00 Coefficients=  1.0000000000D+00
 H 1 1.00
     Exponent=  9.3245000000D-01 Coefficients=  1.0000000000D+00
 ****
 Centers:       2
 S 1 1.00
     Exponent=  6.1420000000D+04 Coefficients=  1.0000000000D+00
 S 1 1.00
     Exponent=  9.1990000000D+03 Coefficients=  1.0000000000D+00
 S 1 1.00
     Exponent=  2.0910000000D+03 Coefficients=  1.0000000000D+00
 S 1 1.00
     Exponent=  5.9090000000D+02 Coefficients=  1.0000000000D+00
 S 1 1.00
     Exponent=  1.9230000000D+02 Coefficients=  1.0000000000D+00
 S 1 1.00
     Exponent=  6.9320000000D+01 Coefficients=  1.0000000000D+00
 S 1 1.00
     Exponent=  2.6970000000D+01 Coefficients=  1.0000000000D+00
 S 1 1.00
     Exponent=  1.1100000000D+01 Coefficients=  1.0000000000D+00
 S 1 1.00
     Exponent=  4.6820000000D+00 Coefficients=  1.0000000000D+00
 S 1 1.00
     Exponent=  1.4280000000D+00 Coefficients=  1.0000000000D+00
 S 1 1.00
     Exponent=  5.5470000000D-01 Coefficients=  1.0000000000D+00
 S 1 1.00
     Exponent=  2.0670000000D-01 Coefficients=  1.0000000000D+00
 S 1 1.00
     Exponent=  1.2974000000D+01 Coefficients=  1.0000000000D+00
 S 1 1.00
     Exponent=  3.4900000000D+01 Coefficients=  1.0000000000D+00
 S 1 1.00
     Exponent=  9.3881000000D+01 Coefficients=  1.0000000000D+00
 S 1 1.00
     Exponent=  6.9590000000D-02 Coefficients=  1.0000000000D+00
 P 1 1.00
     Exponent=  6.3420000000D+01 Coefficients=  1.0000000000D+00
 P 1 1.00
     Exponent=  1.4660000000D+01 Coefficients=  1.0000000000D+00
 P 1 1.00
     Exponent=  4.4590000000D+00 Coefficients=  1.0000000000D+00
 P 1 1.00
     Exponent=  1.5310000000D+00 Coefficients=  1.0000000000D+00
 P 1 1.00
     Exponent=  5.3020000000D-01 Coefficients=  1.0000000000D+00
 P 1 1.00
     Exponent=  1.7500000000D-01 Coefficients=  1.0000000000D+00
 P 1 1.00
     Exponent=  1.4475000000D+01 Coefficients=  1.0000000000D+00
 P 1 1.00
     Exponent=  4.2730000000D+01 Coefficients=  1.0000000000D+00
 P 1 1.00
     Exponent=  1.2614000000D+02 Coefficients=  1.0000000000D+00
 P 1 1.00
     Exponent=  5.3480000000D-02 Coefficients=  1.0000000000D+00
 D 1 1.00
     Exponent=  3.7750000000D+00 Coefficients=  1.0000000000D+00
 D 1 1.00
     Exponent=  1.3000000000D+00 Coefficients=  1.0000000000D+00
 D 1 1.00
     Exponent=  4.4400000000D-01 Coefficients=  1.0000000000D+00
 D 1 1.00
     Exponent=  1.4927000000D+01 Coefficients=  1.0000000000D+00
 D 1 1.00
     Exponent=  5.7544000000D+01 Coefficients=  1.0000000000D+00
 D 1 1.00
     Exponent=  1.5400000000D-01 Coefficients=  1.0000000000D+00
 F 1 1.00
     Exponent=  2.6660000000D+00 Coefficients=  1.0000000000D+00
 F 1 1.00
     Exponent=  8.5900000000D-01 Coefficients=  1.0000000000D+00
 F 1 1.00
     Exponent=  2.6483000000D+01 Coefficients=  1.0000000000D+00
 F 1 1.00
     Exponent=  3.2400000000D-01 Coefficients=  1.0000000000D+00
 G 1 1.00
     Exponent=  1.8460000000D+00 Coefficients=  1.0000000000D+00
 G 1 1.00
     Exponent=  7.1400000000D-01 Coefficients=  1.0000000000D+00
 ****
 ======================================================================================================
                                       Pseudopotential Parameters
 ======================================================================================================
  Center     Atomic      Valence      Angular      Power
  Number     Number     Electrons     Momentum     of R      Exponent        Coefficient   SO-Coeffient
 ======================================================================================================
    1         26           16
                                      D and up 
                                                     1       14.4907932       16.00000000    0.00000000
                                                     3       14.7508039      231.85269156    0.00000000
                                                     2       13.5133204     -125.71036365    0.00000000
                                                     2        8.1349995        1.26697878    0.00000000
                                      S - D
                                                     2       24.6419614      286.34993515    0.00000000
                                                     2        8.4088679       45.10829178    0.00000000
                                      P - D
                                                     2        8.2748563       28.52519211    0.00000000
                                                     2       23.8323272      181.13542019    0.00000000
    2          8            6
                                      P and up 
                                                     1       12.3099744        6.00000000    0.00000000
                                                     3       14.7696229       73.85984616    0.00000000
                                                     2       13.7141954      -47.87600504    0.00000000
                                      S - P
                                                     2       13.6551200       85.86406526    0.00000000
 ======================================================================================================
 Ernie: Thresh=  0.10000D-02 Tol=  0.10000D-05 Strict=F.
 There are   213 symmetry adapted cartesian basis functions of A1  symmetry.
 There are    56 symmetry adapted cartesian basis functions of A2  symmetry.
 There are   114 symmetry adapted cartesian basis functions of B1  symmetry.
 There are   114 symmetry adapted cartesian basis functions of B2  symmetry.
 There are   157 symmetry adapted basis functions of A1  symmetry.
 There are    47 symmetry adapted basis functions of A2  symmetry.
 There are    90 symmetry adapted basis functions of B1  symmetry.
 There are    90 symmetry adapted basis functions of B2  symmetry.
   384 basis functions,   497 primitive gaussians,   497 cartesian basis functions
    13 alpha electrons        9 beta electrons
       nuclear repulsion energy        36.2864373202 Hartrees.
 IExCor=    0 DFT=F Ex=HF Corr=None ExCW=0 ScaHFX=  1.000000
 ScaDFX=  1.000000  1.000000  1.000000  1.000000 ScalE2=  1.000000  1.000000
 IRadAn=      5 IRanWt=     -1 IRanGd=            0 ICorTp=0 IEmpDi=  4
 NAtoms=    2 NActive=    2 NUniq=    2 SFac= 1.00D+00 NAtFMM=   60 NAOKFM=F Big=F
 Integral buffers will be    131072 words long.
 Raffenetti 2 integral format.
 Two-electron integral symmetry is turned on.
 Leave Link  301 at Sun Mar 25 00:44:37 2018, MaxMem= 10737418240 cpu:               9.3 elap:               0.3
 (Enter /home1/apps/gaussian/16rA.03/g16/l302.exe)
 NPDir=0 NMtPBC=     1 NCelOv=     1 NCel=       1 NClECP=     1 NCelD=      1
         NCelK=      1 NCelE2=     1 NClLst=     1 CellRange=     0.0.
 One-electron integrals computed using PRISM.
 One-electron integral symmetry used in STVInt
   4 Symmetry operations used in ECPInt.
 ECPInt:  NShTT=    6105 NPrTT=    6105 LenC2=    5604 LenP2D=    5603.
 LDataN:  DoStor=T MaxTD1=10 Len=  848
 NBasis=   384 RedAO= T EigKep=  1.45D-06  NBF=   157    47    90    90
 NBsUse=   380 1.00D-06 EigRej=  4.35D-07 NBFU=   155    47    89    89
 Leave Link  302 at Sun Mar 25 00:44:39 2018, MaxMem= 10737418240 cpu:              79.6 elap:               2.5
 (Enter /home1/apps/gaussian/16rA.03/g16/l303.exe)
 DipDrv:  MaxL=1.
 Leave Link  303 at Sun Mar 25 00:44:40 2018, MaxMem= 10737418240 cpu:               4.5 elap:               0.2
 (Enter /home1/apps/gaussian/16rA.03/g16/l401.exe)
 ExpMin= 1.30D-02 ExpMax= 1.33D+07 ExpMxC= 1.33D+07 IAcc=4 IRadAn=    399590 AccDes= 0.00D+00
 Harris functional with IExCor=  205 and IRadAn=  399590 diagonalized for initial guess.
 HarFok:  IExCor=  205 AccDes= 0.00D+00 IRadAn=    399590 IDoV= 1 UseB2=F ITyADJ=14
 ICtDFT=  3500011 ScaDFX=  1.000000  1.000000  1.000000  1.000000
 FoFCou: FMM=F IPFlag=           8 FMFlag=      100000 FMFlg1=           0
         NFxFlg=           0 DoJE=T BraDBF=F KetDBF=T FulRan=T
         wScrn=  0.000000 ICntrl=       500 IOpCl=  0 I1Cent=   200000004 NGrid=           0
         NMat0=    1 NMatS0=      1 NMatT0=    0 NMatD0=    1 NMtDS0=    0 NMtDT0=    0
 Petite list used in FoFCou.
 Harris En= -139.787009818497    
 JPrj=0 DoOrth=F DoCkMO=F.
 Initial guess orbital symmetries:
       Occupied  (SG) (SG) (PI) (PI) (SG) (PI) (PI) (SG) (DLTA)
                 (DLTA) (SG) (PI) (PI)
       Virtual   (SG) (PI) (PI) (SG) (SG) (PI) (PI) (DLTA) (DLTA)
                 (SG) (PI) (PI) (SG) (SG) (PI) (PI) (SG) (DLTA)
                 (DLTA) (PI) (PI) (SG) (PI) (PI) (SG) (SG) (DLTA)
                 (DLTA) (SG) (PI) (PI) (PHI) (PHI) (SG) (DLTA)
                 (DLTA) (PI) (PI) (PI) (PI) (SG) (DLTA) (DLTA)
                 (PI) (PI) (SG) (SG) (PI) (PI) (SG) (DLTA) (DLTA)
                 (PHI) (PHI) (SG) (PI) (PI) (DLTA) (DLTA) (SG)
                 (PI) (PI) (DLTA) (DLTA) (SG) (SG) (PHI) (PHI)
                 (PI) (PI) (?A) (?A) (DLTA) (DLTA) (PI) (PI) (PHI)
                 (PHI) (SG) (SG) (PI) (PI) (PI) (PI) (DLTA) (DLTA)
                 (SG) (SG) (PI) (PI) (?A) (?A) (PI) (PI) (DLTA)
                 (DLTA) (SG) (SG) (PHI) (PHI) (SG) (DLTA) (DLTA)
                 (PI) (PI) (PHI) (PHI) (DLTA) (DLTA) (SG) (PI)
                 (PI) (PHI) (PHI) (SG) (DLTA) (DLTA) (DLTA) (DLTA)
                 (PI) (PI) (SG) (?A) (?A) (PI) (PI) (?B) (?B) (PHI)
                 (PHI) (?A) (?A) (SG) (PI) (PI) (DLTA) (DLTA) (PHI)
                 (PHI) (SG) (PI) (PI) (SG) (DLTA) (DLTA) (PI) (PI)
                 (SG) (SG) (DLTA) (DLTA) (PI) (PI) (SG) (PI) (PI)
                 (?A) (?A) (SG) (PHI) (PHI) (DLTA) (DLTA) (PI)
                 (PI) (SG) (PHI) (PHI) (PHI) (PHI) (DLTA) (DLTA)
                 (PI) (PI) (DLTA) (DLTA) (SG) (SG) (DLTA) (DLTA)
                 (PI) (PI) (PI) (PI) (SG) (PI) (PI) (?A) (?A) (PHI)
                 (PHI) (SG) (DLTA) (DLTA) (?B) (?B) (?A) (?A) (SG)
                 (PHI) (PHI) (DLTA) (DLTA) (PI) (PI) (PI) (PI)
                 (SG) (SG) (DLTA) (DLTA) (PI) (PI) (SG) (SG) (PI)
                 (PI) (SG) (DLTA) (DLTA) (PI) (PI) (PI) (PI) (SG)
                 (PHI) (PHI) (DLTA) (DLTA) (SG) (PI) (PI) (SG)
                 (?A) (?A) (PHI) (PHI) (DLTA) (DLTA) (PI) (PI)
                 (SG) (SG) (?B) (?B) (?A) (?A) (PHI) (PHI) (DLTA)
                 (DLTA) (SG) (PI) (PI) (SG) (DLTA) (DLTA) (PI)
                 (PI) (SG) (DLTA) (DLTA) (PI) (PI) (SG) (PI) (PI)
                 (SG) (SG) (PI) (PI) (SG) (SG) (DLTA) (DLTA) (PI)
                 (PI) (SG) (PI) (PI) (SG) (PHI) (PHI) (DLTA) (DLTA)
                 (PI) (PI) (SG) (SG) (PI) (PI) (SG) (PI) (PI) (SG)
                 (DLTA) (DLTA) (PI) (PI) (SG) (SG) (DLTA) (DLTA)
                 (PI) (PI) (SG) (SG) (SG) (PI) (PI) (SG) (PI) (PI)
                 (SG) (SG) (DLTA) (DLTA) (PI) (PI) (SG) (SG) (PI)
                 (PI) (SG) (SG) (PI) (PI) (SG) (SG) (SG) (PI) (PI)
                 (SG) (DLTA) (DLTA) (PI) (PI) (SG) (SG) (SG) (PI)
                 (PI) (SG) (SG) (PI) (PI) (SG) (SG) (SG) (PI) (PI)
                 (SG) (SG) (SG) (PI) (PI) (SG) (SG) (PI) (PI) (SG)
                 (SG) (SG) (SG) (SG) (SG) (SG)
 Leave Link  401 at Sun Mar 25 00:44:42 2018, MaxMem= 10737418240 cpu:              73.2 elap:               2.4
 (Enter /home1/apps/gaussian/16rA.03/g16/l502.exe)
 Keep R1 and R2 ints in memory in symmetry-blocked form, NReq=3425113631.
 FoFCou: FMM=F IPFlag=           8 FMFlag=           0 FMFlg1=           0
         NFxFlg=           0 DoJE=F BraDBF=F KetDBF=F FulRan=T
         wScrn=  0.000000 ICntrl=       600 IOpCl=  0 I1Cent=           0 NGrid=           0
         NMat0=    1 NMatS0=  73920 NMatT0=    0 NMatD0=    1 NMtDS0=    0 NMtDT0=    0
 Petite list used in FoFCou.
 Restricted open shell SCF:
 Using DIIS extrapolation, IDIIS=  1040.
 NGot= 10737418240 LenX=  9351085953 LenY=  9350838447
 Requested convergence on RMS density matrix=1.00D-08 within 400 cycles.
 Requested convergence on MAX density matrix=1.00D-06.
 Requested convergence on             energy=1.00D-06.
 No special actions if energy rises.

 Cycle   1  Pass 1  IDiag  1:
 E= -138.254373144532    
 DIIS: error= 4.81D-02 at cycle   1 NSaved=   1.
 NSaved= 1 IEnMin= 1 EnMin= -138.254373144532     IErMin= 1 ErrMin= 4.81D-02
 ErrMax= 4.81D-02  0.00D+00 EMaxC= 1.00D-01 BMatC= 3.16D-01 BMatP= 3.16D-01
 IDIUse=3 WtCom= 5.19D-01 WtEn= 4.81D-01
 Coeff-Com:  0.100D+01
 Coeff-En:   0.100D+01
 Coeff:      0.100D+01
 Gap=     0.127 Goal=   None    Shift=    0.000
 GapD=    0.127 DampG=1.000 DampE=0.250 DampFc=0.2500 IDamp=-1.
 Damping current iteration by 2.50D-01
 RMSDP=1.33D-03 MaxDP=1.01D-01              OVMax= 3.35D-01

 Cycle   2  Pass 1  IDiag  1:
 E= -138.272998557032     Delta-E=       -0.018625412500 Rises=F Damp=T
 DIIS: error= 2.09D-02 at cycle   2 NSaved=   2.
 NSaved= 2 IEnMin= 2 EnMin= -138.272998557032     IErMin= 2 ErrMin= 2.09D-02
 ErrMax= 2.09D-02  0.00D+00 EMaxC= 1.00D-01 BMatC= 7.45D-02 BMatP= 3.16D-01
 IDIUse=3 WtCom= 7.91D-01 WtEn= 2.09D-01
 Coeff-Com: -0.216D+00 0.122D+01
 Coeff-En:   0.329D+00 0.671D+00
 Coeff:     -0.102D+00 0.110D+01
 Gap=     0.036 Goal=   None    Shift=    0.000
 RMSDP=2.92D-03 MaxDP=6.34D-01 DE=-1.86D-02 OVMax= 7.62D-01

 Cycle   3  Pass 1  IDiag  1:
 E= -137.348742171653     Delta-E=        0.924256385379 Rises=F Damp=F
 DIIS: error= 1.75D-01 at cycle   3 NSaved=   3.
 NSaved= 3 IEnMin= 2 EnMin= -138.272998557032     IErMin= 2 ErrMin= 2.09D-02
 ErrMax= 1.75D-01  0.00D+00 EMaxC= 1.00D-01 BMatC= 1.60D+00 BMatP= 7.45D-02
 IDIUse=2 WtCom= 0.00D+00 WtEn= 1.00D+00
 Coeff-En:   0.000D+00 0.802D+00 0.198D+00
 Coeff:      0.000D+00 0.802D+00 0.198D+00
 Gap=     0.008 Goal=   None    Shift=    0.000
 RMSDP=2.95D-03 MaxDP=6.33D-01 DE= 9.24D-01 OVMax= 2.78D-01

 Cycle   4  Pass 1  IDiag  1:
 E= -138.361530807977     Delta-E=       -1.012788636324 Rises=F Damp=F
 DIIS: error= 3.71D-02 at cycle   4 NSaved=   4.
 NSaved= 4 IEnMin= 4 EnMin= -138.361530807977     IErMin= 2 ErrMin= 2.09D-02
 ErrMax= 3.71D-02  0.00D+00 EMaxC= 1.00D-01 BMatC= 1.09D-01 BMatP= 7.45D-02
 IDIUse=2 WtCom= 0.00D+00 WtEn= 1.00D+00
 Coeff-En:   0.000D+00 0.000D+00 0.219D+00 0.781D+00
 Coeff:      0.000D+00 0.000D+00 0.219D+00 0.781D+00
 Gap=     0.100 Goal=   None    Shift=    0.000
 RMSDP=5.87D-04 MaxDP=4.93D-02 DE=-1.01D+00 OVMax= 1.84D-01

 Cycle   5  Pass 1  IDiag  1:
 E= -138.403322026144     Delta-E=       -0.041791218167 Rises=F Damp=F
 DIIS: error= 1.45D-02 at cycle   5 NSaved=   5.
 NSaved= 5 IEnMin= 5 EnMin= -138.403322026144     IErMin= 5 ErrMin= 1.45D-02
 ErrMax= 1.45D-02  0.00D+00 EMaxC= 1.00D-01 BMatC= 1.55D-02 BMatP= 7.45D-02
 IDIUse=3 WtCom= 8.55D-01 WtEn= 1.45D-01
 EnCoef did    16 forward-backward iterations
 Coeff-Com: -0.150D+00 0.160D+00 0.883D-01-0.988D-02 0.912D+00
 Coeff-En:   0.000D+00 0.000D+00 0.185D+00 0.665D-01 0.748D+00
 Coeff:     -0.128D+00 0.137D+00 0.102D+00 0.121D-02 0.888D+00
 Gap=     0.098 Goal=   None    Shift=    0.000
 RMSDP=7.30D-04 MaxDP=7.92D-02 DE=-4.18D-02 OVMax= 1.78D-01

 Cycle   6  Pass 1  IDiag  1:
 E= -138.410576268331     Delta-E=       -0.007254242187 Rises=F Damp=F
 DIIS: error= 9.34D-03 at cycle   6 NSaved=   6.
 NSaved= 6 IEnMin= 6 EnMin= -138.410576268331     IErMin= 6 ErrMin= 9.34D-03
 ErrMax= 9.34D-03  0.00D+00 EMaxC= 1.00D-01 BMatC= 5.27D-03 BMatP= 1.55D-02
 IDIUse=3 WtCom= 9.07D-01 WtEn= 9.34D-02
 Rare condition: small coef for last iteration:  0.444D-15
 Coeff-Com: -0.124D+00 0.179D+00 0.195D-01-0.160D+00 0.452D+00 0.634D+00
 Coeff-En:   0.000D+00 0.000D+00 0.142D+00 0.000D+00 0.359D+00 0.499D+00
 Coeff:     -0.124D+00 0.179D+00 0.195D-01-0.160D+00 0.452D+00 0.634D+00
 Gap=     0.064 Goal=   None    Shift=    0.000
 RMSDP=7.05D-04 MaxDP=5.43D-02 DE=-7.25D-03 OVMax= 1.35D-01

 Cycle   7  Pass 1  IDiag  1:
 E= -138.414528694230     Delta-E=       -0.003952425899 Rises=F Damp=F
 DIIS: error= 7.91D-03 at cycle   7 NSaved=   7.
 NSaved= 7 IEnMin= 7 EnMin= -138.414528694230     IErMin= 7 ErrMin= 7.91D-03
 ErrMax= 7.91D-03  0.00D+00 EMaxC= 1.00D-01 BMatC= 7.92D-03 BMatP= 5.27D-03
 IDIUse=3 WtCom= 9.07D-01 WtEn= 9.34D-02
 EnCoef did   100 forward-backward iterations
 Rare condition: small coef for last iteration:  0.000D+00
 Coeff-Com: -0.118D+00 0.188D+00 0.238D-01-0.324D-01 0.196D+00 0.336D+00
 Coeff-Com:  0.406D+00
 Coeff-En:   0.000D+00 0.000D+00 0.123D+00 0.000D+00 0.000D+00 0.395D+00
 Coeff-En:   0.482D+00
 Coeff:     -0.118D+00 0.188D+00 0.238D-01-0.324D-01 0.196D+00 0.336D+00
 Coeff:      0.406D+00
 Gap=     0.071 Goal=   None    Shift=    0.000
 RMSDP=5.95D-04 MaxDP=4.77D-02 DE=-3.95D-03 OVMax= 1.29D-01

 Cycle   8  Pass 1  IDiag  1:
 E= -138.416753626356     Delta-E=       -0.002224932127 Rises=F Damp=F
 DIIS: error= 7.32D-03 at cycle   8 NSaved=   8.
 NSaved= 8 IEnMin= 8 EnMin= -138.416753626356     IErMin= 8 ErrMin= 7.32D-03
 ErrMax= 7.32D-03  0.00D+00 EMaxC= 1.00D-01 BMatC= 4.73D-03 BMatP= 5.27D-03
 IDIUse=3 WtCom= 9.27D-01 WtEn= 7.32D-02
 EnCoef did   100 forward-backward iterations
 Rare condition: small coef for last iteration:  0.000D+00
 Coeff-Com: -0.116D+00 0.184D+00 0.394D-02-0.133D-01 0.482D-01 0.140D+00
 Coeff-Com:  0.369D+00 0.384D+00
 Coeff-En:   0.000D+00 0.000D+00 0.115D+00 0.000D+00 0.000D+00 0.104D-01
 Coeff-En:   0.408D+00 0.467D+00
 Coeff:     -0.116D+00 0.184D+00 0.394D-02-0.133D-01 0.482D-01 0.140D+00
 Coeff:      0.369D+00 0.384D+00
 Gap=     0.067 Goal=   None    Shift=    0.000
 RMSDP=3.39D-04 MaxDP=3.41D-02 DE=-2.22D-03 OVMax= 7.98D-02

 Cycle   9  Pass 1  IDiag  1:
 E= -138.421573883942     Delta-E=       -0.004820257586 Rises=F Damp=F
 DIIS: error= 6.85D-03 at cycle   9 NSaved=   9.
 NSaved= 9 IEnMin= 9 EnMin= -138.421573883942     IErMin= 9 ErrMin= 6.85D-03
 ErrMax= 6.85D-03  0.00D+00 EMaxC= 1.00D-01 BMatC= 2.23D-03 BMatP= 4.73D-03
 IDIUse=3 WtCom= 9.31D-01 WtEn= 6.85D-02
 EnCoef did   100 forward-backward iterations
 Coeff-Com: -0.120D+00 0.169D+00 0.120D-01 0.245D-01 0.428D-01-0.111D+00
 Coeff-Com:  0.115D+00 0.213D+00 0.656D+00
 Coeff-En:   0.000D+00 0.000D+00 0.181D+00 0.504D-01 0.713D+00 0.470D-02
 Coeff-En:   0.284D-01 0.180D-01 0.421D-02
 Coeff:     -0.112D+00 0.157D+00 0.236D-01 0.262D-01 0.888D-01-0.103D+00
 Coeff:      0.109D+00 0.200D+00 0.611D+00
 Gap=     0.078 Goal=   None    Shift=    0.000
 RMSDP=2.57D-04 MaxDP=2.70D-02 DE=-4.82D-03 OVMax= 5.36D-02

 Cycle  10  Pass 1  IDiag  1:
 E= -138.421286125124     Delta-E=        0.000287758818 Rises=F Damp=F
 DIIS: error= 3.41D-03 at cycle  10 NSaved=  10.
 NSaved=10 IEnMin= 9 EnMin= -138.421573883942     IErMin=10 ErrMin= 3.41D-03
 ErrMax= 3.41D-03  0.00D+00 EMaxC= 1.00D-01 BMatC= 1.23D-03 BMatP= 2.23D-03
 IDIUse=3 WtCom= 9.66D-01 WtEn= 3.41D-02
 EnCoef did   100 forward-backward iterations
 Rare condition: small coef for last iteration: -0.129D-15
 Coeff-Com: -0.849D-01 0.114D+00 0.102D-02-0.354D-01-0.265D-01-0.206D+00
 Coeff-Com: -0.895D-01-0.276D+00 0.749D+00 0.855D+00
 Coeff-En:   0.000D+00 0.000D+00 0.123D+00 0.000D+00 0.000D+00 0.000D+00
 Coeff-En:   0.183D+00 0.000D+00 0.366D+00 0.327D+00
 Coeff:     -0.849D-01 0.114D+00 0.102D-02-0.354D-01-0.265D-01-0.206D+00
 Coeff:     -0.895D-01-0.276D+00 0.749D+00 0.855D+00
 Gap=     0.071 Goal=   None    Shift=    0.000
 RMSDP=2.02D-04 MaxDP=1.47D-02 DE= 2.88D-04 OVMax= 6.29D-02

 Cycle  11  Pass 1  IDiag  1:
 E= -138.423714174032     Delta-E=       -0.002428048908 Rises=F Damp=F
 DIIS: error= 3.71D-03 at cycle  11 NSaved=  11.
 NSaved=11 IEnMin=11 EnMin= -138.423714174032     IErMin=10 ErrMin= 3.41D-03
 ErrMax= 3.71D-03  0.00D+00 EMaxC= 1.00D-01 BMatC= 4.47D-04 BMatP= 1.23D-03
 IDIUse=3 WtCom= 9.66D-01 WtEn= 3.41D-02
 EnCoef did   100 forward-backward iterations
 Rare condition: small coef for last iteration:  0.000D+00
 Coeff-Com: -0.536D-01 0.719D-01 0.251D-03-0.356D-01-0.165D-02-0.126D+00
 Coeff-Com: -0.118D+00-0.321D+00 0.397D+00 0.663D+00 0.524D+00
 Coeff-En:   0.000D+00 0.000D+00 0.122D+00 0.000D+00 0.000D+00 0.000D+00
 Coeff-En:   0.000D+00 0.000D+00 0.000D+00 0.000D+00 0.878D+00
 Coeff:     -0.536D-01 0.719D-01 0.251D-03-0.356D-01-0.165D-02-0.126D+00
 Coeff:     -0.118D+00-0.321D+00 0.397D+00 0.663D+00 0.524D+00
 Gap=     0.075 Goal=   None    Shift=    0.000
 RMSDP=1.33D-04 MaxDP=1.28D-02 DE=-2.43D-03 OVMax= 2.65D-02

 Cycle  12  Pass 1  IDiag  1:
 E= -138.424250187011     Delta-E=       -0.000536012979 Rises=F Damp=F
 DIIS: error= 1.88D-03 at cycle  12 NSaved=  12.
 NSaved=12 IEnMin=12 EnMin= -138.424250187011     IErMin=12 ErrMin= 1.88D-03
 ErrMax= 1.88D-03  0.00D+00 EMaxC= 1.00D-01 BMatC= 1.21D-04 BMatP= 4.47D-04
 IDIUse=3 WtCom= 9.81D-01 WtEn= 1.88D-02
 EnCoef did   100 forward-backward iterations
 Coeff-Com: -0.196D-01 0.273D-01 0.444D-03-0.146D-01 0.165D-01-0.343D-01
 Coeff-Com: -0.757D-01-0.144D+00 0.400D-01 0.211D+00 0.225D+00 0.768D+00
 Coeff-En:   0.000D+00 0.000D+00 0.181D+00 0.471D-01 0.712D+00 0.000D+00
 Coeff-En:   0.101D-01 0.000D+00 0.193D-02 0.717D-03 0.000D+00 0.471D-01
 Coeff:     -0.193D-01 0.268D-01 0.384D-02-0.134D-01 0.296D-01-0.336D-01
 Coeff:     -0.741D-01-0.142D+00 0.393D-01 0.207D+00 0.221D+00 0.755D+00
 Gap=     0.082 Goal=   None    Shift=    0.000
 RMSDP=8.39D-05 MaxDP=2.02D-02 DE=-5.36D-04 OVMax= 2.26D-02

 Cycle  13  Pass 1  IDiag  1:
 E= -138.424561673720     Delta-E=       -0.000311486710 Rises=F Damp=F
 DIIS: error= 1.21D-03 at cycle  13 NSaved=  13.
 NSaved=13 IEnMin=13 EnMin= -138.424561673720     IErMin=13 ErrMin= 1.21D-03
 ErrMax= 1.21D-03  0.00D+00 EMaxC= 1.00D-01 BMatC= 5.05D-05 BMatP= 1.21D-04
 IDIUse=3 WtCom= 9.88D-01 WtEn= 1.21D-02
 EnCoef did   100 forward-backward iterations
 Rare condition: small coef for last iteration:  0.414D-15
 Coeff-Com: -0.174D-02 0.168D-02 0.183D-04-0.101D-01-0.152D-02-0.478D-01
 Coeff-Com: -0.483D-01-0.662D-01 0.526D-01 0.108D+00 0.213D-02 0.331D+00
 Coeff-Com:  0.680D+00
 Coeff-En:   0.000D+00 0.000D+00 0.124D+00 0.000D+00 0.000D+00 0.000D+00
 Coeff-En:   0.000D+00 0.000D+00 0.000D+00 0.000D+00 0.000D+00 0.000D+00
 Coeff-En:   0.876D+00
 Coeff:     -0.174D-02 0.168D-02 0.183D-04-0.101D-01-0.152D-02-0.478D-01
 Coeff:     -0.483D-01-0.662D-01 0.526D-01 0.108D+00 0.213D-02 0.331D+00
 Coeff:      0.680D+00
 Gap=     0.084 Goal=   None    Shift=    0.000
 RMSDP=4.99D-05 MaxDP=6.25D-03 DE=-3.11D-04 OVMax= 2.18D-02

 Cycle  14  Pass 1  IDiag  1:
 E= -138.424753856260     Delta-E=       -0.000192182540 Rises=F Damp=F
 DIIS: error= 8.98D-04 at cycle  14 NSaved=  14.
 NSaved=14 IEnMin=14 EnMin= -138.424753856260     IErMin=14 ErrMin= 8.98D-04
 ErrMax= 8.98D-04  0.00D+00 EMaxC= 1.00D-01 BMatC= 3.45D-05 BMatP= 5.05D-05
 IDIUse=3 WtCom= 9.91D-01 WtEn= 8.98D-03
 EnCoef did   100 forward-backward iterations
 Rare condition: small coef for last iteration:  0.000D+00
 Coeff-Com:  0.142D-01-0.230D-01-0.229D-03 0.944D-02-0.217D-01-0.785D-01
 Coeff-Com: -0.409D-01-0.428D-01 0.192D+00 0.162D+00-0.127D+00-0.408D+00
 Coeff-Com: -0.250D-02 0.137D+01
 Coeff-En:   0.000D+00 0.000D+00 0.122D+00 0.000D+00 0.000D+00 0.000D+00
 Coeff-En:   0.000D+00 0.000D+00 0.000D+00 0.000D+00 0.000D+00 0.000D+00
 Coeff-En:   0.000D+00 0.878D+00
 Coeff:      0.142D-01-0.230D-01-0.229D-03 0.944D-02-0.217D-01-0.785D-01
 Coeff:     -0.409D-01-0.428D-01 0.192D+00 0.162D+00-0.127D+00-0.408D+00
 Coeff:     -0.250D-02 0.137D+01
 Gap=     0.088 Goal=   None    Shift=    0.000
 RMSDP=6.13D-05 MaxDP=6.18D-03 DE=-1.92D-04 OVMax= 3.00D-02

 Cycle  15  Pass 1  IDiag  1:
 E= -138.424955850187     Delta-E=       -0.000201993927 Rises=F Damp=F
 DIIS: error= 9.38D-04 at cycle  15 NSaved=  15.
 NSaved=15 IEnMin=15 EnMin= -138.424955850187     IErMin=14 ErrMin= 8.98D-04
 ErrMax= 9.38D-04  0.00D+00 EMaxC= 1.00D-01 BMatC= 6.29D-05 BMatP= 3.45D-05
 IDIUse=3 WtCom= 9.91D-01 WtEn= 8.98D-03
 EnCoef did   100 forward-backward iterations
 Rare condition: small coef for last iteration:  0.000D+00
 Coeff-Com:  0.168D-01-0.276D-01-0.254D-03 0.306D-01-0.192D-01-0.693D-01
 Coeff-Com: -0.601D-01-0.110D+00 0.279D+00 0.342D+00 0.702D-01-0.420D+00
 Coeff-Com: -0.195D+01 0.169D+01 0.122D+01
 Coeff-En:   0.000D+00 0.000D+00 0.120D+00 0.000D+00 0.000D+00 0.000D+00
 Coeff-En:   0.000D+00 0.000D+00 0.000D+00 0.000D+00 0.000D+00 0.000D+00
 Coeff-En:   0.000D+00 0.000D+00 0.880D+00
 Coeff:      0.168D-01-0.276D-01-0.254D-03 0.306D-01-0.192D-01-0.693D-01
 Coeff:     -0.601D-01-0.110D+00 0.279D+00 0.342D+00 0.702D-01-0.420D+00
 Coeff:     -0.195D+01 0.169D+01 0.122D+01
 Gap=     0.093 Goal=   None    Shift=    0.000
 RMSDP=8.78D-05 MaxDP=1.17D-02 DE=-2.02D-04 OVMax= 3.73D-02

 Cycle  16  Pass 1  IDiag  1:
 E= -138.425157485544     Delta-E=       -0.000201635357 Rises=F Damp=F
 DIIS: error= 7.02D-04 at cycle  16 NSaved=  16.
 NSaved=16 IEnMin=16 EnMin= -138.425157485544     IErMin=16 ErrMin= 7.02D-04
 ErrMax= 7.02D-04  0.00D+00 EMaxC= 1.00D-01 BMatC= 4.23D-05 BMatP= 3.45D-05
 IDIUse=3 WtCom= 9.91D-01 WtEn= 8.98D-03
 EnCoef did   100 forward-backward iterations
 Rare condition: small coef for last iteration:  0.000D+00
 Coeff-Com:  0.768D-02-0.113D-01-0.138D-02 0.203D-01-0.185D-02-0.206D-02
 Coeff-Com: -0.606D-01-0.143D+00 0.908D-01 0.335D+00 0.292D+00 0.428D+00
 Coeff-Com: -0.212D+01-0.120D+00 0.121D+01 0.108D+01
 Coeff-En:   0.000D+00 0.000D+00 0.115D+00 0.000D+00 0.000D+00 0.000D+00
 Coeff-En:   0.000D+00 0.000D+00 0.000D+00 0.000D+00 0.000D+00 0.000D+00
 Coeff-En:   0.000D+00 0.000D+00 0.000D+00 0.885D+00
 Coeff:      0.768D-02-0.113D-01-0.138D-02 0.203D-01-0.185D-02-0.206D-02
 Coeff:     -0.606D-01-0.143D+00 0.908D-01 0.335D+00 0.292D+00 0.428D+00
 Coeff:     -0.212D+01-0.120D+00 0.121D+01 0.108D+01
 Gap=     0.096 Goal=   None    Shift=    0.000
 RMSDP=9.40D-05 MaxDP=1.39D-02 DE=-2.02D-04 OVMax= 3.15D-02

 Cycle  17  Pass 1  IDiag  1:
 E= -138.425243359997     Delta-E=       -0.000085874453 Rises=F Damp=F
 DIIS: error= 3.40D-04 at cycle  17 NSaved=  17.
 NSaved=17 IEnMin=17 EnMin= -138.425243359997     IErMin=17 ErrMin= 3.40D-04
 ErrMax= 3.40D-04  0.00D+00 EMaxC= 1.00D-01 BMatC= 1.94D-05 BMatP= 3.45D-05
 IDIUse=3 WtCom= 9.97D-01 WtEn= 3.40D-03
 EnCoef did   100 forward-backward iterations
 Rare condition: small coef for last iteration:  0.000D+00
 Coeff-Com:  0.431D-02-0.565D-02 0.692D-04-0.206D-02 0.127D-02 0.197D-01
 Coeff-Com: -0.850D-02-0.506D-02-0.692D-01 0.744D-01-0.106D-01 0.275D+00
 Coeff-Com:  0.393D-02-0.609D+00 0.302D-01 0.442D+00 0.859D+00
 Coeff-En:   0.000D+00 0.000D+00 0.111D+00 0.000D+00 0.000D+00 0.000D+00
 Coeff-En:   0.000D+00 0.000D+00 0.000D+00 0.000D+00 0.000D+00 0.000D+00
 Coeff-En:   0.000D+00 0.000D+00 0.000D+00 0.000D+00 0.889D+00
 Coeff:      0.431D-02-0.565D-02 0.692D-04-0.206D-02 0.127D-02 0.197D-01
 Coeff:     -0.850D-02-0.506D-02-0.692D-01 0.744D-01-0.106D-01 0.275D+00
 Coeff:      0.393D-02-0.609D+00 0.302D-01 0.442D+00 0.859D+00
 Gap=     0.097 Goal=   None    Shift=    0.000
 RMSDP=2.35D-05 MaxDP=1.83D-03 DE=-8.59D-05 OVMax= 6.24D-03

 Cycle  18  Pass 1  IDiag  1:
 E= -138.425280918586     Delta-E=       -0.000037558589 Rises=F Damp=F
 DIIS: error= 1.41D-04 at cycle  18 NSaved=  18.
 NSaved=18 IEnMin=18 EnMin= -138.425280918586     IErMin=18 ErrMin= 1.41D-04
 ErrMax= 1.41D-04  0.00D+00 EMaxC= 1.00D-01 BMatC= 2.11D-06 BMatP= 1.94D-05
 IDIUse=3 WtCom= 9.99D-01 WtEn= 1.41D-03
 EnCoef did   100 forward-backward iterations
 Rare condition: small coef for last iteration:  0.000D+00
 Coeff-Com:  0.255D-02-0.281D-02-0.345D-03-0.543D-02-0.322D-02 0.915D-02
 Coeff-Com:  0.662D-02 0.328D-01-0.578D-01-0.305D-01-0.868D-01 0.668D-01
 Coeff-Com:  0.511D+00-0.287D+00-0.271D+00-0.578D-01 0.492D+00 0.681D+00
 Coeff-En:   0.000D+00 0.000D+00 0.109D+00 0.000D+00 0.000D+00 0.000D+00
 Coeff-En:   0.000D+00 0.000D+00 0.000D+00 0.000D+00 0.000D+00 0.000D+00
 Coeff-En:   0.000D+00 0.000D+00 0.000D+00 0.000D+00 0.643D-01 0.827D+00
 Coeff:      0.255D-02-0.281D-02-0.345D-03-0.543D-02-0.322D-02 0.915D-02
 Coeff:      0.662D-02 0.328D-01-0.578D-01-0.305D-01-0.868D-01 0.668D-01
 Coeff:      0.511D+00-0.287D+00-0.271D+00-0.578D-01 0.492D+00 0.681D+00
 Gap=     0.097 Goal=   None    Shift=    0.000
 RMSDP=1.59D-05 MaxDP=4.34D-03 DE=-3.76D-05 OVMax= 2.17D-03

 Cycle  19  Pass 1  IDiag  1:
 E= -138.425283687348     Delta-E=       -0.000002768762 Rises=F Damp=F
 DIIS: error= 1.14D-04 at cycle  19 NSaved=  19.
 NSaved=19 IEnMin=19 EnMin= -138.425283687348     IErMin=19 ErrMin= 1.14D-04
 ErrMax= 1.14D-04  0.00D+00 EMaxC= 1.00D-01 BMatC= 1.14D-06 BMatP= 2.11D-06
 IDIUse=3 WtCom= 9.99D-01 WtEn= 1.14D-03
 EnCoef did   100 forward-backward iterations
 Coeff-Com:  0.987D-03-0.108D-02-0.859D-04-0.279D-02-0.226D-02 0.655D-03
 Coeff-Com:  0.343D-02 0.198D-01-0.160D-01-0.269D-01-0.428D-01-0.195D-01
 Coeff-Com:  0.277D+00-0.363D-01-0.131D+00-0.126D+00 0.221D-01 0.298D+00
 Coeff-Com:  0.783D+00
 Coeff-En:   0.000D+00 0.000D+00 0.182D+00 0.544D-01 0.717D+00 0.000D+00
 Coeff-En:   0.745D-03 0.000D+00 0.000D+00 0.000D+00 0.000D+00 0.000D+00
 Coeff-En:   0.981D-02 0.588D-02 0.150D-01 0.664D-02 0.291D-02 0.387D-04
 Coeff-En:   0.537D-02
 Coeff:      0.986D-03-0.108D-02 0.122D-03-0.272D-02-0.144D-02 0.655D-03
 Coeff:      0.343D-02 0.198D-01-0.160D-01-0.268D-01-0.428D-01-0.195D-01
 Coeff:      0.277D+00-0.363D-01-0.130D+00-0.126D+00 0.221D-01 0.297D+00
 Coeff:      0.782D+00
 Gap=     0.097 Goal=   None    Shift=    0.000
 RMSDP=1.33D-05 MaxDP=2.13D-03 DE=-2.77D-06 OVMax= 2.16D-03

 Cycle  20  Pass 1  IDiag  1:
 E= -138.425285635983     Delta-E=       -0.000001948636 Rises=F Damp=F
 DIIS: error= 1.00D-04 at cycle  20 NSaved=  20.
 NSaved=20 IEnMin=20 EnMin= -138.425285635983     IErMin=20 ErrMin= 1.00D-04
 ErrMax= 1.00D-04  0.00D+00 EMaxC= 1.00D-01 BMatC= 5.49D-07 BMatP= 1.14D-06
 IDIUse=1 WtCom= 1.00D+00 WtEn= 0.00D+00
 Coeff-Com:  0.296D-04 0.108D-03 0.634D-05-0.857D-03-0.124D-03-0.123D-02
 Coeff-Com: -0.145D-02-0.215D-03 0.352D-02-0.189D-03 0.112D-01 0.368D-02
 Coeff-Com: -0.164D-01 0.674D-02 0.152D-01-0.274D-01-0.926D-01-0.336D-01
 Coeff-Com:  0.275D+00 0.859D+00
 Coeff:      0.296D-04 0.108D-03 0.634D-05-0.857D-03-0.124D-03-0.123D-02
 Coeff:     -0.145D-02-0.215D-03 0.352D-02-0.189D-03 0.112D-01 0.368D-02
 Coeff:     -0.164D-01 0.674D-02 0.152D-01-0.274D-01-0.926D-01-0.336D-01
 Coeff:      0.275D+00 0.859D+00
 Gap=     0.096 Goal=   None    Shift=    0.000
 RMSDP=1.59D-05 MaxDP=2.21D-03 DE=-1.95D-06 OVMax= 8.66D-04

 Cycle  21  Pass 1  IDiag  1:
 E= -138.425286193072     Delta-E=       -0.000000557089 Rises=F Damp=F
 DIIS: error= 2.22D-05 at cycle  21 NSaved=  20.
 NSaved=20 IEnMin=20 EnMin= -138.425286193072     IErMin=20 ErrMin= 2.22D-05
 ErrMax= 2.22D-05  0.00D+00 EMaxC= 1.00D-01 BMatC= 3.91D-08 BMatP= 5.49D-07
 IDIUse=1 WtCom= 1.00D+00 WtEn= 0.00D+00
 Coeff-Com: -0.250D-03 0.443D-03-0.704D-04 0.580D-03-0.138D-03-0.168D-03
 Coeff-Com: -0.306D-02 0.298D-02 0.274D-02 0.108D-01 0.648D-02-0.489D-01
 Coeff-Com:  0.116D-02 0.235D-01 0.196D-01-0.222D-01-0.818D-01-0.178D+00
 Coeff-Com:  0.257D+00 0.101D+01
 Coeff:     -0.250D-03 0.443D-03-0.704D-04 0.580D-03-0.138D-03-0.168D-03
 Coeff:     -0.306D-02 0.298D-02 0.274D-02 0.108D-01 0.648D-02-0.489D-01
 Coeff:      0.116D-02 0.235D-01 0.196D-01-0.222D-01-0.818D-01-0.178D+00
 Coeff:      0.257D+00 0.101D+01
 Gap=     0.096 Goal=   None    Shift=    0.000
 RMSDP=1.42D-05 MaxDP=2.85D-03 DE=-5.57D-07 OVMax= 5.41D-04

 Cycle  22  Pass 1  IDiag  1:
 E= -138.425286276529     Delta-E=       -0.000000083457 Rises=F Damp=F
 DIIS: error= 1.34D-05 at cycle  22 NSaved=  20.
 NSaved=20 IEnMin=20 EnMin= -138.425286276529     IErMin=20 ErrMin= 1.34D-05
 ErrMax= 1.34D-05  0.00D+00 EMaxC= 1.00D-01 BMatC= 1.29D-08 BMatP= 3.91D-08
 IDIUse=1 WtCom= 1.00D+00 WtEn= 0.00D+00
 Coeff-Com:  0.317D-04 0.923D-04-0.190D-04 0.287D-03 0.146D-02 0.153D-02
 Coeff-Com: -0.342D-03-0.190D-02-0.386D-02-0.815D-02-0.240D-03 0.982D-02
 Coeff-Com: -0.107D-02 0.100D-01 0.188D-01-0.387D-03-0.133D+00-0.150D+00
 Coeff-Com:  0.328D+00 0.929D+00
 Coeff:      0.317D-04 0.923D-04-0.190D-04 0.287D-03 0.146D-02 0.153D-02
 Coeff:     -0.342D-03-0.190D-02-0.386D-02-0.815D-02-0.240D-03 0.982D-02
 Coeff:     -0.107D-02 0.100D-01 0.188D-01-0.387D-03-0.133D+00-0.150D+00
 Coeff:      0.328D+00 0.929D+00
 Gap=     0.096 Goal=   None    Shift=    0.000
 RMSDP=6.07D-06 MaxDP=1.44D-03 DE=-8.35D-08 OVMax= 2.04D-04

 Cycle  23  Pass 1  IDiag  1:
 E= -138.425286298906     Delta-E=       -0.000000022377 Rises=F Damp=F
 DIIS: error= 5.55D-06 at cycle  23 NSaved=  20.
 NSaved=20 IEnMin=20 EnMin= -138.425286298906     IErMin=20 ErrMin= 5.55D-06
 ErrMax= 5.55D-06  0.00D+00 EMaxC= 1.00D-01 BMatC= 2.30D-09 BMatP= 1.29D-08
 IDIUse=1 WtCom= 1.00D+00 WtEn= 0.00D+00
 Coeff-Com:  0.754D-04-0.174D-03-0.162D-03 0.639D-03 0.114D-02 0.467D-03
 Coeff-Com: -0.126D-02-0.236D-02-0.689D-02 0.304D-02 0.762D-02-0.243D-02
 Coeff-Com:  0.100D-02 0.531D-02 0.925D-02-0.327D-01-0.680D-01 0.487D-02
 Coeff-Com:  0.297D+00 0.783D+00
 Coeff:      0.754D-04-0.174D-03-0.162D-03 0.639D-03 0.114D-02 0.467D-03
 Coeff:     -0.126D-02-0.236D-02-0.689D-02 0.304D-02 0.762D-02-0.243D-02
 Coeff:      0.100D-02 0.531D-02 0.925D-02-0.327D-01-0.680D-01 0.487D-02
 Coeff:      0.297D+00 0.783D+00
 Gap=     0.096 Goal=   None    Shift=    0.000
 RMSDP=6.20D-07 MaxDP=8.85D-05 DE=-2.24D-08 OVMax= 1.30D-04

 Cycle  24  Pass 1  IDiag  1:
 E= -138.425286300170     Delta-E=       -0.000000001264 Rises=F Damp=F
 DIIS: error= 5.08D-06 at cycle  24 NSaved=  20.
 NSaved=20 IEnMin=20 EnMin= -138.425286300170     IErMin=20 ErrMin= 5.08D-06
 ErrMax= 5.08D-06  0.00D+00 EMaxC= 1.00D-01 BMatC= 3.85D-09 BMatP= 2.30D-09
 IDIUse=1 WtCom= 1.00D+00 WtEn= 0.00D+00
 Coeff-Com: -0.182D-03-0.239D-03 0.219D-03 0.881D-03 0.317D-03-0.128D-02
 Coeff-Com: -0.148D-02-0.448D-02 0.727D-02 0.371D-02-0.446D-02-0.410D-02
 Coeff-Com: -0.131D-02 0.113D-01 0.156D-01-0.115D-01-0.106D+00-0.471D-01
 Coeff-Com:  0.764D+00 0.379D+00
 Coeff:     -0.182D-03-0.239D-03 0.219D-03 0.881D-03 0.317D-03-0.128D-02
 Coeff:     -0.148D-02-0.448D-02 0.727D-02 0.371D-02-0.446D-02-0.410D-02
 Coeff:     -0.131D-02 0.113D-01 0.156D-01-0.115D-01-0.106D+00-0.471D-01
 Coeff:      0.764D+00 0.379D+00
 Gap=     0.096 Goal=   None    Shift=    0.000
 RMSDP=5.70D-07 MaxDP=1.11D-04 DE=-1.26D-09 OVMax= 1.01D-04

 Cycle  25  Pass 1  IDiag  1:
 E= -138.425286308519     Delta-E=       -0.000000008349 Rises=F Damp=F
 DIIS: error= 1.52D-06 at cycle  25 NSaved=  20.
 NSaved=20 IEnMin=20 EnMin= -138.425286308519     IErMin=20 ErrMin= 1.52D-06
 ErrMax= 1.52D-06  0.00D+00 EMaxC= 1.00D-01 BMatC= 3.67D-10 BMatP= 2.30D-09
 IDIUse=1 WtCom= 1.00D+00 WtEn= 0.00D+00
 Coeff-Com: -0.452D-04-0.556D-04 0.746D-04-0.452D-06-0.578D-03 0.323D-04
 Coeff-Com: -0.442D-03 0.217D-02 0.837D-03-0.183D-02-0.280D-02-0.273D-02
 Coeff-Com:  0.159D-02 0.970D-02 0.108D-01-0.159D-01-0.999D-01-0.794D-01
 Coeff-Com:  0.213D+00 0.966D+00
 Coeff:     -0.452D-04-0.556D-04 0.746D-04-0.452D-06-0.578D-03 0.323D-04
 Coeff:     -0.442D-03 0.217D-02 0.837D-03-0.183D-02-0.280D-02-0.273D-02
 Coeff:      0.159D-02 0.970D-02 0.108D-01-0.159D-01-0.999D-01-0.794D-01
 Coeff:      0.213D+00 0.966D+00
 Gap=     0.096 Goal=   None    Shift=    0.000
 RMSDP=3.43D-07 MaxDP=5.80D-05 DE=-8.35D-09 OVMax= 1.06D-04

 Cycle  26  Pass 1  IDiag  1:
 E= -138.425286310062     Delta-E=       -0.000000001543 Rises=F Damp=F
 DIIS: error= 8.98D-07 at cycle  26 NSaved=  20.
 NSaved=20 IEnMin=20 EnMin= -138.425286310062     IErMin=20 ErrMin= 8.98D-07
 ErrMax= 8.98D-07  0.00D+00 EMaxC= 1.00D-01 BMatC= 5.60D-11 BMatP= 3.67D-10
 IDIUse=1 WtCom= 1.00D+00 WtEn= 0.00D+00
 Coeff-Com:  0.187D-04 0.370D-04-0.373D-05-0.189D-03-0.118D-03-0.294D-03
 Coeff-Com:  0.936D-03 0.349D-03-0.809D-03-0.879D-03-0.697D-04 0.109D-02
 Coeff-Com:  0.280D-03 0.176D-03 0.922D-02-0.149D-01-0.142D+00 0.317D-01
 Coeff-Com:  0.413D+00 0.703D+00
 Coeff:      0.187D-04 0.370D-04-0.373D-05-0.189D-03-0.118D-03-0.294D-03
 Coeff:      0.936D-03 0.349D-03-0.809D-03-0.879D-03-0.697D-04 0.109D-02
 Coeff:      0.280D-03 0.176D-03 0.922D-02-0.149D-01-0.142D+00 0.317D-01
 Coeff:      0.413D+00 0.703D+00
 Gap=     0.096 Goal=   None    Shift=    0.000
 RMSDP=2.00D-07 MaxDP=2.96D-05 DE=-1.54D-09 OVMax= 3.06D-05

 Cycle  27  Pass 1  IDiag  1:
 E= -138.425286310200     Delta-E=       -0.000000000138 Rises=F Damp=F
 DIIS: error= 2.26D-07 at cycle  27 NSaved=  20.
 NSaved=20 IEnMin=20 EnMin= -138.425286310200     IErMin=20 ErrMin= 2.26D-07
 ErrMax= 2.26D-07  0.00D+00 EMaxC= 1.00D-01 BMatC= 4.89D-12 BMatP= 5.60D-11
 IDIUse=1 WtCom= 1.00D+00 WtEn= 0.00D+00
 Coeff-Com: -0.167D-04 0.390D-04 0.391D-04 0.289D-04-0.391D-04-0.311D-03
 Coeff-Com:  0.175D-03 0.849D-04 0.601D-04 0.125D-03 0.140D-03-0.766D-03
 Coeff-Com:  0.270D-03 0.511D-02 0.528D-02-0.304D-01-0.157D-01 0.178D-02
 Coeff-Com:  0.186D+00 0.848D+00
 Coeff:     -0.167D-04 0.390D-04 0.391D-04 0.289D-04-0.391D-04-0.311D-03
 Coeff:      0.175D-03 0.849D-04 0.601D-04 0.125D-03 0.140D-03-0.766D-03
 Coeff:      0.270D-03 0.511D-02 0.528D-02-0.304D-01-0.157D-01 0.178D-02
 Coeff:      0.186D+00 0.848D+00
 Gap=     0.096 Goal=   None    Shift=    0.000
 RMSDP=5.23D-08 MaxDP=1.40D-05 DE=-1.38D-10 OVMax= 7.87D-06

 Cycle  28  Pass 1  IDiag  1:
 E= -138.425286310206     Delta-E=       -0.000000000006 Rises=F Damp=F
 DIIS: error= 6.55D-08 at cycle  28 NSaved=  20.
 NSaved=20 IEnMin=20 EnMin= -138.425286310206     IErMin=20 ErrMin= 6.55D-08
 ErrMax= 6.55D-08  0.00D+00 EMaxC= 1.00D-01 BMatC= 7.02D-13 BMatP= 4.89D-12
 IDIUse=1 WtCom= 1.00D+00 WtEn= 0.00D+00
 Coeff-Com:  0.207D-04 0.131D-04 0.191D-05-0.391D-04-0.133D-03 0.133D-03
 Coeff-Com:  0.255D-04 0.191D-04 0.452D-04 0.520D-05-0.197D-03-0.109D-03
 Coeff-Com:  0.116D-02 0.373D-02 0.305D-02-0.697D-02-0.318D-01 0.802D-02
 Coeff-Com:  0.321D+00 0.702D+00
 Coeff:      0.207D-04 0.131D-04 0.191D-05-0.391D-04-0.133D-03 0.133D-03
 Coeff:      0.255D-04 0.191D-04 0.452D-04 0.520D-05-0.197D-03-0.109D-03
 Coeff:      0.116D-02 0.373D-02 0.305D-02-0.697D-02-0.318D-01 0.802D-02
 Coeff:      0.321D+00 0.702D+00
 Gap=     0.096 Goal=   None    Shift=    0.000
 RMSDP=1.17D-08 MaxDP=2.04D-06 DE=-6.03D-12 OVMax= 1.11D-06

 Cycle  29  Pass 1  IDiag  1:
 E= -138.425286310208     Delta-E=       -0.000000000002 Rises=F Damp=F
 DIIS: error= 1.44D-08 at cycle  29 NSaved=  20.
 NSaved=20 IEnMin=20 EnMin= -138.425286310208     IErMin=20 ErrMin= 1.44D-08
 ErrMax= 1.44D-08  0.00D+00 EMaxC= 1.00D-01 BMatC= 4.80D-14 BMatP= 7.02D-13
 IDIUse=1 WtCom= 1.00D+00 WtEn= 0.00D+00
 Coeff-Com:  0.534D-05-0.293D-05-0.181D-04-0.173D-04 0.503D-04-0.372D-05
 Coeff-Com: -0.123D-04-0.199D-05-0.928D-05-0.580D-04-0.907D-04 0.123D-03
 Coeff-Com:  0.108D-02 0.279D-02-0.101D-02-0.869D-02-0.543D-02 0.605D-01
 Coeff-Com:  0.220D+00 0.730D+00
 Coeff:      0.534D-05-0.293D-05-0.181D-04-0.173D-04 0.503D-04-0.372D-05
 Coeff:     -0.123D-04-0.199D-05-0.928D-05-0.580D-04-0.907D-04 0.123D-03
 Coeff:      0.108D-02 0.279D-02-0.101D-02-0.869D-02-0.543D-02 0.605D-01
 Coeff:      0.220D+00 0.730D+00
 Gap=     0.096 Goal=   None    Shift=    0.000
 RMSDP=3.01D-09 MaxDP=2.87D-07 DE=-1.65D-12 OVMax= 5.83D-07

 SCF Done:  E(ROHF) =  -138.425286310     A.U. after   29 cycles
            NFock= 29  Conv=0.30D-08     -V/T= 2.6598
 <Sx>= 0.0000 <Sy>= 0.0000 <Sz>= 2.0000 <S**2>= 6.0000 S= 2.0000
 <L.S>=  0.00000000000    
 KE= 8.339755297957D+01 PE=-3.988626398163D+02 EE= 1.407533632062D+02
 Annihilation of the first spin contaminant:
 S**2 before annihilation     6.0000,   after     6.0000
 Leave Link  502 at Sun Mar 25 00:46:35 2018, MaxMem= 10737418240 cpu:            2747.0 elap:             112.5
 (Enter /home1/apps/gaussian/16rA.03/g16/l801.exe)
 Windowed orbitals will be sorted by symmetry type.
 GenMOA:  NOpAll=  4 NOp2=4 NOpUse=  4 JSym2X=1
 FoFJK:  IHMeth= 1 ICntrl=       0 DoSepK=F KAlg= 0 I1Cent=           0 FoldK=F
 IRaf=         0 NMat=       1 IRICut=       1 DoRegI=T DoRafI=F ISym2E= 1 IDoP0=0 IntGTp=1.
 FoFCou: FMM=F IPFlag=           8 FMFlag=      100000 FMFlg1=           0
         NFxFlg=           0 DoJE=F BraDBF=F KetDBF=F FulRan=T
         wScrn=  0.000000 ICntrl=         0 IOpCl=  1 I1Cent=           0 NGrid=           0
         NMat0=    1 NMatS0=      1 NMatT0=    0 NMatD0=    1 NMtDS0=    0 NMtDT0=    0
 Petite list used in FoFCou.
 <Sx>= 0.0000 <Sy>= 0.0000 <Sz>= 2.0000 <S**2>= 6.0000 S= 2.0000
 Range of M.O.s used for correlation:     1   380
 NBasis=   384 NAE=    13 NBE=     9 NFC=     0 NFV=     0
 NROrb=    380 NOA=    13 NOB=     9 NVA=   367 NVB=   371

 **** Warning!!: The largest alpha MO coefficient is  0.28461593D+03


 **** Warning!!: The largest beta MO coefficient is  0.28461681D+03

 Singles contribution to E2=   -0.1110425244D-01
 Leave Link  801 at Sun Mar 25 00:46:56 2018, MaxMem= 10737418240 cpu:             683.4 elap:              21.4
 (Enter /home1/apps/gaussian/16rA.03/g16/l804.exe)
 Open-shell transformation, MDV= 10737418240 ITran=4 ISComp=2.
 Unit  1 TFree=       4438919 TCopy=       3213333.
 Semi-Direct transformation.
 ModeAB=           4 MOrb=            13 LenV=   10733108297
 LASXX=     88669000 LTotXX=    88669000 LenRXX=   178270504
 LTotAB=    89601504 MaxLAS=   604848660 LenRXY=           0
 NonZer=   266939504 LenScr=   401980416 LnRSAI=   604848660
 LnScr1=   910831616 LExtra=    26972553 Total=   2122903749
 MaxDsk= 67108864000 SrtSym=           T ITran=            4
 DoSDTr:  NPSUse= 32
 JobTyp=1 Pass  1:  I=   1 to  13.
 (rs|ai) integrals will be sorted in core.
 Complete sort for first half transformation.
 First half transformation complete.
 Begin second half transformation for I=  10.
 Complete sort for second half transformation.
 Second half transformation complete.
 ModeAB=           4 MOrb=             9 LenV=   10733108297
 LASXX=     62202036 LTotXX=    62202036 LenRXX=   120793668
 LTotAB=    58591632 MaxLAS=   418741380 LenRXY=           0
 NonZer=   182995704 LenScr=   275570688 LnRSAI=   418741380
 LnScr1=   630576128 LExtra=   205243057 Total=   1650924921
 MaxDsk= 67108864000 SrtSym=           T ITran=            4
 DoSDTr:  NPSUse= 32
 JobTyp=2 Pass  1:  I=   1 to   9.
 (rs|ai) integrals will be sorted in core.
 Complete sort for first half transformation.
 First half transformation complete.
 Complete sort for second half transformation.
 Second half transformation complete.
 Spin components of T(2) and E(2):
     alpha-alpha T2 =       0.4172458232D-01 E2=     -0.2083442193D+00
     alpha-beta  T2 =       0.1387043994D+00 E2=     -0.7563455909D+00
     beta-beta   T2 =       0.2911557955D-01 E2=     -0.1198205899D+00
 ANorm=    0.1102920884D+01
 E2 =    -0.1095614652D+01 EUMP2 =    -0.13952090096264D+03
 (S**2,0)=  0.60000D+01           (S**2,1)=  0.60000D+01
 E(PUHF)=      -0.13842528631D+03        E(PMP2)=      -0.13952090096D+03
 Leave Link  804 at Sun Mar 25 00:59:06 2018, MaxMem= 10737418240 cpu:           23331.0 elap:             729.5
 (Enter /home1/apps/gaussian/16rA.03/g16/l913.exe)
 CIDS:  MDV= 10737418240.
 IFCWin=0 IBDFC=1 NFBD=     0     0 NFCmp=     0     0 NFFFC=     0     0
 Using original routines for 1st iteration.
 Using DD4UQ or CC4UQ for 2nd and later iterations.
 Keep R2 and R3 ints in memory in symmetry-blocked form, NReq=3425135935.
 FoFCou: FMM=F IPFlag=           8 FMFlag=           0 FMFlg1=           0
         NFxFlg=           0 DoJE=F BraDBF=F KetDBF=F FulRan=T
         wScrn=  0.000000 ICntrl=       600 IOpCl=  0 I1Cent=           0 NGrid=           0
         NMat0=    1 NMatS0=  73920 NMatT0=    0 NMatD0=    1 NMtDS0=    0 NMtDT0=    0
 Petite list used in FoFCou.
 CIDS: In Core Option IDoMem=           1.
 CCSD(T)
 =======
 Iterations= 150 Convergence= 0.100D-06
 Produce multiple copies of IABC intergrals
 Iteration Nr.   1
 **********************
 DD1Dir will call FoFMem   1 times, MxPair=       348
 NAB=   117 NAA=    78 NBB=    36.
 DD1Dir will call FoFMem   1 times, MxPair=       348
 NAB=   117 NAA=    78 NBB=    36.
 MP4(R+Q)= -0.85654418D-01
 Maximum subspace dimension=  5
 A-vector RMS=  4.7026812D-04 Max=  7.2116572D-03 conv= 1.00D-05.
 RLE energy=       -1.0778675333
 E3=        0.10268427D+00        EROMP3=      -0.13941821669D+03
 E4(SDQ)=  -0.76734835D-01        ROMP4(SDQ)=  -0.13949495153D+03
 VARIATIONAL ENERGIES WITH THE FIRST-ORDER WAVEFUNCTION:
 DE(Corr)=  -1.0775696     E(Corr)=     -139.50285593    
 NORM(A)=   0.10957762D+01
 Iteration Nr.   2
 **********************
 DD1Dir will call FoFMem   1 times, MxPair=       348
 NAB=   117 NAA=    78 NBB=    36.
 A-vector RMS=  4.6528435D-03 Max=  7.9335244D-02 conv= 1.00D-05.
 RLE energy=       -1.0461960171
 DE(Corr)= -0.97254880     E(CORR)=     -139.39783511     Delta= 1.05D-01
 NORM(A)=   0.10893649D+01
 Iteration Nr.   3
 **********************
 DD1Dir will call FoFMem   1 times, MxPair=       348
 NAB=   117 NAA=    78 NBB=    36.
 A-vector RMS=  2.7508745D-03 Max=  4.5219971D-02 conv= 1.00D-05.
 RLE energy=       -1.0473254641
 DE(Corr)= -0.99681430     E(CORR)=     -139.42210061     Delta=-2.43D-02
 NORM(A)=   0.10945660D+01
 Iteration Nr.   4
 **********************
 DD1Dir will call FoFMem   1 times, MxPair=       348
 NAB=   117 NAA=    78 NBB=    36.
 A-vector RMS=  2.6397013D-03 Max=  4.5361490D-02 conv= 1.00D-05.
 RLE energy=       -1.0227682962
 DE(Corr)=  -1.0056615     E(CORR)=     -139.43094785     Delta=-8.85D-03
 NORM(A)=   0.11345481D+01
 Iteration Nr.   5
 **********************
 DD1Dir will call FoFMem   1 times, MxPair=       348
 NAB=   117 NAA=    78 NBB=    36.
 A-vector RMS=  1.5421176D-03 Max=  2.3792567D-02 conv= 1.00D-05.
 RLE energy=       -1.0352964677
 DE(Corr)=  -1.0576169     E(CORR)=     -139.48290317     Delta=-5.20D-02
 NORM(A)=   0.11427261D+01
 Iteration Nr.   6
 **********************
 DD1Dir will call FoFMem   1 times, MxPair=       348
 NAB=   117 NAA=    78 NBB=    36.
 A-vector RMS=  5.9673709D-04 Max=  6.9206455D-03 conv= 1.00D-05.
 RLE energy=       -1.0403905545
 DE(Corr)=  -1.0500095     E(CORR)=     -139.47529578     Delta= 7.61D-03
 NORM(A)=   0.11332725D+01
 Iteration Nr.   7
 **********************
 DD1Dir will call FoFMem   1 times, MxPair=       348
 NAB=   117 NAA=    78 NBB=    36.
 A-vector RMS=  1.2429094D-04 Max=  1.9815167D-03 conv= 1.00D-05.
 RLE energy=       -1.0395377569
 DE(Corr)=  -1.0392968     E(CORR)=     -139.46458308     Delta= 1.07D-02
 NORM(A)=   0.11336485D+01
 Iteration Nr.   8
 **********************
 DD1Dir will call FoFMem   1 times, MxPair=       348
 NAB=   117 NAA=    78 NBB=    36.
 A-vector RMS=  7.1549402D-05 Max=  9.7895514D-04 conv= 1.00D-05.
 RLE energy=       -1.0396779263
 DE(Corr)=  -1.0398580     E(CORR)=     -139.46514434     Delta=-5.61D-04
 NORM(A)=   0.11340588D+01
 Iteration Nr.   9
 **********************
 DD1Dir will call FoFMem   1 times, MxPair=       348
 NAB=   117 NAA=    78 NBB=    36.
 A-vector RMS=  4.1145688D-05 Max=  7.5029865D-04 conv= 1.00D-05.
 RLE energy=       -1.0398551363
 DE(Corr)=  -1.0397033     E(CORR)=     -139.46498957     Delta= 1.55D-04
 NORM(A)=   0.11344538D+01
 Iteration Nr.  10
 **********************
 DD1Dir will call FoFMem   1 times, MxPair=       348
 NAB=   117 NAA=    78 NBB=    36.
 A-vector RMS=  1.7506465D-05 Max=  2.1874857D-04 conv= 1.00D-05.
 RLE energy=       -1.0398299217
 DE(Corr)=  -1.0397835     E(CORR)=     -139.46506983     Delta=-8.03D-05
 NORM(A)=   0.11345061D+01
 Iteration Nr.  11
 **********************
 DD1Dir will call FoFMem   1 times, MxPair=       348
 NAB=   117 NAA=    78 NBB=    36.
 A-vector RMS=  9.6149890D-06 Max=  1.3948742D-04 conv= 1.00D-05.
 RLE energy=       -1.0398401490
 DE(Corr)=  -1.0398370     E(CORR)=     -139.46512329     Delta=-5.35D-05
 NORM(A)=   0.11344707D+01
 Iteration Nr.  12
 **********************
 DD1Dir will call FoFMem   1 times, MxPair=       348
 NAB=   117 NAA=    78 NBB=    36.
 A-vector RMS=  4.3542732D-06 Max=  6.0242071D-05 conv= 1.00D-05.
 RLE energy=       -1.0398373323
 DE(Corr)=  -1.0398286     E(CORR)=     -139.46511492     Delta= 8.37D-06
 NORM(A)=   0.11344428D+01
 Iteration Nr.  13
 **********************
 DD1Dir will call FoFMem   1 times, MxPair=       348
 NAB=   117 NAA=    78 NBB=    36.
 A-vector RMS=  2.6591445D-06 Max=  4.7127187D-05 conv= 1.00D-05.
 RLE energy=       -1.0398193390
 DE(Corr)=  -1.0398234     E(CORR)=     -139.46510973     Delta= 5.19D-06
 NORM(A)=   0.11344087D+01
 Iteration Nr.  14
 **********************
 DD1Dir will call FoFMem   1 times, MxPair=       348
 NAB=   117 NAA=    78 NBB=    36.
 A-vector RMS=  1.3750666D-06 Max=  2.4300348D-05 conv= 1.00D-05.
 RLE energy=       -1.0398180790
 DE(Corr)=  -1.0398216     E(CORR)=     -139.46510795     Delta= 1.78D-06
 NORM(A)=   0.11343968D+01
 Iteration Nr.  15
 **********************
 DD1Dir will call FoFMem   1 times, MxPair=       348
 NAB=   117 NAA=    78 NBB=    36.
 A-vector RMS=  6.7599122D-07 Max=  1.6268832D-05 conv= 1.00D-05.
 RLE energy=       -1.0398166409
 DE(Corr)=  -1.0398177     E(CORR)=     -139.46510405     Delta= 3.90D-06
 NORM(A)=   0.11343948D+01
 Iteration Nr.  16
 **********************
 DD1Dir will call FoFMem   1 times, MxPair=       348
 NAB=   117 NAA=    78 NBB=    36.
 A-vector RMS=  4.7590150D-07 Max=  1.1831044D-05 conv= 1.00D-05.
 RLE energy=       -1.0398180663
 DE(Corr)=  -1.0398184     E(CORR)=     -139.46510472     Delta=-6.75D-07
 NORM(A)=   0.11343966D+01
 Iteration Nr.  17
 **********************
 DD1Dir will call FoFMem   1 times, MxPair=       348
 NAB=   117 NAA=    78 NBB=    36.
 A-vector RMS=  3.4187343D-07 Max=  6.7613833D-06 conv= 1.00D-05.
 RLE energy=       -1.0398187669
 DE(Corr)=  -1.0398182     E(CORR)=     -139.46510453     Delta= 1.91D-07
 NORM(A)=   0.11344006D+01
 Iteration Nr.  18
 **********************
 DD1Dir will call FoFMem   1 times, MxPair=       348
 NAB=   117 NAA=    78 NBB=    36.
 A-vector RMS=  1.8703860D-07 Max=  4.0931875D-06 conv= 1.00D-05.
 RLE energy=       -1.0398199344
 DE(Corr)=  -1.0398195     E(CORR)=     -139.46510579     Delta=-1.26D-06
 NORM(A)=   0.11344029D+01
 Iteration Nr.  19
 **********************
 DD1Dir will call FoFMem   1 times, MxPair=       348
 NAB=   117 NAA=    78 NBB=    36.
 A-vector RMS=  1.2050333D-07 Max=  1.8647920D-06 conv= 1.00D-05.
 RLE energy=       -1.0398199965
 DE(Corr)=  -1.0398196     E(CORR)=     -139.46510595     Delta=-1.56D-07
 NORM(A)=   0.11344044D+01
 Iteration Nr.  20
 **********************
 DD1Dir will call FoFMem   1 times, MxPair=       348
 NAB=   117 NAA=    78 NBB=    36.
 A-vector RMS=  8.1453407D-08 Max=  1.2556167D-06 conv= 1.00D-05.
 RLE energy=       -1.0398202424
 DE(Corr)=  -1.0398202     E(CORR)=     -139.46510646     Delta=-5.13D-07
 NORM(A)=   0.11344045D+01
 Iteration Nr.  21
 **********************
 DD1Dir will call FoFMem   1 times, MxPair=       348
 NAB=   117 NAA=    78 NBB=    36.
 A-vector RMS=  4.1691136D-08 Max=  8.3280262D-07 conv= 1.00D-05.
 RLE energy=       -1.0398200116
 DE(Corr)=  -1.0398200     E(CORR)=     -139.46510631     Delta= 1.54D-07
 NORM(A)=   0.11344043D+01
 Iteration Nr.  22
 **********************
 DD1Dir will call FoFMem   1 times, MxPair=       348
 NAB=   117 NAA=    78 NBB=    36.
 A-vector RMS=  3.4409904D-08 Max=  6.1138226D-07 conv= 1.00D-05.
 RLE energy=       -1.0398200544
 DE(Corr)=  -1.0398201     E(CORR)=     -139.46510641     Delta=-1.02D-07
 NORM(A)=   0.11344041D+01
 Iteration Nr.  23
 **********************
 DD1Dir will call FoFMem   1 times, MxPair=       348
 NAB=   117 NAA=    78 NBB=    36.
 A-vector RMS=  1.8043703D-08 Max=  3.3496970D-07 conv= 1.00D-05.
 RLE energy=       -1.0398199189
 DE(Corr)=  -1.0398200     E(CORR)=     -139.46510627     Delta= 1.40D-07
 NORM(A)=   0.11344039D+01
 Iteration Nr.  24
 **********************
 DD1Dir will call FoFMem   1 times, MxPair=       348
 NAB=   117 NAA=    78 NBB=    36.
 A-vector RMS=  1.2585717D-08 Max=  2.9873624D-07 conv= 1.00D-05.
 RLE energy=       -1.0398199755
 DE(Corr)=  -1.0398200     E(CORR)=     -139.46510629     Delta=-2.17D-08
 NORM(A)=   0.11344039D+01
 CI/CC converged in   24 iterations to DelEn=-2.17D-08 Conv= 1.00D-07 ErrA1= 1.26D-08 Conv= 1.00D-05
 Wavefunction amplitudes converged. E(Corr)=     -139.46510629    
 Dominant configurations:
 ***********************
 Spin Case        I    J    A    B          Value
    BB            8        37           -0.108838D+00
    BB            9        36           -0.108838D+00
 Largest amplitude= 1.09D-01
 Time for triples=   154271.95 seconds.
 T4(CCSD)= -0.63794120D-01
 T5(CCSD)=  0.14669199D-01
 CCSD(T)= -0.13951423121D+03
 Discarding MO integrals.
 Leave Link  913 at Sun Mar 25 02:43:11 2018, MaxMem= 10737418240 cpu:          198633.9 elap:            6244.5
 (Enter /home1/apps/gaussian/16rA.03/g16/l601.exe)
 Copying SCF densities to generalized density rwf, IOpCl= 0 IROHF=1.

 **********************************************************************

            Population analysis using the SCF density.

 **********************************************************************

 Orbital symmetries:
       Occupied  (SG) (SG) (PI) (PI) (SG) (DLTA) (SG) (PI) (PI)
                 (DLTA) (SG) (PI) (PI)
       Virtual   (SG) (PI) (PI) (SG) (SG) (PI) (PI) (DLTA) (DLTA)
                 (SG) (PI) (PI) (SG) (SG) (PI) (PI) (DLTA) (DLTA)
                 (SG) (SG) (PI) (PI) (PI) (PI) (SG) (SG) (SG) (PI)
                 (PI) (DLTA) (DLTA) (DLTA) (PHI) (PHI) (DLTA) (SG)
                 (PI) (PI) (SG) (PI) (PI) (DLTA) (DLTA) (PI) (PI)
                 (SG) (SG) (PI) (PI) (SG) (PHI) (PHI) (?A) (?A)
                 (SG) (PI) (PI) (?A) (?A) (SG) (PI) (PI) (DLTA)
                 (DLTA) (SG) (PHI) (PHI) (SG) (PI) (PI) (?B) (?B)
                 (DLTA) (DLTA) (PI) (PI) (PHI) (PHI) (SG) (SG)
                 (PI) (PI) (PI) (PI) (DLTA) (DLTA) (SG) (SG) (PI)
                 (PI) (DLTA) (?B) (?B) (DLTA) (PI) (PI) (SG) (SG)
                 (PHI) (PHI) (PI) (PI) (SG) (DLTA) (DLTA) (PHI)
                 (PHI) (DLTA) (DLTA) (SG) (PI) (PI) (PHI) (PHI)
                 (SG) (DLTA) (DLTA) (DLTA) (DLTA) (PI) (PI) (SG)
                 (?C) (?C) (?D) (?D) (?B) (?B) (?B) (?B) (?D) (?D)
                 (SG) (PI) (PI) (DLTA) (DLTA) (PHI) (PHI) (SG)
                 (PI) (PI) (SG) (DLTA) (DLTA) (PI) (PI) (SG) (SG)
                 (DLTA) (DLTA) (PI) (PI) (SG) (PI) (PI) (?B) (?B)
                 (SG) (PHI) (PHI) (DLTA) (DLTA) (PI) (PI) (SG)
                 (PHI) (PHI) (DLTA) (DLTA) (PHI) (PHI) (PI) (PI)
                 (DLTA) (DLTA) (SG) (SG) (PI) (PI) (DLTA) (DLTA)
                 (PI) (PI) (SG) (?D) (?D) (?E) (?E) (?D) (?D) (?E)
                 (DLTA) (DLTA) (?C) (?C) (?F) (?F) (PHI) (PHI)
                 (?F) (DLTA) (DLTA) (PI) (PI) (PI) (PI) (SG) (SG)
                 (DLTA) (DLTA) (PI) (PI) (SG) (SG) (PI) (PI) (SG)
                 (DLTA) (DLTA) (PI) (PI) (PI) (PI) (SG) (PHI) (PHI)
                 (DLTA) (DLTA) (SG) (PI) (PI) (SG) (?D) (?D) (?B)
                 (?B) (DLTA) (DLTA) (?D) (?D) (SG) (SG) (?G) (?G)
                 (?H) (?H) (?H) (?H) (DLTA) (?G) (DLTA) (?H) (?H)
                 (SG) (DLTA) (DLTA) (PI) (PI) (SG) (DLTA) (DLTA)
                 (PI) (PI) (SG) (PI) (PI) (SG) (SG) (PI) (PI) (SG)
                 (SG) (DLTA) (DLTA) (PI) (PI) (SG) (PI) (PI) (SG)
                 (PHI) (PHI) (DLTA) (DLTA) (PI) (PI) (SG) (SG)
                 (PI) (PI) (SG) (PI) (PI) (SG) (DLTA) (DLTA) (PI)
                 (PI) (SG) (SG) (DLTA) (DLTA) (PI) (PI) (SG) (SG)
                 (SG) (PI) (PI) (SG) (PI) (PI) (SG) (SG) (DLTA)
                 (DLTA) (PI) (PI) (SG) (SG) (PI) (PI) (SG) (SG)
                 (PI) (PI) (SG) (SG) (SG) (PI) (PI) (SG) (DLTA)
                 (DLTA) (PI) (PI) (SG) (SG) (SG) (PI) (PI) (SG)
                 (SG) (PI) (PI) (SG) (SG) (SG) (PI) (PI) (SG) (SG)
                 (SG) (PI) (PI) (SG) (SG) (PI) (PI) (SG) (SG) (SG)
                 (SG) (SG) (SG) (SG)
 Unable to determine electronic state:  partially filled degenerate orbitals.
 Alpha  occ. eigenvalues --   -4.35488  -2.99818  -2.94609  -2.94609  -1.24653
 Alpha  occ. eigenvalues --   -0.72406  -0.72406  -0.63408  -0.59036  -0.58055
 Alpha  occ. eigenvalues --   -0.41718  -0.41718  -0.32881
 Alpha virt. eigenvalues --    0.00167   0.02085   0.02085   0.03306   0.03900
 Alpha virt. eigenvalues --    0.06375   0.06375   0.06627   0.06637   0.06779
 Alpha virt. eigenvalues --    0.07892   0.07892   0.12005   0.14760   0.19350
 Alpha virt. eigenvalues --    0.19350   0.21003   0.21056   0.21187   0.21961
 Alpha virt. eigenvalues --    0.22589   0.22589   0.25428   0.25428   0.32917
 Alpha virt. eigenvalues --    0.45719   0.49901   0.54551   0.54551   0.54976
 Alpha virt. eigenvalues --    0.55072   0.57162   0.57699   0.57968   0.57968
 Alpha virt. eigenvalues --    0.59165   0.59165   0.59578   0.68379   0.71906
 Alpha virt. eigenvalues --    0.71906   0.72349   0.72466   0.77425   0.77425
 Alpha virt. eigenvalues --    0.81137   0.86396   1.10140   1.10140   1.20597
 Alpha virt. eigenvalues --    1.44322   1.44322   1.49157   1.49876   1.51027
 Alpha virt. eigenvalues --    1.51055   1.51055   1.55429   1.56424   1.58968
 Alpha virt. eigenvalues --    1.63152   1.63152   1.67448   1.67537   1.71173
 Alpha virt. eigenvalues --    1.76948   1.76948   1.78895   1.80582   1.80582
 Alpha virt. eigenvalues --    1.87764   1.87766   1.94348   1.94862   2.04005
 Alpha virt. eigenvalues --    2.04005   2.06940   2.06940   2.10432   2.23244
 Alpha virt. eigenvalues --    2.36488   2.36488   2.54353   2.54808   2.54808
 Alpha virt. eigenvalues --    2.54947   2.85681   2.98734   3.55029   3.55029
 Alpha virt. eigenvalues --    3.69901   3.71020   3.71020   3.72110   3.73378
 Alpha virt. eigenvalues --    3.73379   3.80662   3.89717   3.97524   3.97524
 Alpha virt. eigenvalues --    4.13941   4.13941   4.14912   4.16571   4.16951
 Alpha virt. eigenvalues --    4.19901   4.19901   4.29824   4.29873   4.32210
 Alpha virt. eigenvalues --    4.62121   4.62121   4.73464   4.73464   4.79888
 Alpha virt. eigenvalues --    4.81229   4.81404   4.91286   4.92255   4.97938
 Alpha virt. eigenvalues --    4.97938   5.16096   5.27836   5.27836   5.31540
 Alpha virt. eigenvalues --    5.31540   5.32746   5.32755   5.35673   5.35675
 Alpha virt. eigenvalues --    5.39073   5.39073   5.44073   5.57035   5.57035
 Alpha virt. eigenvalues --    5.68073   5.69278   5.87098   5.87098   6.12715
 Alpha virt. eigenvalues --    6.50379   6.50379   6.76677   6.87457   6.88412
 Alpha virt. eigenvalues --    7.24886   7.24886   7.37125   7.84287   8.03743
 Alpha virt. eigenvalues --    8.06735   8.28007   8.28007   8.43204  10.03451
 Alpha virt. eigenvalues --   10.03451  10.72988  10.72988  10.80888  10.84448
 Alpha virt. eigenvalues --   10.84448  11.05335  11.05559  11.07930  11.07930
 Alpha virt. eigenvalues --   11.30230  11.78921  11.78921  11.85711  11.88403
 Alpha virt. eigenvalues --   11.98418  11.98418  12.15501  12.15501  12.25017
 Alpha virt. eigenvalues --   12.25194  12.37902  12.65254  12.71898  12.71898
 Alpha virt. eigenvalues --   12.80917  12.81028  12.96935  12.96935  13.02996
 Alpha virt. eigenvalues --   13.38448  13.38448  13.49171  13.49193  13.50380
 Alpha virt. eigenvalues --   13.50380  13.76568  13.76679  13.79029  14.28474
 Alpha virt. eigenvalues --   14.28507  14.28507  14.28517  14.44177  14.44177
 Alpha virt. eigenvalues --   14.48202  14.73333  14.75408  14.88125  14.88125
 Alpha virt. eigenvalues --   14.91564  14.91564  15.38105  15.59377  15.61913
 Alpha virt. eigenvalues --   15.65383  15.79208  15.79208  16.56281  17.55361
 Alpha virt. eigenvalues --   26.16690  26.16690  26.90850  28.11336  28.15078
 Alpha virt. eigenvalues --   28.16889  28.16889  28.50245  28.50245  28.55472
 Alpha virt. eigenvalues --   28.81602  28.81602  28.85261  28.87997  29.30810
 Alpha virt. eigenvalues --   29.32562  29.32562  30.55279  32.09106  32.09106
 Alpha virt. eigenvalues --   32.10846  32.10866  32.21430  32.24196  32.59537
 Alpha virt. eigenvalues --   32.59537  32.69284  34.68660  35.77634  35.77697
 Alpha virt. eigenvalues --   35.80226  35.80226  35.83743  35.83743  35.95742
 Alpha virt. eigenvalues --   35.98069  35.98486  36.01417  36.01417  36.26217
 Alpha virt. eigenvalues --   46.79020  46.79024  47.24841  47.24841  48.11743
 Alpha virt. eigenvalues --   48.42234  48.46159  48.49486  48.49486  48.91736
 Alpha virt. eigenvalues --   49.81133  49.81133  51.16616  67.96512  69.87657
 Alpha virt. eigenvalues --   69.87657  70.87002  82.55333  84.88998  84.92381
 Alpha virt. eigenvalues --   84.95405  84.95405  85.33066  92.70786  92.70786
 Alpha virt. eigenvalues --   94.22892 102.98771 102.98771 103.01306 103.01307
 Alpha virt. eigenvalues --  103.06402 103.06402 103.10219 121.36980 154.62624
 Alpha virt. eigenvalues --  154.62624 155.44854 172.04232 172.04232 172.55612
 Alpha virt. eigenvalues --  173.50372 173.52308 173.56231 173.56231 173.71639
 Alpha virt. eigenvalues --  175.36335 206.76260 206.76261 207.00282 207.00282
 Alpha virt. eigenvalues --  207.48379 209.82968 314.38878 317.13141 317.13141
 Alpha virt. eigenvalues --  318.82945 324.85219 324.85219 325.60638 357.82016
 Alpha virt. eigenvalues --  445.76760 445.77417 445.81822 445.81822 446.02641
 Alpha virt. eigenvalues --  562.64793 591.04910 591.04910 592.42172 611.97042
 Alpha virt. eigenvalues --  691.08560 691.08560 691.779461051.391161089.86160
 Alpha virt. eigenvalues -- 1137.979381137.979381139.269361463.525501463.52681
 Alpha virt. eigenvalues -- 1463.562341463.562341463.698662052.930872262.19710
 Alpha virt. eigenvalues -- 2309.421742309.421742310.614424208.401785042.66175
 Alpha virt. eigenvalues -- 5042.661755043.735266140.879609087.72120**********
 Alpha virt. eigenvalues -- **************************************************
 Alpha virt. eigenvalues -- **************************************************
 Alpha virt. eigenvalues -- **************************************************
 Alpha virt. eigenvalues -- ********************
     Molecular Orbital Coefficients:
                           5         6         7         8         9
                           O         O         O         O         O
     Eigenvalues --    -1.24653  -0.72406  -0.72406  -0.63408  -0.59036
   1 1   Fe 1S         -0.00000  -0.00000  -0.00000   0.00000   0.00000
   2        2S          0.00000   0.00000   0.00000   0.00000   0.00000
   3        3S         -0.00000  -0.00000  -0.00000   0.00000   0.00000
   4        4S          0.00000   0.00000   0.00000   0.00000   0.00000
   5        5S         -0.00000  -0.00000  -0.00000   0.00000   0.00000
   6        6S          0.00000   0.00000   0.00000   0.00000   0.00000
   7        7S         -0.00000  -0.00000  -0.00000   0.00000   0.00000
   8        8S          0.00001   0.00000   0.00001   0.00000   0.00000
   9        9S         -0.00002   0.00000  -0.00002   0.00000   0.00000
  10       10S          0.00005  -0.00000   0.00005   0.00000   0.00000
  11       11S         -0.00015   0.00000  -0.00013   0.00000   0.00000
  12       12S          0.00039  -0.00000   0.00033   0.00000   0.00000
  13       13S         -0.00057   0.00000  -0.00047   0.00000   0.00000
  14       14S         -0.00658   0.00000  -0.00629   0.00000   0.00000
  15       15S          0.02042  -0.00000   0.01958   0.00000   0.00000
  16       16S          0.02974  -0.00000   0.02856   0.00000   0.00000
  17       17S         -0.03571   0.00000  -0.02780   0.00000   0.00000
  18       18S         -0.09622   0.00000  -0.07645   0.00000   0.00000
  19       19S         -0.06704   0.00000  -0.08745   0.00000   0.00000
  20       20S         -0.00595  -0.00000   0.05477   0.00000   0.00000
  21       21S         -0.00598  -0.00000   0.10776   0.00000   0.00000
  22       22S         -0.00442  -0.00000   0.00880   0.00000   0.00000
  23       23S          0.01103  -0.00000   0.00820   0.00000   0.00000
  24       24S         -0.01705   0.00000  -0.03847   0.00000   0.00000
  25       25S          0.00122  -0.00000   0.00140   0.00000   0.00000
  26       26PX         0.00000   0.00000   0.00000   0.00000   0.00000
  27       26PY         0.00000   0.00000   0.00000   0.00000   0.00000
  28       26PZ        -0.00000  -0.00000  -0.00000   0.00000   0.00000
  29       27PX         0.00000   0.00000   0.00000   0.00000  -0.00000
  30       27PY         0.00000   0.00000   0.00000  -0.00000   0.00000
  31       27PZ         0.00000   0.00000   0.00000   0.00000   0.00000
  32       28PX         0.00000   0.00000   0.00000   0.00000   0.00000
  33       28PY         0.00000   0.00000   0.00000   0.00000   0.00000
  34       28PZ        -0.00000   0.00000  -0.00000   0.00000   0.00000
  35       29PX         0.00000   0.00000   0.00000   0.00000  -0.00000
  36       29PY         0.00000   0.00000   0.00000  -0.00000   0.00000
  37       29PZ         0.00000  -0.00000   0.00000   0.00000   0.00000
  38       30PX         0.00000   0.00000   0.00000   0.00000   0.00001
  39       30PY         0.00000   0.00000   0.00000   0.00001   0.00000
  40       30PZ        -0.00002   0.00000  -0.00001   0.00000   0.00000
  41       31PX         0.00000   0.00000   0.00000   0.00000  -0.00002
  42       31PY         0.00000   0.00000   0.00000  -0.00002   0.00000
  43       31PZ         0.00007  -0.00000   0.00003   0.00000   0.00000
  44       32PX         0.00000   0.00000   0.00000   0.00000   0.00008
  45       32PY         0.00000   0.00000   0.00000   0.00008   0.00000
  46       32PZ        -0.00023   0.00000  -0.00012   0.00000   0.00000
  47       33PX         0.00000   0.00000   0.00000   0.00000  -0.00035
  48       33PY         0.00000   0.00000   0.00000  -0.00035   0.00000
  49       33PZ         0.00093  -0.00000   0.00050   0.00000   0.00000
  50       34PX         0.00000   0.00000   0.00000   0.00000   0.00047
  51       34PY         0.00000   0.00000   0.00000   0.00047   0.00000
  52       34PZ        -0.00160   0.00000  -0.00086   0.00000   0.00000
  53       35PX         0.00000   0.00000   0.00000   0.00000   0.00731
  54       35PY         0.00000   0.00000   0.00000   0.00731   0.00000
  55       35PZ        -0.01231   0.00000  -0.00688   0.00000   0.00000
  56       36PX         0.00000   0.00000   0.00000   0.00000   0.02329
  57       36PY         0.00000   0.00000   0.00000   0.02329   0.00000
  58       36PZ        -0.00580   0.00000  -0.00053   0.00000   0.00000
  59       37PX         0.00000   0.00000   0.00000   0.00000  -0.02218
  60       37PY         0.00000   0.00000   0.00000  -0.02218   0.00000
  61       37PZ         0.03872  -0.00000   0.02101   0.00000   0.00000
  62       38PX         0.00000   0.00000   0.00000   0.00000  -0.00082
  63       38PY         0.00000   0.00000   0.00000  -0.00082   0.00000
  64       38PZ         0.04125  -0.00000   0.02762   0.00000   0.00000
  65       39PX         0.00000   0.00000   0.00000   0.00000  -0.05379
  66       39PY         0.00000   0.00000   0.00000  -0.05379   0.00000
  67       39PZ         0.08507  -0.00000   0.04581   0.00000   0.00000
  68       40PX         0.00000   0.00000   0.00000   0.00000  -0.00439
  69       40PY         0.00000   0.00000   0.00000  -0.00439   0.00000
  70       40PZ         0.03189  -0.00000   0.01508   0.00000   0.00000
  71       41PX         0.00000   0.00000   0.00000   0.00000   0.03221
  72       41PY         0.00000   0.00000   0.00000   0.03221   0.00000
  73       41PZ        -0.00137   0.00000  -0.03057   0.00000   0.00000
  74       42PX         0.00000   0.00000   0.00000   0.00000   0.02190
  75       42PY         0.00000   0.00000   0.00000   0.02190   0.00000
  76       42PZ         0.00227   0.00000  -0.02047   0.00000   0.00000
  77       43PX         0.00000   0.00000   0.00000   0.00000   0.00174
  78       43PY         0.00000   0.00000   0.00000   0.00174   0.00000
[...]
 166       62F 0        0.00012   0.00006   0.00006   0.00001
 167       62F+1        0.00004   0.00002   0.00002  -0.00000
 168       62F-1        0.00004   0.00002   0.00002  -0.00000
 169       62F+2       -0.00000  -0.00000  -0.00000  -0.00000
 170       62F-2       -0.00000  -0.00000  -0.00000  -0.00000
 171       62F+3        0.00002   0.00001   0.00001   0.00000
 172       62F-3        0.00002   0.00001   0.00001   0.00000
 173       63F 0        0.00300   0.00154   0.00146   0.00008
 174       63F+1        0.00139   0.00075   0.00064   0.00010
 175       63F-1        0.00139   0.00075   0.00064   0.00010
 176       63F+2        0.00001   0.00000   0.00000   0.00000
 177       63F-2        0.00001   0.00001   0.00000   0.00001
 178       63F+3        0.00004   0.00002   0.00002  -0.00000
 179       63F-3        0.00004   0.00002   0.00002  -0.00000
 180       64F 0        0.00558   0.00285   0.00273   0.00013
 181       64F+1        0.01253   0.00741   0.00513   0.00228
 182       64F-1        0.01253   0.00741   0.00513   0.00228
 183       64F+2        0.00008   0.00004   0.00004   0.00000
 184       64F-2        0.00008   0.00008   0.00000   0.00008
 185       64F+3        0.00002   0.00001   0.00001   0.00000
 186       64F-3        0.00002   0.00001   0.00001   0.00000
 187       65F 0       -0.00401  -0.00240  -0.00162  -0.00078
 188       65F+1        0.00041   0.00080  -0.00039   0.00119
 189       65F-1        0.00041   0.00080  -0.00039   0.00119
 190       65F+2        0.00005   0.00003   0.00003   0.00000
 191       65F-2        0.00004   0.00004   0.00000   0.00004
 192       65F+3        0.00000   0.00000   0.00000   0.00000
 193       65F-3        0.00000   0.00000   0.00000   0.00000
 194       66G 0        0.00000   0.00000   0.00000   0.00000
 195       66G+1        0.00000   0.00000   0.00000   0.00000
 196       66G-1        0.00000   0.00000   0.00000   0.00000
 197       66G+2        0.00000   0.00000   0.00000   0.00000
 198       66G-2        0.00000   0.00000   0.00000   0.00000
 199       66G+3        0.00000   0.00000   0.00000   0.00000
 200       66G-3        0.00000   0.00000   0.00000   0.00000
 201       66G+4        0.00000   0.00000   0.00000   0.00000
 202       66G-4        0.00000   0.00000   0.00000   0.00000
 203       67G 0        0.00007   0.00004   0.00004  -0.00000
 204       67G+1        0.00002   0.00001   0.00001  -0.00000
 205       67G-1        0.00002   0.00001   0.00001  -0.00000
 206       67G+2        0.00000   0.00000   0.00000  -0.00000
 207       67G-2        0.00001   0.00001   0.00000   0.00001
 208       67G+3        0.00000   0.00000   0.00000   0.00000
 209       67G-3        0.00000   0.00000   0.00000   0.00000
 210       67G+4        0.00000   0.00000   0.00000   0.00000
 211       67G-4        0.00000   0.00000   0.00000   0.00000
 212       68G 0        0.00129   0.00064   0.00065  -0.00001
 213       68G+1        0.00099   0.00048   0.00051  -0.00003
 214       68G-1        0.00099   0.00048   0.00051  -0.00003
 215       68G+2        0.00001   0.00001   0.00001  -0.00000
 216       68G-2        0.00001   0.00001   0.00000   0.00001
 217       68G+3        0.00000   0.00000   0.00000   0.00000
 218       68G-3        0.00000   0.00000   0.00000   0.00000
 219       68G+4        0.00000   0.00000   0.00000   0.00000
 220       68G-4        0.00000   0.00000   0.00000   0.00000
 221       69G 0        0.00008   0.00006   0.00002   0.00004
 222       69G+1        0.00202   0.00114   0.00088   0.00026
 223       69G-1        0.00202   0.00114   0.00088   0.00026
 224       69G+2        0.00000   0.00000   0.00000   0.00000
 225       69G-2       -0.00000  -0.00000   0.00000  -0.00000
 226       69G+3        0.00000   0.00000   0.00000   0.00000
 227       69G-3        0.00000   0.00000   0.00000   0.00000
 228       69G+4        0.00000   0.00000   0.00000   0.00000
 229       69G-4        0.00000   0.00000   0.00000   0.00000
 230       70H 0        0.00000   0.00000   0.00000   0.00000
 231       70H+1        0.00000   0.00000   0.00000  -0.00000
 232       70H-1        0.00000   0.00000   0.00000  -0.00000
 233       70H+2        0.00000   0.00000   0.00000  -0.00000
 234       70H-2        0.00000   0.00000   0.00000   0.00000
 235       70H+3        0.00000   0.00000   0.00000   0.00000
 236       70H-3        0.00000   0.00000   0.00000   0.00000
 237       70H+4        0.00000   0.00000   0.00000   0.00000
 238       70H-4       -0.00000  -0.00000   0.00000  -0.00000
 239       70H+5        0.00000   0.00000   0.00000   0.00000
 240       70H-5        0.00000   0.00000   0.00000   0.00000
 241       71H 0        0.00003   0.00001   0.00001  -0.00000
 242       71H+1        0.00001   0.00001   0.00001  -0.00000
 243       71H-1        0.00001   0.00001   0.00001  -0.00000
 244       71H+2        0.00000   0.00000   0.00000   0.00000
 245       71H-2        0.00000   0.00000   0.00000   0.00000
 246       71H+3        0.00000   0.00000   0.00000   0.00000
 247       71H-3        0.00000   0.00000   0.00000   0.00000
 248       71H+4        0.00000   0.00000   0.00000  -0.00000
 249       71H-4        0.00000   0.00000   0.00000   0.00000
 250       71H+5        0.00000   0.00000   0.00000  -0.00000
 251       71H-5        0.00000   0.00000   0.00000  -0.00000
 252       72H 0        0.00028   0.00014   0.00014  -0.00000
 253       72H+1        0.00043   0.00021   0.00022  -0.00001
 254       72H-1        0.00043   0.00021   0.00022  -0.00001
 255       72H+2        0.00000   0.00000   0.00000  -0.00000
 256       72H-2        0.00000   0.00000   0.00000   0.00000
 257       72H+3        0.00000   0.00000   0.00000   0.00000
 258       72H-3        0.00000   0.00000   0.00000   0.00000
 259       72H+4        0.00000   0.00000   0.00000   0.00000
 260       72H-4       -0.00000  -0.00000   0.00000  -0.00000
 261       72H+5        0.00000   0.00000   0.00000   0.00000
 262       72H-5        0.00000   0.00000   0.00000   0.00000
 263 2   O  1S         -0.00000  -0.00000  -0.00000   0.00000
 264        2S          0.00000   0.00000   0.00000  -0.00000
 265        3S         -0.00000  -0.00000  -0.00000   0.00000
 266        4S          0.00000   0.00000   0.00000  -0.00000
 267        5S         -0.00000  -0.00000  -0.00000   0.00000
 268        6S         -0.00008  -0.00004  -0.00004   0.00000
 269        7S         -0.00066  -0.00032  -0.00034   0.00001
 270        8S         -0.09215  -0.04607  -0.04608   0.00000
 271        9S         -0.07646  -0.03829  -0.03818  -0.00011
 272       10S          0.42800   0.21430   0.21371   0.00059
 273       11S          1.06830   0.53421   0.53409   0.00012
 274       12S          0.58611   0.29032   0.29579  -0.00547
 275       13S          0.05576   0.02786   0.02789  -0.00003
 276       14S          0.00039   0.00019   0.00020  -0.00001
 277       15S          0.00003   0.00001   0.00002  -0.00000
 278       16S          0.05475   0.01663   0.03811  -0.02148
 279       17PX        -0.00017  -0.00009  -0.00008  -0.00001
 280       17PY        -0.00017  -0.00009  -0.00008  -0.00001
 281       17PZ        -0.00017  -0.00009  -0.00008  -0.00000
 282       18PX        -0.12395  -0.06494  -0.05901  -0.00592
 283       18PY        -0.12395  -0.06494  -0.05901  -0.00592
 284       18PZ        -0.11873  -0.06043  -0.05830  -0.00213
 285       19PX         0.13960   0.07379   0.06582   0.00797
 286       19PY         0.13960   0.07379   0.06582   0.00797
 287       19PZ         0.11877   0.06082   0.05796   0.00286
 288       20PX         0.47681   0.25040   0.22641   0.02400
 289       20PY         0.47681   0.25040   0.22641   0.02400
 290       20PZ         0.42113   0.21490   0.20623   0.00867
 291       21PX         0.70544   0.36682   0.33862   0.02820
 292       21PY         0.70544   0.36682   0.33862   0.02820
 293       21PZ         0.53722   0.27798   0.25924   0.01874
 294       22PX         0.41864   0.22213   0.19650   0.02563
 295       22PY         0.41864   0.22213   0.19650   0.02563
 296       22PZ         0.21708   0.12732   0.08976   0.03757
 297       23PX         0.14200   0.07447   0.06753   0.00694
 298       23PY         0.14200   0.07447   0.06753   0.00694
 299       23PZ         0.13442   0.06845   0.06596   0.00249
 300       24PX         0.00065   0.00034   0.00031   0.00003
 301       24PY         0.00065   0.00034   0.00031   0.00003
 302       24PZ         0.00061   0.00031   0.00030   0.00001
 303       25PX         0.00001   0.00000   0.00000   0.00000
 304       25PY         0.00001   0.00000   0.00000   0.00000
 305       25PZ         0.00001   0.00000   0.00000   0.00000
 306       26PX         0.03205   0.01854   0.01351   0.00503
 307       26PY         0.03205   0.01854   0.01351   0.00503
 308       26PZ         0.01750   0.01332   0.00419   0.00913
 309       27D 0        0.00029   0.00016   0.00013   0.00002
 310       27D+1        0.00012   0.00007   0.00005   0.00002
 311       27D-1        0.00012   0.00007   0.00005   0.00002
 312       27D+2        0.00001   0.00000   0.00000   0.00000
 313       27D-2        0.00000   0.00000   0.00000   0.00000
 314       28D 0        0.00521   0.00282   0.00240   0.00042
 315       28D+1        0.00280   0.00167   0.00113   0.00054
 316       28D-1        0.00280   0.00167   0.00113   0.00054
 317       28D+2        0.00025   0.00012   0.00012   0.00000
 318       28D-2        0.00010   0.00010   0.00000   0.00010
 319       29D 0        0.00134   0.00079   0.00055   0.00024
 320       29D+1        0.00838   0.00438   0.00400   0.00038
 321       29D-1        0.00838   0.00438   0.00400   0.00038
 322       29D+2        0.00129   0.00065   0.00065   0.00000
 323       29D-2        0.00051   0.00051   0.00000   0.00051
 324       30D 0        0.00001   0.00000   0.00000   0.00000
 325       30D+1        0.00000   0.00000   0.00000   0.00000
 326       30D-1        0.00000   0.00000   0.00000   0.00000
 327       30D+2        0.00000   0.00000   0.00000   0.00000
 328       30D-2        0.00000   0.00000   0.00000   0.00000
 329       31D 0       -0.00000  -0.00000  -0.00000  -0.00000
 330       31D+1       -0.00000  -0.00000  -0.00000  -0.00000
 331       31D-1       -0.00000  -0.00000  -0.00000  -0.00000
 332       31D+2       -0.00000  -0.00000  -0.00000   0.00000
 333       31D-2       -0.00000  -0.00000  -0.00000  -0.00000
 334       32D 0       -0.00244  -0.00102  -0.00142   0.00039
 335       32D+1        0.00329   0.00160   0.00169  -0.00009
 336       32D-1        0.00329   0.00160   0.00169  -0.00009
 337       32D+2        0.00035   0.00018   0.00018  -0.00000
 338       32D-2        0.00013   0.00013   0.00000   0.00013
 339       33F 0        0.00017   0.00010   0.00008   0.00002
 340       33F+1        0.00008   0.00005   0.00003   0.00003
 341       33F-1        0.00008   0.00005   0.00003   0.00003
 342       33F+2        0.00001   0.00001   0.00001   0.00000
 343       33F-2        0.00000   0.00000   0.00000   0.00000
 344       33F+3        0.00000   0.00000   0.00000   0.00000
 345       33F-3        0.00000   0.00000   0.00000   0.00000
 346       34F 0        0.00185   0.00107   0.00079   0.00028
 347       34F+1        0.00157   0.00099   0.00057   0.00042
 348       34F-1        0.00157   0.00099   0.00057   0.00042
 349       34F+2        0.00046   0.00023   0.00023   0.00000
 350       34F-2        0.00020   0.00020   0.00000   0.00020
 351       34F+3        0.00000   0.00000   0.00000  -0.00000
 352       34F-3        0.00000   0.00000   0.00000  -0.00000
 353       35F 0        0.00000   0.00000   0.00000   0.00000
 354       35F+1        0.00000   0.00000   0.00000   0.00000
 355       35F-1        0.00000   0.00000   0.00000   0.00000
 356       35F+2        0.00000   0.00000   0.00000  -0.00000
 357       35F-2        0.00000   0.00000   0.00000   0.00000
 358       35F+3        0.00000   0.00000   0.00000  -0.00000
 359       35F-3        0.00000   0.00000   0.00000  -0.00000
 360       36F 0       -0.00181  -0.00098  -0.00083  -0.00015
 361       36F+1        0.00060   0.00031   0.00028   0.00003
 362       36F-1        0.00060   0.00031   0.00028   0.00003
 363       36F+2        0.00015   0.00008   0.00008  -0.00000
 364       36F-2        0.00006   0.00006   0.00000   0.00006
 365       36F+3       -0.00000  -0.00000  -0.00000  -0.00000
 366       36F-3       -0.00000  -0.00000  -0.00000  -0.00000
 367       37G 0        0.00016   0.00009   0.00007   0.00003
 368       37G+1        0.00009   0.00006   0.00003   0.00003
 369       37G-1        0.00009   0.00006   0.00003   0.00003
 370       37G+2        0.00003   0.00001   0.00001   0.00000
 371       37G-2        0.00001   0.00001   0.00000   0.00001
 372       37G+3        0.00000   0.00000   0.00000   0.00000
 373       37G-3        0.00000   0.00000   0.00000   0.00000
 374       37G+4        0.00000   0.00000  -0.00000   0.00000
 375       37G-4       -0.00000  -0.00000  -0.00000  -0.00000
 376       38G 0        0.00019   0.00012   0.00007   0.00005
 377       38G+1        0.00035   0.00024   0.00011   0.00012
 378       38G-1        0.00035   0.00024   0.00011   0.00012
 379       38G+2        0.00019   0.00009   0.00009   0.00000
 380       38G-2        0.00008   0.00008   0.00000   0.00008
 381       38G+3       -0.00000  -0.00000  -0.00000  -0.00000
 382       38G-3       -0.00000  -0.00000  -0.00000  -0.00000
 383       38G+4       -0.00000  -0.00000   0.00000  -0.00000
 384       38G-4       -0.00000  -0.00000   0.00000  -0.00000
          Condensed to atoms (all electrons):
               1          2
     1  Fe  14.954895   0.067764
     2  O    0.067764   6.909578
          Atomic-Atomic Spin Densities.
               1          2
     1  Fe   3.835976  -0.076059
     2  O   -0.076059   0.316141
 Mulliken charges and spin densities:
               1          2
     1  Fe   0.977341   3.759917
     2  O   -0.977341   0.240083
 Sum of Mulliken charges =  -0.00000   4.00000
 Mulliken charges and spin densities with hydrogens summed into heavy atoms:
               1          2
     1  Fe   0.977341   3.759917
     2  O   -0.977341   0.240083
 Electronic spatial extent (au):  <R**2>=             74.8402
 Charge=             -0.0000 electrons
 Dipole moment (field-independent basis, Debye):
    X=              0.0000    Y=              0.0000    Z=              4.8974  Tot=              4.8974
 Quadrupole moment (field-independent basis, Debye-Ang):
   XX=            -19.0077   YY=            -19.0077   ZZ=            -21.2764
   XY=              0.0000   XZ=              0.0000   YZ=              0.0000
 Traceless Quadrupole moment (field-independent basis, Debye-Ang):
   XX=              0.7562   YY=              0.7562   ZZ=             -1.5125
   XY=              0.0000   XZ=              0.0000   YZ=              0.0000
 Octapole moment (field-independent basis, Debye-Ang**2):
  XXX=              0.0000  YYY=              0.0000  ZZZ=             11.0807  XYY=              0.0000
  XXY=              0.0000  XXZ=              2.3593  XZZ=              0.0000  YZZ=              0.0000
  YYZ=              2.3593  XYZ=              0.0000
 Hexadecapole moment (field-independent basis, Debye-Ang**3):
 XXXX=            -23.2013 YYYY=            -23.2013 ZZZZ=            -74.0206 XXXY=              0.0000
 XXXZ=              0.0000 YYYX=              0.0000 YYYZ=              0.0000 ZZZX=              0.0000
 ZZZY=              0.0000 XXYY=             -7.5370 XXZZ=            -16.5621 YYZZ=            -16.5621
 XXYZ=              0.0000 YYXZ=              0.0000 ZZXY=              0.0000
 N-N= 3.628643732023D+01 E-N=-3.988626409520D+02  KE= 8.339755297957D+01
 Symmetry A1   KE= 3.741750281373D+01
 Symmetry A2   KE= 7.022022852642D+00
 Symmetry B1   KE= 1.947901370808D+01
 Symmetry B2   KE= 1.947901360585D+01
 Symmetry A1   SP= 1.000000000000D+00
 Symmetry A2   SP= 1.000000000000D+00
 Symmetry B1   SP= 1.000000000000D+00
 Symmetry B2   SP= 1.000000000000D+00
 Orbital energies and kinetic energies (alpha):
                                 1                 2
   5         O                -1.246532          1.337384
   6         O                -0.724062          6.838302
   7         O                -0.724062          3.535337
   8         O                -0.634080          2.353985
   9         O                -0.590356          2.353985
  10         O                -0.580553          7.022023
  11         O                -0.417175          1.984478
  12         O                -0.417175          6.929011
  13         O                -0.328813          6.929010
  14         V                 0.001673          0.293532
  15         V                 0.020855          0.064676
  16         V                 0.020855          0.064676
  17         V                 0.033060          0.036641
  18         V                 0.038999          0.645787
 Total kinetic energy from orbitals= 1.062620752137D+02
                          Isotropic Fermi Contact Couplings
        Atom                 a.u.       MegaHertz       Gauss      10(-4) cm-1
     1  Fe(57)             0.00006       0.00207       0.00074       0.00069
     2  O(17)              0.00002      -0.00339      -0.00121      -0.00113
 --------------------------------------------------------
       Center         ----  Spin Dipole Couplings  ----
                      3XX-RR        3YY-RR        3ZZ-RR
 --------------------------------------------------------
     1   Atom       -0.531820     -0.531820      1.063641
     2   Atom       -0.044052     -0.044052      0.088104
 --------------------------------------------------------
                        XY            XZ            YZ
 --------------------------------------------------------
     1   Atom        0.000000      0.000000      0.000000
     2   Atom        0.000000      0.000000      0.000000
 --------------------------------------------------------


 ---------------------------------------------------------------------------------
              Anisotropic Spin Dipole Couplings in Principal Axis System
 ---------------------------------------------------------------------------------

       Atom             a.u.   MegaHertz   Gauss  10(-4) cm-1        Axes

              Baa    -0.5318    -9.207    -3.285    -3.071 -0.0000  1.0000  0.0000
     1 Fe(57) Bbb    -0.5318    -9.207    -3.285    -3.071  1.0000  0.0000  0.0000
              Bcc     1.0636    18.415     6.571     6.142  0.0000  0.0000  1.0000
 
              Baa    -0.0441     3.188     1.137     1.063  1.0000  0.0000  0.0000
     2 O(17)  Bbb    -0.0441     3.188     1.137     1.063 -0.0000  1.0000  0.0000
              Bcc     0.0881    -6.375    -2.275    -2.127  0.0000  0.0000  1.0000
 

 ---------------------------------------------------------------------------------

 No NMR shielding tensors so no spin-rotation constants.
 Leave Link  601 at Sun Mar 25 02:43:19 2018, MaxMem= 10737418240 cpu:             238.2 elap:               7.7
 (Enter /home1/apps/gaussian/16rA.03/g16/l9999.exe)
 1\1\GINC-C437-113\SP\ROCCSD(T)-Full\Gen\Fe1O1(5)\GWANG18\25-Mar-2018\0
 \\#P ROCCSD(T)=(MaxCyc=150, Full)/Gen SCF=(maxcycle=400) Pseudo=Read I
 ntegral(NoXCTest) Pop=Regular MaxDisk=500GB\\FeO\\0,5\Fe,0,0.,0.,0.\O,
 0,0.,0.,1.4\\Version=ES64L-G16RevA.03\HF=-138.4252863\MP2=-139.520901\
 MP3=-139.4182167\PUHF=-138.4252863\PMP2-0=-139.520901\MP4SDQ=-139.4949
 515\CCSD=-139.4651063\CCSD(T)=-139.5142312\RMSD=3.009e-09\PG=C*V [C*(O
 1Fe1)]\\@


 Once you get people laughing, they're
 listening and you can tell them almost anything.
                                 -- Herb Gardner
 Job cpu time:       2 days 14 hours 43 minutes 37.6 seconds.
 Elapsed time:       0 days  1 hours 58 minutes 41.9 seconds.
 File lengths (MBytes):  RWF=  16201 Int=      0 D2E=      0 Chk=     18 Scr=      1
 Normal termination of Gaussian 16 at Sun Mar 25 02:43:20 2018.
