 Entering Gaussian System, Link 0=g16
 Initial command:
 /home1/apps/gaussian/16rA.03/g16/l1.exe "/tmp/Gau-261010.inp" -scrdir="/tmp/"
 Entering Link 1 = /home1/apps/gaussian/16rA.03/g16/l1.exe PID=    261011.
  
 Copyright (c) 1988,1990,1992,1993,1995,1998,2003,2009,2016,
            Gaussian, Inc.  All Rights Reserved.
  
 This is part of the Gaussian(R) 16 program.  It is based on
 the Gaussian(R) 09 system (copyright 2009, Gaussian, Inc.),
 the Gaussian(R) 03 system (copyright 2003, Gaussian, Inc.),
 the Gaussian(R) 98 system (copyright 1998, Gaussian, Inc.),
 the Gaussian(R) 94 system (copyright 1995, Gaussian, Inc.),
 the Gaussian 92(TM) system (copyright 1992, Gaussian, Inc.),
 the Gaussian 90(TM) system (copyright 1990, Gaussian, Inc.),
 the Gaussian 88(TM) system (copyright 1988, Gaussian, Inc.),
 the Gaussian 86(TM) system (copyright 1986, Carnegie Mellon
 University), and the Gaussian 82(TM) system (copyright 1983,
 Carnegie Mellon University). Gaussian is a federally registered
 trademark of Gaussian, Inc.
  
 This software contains proprietary and confidential information,
 including trade secrets, belonging to Gaussian, Inc.
  
 This software is provided under written license and may be
 used, copied, transmitted, or stored only in accord with that
 written license.
  
 The following legend is applicable only to US Government
 contracts under FAR:
  
                    RESTRICTED RIGHTS LEGEND
  
 Use, reproduction and disclosure by the US Government is
 subject to restrictions as set forth in subparagraphs (a)
 and (c) of the Commercial Computer Software - Restricted
 Rights clause in FAR 52.227-19.
  
 Gaussian, Inc.
 340 Quinnipiac St., Bldg. 40, Wallingford CT 06492
  
  
 ---------------------------------------------------------------
 Warning -- This program may not be used in any manner that
 competes with the business of Gaussian, Inc. or will provide
 assistance to any competitor of Gaussian, Inc.  The licensee
 of this program is prohibited from giving any competitor of
 Gaussian, Inc. access to this program.  By using this program,
 the user acknowledges that Gaussian, Inc. is engaged in the
 business of creating and licensing software in the field of
 computational chemistry and represents and warrants to the
 licensee that it is not a competitor of Gaussian, Inc. and that
 it will not use this program in any manner prohibited above.
 ---------------------------------------------------------------
  

 Cite this work as:
 Gaussian 16, Revision A.03,
 M. J. Frisch, G. W. Trucks, H. B. Schlegel, G. E. Scuseria, 
 M. A. Robb, J. R. Cheeseman, G. Scalmani, V. Barone, 
 G. A. Petersson, H. Nakatsuji, X. Li, M. Caricato, A. V. Marenich, 
 J. Bloino, B. G. Janesko, R. Gomperts, B. Mennucci, H. P. Hratchian, 
 J. V. Ortiz, A. F. Izmaylov, J. L. Sonnenberg, D. Williams-Young, 
 F. Ding, F. Lipparini, F. Egidi, J. Goings, B. Peng, A. Petrone, 
 T. Henderson, D. Ranasinghe, V. G. Zakrzewski, J. Gao, N. Rega, 
 G. Zheng, W. Liang, M. Hada, M. Ehara, K. Toyota, R. Fukuda, 
 J. Hasegawa, M. Ishida, T. Nakajima, Y. Honda, O. Kitao, H. Nakai, 
 T. Vreven, K. Throssell, J. A. Montgomery, Jr., J. E. Peralta, 
 F. Ogliaro, M. J. Bearpark, J. J. Heyd, E. N. Brothers, K. N. Kudin, 
 V. N. Staroverov, T. A. Keith, R. Kobayashi, J. Normand, 
 K. Raghavachari, A. P. Rendell, J. C. Burant, S. S. Iyengar, 
 J. Tomasi, M. Cossi, J. M. Millam, M. Klene, C. Adamo, R. Cammi, 
 J. W. Ochterski, R. L. Martin, K. Morokuma, O. Farkas, 
 J. B. Foresman, and D. J. Fox, Gaussian, Inc., Wallingford CT, 2016.
 
 ******************************************
 Gaussian 16:  ES64L-G16RevA.03 25-Dec-2016
                 9-Mar-2018 
 ******************************************
 %MEM=80GB
 %CPU=0-15
 SetSPE:  set environment variable "MP_BIND" = "yes"
 SetSPE:  set environment variable "MP_BLIST" = "0,1,2,3,4,5,6,7,8,9,10,11,12,13,14,15"
 Will use up to   16 processors via shared memory.
 %RWF=/scratch/04843/aannabe/gaussian/
 %Int=/scratch/04843/aannabe/gaussian/
 %D2E=/scratch/04843/aannabe/gaussian/
 %NoSave
 %CHK=MnO
 ----------------------------------------------------------------------
 #P ROCCSD(T)=(maxcyc=150, Full, SaveAmplitudes, ReadAmplitudes)/Gen 5d
  7f SCF=(maxcycles=300) Integral(NoXCTest) MaxDisk=500GB Pop=Regular P
 seudo=Read Guess=Read
 ----------------------------------------------------------------------
 1/38=1,172=1/1;
 2/12=2,17=6,18=5,40=1/2;
 3/5=7,8=11,11=2,16=1,17=8,25=1,30=1,47=8,116=101/1,2,3;
 4/5=1/1;
 5/5=2,7=300,38=6/2;
 8/5=-1,6=4,9=120000,10=90,24=1/1,4;
 9/5=7,6=150,14=2,77=1/13;
 6//1;
 99/5=1,9=1/99;
 Leave Link    1 at Fri Mar  9 16:36:42 2018, MaxMem= 10737418240 cpu:               3.5 elap:               0.2
 (Enter /home1/apps/gaussian/16rA.03/g16/l101.exe)
 ---
 MnO
 ---
 Symbolic Z-matrix:
 Charge =  0 Multiplicity = 6
 Mn                    0.        0.        0. 
 O                     0.        0.        1.4 
 
 ITRead=  0  0
 MicOpt= -1 -1
 NAtoms=      2 NQM=        2 NQMF=       0 NMMI=      0 NMMIF=      0
                NMic=       0 NMicF=      0.
                    Isotopes and Nuclear Properties:
 (Nuclear quadrupole moments (NQMom) in fm**2, nuclear magnetic moments (NMagM)
  in nuclear magnetons)

  Atom         1           2
 IAtWgt=          55          16
 AtmWgt=  54.9380463  15.9949146
 NucSpn=           5           0
 AtZEff=  -0.0000000  -0.0000000
 NQMom=   33.0000000   0.0000000
 NMagM=    3.4532000   0.0000000
 AtZNuc=  25.0000000   8.0000000
 Leave Link  101 at Fri Mar  9 16:36:42 2018, MaxMem= 10737418240 cpu:               1.5 elap:               0.1
 (Enter /home1/apps/gaussian/16rA.03/g16/l202.exe)
                          Input orientation:                          
 ---------------------------------------------------------------------
 Center     Atomic      Atomic             Coordinates (Angstroms)
 Number     Number       Type             X           Y           Z
 ---------------------------------------------------------------------
      1         25           0        0.000000    0.000000    0.000000
      2          8           0        0.000000    0.000000    1.400000
 ---------------------------------------------------------------------
 Stoichiometry    MnO(6)
 Framework group  C*V[C*(OMn)]
 Deg. of freedom     1
 Full point group                 C*V     NOp   4
 Largest Abelian subgroup         C2V     NOp   4
 Largest concise Abelian subgroup C1      NOp   1
                         Standard orientation:                         
 ---------------------------------------------------------------------
 Center     Atomic      Atomic             Coordinates (Angstroms)
 Number     Number       Type             X           Y           Z
 ---------------------------------------------------------------------
      1         25           0        0.000000    0.000000    0.339394
      2          8           0        0.000000    0.000000   -1.060606
 ---------------------------------------------------------------------
 Rotational constants (GHZ):           0.0000000          20.8139295          20.8139295
 Leave Link  202 at Fri Mar  9 16:36:42 2018, MaxMem= 10737418240 cpu:               0.3 elap:               0.1
 (Enter /home1/apps/gaussian/16rA.03/g16/l301.exe)
 General basis read from cards:  (5D, 7F)
 Centers:       1
 S 1 1.00
     Exponent=  1.2210500000D+07 Coefficients=  1.0000000000D+00
 S 1 1.00
     Exponent=  1.8281570000D+06 Coefficients=  1.0000000000D+00
 S 1 1.00
     Exponent=  4.1603030000D+05 Coefficients=  1.0000000000D+00
 S 1 1.00
     Exponent=  1.1784360000D+05 Coefficients=  1.0000000000D+00
 S 1 1.00
     Exponent=  3.8448140000D+04 Coefficients=  1.0000000000D+00
 S 1 1.00
     Exponent=  1.3881710000D+04 Coefficients=  1.0000000000D+00
 S 1 1.00
     Exponent=  5.4150020000D+03 Coefficients=  1.0000000000D+00
 S 1 1.00
     Exponent=  2.2464600000D+03 Coefficients=  1.0000000000D+00
 S 1 1.00
     Exponent=  9.8014630000D+02 Coefficients=  1.0000000000D+00
 S 1 1.00
     Exponent=  4.4589520000D+02 Coefficients=  1.0000000000D+00
 S 1 1.00
     Exponent=  2.1005580000D+02 Coefficients=  1.0000000000D+00
 S 1 1.00
     Exponent=  1.0180460000D+02 Coefficients=  1.0000000000D+00
 S 1 1.00
     Exponent=  5.0011260000D+01 Coefficients=  1.0000000000D+00
 S 1 1.00
     Exponent=  2.2939390000D+01 Coefficients=  1.0000000000D+00
 S 1 1.00
     Exponent=  1.1522640000D+01 Coefficients=  1.0000000000D+00
 S 1 1.00
     Exponent=  5.7763380000D+00 Coefficients=  1.0000000000D+00
 S 1 1.00
     Exponent=  2.6259590000D+00 Coefficients=  1.0000000000D+00
 S 1 1.00
     Exponent=  1.2603220000D+00 Coefficients=  1.0000000000D+00
 S 1 1.00
     Exponent=  5.7713000000D-01 Coefficients=  1.0000000000D+00
 S 1 1.00
     Exponent=  1.3658200000D-01 Coefficients=  1.0000000000D+00
 S 1 1.00
     Exponent=  6.3535000000D-02 Coefficients=  1.0000000000D+00
 S 1 1.00
     Exponent=  2.8521000000D-02 Coefficients=  1.0000000000D+00
 S 1 1.00
     Exponent=  5.3389000000D+00 Coefficients=  1.0000000000D+00
 S 1 1.00
     Exponent=  1.6013000000D+00 Coefficients=  1.0000000000D+00
 S 1 1.00
     Exponent=  1.2800000000D-02 Coefficients=  1.0000000000D+00
 P 1 1.00
     Exponent=  3.5005120000D+04 Coefficients=  1.0000000000D+00
 P 1 1.00
     Exponent=  8.2794620000D+03 Coefficients=  1.0000000000D+00
 P 1 1.00
     Exponent=  2.6884650000D+03 Coefficients=  1.0000000000D+00
 P 1 1.00
     Exponent=  1.0294900000D+03 Coefficients=  1.0000000000D+00
 P 1 1.00
     Exponent=  4.3807080000D+02 Coefficients=  1.0000000000D+00
 P 1 1.00
     Exponent=  2.0061530000D+02 Coefficients=  1.0000000000D+00
 P 1 1.00
     Exponent=  9.7007690000D+01 Coefficients=  1.0000000000D+00
 P 1 1.00
     Exponent=  4.8870520000D+01 Coefficients=  1.0000000000D+00
 P 1 1.00
     Exponent=  2.5292810000D+01 Coefficients=  1.0000000000D+00
 P 1 1.00
     Exponent=  1.3353820000D+01 Coefficients=  1.0000000000D+00
 P 1 1.00
     Exponent=  7.1317860000D+00 Coefficients=  1.0000000000D+00
 P 1 1.00
     Exponent=  3.7643650000D+00 Coefficients=  1.0000000000D+00
 P 1 1.00
     Exponent=  1.9462650000D+00 Coefficients=  1.0000000000D+00
 P 1 1.00
     Exponent=  9.8545500000D-01 Coefficients=  1.0000000000D+00
 P 1 1.00
     Exponent=  4.8186500000D-01 Coefficients=  1.0000000000D+00
 P 1 1.00
     Exponent=  1.8822219000D-01 Coefficients=  1.0000000000D+00
 P 1 1.00
     Exponent=  7.7539570000D-02 Coefficients=  1.0000000000D+00
 P 1 1.00
     Exponent=  3.1549450000D-02 Coefficients=  1.0000000000D+00
 P 1 1.00
     Exponent=  7.3423000000D+00 Coefficients=  1.0000000000D+00
 P 1 1.00
     Exponent=  1.9340000000D+00 Coefficients=  1.0000000000D+00
 P 1 1.00
     Exponent=  1.2840000000D-02 Coefficients=  1.0000000000D+00
 D 1 1.00
     Exponent=  3.1310900000D+02 Coefficients=  1.0000000000D+00
 D 1 1.00
     Exponent=  9.2527600000D+01 Coefficients=  1.0000000000D+00
 D 1 1.00
     Exponent=  3.5419100000D+01 Coefficients=  1.0000000000D+00
 D 1 1.00
     Exponent=  1.5157700000D+01 Coefficients=  1.0000000000D+00
 D 1 1.00
     Exponent=  6.9096400000D+00 Coefficients=  1.0000000000D+00
 D 1 1.00
     Exponent=  3.2725600000D+00 Coefficients=  1.0000000000D+00
 D 1 1.00
     Exponent=  1.5493600000D+00 Coefficients=  1.0000000000D+00
 D 1 1.00
     Exponent=  7.1709400000D-01 Coefficients=  1.0000000000D+00
 D 1 1.00
     Exponent=  3.1931000000D-01 Coefficients=  1.0000000000D+00
 D 1 1.00
     Exponent=  1.3415700000D-01 Coefficients=  1.0000000000D+00
 D 1 1.00
     Exponent=  5.1400000000D-02 Coefficients=  1.0000000000D+00
 D 1 1.00
     Exponent=  4.6851000000D+00 Coefficients=  1.0000000000D+00
 D 1 1.00
     Exponent=  2.4217000000D+00 Coefficients=  1.0000000000D+00
 D 1 1.00
     Exponent=  1.9690000000D-02 Coefficients=  1.0000000000D+00
 F 1 1.00
     Exponent=  6.6540000000D+00 Coefficients=  1.0000000000D+00
 F 1 1.00
     Exponent=  2.7676000000D+00 Coefficients=  1.0000000000D+00
 F 1 1.00
     Exponent=  1.1511000000D+00 Coefficients=  1.0000000000D+00
 F 1 1.00
     Exponent=  3.8120000000D-01 Coefficients=  1.0000000000D+00
 F 1 1.00
     Exponent=  1.2624000000D-01 Coefficients=  1.0000000000D+00
 G 1 1.00
     Exponent=  5.4683000000D+00 Coefficients=  1.0000000000D+00
 G 1 1.00
     Exponent=  2.3327000000D+00 Coefficients=  1.0000000000D+00
 G 1 1.00
     Exponent=  8.5200000000D-01 Coefficients=  1.0000000000D+00
 G 1 1.00
     Exponent=  3.1119000000D-01 Coefficients=  1.0000000000D+00
 H 1 1.00
     Exponent=  5.1185000000D+00 Coefficients=  1.0000000000D+00
 H 1 1.00
     Exponent=  1.9660000000D+00 Coefficients=  1.0000000000D+00
 H 1 1.00
     Exponent=  7.5513000000D-01 Coefficients=  1.0000000000D+00
 ****
 Centers:       2
 S 1 1.00
     Exponent=  6.1420000000D+04 Coefficients=  1.0000000000D+00
 S 1 1.00
     Exponent=  9.1990000000D+03 Coefficients=  1.0000000000D+00
 S 1 1.00
     Exponent=  2.0910000000D+03 Coefficients=  1.0000000000D+00
 S 1 1.00
     Exponent=  5.9090000000D+02 Coefficients=  1.0000000000D+00
 S 1 1.00
     Exponent=  1.9230000000D+02 Coefficients=  1.0000000000D+00
 S 1 1.00
     Exponent=  6.9320000000D+01 Coefficients=  1.0000000000D+00
 S 1 1.00
     Exponent=  2.6970000000D+01 Coefficients=  1.0000000000D+00
 S 1 1.00
     Exponent=  1.1100000000D+01 Coefficients=  1.0000000000D+00
 S 1 1.00
     Exponent=  4.6820000000D+00 Coefficients=  1.0000000000D+00
 S 1 1.00
     Exponent=  1.4280000000D+00 Coefficients=  1.0000000000D+00
 S 1 1.00
     Exponent=  5.5470000000D-01 Coefficients=  1.0000000000D+00
 S 1 1.00
     Exponent=  2.0670000000D-01 Coefficients=  1.0000000000D+00
 S 1 1.00
     Exponent=  1.2974000000D+01 Coefficients=  1.0000000000D+00
 S 1 1.00
     Exponent=  3.4900000000D+01 Coefficients=  1.0000000000D+00
 S 1 1.00
     Exponent=  9.3881000000D+01 Coefficients=  1.0000000000D+00
 S 1 1.00
     Exponent=  6.9590000000D-02 Coefficients=  1.0000000000D+00
 P 1 1.00
     Exponent=  6.3420000000D+01 Coefficients=  1.0000000000D+00
 P 1 1.00
     Exponent=  1.4660000000D+01 Coefficients=  1.0000000000D+00
 P 1 1.00
     Exponent=  4.4590000000D+00 Coefficients=  1.0000000000D+00
 P 1 1.00
     Exponent=  1.5310000000D+00 Coefficients=  1.0000000000D+00
 P 1 1.00
     Exponent=  5.3020000000D-01 Coefficients=  1.0000000000D+00
 P 1 1.00
     Exponent=  1.7500000000D-01 Coefficients=  1.0000000000D+00
 P 1 1.00
     Exponent=  1.4475000000D+01 Coefficients=  1.0000000000D+00
 P 1 1.00
     Exponent=  4.2730000000D+01 Coefficients=  1.0000000000D+00
 P 1 1.00
     Exponent=  1.2614000000D+02 Coefficients=  1.0000000000D+00
 P 1 1.00
     Exponent=  5.3480000000D-02 Coefficients=  1.0000000000D+00
 D 1 1.00
     Exponent=  3.7750000000D+00 Coefficients=  1.0000000000D+00
 D 1 1.00
     Exponent=  1.3000000000D+00 Coefficients=  1.0000000000D+00
 D 1 1.00
     Exponent=  4.4400000000D-01 Coefficients=  1.0000000000D+00
 D 1 1.00
     Exponent=  1.4927000000D+01 Coefficients=  1.0000000000D+00
 D 1 1.00
     Exponent=  5.7544000000D+01 Coefficients=  1.0000000000D+00
 D 1 1.00
     Exponent=  1.5400000000D-01 Coefficients=  1.0000000000D+00
 F 1 1.00
     Exponent=  2.6660000000D+00 Coefficients=  1.0000000000D+00
 F 1 1.00
     Exponent=  8.5900000000D-01 Coefficients=  1.0000000000D+00
 F 1 1.00
     Exponent=  2.6483000000D+01 Coefficients=  1.0000000000D+00
 F 1 1.00
     Exponent=  3.2400000000D-01 Coefficients=  1.0000000000D+00
 G 1 1.00
     Exponent=  1.8460000000D+00 Coefficients=  1.0000000000D+00
 G 1 1.00
     Exponent=  7.1400000000D-01 Coefficients=  1.0000000000D+00
 ****
 ======================================================================================================
                                       Pseudopotential Parameters
 ======================================================================================================
  Center     Atomic      Valence      Angular      Power
  Number     Number     Electrons     Momentum     of R      Exponent        Coefficient   SO-Coeffient
 ======================================================================================================
    1         25           15
                                      D and up 
                                                     1       23.9390799       15.00000000    0.00000000
                                                     3       22.6487595      359.08619845    0.00000000
                                                     2       21.8940654     -152.94067313    0.00000000
                                                     2        6.3591050       -2.00927518    0.00000000
                                      S - D
                                                     2       18.5418030      245.53111290    0.00000000
                                                     2        8.3984596       33.14202299    0.00000000
                                      P - D
                                                     2       19.3120237      163.21059049    0.00000000
                                                     2        8.3700777       25.03088136    0.00000000
    2          8            6
                                      P and up 
                                                     1       12.3099700        6.00000000    0.00000000
                                                     3       14.7696200       73.85984000    0.00000000
                                                     2       13.7141900      -47.87600000    0.00000000
                                      S - P
                                                     2       13.6551200       85.86406000    0.00000000
 ======================================================================================================
 Ernie: Thresh=  0.10000D-02 Tol=  0.10000D-05 Strict=F.
 There are   213 symmetry adapted cartesian basis functions of A1  symmetry.
 There are    56 symmetry adapted cartesian basis functions of A2  symmetry.
 There are   114 symmetry adapted cartesian basis functions of B1  symmetry.
 There are   114 symmetry adapted cartesian basis functions of B2  symmetry.
 There are   157 symmetry adapted basis functions of A1  symmetry.
 There are    47 symmetry adapted basis functions of A2  symmetry.
 There are    90 symmetry adapted basis functions of B1  symmetry.
 There are    90 symmetry adapted basis functions of B2  symmetry.
   384 basis functions,   497 primitive gaussians,   497 cartesian basis functions
    13 alpha electrons        8 beta electrons
       nuclear repulsion energy        34.0185349877 Hartrees.
 IExCor=    0 DFT=F Ex=HF Corr=None ExCW=0 ScaHFX=  1.000000
 ScaDFX=  1.000000  1.000000  1.000000  1.000000 ScalE2=  1.000000  1.000000
 IRadAn=      5 IRanWt=     -1 IRanGd=            0 ICorTp=0 IEmpDi=  4
 NAtoms=    2 NActive=    2 NUniq=    2 SFac= 1.00D+00 NAtFMM=   60 NAOKFM=F Big=F
 Integral buffers will be    131072 words long.
 Raffenetti 2 integral format.
 Two-electron integral symmetry is turned on.
 Leave Link  301 at Fri Mar  9 16:36:42 2018, MaxMem= 10737418240 cpu:               4.6 elap:               0.3
 (Enter /home1/apps/gaussian/16rA.03/g16/l302.exe)
 NPDir=0 NMtPBC=     1 NCelOv=     1 NCel=       1 NClECP=     1 NCelD=      1
         NCelK=      1 NCelE2=     1 NClLst=     1 CellRange=     0.0.
 One-electron integrals computed using PRISM.
 One-electron integral symmetry used in STVInt
   4 Symmetry operations used in ECPInt.
 ECPInt:  NShTT=    6105 NPrTT=    6105 LenC2=    5614 LenP2D=    5613.
 LDataN:  DoStor=T MaxTD1=10 Len=  848
 NBasis=   384 RedAO= T EigKep=  2.11D-06  NBF=   157    47    90    90
 NBsUse=   377 1.00D-06 EigRej=  3.68D-07 NBFU=   154    47    88    88
 Leave Link  302 at Fri Mar  9 16:36:45 2018, MaxMem= 10737418240 cpu:              41.1 elap:               2.6
 (Enter /home1/apps/gaussian/16rA.03/g16/l303.exe)
 DipDrv:  MaxL=1.
 Leave Link  303 at Fri Mar  9 16:36:45 2018, MaxMem= 10737418240 cpu:               1.9 elap:               0.2
 (Enter /home1/apps/gaussian/16rA.03/g16/l401.exe)
 Initial guess from the checkpoint file:  "MnO.chk"
 B after Tr=     0.000000    0.000000    0.000000
         Rot=    1.000000    0.000000    0.000000    0.000000 Ang=   0.00 deg.
 Guess basis will be translated and rotated to current coordinates.
 JPrj=2 DoOrth=T DoCkMO=T.
 Initial guess orbital symmetries:
       Occupied  (SG) (SG) (PI) (PI) (SG) (PI) (PI) (SG) (DLTA)
                 (DLTA) (SG) (PI) (PI)
       Virtual   (SG) (PI) (PI) (SG) (SG) (PI) (PI) (DLTA) (DLTA)
                 (PI) (PI) (SG) (SG) (SG) (PI) (PI) (SG) (PI) (PI)
                 (DLTA) (DLTA) (SG) (PI) (PI) (SG) (SG) (SG) (DLTA)
                 (DLTA) (PI) (PI) (PHI) (PHI) (SG) (PI) (PI) (SG)
                 (DLTA) (DLTA) (PI) (PI) (SG) (DLTA) (DLTA) (PI)
                 (PI) (SG) (PI) (PI) (SG) (SG) (DLTA) (DLTA) (SG)
                 (PHI) (PHI) (PI) (PI) (PHI) (PHI) (DLTA) (DLTA)
                 (SG) (PI) (PI) (DLTA) (DLTA) (PI) (PI) (SG) (?A)
                 (?A) (SG) (DLTA) (DLTA) (PHI) (PHI) (PI) (PI)
                 (SG) (PI) (PI) (DLTA) (DLTA) (PI) (PI) (SG) (SG)
                 (PI) (PI) (SG) (SG) (SG) (PHI) (PHI) (DLTA) (DLTA)
                 (SG) (PHI) (PHI) (DLTA) (DLTA) (PI) (PI) (SG)
                 (DLTA) (DLTA) (PI) (PI) (PI) (PI) (DLTA) (DLTA)
                 (PI) (PI) (SG) (PI) (PI) (SG) (?A) (?A) (PHI)
                 (PHI) (DLTA) (DLTA) (PI) (PI) (SG) (SG) (SG) (DLTA)
                 (DLTA) (PI) (PI) (SG) (PI) (PI) (SG) (SG) (PHI)
                 (PHI) (DLTA) (DLTA) (PI) (PI) (PI) (PI) (SG) (SG)
                 (?A) (?A) (PHI) (PHI) (DLTA) (DLTA) (PI) (PI)
                 (SG) (DLTA) (DLTA) (PI) (PI) (SG) (SG) (PI) (PI)
                 (SG) (SG) (DLTA) (DLTA) (PI) (PI) (SG) (PI) (PI)
                 (SG) (DLTA) (DLTA) (PI) (PI) (SG) (SG) (PI) (PI)
                 (SG) (SG) (DLTA) (DLTA) (PI) (PI) (SG) (SG) (PI)
                 (PI) (SG) (PI) (PI) (SG) (SG) (SG) (PI) (PI) (SG)
                 (SG) (PI) (PI) (SG) (SG) (DLTA) (DLTA) (PI) (PI)
                 (SG) (PI) (PI) (SG) (SG) (SG) (PI) (PI) (SG) (SG)
                 (SG) (PI) (PI) (SG) (SG) (PI) (PI) (SG) (SG) (SG)
                 (PI) (PI) (SG) (SG) (SG) (SG) (PI) (PI) (SG) (SG)
                 (SG) (SG) (SG) (SG) (DLTA) (SG) (DLTA) (SG) (SG)
                 (SG) (SG) (SG) (DLTA) (DLTA) (SG) (SG) (DLTA)
                 (SG) (SG) (SG) (DLTA) (?A) (SG) (DLTA) (SG) (SG)
                 (DLTA) (?A) (SG) (DLTA) (SG) (DLTA) (?A) (SG)
                 (SG) (DLTA) (DLTA) (SG) (DLTA) (SG) (DLTA) (?A)
                 (?A) (?A) (DLTA) (DLTA) (DLTA) (DLTA) (DLTA) (DLTA)
                 (?A) (DLTA) (DLTA) (?A) (DLTA) (DLTA) (?A) (DLTA)
                 (DLTA) (DLTA) (DLTA) (?A) (?A) (?A) (PI) (PI)
                 (PI) (PI) (PI) (PI) (PHI) (PI) (PI) (PI) (PHI)
                 (PI) (PI) (PI) (PHI) (PI) (PHI) (?B) (PI) (PI)
                 (PHI) (PHI) (PI) (PHI) (PI) (PHI) (?B) (PHI) (?B)
                 (PI) (PI) (PI) (PI) (PI) (PI) (PHI) (PI) (PI)
                 (PI) (PHI) (PI) (PI) (PI) (PHI) (PI) (PHI) (?B)
                 (PI) (PI) (PHI) (PHI) (PI) (PHI) (PI) (PHI) (?B)
                 (PHI) (?B)
 The electronic state of the initial guess is 6-SG.
 Leave Link  401 at Fri Mar  9 16:36:46 2018, MaxMem= 10737418240 cpu:              12.2 elap:               0.9
 (Enter /home1/apps/gaussian/16rA.03/g16/l502.exe)
 Keep R1 and R2 ints in memory in symmetry-blocked form, NReq=3425113631.
 FoFCou: FMM=F IPFlag=           8 FMFlag=           0 FMFlg1=           0
         NFxFlg=           0 DoJE=F BraDBF=F KetDBF=F FulRan=T
         wScrn=  0.000000 ICntrl=       600 IOpCl=  0 I1Cent=           0 NGrid=           0
         NMat0=    1 NMatS0=  73920 NMatT0=    0 NMatD0=    1 NMtDS0=    0 NMtDT0=    0
 Petite list used in FoFCou.
 Restricted open shell SCF:
 Using DIIS extrapolation, IDIIS=  1040.
 NGot= 10737418240 LenX=  9351093905 LenY=  9350846399
 Requested convergence on RMS density matrix=1.00D-08 within 300 cycles.
 Requested convergence on MAX density matrix=1.00D-06.
 Requested convergence on             energy=1.00D-06.
 No special actions if energy rises.

 Cycle   1  Pass 1  IDiag  1:
 E= -119.097193795153    
 DIIS: error= 1.15D+00 at cycle   1 NSaved=   1.
 NSaved= 1 IEnMin= 1 EnMin= -119.097193795153     IErMin= 1 ErrMin= 1.15D+00
 ErrMax= 1.15D+00  0.00D+00 EMaxC= 1.00D-01 BMatC= 3.26D+02 BMatP= 3.26D+02
 IDIUse=3 WtCom= 0.00D+00 WtEn= 1.00D+00
 Coeff-Com:  0.100D+01
 Coeff-En:   0.100D+01
 Coeff:      0.100D+01
 Gap=     0.091 Goal=   None    Shift=    0.000
 GapD=    0.091 DampG=0.500 DampE=0.125 DampFc=0.1250 IDamp=-1.
 Damping current iteration by 1.25D-01
 RMSDP=1.50D-03 MaxDP=1.26D-01              OVMax= 4.44D-03

 Cycle   2  Pass 1  IDiag  1:
 E= -119.097390110151     Delta-E=       -0.000196314999 Rises=F Damp=T
 DIIS: error= 1.00D+00 at cycle   2 NSaved=   2.
 NSaved= 2 IEnMin= 2 EnMin= -119.097390110151     IErMin= 2 ErrMin= 1.00D+00
 ErrMax= 1.00D+00  0.00D+00 EMaxC= 1.00D-01 BMatC= 2.50D+02 BMatP= 3.26D+02
 IDIUse=3 WtCom= 0.00D+00 WtEn= 1.00D+00
 Coeff-Com: -0.700D+01 0.800D+01
 Coeff-En:   0.000D+00 0.100D+01
 Coeff:      0.000D+00 0.100D+01
 Gap=     0.090 Goal=   None    Shift=    0.000
 RMSDP=1.30D-03 MaxDP=1.10D-01 DE=-1.96D-04 OVMax= 6.03D-03

 Cycle   3  Pass 1  IDiag  1:
 E= -119.098782359555     Delta-E=       -0.001392249404 Rises=F Damp=F
 DIIS: error= 5.26D-04 at cycle   3 NSaved=   3.
 NSaved= 3 IEnMin= 3 EnMin= -119.098782359555     IErMin= 3 ErrMin= 5.26D-04
 ErrMax= 5.26D-04  0.00D+00 EMaxC= 1.00D-01 BMatC= 3.42D-05 BMatP= 2.50D+02
 IDIUse=3 WtCom= 9.95D-01 WtEn= 5.26D-03
 Coeff-Com: -0.995D+00 0.114D+01 0.858D+00
 Coeff-En:   0.000D+00 0.000D+00 0.100D+01
 Coeff:     -0.990D+00 0.113D+01 0.859D+00
 Gap=     0.090 Goal=   None    Shift=    0.000
 RMSDP=6.97D-05 MaxDP=4.98D-03 DE=-1.39D-03 OVMax= 7.56D-03

 Cycle   4  Pass 1  IDiag  1:
 E= -119.098796908990     Delta-E=       -0.000014549435 Rises=F Damp=F
 DIIS: error= 4.69D-04 at cycle   4 NSaved=   4.
 NSaved= 4 IEnMin= 4 EnMin= -119.098796908990     IErMin= 4 ErrMin= 4.69D-04
 ErrMax= 4.69D-04  0.00D+00 EMaxC= 1.00D-01 BMatC= 2.23D-05 BMatP= 3.42D-05
 IDIUse=3 WtCom= 9.95D-01 WtEn= 4.69D-03
 Coeff-Com: -0.723D+00 0.826D+00 0.464D+00 0.432D+00
 Coeff-En:   0.000D+00 0.000D+00 0.436D+00 0.564D+00
 Coeff:     -0.720D+00 0.822D+00 0.464D+00 0.433D+00
 Gap=     0.090 Goal=   None    Shift=    0.000
 RMSDP=4.49D-05 MaxDP=5.08D-03 DE=-1.45D-05 OVMax= 6.31D-03

 Cycle   5  Pass 1  IDiag  1:
 E= -119.098804022935     Delta-E=       -0.000007113945 Rises=F Damp=F
 DIIS: error= 2.94D-04 at cycle   5 NSaved=   5.
 NSaved= 5 IEnMin= 5 EnMin= -119.098804022935     IErMin= 5 ErrMin= 2.94D-04
 ErrMax= 2.94D-04  0.00D+00 EMaxC= 1.00D-01 BMatC= 1.40D-05 BMatP= 2.23D-05
 IDIUse=3 WtCom= 9.97D-01 WtEn= 2.94D-03
 Coeff-Com: -0.616D+00 0.704D+00 0.332D-01 0.302D+00 0.576D+00
 Coeff-En:   0.000D+00 0.000D+00 0.000D+00 0.464D+00 0.536D+00
 Coeff:     -0.614D+00 0.702D+00 0.331D-01 0.303D+00 0.576D+00
 Gap=     0.090 Goal=   None    Shift=    0.000
 RMSDP=1.92D-05 MaxDP=2.09D-03 DE=-7.11D-06 OVMax= 4.94D-03

 Cycle   6  Pass 1  IDiag  1:
 E= -119.098809696170     Delta-E=       -0.000005673235 Rises=F Damp=F
 DIIS: error= 2.33D-04 at cycle   6 NSaved=   6.
 NSaved= 6 IEnMin= 6 EnMin= -119.098809696170     IErMin= 6 ErrMin= 2.33D-04
 ErrMax= 2.33D-04  0.00D+00 EMaxC= 1.00D-01 BMatC= 9.86D-06 BMatP= 1.40D-05
 IDIUse=3 WtCom= 9.98D-01 WtEn= 2.33D-03
 EnCoef did     2 forward-backward iterations
 Coeff-Com: -0.575D+00 0.657D+00-0.783D-01 0.171D+00 0.504D+00 0.322D+00
 Coeff-En:   0.000D+00 0.000D+00 0.000D+00 0.438D+00 0.510D+00 0.523D-01
 Coeff:     -0.573D+00 0.655D+00-0.782D-01 0.171D+00 0.504D+00 0.321D+00
 Gap=     0.090 Goal=   None    Shift=    0.000
 RMSDP=1.18D-05 MaxDP=1.35D-03 DE=-5.67D-06 OVMax= 3.17D-03

 Cycle   7  Pass 1  IDiag  1:
 E= -119.098817934192     Delta-E=       -0.000008238022 Rises=F Damp=F
 DIIS: error= 2.29D-04 at cycle   7 NSaved=   7.
 NSaved= 7 IEnMin= 7 EnMin= -119.098817934192     IErMin= 7 ErrMin= 2.29D-04
 ErrMax= 2.29D-04  0.00D+00 EMaxC= 1.00D-01 BMatC= 5.26D-06 BMatP= 9.86D-06
 IDIUse=3 WtCom= 9.98D-01 WtEn= 2.29D-03
 Rare condition: small coef for last iteration:  0.111D-15
 Coeff-Com: -0.522D+00 0.596D+00-0.957D-01 0.398D-01 0.239D+00 0.245D+00
 Coeff-Com:  0.497D+00
 Coeff-En:   0.000D+00 0.000D+00 0.000D+00 0.221D+00 0.631D-01 0.179D+00
 Coeff-En:   0.537D+00
 Coeff:     -0.522D+00 0.596D+00-0.957D-01 0.398D-01 0.239D+00 0.245D+00
 Coeff:      0.497D+00
 Gap=     0.090 Goal=   None    Shift=    0.000
 RMSDP=9.54D-06 MaxDP=8.83D-04 DE=-8.24D-06 OVMax= 6.33D-04

 Cycle   8  Pass 1  IDiag  1:
 E= -119.098819564260     Delta-E=       -0.000001630068 Rises=F Damp=F
 DIIS: error= 1.69D-04 at cycle   8 NSaved=   8.
 NSaved= 8 IEnMin= 8 EnMin= -119.098819564260     IErMin= 8 ErrMin= 1.69D-04
 ErrMax= 1.69D-04  0.00D+00 EMaxC= 1.00D-01 BMatC= 4.00D-06 BMatP= 5.26D-06
 IDIUse=3 WtCom= 9.98D-01 WtEn= 1.69D-03
 EnCoef did   100 forward-backward iterations
 Coeff-Com: -0.460D+00 0.526D+00-0.794D-01-0.323D-01 0.449D-01 0.108D+00
 Coeff-Com:  0.328D+00 0.565D+00
 Coeff-En:   0.000D+00 0.000D+00 0.000D+00 0.431D+00 0.495D+00 0.502D-01
 Coeff-En:   0.000D+00 0.239D-01
 Coeff:     -0.459D+00 0.525D+00-0.792D-01-0.315D-01 0.456D-01 0.108D+00
 Coeff:      0.327D+00 0.564D+00
 Gap=     0.090 Goal=   None    Shift=    0.000
 RMSDP=6.25D-06 MaxDP=8.17D-04 DE=-1.63D-06 OVMax= 2.00D-04

 Cycle   9  Pass 1  IDiag  1:
 E= -119.098820741094     Delta-E=       -0.000001176834 Rises=F Damp=F
 DIIS: error= 1.44D-04 at cycle   9 NSaved=   9.
 NSaved= 9 IEnMin= 9 EnMin= -119.098820741094     IErMin= 9 ErrMin= 1.44D-04
 ErrMax= 1.44D-04  0.00D+00 EMaxC= 1.00D-01 BMatC= 2.91D-06 BMatP= 4.00D-06
 IDIUse=3 WtCom= 9.99D-01 WtEn= 1.44D-03
 EnCoef did   100 forward-backward iterations
 Rare condition: small coef for last iteration:  0.344D-15
 Coeff-Com: -0.342D+00 0.391D+00-0.444D-01-0.762D-01-0.115D+00-0.576D-01
 Coeff-Com:  0.419D-02 0.294D+00 0.946D+00
 Coeff-En:   0.000D+00 0.000D+00 0.000D+00 0.174D+00 0.170D-01 0.296D-01
 Coeff-En:   0.000D+00 0.000D+00 0.779D+00
 Coeff:     -0.342D+00 0.391D+00-0.444D-01-0.762D-01-0.115D+00-0.576D-01
 Coeff:      0.419D-02 0.294D+00 0.946D+00
 Gap=     0.090 Goal=   None    Shift=    0.000
 RMSDP=1.00D-05 MaxDP=1.34D-03 DE=-1.18D-06 OVMax= 2.62D-04

 Cycle  10  Pass 1  IDiag  1:
 E= -119.098822010219     Delta-E=       -0.000001269125 Rises=F Damp=F
 DIIS: error= 1.10D-04 at cycle  10 NSaved=  10.
 NSaved=10 IEnMin=10 EnMin= -119.098822010219     IErMin=10 ErrMin= 1.10D-04
 ErrMax= 1.10D-04  0.00D+00 EMaxC= 1.00D-01 BMatC= 1.62D-06 BMatP= 2.91D-06
 IDIUse=3 WtCom= 9.99D-01 WtEn= 1.10D-03
 EnCoef did   100 forward-backward iterations
 Coeff-Com: -0.289D+00 0.330D+00-0.342D-01-0.731D-01-0.123D+00-0.770D-01
 Coeff-Com: -0.528D-01 0.175D+00 0.758D+00 0.387D+00
 Coeff-En:   0.000D+00 0.000D+00 0.000D+00 0.420D+00 0.482D+00 0.457D-01
 Coeff-En:   0.000D+00 0.000D+00 0.000D+00 0.524D-01
 Coeff:     -0.288D+00 0.330D+00-0.342D-01-0.726D-01-0.123D+00-0.768D-01
 Coeff:     -0.527D-01 0.175D+00 0.757D+00 0.386D+00
 Gap=     0.090 Goal=   None    Shift=    0.000
 RMSDP=4.67D-06 MaxDP=6.14D-04 DE=-1.27D-06 OVMax= 1.35D-04

 Cycle  11  Pass 1  IDiag  1:
 E= -119.098822481009     Delta-E=       -0.000000470790 Rises=F Damp=F
 DIIS: error= 9.17D-05 at cycle  11 NSaved=  11.
 NSaved=11 IEnMin=11 EnMin= -119.098822481009     IErMin=11 ErrMin= 9.17D-05
 ErrMax= 9.17D-05  0.00D+00 EMaxC= 1.00D-01 BMatC= 1.15D-06 BMatP= 1.62D-06
 IDIUse=1 WtCom= 1.00D+00 WtEn= 0.00D+00
 Coeff-Com: -0.125D+00 0.142D+00-0.155D-01-0.206D-01-0.276D-01-0.191D-01
 Coeff-Com: -0.173D-01 0.161D-01-0.548D+00-0.256D+00 0.187D+01
 Coeff:     -0.125D+00 0.142D+00-0.155D-01-0.206D-01-0.276D-01-0.191D-01
 Coeff:     -0.173D-01 0.161D-01-0.548D+00-0.256D+00 0.187D+01
 Gap=     0.090 Goal=   None    Shift=    0.000
 RMSDP=1.41D-05 MaxDP=1.78D-03 DE=-4.71D-07 OVMax= 3.65D-04

 Cycle  12  Pass 1  IDiag  1:
 E= -119.098823407442     Delta-E=       -0.000000926433 Rises=F Damp=F
 DIIS: error= 3.94D-05 at cycle  12 NSaved=  12.
 NSaved=12 IEnMin=12 EnMin= -119.098823407442     IErMin=12 ErrMin= 3.94D-05
 ErrMax= 3.94D-05  0.00D+00 EMaxC= 1.00D-01 BMatC= 2.19D-07 BMatP= 1.15D-06
 IDIUse=1 WtCom= 1.00D+00 WtEn= 0.00D+00
 Coeff-Com: -0.714D-01 0.816D-01-0.115D-01-0.729D-03 0.143D-01 0.162D-01
 Coeff-Com:  0.344D-01 0.471D-01-0.606D+00-0.503D+00 0.136D+01 0.636D+00
 Coeff:     -0.714D-01 0.816D-01-0.115D-01-0.729D-03 0.143D-01 0.162D-01
 Coeff:      0.344D-01 0.471D-01-0.606D+00-0.503D+00 0.136D+01 0.636D+00
 Gap=     0.090 Goal=   None    Shift=    0.000
 RMSDP=4.37D-06 MaxDP=5.79D-04 DE=-9.26D-07 OVMax= 1.35D-04

 Cycle  13  Pass 1  IDiag  1:
 E= -119.098823554674     Delta-E=       -0.000000147233 Rises=F Damp=F
 DIIS: error= 2.35D-05 at cycle  13 NSaved=  13.
 NSaved=13 IEnMin=13 EnMin= -119.098823554674     IErMin=13 ErrMin= 2.35D-05
 ErrMax= 2.35D-05  0.00D+00 EMaxC= 1.00D-01 BMatC= 7.12D-08 BMatP= 2.19D-07
 IDIUse=1 WtCom= 1.00D+00 WtEn= 0.00D+00
 Coeff-Com: -0.430D-01 0.492D-01-0.818D-02 0.162D-02 0.160D-01 0.195D-01
 Coeff-Com:  0.418D-01 0.583D-01-0.195D+00-0.348D+00 0.236D+00 0.552D+00
 Coeff-Com:  0.620D+00
 Coeff:     -0.430D-01 0.492D-01-0.818D-02 0.162D-02 0.160D-01 0.195D-01
 Coeff:      0.418D-01 0.583D-01-0.195D+00-0.348D+00 0.236D+00 0.552D+00
 Coeff:      0.620D+00
 Gap=     0.090 Goal=   None    Shift=    0.000
 RMSDP=2.57D-06 MaxDP=3.39D-04 DE=-1.47D-07 OVMax= 6.82D-05

 Cycle  14  Pass 1  IDiag  1:
 E= -119.098823600347     Delta-E=       -0.000000045672 Rises=F Damp=F
 DIIS: error= 1.37D-05 at cycle  14 NSaved=  14.
 NSaved=14 IEnMin=14 EnMin= -119.098823600347     IErMin=14 ErrMin= 1.37D-05
 ErrMax= 1.37D-05  0.00D+00 EMaxC= 1.00D-01 BMatC= 2.56D-08 BMatP= 7.12D-08
 IDIUse=1 WtCom= 1.00D+00 WtEn= 0.00D+00
 Coeff-Com: -0.256D-01 0.293D-01-0.470D-02-0.103D-02 0.458D-02 0.839D-02
 Coeff-Com:  0.218D-01 0.375D-01 0.295D-01-0.167D+00-0.171D+00 0.259D+00
 Coeff-Com:  0.341D+00 0.639D+00
 Coeff:     -0.256D-01 0.293D-01-0.470D-02-0.103D-02 0.458D-02 0.839D-02
 Coeff:      0.218D-01 0.375D-01 0.295D-01-0.167D+00-0.171D+00 0.259D+00
 Coeff:      0.341D+00 0.639D+00
 Gap=     0.090 Goal=   None    Shift=    0.000
 RMSDP=1.53D-06 MaxDP=2.00D-04 DE=-4.57D-08 OVMax= 3.96D-05

 Cycle  15  Pass 1  IDiag  1:
 E= -119.098823616802     Delta-E=       -0.000000016455 Rises=F Damp=F
 DIIS: error= 8.27D-06 at cycle  15 NSaved=  15.
 NSaved=15 IEnMin=15 EnMin= -119.098823616802     IErMin=15 ErrMin= 8.27D-06
 ErrMax= 8.27D-06  0.00D+00 EMaxC= 1.00D-01 BMatC= 9.13D-09 BMatP= 2.56D-08
 IDIUse=1 WtCom= 1.00D+00 WtEn= 0.00D+00
 Coeff-Com: -0.149D-01 0.171D-01-0.213D-02-0.352D-02-0.528D-02-0.200D-02
 Coeff-Com:  0.252D-02 0.187D-01 0.131D+00-0.191D-01-0.259D+00 0.107D-01
 Coeff-Com: -0.106D-01 0.336D+00 0.799D+00
 Coeff:     -0.149D-01 0.171D-01-0.213D-02-0.352D-02-0.528D-02-0.200D-02
 Coeff:      0.252D-02 0.187D-01 0.131D+00-0.191D-01-0.259D+00 0.107D-01
 Coeff:     -0.106D-01 0.336D+00 0.799D+00
 Gap=     0.090 Goal=   None    Shift=    0.000
 RMSDP=9.05D-07 MaxDP=1.03D-04 DE=-1.65D-08 OVMax= 3.02D-05

 Cycle  16  Pass 1  IDiag  1:
 E= -119.098823622734     Delta-E=       -0.000000005932 Rises=F Damp=F
 DIIS: error= 4.86D-06 at cycle  16 NSaved=  16.
 NSaved=16 IEnMin=16 EnMin= -119.098823622734     IErMin=16 ErrMin= 4.86D-06
 ErrMax= 4.86D-06  0.00D+00 EMaxC= 1.00D-01 BMatC= 3.17D-09 BMatP= 9.13D-09
 IDIUse=1 WtCom= 1.00D+00 WtEn= 0.00D+00
 Coeff-Com: -0.660D-02 0.754D-02-0.248D-03-0.440D-02-0.103D-01-0.819D-02
 Coeff-Com: -0.105D-01 0.435D-02 0.142D+00 0.777D-01-0.196D+00-0.145D+00
 Coeff-Com: -0.245D+00-0.132D+00 0.101D+01 0.514D+00
 Coeff:     -0.660D-02 0.754D-02-0.248D-03-0.440D-02-0.103D-01-0.819D-02
 Coeff:     -0.105D-01 0.435D-02 0.142D+00 0.777D-01-0.196D+00-0.145D+00
 Coeff:     -0.245D+00-0.132D+00 0.101D+01 0.514D+00
 Gap=     0.090 Goal=   None    Shift=    0.000
 RMSDP=7.09D-07 MaxDP=8.17D-05 DE=-5.93D-09 OVMax= 2.31D-05

 Cycle  17  Pass 1  IDiag  1:
 E= -119.098823625379     Delta-E=       -0.000000002645 Rises=F Damp=F
 DIIS: error= 2.11D-06 at cycle  17 NSaved=  17.
 NSaved=17 IEnMin=17 EnMin= -119.098823625379     IErMin=17 ErrMin= 2.11D-06
 ErrMax= 2.11D-06  0.00D+00 EMaxC= 1.00D-01 BMatC= 6.05D-10 BMatP= 3.17D-09
 IDIUse=1 WtCom= 1.00D+00 WtEn= 0.00D+00
 Coeff-Com: -0.479D-03 0.548D-03 0.177D-03-0.799D-03-0.240D-02-0.228D-02
 Coeff-Com: -0.470D-02 0.129D-02 0.756D-03 0.344D-01 0.126D-01-0.495D-01
 Coeff-Com: -0.706D-01-0.235D+00 0.881D-01 0.184D+00 0.104D+01
 Coeff:     -0.479D-03 0.548D-03 0.177D-03-0.799D-03-0.240D-02-0.228D-02
 Coeff:     -0.470D-02 0.129D-02 0.756D-03 0.344D-01 0.126D-01-0.495D-01
 Coeff:     -0.706D-01-0.235D+00 0.881D-01 0.184D+00 0.104D+01
 Gap=     0.090 Goal=   None    Shift=    0.000
 RMSDP=5.52D-07 MaxDP=8.40D-05 DE=-2.65D-09 OVMax= 1.37D-05

 Cycle  18  Pass 1  IDiag  1:
 E= -119.098823625990     Delta-E=       -0.000000000611 Rises=F Damp=F
 DIIS: error= 1.89D-07 at cycle  18 NSaved=  18.
 NSaved=18 IEnMin=18 EnMin= -119.098823625990     IErMin=18 ErrMin= 1.89D-07
 ErrMax= 1.89D-07  0.00D+00 EMaxC= 1.00D-01 BMatC= 4.85D-12 BMatP= 6.05D-10
 IDIUse=1 WtCom= 1.00D+00 WtEn= 0.00D+00
 Coeff-Com:  0.762D-03-0.871D-03 0.144D-03 0.255D-03 0.279D-03-0.787D-05
 Coeff-Com: -0.120D-02-0.215D-03-0.245D-01 0.895D-02 0.423D-01-0.563D-02
 Coeff-Com: -0.866D-03-0.124D+00-0.122D+00 0.216D-01 0.616D+00 0.589D+00
 Coeff:      0.762D-03-0.871D-03 0.144D-03 0.255D-03 0.279D-03-0.787D-05
 Coeff:     -0.120D-02-0.215D-03-0.245D-01 0.895D-02 0.423D-01-0.563D-02
 Coeff:     -0.866D-03-0.124D+00-0.122D+00 0.216D-01 0.616D+00 0.589D+00
 Gap=     0.090 Goal=   None    Shift=    0.000
 RMSDP=1.04D-07 MaxDP=7.08D-06 DE=-6.11D-10 OVMax= 4.97D-06

 Cycle  19  Pass 1  IDiag  1:
 E= -119.098823625985     Delta-E=        0.000000000005 Rises=F Damp=F
 DIIS: error= 2.74D-07 at cycle  19 NSaved=  19.
 NSaved=19 IEnMin=18 EnMin= -119.098823625990     IErMin=18 ErrMin= 1.89D-07
 ErrMax= 2.74D-07  0.00D+00 EMaxC= 1.00D-01 BMatC= 1.05D-11 BMatP= 4.85D-12
 IDIUse=1 WtCom= 1.00D+00 WtEn= 0.00D+00
 Coeff-Com:  0.708D-03-0.809D-03 0.487D-04 0.488D-03 0.107D-02 0.788D-03
 Coeff-Com:  0.566D-03-0.805D-03-0.222D-01-0.336D-02 0.349D-01 0.124D-01
 Coeff-Com:  0.238D-01-0.326D-01-0.143D+00-0.449D-01 0.203D+00 0.603D+00
 Coeff-Com:  0.367D+00
 Coeff:      0.708D-03-0.809D-03 0.487D-04 0.488D-03 0.107D-02 0.788D-03
 Coeff:      0.566D-03-0.805D-03-0.222D-01-0.336D-02 0.349D-01 0.124D-01
 Coeff:      0.238D-01-0.326D-01-0.143D+00-0.449D-01 0.203D+00 0.603D+00
 Coeff:      0.367D+00
 Gap=     0.090 Goal=   None    Shift=    0.000
 RMSDP=2.04D-08 MaxDP=4.95D-06 DE= 5.31D-12 OVMax= 2.63D-06

 Cycle  20  Pass 1  IDiag  1:
 E= -119.098823625992     Delta-E=       -0.000000000007 Rises=F Damp=F
 DIIS: error= 2.33D-07 at cycle  20 NSaved=  20.
 NSaved=20 IEnMin=20 EnMin= -119.098823625992     IErMin=18 ErrMin= 1.89D-07
 ErrMax= 2.33D-07  0.00D+00 EMaxC= 1.00D-01 BMatC= 6.92D-12 BMatP= 4.85D-12
 IDIUse=1 WtCom= 1.00D+00 WtEn= 0.00D+00
 Coeff-Com: -0.126D-03 0.144D-03-0.520D-04 0.126D-03 0.410D-03 0.386D-03
 Coeff-Com:  0.683D-03-0.498D-03-0.316D-02-0.367D-02 0.617D-02 0.834D-02
 Coeff-Com:  0.116D-01 0.160D-01-0.367D-01-0.269D-01-0.548D-01 0.194D+00
 Coeff-Com:  0.217D+00 0.671D+00
 Coeff:     -0.126D-03 0.144D-03-0.520D-04 0.126D-03 0.410D-03 0.386D-03
 Coeff:      0.683D-03-0.498D-03-0.316D-02-0.367D-02 0.617D-02 0.834D-02
 Coeff:      0.116D-01 0.160D-01-0.367D-01-0.269D-01-0.548D-01 0.194D+00
 Coeff:      0.217D+00 0.671D+00
 Gap=     0.090 Goal=   None    Shift=    0.000
 RMSDP=6.94D-08 MaxDP=6.38D-06 DE=-6.74D-12 OVMax= 1.98D-06

 Cycle  21  Pass 1  IDiag  1:
 E= -119.098823625998     Delta-E=       -0.000000000006 Rises=F Damp=F
 DIIS: error= 4.41D-08 at cycle  21 NSaved=  20.
 NSaved=20 IEnMin=20 EnMin= -119.098823625998     IErMin=20 ErrMin= 4.41D-08
 ErrMax= 4.41D-08  0.00D+00 EMaxC= 1.00D-01 BMatC= 2.25D-13 BMatP= 4.85D-12
 IDIUse=1 WtCom= 1.00D+00 WtEn= 0.00D+00
 Coeff-Com:  0.544D-11 0.474D-05-0.382D-04-0.870D-04-0.709D-04-0.446D-04
 Coeff-Com: -0.332D-03 0.301D-02 0.867D-04-0.421D-02-0.488D-03-0.209D-02
 Coeff-Com:  0.828D-02 0.164D-01 0.791D-03-0.583D-01-0.454D-01 0.384D-02
 Coeff-Com:  0.198D+00 0.880D+00
 Coeff:      0.544D-11 0.474D-05-0.382D-04-0.870D-04-0.709D-04-0.446D-04
 Coeff:     -0.332D-03 0.301D-02 0.867D-04-0.421D-02-0.488D-03-0.209D-02
 Coeff:      0.828D-02 0.164D-01 0.791D-03-0.583D-01-0.454D-01 0.384D-02
 Coeff:      0.198D+00 0.880D+00
 Gap=     0.090 Goal=   None    Shift=    0.000
 RMSDP=1.23D-08 MaxDP=1.67D-06 DE=-6.48D-12 OVMax= 3.05D-07

 Cycle  22  Pass 1  IDiag  1:
 E= -119.098823625998     Delta-E=       -0.000000000000 Rises=F Damp=F
 DIIS: error= 9.87D-09 at cycle  22 NSaved=  20.
 NSaved=20 IEnMin=20 EnMin= -119.098823625998     IErMin=20 ErrMin= 9.87D-09
 ErrMax= 9.87D-09  0.00D+00 EMaxC= 1.00D-01 BMatC= 6.60D-15 BMatP= 2.25D-13
 IDIUse=1 WtCom= 1.00D+00 WtEn= 0.00D+00
 Coeff-Com:  0.985D-05-0.550D-04-0.144D-03-0.127D-03-0.162D-03-0.127D-03
 Coeff-Com:  0.288D-02 0.720D-03-0.424D-02-0.186D-02-0.378D-02 0.304D-02
 Coeff-Com:  0.196D-01 0.585D-02-0.339D-01-0.669D-01-0.347D-01 0.255D-01
 Coeff-Com:  0.574D+00 0.515D+00
 Coeff:      0.985D-05-0.550D-04-0.144D-03-0.127D-03-0.162D-03-0.127D-03
 Coeff:      0.288D-02 0.720D-03-0.424D-02-0.186D-02-0.378D-02 0.304D-02
 Coeff:      0.196D-01 0.585D-02-0.339D-01-0.669D-01-0.347D-01 0.255D-01
 Coeff:      0.574D+00 0.515D+00
 Gap=     0.090 Goal=   None    Shift=    0.000
 RMSDP=3.35D-09 MaxDP=4.89D-07 DE=-2.84D-13 OVMax= 1.87D-07

 SCF Done:  E(ROHF) =  -119.098823626     A.U. after   22 cycles
            NFock= 22  Conv=0.34D-08     -V/T= 2.7218
 <Sx>= 0.0000 <Sy>= 0.0000 <Sz>= 2.5000 <S**2>= 8.7500 S= 2.5000
 <L.S>=  0.00000000000    
 KE= 6.916979658062D+01 PE=-3.437007960961D+02 EE= 1.214136409018D+02
 Annihilation of the first spin contaminant:
 S**2 before annihilation     8.7500,   after     8.7500
 Leave Link  502 at Fri Mar  9 16:39:06 2018, MaxMem= 10737418240 cpu:            1927.0 elap:             139.5
 (Enter /home1/apps/gaussian/16rA.03/g16/l801.exe)
 Windowed orbitals will be sorted by symmetry type.
 GenMOA:  NOpAll=  4 NOp2=4 NOpUse=  4 JSym2X=1
 FoFJK:  IHMeth= 1 ICntrl=       0 DoSepK=F KAlg= 0 I1Cent=           0 FoldK=F
 IRaf=         0 NMat=       1 IRICut=       1 DoRegI=T DoRafI=F ISym2E= 1 IDoP0=0 IntGTp=1.
 FoFCou: FMM=F IPFlag=           8 FMFlag=      100000 FMFlg1=           0
         NFxFlg=           0 DoJE=F BraDBF=F KetDBF=F FulRan=T
         wScrn=  0.000000 ICntrl=         0 IOpCl=  1 I1Cent=           0 NGrid=           0
         NMat0=    1 NMatS0=      1 NMatT0=    0 NMatD0=    1 NMtDS0=    0 NMtDT0=    0
 Petite list used in FoFCou.
 <Sx>= 0.0000 <Sy>= 0.0000 <Sz>= 2.5000 <S**2>= 8.7500 S= 2.5000
 Range of M.O.s used for correlation:     1   377
 NBasis=   384 NAE=    13 NBE=     8 NFC=     0 NFV=     0
 NROrb=    377 NOA=    13 NOB=     8 NVA=   364 NVB=   369

 **** Warning!!: The largest alpha MO coefficient is  0.28305144D+03


 **** Warning!!: The largest beta MO coefficient is  0.28303856D+03

 Singles contribution to E2=   -0.8698404563D-02
 Leave Link  801 at Fri Mar  9 16:39:40 2018, MaxMem= 10737418240 cpu:             551.6 elap:              34.5
 (Enter /home1/apps/gaussian/16rA.03/g16/l804.exe)
 Open-shell transformation, MDV= 10737418240 ITran=4 ISComp=2.
 Unit  1 TFree=       4469277 TCopy=       3195938.
 Semi-Direct transformation.
 ModeAB=           4 MOrb=            13 LenV=   10733154831
 LASXX=     86562733 LTotXX=    86562733 LenRXX=   174043909
 LTotAB=    87481176 MaxLAS=   600921412 LenRXY=           0
 NonZer=   260606642 LenScr=   392443904 LnRSAI=   600921412
 LnScr1=   904916992 LExtra=    24337619 Total=   2096663836
 MaxDsk= 67108864000 SrtSym=           T ITran=            4
 DoSDTr:  NPSUse= 16
 JobTyp=1 Pass  1:  I=   1 to  13.
 (rs|ai) integrals will be sorted in core.
 Complete sort for first half transformation.
 First half transformation complete.
 Begin second half transformation for I=  10.
 Complete sort for second half transformation.
 Second half transformation complete.
 ModeAB=           4 MOrb=             8 LenV=   10733154831
 LASXX=     53932406 LTotXX=    53932406 LenRXX=   104697494
 LTotAB=    50765088 MaxLAS=   369797792 LenRXY=           0
 NonZer=   158629900 LenScr=   238878720 LnRSAI=   369797792
 LnScr1=   556872704 LExtra=   198381528 Total=   1468628238
 MaxDsk= 67108864000 SrtSym=           T ITran=            4
 DoSDTr:  NPSUse= 16
 JobTyp=2 Pass  1:  I=   1 to   8.
 (rs|ai) integrals will be sorted in core.
 Complete sort for first half transformation.
 First half transformation complete.
 Complete sort for second half transformation.
 Second half transformation complete.
 Spin components of T(2) and E(2):
     alpha-alpha T2 =       0.4121637597D-01 E2=     -0.1978315147D+00
     alpha-beta  T2 =       0.1236261880D+00 E2=     -0.6618978179D+00
     beta-beta   T2 =       0.2492260613D-01 E2=     -0.9990829674D-01
 ANorm=    0.1093940154D+01
 E2 =    -0.9683360339D+00 EUMP2 =    -0.12006715965994D+03
 (S**2,0)=  0.87500D+01           (S**2,1)=  0.87500D+01
 E(PUHF)=      -0.11909882363D+03        E(PMP2)=      -0.12006715966D+03
 Recovering and transforming amplitudes from chk file.
 B after Tr=     0.000000    0.000000    0.000000
         Rot=    1.000000    0.000000    0.000000    0.000000 Ang=   0.00 deg.
 Alpha occ  Sing. vals= 9.999997D-01 9.999997D-01 9.999993D-01 9.999985D-01 9.999962D-01 9.999934D-01 9.999934D-01 9.999922D-01 9.999903D-01 9.999903D-01
 Alpha occ  Sing. vals= 9.999727D-01 9.999659D-01 9.999659D-01
 Alpha occ  NOrbO=    13 NOrbN=    13 NSVal=    13 ThrEig=  0.900000.
 TrMax= 1.000000D+00 PrMax= 1.000000D+00 Trace(Pr)= 1.300000D+01
 B after Tr=     0.000000    0.000000    0.000000
         Rot=    1.000000    0.000000    0.000000    0.000000 Ang=   0.00 deg.
 Alpha virt Sing. vals= 1.000000D+00 1.000000D+00 1.000000D+00 1.000000D+00 1.000000D+00 1.000000D+00 1.000000D+00 1.000000D+00 1.000000D+00 1.000000D+00
 Alpha virt Sing. vals= 1.000000D+00 1.000000D+00 1.000000D+00 1.000000D+00 1.000000D+00 1.000000D+00 1.000000D+00 1.000000D+00 1.000000D+00 1.000000D+00
 Alpha virt Sing. vals= 1.000000D+00 1.000000D+00 1.000000D+00 1.000000D+00 9.999999D-01 9.999999D-01 9.999999D-01 9.999999D-01 9.999999D-01 9.999999D-01
 Alpha virt Sing. vals= 9.999999D-01 9.999999D-01 9.999998D-01 9.999998D-01 9.999998D-01 9.999998D-01 9.999997D-01 9.999996D-01 9.999994D-01 9.999994D-01
 Alpha virt Sing. vals= 9.999994D-01 9.999991D-01 9.999991D-01 9.999989D-01 9.999989D-01 9.999989D-01 9.999986D-01 9.999986D-01 9.999984D-01 9.999984D-01
 Alpha virt Sing. vals= 9.999982D-01 9.999973D-01 9.999965D-01 9.999965D-01 9.999965D-01 9.999961D-01 9.999956D-01 9.999956D-01 9.999943D-01 9.999943D-01
 Alpha virt Sing. vals= 9.999943D-01 9.999942D-01 9.999942D-01 9.999878D-01 9.999856D-01 9.999816D-01 9.999816D-01 9.999807D-01 9.999792D-01 9.999759D-01
 Alpha virt Sing. vals= 9.999742D-01 9.999742D-01 9.999741D-01 9.999741D-01 9.999700D-01 9.999700D-01 9.999691D-01 9.999630D-01 9.999413D-01 9.999413D-01
 Alpha virt Sing. vals= 9.999240D-01 9.999240D-01 9.999235D-01 9.999221D-01 9.999173D-01 9.999113D-01 9.999096D-01 9.999095D-01 9.999095D-01 9.998920D-01
 Alpha virt Sing. vals= 9.998920D-01 9.998732D-01 9.998226D-01 9.998226D-01 9.998195D-01 9.998026D-01 9.998026D-01 9.998022D-01 9.998022D-01 9.997926D-01
 Alpha virt Sing. vals= 9.997926D-01 9.997829D-01 9.997826D-01 9.997826D-01 9.997428D-01 9.997428D-01 9.997259D-01 9.997176D-01 9.997176D-01 9.997122D-01
 Alpha virt Sing. vals= 9.996333D-01 9.996243D-01 9.996243D-01 9.995925D-01 9.995843D-01 9.995836D-01 9.995836D-01 9.995828D-01 9.995828D-01 9.995812D-01
 Alpha virt Sing. vals= 9.995740D-01 9.995740D-01 9.995611D-01 9.995611D-01 9.995595D-01 9.995013D-01 9.995013D-01 9.994858D-01 9.994858D-01 9.994579D-01
 Alpha virt Sing. vals= 9.994579D-01 9.994464D-01 9.994464D-01 9.993953D-01 9.991213D-01 9.990888D-01 9.990888D-01 9.989046D-01 9.989046D-01 9.988999D-01
 Alpha virt Sing. vals= 9.985273D-01 9.984130D-01 9.984130D-01 9.981829D-01 9.981006D-01 9.981006D-01 9.980850D-01 9.980850D-01 9.979081D-01 9.979081D-01
 Alpha virt Sing. vals= 9.976844D-01 9.976844D-01 9.973358D-01 9.971089D-01 9.971089D-01 9.970414D-01 9.970414D-01 9.966142D-01 9.966142D-01 9.963861D-01
 Alpha virt Sing. vals= 9.963249D-01 9.962015D-01 9.960565D-01 9.960565D-01 9.959439D-01 9.959439D-01 9.958393D-01 9.958393D-01 9.957960D-01 9.951971D-01
 Alpha virt Sing. vals= 9.951950D-01 9.951950D-01 9.948147D-01 9.948147D-01 9.945690D-01 9.945690D-01 9.943885D-01 9.929848D-01 9.929848D-01 9.928892D-01
 Alpha virt Sing. vals= 9.928892D-01 9.927485D-01 9.921294D-01 9.900878D-01 9.884821D-01 9.884821D-01 9.856929D-01 9.856929D-01 9.844015D-01 9.840310D-01
 Alpha virt Sing. vals= 9.840310D-01 9.837665D-01 9.837665D-01 9.821080D-01 9.821080D-01 9.819730D-01 9.806721D-01 9.806721D-01 9.800417D-01 9.759503D-01
 Alpha virt Sing. vals= 9.744534D-01 9.744534D-01 9.691258D-01 9.691258D-01 9.645244D-01 9.645244D-01 9.640867D-01 9.526996D-01 9.526996D-01 9.481123D-01
 Alpha virt Sing. vals= 9.450393D-01 9.419609D-01 9.396317D-01 9.396317D-01 9.373895D-01 9.373862D-01 9.373862D-01 9.326031D-01 9.326031D-01 9.293819D-01
 Alpha virt Sing. vals= 9.267087D-01 9.267087D-01 9.244515D-01 9.244515D-01 9.233425D-01 9.233425D-01 9.211346D-01 9.211346D-01 9.137464D-01 9.137464D-01
 Alpha virt Sing. vals= 9.034531D-01 9.034531D-01 8.971226D-01 8.806950D-01 8.473089D-01 8.473089D-01 8.462709D-01 8.462709D-01 8.442387D-01 8.442387D-01
 Alpha virt Sing. vals= 8.395359D-01 7.844824D-01 7.844824D-01 6.470461D-01 4.851225D-01
 Alpha virt NOrbO=   245 NOrbN=   364 NSVal=   232 ThrEig=  0.900000.
 TrMax= 9.976440D-01 PrMax= 9.998892D-01 Trace(Pr)= 2.320000D+02
 B after Tr=     0.000000    0.000000    0.000000
         Rot=    1.000000    0.000000    0.000000    0.000000 Ang=   0.00 deg.
 Beta  occ  Sing. vals= 9.999995D-01 9.999995D-01 9.999992D-01 9.999983D-01 9.999961D-01 9.999727D-01 9.999690D-01 9.999690D-01
 Beta  occ  NOrbO=     8 NOrbN=     8 NSVal=     8 ThrEig=  0.900000.
 TrMax= 1.000000D+00 PrMax= 1.000000D+00 Trace(Pr)= 8.000000D+00
 B after Tr=     0.000000    0.000000    0.000000
         Rot=    1.000000    0.000000    0.000000    0.000000 Ang=   0.00 deg.
 Beta  virt Sing. vals= 1.000000D+00 1.000000D+00 1.000000D+00 1.000000D+00 1.000000D+00 1.000000D+00 1.000000D+00 1.000000D+00 1.000000D+00 1.000000D+00
 Beta  virt Sing. vals= 1.000000D+00 1.000000D+00 1.000000D+00 1.000000D+00 1.000000D+00 1.000000D+00 1.000000D+00 1.000000D+00 1.000000D+00 1.000000D+00
 Beta  virt Sing. vals= 1.000000D+00 1.000000D+00 1.000000D+00 1.000000D+00 1.000000D+00 1.000000D+00 1.000000D+00 1.000000D+00 1.000000D+00 9.999999D-01
 Beta  virt Sing. vals= 9.999999D-01 9.999999D-01 9.999999D-01 9.999999D-01 9.999999D-01 9.999999D-01 9.999999D-01 9.999998D-01 9.999998D-01 9.999998D-01
 Beta  virt Sing. vals= 9.999998D-01 9.999997D-01 9.999996D-01 9.999994D-01 9.999994D-01 9.999994D-01 9.999991D-01 9.999991D-01 9.999989D-01 9.999989D-01
 Beta  virt Sing. vals= 9.999989D-01 9.999986D-01 9.999986D-01 9.999982D-01 9.999982D-01 9.999982D-01 9.999973D-01 9.999965D-01 9.999965D-01 9.999965D-01
 Beta  virt Sing. vals= 9.999961D-01 9.999953D-01 9.999953D-01 9.999943D-01 9.999942D-01 9.999942D-01 9.999939D-01 9.999939D-01 9.999878D-01 9.999856D-01
 Beta  virt Sing. vals= 9.999816D-01 9.999816D-01 9.999807D-01 9.999792D-01 9.999759D-01 9.999741D-01 9.999741D-01 9.999740D-01 9.999740D-01 9.999699D-01
 Beta  virt Sing. vals= 9.999699D-01 9.999691D-01 9.999630D-01 9.999402D-01 9.999402D-01 9.999237D-01 9.999237D-01 9.999236D-01 9.999221D-01 9.999173D-01
 Beta  virt Sing. vals= 9.999113D-01 9.999096D-01 9.999095D-01 9.999095D-01 9.998918D-01 9.998918D-01 9.998732D-01 9.998226D-01 9.998226D-01 9.998195D-01
 Beta  virt Sing. vals= 9.998026D-01 9.998026D-01 9.998017D-01 9.998017D-01 9.997926D-01 9.997926D-01 9.997829D-01 9.997826D-01 9.997826D-01 9.997427D-01
 Beta  virt Sing. vals= 9.997427D-01 9.997259D-01 9.997176D-01 9.997176D-01 9.997121D-01 9.996332D-01 9.996240D-01 9.996240D-01 9.995924D-01 9.995843D-01
 Beta  virt Sing. vals= 9.995836D-01 9.995836D-01 9.995828D-01 9.995828D-01 9.995812D-01 9.995740D-01 9.995740D-01 9.995611D-01 9.995611D-01 9.995594D-01
 Beta  virt Sing. vals= 9.995013D-01 9.995013D-01 9.994858D-01 9.994858D-01 9.994579D-01 9.994579D-01 9.994464D-01 9.994464D-01 9.993952D-01 9.991212D-01
 Beta  virt Sing. vals= 9.990886D-01 9.990886D-01 9.989041D-01 9.989041D-01 9.988998D-01 9.985273D-01 9.984110D-01 9.984110D-01 9.981830D-01 9.981004D-01
 Beta  virt Sing. vals= 9.981004D-01 9.980852D-01 9.980852D-01 9.979081D-01 9.979081D-01 9.976844D-01 9.976844D-01 9.973359D-01 9.971089D-01 9.971089D-01
 Beta  virt Sing. vals= 9.970410D-01 9.970410D-01 9.966142D-01 9.966142D-01 9.963859D-01 9.963249D-01 9.962016D-01 9.960565D-01 9.960565D-01 9.959437D-01
 Beta  virt Sing. vals= 9.959437D-01 9.958392D-01 9.958392D-01 9.957960D-01 9.951971D-01 9.951950D-01 9.951950D-01 9.948147D-01 9.948147D-01 9.945690D-01
 Beta  virt Sing. vals= 9.945690D-01 9.943881D-01 9.929847D-01 9.929847D-01 9.928892D-01 9.928892D-01 9.927485D-01 9.921294D-01 9.900877D-01 9.884820D-01
 Beta  virt Sing. vals= 9.884820D-01 9.856929D-01 9.856929D-01 9.844015D-01 9.840309D-01 9.840309D-01 9.837663D-01 9.837663D-01 9.821080D-01 9.821080D-01
 Beta  virt Sing. vals= 9.819724D-01 9.806714D-01 9.806714D-01 9.800416D-01 9.759498D-01 9.744534D-01 9.744534D-01 9.691251D-01 9.691251D-01 9.645248D-01
 Beta  virt Sing. vals= 9.645248D-01 9.640866D-01 9.526994D-01 9.526994D-01 9.481123D-01 9.450391D-01 9.419609D-01 9.396317D-01 9.396317D-01 9.373895D-01
 Beta  virt Sing. vals= 9.373862D-01 9.373862D-01 9.326031D-01 9.326031D-01 9.293817D-01 9.267087D-01 9.267087D-01 9.244515D-01 9.244515D-01 9.233425D-01
 Beta  virt Sing. vals= 9.233425D-01 9.211345D-01 9.211345D-01 9.137460D-01 9.137460D-01 9.034530D-01 9.034530D-01 8.971225D-01 8.806950D-01 8.473089D-01
 Beta  virt Sing. vals= 8.473089D-01 8.462709D-01 8.462709D-01 8.442385D-01 8.442385D-01 8.395359D-01 7.844817D-01 7.844817D-01 6.470457D-01 4.851225D-01
 Beta  virt NOrbO=   250 NOrbN=   369 NSVal=   237 ThrEig=  0.900000.
 TrMax= 9.998061D-01 PrMax= 9.998932D-01 Trace(Pr)= 2.370000D+02
 Leave Link  804 at Fri Mar  9 16:53:34 2018, MaxMem= 10737418240 cpu:           13314.2 elap:             833.3
 (Enter /home1/apps/gaussian/16rA.03/g16/l913.exe)
 CIDS:  MDV= 10737418240.
 IFCWin=0 IBDFC=1 NFBD=     0     0 NFCmp=     0     0 NFFFC=     0     0
 Amplitudes recovered.
 Using DD4UQ or CC4UQ for all iterations.
 Keep R2 and R3 ints in memory in symmetry-blocked form, NReq=3425134911.
 FoFCou: FMM=F IPFlag=           8 FMFlag=           0 FMFlg1=           0
         NFxFlg=           0 DoJE=F BraDBF=F KetDBF=F FulRan=T
         wScrn=  0.000000 ICntrl=       600 IOpCl=  0 I1Cent=           0 NGrid=           0
         NMat0=    1 NMatS0=  73920 NMatT0=    0 NMatD0=    1 NMtDS0=    0 NMtDT0=    0
 Petite list used in FoFCou.
 CIDS: In Core Option IDoMem=           1.
 CCSD(T)
 =======
 Iterations= 150 Convergence= 0.100D-06
 Produce multiple copies of IABC intergrals
 Iteration Nr.   1
 **********************
 DD1Dir will call FoFMem   1 times, MxPair=       314
 NAB=   104 NAA=    78 NBB=    28.
 Maximum subspace dimension=  5
 A-vector RMS=  1.5833625D-04 Max=  1.8495208D-03 conv= 1.00D-05.
 RLE energy=       -0.9343442350
 DE(Corr)= -0.93406686     E(Corr)=     -120.03289049    
 NORM(A)=   0.11229673D+01
 Iteration Nr.   2
 **********************
 DD1Dir will call FoFMem   1 times, MxPair=       314
 NAB=   104 NAA=    78 NBB=    28.
 A-vector RMS=  5.6671951D-05 Max=  8.2290896D-04 conv= 1.00D-05.
 RLE energy=       -0.9342446832
 DE(Corr)= -0.93425502     E(CORR)=     -120.03307865     Delta=-1.88D-04
 NORM(A)=   0.11232447D+01
 Iteration Nr.   3
 **********************
 DD1Dir will call FoFMem   1 times, MxPair=       314
 NAB=   104 NAA=    78 NBB=    28.
 A-vector RMS=  3.9085612D-05 Max=  5.6532662D-04 conv= 1.00D-05.
 RLE energy=       -0.9346296617
 DE(Corr)= -0.93468553     E(CORR)=     -120.03350916     Delta=-4.31D-04
 NORM(A)=   0.11232296D+01
 Iteration Nr.   4
 **********************
 DD1Dir will call FoFMem   1 times, MxPair=       314
 NAB=   104 NAA=    78 NBB=    28.
 A-vector RMS=  2.3098575D-05 Max=  3.7728909D-04 conv= 1.00D-05.
 RLE energy=       -0.9345306057
 DE(Corr)= -0.93447283     E(CORR)=     -120.03329645     Delta= 2.13D-04
 NORM(A)=   0.11233242D+01
 Iteration Nr.   5
 **********************
 DD1Dir will call FoFMem   1 times, MxPair=       314
 NAB=   104 NAA=    78 NBB=    28.
 A-vector RMS=  1.0895575D-05 Max=  2.3429355D-04 conv= 1.00D-05.
 RLE energy=       -0.9345892543
 DE(Corr)= -0.93459679     E(CORR)=     -120.03342041     Delta=-1.24D-04
 NORM(A)=   0.11233490D+01
 Iteration Nr.   6
 **********************
 DD1Dir will call FoFMem   1 times, MxPair=       314
 NAB=   104 NAA=    78 NBB=    28.
 A-vector RMS=  6.1070452D-06 Max=  8.4251847D-05 conv= 1.00D-05.
 RLE energy=       -0.9345792446
 DE(Corr)= -0.93456649     E(CORR)=     -120.03339012     Delta= 3.03D-05
 NORM(A)=   0.11233832D+01
 Iteration Nr.   7
 **********************
 DD1Dir will call FoFMem   1 times, MxPair=       314
 NAB=   104 NAA=    78 NBB=    28.
 A-vector RMS=  2.0218515D-06 Max=  3.3323739D-05 conv= 1.00D-05.
 RLE energy=       -0.9345896802
 DE(Corr)= -0.93458929     E(CORR)=     -120.03341291     Delta=-2.28D-05
 NORM(A)=   0.11233902D+01
 Iteration Nr.   8
 **********************
 DD1Dir will call FoFMem   1 times, MxPair=       314
 NAB=   104 NAA=    78 NBB=    28.
 A-vector RMS=  8.6594911D-07 Max=  1.7178340D-05 conv= 1.00D-05.
 RLE energy=       -0.9345863089
 DE(Corr)= -0.93458627     E(CORR)=     -120.03340989     Delta= 3.02D-06
 NORM(A)=   0.11233939D+01
 Iteration Nr.   9
 **********************
 DD1Dir will call FoFMem   1 times, MxPair=       314
 NAB=   104 NAA=    78 NBB=    28.
 A-vector RMS=  5.7236207D-07 Max=  8.8929355D-06 conv= 1.00D-05.
 RLE energy=       -0.9345888255
 DE(Corr)= -0.93458889     E(CORR)=     -120.03341252     Delta=-2.63D-06
 NORM(A)=   0.11233964D+01
 Iteration Nr.  10
 **********************
 DD1Dir will call FoFMem   1 times, MxPair=       314
 NAB=   104 NAA=    78 NBB=    28.
 A-vector RMS=  2.8823060D-07 Max=  5.3637851D-06 conv= 1.00D-05.
 RLE energy=       -0.9345877744
 DE(Corr)= -0.93458763     E(CORR)=     -120.03341126     Delta= 1.26D-06
 NORM(A)=   0.11233984D+01
 Iteration Nr.  11
 **********************
 DD1Dir will call FoFMem   1 times, MxPair=       314
 NAB=   104 NAA=    78 NBB=    28.
 A-vector RMS=  1.8438222D-07 Max=  3.3581384D-06 conv= 1.00D-05.
 RLE energy=       -0.9345884160
 DE(Corr)= -0.93458848     E(CORR)=     -120.03341211     Delta=-8.53D-07
 NORM(A)=   0.11233997D+01
 Iteration Nr.  12
 **********************
 DD1Dir will call FoFMem   1 times, MxPair=       314
 NAB=   104 NAA=    78 NBB=    28.
 A-vector RMS=  9.8883294D-08 Max=  1.4626139D-06 conv= 1.00D-05.
 RLE energy=       -0.9345882019
 DE(Corr)= -0.93458815     E(CORR)=     -120.03341178     Delta= 3.28D-07
 NORM(A)=   0.11234008D+01
 Iteration Nr.  13
 **********************
 DD1Dir will call FoFMem   1 times, MxPair=       314
 NAB=   104 NAA=    78 NBB=    28.
 A-vector RMS=  5.4893737D-08 Max=  1.3258218D-06 conv= 1.00D-05.
 RLE energy=       -0.9345886016
 DE(Corr)= -0.93458858     E(CORR)=     -120.03341221     Delta=-4.25D-07
 NORM(A)=   0.11234012D+01
 Iteration Nr.  14
 **********************
 DD1Dir will call FoFMem   1 times, MxPair=       314
 NAB=   104 NAA=    78 NBB=    28.
 A-vector RMS=  4.2552704D-08 Max=  6.4020762D-07 conv= 1.00D-05.
 RLE energy=       -0.9345885212
 DE(Corr)= -0.93458844     E(CORR)=     -120.03341207     Delta= 1.37D-07
 NORM(A)=   0.11234016D+01
 Iteration Nr.  15
 **********************
 DD1Dir will call FoFMem   1 times, MxPair=       314
 NAB=   104 NAA=    78 NBB=    28.
 A-vector RMS=  2.1913050D-08 Max=  4.6149977D-07 conv= 1.00D-05.
 RLE energy=       -0.9345886557
 DE(Corr)= -0.93458866     E(CORR)=     -120.03341228     Delta=-2.15D-07
 NORM(A)=   0.11234017D+01
 Iteration Nr.  16
 **********************
 DD1Dir will call FoFMem   1 times, MxPair=       314
 NAB=   104 NAA=    78 NBB=    28.
 A-vector RMS=  1.1960892D-08 Max=  2.5183033D-07 conv= 1.00D-05.
 RLE energy=       -0.9345886411
 DE(Corr)= -0.93458861     E(CORR)=     -120.03341224     Delta= 4.57D-08
 NORM(A)=   0.11234018D+01
 CI/CC converged in   16 iterations to DelEn= 4.57D-08 Conv= 1.00D-07 ErrA1= 1.20D-08 Conv= 1.00D-05
 Wavefunction amplitudes converged. E(Corr)=     -120.03341224    
 Largest amplitude= 8.16D-02
 Time for triples=    57152.46 seconds.
 T4(CCSD)= -0.53542185D-01
 T5(CCSD)=  0.10440919D-01
 CCSD(T)= -0.12007651350D+03
 Discarding MO integrals.
 Leave Link  913 at Fri Mar  9 18:09:19 2018, MaxMem= 10737418240 cpu:           72650.7 elap:            4545.0
 (Enter /home1/apps/gaussian/16rA.03/g16/l601.exe)
 Copying SCF densities to generalized density rwf, IOpCl= 0 IROHF=1.

 **********************************************************************

            Population analysis using the SCF density.

 **********************************************************************

 Orbital symmetries:
       Occupied  (SG) (SG) (PI) (PI) (SG) (PI) (PI) (SG) (DLTA)
                 (DLTA) (SG) (PI) (PI)
       Virtual   (SG) (PI) (PI) (SG) (SG) (DLTA) (DLTA) (PI) (PI)
                 (SG) (PI) (PI) (SG) (SG) (PI) (PI) (DLTA) (DLTA)
                 (SG) (SG) (PI) (PI) (PI) (PI) (SG) (SG) (DLTA)
                 (DLTA) (PHI) (PHI) (SG) (PI) (PI) (DLTA) (DLTA)
                 (PI) (PI) (SG) (PI) (PI) (SG) (DLTA) (DLTA) (PI)
                 (PI) (SG) (SG) (SG) (PI) (PI) (DLTA) (DLTA) (PHI)
                 (PHI) (PI) (PI) (DLTA) (DLTA) (SG) (PI) (PI) (PHI)
                 (PHI) (?A) (?A) (SG) (DLTA) (DLTA) (SG) (PI) (PI)
                 (DLTA) (DLTA) (SG) (PHI) (PHI) (PI) (PI) (SG)
                 (SG) (PI) (PI) (DLTA) (DLTA) (PI) (PI) (SG) (SG)
                 (DLTA) (DLTA) (PI) (PI) (SG) (PI) (PI) (?A) (?A)
                 (SG) (DLTA) (DLTA) (PHI) (PHI) (PI) (PI) (PHI)
                 (PHI) (SG) (DLTA) (DLTA) (SG) (PHI) (PHI) (DLTA)
                 (DLTA) (PI) (PI) (?B) (?B) (?A) (?A) (PHI) (PHI)
                 (?A) (?A) (SG) (PI) (PI) (DLTA) (DLTA) (SG) (PI)
                 (PI) (SG) (DLTA) (DLTA) (PHI) (PHI) (PI) (PI)
                 (SG) (PI) (PI) (SG) (DLTA) (DLTA) (PI) (PI) (SG)
                 (DLTA) (DLTA) (PI) (PI) (SG) (SG) (PI) (PI) (PHI)
                 (PHI) (DLTA) (DLTA) (SG) (PI) (PI) (?A) (?A) (SG)
                 (PHI) (PHI) (DLTA) (DLTA) (PI) (PI) (?A) (?A)
                 (SG) (PHI) (PHI) (DLTA) (DLTA) (SG) (?B) (?B)
                 (?A) (?A) (PI) (PI) (PHI) (PHI) (PHI) (PHI) (DLTA)
                 (DLTA) (DLTA) (DLTA) (PI) (PI) (SG) (PI) (PI)
                 (DLTA) (DLTA) (SG) (PI) (PI) (DLTA) (DLTA) (SG)
                 (PI) (PI) (SG) (PI) (PI) (SG) (SG) (SG) (DLTA)
                 (DLTA) (PI) (PI) (PHI) (PHI) (SG) (DLTA) (DLTA)
                 (PI) (PI) (SG) (?A) (?A) (PHI) (PHI) (DLTA) (DLTA)
                 (PI) (PI) (SG) (PI) (PI) (SG) (?B) (?B) (?A) (?A)
                 (PHI) (PHI) (DLTA) (DLTA) (PI) (PI) (SG) (PI)
                 (PI) (SG) (SG) (SG) (DLTA) (DLTA) (PI) (PI) (SG)
                 (DLTA) (DLTA) (PI) (PI) (SG) (SG) (PI) (PI) (SG)
                 (PI) (PI) (SG) (DLTA) (DLTA) (PI) (PI) (SG) (SG)
                 (PHI) (PHI) (DLTA) (DLTA) (PI) (PI) (SG) (SG)
                 (PI) (PI) (SG) (DLTA) (DLTA) (PI) (PI) (SG) (SG)
                 (PI) (PI) (SG) (DLTA) (DLTA) (PI) (PI) (SG) (SG)
                 (PI) (PI) (SG) (SG) (PI) (PI) (SG) (SG) (DLTA)
                 (DLTA) (PI) (PI) (SG) (SG) (PI) (PI) (SG) (SG)
                 (PI) (PI) (SG) (SG) (PI) (PI) (SG) (SG) (DLTA)
                 (DLTA) (PI) (PI) (SG) (SG) (PI) (PI) (SG) (SG)
                 (SG) (PI) (PI) (SG) (SG) (SG) (PI) (PI) (SG) (SG)
                 (SG) (PI) (PI) (SG) (SG) (PI) (PI) (SG) (SG) (SG)
                 (SG) (SG) (SG) (SG)
 The electronic state is 6-SG.
 Alpha  occ. eigenvalues --   -4.15064  -2.79645  -2.79645  -2.77437  -1.24449
 Alpha  occ. eigenvalues --   -0.70560  -0.70560  -0.63241  -0.63241  -0.55877
 Alpha  occ. eigenvalues --   -0.41085  -0.41085  -0.31737
 Alpha virt. eigenvalues --    0.01117   0.01987   0.01987   0.03075   0.04765
 Alpha virt. eigenvalues --    0.05921   0.05921   0.05932   0.05932   0.06622
 Alpha virt. eigenvalues --    0.07155   0.07155   0.11537   0.14242   0.17851
 Alpha virt. eigenvalues --    0.17851   0.18702   0.18702   0.20097   0.21291
 Alpha virt. eigenvalues --    0.21942   0.21942   0.22799   0.22799   0.31657
 Alpha virt. eigenvalues --    0.41537   0.47363   0.47363   0.47871   0.47871
 Alpha virt. eigenvalues --    0.48410   0.51141   0.51141   0.51278   0.51278
 Alpha virt. eigenvalues --    0.52595   0.52595   0.52910   0.65131   0.65131
 Alpha virt. eigenvalues --    0.66284   0.67778   0.67778   0.69143   0.69143
 Alpha virt. eigenvalues --    0.75102   0.83713   1.09464   1.12564   1.12564
 Alpha virt. eigenvalues --    1.33539   1.33539   1.36236   1.36236   1.36948
 Alpha virt. eigenvalues --    1.36948   1.37054   1.37054   1.40375   1.45510
 Alpha virt. eigenvalues --    1.45510   1.45517   1.45517   1.47408   1.47408
 Alpha virt. eigenvalues --    1.51503   1.55315   1.55315   1.58019   1.63391
 Alpha virt. eigenvalues --    1.63391   1.72985   1.73139   1.73139   1.74477
 Alpha virt. eigenvalues --    1.74477   1.86791   1.86791   1.91905   2.02800
 Alpha virt. eigenvalues --    2.12911   2.12911   2.30257   2.30257   2.45496
 Alpha virt. eigenvalues --    2.45496   2.61959   2.76182   3.25124   3.25124
 Alpha virt. eigenvalues --    3.28320   3.28320   3.45376   3.52205   3.52205
 Alpha virt. eigenvalues --    3.66939   3.66939   3.70528   3.74278   3.74278
 Alpha virt. eigenvalues --    3.77176   3.77176   3.77329   3.77329   3.94937
 Alpha virt. eigenvalues --    3.94937   4.04039   4.16194   4.16194   4.19939
 Alpha virt. eigenvalues --    4.20999   4.20999   4.25491   4.25491   4.25755
 Alpha virt. eigenvalues --    4.25755   4.27739   4.27739   4.28075   4.28075
 Alpha virt. eigenvalues --    4.39368   4.39368   4.45365   4.45365   4.47616
 Alpha virt. eigenvalues --    4.58539   4.58539   4.66062   4.66062   4.68666
 Alpha virt. eigenvalues --    4.75153   4.75153   4.96605   4.98155   4.98155
 Alpha virt. eigenvalues --    5.12938   5.12938   5.35066   5.35066   5.75134
 Alpha virt. eigenvalues --    6.12909   6.12909   6.14203   6.18437   6.18437
 Alpha virt. eigenvalues --    6.44221   6.44221   6.84964   7.04906   7.04906
 Alpha virt. eigenvalues --    7.16299   7.16299   7.17947   7.95821   9.93043
 Alpha virt. eigenvalues --    9.93043   9.97623   9.97623  10.05224  10.05224
 Alpha virt. eigenvalues --   10.35623  10.57223  10.57223  10.72246  10.72246
 Alpha virt. eigenvalues --   10.78828  10.83388  10.83388  10.91411  10.91411
 Alpha virt. eigenvalues --   10.97377  10.97377  11.17819  11.17819  11.19493
 Alpha virt. eigenvalues --   11.21871  11.21871  11.48244  11.48244  11.65787
 Alpha virt. eigenvalues --   11.88414  11.88414  11.91702  11.91702  11.91783
 Alpha virt. eigenvalues --   11.91783  11.98612  11.98612  12.10484  12.10484
 Alpha virt. eigenvalues --   12.25413  12.25413  12.45081  12.45081  12.57942
 Alpha virt. eigenvalues --   12.57942  12.65345  12.86385  12.86385  12.89376
 Alpha virt. eigenvalues --   12.89376  13.05536  13.37293  13.37293  13.58225
 Alpha virt. eigenvalues --   13.58225  13.71413  13.71413  13.72005  13.85330
 Alpha virt. eigenvalues --   14.19934  14.19934  14.81188  15.38568  16.94068
 Alpha virt. eigenvalues --   24.24704  24.24704  24.31637  24.31637  24.69550
 Alpha virt. eigenvalues --   24.69550  24.75609  24.80530  24.80530  25.51885
 Alpha virt. eigenvalues --   25.51885  25.95857  27.20981  27.20981  27.23333
 Alpha virt. eigenvalues --   27.23333  27.43471  27.43471  27.61797  27.61797
 Alpha virt. eigenvalues --   27.91960  28.56487  28.56487  29.49545  30.65841
 Alpha virt. eigenvalues --   30.65841  30.66487  30.66487  30.73492  30.73492
 Alpha virt. eigenvalues --   30.81937  30.81937  30.92888  30.92888  31.10421
 Alpha virt. eigenvalues --   31.44218  31.44218  32.38648  33.85712  34.93057
 Alpha virt. eigenvalues --   41.44102  41.44102  41.50643  41.50643  41.96607
 Alpha virt. eigenvalues --   46.82380  46.82380  47.25988  47.25988  48.28686
 Alpha virt. eigenvalues --   68.03421  68.84906  68.84906  69.57202  69.93722
 Alpha virt. eigenvalues --   69.93722  70.83479  72.47565  72.47565  72.53337
 Alpha virt. eigenvalues --   72.53337  72.94894  77.58003 102.98592 102.98592
 Alpha virt. eigenvalues --  103.01210 103.01210 103.05339 103.05339 103.10189
 Alpha virt. eigenvalues --  121.44607 138.16300 138.16300 138.77619 146.92965
 Alpha virt. eigenvalues --  146.92965 146.97902 146.97902 147.30813 151.60433
 Alpha virt. eigenvalues --  154.66283 154.66283 155.49164 206.78075 206.78075
 Alpha virt. eigenvalues --  207.01161 207.01161 207.49996 209.91371 264.56838
 Alpha virt. eigenvalues --  264.56838 265.11837 267.04496 324.87312 324.87312
 Alpha virt. eigenvalues --  325.57658 357.90250 378.08460 378.08460 378.12433
 Alpha virt. eigenvalues --  378.12433 378.37714 487.73336 506.93034 506.93034
 Alpha virt. eigenvalues --  507.50477 612.05351 691.11210 691.11210 691.76168
 Alpha virt. eigenvalues --  927.58206 997.33217 997.33217 997.869911089.94548
 Alpha virt. eigenvalues -- 1271.786811271.786811271.813881271.813881271.97814
 Alpha virt. eigenvalues -- 1838.403592058.370052058.370052058.864672262.28279
 Alpha virt. eigenvalues -- 3812.340254547.572034547.572034548.015606140.95983
 Alpha virt. eigenvalues -- 8293.93535****************************************
 Alpha virt. eigenvalues -- **************************************************
 Alpha virt. eigenvalues -- **************************************************
 Alpha virt. eigenvalues -- ****************************************
     Molecular Orbital Coefficients:
                           4         5         6         7         8
                           O         O         O         O         O
     Eigenvalues --    -2.77437  -1.24449  -0.70560  -0.70560  -0.63241
   1 1   Mn 1S          0.00000   0.00000   0.00000   0.00000   0.00000
   2        2S          0.00000  -0.00000   0.00000   0.00000  -0.00000
   3        3S          0.00000   0.00000   0.00000   0.00000   0.00000
   4        4S          0.00000  -0.00000   0.00000   0.00000  -0.00000
   5        5S          0.00000   0.00000   0.00000   0.00000   0.00000
   6        6S          0.00000  -0.00000   0.00000   0.00000  -0.00000
   7        7S          0.00000   0.00000   0.00000   0.00000   0.00000
   8        8S          0.00000  -0.00001   0.00000   0.00000  -0.00001
   9        9S          0.00000   0.00005   0.00000   0.00000   0.00004
  10       10S          0.00000  -0.00013   0.00000   0.00000  -0.00012
  11       11S          0.00000   0.00036   0.00000   0.00000   0.00033
  12       12S          0.00000  -0.00100   0.00000   0.00000  -0.00090
  13       13S          0.00000   0.00314   0.00000   0.00000   0.00282
  14       14S          0.00000  -0.01491   0.00000   0.00000  -0.01342
  15       15S          0.00000   0.02376   0.00000   0.00000   0.02177
  16       16S          0.00000   0.04553   0.00000   0.00000   0.04288
  17       17S          0.00000  -0.05397   0.00000   0.00000  -0.04212
  18       18S          0.00000  -0.13279   0.00000   0.00000  -0.10898
  19       19S          0.00000  -0.06232   0.00000   0.00000  -0.07792
  20       20S          0.00000  -0.01220   0.00000   0.00000   0.02710
  21       21S          0.00000  -0.01943   0.00000   0.00000   0.08146
  22       22S          0.00000  -0.00358   0.00000   0.00000   0.00245
  23       23S          0.00000   0.00824   0.00000   0.00000   0.00407
  24       24S          0.00000   0.01871   0.00000   0.00000  -0.00595
  25       25S          0.00000   0.00118   0.00000   0.00000   0.00226
  26       26PX         0.00000   0.00000   0.00000   0.00000   0.00000
  27       26PY        -0.00000   0.00000   0.00000   0.00000   0.00000
  28       26PZ         0.00000  -0.00000   0.00000   0.00000  -0.00000
  29       27PX         0.00000   0.00000  -0.00000   0.00000   0.00000
  30       27PY         0.00000   0.00000   0.00000  -0.00000   0.00000
  31       27PZ         0.00000   0.00000   0.00000   0.00000   0.00000
  32       28PX         0.00000   0.00000   0.00000   0.00000   0.00000
  33       28PY        -0.00000   0.00000   0.00000   0.00000   0.00000
  34       28PZ         0.00000  -0.00000   0.00000   0.00000  -0.00000
  35       29PX         0.00000   0.00000  -0.00000   0.00000   0.00000
  36       29PY         0.00000   0.00000   0.00000  -0.00000   0.00000
  37       29PZ         0.00000   0.00000   0.00000   0.00000   0.00000
  38       30PX         0.00000   0.00000   0.00000   0.00000   0.00000
  39       30PY        -0.00002   0.00000   0.00000   0.00000   0.00000
  40       30PZ         0.00000  -0.00000   0.00000   0.00000  -0.00000
  41       31PX         0.00000   0.00000  -0.00001   0.00000   0.00000
  42       31PY         0.00005   0.00000   0.00000  -0.00001   0.00000
  43       31PZ         0.00000   0.00001   0.00000   0.00000   0.00001
  44       32PX         0.00000   0.00000   0.00004   0.00000   0.00000
  45       32PY        -0.00014   0.00000   0.00000   0.00004   0.00000
  46       32PZ         0.00000  -0.00003   0.00000   0.00000  -0.00002
  47       33PX         0.00000   0.00000  -0.00005   0.00000   0.00000
  48       33PY        -0.00017   0.00000   0.00000  -0.00005   0.00000
  49       33PZ         0.00000  -0.00005   0.00000   0.00000  -0.00002
  50       34PX         0.00000   0.00000  -0.00134   0.00000   0.00000
  51       34PY         0.01340   0.00000   0.00000  -0.00134   0.00000
  52       34PZ         0.00000   0.00326   0.00000   0.00000   0.00179
  53       35PX         0.00000   0.00000   0.00847   0.00000   0.00000
  54       35PY        -0.07623   0.00000   0.00000   0.00847   0.00000
  55       35PZ         0.00000  -0.01892   0.00000   0.00000  -0.01063
  56       36PX         0.00000   0.00000   0.00084   0.00000   0.00000
  57       36PY        -0.01807   0.00000   0.00000   0.00084   0.00000
  58       36PZ         0.00000  -0.00473   0.00000   0.00000  -0.00147
  59       37PX         0.00000   0.00000  -0.02538   0.00000   0.00000
  60       37PY         0.20299   0.00000   0.00000  -0.02538   0.00000
  61       37PZ         0.00000   0.05115   0.00000   0.00000   0.02843
  62       38PX         0.00000   0.00000  -0.02371   0.00000   0.00000
  63       38PY         0.20610   0.00000   0.00000  -0.02371   0.00000
  64       38PZ         0.00000   0.05467   0.00000   0.00000   0.03317
  65       39PX         0.00000   0.00000  -0.05514   0.00000   0.00000
  66       39PY         0.37868   0.00000   0.00000  -0.05514   0.00000
  67       39PZ         0.00000   0.09598   0.00000   0.00000   0.05173
  68       40PX         0.00000   0.00000  -0.00930   0.00000   0.00000
  69       40PY         0.15161   0.00000   0.00000  -0.00930   0.00000
  70       40PZ         0.00000   0.03801   0.00000   0.00000   0.01775
  71       41PX         0.00000   0.00000   0.02647   0.00000   0.00000
  72       41PY         0.01229   0.00000   0.00000   0.02647   0.00000
  73       41PZ         0.00000   0.00604   0.00000   0.00000  -0.00981
  74       42PX         0.00000   0.00000   0.01744   0.00000   0.00000
  75       42PY        -0.00055   0.00000   0.00000   0.01744   0.00000
  76       42PZ         0.00000   0.01064   0.00000   0.00000  -0.01227
  77       43PX         0.00000   0.00000  -0.00022   0.00000   0.00000
  78       43PY         0.00036   0.00000   0.00000  -0.00022   0.00000
  79       43PZ         0.00000   0.00089   0.00000   0.00000  -0.00043
  80       44PX         0.00000   0.00000   0.00454   0.00000   0.00000
  81       44PY        -0.02863   0.00000   0.00000   0.00454   0.00000
  82       44PZ         0.00000  -0.00580   0.00000   0.00000  -0.00385
  83       45PX         0.00000   0.00000  -0.02505   0.00000   0.00000
  84       45PY         0.20680   0.00000   0.00000  -0.02505   0.00000
  85       45PZ         0.00000   0.05404   0.00000   0.00000   0.03331
  86       46PX         0.00000   0.00000  -0.00115   0.00000   0.00000
  87       46PY        -0.00011   0.00000   0.00000  -0.00115   0.00000
  88       46PZ         0.00000  -0.00038   0.00000   0.00000  -0.00016
  89       47D 0        0.00000   0.00000   0.00000   0.00000   0.00001
  90       47D+1        0.00000   0.00000  -0.00000   0.00000   0.00000
  91       47D-1       -0.00000   0.00000   0.00000  -0.00000   0.00000
  92       47D+2        0.00000  -0.00000   0.00000   0.00000  -0.00000
  93       47D-2        0.00000   0.00000   0.00000   0.00000   0.00000
  94       48D 0        0.00000   0.00001   0.00000   0.00000   0.00003
  95       48D+1        0.00000   0.00000  -0.00001   0.00000   0.00000
  96       48D-1        0.00000   0.00000   0.00000  -0.00001   0.00000
  97       48D+2        0.00000  -0.00000   0.00000   0.00000   0.00000
  98       48D-2        0.00000   0.00000   0.00000   0.00000   0.00000
  99       49D 0        0.00000   0.00217   0.00000   0.00000   0.00613
 100       49D+1        0.00000   0.00000  -0.00317   0.00000   0.00000
 101       49D-1       -0.00003   0.00000   0.00000  -0.00317   0.00000
 102       49D+2        0.00000  -0.00000   0.00000   0.00000  -0.00000
 103       49D-2        0.00000   0.00000   0.00000   0.00000   0.00000
 104       50D 0        0.00000   0.00869   0.00000   0.00000   0.02476
 105       50D+1        0.00000   0.00000  -0.01269   0.00000   0.00000
 106       50D-1       -0.00005   0.00000   0.00000  -0.01269   0.00000
 107       50D+2        0.00000  -0.00000   0.00000   0.00000   0.00000
 108       50D-2        0.00000   0.00000   0.00000   0.00000   0.00000
 109       51D 0        0.00000   0.02289   0.00000   0.00000   0.06384
 110       51D+1        0.00000   0.00000  -0.03331   0.00000   0.00000
 111       51D-1       -0.00068   0.00000   0.00000  -0.03331   0.00000
 112       51D+2        0.00000  -0.00000   0.00000   0.00000  -0.00000
 113       51D-2        0.00000   0.00000   0.00000   0.00000   0.00000
 114       52D 0        0.00000   0.04725   0.00000   0.00000   0.12153
 115       52D+1        0.00000   0.00000  -0.06520   0.00000   0.00000
 116       52D-1       -0.00405   0.00000   0.00000  -0.06520   0.00000
 117       52D+2        0.00000   0.00000   0.00000   0.00000  -0.00000
 118       52D-2        0.00000   0.00000   0.00000   0.00000   0.00000
 119       53D 0        0.00000   0.06202   0.00000   0.00000   0.16543
 120       53D+1        0.00000   0.00000  -0.08397   0.00000   0.00000
 121       53D-1       -0.00195   0.00000   0.00000  -0.08397   0.00000
 122       53D+2        0.00000   0.00000   0.00000   0.00000  -0.00000
 123       53D-2        0.00000   0.00000   0.00000   0.00000   0.00000
 124       54D 0        0.00000   0.05659   0.00000   0.00000   0.16127
 125       54D+1        0.00000   0.00000  -0.08355   0.00000   0.00000
 126       54D-1        0.00385   0.00000   0.00000  -0.08355   0.00000
 127       54D+2        0.00000  -0.00000   0.00000   0.00000   0.00000
 128       54D-2        0.00000   0.00000   0.00000   0.00000   0.00000
 129       55D 0        0.00000   0.03227   0.00000   0.00000   0.11822
 130       55D+1        0.00000   0.00000  -0.06774   0.00000   0.00000
 131       55D-1        0.00451   0.00000   0.00000  -0.06774   0.00000
 132       55D+2        0.00000  -0.00000   0.00000   0.00000   0.00000
[...]
 167       62F+1        0.00009   0.00004   0.00005  -0.00000
 168       62F-1        0.00009   0.00004   0.00005  -0.00000
 169       62F+2       -0.00000  -0.00000  -0.00000  -0.00000
 170       62F-2       -0.00000  -0.00000  -0.00000  -0.00000
 171       62F+3        0.00000   0.00000   0.00000  -0.00000
 172       62F-3       -0.00000   0.00000  -0.00000   0.00000
 173       63F 0        0.00494   0.00249   0.00245   0.00004
 174       63F+1        0.00240   0.00128   0.00112   0.00016
 175       63F-1        0.00240   0.00128   0.00112   0.00016
 176       63F+2        0.00000   0.00000  -0.00000   0.00000
 177       63F-2        0.00000   0.00000  -0.00000   0.00000
 178       63F+3       -0.00000  -0.00000  -0.00000  -0.00000
 179       63F-3       -0.00000  -0.00000  -0.00000  -0.00000
 180       64F 0        0.00463   0.00229   0.00234  -0.00004
 181       64F+1        0.01445   0.00867   0.00578   0.00290
 182       64F-1        0.01445   0.00867   0.00578   0.00290
 183       64F+2        0.00007   0.00007  -0.00000   0.00007
 184       64F-2        0.00007   0.00007  -0.00000   0.00007
 185       64F+3       -0.00000  -0.00000  -0.00000  -0.00000
 186       64F-3       -0.00000  -0.00000  -0.00000  -0.00000
 187       65F 0       -0.00393  -0.00221  -0.00172  -0.00049
 188       65F+1       -0.00143  -0.00022  -0.00121   0.00100
 189       65F-1       -0.00143  -0.00022  -0.00121   0.00100
 190       65F+2        0.00003   0.00003   0.00000   0.00003
 191       65F-2        0.00003   0.00003   0.00000   0.00003
 192       65F+3        0.00000   0.00000   0.00000   0.00000
 193       65F-3        0.00000  -0.00000   0.00000  -0.00000
 194       66G 0        0.00000   0.00000   0.00000   0.00000
 195       66G+1        0.00000   0.00000   0.00000   0.00000
 196       66G-1        0.00000   0.00000   0.00000   0.00000
 197       66G+2        0.00000   0.00000   0.00000   0.00000
 198       66G-2        0.00000   0.00000  -0.00000   0.00000
 199       66G+3        0.00000   0.00000   0.00000   0.00000
 200       66G-3       -0.00000  -0.00000  -0.00000  -0.00000
 201       66G+4        0.00000   0.00000   0.00000   0.00000
 202       66G-4        0.00000   0.00000   0.00000   0.00000
 203       67G 0        0.00012   0.00006   0.00006   0.00000
 204       67G+1        0.00005   0.00003   0.00002   0.00000
 205       67G-1        0.00005   0.00003   0.00002   0.00000
 206       67G+2        0.00000   0.00000  -0.00000   0.00000
 207       67G-2        0.00000   0.00000  -0.00000   0.00000
 208       67G+3        0.00000   0.00000  -0.00000   0.00000
 209       67G-3       -0.00000  -0.00000   0.00000  -0.00000
 210       67G+4        0.00000   0.00000   0.00000   0.00000
 211       67G-4        0.00000   0.00000   0.00000   0.00000
 212       68G 0        0.00144   0.00072   0.00072  -0.00000
 213       68G+1        0.00147   0.00080   0.00068   0.00012
 214       68G-1        0.00147   0.00080   0.00068   0.00012
 215       68G+2        0.00000   0.00000   0.00000   0.00000
 216       68G-2        0.00000   0.00000   0.00000   0.00000
 217       68G+3       -0.00000  -0.00000   0.00000  -0.00000
 218       68G-3       -0.00000  -0.00000  -0.00000  -0.00000
 219       68G+4        0.00000   0.00000   0.00000   0.00000
 220       68G-4        0.00000   0.00000   0.00000   0.00000
 221       69G 0       -0.00016  -0.00007  -0.00009   0.00002
 222       69G+1        0.00209   0.00135   0.00074   0.00060
 223       69G-1        0.00209   0.00135   0.00074   0.00060
 224       69G+2       -0.00000  -0.00000  -0.00000  -0.00000
 225       69G-2       -0.00000  -0.00000  -0.00000  -0.00000
 226       69G+3       -0.00000  -0.00000  -0.00000  -0.00000
 227       69G-3        0.00000   0.00000   0.00000   0.00000
 228       69G+4       -0.00000   0.00000  -0.00000   0.00000
 229       69G-4        0.00000   0.00000  -0.00000   0.00000
 230       70H 0        0.00000   0.00000   0.00000   0.00000
 231       70H+1       -0.00000  -0.00000  -0.00000  -0.00000
 232       70H-1       -0.00000  -0.00000  -0.00000  -0.00000
 233       70H+2        0.00000   0.00000  -0.00000   0.00000
 234       70H-2        0.00000   0.00000  -0.00000   0.00000
 235       70H+3       -0.00000  -0.00000  -0.00000   0.00000
 236       70H-3       -0.00000  -0.00000   0.00000  -0.00000
 237       70H+4        0.00000   0.00000   0.00000   0.00000
 238       70H-4       -0.00000  -0.00000   0.00000  -0.00000
 239       70H+5        0.00000   0.00000   0.00000   0.00000
 240       70H-5        0.00000   0.00000   0.00000  -0.00000
 241       71H 0        0.00006   0.00003   0.00003  -0.00000
 242       71H+1        0.00004   0.00002   0.00002  -0.00000
 243       71H-1        0.00004   0.00002   0.00002  -0.00000
 244       71H+2        0.00000   0.00000   0.00000   0.00000
 245       71H-2        0.00000   0.00000   0.00000   0.00000
 246       71H+3       -0.00000  -0.00000  -0.00000   0.00000
 247       71H-3       -0.00000  -0.00000  -0.00000   0.00000
 248       71H+4        0.00000   0.00000   0.00000  -0.00000
 249       71H-4       -0.00000  -0.00000   0.00000  -0.00000
 250       71H+5       -0.00000  -0.00000  -0.00000  -0.00000
 251       71H-5        0.00000   0.00000  -0.00000   0.00000
 252       72H 0        0.00026   0.00013   0.00013   0.00000
 253       72H+1        0.00049   0.00024   0.00025  -0.00001
 254       72H-1        0.00049   0.00024   0.00025  -0.00001
 255       72H+2        0.00000   0.00000   0.00000   0.00000
 256       72H-2        0.00000   0.00000   0.00000   0.00000
 257       72H+3        0.00000   0.00000  -0.00000   0.00000
 258       72H-3        0.00000  -0.00000   0.00000  -0.00000
 259       72H+4       -0.00000  -0.00000  -0.00000  -0.00000
 260       72H-4       -0.00000  -0.00000  -0.00000  -0.00000
 261       72H+5       -0.00000   0.00000  -0.00000   0.00000
 262       72H-5       -0.00000  -0.00000  -0.00000  -0.00000
 263 2   O  1S         -0.00000  -0.00000  -0.00000   0.00000
 264        2S          0.00000   0.00000   0.00000  -0.00000
 265        3S         -0.00000  -0.00000  -0.00000   0.00000
 266        4S          0.00000   0.00000   0.00000  -0.00000
 267        5S         -0.00000  -0.00000  -0.00000   0.00000
 268        6S         -0.00007  -0.00003  -0.00004   0.00000
 269        7S         -0.00057  -0.00028  -0.00029   0.00001
 270        8S         -0.09167  -0.04587  -0.04580  -0.00007
 271        9S         -0.07677  -0.03848  -0.03829  -0.00019
 272       10S          0.42803   0.21449   0.21355   0.00094
 273       11S          1.06468   0.53258   0.53210   0.00048
 274       12S          0.59861   0.29779   0.30082  -0.00303
 275       13S          0.05533   0.02767   0.02766   0.00002
 276       14S          0.00034   0.00017   0.00018  -0.00001
 277       15S          0.00003   0.00001   0.00001  -0.00000
 278       16S          0.07756   0.03422   0.04333  -0.00911
 279       17PX        -0.00017  -0.00009  -0.00008  -0.00001
 280       17PY        -0.00017  -0.00009  -0.00008  -0.00001
 281       17PZ        -0.00018  -0.00009  -0.00009  -0.00000
 282       18PX        -0.12459  -0.06528  -0.05932  -0.00596
 283       18PY        -0.12459  -0.06528  -0.05932  -0.00596
 284       18PZ        -0.12283  -0.06175  -0.06107  -0.00068
 285       19PX         0.13877   0.07331   0.06547   0.00784
 286       19PY         0.13877   0.07331   0.06547   0.00784
 287       19PZ         0.12234   0.06168   0.06066   0.00102
 288       20PX         0.47514   0.24934   0.22579   0.02355
 289       20PY         0.47514   0.24934   0.22579   0.02355
 290       20PZ         0.43320   0.21815   0.21506   0.00309
 291       21PX         0.70262   0.36480   0.33782   0.02698
 292       21PY         0.70262   0.36480   0.33782   0.02698
 293       21PZ         0.54878   0.27850   0.27027   0.00823
 294       22PX         0.42963   0.22776   0.20187   0.02589
 295       22PY         0.42963   0.22776   0.20187   0.02589
 296       22PZ         0.21952   0.12191   0.09762   0.02429
 297       23PX         0.14257   0.07476   0.06780   0.00696
 298       23PY         0.14257   0.07476   0.06780   0.00696
 299       23PZ         0.13901   0.06991   0.06910   0.00081
 300       24PX         0.00065   0.00034   0.00031   0.00003
 301       24PY         0.00065   0.00034   0.00031   0.00003
 302       24PZ         0.00063   0.00032   0.00032   0.00000
 303       25PX         0.00001   0.00000   0.00000   0.00000
 304       25PY         0.00001   0.00000   0.00000   0.00000
 305       25PZ         0.00001   0.00000   0.00000   0.00000
 306       26PX         0.03561   0.02068   0.01492   0.00576
 307       26PY         0.03561   0.02068   0.01492   0.00576
 308       26PZ         0.01900   0.01420   0.00479   0.00941
 309       27D 0        0.00030   0.00016   0.00014   0.00002
 310       27D+1        0.00013   0.00008   0.00005   0.00003
 311       27D-1        0.00013   0.00008   0.00005   0.00003
 312       27D+2        0.00000   0.00000   0.00000   0.00000
 313       27D-2        0.00000   0.00000  -0.00000   0.00000
 314       28D 0        0.00539   0.00285   0.00254   0.00032
 315       28D+1        0.00300   0.00182   0.00117   0.00065
 316       28D-1        0.00300   0.00182   0.00117   0.00065
 317       28D+2        0.00011   0.00011   0.00000   0.00011
 318       28D-2        0.00011   0.00011  -0.00000   0.00011
 319       29D 0        0.00477   0.00259   0.00218   0.00040
 320       29D+1        0.00933   0.00505   0.00428   0.00078
 321       29D-1        0.00933   0.00505   0.00428   0.00078
 322       29D+2        0.00060   0.00060   0.00000   0.00060
 323       29D-2        0.00060   0.00060  -0.00000   0.00060
 324       30D 0        0.00001   0.00000   0.00000   0.00000
 325       30D+1        0.00000   0.00000   0.00000   0.00000
 326       30D-1        0.00000   0.00000   0.00000   0.00000
 327       30D+2        0.00000   0.00000  -0.00000   0.00000
 328       30D-2        0.00000   0.00000  -0.00000   0.00000
 329       31D 0       -0.00000  -0.00000  -0.00000  -0.00000
 330       31D+1       -0.00000  -0.00000  -0.00000  -0.00000
 331       31D-1       -0.00000  -0.00000  -0.00000  -0.00000
 332       31D+2       -0.00000  -0.00000   0.00000  -0.00000
 333       31D-2       -0.00000  -0.00000   0.00000  -0.00000
 334       32D 0       -0.00025  -0.00002  -0.00022   0.00020
 335       32D+1        0.00396   0.00195   0.00201  -0.00006
 336       32D-1        0.00396   0.00195   0.00201  -0.00006
 337       32D+2        0.00015   0.00015   0.00000   0.00015
 338       32D-2        0.00015   0.00015  -0.00000   0.00015
 339       33F 0        0.00018   0.00010   0.00008   0.00001
 340       33F+1        0.00008   0.00006   0.00003   0.00003
 341       33F-1        0.00008   0.00006   0.00003   0.00003
 342       33F+2        0.00001   0.00001   0.00000   0.00001
 343       33F-2        0.00001   0.00001   0.00000   0.00001
 344       33F+3        0.00000   0.00000   0.00000   0.00000
 345       33F-3       -0.00000  -0.00000  -0.00000  -0.00000
 346       34F 0        0.00224   0.00125   0.00099   0.00026
 347       34F+1        0.00168   0.00107   0.00061   0.00046
 348       34F-1        0.00168   0.00107   0.00061   0.00046
 349       34F+2        0.00021   0.00021   0.00000   0.00021
 350       34F-2        0.00021   0.00021   0.00000   0.00021
 351       34F+3       -0.00000   0.00000  -0.00000   0.00000
 352       34F-3        0.00000   0.00000  -0.00000   0.00000
 353       35F 0        0.00000   0.00000   0.00000   0.00000
 354       35F+1        0.00000   0.00000   0.00000   0.00000
 355       35F-1        0.00000   0.00000   0.00000   0.00000
 356       35F+2        0.00000   0.00000  -0.00000   0.00000
 357       35F-2        0.00000   0.00000   0.00000   0.00000
 358       35F+3       -0.00000  -0.00000  -0.00000  -0.00000
 359       35F-3       -0.00000  -0.00000   0.00000  -0.00000
 360       36F 0        0.00005   0.00006  -0.00001   0.00008
 361       36F+1        0.00048   0.00026   0.00022   0.00004
 362       36F-1        0.00048   0.00026   0.00022   0.00004
 363       36F+2        0.00010   0.00010   0.00000   0.00010
 364       36F-2        0.00010   0.00010   0.00000   0.00010
 365       36F+3       -0.00000  -0.00000  -0.00000  -0.00000
 366       36F-3        0.00000   0.00000   0.00000  -0.00000
 367       37G 0        0.00016   0.00009   0.00007   0.00002
 368       37G+1        0.00010   0.00008   0.00003   0.00005
 369       37G-1        0.00010   0.00008   0.00003   0.00005
 370       37G+2        0.00001   0.00001   0.00000   0.00001
 371       37G-2        0.00001   0.00001  -0.00000   0.00001
 372       37G+3       -0.00000  -0.00000  -0.00000   0.00000
 373       37G-3       -0.00000  -0.00000  -0.00000   0.00000
 374       37G+4       -0.00000  -0.00000   0.00000  -0.00000
 375       37G-4       -0.00000  -0.00000   0.00000  -0.00000
 376       38G 0        0.00042   0.00025   0.00017   0.00007
 377       38G+1        0.00031   0.00019   0.00012   0.00007
 378       38G-1        0.00031   0.00019   0.00012   0.00007
 379       38G+2        0.00006   0.00006  -0.00000   0.00006
 380       38G-2        0.00006   0.00006  -0.00000   0.00006
 381       38G+3        0.00000  -0.00000   0.00000  -0.00000
 382       38G-3        0.00000   0.00000   0.00000   0.00000
 383       38G+4        0.00000   0.00000  -0.00000   0.00000
 384       38G-4       -0.00000  -0.00000  -0.00000  -0.00000
          Condensed to atoms (all electrons):
               1          2
     1  Mn  13.865005   0.065656
     2  O    0.065656   7.003682
          Atomic-Atomic Spin Densities.
               1          2
     1  Mn   4.831734  -0.057009
     2  O   -0.057009   0.282284
 Mulliken charges and spin densities:
               1          2
     1  Mn   1.069339   4.774725
     2  O   -1.069339   0.225275
 Sum of Mulliken charges =  -0.00000   5.00000
 Mulliken charges and spin densities with hydrogens summed into heavy atoms:
               1          2
     1  Mn   1.069339   4.774725
     2  O   -1.069339   0.225275
 Electronic spatial extent (au):  <R**2>=             76.7410
 Charge=             -0.0000 electrons
 Dipole moment (field-independent basis, Debye):
    X=              0.0000    Y=              0.0000    Z=              4.1929  Tot=              4.1929
 Quadrupole moment (field-independent basis, Debye-Ang):
   XX=            -19.6667   YY=            -19.6667   ZZ=            -23.1685
   XY=              0.0000   XZ=              0.0000   YZ=              0.0000
 Traceless Quadrupole moment (field-independent basis, Debye-Ang):
   XX=              1.1673   YY=              1.1673   ZZ=             -2.3346
   XY=              0.0000   XZ=              0.0000   YZ=              0.0000
 Octapole moment (field-independent basis, Debye-Ang**2):
  XXX=              0.0000  YYY=              0.0000  ZZZ=              7.0841  XYY=              0.0000
  XXY=              0.0000  XXZ=              1.2014  XZZ=              0.0000  YZZ=              0.0000
  YYZ=              1.2014  XYZ=              0.0000
 Hexadecapole moment (field-independent basis, Debye-Ang**3):
 XXXX=            -26.7533 YYYY=            -26.7533 ZZZZ=            -82.0567 XXXY=              0.0000
 XXXZ=              0.0000 YYYX=              0.0000 YYYZ=              0.0000 ZZZX=              0.0000
 ZZZY=              0.0000 XXYY=             -8.9178 XXZZ=            -18.6364 YYZZ=            -18.6364
 XXYZ=              0.0000 YYXZ=              0.0000 ZZXY=              0.0000
 N-N= 3.401853498771D+01 E-N=-3.437007962577D+02  KE= 6.916979658062D+01
 Symmetry A1   KE= 2.758829471901D+01
 Symmetry A2   KE= 6.219337688481D+00
 Symmetry B1   KE= 1.768108208604D+01
 Symmetry B2   KE= 1.768108208704D+01
 Symmetry A1   SP= 2.000000000000D+00
 Symmetry A2   SP= 1.000000000000D+00
 Symmetry B1   SP= 1.000000000000D+00
 Symmetry B2   SP= 1.000000000000D+00
 Orbital energies and kinetic energies (alpha):
                                 1                 2
   4         O                -2.774375          3.506451
   5         O                -1.244493          1.342792
   6         O                -0.705596          2.299420
   7         O                -0.705596          2.299420
   8         O                -0.632406          3.331326
   9         O                -0.632406          6.219338
  10         O                -0.558775          6.219338
  11         O                -0.410853          1.122643
  12         O                -0.410853          6.069339
  13         O                -0.317367          6.069339
  14         V                 0.011175          0.130190
  15         V                 0.019866          0.069234
  16         V                 0.019866          0.069234
  17         V                 0.030746          0.037224
  18         V                 0.047649          0.218652
 Total kinetic energy from orbitals= 9.486979332408D+01
                          Isotropic Fermi Contact Couplings
        Atom                 a.u.       MegaHertz       Gauss      10(-4) cm-1
     1  Mn(55)             0.00007       0.01530       0.00546       0.00510
     2  O(17)              0.00004      -0.00542      -0.00193      -0.00181
 --------------------------------------------------------
       Center         ----  Spin Dipole Couplings  ----
                      3XX-RR        3YY-RR        3ZZ-RR
 --------------------------------------------------------
     1   Atom        0.847156      0.847156     -1.694312
     2   Atom       -0.040051     -0.040051      0.080101
 --------------------------------------------------------
                        XY            XZ            YZ
 --------------------------------------------------------
     1   Atom        0.000000      0.000000      0.000000
     2   Atom        0.000000      0.000000      0.000000
 --------------------------------------------------------


 ---------------------------------------------------------------------------------
              Anisotropic Spin Dipole Couplings in Principal Axis System
 ---------------------------------------------------------------------------------

       Atom             a.u.   MegaHertz   Gauss  10(-4) cm-1        Axes

              Baa    -1.6943  -223.550   -79.768   -74.568  0.0000  0.0000  1.0000
     1 Mn(55) Bbb     0.8472   111.775    39.884    37.284 -0.0000  1.0000  0.0000
              Bcc     0.8472   111.775    39.884    37.284  1.0000  0.0000  0.0000
 
              Baa    -0.0401     2.898     1.034     0.967 -0.0000  1.0000  0.0000
     2 O(17)  Bbb    -0.0401     2.898     1.034     0.967  1.0000  0.0000  0.0000
              Bcc     0.0801    -5.796    -2.068    -1.933  0.0000  0.0000  1.0000
 

 ---------------------------------------------------------------------------------

 No NMR shielding tensors so no spin-rotation constants.
 Leave Link  601 at Fri Mar  9 18:09:27 2018, MaxMem= 10737418240 cpu:             113.3 elap:               7.4
 (Enter /home1/apps/gaussian/16rA.03/g16/l9999.exe)
 1\1\GINC-C471-133\SP\ROCCSD(T)-Full\Gen\Mn1O1(6)\AANNABE\09-Mar-2018\0
 \\#P ROCCSD(T)=(maxcyc=150, Full, SaveAmplitudes, ReadAmplitudes)/Gen 
 5d 7f SCF=(maxcycles=300) Integral(NoXCTest) MaxDisk=500GB Pop=Regular
  Pseudo=Read Guess=Read\\MnO\\0,6\Mn,0,0.,0.,0.\O,0,0.,0.,1.4\\Version
 =ES64L-G16RevA.03\State=6-SG\HF=-119.0988236\MP2=-120.0671597\PUHF=-11
 9.0988236\PMP2-0=-120.0671597\CCSD=-120.0334122\CCSD(T)=-120.0765135\R
 MSD=3.354e-09\PG=C*V [C*(O1Mn1)]\\@


 TIME GOES, YOU SAY?  AH NO!
 ALAS, TIME STAYS, WE GO.
    -- A. DOBSON (1840-1921)
 Job cpu time:       1 days  0 hours 37 minutes  7.6 seconds.
 Elapsed time:       0 days  1 hours 32 minutes 44.4 seconds.
 File lengths (MBytes):  RWF=  16001 Int=      0 D2E=      0 Chk=     79 Scr=      1
 Normal termination of Gaussian 16 at Fri Mar  9 18:09:28 2018.
