 Entering Gaussian System, Link 0=g16
 Initial command:
 /home1/apps/gaussian/16rA.03/g16/l1.exe "/tmp/Gau-6679.inp" -scrdir="/tmp/"
 Entering Link 1 = /home1/apps/gaussian/16rA.03/g16/l1.exe PID=      6680.
  
 Copyright (c) 1988,1990,1992,1993,1995,1998,2003,2009,2016,
            Gaussian, Inc.  All Rights Reserved.
  
 This is part of the Gaussian(R) 16 program.  It is based on
 the Gaussian(R) 09 system (copyright 2009, Gaussian, Inc.),
 the Gaussian(R) 03 system (copyright 2003, Gaussian, Inc.),
 the Gaussian(R) 98 system (copyright 1998, Gaussian, Inc.),
 the Gaussian(R) 94 system (copyright 1995, Gaussian, Inc.),
 the Gaussian 92(TM) system (copyright 1992, Gaussian, Inc.),
 the Gaussian 90(TM) system (copyright 1990, Gaussian, Inc.),
 the Gaussian 88(TM) system (copyright 1988, Gaussian, Inc.),
 the Gaussian 86(TM) system (copyright 1986, Carnegie Mellon
 University), and the Gaussian 82(TM) system (copyright 1983,
 Carnegie Mellon University). Gaussian is a federally registered
 trademark of Gaussian, Inc.
  
 This software contains proprietary and confidential information,
 including trade secrets, belonging to Gaussian, Inc.
  
 This software is provided under written license and may be
 used, copied, transmitted, or stored only in accord with that
 written license.
  
 The following legend is applicable only to US Government
 contracts under FAR:
  
                    RESTRICTED RIGHTS LEGEND
  
 Use, reproduction and disclosure by the US Government is
 subject to restrictions as set forth in subparagraphs (a)
 and (c) of the Commercial Computer Software - Restricted
 Rights clause in FAR 52.227-19.
  
 Gaussian, Inc.
 340 Quinnipiac St., Bldg. 40, Wallingford CT 06492
  
  
 ---------------------------------------------------------------
 Warning -- This program may not be used in any manner that
 competes with the business of Gaussian, Inc. or will provide
 assistance to any competitor of Gaussian, Inc.  The licensee
 of this program is prohibited from giving any competitor of
 Gaussian, Inc. access to this program.  By using this program,
 the user acknowledges that Gaussian, Inc. is engaged in the
 business of creating and licensing software in the field of
 computational chemistry and represents and warrants to the
 licensee that it is not a competitor of Gaussian, Inc. and that
 it will not use this program in any manner prohibited above.
 ---------------------------------------------------------------
  

 Cite this work as:
 Gaussian 16, Revision A.03,
 M. J. Frisch, G. W. Trucks, H. B. Schlegel, G. E. Scuseria, 
 M. A. Robb, J. R. Cheeseman, G. Scalmani, V. Barone, 
 G. A. Petersson, H. Nakatsuji, X. Li, M. Caricato, A. V. Marenich, 
 J. Bloino, B. G. Janesko, R. Gomperts, B. Mennucci, H. P. Hratchian, 
 J. V. Ortiz, A. F. Izmaylov, J. L. Sonnenberg, D. Williams-Young, 
 F. Ding, F. Lipparini, F. Egidi, J. Goings, B. Peng, A. Petrone, 
 T. Henderson, D. Ranasinghe, V. G. Zakrzewski, J. Gao, N. Rega, 
 G. Zheng, W. Liang, M. Hada, M. Ehara, K. Toyota, R. Fukuda, 
 J. Hasegawa, M. Ishida, T. Nakajima, Y. Honda, O. Kitao, H. Nakai, 
 T. Vreven, K. Throssell, J. A. Montgomery, Jr., J. E. Peralta, 
 F. Ogliaro, M. J. Bearpark, J. J. Heyd, E. N. Brothers, K. N. Kudin, 
 V. N. Staroverov, T. A. Keith, R. Kobayashi, J. Normand, 
 K. Raghavachari, A. P. Rendell, J. C. Burant, S. S. Iyengar, 
 J. Tomasi, M. Cossi, J. M. Millam, M. Klene, C. Adamo, R. Cammi, 
 J. W. Ochterski, R. L. Martin, K. Morokuma, O. Farkas, 
 J. B. Foresman, and D. J. Fox, Gaussian, Inc., Wallingford CT, 2016.
 
 ******************************************
 Gaussian 16:  ES64L-G16RevA.03 25-Dec-2016
                12-Feb-2018 
 ******************************************
 %mem=80GB
 %nproc=32
 Will use up to   32 processors via shared memory.
 ----------------------------------------------------------------------
 #P ROCCSD(T)=(maxcyc=100, Full)/Gen SCF=(maxcycle=400, symm) Pseudo=Re
 ad Integral(NoXCTest) Pop=Regular MaxDisk=500GB Guess=Permute IOp(5/15
 =2)
 ----------------------------------------------------------------------
 1/38=1,172=1/1;
 2/12=2,17=6,18=5,40=1/2;
 3/5=7,11=2,16=1,17=8,25=1,30=1,47=8,116=101/1,2,3;
 4/8=2,9=4/1;
 5/5=2,7=400,15=2,38=5/2;
 8/5=-1,6=4,9=120000,10=90/1,4;
 9/5=7,6=100,14=2/13;
 6//1;
 99/5=1,9=1/99;
 Leave Link    1 at Mon Feb 12 21:28:15 2018, MaxMem= 10737418240 cpu:               6.6 elap:               0.2
 (Enter /home1/apps/gaussian/16rA.03/g16/l101.exe)
 ---
 FeH
 ---
 Symbolic Z-matrix:
 Charge =  0 Multiplicity = 4
 Fe                    0.        0.        0. 
 H                     0.        0.        2.1 
 
 ITRead=  0  0
 MicOpt= -1 -1
 NAtoms=      2 NQM=        2 NQMF=       0 NMMI=      0 NMMIF=      0
                NMic=       0 NMicF=      0.
                    Isotopes and Nuclear Properties:
 (Nuclear quadrupole moments (NQMom) in fm**2, nuclear magnetic moments (NMagM)
  in nuclear magnetons)

  Atom         1           2
 IAtWgt=          56           1
 AtmWgt=  55.9349393   1.0078250
 NucSpn=           0           1
 AtZEff=  -0.0000000  -0.0000000
 NQMom=    0.0000000   0.0000000
 NMagM=    0.0000000   2.7928460
 AtZNuc=  26.0000000   1.0000000
 Leave Link  101 at Mon Feb 12 21:28:15 2018, MaxMem= 10737418240 cpu:               2.6 elap:               0.1
 (Enter /home1/apps/gaussian/16rA.03/g16/l202.exe)
                          Input orientation:                          
 ---------------------------------------------------------------------
 Center     Atomic      Atomic             Coordinates (Angstroms)
 Number     Number       Type             X           Y           Z
 ---------------------------------------------------------------------
      1         26           0        0.000000    0.000000    0.000000
      2          1           0        0.000000    0.000000    2.100000
 ---------------------------------------------------------------------
 Stoichiometry    FeH(4)
 Framework group  C*V[C*(HFe)]
 Deg. of freedom     1
 Full point group                 C*V     NOp   4
 Largest Abelian subgroup         C2V     NOp   4
 Largest concise Abelian subgroup C1      NOp   1
                         Standard orientation:                         
 ---------------------------------------------------------------------
 Center     Atomic      Atomic             Coordinates (Angstroms)
 Number     Number       Type             X           Y           Z
 ---------------------------------------------------------------------
      1         26           0        0.000000    0.000000    0.077778
      2          1           0        0.000000    0.000000   -2.022222
 ---------------------------------------------------------------------
 Rotational constants (GHZ):           0.0000000         115.7574210         115.7574210
 Leave Link  202 at Mon Feb 12 21:28:16 2018, MaxMem= 10737418240 cpu:               0.5 elap:               0.0
 (Enter /home1/apps/gaussian/16rA.03/g16/l301.exe)
 General basis read from cards:  (5D, 7F)
 Centers:       1
 S 1 1.00
     Exponent=  4.3162650000D+06 Coefficients=  1.0000000000D+00
 S 1 1.00
     Exponent=  6.4634240000D+05 Coefficients=  1.0000000000D+00
 S 1 1.00
     Exponent=  1.4708970000D+05 Coefficients=  1.0000000000D+00
 S 1 1.00
     Exponent=  4.1661520000D+04 Coefficients=  1.0000000000D+00
 S 1 1.00
     Exponent=  1.3590770000D+04 Coefficients=  1.0000000000D+00
 S 1 1.00
     Exponent=  4.9057500000D+03 Coefficients=  1.0000000000D+00
 S 1 1.00
     Exponent=  1.9127460000D+03 Coefficients=  1.0000000000D+00
 S 1 1.00
     Exponent=  7.9260430000D+02 Coefficients=  1.0000000000D+00
 S 1 1.00
     Exponent=  3.4480650000D+02 Coefficients=  1.0000000000D+00
 S 1 1.00
     Exponent=  1.5589990000D+02 Coefficients=  1.0000000000D+00
 S 1 1.00
     Exponent=  7.2230910000D+01 Coefficients=  1.0000000000D+00
 S 1 1.00
     Exponent=  3.2725060000D+01 Coefficients=  1.0000000000D+00
 S 1 1.00
     Exponent=  1.5667620000D+01 Coefficients=  1.0000000000D+00
 S 1 1.00
     Exponent=  7.5034830000D+00 Coefficients=  1.0000000000D+00
 S 1 1.00
     Exponent=  3.3122230000D+00 Coefficients=  1.0000000000D+00
 S 1 1.00
     Exponent=  1.5584710000D+00 Coefficients=  1.0000000000D+00
 S 1 1.00
     Exponent=  6.8391400000D-01 Coefficients=  1.0000000000D+00
 S 1 1.00
     Exponent=  1.4675700000D-01 Coefficients=  1.0000000000D+00
 S 1 1.00
     Exponent=  7.0583000000D-02 Coefficients=  1.0000000000D+00
 S 1 1.00
     Exponent=  3.1449000000D-02 Coefficients=  1.0000000000D+00
 S 1 1.00
     Exponent=  4.6844000000D+00 Coefficients=  1.0000000000D+00
 S 1 1.00
     Exponent=  1.2204000000D+00 Coefficients=  1.0000000000D+00
 S 1 1.00
     Exponent=  1.4010000000D-02 Coefficients=  1.0000000000D+00
 P 1 1.00
     Exponent=  1.7745690000D+04 Coefficients=  1.0000000000D+00
 P 1 1.00
     Exponent=  4.2007210000D+03 Coefficients=  1.0000000000D+00
 P 1 1.00
     Exponent=  1.3644290000D+03 Coefficients=  1.0000000000D+00
 P 1 1.00
     Exponent=  5.2208060000D+02 Coefficients=  1.0000000000D+00
 P 1 1.00
     Exponent=  2.2145950000D+02 Coefficients=  1.0000000000D+00
 P 1 1.00
     Exponent=  1.0090960000D+02 Coefficients=  1.0000000000D+00
 P 1 1.00
     Exponent=  4.8401150000D+01 Coefficients=  1.0000000000D+00
 P 1 1.00
     Exponent=  2.3985360000D+01 Coefficients=  1.0000000000D+00
 P 1 1.00
     Exponent=  1.2182500000D+01 Coefficients=  1.0000000000D+00
 P 1 1.00
     Exponent=  6.2422980000D+00 Coefficients=  1.0000000000D+00
 P 1 1.00
     Exponent=  3.1109440000D+00 Coefficients=  1.0000000000D+00
 P 1 1.00
     Exponent=  1.5099580000D+00 Coefficients=  1.0000000000D+00
 P 1 1.00
     Exponent=  7.1084500000D-01 Coefficients=  1.0000000000D+00
 P 1 1.00
     Exponent=  2.7259800000D-01 Coefficients=  1.0000000000D+00
 P 1 1.00
     Exponent=  1.0397200000D-01 Coefficients=  1.0000000000D+00
 P 1 1.00
     Exponent=  3.8166000000D-02 Coefficients=  1.0000000000D+00
 P 1 1.00
     Exponent=  6.8788000000D+00 Coefficients=  1.0000000000D+00
 P 1 1.00
     Exponent=  1.5748000000D+00 Coefficients=  1.0000000000D+00
 P 1 1.00
     Exponent=  1.4010000000D-02 Coefficients=  1.0000000000D+00
 D 1 1.00
     Exponent=  1.1488400000D+02 Coefficients=  1.0000000000D+00
 D 1 1.00
     Exponent=  3.3887800000D+01 Coefficients=  1.0000000000D+00
 D 1 1.00
     Exponent=  1.2373000000D+01 Coefficients=  1.0000000000D+00
 D 1 1.00
     Exponent=  4.9992500000D+00 Coefficients=  1.0000000000D+00
 D 1 1.00
     Exponent=  2.0704300000D+00 Coefficients=  1.0000000000D+00
 D 1 1.00
     Exponent=  8.2818300000D-01 Coefficients=  1.0000000000D+00
 D 1 1.00
     Exponent=  3.0754700000D-01 Coefficients=  1.0000000000D+00
 D 1 1.00
     Exponent=  9.9455000000D-02 Coefficients=  1.0000000000D+00
 D 1 1.00
     Exponent=  4.5305000000D+00 Coefficients=  1.0000000000D+00
 D 1 1.00
     Exponent=  2.1205000000D+00 Coefficients=  1.0000000000D+00
 D 1 1.00
     Exponent=  3.2160000000D-02 Coefficients=  1.0000000000D+00
 F 1 1.00
     Exponent=  6.0066000000D+00 Coefficients=  1.0000000000D+00
 F 1 1.00
     Exponent=  2.2522000000D+00 Coefficients=  1.0000000000D+00
 F 1 1.00
     Exponent=  7.7580000000D-01 Coefficients=  1.0000000000D+00
 F 1 1.00
     Exponent=  2.6723000000D-01 Coefficients=  1.0000000000D+00
 G 1 1.00
     Exponent=  5.5068000000D+00 Coefficients=  1.0000000000D+00
 G 1 1.00
     Exponent=  2.0515000000D+00 Coefficients=  1.0000000000D+00
 G 1 1.00
     Exponent=  7.6426000000D-01 Coefficients=  1.0000000000D+00
 ****
 Centers:       2
 S 1 1.00
     Exponent=  3.3870000000D+01 Coefficients=  1.0000000000D+00
 S 1 1.00
     Exponent=  5.0950000000D+00 Coefficients=  1.0000000000D+00
 S 1 1.00
     Exponent=  1.1590000000D+00 Coefficients=  1.0000000000D+00
 S 1 1.00
     Exponent=  3.2580000000D-01 Coefficients=  1.0000000000D+00
 S 1 1.00
     Exponent=  1.0270000000D-01 Coefficients=  1.0000000000D+00
 S 1 1.00
     Exponent=  2.5260000000D-02 Coefficients=  1.0000000000D+00
 P 1 1.00
     Exponent=  1.4070000000D+00 Coefficients=  1.0000000000D+00
 P 1 1.00
     Exponent=  3.8800000000D-01 Coefficients=  1.0000000000D+00
 P 1 1.00
     Exponent=  1.0200000000D-01 Coefficients=  1.0000000000D+00
 D 1 1.00
     Exponent=  1.0570000000D+00 Coefficients=  1.0000000000D+00
 D 1 1.00
     Exponent=  2.4700000000D-01 Coefficients=  1.0000000000D+00
 ****
 ======================================================================================================
                                       Pseudopotential Parameters
 ======================================================================================================
  Center     Atomic      Valence      Angular      Power
  Number     Number     Electrons     Momentum     of R      Exponent        Coefficient   SO-Coeffient
 ======================================================================================================
    1         26           16
                                      F and up 
                                                     2        1.0000000        0.00000000    0.00000000
                                      S - F
                                                     2       20.9300000      253.74958800    0.00000000
                                                     2        9.4450000       37.92284500    0.00000000
                                      P - F
                                                     2       21.7600000      161.03681200    0.00000000
                                                     2        9.1780000       27.65129800    0.00000000
                                      D - F
                                                     2       25.9000000      -24.43127600    0.00000000
                                                     2        8.8350000       -1.43425100    0.00000000
    2          1            1
                                      P and up 
                                                     2       21.7769666      -10.85192405    0.00000000
                                                     1       21.2435951        1.00000000    0.00000000
                                                     3       21.2435951       21.24359508    0.00000000
                                      S - P
                                                     2        1.0000000        0.00000000    0.00000000
 ======================================================================================================
 Ernie: Thresh=  0.10000D-02 Tol=  0.10000D-05 Strict=F.
 There are   120 symmetry adapted cartesian basis functions of A1  symmetry.
 There are    26 symmetry adapted cartesian basis functions of A2  symmetry.
 There are    56 symmetry adapted cartesian basis functions of B1  symmetry.
 There are    56 symmetry adapted cartesian basis functions of B2  symmetry.
 There are    94 symmetry adapted basis functions of A1  symmetry.
 There are    23 symmetry adapted basis functions of A2  symmetry.
 There are    49 symmetry adapted basis functions of B1  symmetry.
 There are    49 symmetry adapted basis functions of B2  symmetry.
   215 basis functions,   258 primitive gaussians,   258 cartesian basis functions
    10 alpha electrons        7 beta electrons
       nuclear repulsion energy         4.0318263689 Hartrees.
 IExCor=    0 DFT=F Ex=HF Corr=None ExCW=0 ScaHFX=  1.000000
 ScaDFX=  1.000000  1.000000  1.000000  1.000000 ScalE2=  1.000000  1.000000
 IRadAn=      5 IRanWt=     -1 IRanGd=            0 ICorTp=0 IEmpDi=  4
 NAtoms=    2 NActive=    2 NUniq=    2 SFac= 1.00D+00 NAtFMM=   60 NAOKFM=F Big=F
 Integral buffers will be    131072 words long.
 Raffenetti 2 integral format.
 Two-electron integral symmetry is turned on.
 Leave Link  301 at Mon Feb 12 21:28:16 2018, MaxMem= 10737418240 cpu:               6.7 elap:               0.2
 (Enter /home1/apps/gaussian/16rA.03/g16/l302.exe)
 NPDir=0 NMtPBC=     1 NCelOv=     1 NCel=       1 NClECP=     1 NCelD=      1
         NCelK=      1 NCelE2=     1 NClLst=     1 CellRange=     0.0.
 One-electron integrals computed using PRISM.
 One-electron integral symmetry used in STVInt
   4 Symmetry operations used in ECPInt.
 ECPInt:  NShTT=    2556 NPrTT=    2556 LenC2=    2511 LenP2D=    2510.
 LDataN:  DoStor=T MaxTD1= 8 Len=  415
 NBasis=   215 RedAO= T EigKep=  2.49D-06  NBF=    94    23    49    49
 NBsUse=   212 1.00D-06 EigRej=  9.74D-07 NBFU=    93    23    48    48
 Leave Link  302 at Mon Feb 12 21:28:18 2018, MaxMem= 10737418240 cpu:              32.1 elap:               1.0
 (Enter /home1/apps/gaussian/16rA.03/g16/l303.exe)
 DipDrv:  MaxL=1.
 Leave Link  303 at Mon Feb 12 21:28:18 2018, MaxMem= 10737418240 cpu:               1.6 elap:               0.1
 (Enter /home1/apps/gaussian/16rA.03/g16/l401.exe)
 ExpMin= 1.40D-02 ExpMax= 4.32D+06 ExpMxC= 4.32D+06 IAcc=4 IRadAn=    199590 AccDes= 0.00D+00
 Harris functional with IExCor=  205 and IRadAn=  199590 diagonalized for initial guess.
 HarFok:  IExCor=  205 AccDes= 0.00D+00 IRadAn=    199590 IDoV= 1 UseB2=F ITyADJ=14
 ICtDFT=  3500011 ScaDFX=  1.000000  1.000000  1.000000  1.000000
 Spurious integrated density or basis function:
 NE=   17 NElCor=    0 El error=9.79D-09 rel=3.63D-10 Tolerance=1.00D-03
 Shell     1     absolute error=1.51D-02              Tolerance=1.20D-02
 Shell     2       signed error=3.25D-05              Tolerance=1.00D-01
 FoFCou: FMM=F IPFlag=           8 FMFlag=      100000 FMFlg1=           0
         NFxFlg=           0 DoJE=T BraDBF=F KetDBF=T FulRan=T
         wScrn=  0.000000 ICntrl=       500 IOpCl=  0 I1Cent=   200000004 NGrid=           0
         NMat0=    1 NMatS0=      1 NMatT0=    0 NMatD0=    1 NMtDS0=    0 NMtDT0=    0
 Petite list used in FoFCou.
 Harris En= -124.518230807906    
 JPrj=0 DoOrth=F DoCkMO=F.
 Alpha guess permutation (I<-O):    1    2    3    4    5   10    9    8    6    7
 Initial guess orbital symmetries:
       Occupied  (SG) (SG) (PI) (PI) (SG) (SG) (DLTA) (DLTA) (PI)
                 (PI)
       Virtual   (SG) (PI) (PI) (SG) (SG) (SG) (PI) (PI) (PI) (PI)
                 (DLTA) (DLTA) (SG) (SG) (SG) (SG) (PI) (PI) (PI)
                 (PI) (DLTA) (DLTA) (SG) (PI) (PI) (SG) (SG) (SG)
                 (DLTA) (DLTA) (PI) (PI) (SG) (PI) (PI) (PHI) (PHI)
                 (SG) (DLTA) (DLTA) (PI) (PI) (SG) (PI) (PI) (DLTA)
                 (DLTA) (SG) (PI) (PI) (SG) (SG) (SG) (PI) (PI)
                 (PHI) (PHI) (DLTA) (DLTA) (SG) (PI) (PI) (SG)
                 (DLTA) (DLTA) (PI) (PI) (SG) (PHI) (PHI) (?A)
                 (?A) (DLTA) (DLTA) (PI) (PI) (SG) (DLTA) (DLTA)
                 (PI) (PI) (PI) (PI) (SG) (SG) (SG) (PHI) (PHI)
                 (DLTA) (DLTA) (PI) (PI) (DLTA) (DLTA) (SG) (PI)
                 (PI) (SG) (PI) (PI) (SG) (PHI) (PHI) (?A) (?A)
                 (DLTA) (DLTA) (PI) (PI) (SG) (SG) (SG) (DLTA)
                 (DLTA) (PI) (PI) (SG) (PI) (PI) (SG) (PHI) (PHI)
                 (DLTA) (DLTA) (PI) (PI) (SG) (PHI) (PHI) (?A)
                 (?A) (DLTA) (DLTA) (PI) (PI) (SG) (SG) (DLTA)
                 (DLTA) (PI) (PI) (SG) (PI) (PI) (SG) (DLTA) (DLTA)
                 (PI) (PI) (SG) (SG) (SG) (PI) (PI) (SG) (SG) (DLTA)
                 (DLTA) (PI) (PI) (SG) (PI) (PI) (SG) (SG) (PI)
                 (PI) (SG) (SG) (DLTA) (DLTA) (PI) (PI) (SG) (PI)
                 (PI) (SG) (SG) (PI) (PI) (SG) (SG) (PI) (PI) (SG)
                 (SG) (PI) (PI) (SG) (SG) (PI) (PI) (SG) (SG) (SG)
                 (PI) (PI) (SG) (SG) (SG) (SG) (SG)
 Leave Link  401 at Mon Feb 12 21:28:20 2018, MaxMem= 10737418240 cpu:              38.6 elap:               1.3
 (Enter /home1/apps/gaussian/16rA.03/g16/l502.exe)
 Keep R1 and R2 ints in memory in symmetry-blocked form, NReq=338797193.
 FoFCou: FMM=F IPFlag=           8 FMFlag=           0 FMFlg1=           0
         NFxFlg=           0 DoJE=F BraDBF=F KetDBF=F FulRan=T
         wScrn=  0.000000 ICntrl=       600 IOpCl=  0 I1Cent=           0 NGrid=           0
         NMat0=    1 NMatS0=  23220 NMatT0=    0 NMatD0=    1 NMtDS0=    0 NMtDT0=    0
 Petite list used in FoFCou.
 Restricted open shell SCF:
 Using DIIS extrapolation, IDIIS=  1040.
 NGot= 10737418240 LenX= 10598929943 LenY= 10598862938
 Requested convergence on RMS density matrix=1.00D-08 within 400 cycles.
 Requested convergence on MAX density matrix=1.00D-06.
 Requested convergence on             energy=1.00D-06.
 No special actions if energy rises.

 Cycle   1  Pass 1  IDiag  1:
 E= -123.524837228417    
 DIIS: error= 2.67D-02 at cycle   1 NSaved=   1.
 NSaved= 1 IEnMin= 1 EnMin= -123.524837228417     IErMin= 1 ErrMin= 2.67D-02
 ErrMax= 2.67D-02  0.00D+00 EMaxC= 1.00D-01 BMatC= 7.74D-02 BMatP= 7.74D-02
 IDIUse=3 WtCom= 7.33D-01 WtEn= 2.67D-01
 Coeff-Com:  0.100D+01
 Coeff-En:   0.100D+01
 Coeff:      0.100D+01
 Gap=     0.026 Goal=   None    Shift=    0.000
 GapD=    0.026 DampG=0.250 DampE=0.250 DampFc=0.1250 IDamp=-1.
 Damping current iteration by 1.25D-01
 RMSDP=3.70D-03 MaxDP=3.93D-01              OVMax= 5.95D-01

 Cycle   2  Pass 1  IDiag  1:
 E= -123.489620935858     Delta-E=        0.035216292559 Rises=F Damp=T
 DIIS: error= 2.60D-02 at cycle   2 NSaved=   2.
 NSaved= 2 IEnMin= 1 EnMin= -123.524837228417     IErMin= 2 ErrMin= 2.60D-02
 ErrMax= 2.60D-02  0.00D+00 EMaxC= 1.00D-01 BMatC= 6.84D-02 BMatP= 7.74D-02
 IDIUse=3 WtCom= 7.40D-01 WtEn= 2.60D-01
 Coeff-Com:  0.334D+00 0.666D+00
 Coeff-En:   0.808D+00 0.192D+00
 Coeff:      0.457D+00 0.543D+00
 Gap=    -0.017 Goal=   None    Shift=    0.000
 RMSDP=2.01D-03 MaxDP=1.32D-01 DE= 3.52D-02 OVMax= 7.27D-01

 Cycle   3  Pass 1  IDiag  1:
 E= -123.526850568453     Delta-E=       -0.037229632596 Rises=F Damp=F
 DIIS: error= 2.02D-02 at cycle   3 NSaved=   3.
 NSaved= 3 IEnMin= 3 EnMin= -123.526850568453     IErMin= 3 ErrMin= 2.02D-02
 ErrMax= 2.02D-02  0.00D+00 EMaxC= 1.00D-01 BMatC= 2.71D-02 BMatP= 6.84D-02
 IDIUse=3 WtCom= 7.98D-01 WtEn= 2.02D-01
 EnCoef did     3 forward-backward iterations
 Coeff-Com: -0.148D+00 0.480D+00 0.668D+00
 Coeff-En:   0.453D-01 0.348D+00 0.606D+00
 Coeff:     -0.109D+00 0.454D+00 0.656D+00
 Gap=     0.032 Goal=   None    Shift=    0.000
 RMSDP=1.55D-03 MaxDP=1.20D-01 DE=-3.72D-02 OVMax= 2.00D-01

 Cycle   4  Pass 1  IDiag  1:
 E= -123.553623651531     Delta-E=       -0.026773083077 Rises=F Damp=F
 DIIS: error= 2.26D-02 at cycle   4 NSaved=   4.
 NSaved= 4 IEnMin= 4 EnMin= -123.553623651531     IErMin= 3 ErrMin= 2.02D-02
 ErrMax= 2.26D-02  0.00D+00 EMaxC= 1.00D-01 BMatC= 1.75D-02 BMatP= 2.71D-02
 IDIUse=3 WtCom= 7.74D-01 WtEn= 2.26D-01
 Coeff-Com: -0.329D+00 0.353D+00 0.444D+00 0.532D+00
 Coeff-En:   0.000D+00 0.000D+00 0.337D+00 0.663D+00
 Coeff:     -0.255D+00 0.273D+00 0.420D+00 0.562D+00
 Gap=     0.005 Goal=   None    Shift=    0.000
 RMSDP=6.93D-04 MaxDP=7.33D-02 DE=-2.68D-02 OVMax= 1.04D-01

 Cycle   5  Pass 1  IDiag  1:
 E= -123.561681660525     Delta-E=       -0.008058008995 Rises=F Damp=F
 DIIS: error= 4.70D-03 at cycle   5 NSaved=   5.
 NSaved= 5 IEnMin= 5 EnMin= -123.561681660525     IErMin= 5 ErrMin= 4.70D-03
 ErrMax= 4.70D-03  0.00D+00 EMaxC= 1.00D-01 BMatC= 1.16D-03 BMatP= 1.75D-02
 IDIUse=3 WtCom= 9.53D-01 WtEn= 4.70D-02
 EnCoef did     2 forward-backward iterations
 Coeff-Com: -0.227D+00 0.237D+00 0.271D+00 0.331D+00 0.388D+00
 Coeff-En:   0.000D+00 0.000D+00 0.223D+00 0.316D+00 0.461D+00
 Coeff:     -0.216D+00 0.225D+00 0.269D+00 0.331D+00 0.391D+00
 Gap=     0.006 Goal=   None    Shift=    0.000
 RMSDP=4.33D-04 MaxDP=5.54D-02 DE=-8.06D-03 OVMax= 6.56D-02

 Cycle   6  Pass 1  IDiag  1:
 E= -123.562262177206     Delta-E=       -0.000580516681 Rises=F Damp=F
 DIIS: error= 4.34D-03 at cycle   6 NSaved=   6.
 NSaved= 6 IEnMin= 6 EnMin= -123.562262177206     IErMin= 6 ErrMin= 4.34D-03
 ErrMax= 4.34D-03  0.00D+00 EMaxC= 1.00D-01 BMatC= 9.93D-04 BMatP= 1.16D-03
 IDIUse=3 WtCom= 9.57D-01 WtEn= 4.34D-02
 Rare condition: small coef for last iteration: -0.222D-15
 Coeff-Com: -0.149D+00 0.166D+00 0.637D-01 0.134D-03 0.102D+00 0.817D+00
 Coeff-En:   0.000D+00 0.000D+00 0.113D+00 0.000D+00 0.386D+00 0.501D+00
 Coeff:     -0.149D+00 0.166D+00 0.637D-01 0.134D-03 0.102D+00 0.817D+00
 Gap=     0.003 Goal=   None    Shift=    0.000
 RMSDP=5.01D-04 MaxDP=7.09D-02 DE=-5.81D-04 OVMax= 5.68D-02

 Cycle   7  Pass 1  IDiag  1:
 E= -123.562853537696     Delta-E=       -0.000591360490 Rises=F Damp=F
 DIIS: error= 3.86D-03 at cycle   7 NSaved=   7.
 NSaved= 7 IEnMin= 7 EnMin= -123.562853537696     IErMin= 7 ErrMin= 3.86D-03
 ErrMax= 3.86D-03  0.00D+00 EMaxC= 1.00D-01 BMatC= 6.20D-04 BMatP= 9.93D-04
 IDIUse=3 WtCom= 9.61D-01 WtEn= 3.86D-02
 EnCoef did   100 forward-backward iterations
 Rare condition: small coef for last iteration:  0.000D+00
 Coeff-Com: -0.970D-01 0.120D+00-0.438D-01-0.139D+00-0.629D+00 0.738D+00
 Coeff-Com:  0.105D+01
 Coeff-En:   0.000D+00 0.000D+00 0.918D-01 0.000D+00 0.000D+00 0.352D+00
 Coeff-En:   0.556D+00
 Coeff:     -0.970D-01 0.120D+00-0.438D-01-0.139D+00-0.629D+00 0.738D+00
 Coeff:      0.105D+01
 Gap=     0.001 Goal=   None    Shift=    0.000
 RMSDP=3.54D-04 MaxDP=4.36D-02 DE=-5.91D-04 OVMax= 3.48D-02

 Cycle   8  Pass 1  IDiag  1:
 E= -123.563840640469     Delta-E=       -0.000987102773 Rises=F Damp=F
 DIIS: error= 1.92D-03 at cycle   8 NSaved=   8.
 NSaved= 8 IEnMin= 8 EnMin= -123.563840640469     IErMin= 8 ErrMin= 1.92D-03
 ErrMax= 1.92D-03  0.00D+00 EMaxC= 1.00D-01 BMatC= 1.80D-04 BMatP= 6.20D-04
 IDIUse=3 WtCom= 9.81D-01 WtEn= 1.92D-02
 EnCoef did   100 forward-backward iterations
 Coeff-Com: -0.434D-01 0.555D-01-0.360D-01-0.916D-01-0.638D+00 0.422D+00
 Coeff-Com:  0.827D+00 0.504D+00
 Coeff-En:   0.000D+00 0.000D+00 0.173D+00 0.000D+00 0.000D+00 0.586D-02
 Coeff-En:   0.928D-02 0.812D+00
 Coeff:     -0.426D-01 0.544D-01-0.320D-01-0.899D-01-0.626D+00 0.414D+00
 Coeff:      0.811D+00 0.510D+00
 Gap=     0.001 Goal=   None    Shift=    0.000
 RMSDP=1.88D-04 MaxDP=1.11D-02 DE=-9.87D-04 OVMax= 1.93D-02

 Cycle   9  Pass 1  IDiag  1:
 E= -123.564099524531     Delta-E=       -0.000258884062 Rises=F Damp=F
 DIIS: error= 1.09D-03 at cycle   9 NSaved=   9.
 NSaved= 9 IEnMin= 9 EnMin= -123.564099524531     IErMin= 9 ErrMin= 1.09D-03
 ErrMax= 1.09D-03  0.00D+00 EMaxC= 1.00D-01 BMatC= 6.87D-05 BMatP= 1.80D-04
 IDIUse=3 WtCom= 9.89D-01 WtEn= 1.09D-02
 EnCoef did   100 forward-backward iterations
 Coeff-Com:  0.263D-02-0.508D-03-0.500D-02-0.364D-01-0.406D+00 0.134D+00
 Coeff-Com:  0.390D+00 0.353D+00 0.568D+00
 Coeff-En:   0.000D+00 0.000D+00 0.180D+00 0.000D+00 0.000D+00 0.360D-02
 Coeff-En:   0.702D-02 0.119D-02 0.809D+00
 Coeff:      0.260D-02-0.502D-03-0.300D-02-0.360D-01-0.402D+00 0.133D+00
 Coeff:      0.386D+00 0.349D+00 0.571D+00
 Gap=     0.000 Goal=   None    Shift=    0.000
 RMSDP=9.98D-05 MaxDP=7.32D-03 DE=-2.59D-04 OVMax= 1.39D-02

 Cycle  10  Pass 1  IDiag  1:
 E= -123.564240183538     Delta-E=       -0.000140659007 Rises=F Damp=F
 DIIS: error= 3.93D-04 at cycle  10 NSaved=  10.
 NSaved=10 IEnMin=10 EnMin= -123.564240183538     IErMin=10 ErrMin= 3.93D-04
 ErrMax= 3.93D-04  0.00D+00 EMaxC= 1.00D-01 BMatC= 6.28D-06 BMatP= 6.87D-05
 IDIUse=3 WtCom= 9.96D-01 WtEn= 3.93D-03
 EnCoef did   100 forward-backward iterations
 Rare condition: small coef for last iteration: -0.115D-15
 Coeff-Com:  0.168D-02-0.135D-02 0.119D-01 0.284D-02-0.767D-01-0.440D-02
 Coeff-Com:  0.427D-01-0.626D-02 0.316D+00 0.713D+00
 Coeff-En:   0.000D+00 0.000D+00 0.150D+00 0.000D+00 0.000D+00 0.000D+00
 Coeff-En:   0.000D+00 0.000D+00 0.200D+00 0.650D+00
 Coeff:      0.168D-02-0.135D-02 0.119D-01 0.284D-02-0.767D-01-0.440D-02
 Coeff:      0.427D-01-0.626D-02 0.316D+00 0.713D+00
 Gap=     0.000 Goal=   None    Shift=    0.000
 RMSDP=3.84D-05 MaxDP=3.29D-03 DE=-1.41D-04 OVMax= 6.69D-03

 Cycle  11  Pass 1  IDiag  1:
 E= -123.564234643163     Delta-E=        0.000005540375 Rises=F Damp=F
 DIIS: error= 4.07D-04 at cycle  11 NSaved=  11.
 NSaved=11 IEnMin=10 EnMin= -123.564240183538     IErMin=10 ErrMin= 3.93D-04
 ErrMax= 4.07D-04  0.00D+00 EMaxC= 1.00D-01 BMatC= 7.21D-06 BMatP= 6.28D-06
 IDIUse=3 WtCom= 9.96D-01 WtEn= 3.93D-03
 EnCoef did   100 forward-backward iterations
 Rare condition: small coef for last iteration:  0.180D-16
 Coeff-Com: -0.196D-02 0.189D-02 0.904D-02 0.142D-01 0.369D-01-0.564D-01
 Coeff-Com: -0.746D-01-0.786D-02 0.150D+00 0.230D+00 0.699D+00
 Coeff-En:   0.000D+00 0.000D+00 0.146D+00 0.000D+00 0.000D+00 0.000D+00
 Coeff-En:   0.000D+00 0.000D+00 0.217D+00 0.355D+00 0.282D+00
 Coeff:     -0.196D-02 0.189D-02 0.904D-02 0.142D-01 0.369D-01-0.564D-01
 Coeff:     -0.746D-01-0.786D-02 0.150D+00 0.230D+00 0.699D+00
 Gap=     0.000 Goal=   None    Shift=    0.000
 RMSDP=1.59D-05 MaxDP=1.29D-03 DE= 5.54D-06 OVMax= 2.93D-03

 Cycle  12  Pass 1  IDiag  1:
 E= -123.564248129187     Delta-E=       -0.000013486024 Rises=F Damp=F
 DIIS: error= 2.02D-04 at cycle  12 NSaved=  12.
 NSaved=12 IEnMin=12 EnMin= -123.564248129187     IErMin=12 ErrMin= 2.02D-04
 ErrMax= 2.02D-04  0.00D+00 EMaxC= 1.00D-01 BMatC= 2.54D-06 BMatP= 6.28D-06
 IDIUse=3 WtCom= 9.98D-01 WtEn= 2.02D-03
 EnCoef did   100 forward-backward iterations
 Rare condition: small coef for last iteration:  0.000D+00
 Coeff-Com: -0.834D-02 0.960D-02-0.106D-02 0.979D-03 0.312D-02-0.231D-02
 Coeff-Com: -0.608D-03 0.790D-02 0.223D-01-0.348D-01 0.234D+00 0.770D+00
 Coeff-En:   0.000D+00 0.000D+00 0.146D+00 0.000D+00 0.000D+00 0.000D+00
 Coeff-En:   0.000D+00 0.000D+00 0.202D+00 0.183D+00 0.000D+00 0.469D+00
 Coeff:     -0.834D-02 0.960D-02-0.106D-02 0.979D-03 0.312D-02-0.231D-02
 Coeff:     -0.608D-03 0.790D-02 0.223D-01-0.348D-01 0.234D+00 0.770D+00
 Gap=     0.000 Goal=   None    Shift=    0.000
 RMSDP=3.49D-05 MaxDP=2.93D-03 DE=-1.35D-05 OVMax= 4.84D-03

 Cycle  13  Pass 1  IDiag  1:
 E= -123.564249037332     Delta-E=       -0.000000908145 Rises=F Damp=F
 DIIS: error= 2.07D-04 at cycle  13 NSaved=  13.
 NSaved=13 IEnMin=13 EnMin= -123.564249037332     IErMin=12 ErrMin= 2.02D-04
 ErrMax= 2.07D-04  0.00D+00 EMaxC= 1.00D-01 BMatC= 2.36D-06 BMatP= 2.54D-06
 IDIUse=3 WtCom= 9.98D-01 WtEn= 2.02D-03
 EnCoef did   100 forward-backward iterations
 Rare condition: small coef for last iteration:  0.000D+00
 Coeff-Com:  0.502D-03-0.652D-03-0.102D-02-0.412D-03 0.619D-02-0.544D-02
 Coeff-Com: -0.146D-01-0.248D-01-0.128D-01-0.433D-01-0.248D+00 0.822D+00
 Coeff-Com:  0.522D+00
 Coeff-En:   0.000D+00 0.000D+00 0.146D+00 0.000D+00 0.000D+00 0.000D+00
 Coeff-En:   0.000D+00 0.000D+00 0.126D+00 0.000D+00 0.522D-01 0.329D+00
 Coeff-En:   0.347D+00
 Coeff:      0.502D-03-0.652D-03-0.102D-02-0.412D-03 0.619D-02-0.544D-02
 Coeff:     -0.146D-01-0.248D-01-0.128D-01-0.433D-01-0.248D+00 0.822D+00
 Coeff:      0.522D+00
 Gap=     0.000 Goal=   None    Shift=    0.000
 RMSDP=1.88D-05 MaxDP=1.35D-03 DE=-9.08D-07 OVMax= 2.37D-03

 Cycle  14  Pass 1  IDiag  1:
 E= -123.564254752036     Delta-E=       -0.000005714704 Rises=F Damp=F
 DIIS: error= 3.06D-05 at cycle  14 NSaved=  14.
 NSaved=14 IEnMin=14 EnMin= -123.564254752036     IErMin=14 ErrMin= 3.06D-05
 ErrMax= 3.06D-05  0.00D+00 EMaxC= 1.00D-01 BMatC= 4.84D-08 BMatP= 2.36D-06
 IDIUse=1 WtCom= 1.00D+00 WtEn= 0.00D+00
 Coeff-Com:  0.210D-02-0.236D-02-0.865D-03-0.194D-02-0.192D-02 0.458D-02
 Coeff-Com:  0.326D-02-0.577D-02-0.267D-01-0.276D-01-0.153D+00 0.104D+00
 Coeff-Com:  0.165D+00 0.941D+00
 Coeff:      0.210D-02-0.236D-02-0.865D-03-0.194D-02-0.192D-02 0.458D-02
 Coeff:      0.326D-02-0.577D-02-0.267D-01-0.276D-01-0.153D+00 0.104D+00
 Coeff:      0.165D+00 0.941D+00
 Gap=    -0.000 Goal=   None    Shift=    0.000
 RMSDP=4.36D-06 MaxDP=4.14D-04 DE=-5.71D-06 OVMax= 3.92D-04

 Cycle  15  Pass 1  IDiag  1:
 E= -123.564254889927     Delta-E=       -0.000000137891 Rises=F Damp=F
 DIIS: error= 4.02D-05 at cycle  15 NSaved=  15.
 NSaved=15 IEnMin=15 EnMin= -123.564254889927     IErMin=14 ErrMin= 3.06D-05
 ErrMax= 4.02D-05  0.00D+00 EMaxC= 1.00D-01 BMatC= 4.61D-08 BMatP= 4.84D-08
 IDIUse=1 WtCom= 1.00D+00 WtEn= 0.00D+00
 Coeff-Com:  0.187D-02-0.211D-02-0.108D-03-0.903D-03-0.194D-02 0.237D-02
 Coeff-Com:  0.442D-02 0.101D-01 0.191D-02-0.775D-02 0.197D-01-0.214D+00
 Coeff-Com:  0.435D-01-0.110D+00 0.125D+01
 Coeff:      0.187D-02-0.211D-02-0.108D-03-0.903D-03-0.194D-02 0.237D-02
 Coeff:      0.442D-02 0.101D-01 0.191D-02-0.775D-02 0.197D-01-0.214D+00
 Coeff:      0.435D-01-0.110D+00 0.125D+01
 Gap=    -0.000 Goal=   None    Shift=    0.000
 RMSDP=2.15D-06 MaxDP=1.35D-04 DE=-1.38D-07 OVMax= 2.60D-04

 Cycle  16  Pass 1  IDiag  1:
 E= -123.564254921667     Delta-E=       -0.000000031741 Rises=F Damp=F
 DIIS: error= 2.92D-05 at cycle  16 NSaved=  16.
 NSaved=16 IEnMin=16 EnMin= -123.564254921667     IErMin=16 ErrMin= 2.92D-05
 ErrMax= 2.92D-05  0.00D+00 EMaxC= 1.00D-01 BMatC= 5.73D-08 BMatP= 4.61D-08
 IDIUse=1 WtCom= 1.00D+00 WtEn= 0.00D+00
 Coeff-Com:  0.769D-03-0.864D-03 0.111D-03-0.551D-03-0.344D-03-0.682D-03
 Coeff-Com: -0.193D-03 0.400D-02 0.111D-01-0.126D-02 0.291D-02-0.912D-01
 Coeff-Com:  0.156D+00-0.393D+00-0.349D+00 0.166D+01
 Coeff:      0.769D-03-0.864D-03 0.111D-03-0.551D-03-0.344D-03-0.682D-03
 Coeff:     -0.193D-03 0.400D-02 0.111D-01-0.126D-02 0.291D-02-0.912D-01
 Coeff:      0.156D+00-0.393D+00-0.349D+00 0.166D+01
 Gap=     0.000 Goal=   None    Shift=    0.000
 RMSDP=1.70D-06 MaxDP=9.71D-05 DE=-3.17D-08 OVMax= 2.59D-04

 Cycle  17  Pass 1  IDiag  1:
 E= -123.564255039667     Delta-E=       -0.000000117999 Rises=F Damp=F
 DIIS: error= 1.77D-05 at cycle  17 NSaved=  17.
 NSaved=17 IEnMin=17 EnMin= -123.564255039667     IErMin=17 ErrMin= 1.77D-05
 ErrMax= 1.77D-05  0.00D+00 EMaxC= 1.00D-01 BMatC= 1.42D-08 BMatP= 4.61D-08
 IDIUse=1 WtCom= 1.00D+00 WtEn= 0.00D+00
 Coeff-Com:  0.377D-03-0.421D-03 0.695D-04-0.270D-03 0.184D-03-0.847D-03
 Coeff-Com: -0.772D-03 0.141D-02 0.588D-02-0.644D-03-0.572D-02-0.359D-01
 Coeff-Com:  0.994D-01-0.172D+00-0.332D+00 0.712D+00 0.730D+00
 Coeff:      0.377D-03-0.421D-03 0.695D-04-0.270D-03 0.184D-03-0.847D-03
 Coeff:     -0.772D-03 0.141D-02 0.588D-02-0.644D-03-0.572D-02-0.359D-01
 Coeff:      0.994D-01-0.172D+00-0.332D+00 0.712D+00 0.730D+00
 Gap=     0.000 Goal=   None    Shift=    0.000
 RMSDP=1.62D-06 MaxDP=1.85D-04 DE=-1.18D-07 OVMax= 3.40D-04

 Cycle  18  Pass 1  IDiag  1:
 E= -123.564255025239     Delta-E=        0.000000014428 Rises=F Damp=F
 DIIS: error= 2.54D-05 at cycle  18 NSaved=  18.
 NSaved=18 IEnMin=17 EnMin= -123.564255039667     IErMin=17 ErrMin= 1.77D-05
 ErrMax= 2.54D-05  0.00D+00 EMaxC= 1.00D-01 BMatC= 1.99D-08 BMatP= 1.42D-08
 IDIUse=1 WtCom= 1.00D+00 WtEn= 0.00D+00
 Coeff-Com:  0.132D-03-0.145D-03 0.332D-04-0.821D-04 0.447D-03-0.828D-03
 Coeff-Com: -0.957D-03-0.160D-03 0.214D-02-0.369D-03-0.102D-01-0.205D-02
 Coeff-Com:  0.559D-01-0.225D-01-0.269D+00 0.604D-01 0.103D+01 0.155D+00
 Coeff:      0.132D-03-0.145D-03 0.332D-04-0.821D-04 0.447D-03-0.828D-03
 Coeff:     -0.957D-03-0.160D-03 0.214D-02-0.369D-03-0.102D-01-0.205D-02
 Coeff:      0.559D-01-0.225D-01-0.269D+00 0.604D-01 0.103D+01 0.155D+00
 Gap=     0.000 Goal=   None    Shift=    0.000
 RMSDP=1.43D-06 MaxDP=1.58D-04 DE= 1.44D-08 OVMax= 2.91D-04

 Cycle  19  Pass 1  IDiag  1:
 E= -123.564255073336     Delta-E=       -0.000000048097 Rises=F Damp=F
 DIIS: error= 3.97D-06 at cycle  19 NSaved=  19.
 NSaved=19 IEnMin=19 EnMin= -123.564255073336     IErMin=19 ErrMin= 3.97D-06
 ErrMax= 3.97D-06  0.00D+00 EMaxC= 1.00D-01 BMatC= 5.05D-10 BMatP= 1.42D-08
 IDIUse=1 WtCom= 1.00D+00 WtEn= 0.00D+00
 Coeff-Com: -0.242D-04 0.233D-04-0.452D-04 0.789D-04-0.965D-05 0.102D-04
 Coeff-Com:  0.190D-03-0.524D-03-0.157D-02-0.617D-03-0.319D-02 0.835D-02
 Coeff-Com: -0.130D-01 0.713D-01 0.476D-01-0.333D+00 0.146D+00 0.769D-01
 Coeff-Com:  0.100D+01
 Coeff:     -0.242D-04 0.233D-04-0.452D-04 0.789D-04-0.965D-05 0.102D-04
 Coeff:      0.190D-03-0.524D-03-0.157D-02-0.617D-03-0.319D-02 0.835D-02
 Coeff:     -0.130D-01 0.713D-01 0.476D-01-0.333D+00 0.146D+00 0.769D-01
 Coeff:      0.100D+01
 Gap=     0.000 Goal=   None    Shift=    0.000
 RMSDP=3.97D-07 MaxDP=3.41D-05 DE=-4.81D-08 OVMax= 5.85D-05

 Cycle  20  Pass 1  IDiag  1:
 E= -123.564255074433     Delta-E=       -0.000000001098 Rises=F Damp=F
 DIIS: error= 1.50D-06 at cycle  20 NSaved=  20.
 NSaved=20 IEnMin=20 EnMin= -123.564255074433     IErMin=20 ErrMin= 1.50D-06
 ErrMax= 1.50D-06  0.00D+00 EMaxC= 1.00D-01 BMatC= 1.11D-10 BMatP= 5.05D-10
 IDIUse=1 WtCom= 1.00D+00 WtEn= 0.00D+00
 Coeff-Com: -0.781D-05 0.647D-05 0.311D-05 0.248D-04-0.565D-04 0.907D-04
 Coeff-Com:  0.725D-04-0.568D-04-0.434D-03 0.259D-04 0.141D-02 0.304D-02
 Coeff-Com: -0.835D-02 0.386D-02 0.273D-01-0.130D-01-0.102D+00-0.148D-01
 Coeff-Com:  0.511D-02 0.110D+01
 Coeff:     -0.781D-05 0.647D-05 0.311D-05 0.248D-04-0.565D-04 0.907D-04
 Coeff:      0.725D-04-0.568D-04-0.434D-03 0.259D-04 0.141D-02 0.304D-02
 Coeff:     -0.835D-02 0.386D-02 0.273D-01-0.130D-01-0.102D+00-0.148D-01
 Coeff:      0.511D-02 0.110D+01
 Gap=     0.000 Goal=   None    Shift=    0.000
 RMSDP=1.05D-07 MaxDP=9.55D-06 DE=-1.10D-09 OVMax= 1.79D-05

 Cycle  21  Pass 1  IDiag  1:
 E= -123.564255074700     Delta-E=       -0.000000000266 Rises=F Damp=F
 DIIS: error= 1.49D-07 at cycle  21 NSaved=  20.
 NSaved=20 IEnMin=20 EnMin= -123.564255074700     IErMin=20 ErrMin= 1.49D-07
 ErrMax= 1.49D-07  0.00D+00 EMaxC= 1.00D-01 BMatC= 5.66D-13 BMatP= 1.11D-10
 IDIUse=1 WtCom= 1.00D+00 WtEn= 0.00D+00
 Coeff-Com:  0.365D-06 0.114D-05-0.809D-05-0.769D-05 0.218D-04 0.244D-05
 Coeff-Com:  0.138D-04 0.438D-04 0.366D-04 0.182D-03-0.711D-03 0.115D-03
 Coeff-Com: -0.257D-02-0.148D-03 0.144D-01-0.827D-02-0.436D-02-0.485D-01
 Coeff-Com:  0.253D-01 0.102D+01
 Coeff:      0.365D-06 0.114D-05-0.809D-05-0.769D-05 0.218D-04 0.244D-05
 Coeff:      0.138D-04 0.438D-04 0.366D-04 0.182D-03-0.711D-03 0.115D-03
 Coeff:     -0.257D-02-0.148D-03 0.144D-01-0.827D-02-0.436D-02-0.485D-01
 Coeff:      0.253D-01 0.102D+01
 Gap=     0.000 Goal=   None    Shift=    0.000
 RMSDP=1.97D-08 MaxDP=1.55D-06 DE=-2.66D-10 OVMax= 2.15D-06

 Cycle  22  Pass 1  IDiag  1:
 E= -123.564255074699     Delta-E=        0.000000000000 Rises=F Damp=F
 DIIS: error= 1.14D-07 at cycle  22 NSaved=  20.
 NSaved=20 IEnMin=19 EnMin= -123.564255074700     IErMin=20 ErrMin= 1.14D-07
 ErrMax= 1.14D-07  0.00D+00 EMaxC= 1.00D-01 BMatC= 6.87D-13 BMatP= 5.66D-13
 IDIUse=1 WtCom= 1.00D+00 WtEn= 0.00D+00
 Coeff-Com:  0.126D-05-0.520D-05 0.347D-05 0.517D-05-0.977D-05 0.998D-05
 Coeff-Com:  0.572D-04 0.293D-04 0.693D-04-0.672D-03 0.502D-03-0.194D-02
 Coeff-Com: -0.143D-02 0.102D-01-0.291D-03-0.181D-02-0.338D-01-0.505D-01
 Coeff-Com:  0.764D+00 0.316D+00
 Coeff:      0.126D-05-0.520D-05 0.347D-05 0.517D-05-0.977D-05 0.998D-05
 Coeff:      0.572D-04 0.293D-04 0.693D-04-0.672D-03 0.502D-03-0.194D-02
 Coeff:     -0.143D-02 0.102D-01-0.291D-03-0.181D-02-0.338D-01-0.505D-01
 Coeff:      0.764D+00 0.316D+00
 Gap=     0.000 Goal=   None    Shift=    0.000
 RMSDP=1.43D-08 MaxDP=1.21D-06 DE= 2.84D-13 OVMax= 1.83D-06

 Cycle  23  Pass 1  IDiag  1:
 E= -123.564255074701     Delta-E=       -0.000000000001 Rises=F Damp=F
 DIIS: error= 4.12D-08 at cycle  23 NSaved=  20.
 NSaved=20 IEnMin=20 EnMin= -123.564255074701     IErMin=20 ErrMin= 4.12D-08
 ErrMax= 4.12D-08  0.00D+00 EMaxC= 1.00D-01 BMatC= 8.35D-14 BMatP= 5.66D-13
 IDIUse=1 WtCom= 1.00D+00 WtEn= 0.00D+00
 Coeff-Com: -0.613D-07 0.251D-05-0.734D-05-0.181D-05 0.102D-04 0.250D-04
 Coeff-Com: -0.412D-05-0.393D-04-0.194D-03 0.378D-03-0.326D-03-0.875D-03
 Coeff-Com:  0.742D-03 0.406D-02 0.659D-03 0.296D-03-0.440D-01-0.621D-01
 Coeff-Com:  0.172D+00 0.930D+00
 Coeff:     -0.613D-07 0.251D-05-0.734D-05-0.181D-05 0.102D-04 0.250D-04
 Coeff:     -0.412D-05-0.393D-04-0.194D-03 0.378D-03-0.326D-03-0.875D-03
 Coeff:      0.742D-03 0.406D-02 0.659D-03 0.296D-03-0.440D-01-0.621D-01
 Coeff:      0.172D+00 0.930D+00
 Gap=     0.000 Goal=   None    Shift=    0.000
 RMSDP=4.96D-09 MaxDP=5.07D-07 DE=-1.35D-12 OVMax= 5.94D-07

 SCF Done:  E(ROHF) =  -123.564255075     A.U. after   23 cycles
            NFock= 23  Conv=0.50D-08     -V/T= 2.6597
 <Sx>= 0.0000 <Sy>= 0.0000 <Sz>= 1.5000 <S**2>= 3.7500 S= 1.5000
 <L.S>=  0.00000000000    
 KE= 7.445094136951D+01 PE=-3.020884167935D+02 EE= 1.000413939804D+02
 Annihilation of the first spin contaminant:
 S**2 before annihilation     3.7500,   after     3.7500
 Leave Link  502 at Mon Feb 12 21:28:34 2018, MaxMem= 10737418240 cpu:             386.2 elap:              14.1
 (Enter /home1/apps/gaussian/16rA.03/g16/l801.exe)
 Windowed orbitals will be sorted by symmetry type.
 GenMOA:  NOpAll=  4 NOp2=4 NOpUse=  4 JSym2X=1
 FoFJK:  IHMeth= 1 ICntrl=       0 DoSepK=F KAlg= 0 I1Cent=           0 FoldK=F
 IRaf=         0 NMat=       1 IRICut=       1 DoRegI=T DoRafI=F ISym2E= 1 IDoP0=0 IntGTp=1.
 FoFCou: FMM=F IPFlag=           8 FMFlag=      100000 FMFlg1=           0
         NFxFlg=           0 DoJE=F BraDBF=F KetDBF=F FulRan=T
         wScrn=  0.000000 ICntrl=         0 IOpCl=  1 I1Cent=           0 NGrid=           0
         NMat0=    1 NMatS0=      1 NMatT0=    0 NMatD0=    1 NMtDS0=    0 NMtDT0=    0
 Petite list used in FoFCou.
 <Sx>= 0.0000 <Sy>= 0.0000 <Sz>= 1.5000 <S**2>= 3.7500 S= 1.5000
 Range of M.O.s used for correlation:     1   212
 NBasis=   215 NAE=    10 NBE=     7 NFC=     0 NFV=     0
 NROrb=    212 NOA=    10 NOB=     7 NVA=   202 NVB=   205

 **** Warning!!: The largest alpha MO coefficient is  0.24288804D+03


 **** Warning!!: The largest beta MO coefficient is  0.24268724D+03

 Singles contribution to E2=   -0.6768994449D-02
 Leave Link  801 at Mon Feb 12 21:28:38 2018, MaxMem= 10737418240 cpu:             100.5 elap:               3.2
 (Enter /home1/apps/gaussian/16rA.03/g16/l804.exe)
 Open-shell transformation, MDV= 10737418240 ITran=4 ISComp=2.
 Unit  1 TFree=       1394375 TCopy=       1089141.
 Semi-Direct transformation.
 ModeAB=           2 MOrb=            10 LenV=   10735936235
 LASXX=     11836819 LTotXX=    11836819 LenRXX=    11836819
 LTotAB=    12069633 MaxLAS=    70831320 LenRXY=    70831320
 NonZer=    72088480 LenScr=   108887040 LnRSAI=           0
 LnScr1=           0 LExtra=     5450737 Total=    197005916
 MaxDsk= 67108864000 SrtSym=           F ITran=            4
 DoSDTr:  NPSUse= 32
 JobTyp=1 Pass  1:  I=   1 to  10.
 (rs|ai) integrals will be sorted in core.
 Complete sort for first half transformation.
 First half transformation complete.
 Begin second half transformation for I=  10.
 Begin second half transformation for I=  10.
 Complete sort for second half transformation.
 Second half transformation complete.
 ModeAB=           2 MOrb=             7 LenV=   10735936235
 LASXX=      8524820 LTotXX=     8524820 LenRXX=    49581924
 LTotAB=     7891421 MaxLAS=    49581924 LenRXY=     7891421
 NonZer=    50461936 LenScr=    76468224 LnRSAI=           0
 LnScr1=           0 LExtra=    88118876 Total=    222060445
 MaxDsk= 67108864000 SrtSym=           F ITran=            4
 DoSDTr:  NPSUse= 32
 JobTyp=2 Pass  1:  I=   1 to   7.
 (rs|ai) integrals will be sorted in core.
 Complete sort for first half transformation.
 First half transformation complete.
 Complete sort for second half transformation.
 Second half transformation complete.
 Spin components of T(2) and E(2):
     alpha-alpha T2 =       0.2687842907D-01 E2=     -0.1574722961D+00
     alpha-beta  T2 =       0.8620700293D-01 E2=     -0.5152497442D+00
     beta-beta   T2 =       0.9491435883D-02 E2=     -0.6432397387D-01
 ANorm=    0.1060641671D+01
 E2 =    -0.7438150087D+00 EUMP2 =    -0.12430807008336D+03
 (S**2,0)=  0.37500D+01           (S**2,1)=  0.37500D+01
 E(PUHF)=      -0.12356425507D+03        E(PMP2)=      -0.12430807008D+03
 Leave Link  804 at Mon Feb 12 21:30:20 2018, MaxMem= 10737418240 cpu:            3265.6 elap:             102.1
 (Enter /home1/apps/gaussian/16rA.03/g16/l913.exe)
 CIDS:  MDV= 10737418240.
 IFCWin=0 IBDFC=1 NFBD=     0     0 NFCmp=     0     0 NFFFC=     0     0
 Using original routines for 1st iteration.
 Using DD4UQ or CC4UQ for 2nd and later iterations.
 Keep R2 and R3 ints in memory in symmetry-blocked form, NReq=338808321.
 FoFCou: FMM=F IPFlag=           8 FMFlag=           0 FMFlg1=           0
         NFxFlg=           0 DoJE=F BraDBF=F KetDBF=F FulRan=T
         wScrn=  0.000000 ICntrl=       600 IOpCl=  0 I1Cent=           0 NGrid=           0
         NMat0=    1 NMatS0=  23220 NMatT0=    0 NMatD0=    1 NMtDS0=    0 NMtDT0=    0
 Petite list used in FoFCou.
 CIDS: In Core Option IDoMem=           1.
 CCSD(T)
 =======
 Iterations= 100 Convergence= 0.100D-06
 Produce multiple copies of IABC intergrals
 Iteration Nr.   1
 **********************
 DD1Dir will call FoFMem   1 times, MxPair=       206
 NAB=    70 NAA=    45 NBB=    21.
 DD1Dir will call FoFMem   1 times, MxPair=       206
 NAB=    70 NAA=    45 NBB=    21.
 MP4(R+Q)= -0.44284634D-01
 Maximum subspace dimension=  5
 A-vector RMS=  3.3245732D-04 Max=  3.0935084D-03 conv= 1.00D-05.
 RLE energy=       -0.7386828981
 E3=        0.49228260D-01        EROMP3=      -0.12425884182D+03
 E4(SDQ)=  -0.37060213D-01        ROMP4(SDQ)=  -0.12429590204D+03
 VARIATIONAL ENERGIES WITH THE FIRST-ORDER WAVEFUNCTION:
 DE(Corr)= -0.73864637     E(Corr)=     -124.30290145    
 NORM(A)=   0.10580380D+01
 Iteration Nr.   2
 **********************
 DD1Dir will call FoFMem   1 times, MxPair=       206
 NAB=    70 NAA=    45 NBB=    21.
 A-vector RMS=  4.3871795D-03 Max=  3.6929140D-02 conv= 1.00D-05.
 RLE energy=       -0.7289326230
 DE(Corr)= -0.68725937     E(CORR)=     -124.25151444     Delta= 5.14D-02
 NORM(A)=   0.10567196D+01
 Iteration Nr.   3
 **********************
 DD1Dir will call FoFMem   1 times, MxPair=       206
 NAB=    70 NAA=    45 NBB=    21.
 A-vector RMS=  3.4293630D-03 Max=  2.9215224D-02 conv= 1.00D-05.
 RLE energy=       -0.7272287793
 DE(Corr)= -0.69385596     E(CORR)=     -124.25811104     Delta=-6.60D-03
 NORM(A)=   0.10602657D+01
 Iteration Nr.   4
 **********************
 DD1Dir will call FoFMem   1 times, MxPair=       206
 NAB=    70 NAA=    45 NBB=    21.
 A-vector RMS=  3.1194305D-03 Max=  2.6351670D-02 conv= 1.00D-05.
 RLE energy=       -0.7009400065
 DE(Corr)= -0.70005332     E(CORR)=     -124.26430840     Delta=-6.20D-03
 NORM(A)=   0.11534006D+01
 Iteration Nr.   5
 **********************
 DD1Dir will call FoFMem   1 times, MxPair=       206
 NAB=    70 NAA=    45 NBB=    21.
 A-vector RMS=  4.8264204D-03 Max=  4.3527691D-02 conv= 1.00D-05.
 RLE energy=       -0.7261109255
 DE(Corr)= -0.75707918     E(CORR)=     -124.32133426     Delta=-5.70D-02
 NORM(A)=   0.10855620D+01
 Iteration Nr.   6
 **********************
 DD1Dir will call FoFMem   1 times, MxPair=       206
 NAB=    70 NAA=    45 NBB=    21.
 A-vector RMS=  1.7123704D-03 Max=  2.0745819D-02 conv= 1.00D-05.
 RLE energy=       -0.7230425356
 DE(Corr)= -0.71431119     E(CORR)=     -124.27856626     Delta= 4.28D-02
 NORM(A)=   0.11218174D+01
 Iteration Nr.   7
 **********************
 DD1Dir will call FoFMem   1 times, MxPair=       206
 NAB=    70 NAA=    45 NBB=    21.
 A-vector RMS=  6.7594501D-04 Max=  1.1224751D-02 conv= 1.00D-05.
 RLE energy=       -0.7240973176
 DE(Corr)= -0.72334715     E(CORR)=     -124.28760223     Delta=-9.04D-03
 NORM(A)=   0.11631109D+01
 Iteration Nr.   8
 **********************
 DD1Dir will call FoFMem   1 times, MxPair=       206
 NAB=    70 NAA=    45 NBB=    21.
 A-vector RMS=  1.0984581D-03 Max=  2.2743053D-02 conv= 1.00D-05.
 RLE energy=       -0.7268272492
 DE(Corr)= -0.72565465     E(CORR)=     -124.28990972     Delta=-2.31D-03
 NORM(A)=   0.12540629D+01
 Iteration Nr.   9
 **********************
 DD1Dir will call FoFMem   1 times, MxPair=       206
 NAB=    70 NAA=    45 NBB=    21.
 A-vector RMS=  1.1182299D-03 Max=  1.7588185D-02 conv= 1.00D-05.
 RLE energy=       -0.7312221297
 DE(Corr)= -0.72551198     E(CORR)=     -124.28976706     Delta= 1.43D-04
 NORM(A)=   0.14977398D+01
 Iteration Nr.  10
 **********************
 DD1Dir will call FoFMem   1 times, MxPair=       206
 NAB=    70 NAA=    45 NBB=    21.
 A-vector RMS=  1.4550981D-03 Max=  2.0864493D-02 conv= 1.00D-05.
 RLE energy=       -0.7274123013
 DE(Corr)= -0.73159374     E(CORR)=     -124.29584882     Delta=-6.08D-03
 NORM(A)=   0.14335315D+01
 Iteration Nr.  11
 **********************
 DD1Dir will call FoFMem   1 times, MxPair=       206
 NAB=    70 NAA=    45 NBB=    21.
 A-vector RMS=  7.6387221D-04 Max=  1.0429203D-02 conv= 1.00D-05.
 RLE energy=       -0.7294410355
 DE(Corr)= -0.72917380     E(CORR)=     -124.29342887     Delta= 2.42D-03
 NORM(A)=   0.14359898D+01
 Iteration Nr.  12
 **********************
 DD1Dir will call FoFMem   1 times, MxPair=       206
 NAB=    70 NAA=    45 NBB=    21.
 A-vector RMS=  6.3218063D-04 Max=  8.0841295D-03 conv= 1.00D-05.
 RLE energy=       -0.7289905248
 DE(Corr)= -0.72858187     E(CORR)=     -124.29283694     Delta= 5.92D-04
 NORM(A)=   0.15202717D+01
 Iteration Nr.  13
 **********************
 DD1Dir will call FoFMem   1 times, MxPair=       206
 NAB=    70 NAA=    45 NBB=    21.
 A-vector RMS=  6.8889902D-04 Max=  1.1900552D-02 conv= 1.00D-05.
 RLE energy=       -0.7296111774
 DE(Corr)= -0.73040021     E(CORR)=     -124.29465528     Delta=-1.82D-03
 NORM(A)=   0.15083843D+01
 Iteration Nr.  14
 **********************
 DD1Dir will call FoFMem   1 times, MxPair=       206
 NAB=    70 NAA=    45 NBB=    21.
 A-vector RMS=  4.9546454D-04 Max=  8.2430741D-03 conv= 1.00D-05.
 RLE energy=       -0.7310043928
 DE(Corr)= -0.72952939     E(CORR)=     -124.29378446     Delta= 8.71D-04
 NORM(A)=   0.15803334D+01
 Iteration Nr.  15
 **********************
 DD1Dir will call FoFMem   1 times, MxPair=       206
 NAB=    70 NAA=    45 NBB=    21.
 A-vector RMS=  4.5765300D-04 Max=  9.4299658D-03 conv= 1.00D-05.
 RLE energy=       -0.7304749734
 DE(Corr)= -0.73058766     E(CORR)=     -124.29484274     Delta=-1.06D-03
 NORM(A)=   0.15999539D+01
 Iteration Nr.  16
 **********************
 DD1Dir will call FoFMem   1 times, MxPair=       206
 NAB=    70 NAA=    45 NBB=    21.
 A-vector RMS=  4.0127527D-04 Max=  4.2105123D-03 conv= 1.00D-05.
 RLE energy=       -0.7308804576
 DE(Corr)= -0.73171198     E(CORR)=     -124.29596706     Delta=-1.12D-03
 NORM(A)=   0.15614878D+01
 Iteration Nr.  17
 **********************
 DD1Dir will call FoFMem   1 times, MxPair=       206
 NAB=    70 NAA=    45 NBB=    21.
 A-vector RMS=  1.9424951D-04 Max=  3.0677108D-03 conv= 1.00D-05.
 RLE energy=       -0.7310038913
 DE(Corr)= -0.73080477     E(CORR)=     -124.29505984     Delta= 9.07D-04
 NORM(A)=   0.15699844D+01
 Iteration Nr.  18
 **********************
 DD1Dir will call FoFMem   1 times, MxPair=       206
 NAB=    70 NAA=    45 NBB=    21.
 A-vector RMS=  1.3098756D-04 Max=  1.8764208D-03 conv= 1.00D-05.
 RLE energy=       -0.7311405384
 DE(Corr)= -0.73111353     E(CORR)=     -124.29536861     Delta=-3.09D-04
 NORM(A)=   0.15692389D+01
 Iteration Nr.  19
 **********************
 DD1Dir will call FoFMem   1 times, MxPair=       206
 NAB=    70 NAA=    45 NBB=    21.
 A-vector RMS=  6.8086785D-05 Max=  8.2752871D-04 conv= 1.00D-05.
 RLE energy=       -0.7313285537
 DE(Corr)= -0.73115309     E(CORR)=     -124.29540817     Delta=-3.96D-05
 NORM(A)=   0.15715331D+01
 Iteration Nr.  20
 **********************
 DD1Dir will call FoFMem   1 times, MxPair=       206
 NAB=    70 NAA=    45 NBB=    21.
 A-vector RMS=  5.9175920D-05 Max=  7.4410607D-04 conv= 1.00D-05.
 RLE energy=       -0.7313010362
 DE(Corr)= -0.73122144     E(CORR)=     -124.29547651     Delta=-6.83D-05
 NORM(A)=   0.15743190D+01
 Iteration Nr.  21
 **********************
 DD1Dir will call FoFMem   1 times, MxPair=       206
 NAB=    70 NAA=    45 NBB=    21.
 A-vector RMS=  2.9981798D-05 Max=  5.1290010D-04 conv= 1.00D-05.
 RLE energy=       -0.7312286512
 DE(Corr)= -0.73124279     E(CORR)=     -124.29549786     Delta=-2.14D-05
 NORM(A)=   0.15756812D+01
 Iteration Nr.  22
 **********************
 DD1Dir will call FoFMem   1 times, MxPair=       206
 NAB=    70 NAA=    45 NBB=    21.
 A-vector RMS=  2.5126482D-05 Max=  3.1803447D-04 conv= 1.00D-05.
 RLE energy=       -0.7312953780
 DE(Corr)= -0.73130056     E(CORR)=     -124.29555564     Delta=-5.78D-05
 NORM(A)=   0.15760469D+01
 Iteration Nr.  23
 **********************
 DD1Dir will call FoFMem   1 times, MxPair=       206
 NAB=    70 NAA=    45 NBB=    21.
 A-vector RMS=  1.8819575D-05 Max=  3.5478185D-04 conv= 1.00D-05.
 RLE energy=       -0.7312648818
 DE(Corr)= -0.73125620     E(CORR)=     -124.29551128     Delta= 4.44D-05
 NORM(A)=   0.15770244D+01
 Iteration Nr.  24
 **********************
 DD1Dir will call FoFMem   1 times, MxPair=       206
 NAB=    70 NAA=    45 NBB=    21.
 A-vector RMS=  8.9592671D-06 Max=  1.7522978D-04 conv= 1.00D-05.
 RLE energy=       -0.7312768180
 DE(Corr)= -0.73128253     E(CORR)=     -124.29553761     Delta=-2.63D-05
 NORM(A)=   0.15771405D+01
 Iteration Nr.  25
 **********************
 DD1Dir will call FoFMem   1 times, MxPair=       206
 NAB=    70 NAA=    45 NBB=    21.
 A-vector RMS=  9.0298806D-06 Max=  1.1173494D-04 conv= 1.00D-05.
 RLE energy=       -0.7312883139
 DE(Corr)= -0.73128331     E(CORR)=     -124.29553839     Delta=-7.80D-07
 NORM(A)=   0.15776210D+01
 Iteration Nr.  26
 **********************
 DD1Dir will call FoFMem   1 times, MxPair=       206
 NAB=    70 NAA=    45 NBB=    21.
 A-vector RMS=  5.8641893D-06 Max=  9.3204717D-05 conv= 1.00D-05.
 RLE energy=       -0.7312942359
 DE(Corr)= -0.73128898     E(CORR)=     -124.29554406     Delta=-5.67D-06
 NORM(A)=   0.15781684D+01
 Iteration Nr.  27
 **********************
 DD1Dir will call FoFMem   1 times, MxPair=       206
 NAB=    70 NAA=    45 NBB=    21.
 A-vector RMS=  5.0115579D-06 Max=  6.6277115D-05 conv= 1.00D-05.
 RLE energy=       -0.7312996189
 DE(Corr)= -0.73130234     E(CORR)=     -124.29555742     Delta=-1.34D-05
 NORM(A)=   0.15782495D+01
 Iteration Nr.  28
 **********************
 DD1Dir will call FoFMem   1 times, MxPair=       206
 NAB=    70 NAA=    45 NBB=    21.
 A-vector RMS=  2.8086850D-06 Max=  5.1904687D-05 conv= 1.00D-05.
 RLE energy=       -0.7313075658
 DE(Corr)= -0.73130782     E(CORR)=     -124.29556290     Delta=-5.48D-06
 NORM(A)=   0.15782155D+01
 Iteration Nr.  29
 **********************
 DD1Dir will call FoFMem   1 times, MxPair=       206
 NAB=    70 NAA=    45 NBB=    21.
 A-vector RMS=  2.4753021D-06 Max=  2.9219601D-05 conv= 1.00D-05.
 RLE energy=       -0.7313057750
 DE(Corr)= -0.73130252     E(CORR)=     -124.29555759     Delta= 5.31D-06
 NORM(A)=   0.15782660D+01
 Iteration Nr.  30
 **********************
 DD1Dir will call FoFMem   1 times, MxPair=       206
 NAB=    70 NAA=    45 NBB=    21.
 A-vector RMS=  9.3416651D-07 Max=  2.1763971D-05 conv= 1.00D-05.
 RLE energy=       -0.7313067613
 DE(Corr)= -0.73130727     E(CORR)=     -124.29556234     Delta=-4.75D-06
 NORM(A)=   0.15782380D+01
 Iteration Nr.  31
 **********************
 DD1Dir will call FoFMem   1 times, MxPair=       206
 NAB=    70 NAA=    45 NBB=    21.
 A-vector RMS=  4.5078842D-07 Max=  8.4111942D-06 conv= 1.00D-05.
 RLE energy=       -0.7313071264
 DE(Corr)= -0.73130691     E(CORR)=     -124.29556199     Delta= 3.55D-07
 NORM(A)=   0.15782419D+01
 Iteration Nr.  32
 **********************
 DD1Dir will call FoFMem   1 times, MxPair=       206
 NAB=    70 NAA=    45 NBB=    21.
 A-vector RMS=  2.7372720D-07 Max=  5.1934337D-06 conv= 1.00D-05.
 RLE energy=       -0.7313067877
 DE(Corr)= -0.73130697     E(CORR)=     -124.29556205     Delta=-5.84D-08
 NORM(A)=   0.15782288D+01
 CI/CC converged in   32 iterations to DelEn=-5.84D-08 Conv= 1.00D-07 ErrA1= 2.74D-07 Conv= 1.00D-05
 Wavefunction amplitudes converged. E(Corr)=     -124.29556205    
 Dominant configurations:
 ***********************
 Spin Case        I    J    A    B          Value
    BB            6         8           -0.622399D+00
    BB            6        12           -0.472764D+00
    BB            6        21            0.309943D+00
    BB            6        37            0.118821D+00
    BB            7         8            0.501989D+00
    BB            7        12            0.378917D+00
    BB            7        21           -0.243504D+00
 Largest amplitude= 6.22D-01
 Time for triples=     9582.99 seconds.
 T4(CCSD)= -0.65278320D-01
 T5(CCSD)=  0.41204984D-01
 CCSD(T)= -0.12431963538D+03
 Discarding MO integrals.
 Leave Link  913 at Mon Feb 12 21:39:58 2018, MaxMem= 10737418240 cpu:           18466.8 elap:             577.8
 (Enter /home1/apps/gaussian/16rA.03/g16/l601.exe)
 Copying SCF densities to generalized density rwf, IOpCl= 0 IROHF=1.

 **********************************************************************

            Population analysis using the SCF density.

 **********************************************************************

 Orbital symmetries:
       Occupied  (SG) (SG) (PI) (PI) (?A) (SG) (SG) (PI) (PI) (?A)
       Virtual   (SG) (PI) (PI) (SG) (SG) (PI) (PI) (SG) (DLTA)
                 (DLTA) (PI) (PI) (SG) (SG) (SG) (PI) (PI) (SG)
                 (PI) (PI) (?A) (?A) (PI) (PI) (SG) (SG) (SG) (SG)
                 (DLTA) (DLTA) (PI) (PI) (SG) (?B) (?B) (?B) (?B)
                 (SG) (DLTA) (DLTA) (PI) (PI) (SG) (PI) (PI) (DLTA)
                 (DLTA) (SG) (PI) (PI) (SG) (SG) (SG) (?B) (?B)
                 (?B) (?B) (DLTA) (DLTA) (SG) (PI) (PI) (SG) (DLTA)
                 (DLTA) (PI) (PI) (SG) (?B) (?B) (?C) (?C) (DLTA)
                 (DLTA) (?B) (?B) (SG) (DLTA) (DLTA) (PI) (PI)
                 (PI) (PI) (SG) (SG) (SG) (?A) (?D) (?D) (?A) (?D)
                 (?D) (?A) (?A) (SG) (?D) (?D) (SG) (?D) (?D) (SG)
                 (?B) (?B) (DLTA) (?E) (?E) (DLTA) (?E) (?B) (?B)
                 (SG) (SG) (DLTA) (DLTA) (PI) (PI) (SG) (PI) (PI)
                 (SG) (DLTA) (?B) (?B) (DLTA) (?B) (?B) (SG) (?B)
                 (?B) (DLTA) (?F) (?F) (DLTA) (?B) (?B) (?F) (SG)
                 (DLTA) (PI) (PI) (DLTA) (SG) (PI) (PI) (SG) (DLTA)
                 (PI) (PI) (DLTA) (SG) (SG) (SG) (PI) (PI) (SG)
                 (SG) (DLTA) (DLTA) (PI) (PI) (SG) (PI) (PI) (SG)
                 (SG) (PI) (PI) (SG) (SG) (DLTA) (DLTA) (PI) (PI)
                 (SG) (PI) (PI) (SG) (SG) (PI) (PI) (SG) (SG) (PI)
                 (PI) (SG) (SG) (PI) (PI) (SG) (SG) (PI) (PI) (SG)
                 (SG) (SG) (PI) (PI) (SG) (SG) (SG) (SG) (SG)
 Unable to determine electronic state:  an orbital has unidentified symmetry.
 Alpha  occ. eigenvalues --   -4.28012  -2.76114  -2.76054  -2.76054  -0.49066
 Alpha  occ. eigenvalues --   -0.49012  -0.49012  -0.44082  -0.42906  -0.30392
 Alpha virt. eigenvalues --   -0.01537   0.02228   0.02228   0.03361   0.03577
 Alpha virt. eigenvalues --    0.08219   0.08219   0.09243   0.09895   0.09937
 Alpha virt. eigenvalues --    0.10287   0.10287   0.11400   0.16445   0.21218
 Alpha virt. eigenvalues --    0.27669   0.27669   0.28006   0.33985   0.33985
 Alpha virt. eigenvalues --    0.36401   0.36869   0.38805   0.38805   0.40167
 Alpha virt. eigenvalues --    0.48215   0.55271   0.71159   0.85529   0.85628
 Alpha virt. eigenvalues --    0.91285   0.91285   0.93750   0.97258   0.97258
 Alpha virt. eigenvalues --    0.97987   0.97987   1.06664   1.09066   1.09341
 Alpha virt. eigenvalues --    1.13071   1.13071   1.17647   1.17830   1.17830
 Alpha virt. eigenvalues --    1.20182   1.21755   1.35598   1.46807   1.46807
 Alpha virt. eigenvalues --    1.82831   2.08722   2.52170   2.93059   2.93059
 Alpha virt. eigenvalues --    2.93118   2.94663   2.94835   2.94835   3.01971
 Alpha virt. eigenvalues --    3.01971   3.02656   3.12332   3.38644   3.41235
 Alpha virt. eigenvalues --    3.41531   3.41531   3.46422   3.51757   3.51757
 Alpha virt. eigenvalues --    3.52847   3.52852   3.52939   3.53929   3.58756
 Alpha virt. eigenvalues --    3.58756   3.73759   4.00693   4.00700   4.11059
 Alpha virt. eigenvalues --    4.11059   4.33038   4.33038   4.47290   5.02216
 Alpha virt. eigenvalues --    5.86111   7.75886   7.78659   7.78659   7.78720
 Alpha virt. eigenvalues --    7.81136   7.81136   7.81386   7.84511   7.84850
 Alpha virt. eigenvalues --    7.87956   7.87956   7.95052   8.13560   8.13560
 Alpha virt. eigenvalues --    8.44593  10.02433  10.02433  10.02766  10.04981
 Alpha virt. eigenvalues --   10.05114  10.05189  10.09488  10.09488  10.10494
 Alpha virt. eigenvalues --   10.41756  13.59210  15.60232  15.62662  15.62662
 Alpha virt. eigenvalues --   15.63678  15.75652  18.94887  18.94887  19.21066
 Alpha virt. eigenvalues --   20.87294  20.90133  20.90138  20.90138  20.95112
 Alpha virt. eigenvalues --   20.95112  20.99507  26.30946  26.30946  26.31220
 Alpha virt. eigenvalues --   26.33878  26.33894  26.33995  26.36595  26.36595
 Alpha virt. eigenvalues --   26.44295  28.35443  28.82041  28.84490  28.84490
 Alpha virt. eigenvalues --   28.85744  28.98532  38.65515  38.65515  39.00798
 Alpha virt. eigenvalues --   52.37258  52.39708  52.39708  52.40658  52.51876
 Alpha virt. eigenvalues --   57.58329  63.84764  74.11357  74.11357  74.53934
 Alpha virt. eigenvalues --  107.65969 114.29524 114.31565 114.31577 114.31577
 Alpha virt. eigenvalues --  114.40324 137.77467 137.77467 138.19278 163.98665
 Alpha virt. eigenvalues --  253.21560 253.21561 253.62166 299.24745 371.34696
 Alpha virt. eigenvalues --  371.35247 371.35922 371.35922 371.41093 482.31248
 Alpha virt. eigenvalues --  482.31248 482.71425 584.14083 974.05382 974.05382
 Alpha virt. eigenvalues --  974.430901198.993212135.564612135.564612135.90340
 Alpha virt. eigenvalues -- 2621.138555225.203845225.203845225.495826113.73245
 Alpha virt. eigenvalues -- **************************************************
 Alpha virt. eigenvalues -- **************************************************
 Alpha virt. eigenvalues -- ********************
     Molecular Orbital Coefficients:
                           3         4         5         6         7
                           O         O         O         O         O
     Eigenvalues --    -2.76054  -2.76054  -0.49066  -0.49012  -0.49012
   1 1   Fe 1S          0.00000   0.00000  -0.00000  -0.00000  -0.00000
   2        2S          0.00000   0.00000   0.00000   0.00000  -0.00000
   3        3S          0.00000   0.00000  -0.00000  -0.00000  -0.00000
   4        4S          0.00000   0.00000   0.00000   0.00000  -0.00000
   5        5S          0.00000   0.00000  -0.00000  -0.00000   0.00000
   6        6S          0.00000   0.00000   0.00000   0.00000  -0.00001
   7        7S          0.00000   0.00000  -0.00000  -0.00000   0.00001
   8        8S          0.00000   0.00000  -0.00000   0.00000  -0.00008
   9        9S          0.00000   0.00000   0.00000  -0.00001   0.00013
  10       10S          0.00000   0.00000  -0.00000   0.00003  -0.00063
  11       11S          0.00000   0.00000   0.00000  -0.00007   0.00165
  12       12S          0.00000   0.00000  -0.00000   0.00023  -0.00649
  13       13S          0.00000   0.00000   0.00000  -0.00059   0.00019
  14       14S          0.00000   0.00000   0.00000   0.00186   0.07348
  15       15S          0.00000   0.00000  -0.00000   0.01274   0.01170
  16       16S          0.00000   0.00000   0.00000  -0.02960  -0.16945
  17       17S          0.00000   0.00000   0.00000  -0.01571  -0.13584
  18       18S          0.00000   0.00000   0.00000  -0.04291   0.13421
  19       19S          0.00000   0.00000  -0.00000   0.02010   0.20796
  20       20S          0.00000   0.00000   0.00000   0.00479   0.09585
  21       21S          0.00000   0.00000   0.00000  -0.00876  -0.03830
  22       22S          0.00000   0.00000  -0.00000   0.04088   0.05579
  23       23S          0.00000   0.00000   0.00000  -0.00444  -0.01913
  24       24PX         0.00000   0.00000   0.00000   0.00000   0.00000
  25       24PY         0.00000   0.00000   0.00000   0.00000   0.00000
  26       24PZ         0.00000   0.00000  -0.00000  -0.00000   0.00000
  27       25PX        -0.00000   0.00000   0.00000   0.00000   0.00000
  28       25PY         0.00000  -0.00000   0.00000   0.00000   0.00000
  29       25PZ         0.00000   0.00000   0.00000   0.00000   0.00000
  30       26PX         0.00003   0.00000   0.00000   0.00000   0.00000
  31       26PY         0.00000   0.00003   0.00000   0.00000   0.00000
  32       26PZ         0.00000   0.00000  -0.00000  -0.00000   0.00000
  33       27PX        -0.00003   0.00000   0.00000   0.00000   0.00000
  34       27PY         0.00000  -0.00003   0.00000   0.00000   0.00000
  35       27PZ         0.00000   0.00000  -0.00000   0.00000   0.00000
  36       28PX         0.00046   0.00000   0.00000   0.00000   0.00000
  37       28PY         0.00000   0.00046   0.00000   0.00000   0.00000
  38       28PZ         0.00000   0.00000   0.00000   0.00000   0.00002
  39       29PX        -0.00065   0.00000   0.00000   0.00000   0.00000
  40       29PY         0.00000  -0.00065   0.00000   0.00000   0.00000
  41       29PZ         0.00000   0.00000  -0.00000   0.00001  -0.00002
  42       30PX         0.00550   0.00000   0.00000   0.00000   0.00000
  43       30PY         0.00000   0.00550   0.00000   0.00000   0.00000
  44       30PZ         0.00000   0.00000   0.00000   0.00001   0.00030
  45       31PX        -0.00395   0.00000   0.00000   0.00000   0.00000
  46       31PY         0.00000  -0.00395   0.00000   0.00000   0.00000
  47       31PZ         0.00000   0.00000  -0.00000   0.00007  -0.00006
  48       32PX        -0.09048   0.00000   0.00000   0.00000   0.00000
  49       32PY         0.00000  -0.09048   0.00000   0.00000   0.00000
  50       32PZ         0.00000   0.00000   0.00000  -0.00105  -0.00730
  51       33PX         0.04746   0.00000   0.00000   0.00000   0.00000
  52       33PY         0.00000   0.04746   0.00000   0.00000   0.00000
  53       33PZ         0.00000   0.00000   0.00000  -0.00523  -0.00657
  54       34PX         0.32148   0.00000   0.00000   0.00000   0.00000
  55       34PY         0.00000   0.32148   0.00000   0.00000   0.00000
  56       34PZ         0.00000   0.00000  -0.00000   0.00398   0.02575
  57       35PX         0.22791   0.00000   0.00000   0.00000   0.00000
  58       35PY         0.00000   0.22791   0.00000   0.00000   0.00000
  59       35PZ         0.00000   0.00000  -0.00000   0.01486   0.00874
  60       36PX         0.29487   0.00000   0.00000   0.00000   0.00000
  61       36PY         0.00000   0.29487   0.00000   0.00000   0.00000
  62       36PZ         0.00000   0.00000  -0.00000   0.00418   0.02999
  63       37PX         0.04657   0.00000   0.00000   0.00000   0.00000
  64       37PY         0.00000   0.04657   0.00000   0.00000   0.00000
  65       37PZ         0.00000   0.00000  -0.00000   0.00724  -0.03547
  66       38PX        -0.00275   0.00000   0.00000   0.00000   0.00000
  67       38PY         0.00000  -0.00275   0.00000   0.00000   0.00000
  68       38PZ         0.00000   0.00000   0.00000  -0.02419  -0.06358
  69       39PX         0.00160   0.00000   0.00000   0.00000   0.00000
  70       39PY         0.00000   0.00160   0.00000   0.00000   0.00000
  71       39PZ         0.00000   0.00000   0.00000  -0.01777  -0.03648
  72       40PX        -0.00970   0.00000   0.00000   0.00000   0.00000
  73       40PY         0.00000  -0.00970   0.00000   0.00000   0.00000
  74       40PZ         0.00000   0.00000  -0.00000   0.00516   0.00931
  75       41PX         0.22521   0.00000   0.00000   0.00000   0.00000
  76       41PY         0.00000   0.22521   0.00000   0.00000   0.00000
  77       41PZ         0.00000   0.00000   0.00000  -0.01309   0.02329
  78       42PX        -0.00048   0.00000   0.00000   0.00000   0.00000
  79       42PY         0.00000  -0.00048   0.00000   0.00000   0.00000
  80       42PZ         0.00000   0.00000  -0.00000   0.00497   0.00868
  81       43D 0        0.00000   0.00000  -0.00000   0.00177  -0.00063
  82       43D+1        0.00001   0.00000   0.00000   0.00000   0.00000
  83       43D-1        0.00000   0.00001   0.00000   0.00000   0.00000
  84       43D+2        0.00000   0.00000   0.00193   0.00000  -0.00000
  85       43D-2        0.00000   0.00000   0.00000   0.00000   0.00000
  86       44D 0        0.00000   0.00000  -0.00000   0.02204  -0.00782
  87       44D+1        0.00017   0.00000   0.00000   0.00000   0.00000
  88       44D-1        0.00000   0.00017   0.00000   0.00000   0.00000
  89       44D+2        0.00000   0.00000   0.02403   0.00000  -0.00000
  90       44D-2        0.00000   0.00000   0.00000   0.00000   0.00000
  91       45D 0        0.00000   0.00000  -0.00000   0.09214  -0.03263
  92       45D+1        0.00065   0.00000   0.00000   0.00000   0.00000
  93       45D-1        0.00000   0.00065   0.00000   0.00000   0.00000
  94       45D+2        0.00000   0.00000   0.10045   0.00000  -0.00000
  95       45D-2        0.00000   0.00000   0.00000   0.00000   0.00000
  96       46D 0        0.00000   0.00000  -0.00000   0.18418  -0.06836
  97       46D+1        0.00222   0.00000   0.00000   0.00000   0.00000
  98       46D-1        0.00000   0.00222   0.00000   0.00000   0.00000
  99       46D+2        0.00000   0.00000   0.20244   0.00000  -0.00000
 100       46D-2        0.00000   0.00000   0.00000   0.00000   0.00000
 101       47D 0        0.00000   0.00000  -0.00000   0.44404  -0.12016
 102       47D+1       -0.00752   0.00000   0.00000   0.00000   0.00000
 103       47D-1        0.00000  -0.00752   0.00000   0.00000   0.00000
 104       47D+2        0.00000   0.00000   0.46089   0.00000  -0.00000
 105       47D-2        0.00000   0.00000   0.00000   0.00000   0.00000
 106       48D 0        0.00000   0.00000  -0.00000   0.32483  -0.11631
 107       48D+1        0.00399   0.00000   0.00000   0.00000   0.00000
 108       48D-1        0.00000   0.00399   0.00000   0.00000   0.00000
 109       48D+2        0.00000   0.00000   0.35264   0.00000  -0.00000
 110       48D-2        0.00000   0.00000   0.00000   0.00000   0.00000
 111       49D 0        0.00000   0.00000  -0.00000   0.25135  -0.07688
 112       49D+1        0.00160   0.00000   0.00000   0.00000   0.00000
 113       49D-1        0.00000   0.00160   0.00000   0.00000   0.00000
 114       49D+2        0.00000   0.00000   0.26380   0.00000  -0.00000
 115       49D-2        0.00000   0.00000   0.00000   0.00000   0.00000
 116       50D 0        0.00000   0.00000  -0.00000   0.10088  -0.03068
 117       50D+1       -0.00007   0.00000   0.00000   0.00000   0.00000
 118       50D-1        0.00000  -0.00007   0.00000   0.00000   0.00000
 119       50D+2        0.00000   0.00000   0.08762   0.00000  -0.00000
 120       50D-2        0.00000   0.00000   0.00000   0.00000   0.00000
 121       51D 0        0.00000   0.00000  -0.00000   0.03219  -0.00755
 122       51D+1       -0.00074   0.00000   0.00000   0.00000   0.00000
 123       51D-1        0.00000  -0.00074   0.00000   0.00000   0.00000
 124       51D+2        0.00000   0.00000   0.03308   0.00000  -0.00000
 125       51D-2        0.00000   0.00000   0.00000   0.00000   0.00000
 126       52D 0        0.00000   0.00000   0.00000  -0.13227   0.00980
 127       52D+1        0.01009   0.00000   0.00000   0.00000   0.00000
 128       52D-1        0.00000   0.01009   0.00000   0.00000   0.00000
 129       52D+2        0.00000   0.00000  -0.12169  -0.00000   0.00000
 130       52D-2        0.00000   0.00000   0.00000   0.00000   0.00000
 131       53D 0        0.00000   0.00000   0.00000   0.00141   0.00261
 132       53D+1        0.00004   0.00000   0.00000   0.00000   0.00000
 133       53D-1        0.00000   0.00004   0.00000   0.00000   0.00000
 134       53D+2        0.00000   0.00000  -0.00208  -0.00000   0.00000
 135       53D-2        0.00000   0.00000   0.00000   0.00000   0.00000
 136       54F 0        0.00000   0.00000  -0.00000   0.00038  -0.00021
 137       54F+1       -0.00086   0.00000   0.00000   0.00000   0.00000
 138       54F-1        0.00000  -0.00086   0.00000   0.00000   0.00000
 139       54F+2        0.00000   0.00000   0.00033   0.00000  -0.00000
 140       54F-2        0.00000   0.00000   0.00000   0.00000   0.00000
 141       54F+3        0.00113   0.00000   0.00000   0.00000   0.00000
 142       54F-3        0.00000  -0.00113   0.00000   0.00000   0.00000
 143       55F 0        0.00000   0.00000  -0.00000   0.00107  -0.00078
 144       55F+1       -0.00172   0.00000   0.00000   0.00000   0.00000
 145       55F-1        0.00000  -0.00172   0.00000   0.00000   0.00000
 146       55F+2        0.00000   0.00000   0.00105   0.00000  -0.00000
 147       55F-2        0.00000   0.00000   0.00000   0.00000   0.00000
 148       55F+3        0.00255   0.00000   0.00000   0.00000   0.00000
 149       55F-3        0.00000  -0.00255   0.00000   0.00000   0.00000
 150       56F 0        0.00000   0.00000  -0.00000   0.00396  -0.00336
 151       56F+1       -0.00243   0.00000   0.00000   0.00000   0.00000
 152       56F-1        0.00000  -0.00243   0.00000   0.00000   0.00000
 153       56F+2        0.00000   0.00000   0.00328   0.00000  -0.00000
 154       56F-2        0.00000   0.00000   0.00000   0.00000   0.00000
 155       56F+3        0.00324   0.00000   0.00000   0.00000   0.00000
 156       56F-3        0.00000  -0.00324   0.00000   0.00000   0.00000
 157       57F 0        0.00000   0.00000  -0.00000   0.00795  -0.01005
 158       57F+1       -0.00093   0.00000   0.00000   0.00000   0.00000
 159       57F-1        0.00000  -0.00093   0.00000   0.00000   0.00000
 160       57F+2        0.00000   0.00000   0.00957   0.00000  -0.00000
 161       57F-2        0.00000   0.00000   0.00000   0.00000   0.00000
 162       57F+3        0.00098   0.00000   0.00000   0.00000   0.00000
 163       57F-3        0.00000  -0.00098   0.00000   0.00000   0.00000
 164       58G 0        0.00000   0.00000   0.00000   0.00001   0.00004
 165       58G+1       -0.00000   0.00000   0.00000   0.00000   0.00000
 166       58G-1        0.00000  -0.00000   0.00000   0.00000   0.00000
 167       58G+2        0.00000   0.00000  -0.00021  -0.00000   0.00000
 168       58G-2        0.00000   0.00000   0.00000   0.00000   0.00000
 169       58G+3        0.00000   0.00000   0.00000   0.00000   0.00000
 170       58G-3        0.00000  -0.00000   0.00000   0.00000   0.00000
 171       58G+4        0.00000   0.00000   0.00000  -0.00011   0.00005
 172       58G-4        0.00000   0.00000   0.00000   0.00000   0.00000
 173       59G 0        0.00000   0.00000  -0.00000   0.00018   0.00000
 174       59G+1        0.00003   0.00000   0.00000   0.00000   0.00000
 175       59G-1        0.00000   0.00003   0.00000   0.00000   0.00000
 176       59G+2        0.00000   0.00000  -0.00016   0.00000  -0.00000
 177       59G-2        0.00000   0.00000   0.00000   0.00000   0.00000
 178       59G+3        0.00001   0.00000   0.00000   0.00000   0.00000
 179       59G-3        0.00000  -0.00001   0.00000   0.00000   0.00000
 180       59G+4        0.00000   0.00000   0.00000  -0.00019   0.00014
 181       59G-4        0.00000   0.00000   0.00000   0.00000   0.00000
 182       60G 0        0.00000   0.00000  -0.00000   0.00090   0.00041
 183       60G+1       -0.00001   0.00000   0.00000   0.00000   0.00000
 184       60G-1        0.00000  -0.00001   0.00000   0.00000   0.00000
 185       60G+2        0.00000   0.00000  -0.00078  -0.00000   0.00000
 186       60G-2        0.00000   0.00000   0.00000   0.00000   0.00000
 187       60G+3        0.00005   0.00000   0.00000   0.00000   0.00000
 188       60G-3        0.00000  -0.00005   0.00000   0.00000   0.00000
 189       60G+4        0.00000   0.00000   0.00000  -0.00054   0.00019
 190       60G-4        0.00000   0.00000   0.00000   0.00000   0.00000
 191 2   H  1S          0.00000   0.00000  -0.00000   0.00127   0.00274
 192        2S          0.00000   0.00000  -0.00000   0.01395   0.02987
 193        3S          0.00000   0.00000  -0.00000   0.05325   0.11503
 194        4S          0.00000   0.00000  -0.00000   0.12613   0.27109
 195        5S          0.00000   0.00000  -0.00000   0.08250   0.34363
 196        6S          0.00000   0.00000  -0.00000   0.01456   0.06570
 197        7PX         0.00000   0.00000   0.00000   0.00000   0.00000
 198        7PY         0.00000   0.00000   0.00000   0.00000   0.00000
 199        7PZ         0.00000   0.00000  -0.00000   0.00171   0.00095
 200        8PX         0.00020   0.00000   0.00000   0.00000   0.00000
 201        8PY         0.00000   0.00020   0.00000   0.00000   0.00000
 202        8PZ         0.00000   0.00000  -0.00000   0.00988   0.01323
 203        9PX         0.00012   0.00000   0.00000   0.00000   0.00000
 204        9PY         0.00000   0.00012   0.00000   0.00000   0.00000
 205        9PZ         0.00000   0.00000   0.00000  -0.00296   0.02151
 206       10D 0        0.00000   0.00000  -0.00000   0.00059   0.00081
 207       10D+1        0.00003   0.00000   0.00000   0.00000   0.00000
 208       10D-1        0.00000   0.00003   0.00000   0.00000   0.00000
 209       10D+2        0.00000   0.00000   0.00029   0.00000  -0.00000
 210       10D-2        0.00000   0.00000   0.00000   0.00000   0.00000
 211       11D 0        0.00000   0.00000   0.00000   0.00043   0.00197
 212       11D+1        0.00008   0.00000   0.00000   0.00000   0.00000
 213       11D-1        0.00000   0.00008   0.00000   0.00000   0.00000
 214       11D+2        0.00000   0.00000  -0.00094  -0.00000   0.00000
 215       11D-2        0.00000   0.00000   0.00000   0.00000   0.00000
                           8         9        10        11        12
                           O         O         O         V         V
     Eigenvalues --    -0.44082  -0.42906  -0.30392  -0.01537   0.02228
   1 1   Fe 1S          0.00000   0.00000   0.00000  -0.00000   0.00000
   2        2S          0.00000   0.00000   0.00000  -0.00000   0.00000
   3        3S          0.00000   0.00000   0.00000   0.00000   0.00000
   4        4S          0.00000   0.00000   0.00000  -0.00000   0.00000
   5        5S          0.00000   0.00000   0.00000   0.00000   0.00000
   6        6S          0.00000   0.00000   0.00000  -0.00001   0.00000
   7        7S          0.00000   0.00000   0.00000   0.00001   0.00000
   8        8S          0.00000   0.00000   0.00000  -0.00006   0.00000
   9        9S          0.00000   0.00000   0.00000   0.00011   0.00000
  10       10S          0.00000   0.00000   0.00000  -0.00048   0.00000
  11       11S          0.00000   0.00000   0.00000   0.00128   0.00000
  12       12S          0.00000   0.00000   0.00000  -0.00488   0.00000
  13       13S          0.00000   0.00000   0.00000   0.00152   0.00000
  14       14S          0.00000   0.00000   0.00000   0.04307   0.00000
  15       15S          0.00000   0.00000   0.00000  -0.02266   0.00000
  16       16S          0.00000   0.00000   0.00000  -0.04531   0.00000
  17       17S          0.00000   0.00000   0.00000  -0.06349   0.00000
  18       18S          0.00000   0.00000   0.00000  -0.02258   0.00000
  19       19S          0.00000   0.00000   0.00000   0.32542   0.00000
  20       20S          0.00000   0.00000   0.00000  -0.08891   0.00000
  21       21S          0.00000   0.00000   0.00000  -0.00226   0.00000
  22       22S          0.00000   0.00000   0.00000  -0.04077   0.00000
  23       23S          0.00000   0.00000   0.00000   0.67232   0.00000
  24       24PX        -0.00000   0.00000   0.00000   0.00000  -0.00000
  25       24PY         0.00000  -0.00000   0.00000   0.00000   0.00000
  26       24PZ         0.00000   0.00000   0.00000  -0.00000   0.00000
  27       25PX         0.00000   0.00000   0.00000   0.00000   0.00000
  28       25PY         0.00000   0.00000   0.00000   0.00000   0.00000
  29       25PZ         0.00000   0.00000   0.00000   0.00000   0.00000
  30       26PX        -0.00000   0.00000   0.00000   0.00000  -0.00000
  31       26PY         0.00000  -0.00000   0.00000   0.00000   0.00000
  32       26PZ         0.00000   0.00000   0.00000  -0.00000   0.00000
  33       27PX         0.00000   0.00000   0.00000   0.00000   0.00001
  34       27PY         0.00000   0.00000   0.00000   0.00000   0.00000
[...]
 214       11D+2        0.00000   0.00000   0.00000   0.00000
 215       11D-2        0.00000   0.00000   0.00000   0.00000   0.00000
     Gross orbital populations:
                         Total     Alpha     Beta      Spin
   1 1   Fe 1S          0.00000   0.00000   0.00000   0.00000
   2        2S          0.00000   0.00000   0.00000   0.00000
   3        3S          0.00000   0.00000   0.00000   0.00000
   4        4S          0.00000   0.00000   0.00000   0.00000
   5        5S         -0.00000  -0.00000  -0.00000  -0.00000
   6        6S          0.00000   0.00000   0.00000  -0.00000
   7        7S         -0.00000  -0.00000  -0.00000  -0.00000
   8        8S          0.00000   0.00000   0.00000   0.00000
   9        9S         -0.00001  -0.00000  -0.00000  -0.00000
  10       10S          0.00008   0.00004   0.00004   0.00000
  11       11S         -0.00045  -0.00023  -0.00023  -0.00000
  12       12S          0.00514   0.00257   0.00257  -0.00000
  13       13S          0.00032   0.00016   0.00016   0.00000
  14       14S         -0.38374  -0.19187  -0.19187   0.00000
  15       15S         -0.00901  -0.00450  -0.00450   0.00000
  16       16S          1.63363   0.81681   0.81681   0.00000
  17       17S          0.76210   0.38105   0.38105   0.00000
  18       18S          0.14344   0.07172   0.07172   0.00000
  19       19S          0.25961   0.12981   0.12981   0.00000
  20       20S          0.12423   0.06211   0.06211   0.00000
  21       21S          0.22560   0.11280   0.11280   0.00000
  22       22S         -0.25299  -0.12649  -0.12649   0.00000
  23       23S         -0.01988  -0.00994  -0.00994  -0.00000
  24       24PX         0.00000   0.00000   0.00000   0.00000
  25       24PY         0.00000   0.00000   0.00000   0.00000
  26       24PZ         0.00000   0.00000   0.00000   0.00000
  27       25PX        -0.00000  -0.00000  -0.00000  -0.00000
  28       25PY        -0.00000  -0.00000  -0.00000  -0.00000
  29       25PZ        -0.00000  -0.00000  -0.00000  -0.00000
  30       26PX         0.00000   0.00000   0.00000   0.00000
  31       26PY         0.00000   0.00000   0.00000   0.00000
  32       26PZ         0.00000   0.00000   0.00000   0.00000
  33       27PX        -0.00000  -0.00000  -0.00000  -0.00000
  34       27PY        -0.00000  -0.00000  -0.00000  -0.00000
  35       27PZ        -0.00000  -0.00000  -0.00000  -0.00000
  36       28PX         0.00001   0.00000   0.00000   0.00000
  37       28PY         0.00001   0.00000   0.00000   0.00000
  38       28PZ         0.00001   0.00000   0.00000   0.00000
  39       29PX        -0.00002  -0.00001  -0.00001  -0.00000
  40       29PY        -0.00002  -0.00001  -0.00001  -0.00000
  41       29PZ        -0.00003  -0.00001  -0.00001  -0.00000
  42       30PX         0.00058   0.00029   0.00029   0.00000
  43       30PY         0.00058   0.00029   0.00029   0.00000
  44       30PZ         0.00059   0.00029   0.00029   0.00000
  45       31PX        -0.00110  -0.00055  -0.00055  -0.00000
  46       31PY        -0.00110  -0.00055  -0.00055  -0.00000
  47       31PZ        -0.00113  -0.00057  -0.00057  -0.00000
  48       32PX        -0.05719  -0.02860  -0.02859  -0.00001
  49       32PY        -0.05719  -0.02860  -0.02859  -0.00001
  50       32PZ        -0.05750  -0.02875  -0.02875  -0.00000
  51       33PX         0.05519   0.02760   0.02759   0.00000
  52       33PY         0.05519   0.02760   0.02759   0.00000
  53       33PZ         0.06001   0.03000   0.03000   0.00000
  54       34PX         0.55206   0.27608   0.27598   0.00010
  55       34PY         0.55206   0.27608   0.27598   0.00010
  56       34PZ         0.55471   0.27736   0.27736   0.00000
  57       35PX         0.45047   0.22526   0.22522   0.00004
  58       35PY         0.45047   0.22526   0.22522   0.00004
  59       35PZ         0.45696   0.22848   0.22848   0.00000
  60       36PX         0.51704   0.25851   0.25852  -0.00001
  61       36PY         0.51704   0.25851   0.25852  -0.00001
  62       36PZ         0.51032   0.25516   0.25516   0.00000
  63       37PX         0.05013   0.02525   0.02488   0.00037
  64       37PY         0.05013   0.02525   0.02488   0.00037
  65       37PZ         0.06253   0.03126   0.03126   0.00000
  66       38PX        -0.00092  -0.00026  -0.00066   0.00040
  67       38PY        -0.00092  -0.00026  -0.00066   0.00040
  68       38PZ         0.06330   0.03165   0.03165   0.00000
  69       39PX         0.00024   0.00011   0.00013  -0.00002
  70       39PY         0.00024   0.00011   0.00013  -0.00002
  71       39PZ         0.03828   0.01914   0.01914   0.00000
  72       40PX        -0.01047  -0.00523  -0.00524   0.00000
  73       40PY        -0.01047  -0.00523  -0.00524   0.00000
  74       40PZ        -0.01429  -0.00715  -0.00715   0.00000
  75       41PX         0.44468   0.22238   0.22231   0.00007
  76       41PY         0.44468   0.22238   0.22231   0.00007
  77       41PZ         0.44609   0.22304   0.22304   0.00000
  78       42PX        -0.00002  -0.00001  -0.00001   0.00000
  79       42PY        -0.00002  -0.00001  -0.00001   0.00000
  80       42PZ        -0.00517  -0.00259  -0.00259   0.00000
  81       43D 0        0.00016   0.00008   0.00008   0.00000
  82       43D+1        0.00009   0.00009   0.00000   0.00009
  83       43D-1        0.00009   0.00009   0.00000   0.00009
  84       43D+2        0.00017   0.00009   0.00009   0.00000
  85       43D-2        0.00009   0.00009   0.00000   0.00009
  86       44D 0        0.00806   0.00403   0.00403   0.00000
  87       44D+1        0.00450   0.00450   0.00000   0.00450
  88       44D-1        0.00450   0.00450   0.00000   0.00450
  89       44D+2        0.00850   0.00425   0.00425   0.00000
  90       44D-2        0.00450   0.00450   0.00000   0.00450
  91       45D 0        0.07814   0.03907   0.03907   0.00000
  92       45D+1        0.04354   0.04354   0.00000   0.04354
  93       45D-1        0.04354   0.04354   0.00000   0.04354
  94       45D+2        0.08242   0.04121   0.04121   0.00000
  95       45D-2        0.04361   0.04361   0.00000   0.04361
  96       46D 0        0.25851   0.12925   0.12925   0.00000
  97       46D+1        0.14541   0.14539   0.00001   0.14538
  98       46D-1        0.14541   0.14539   0.00001   0.14538
  99       46D+2        0.27310   0.13655   0.13655   0.00000
 100       46D-2        0.14555   0.14555   0.00000   0.14555
 101       47D 0        0.77022   0.38511   0.38511   0.00000
 102       47D+1        0.40033   0.40039  -0.00005   0.40044
 103       47D-1        0.40033   0.40039  -0.00005   0.40044
 104       47D+2        0.79052   0.39526   0.39526   0.00000
 105       47D-2        0.40007   0.40007   0.00000   0.40007
 106       48D 0        0.58420   0.29210   0.29210   0.00000
 107       48D+1        0.30851   0.30848   0.00003   0.30845
 108       48D-1        0.30851   0.30848   0.00003   0.30845
 109       48D+2        0.60612   0.30306   0.30306   0.00000
 110       48D-2        0.30866   0.30866   0.00000   0.30866
 111       49D 0        0.34896   0.17448   0.17448   0.00000
 112       49D+1        0.14902   0.14902   0.00001   0.14901
 113       49D-1        0.14902   0.14902   0.00001   0.14901
 114       49D+2        0.34386   0.17193   0.17193   0.00000
 115       49D-2        0.14997   0.14997   0.00000   0.14997
 116       50D 0        0.07641   0.03820   0.03820   0.00000
 117       50D+1        0.01762   0.01762  -0.00000   0.01762
 118       50D-1        0.01762   0.01762  -0.00000   0.01762
 119       50D+2        0.05719   0.02859   0.02859   0.00000
 120       50D-2        0.01702   0.01702   0.00000   0.01702
 121       51D 0        0.04498   0.02249   0.02249   0.00000
 122       51D+1        0.02329   0.02330  -0.00000   0.02330
 123       51D-1        0.02329   0.02330  -0.00000   0.02330
 124       51D+2        0.04638   0.02319   0.02319   0.00000
 125       51D-2        0.02340   0.02340   0.00000   0.02340
 126       52D 0       -0.21447  -0.10724  -0.10724  -0.00000
 127       52D+1       -0.09325  -0.09332   0.00007  -0.09339
 128       52D-1       -0.09325  -0.09332   0.00007  -0.09339
 129       52D+2       -0.20802  -0.10401  -0.10401   0.00000
 130       52D-2       -0.09274  -0.09274  -0.00000  -0.09274
 131       53D 0        0.00148   0.00074   0.00074   0.00000
 132       53D+1       -0.00015  -0.00015   0.00000  -0.00015
 133       53D-1       -0.00015  -0.00015   0.00000  -0.00015
 134       53D+2       -0.00043  -0.00022  -0.00022  -0.00000
 135       53D-2       -0.00025  -0.00025  -0.00000  -0.00025
 136       54F 0        0.00001   0.00001   0.00001   0.00000
 137       54F+1        0.00000   0.00000   0.00000   0.00000
 138       54F-1        0.00000   0.00000   0.00000   0.00000
 139       54F+2        0.00000   0.00000   0.00000   0.00000
 140       54F-2        0.00000   0.00000   0.00000   0.00000
 141       54F+3        0.00001   0.00000   0.00000   0.00000
 142       54F-3        0.00001   0.00000   0.00000   0.00000
 143       55F 0        0.00005   0.00003   0.00003   0.00000
 144       55F+1        0.00002   0.00001   0.00001   0.00001
 145       55F-1        0.00002   0.00001   0.00001   0.00001
 146       55F+2        0.00001   0.00000   0.00000   0.00000
 147       55F-2        0.00000   0.00000   0.00000   0.00000
 148       55F+3        0.00003   0.00001   0.00001   0.00000
 149       55F-3        0.00003   0.00001   0.00001   0.00000
 150       56F 0        0.00026   0.00013   0.00013   0.00000
 151       56F+1        0.00007   0.00006   0.00001   0.00005
 152       56F-1        0.00007   0.00006   0.00001   0.00005
 153       56F+2        0.00006   0.00003   0.00003   0.00000
 154       56F-2        0.00003   0.00003   0.00000   0.00003
 155       56F+3        0.00003   0.00002   0.00002  -0.00000
 156       56F-3        0.00003   0.00002   0.00002  -0.00000
 157       57F 0        0.00233   0.00116   0.00116   0.00000
 158       57F+1        0.00011   0.00011   0.00000   0.00011
 159       57F-1        0.00011   0.00011   0.00000   0.00011
 160       57F+2        0.00022   0.00011   0.00011   0.00000
 161       57F-2        0.00009   0.00009   0.00000   0.00009
 162       57F+3        0.00001   0.00000   0.00000   0.00000
 163       57F-3        0.00001   0.00000   0.00000   0.00000
 164       58G 0        0.00000   0.00000   0.00000   0.00000
 165       58G+1        0.00000   0.00000  -0.00000   0.00000
 166       58G-1        0.00000   0.00000  -0.00000   0.00000
 167       58G+2        0.00000   0.00000   0.00000   0.00000
 168       58G-2        0.00000   0.00000   0.00000   0.00000
 169       58G+3        0.00000   0.00000   0.00000   0.00000
 170       58G-3        0.00000   0.00000   0.00000   0.00000
 171       58G+4        0.00000   0.00000   0.00000   0.00000
 172       58G-4        0.00000   0.00000   0.00000   0.00000
 173       59G 0        0.00000   0.00000   0.00000   0.00000
 174       59G+1        0.00000   0.00000   0.00000   0.00000
 175       59G-1        0.00000   0.00000   0.00000   0.00000
 176       59G+2        0.00000   0.00000   0.00000   0.00000
 177       59G-2        0.00000   0.00000   0.00000   0.00000
 178       59G+3        0.00000   0.00000   0.00000   0.00000
 179       59G-3        0.00000   0.00000   0.00000   0.00000
 180       59G+4        0.00000   0.00000   0.00000   0.00000
 181       59G-4        0.00000   0.00000   0.00000   0.00000
 182       60G 0        0.00003   0.00002   0.00002   0.00000
 183       60G+1        0.00000   0.00000   0.00000   0.00000
 184       60G-1        0.00000   0.00000   0.00000   0.00000
 185       60G+2        0.00000   0.00000   0.00000   0.00000
 186       60G-2        0.00000   0.00000   0.00000   0.00000
 187       60G+3        0.00000   0.00000   0.00000   0.00000
 188       60G-3        0.00000   0.00000   0.00000   0.00000
 189       60G+4        0.00000   0.00000   0.00000   0.00000
 190       60G-4        0.00000   0.00000   0.00000   0.00000
 191 2   H  1S          0.00056   0.00028   0.00028   0.00000
 192        2S          0.01960   0.00980   0.00980   0.00000
 193        3S          0.15089   0.07544   0.07544   0.00000
 194        4S          0.51427   0.25713   0.25713   0.00000
 195        5S          0.64556   0.32278   0.32278   0.00000
 196        6S          0.09279   0.04639   0.04639   0.00000
 197        7PX         0.00001   0.00001   0.00000   0.00001
 198        7PY         0.00001   0.00001   0.00000   0.00001
 199        7PZ         0.00021   0.00010   0.00010   0.00000
 200        8PX         0.00022   0.00022   0.00000   0.00022
 201        8PY         0.00022   0.00022   0.00000   0.00022
 202        8PZ         0.00482   0.00241   0.00241   0.00000
 203        9PX        -0.00023  -0.00023   0.00001  -0.00024
 204        9PY        -0.00023  -0.00023   0.00001  -0.00024
 205        9PZ         0.00906   0.00453   0.00453   0.00000
 206       10D 0        0.00006   0.00003   0.00003   0.00000
 207       10D+1        0.00001   0.00001   0.00000   0.00001
 208       10D-1        0.00001   0.00001   0.00000   0.00001
 209       10D+2        0.00000   0.00000   0.00000   0.00000
 210       10D-2        0.00000   0.00000   0.00000   0.00000
 211       11D 0        0.00016   0.00008   0.00008   0.00000
 212       11D+1        0.00011   0.00010   0.00001   0.00010
 213       11D-1        0.00011   0.00010   0.00001   0.00010
 214       11D+2       -0.00011  -0.00005  -0.00005  -0.00000
 215       11D-2       -0.00002  -0.00002  -0.00000  -0.00002
          Condensed to atoms (all electrons):
               1          2
     1  Fe  15.244547   0.317371
     2  H    0.317371   1.120710
          Atomic-Atomic Spin Densities.
               1          2
     1  Fe   2.999673   0.000153
     2  H    0.000153   0.000020
 Mulliken charges and spin densities:
               1          2
     1  Fe   0.438082   2.999827
     2  H   -0.438082   0.000173
 Sum of Mulliken charges =  -0.00000   3.00000
 Mulliken charges and spin densities with hydrogens summed into heavy atoms:
               1          2
     1  Fe  -0.000000   3.000000
 Electronic spatial extent (au):  <R**2>=             53.6446
 Charge=              0.0000 electrons
 Dipole moment (field-independent basis, Debye):
    X=              0.0000    Y=              0.0000    Z=              5.8069  Tot=              5.8069
 Quadrupole moment (field-independent basis, Debye-Ang):
   XX=            -15.1392   YY=            -15.1392   ZZ=            -21.7684
   XY=              0.0000   XZ=              0.0000   YZ=              0.0000
 Traceless Quadrupole moment (field-independent basis, Debye-Ang):
   XX=              2.2097   YY=              2.2097   ZZ=             -4.4194
   XY=              0.0000   XZ=              0.0000   YZ=              0.0000
 Octapole moment (field-independent basis, Debye-Ang**2):
  XXX=              0.0000  YYY=              0.0000  ZZZ=             31.0045  XYY=              0.0000
  XXY=              0.0000  XXZ=              6.6232  XZZ=              0.0000  YZZ=              0.0000
  YYZ=              6.6232  XYZ=              0.0000
 Hexadecapole moment (field-independent basis, Debye-Ang**3):
 XXXX=            -23.0192 YYYY=            -23.0192 ZZZZ=           -107.2282 XXXY=              0.0000
 XXXZ=              0.0000 YYYX=              0.0000 YYYZ=              0.0000 ZZZX=              0.0000
 ZZZY=              0.0000 XXYY=             -7.3199 XXZZ=            -18.7600 YYZZ=            -18.7600
 XXYZ=              0.0000 YYXZ=              0.0000 ZZXY=              0.0000
 N-N= 4.031826368914D+00 E-N=-3.020884168105D+02  KE= 7.445094136951D+01
 Symmetry A1   KE= 3.853471555579D+01
 Symmetry A2   KE= 6.897204532656D+00
 Symmetry B1   KE= 1.450951072120D+01
 Symmetry B2   KE= 1.450951055941D+01
 Symmetry A1   SP= 1.018449251262D-15
 Symmetry A2   SP= 1.000000000000D+00
 Symmetry B1   SP= 1.000000000000D+00
 Symmetry B2   SP= 1.000000000000D+00
 Orbital energies and kinetic energies (alpha):
                                 1                 2
   3         O                -2.760536          3.810017
   4         O                -2.760536          3.810017
   5         O                -0.490657          6.556091
   6         O                -0.490125          5.602433
   7         O                -0.490125          0.999333
   8         O                -0.440818          6.889478
   9         O                -0.429064          6.889477
  10         O                -0.303918          6.897205
  11         V                -0.015366          0.177200
  12         V                 0.022276          0.045642
  13         V                 0.022276          0.045641
  14         V                 0.033608          0.144400
  15         V                 0.035765          0.071615
 Total kinetic energy from orbitals= 9.512710084836D+01
                          Isotropic Fermi Contact Couplings
        Atom                 a.u.       MegaHertz       Gauss      10(-4) cm-1
     1  Fe(57)             0.00000       0.00000       0.00000       0.00000
     2  H(1)               0.00000       0.00000       0.00000       0.00000
 --------------------------------------------------------
       Center         ----  Spin Dipole Couplings  ----
                      3XX-RR        3YY-RR        3ZZ-RR
 --------------------------------------------------------
     1   Atom        0.002867      0.002867     -0.005734
     2   Atom       -0.045226     -0.045226      0.090453
 --------------------------------------------------------
                        XY            XZ            YZ
 --------------------------------------------------------
     1   Atom        0.000000      0.000000      0.000000
     2   Atom        0.000000      0.000000      0.000000
 --------------------------------------------------------


 ---------------------------------------------------------------------------------
              Anisotropic Spin Dipole Couplings in Principal Axis System
 ---------------------------------------------------------------------------------

       Atom             a.u.   MegaHertz   Gauss  10(-4) cm-1        Axes

              Baa    -0.0057    -0.099    -0.035    -0.033  0.0000  0.0000  1.0000
     1 Fe(57) Bbb     0.0029     0.050     0.018     0.017 -0.0000  1.0000  0.0000
              Bcc     0.0029     0.050     0.018     0.017  1.0000  0.0000  0.0000
 
              Baa    -0.0452   -24.131    -8.610    -8.049  1.0000  0.0000  0.0000
     2 H(1)   Bbb    -0.0452   -24.131    -8.610    -8.049 -0.0000  1.0000  0.0000
              Bcc     0.0905    48.261    17.221    16.098  0.0000  0.0000  1.0000
 

 ---------------------------------------------------------------------------------

 No NMR shielding tensors so no spin-rotation constants.
 Leave Link  601 at Mon Feb 12 21:40:01 2018, MaxMem= 10737418240 cpu:              85.5 elap:               2.8
 (Enter /home1/apps/gaussian/16rA.03/g16/l9999.exe)

 Test job not archived.
 1\1\GINC-C449-061\SP\ROCCSD(T)-Full\Gen\Fe1H1(4)\GWANG18\12-Feb-2018\2
 \\#P ROCCSD(T)=(maxcyc=100, Full)/Gen SCF=(maxcycle=400, symm) Pseudo=
 Read Integral(NoXCTest) Pop=Regular MaxDisk=500GB Guess=Permute IOp(5/
 15=2)\\FeH\\0,4\Fe,0,0.,0.,0.\H,0,0.,0.,2.1\\1,2,3,4,5,10,9,8,6,7\\Ver
 sion=ES64L-G16RevA.03\HF=-123.5642551\MP2=-124.3080701\MP3=-124.258841
 8\PUHF=-123.5642551\PMP2-0=-124.3080701\MP4SDQ=-124.295902\CCSD=-124.2
 95562\CCSD(T)=-124.3196354\RMSD=4.961e-09\PG=C*V [C*(H1Fe1)]\\@


 TWO ROADS DIVERGED IN A WOOD, AND I--
 I TOOK THE ONE LESS TRAVELED BY,
 AND THAT HAS MADE ALL THE DIFFERENCE.

                       -- ROBERT FROST
 Job cpu time:       0 days  6 hours 13 minutes 17.9 seconds.
 Elapsed time:       0 days  0 hours 11 minutes 43.1 seconds.
 File lengths (MBytes):  RWF=   2686 Int=      0 D2E=      0 Chk=      6 Scr=      1
 Normal termination of Gaussian 16 at Mon Feb 12 21:40:03 2018.
