 Entering Gaussian System, Link 0=g16
 Initial command:
 /home1/apps/gaussian/16rA.03/g16/l1.exe "/tmp/Gau-125886.inp" -scrdir="/tmp/"
 Entering Link 1 = /home1/apps/gaussian/16rA.03/g16/l1.exe PID=    125887.
  
 Copyright (c) 1988,1990,1992,1993,1995,1998,2003,2009,2016,
            Gaussian, Inc.  All Rights Reserved.
  
 This is part of the Gaussian(R) 16 program.  It is based on
 the Gaussian(R) 09 system (copyright 2009, Gaussian, Inc.),
 the Gaussian(R) 03 system (copyright 2003, Gaussian, Inc.),
 the Gaussian(R) 98 system (copyright 1998, Gaussian, Inc.),
 the Gaussian(R) 94 system (copyright 1995, Gaussian, Inc.),
 the Gaussian 92(TM) system (copyright 1992, Gaussian, Inc.),
 the Gaussian 90(TM) system (copyright 1990, Gaussian, Inc.),
 the Gaussian 88(TM) system (copyright 1988, Gaussian, Inc.),
 the Gaussian 86(TM) system (copyright 1986, Carnegie Mellon
 University), and the Gaussian 82(TM) system (copyright 1983,
 Carnegie Mellon University). Gaussian is a federally registered
 trademark of Gaussian, Inc.
  
 This software contains proprietary and confidential information,
 including trade secrets, belonging to Gaussian, Inc.
  
 This software is provided under written license and may be
 used, copied, transmitted, or stored only in accord with that
 written license.
  
 The following legend is applicable only to US Government
 contracts under FAR:
  
                    RESTRICTED RIGHTS LEGEND
  
 Use, reproduction and disclosure by the US Government is
 subject to restrictions as set forth in subparagraphs (a)
 and (c) of the Commercial Computer Software - Restricted
 Rights clause in FAR 52.227-19.
  
 Gaussian, Inc.
 340 Quinnipiac St., Bldg. 40, Wallingford CT 06492
  
  
 ---------------------------------------------------------------
 Warning -- This program may not be used in any manner that
 competes with the business of Gaussian, Inc. or will provide
 assistance to any competitor of Gaussian, Inc.  The licensee
 of this program is prohibited from giving any competitor of
 Gaussian, Inc. access to this program.  By using this program,
 the user acknowledges that Gaussian, Inc. is engaged in the
 business of creating and licensing software in the field of
 computational chemistry and represents and warrants to the
 licensee that it is not a competitor of Gaussian, Inc. and that
 it will not use this program in any manner prohibited above.
 ---------------------------------------------------------------
  

 Cite this work as:
 Gaussian 16, Revision A.03,
 M. J. Frisch, G. W. Trucks, H. B. Schlegel, G. E. Scuseria, 
 M. A. Robb, J. R. Cheeseman, G. Scalmani, V. Barone, 
 G. A. Petersson, H. Nakatsuji, X. Li, M. Caricato, A. V. Marenich, 
 J. Bloino, B. G. Janesko, R. Gomperts, B. Mennucci, H. P. Hratchian, 
 J. V. Ortiz, A. F. Izmaylov, J. L. Sonnenberg, D. Williams-Young, 
 F. Ding, F. Lipparini, F. Egidi, J. Goings, B. Peng, A. Petrone, 
 T. Henderson, D. Ranasinghe, V. G. Zakrzewski, J. Gao, N. Rega, 
 G. Zheng, W. Liang, M. Hada, M. Ehara, K. Toyota, R. Fukuda, 
 J. Hasegawa, M. Ishida, T. Nakajima, Y. Honda, O. Kitao, H. Nakai, 
 T. Vreven, K. Throssell, J. A. Montgomery, Jr., J. E. Peralta, 
 F. Ogliaro, M. J. Bearpark, J. J. Heyd, E. N. Brothers, K. N. Kudin, 
 V. N. Staroverov, T. A. Keith, R. Kobayashi, J. Normand, 
 K. Raghavachari, A. P. Rendell, J. C. Burant, S. S. Iyengar, 
 J. Tomasi, M. Cossi, J. M. Millam, M. Klene, C. Adamo, R. Cammi, 
 J. W. Ochterski, R. L. Martin, K. Morokuma, O. Farkas, 
 J. B. Foresman, and D. J. Fox, Gaussian, Inc., Wallingford CT, 2016.
 
 ******************************************
 Gaussian 16:  ES64L-G16RevA.03 25-Dec-2016
                26-Feb-2018 
 ******************************************
 %MEM=64GB
 %CPU=0-15
 SetSPE:  set environment variable "MP_BIND" = "yes"
 SetSPE:  set environment variable "MP_BLIST" = "0,1,2,3,4,5,6,7,8,9,10,11,12,13,14,15"
 Will use up to   16 processors via shared memory.
 %RWF=/scratch/04843/aannabe/gaussian/
 %Int=/scratch/04843/aannabe/gaussian/
 %D2E=/scratch/04843/aannabe/gaussian/
 %NoSave
 %CHK=CrH
 ----------------------------------------------------------------------
 #P ROCCSD(T)=(maxcyc=150, Full, SaveAmplitudes, ReadAmplitudes)/Gen 5d
  7f SCF=(maxcycles=300) Integral(NoXCTest) MaxDisk=500GB Pop=Regular P
 seudo=Read Guess=Read IOp(5/15=2)
 ----------------------------------------------------------------------
 1/38=1,172=1/1;
 2/12=2,17=6,18=5,40=1/2;
 3/5=7,8=11,11=2,16=1,17=8,25=1,30=1,47=8,116=101/1,2,3;
 4/5=1/1;
 5/5=2,7=300,15=2,38=6/2;
 8/5=-1,6=4,9=120000,10=90,24=1/1,4;
 9/5=7,6=150,14=2,77=1/13;
 6//1;
 99/5=1,9=1/99;
 Leave Link    1 at Mon Feb 26 02:51:26 2018, MaxMem=  8589934592 cpu:               4.5 elap:               0.3
 (Enter /home1/apps/gaussian/16rA.03/g16/l101.exe)
 ---
 CrH
 ---
 Symbolic Z-matrix:
 Charge =  0 Multiplicity = 6
 Cr                    0.        0.        0. 
 H                     0.        0.        1.4 
 
 ITRead=  0  0
 MicOpt= -1 -1
 NAtoms=      2 NQM=        2 NQMF=       0 NMMI=      0 NMMIF=      0
                NMic=       0 NMicF=      0.
                    Isotopes and Nuclear Properties:
 (Nuclear quadrupole moments (NQMom) in fm**2, nuclear magnetic moments (NMagM)
  in nuclear magnetons)

  Atom         1           2
 IAtWgt=          52           1
 AtmWgt=  51.9405097   1.0078250
 NucSpn=           0           1
 AtZEff=  -0.0000000  -0.0000000
 NQMom=    0.0000000   0.0000000
 NMagM=    0.0000000   2.7928460
 AtZNuc=  24.0000000   1.0000000
 Leave Link  101 at Mon Feb 26 02:51:26 2018, MaxMem=  8589934592 cpu:               1.5 elap:               0.1
 (Enter /home1/apps/gaussian/16rA.03/g16/l202.exe)
                          Input orientation:                          
 ---------------------------------------------------------------------
 Center     Atomic      Atomic             Coordinates (Angstroms)
 Number     Number       Type             X           Y           Z
 ---------------------------------------------------------------------
      1         24           0        0.000000    0.000000    0.000000
      2          1           0        0.000000    0.000000    1.400000
 ---------------------------------------------------------------------
 Stoichiometry    CrH(6)
 Framework group  C*V[C*(HCr)]
 Deg. of freedom     1
 Full point group                 C*V     NOp   4
 Largest Abelian subgroup         C2V     NOp   4
 Largest concise Abelian subgroup C1      NOp   1
                         Standard orientation:                         
 ---------------------------------------------------------------------
 Center     Atomic      Atomic             Coordinates (Angstroms)
 Number     Number       Type             X           Y           Z
 ---------------------------------------------------------------------
      1         24           0        0.000000    0.000000    0.056000
      2          1           0        0.000000    0.000000   -1.344000
 ---------------------------------------------------------------------
 Rotational constants (GHZ):           0.0000000         260.8087056         260.8087056
 Leave Link  202 at Mon Feb 26 02:51:27 2018, MaxMem=  8589934592 cpu:               0.4 elap:               0.1
 (Enter /home1/apps/gaussian/16rA.03/g16/l301.exe)
 General basis read from cards:  (5D, 7F)
 Centers:       1
 S 1 1.00
     Exponent=  6.1771940000D+06 Coefficients=  1.0000000000D+00
 S 1 1.00
     Exponent=  9.2492950000D+05 Coefficients=  1.0000000000D+00
 S 1 1.00
     Exponent=  2.1048650000D+05 Coefficients=  1.0000000000D+00
 S 1 1.00
     Exponent=  5.9620050000D+04 Coefficients=  1.0000000000D+00
 S 1 1.00
     Exponent=  1.9450760000D+04 Coefficients=  1.0000000000D+00
 S 1 1.00
     Exponent=  7.0220560000D+03 Coefficients=  1.0000000000D+00
 S 1 1.00
     Exponent=  2.7387630000D+03 Coefficients=  1.0000000000D+00
 S 1 1.00
     Exponent=  1.1358140000D+03 Coefficients=  1.0000000000D+00
 S 1 1.00
     Exponent=  4.9509230000D+02 Coefficients=  1.0000000000D+00
 S 1 1.00
     Exponent=  2.2474870000D+02 Coefficients=  1.0000000000D+00
 S 1 1.00
     Exponent=  1.0538360000D+02 Coefficients=  1.0000000000D+00
 S 1 1.00
     Exponent=  5.0193590000D+01 Coefficients=  1.0000000000D+00
 S 1 1.00
     Exponent=  2.2249570000D+01 Coefficients=  1.0000000000D+00
 S 1 1.00
     Exponent=  1.0982650000D+01 Coefficients=  1.0000000000D+00
 S 1 1.00
     Exponent=  5.3836650000D+00 Coefficients=  1.0000000000D+00
 S 1 1.00
     Exponent=  2.3436850000D+00 Coefficients=  1.0000000000D+00
 S 1 1.00
     Exponent=  1.1052020000D+00 Coefficients=  1.0000000000D+00
 S 1 1.00
     Exponent=  4.8784800000D-01 Coefficients=  1.0000000000D+00
 S 1 1.00
     Exponent=  8.9599000000D-02 Coefficients=  1.0000000000D+00
 S 1 1.00
     Exponent=  3.3423000000D-02 Coefficients=  1.0000000000D+00
 S 1 1.00
     Exponent=  4.8281000000D+00 Coefficients=  1.0000000000D+00
 S 1 1.00
     Exponent=  1.1499000000D+00 Coefficients=  1.0000000000D+00
 S 1 1.00
     Exponent=  1.2470000000D-02 Coefficients=  1.0000000000D+00
 P 1 1.00
     Exponent=  1.4454200000D+04 Coefficients=  1.0000000000D+00
 P 1 1.00
     Exponent=  3.4216760000D+03 Coefficients=  1.0000000000D+00
 P 1 1.00
     Exponent=  1.1113870000D+03 Coefficients=  1.0000000000D+00
 P 1 1.00
     Exponent=  4.2519180000D+02 Coefficients=  1.0000000000D+00
 P 1 1.00
     Exponent=  1.8026230000D+02 Coefficients=  1.0000000000D+00
 P 1 1.00
     Exponent=  8.2061170000D+01 Coefficients=  1.0000000000D+00
 P 1 1.00
     Exponent=  3.9297260000D+01 Coefficients=  1.0000000000D+00
 P 1 1.00
     Exponent=  1.9419590000D+01 Coefficients=  1.0000000000D+00
 P 1 1.00
     Exponent=  9.8288990000D+00 Coefficients=  1.0000000000D+00
 P 1 1.00
     Exponent=  5.0168100000D+00 Coefficients=  1.0000000000D+00
 P 1 1.00
     Exponent=  2.4870910000D+00 Coefficients=  1.0000000000D+00
 P 1 1.00
     Exponent=  1.1987800000D+00 Coefficients=  1.0000000000D+00
 P 1 1.00
     Exponent=  5.5869500000D-01 Coefficients=  1.0000000000D+00
 P 1 1.00
     Exponent=  2.0936600000D-01 Coefficients=  1.0000000000D+00
 P 1 1.00
     Exponent=  8.4722000000D-02 Coefficients=  1.0000000000D+00
 P 1 1.00
     Exponent=  3.3278000000D-02 Coefficients=  1.0000000000D+00
 P 1 1.00
     Exponent=  5.2718000000D+00 Coefficients=  1.0000000000D+00
 P 1 1.00
     Exponent=  1.2083000000D+00 Coefficients=  1.0000000000D+00
 P 1 1.00
     Exponent=  1.3070000000D-02 Coefficients=  1.0000000000D+00
 D 1 1.00
     Exponent=  8.9474500000D+01 Coefficients=  1.0000000000D+00
 D 1 1.00
     Exponent=  2.6336800000D+01 Coefficients=  1.0000000000D+00
 D 1 1.00
     Exponent=  9.5342900000D+00 Coefficients=  1.0000000000D+00
 D 1 1.00
     Exponent=  3.8211800000D+00 Coefficients=  1.0000000000D+00
 D 1 1.00
     Exponent=  1.5716900000D+00 Coefficients=  1.0000000000D+00
 D 1 1.00
     Exponent=  6.2642200000D-01 Coefficients=  1.0000000000D+00
 D 1 1.00
     Exponent=  2.3305500000D-01 Coefficients=  1.0000000000D+00
 D 1 1.00
     Exponent=  7.6303000000D-02 Coefficients=  1.0000000000D+00
 D 1 1.00
     Exponent=  3.4093000000D+00 Coefficients=  1.0000000000D+00
 D 1 1.00
     Exponent=  1.5874000000D+00 Coefficients=  1.0000000000D+00
 D 1 1.00
     Exponent=  2.4980000000D-02 Coefficients=  1.0000000000D+00
 F 1 1.00
     Exponent=  4.3629000000D+00 Coefficients=  1.0000000000D+00
 F 1 1.00
     Exponent=  1.5864000000D+00 Coefficients=  1.0000000000D+00
 F 1 1.00
     Exponent=  5.2310000000D-01 Coefficients=  1.0000000000D+00
 F 1 1.00
     Exponent=  1.7249000000D-01 Coefficients=  1.0000000000D+00
 G 1 1.00
     Exponent=  4.0406000000D+00 Coefficients=  1.0000000000D+00
 G 1 1.00
     Exponent=  1.4199000000D+00 Coefficients=  1.0000000000D+00
 G 1 1.00
     Exponent=  4.9896000000D-01 Coefficients=  1.0000000000D+00
 ****
 Centers:       2
 S 1 1.00
     Exponent=  3.3870000000D+01 Coefficients=  1.0000000000D+00
 S 1 1.00
     Exponent=  5.0950000000D+00 Coefficients=  1.0000000000D+00
 S 1 1.00
     Exponent=  1.1590000000D+00 Coefficients=  1.0000000000D+00
 S 1 1.00
     Exponent=  3.2580000000D-01 Coefficients=  1.0000000000D+00
 S 1 1.00
     Exponent=  1.0270000000D-01 Coefficients=  1.0000000000D+00
 S 1 1.00
     Exponent=  2.5260000000D-02 Coefficients=  1.0000000000D+00
 P 1 1.00
     Exponent=  1.4070000000D+00 Coefficients=  1.0000000000D+00
 P 1 1.00
     Exponent=  3.8800000000D-01 Coefficients=  1.0000000000D+00
 P 1 1.00
     Exponent=  1.0200000000D-01 Coefficients=  1.0000000000D+00
 D 1 1.00
     Exponent=  1.0570000000D+00 Coefficients=  1.0000000000D+00
 D 1 1.00
     Exponent=  2.4700000000D-01 Coefficients=  1.0000000000D+00
 ****
 ======================================================================================================
                                       Pseudopotential Parameters
 ======================================================================================================
  Center     Atomic      Valence      Angular      Power
  Number     Number     Electrons     Momentum     of R      Exponent        Coefficient   SO-Coeffient
 ======================================================================================================
    1         24           14
                                      D and up 
                                                     1       13.0767520       14.00000000    0.00000000
                                                     2       15.1580758     1258.15550380    0.00000000
                                                     2        4.6278569      -98.60998187    0.00000000
                                                     2       15.4113660    -6552.46055066    0.00000000
                                                     2       15.3869064     5353.09061557    0.00000000
                                                     3        5.2489731      183.07452839    0.00000000
                                      S - D
                                                     2        9.7768084    **************    0.00000000
                                                     2        9.9598011    96320.14803227    0.00000000
                                                     2        8.6227521     3928.31359170    0.00000000
                                                     2       12.2928814    **************    0.00000000
                                                     2       18.4131659    -1741.60409682    0.00000000
                                                     2       16.3854196     4413.26493033    0.00000000
                                      P - D
                                                     2       12.0010000    **************    0.00000000
                                                     2       11.4652444    21551.07876111    0.00000000
                                                     2       16.2385223     3703.78784703    0.00000000
                                                     2       18.4386111    -1424.18632323    0.00000000
                                                     2        8.8887794    -1964.93568469    0.00000000
                                                     2        7.5264478      317.50498882    0.00000000
    2          1
                                   No pseudopotential on this center.
 ======================================================================================================
 Ernie: Thresh=  0.10000D-02 Tol=  0.10000D-05 Strict=F.
 There are   120 symmetry adapted cartesian basis functions of A1  symmetry.
 There are    26 symmetry adapted cartesian basis functions of A2  symmetry.
 There are    56 symmetry adapted cartesian basis functions of B1  symmetry.
 There are    56 symmetry adapted cartesian basis functions of B2  symmetry.
 There are    94 symmetry adapted basis functions of A1  symmetry.
 There are    23 symmetry adapted basis functions of A2  symmetry.
 There are    49 symmetry adapted basis functions of B1  symmetry.
 There are    49 symmetry adapted basis functions of B2  symmetry.
   215 basis functions,   258 primitive gaussians,   258 cartesian basis functions
    10 alpha electrons        5 beta electrons
       nuclear repulsion energy         5.2917721092 Hartrees.
 IExCor=    0 DFT=F Ex=HF Corr=None ExCW=0 ScaHFX=  1.000000
 ScaDFX=  1.000000  1.000000  1.000000  1.000000 ScalE2=  1.000000  1.000000
 IRadAn=      5 IRanWt=     -1 IRanGd=            0 ICorTp=0 IEmpDi=  4
 NAtoms=    2 NActive=    2 NUniq=    2 SFac= 1.00D+00 NAtFMM=   60 NAOKFM=F Big=F
 Integral buffers will be    131072 words long.
 Raffenetti 2 integral format.
 Two-electron integral symmetry is turned on.
 Leave Link  301 at Mon Feb 26 02:51:27 2018, MaxMem=  8589934592 cpu:               3.6 elap:               0.3
 (Enter /home1/apps/gaussian/16rA.03/g16/l302.exe)
 NPDir=0 NMtPBC=     1 NCelOv=     1 NCel=       1 NClECP=     1 NCelD=      1
         NCelK=      1 NCelE2=     1 NClLst=     1 CellRange=     0.0.
 One-electron integrals computed using PRISM.
 One-electron integral symmetry used in STVInt
   4 Symmetry operations used in ECPInt.
 ECPInt:  NShTT=    2556 NPrTT=    2556 LenC2=    2534 LenP2D=    2533.
 LDataN:  DoStor=T MaxTD1= 8 Len=  415
 NBasis=   215 RedAO= T EigKep=  1.80D-06  NBF=    94    23    49    49
 NBsUse=   206 1.00D-06 EigRej=  4.93D-07 NBFU=    90    22    47    47
 Leave Link  302 at Mon Feb 26 02:51:28 2018, MaxMem=  8589934592 cpu:              12.8 elap:               0.8
 (Enter /home1/apps/gaussian/16rA.03/g16/l303.exe)
 DipDrv:  MaxL=1.
 Leave Link  303 at Mon Feb 26 02:51:29 2018, MaxMem=  8589934592 cpu:               1.2 elap:               0.1
 (Enter /home1/apps/gaussian/16rA.03/g16/l401.exe)
 Initial guess from the checkpoint file:  "CrH.chk"
 B after Tr=     0.000000    0.000000    0.000000
         Rot=    1.000000    0.000000    0.000000    0.000000 Ang=   0.00 deg.
 Guess basis will be translated and rotated to current coordinates.
 JPrj=2 DoOrth=T DoCkMO=T.
 Initial guess orbital symmetries:
       Occupied  (SG) (SG) (PI) (PI) (SG) (PI) (PI) (SG) (DLTA)
                 (DLTA)
       Virtual   (PI) (PI) (SG) (SG) (PI) (PI) (SG) (DLTA) (DLTA)
                 (PI) (PI) (SG) (SG) (SG) (PI) (PI) (SG) (SG) (DLTA)
                 (DLTA) (PI) (PI) (PI) (PI) (SG) (SG) (PHI) (PHI)
                 (DLTA) (DLTA) (SG) (PI) (PI) (SG) (PI) (PI) (SG)
                 (PI) (PI) (DLTA) (DLTA) (DLTA) (DLTA) (SG) (PI)
                 (PI) (SG) (PI) (PI) (SG) (SG) (PHI) (PHI) (DLTA)
                 (DLTA) (PI) (PI) (SG) (PI) (PI) (?A) (?A) (PHI)
                 (PHI) (SG) (DLTA) (DLTA) (PI) (PI) (SG) (SG) (DLTA)
                 (DLTA) (PI) (PI) (SG) (DLTA) (DLTA) (PI) (PI)
                 (PI) (PI) (SG) (SG) (DLTA) (DLTA) (PHI) (PHI)
                 (PI) (PI) (SG) (SG) (PI) (PI) (SG) (PHI) (PHI)
                 (?A) (?A) (DLTA) (DLTA) (PI) (PI) (SG) (DLTA)
                 (DLTA) (PI) (PI) (SG) (SG) (DLTA) (DLTA) (PHI)
                 (PHI) (PI) (PI) (SG) (PI) (PI) (SG) (SG) (DLTA)
                 (DLTA) (PI) (PI) (SG) (PHI) (PHI) (?A) (?A) (DLTA)
                 (DLTA) (PI) (PI) (SG) (PI) (PI) (SG) (SG) (DLTA)
                 (DLTA) (PI) (PI) (SG) (PI) (PI) (SG) (SG) (SG)
                 (DLTA) (DLTA) (PI) (PI) (SG) (PI) (PI) (SG) (SG)
                 (PI) (PI) (SG) (SG) (DLTA) (DLTA) (PI) (PI) (SG)
                 (PI) (PI) (SG) (SG) (PI) (PI) (SG) (SG) (PI) (PI)
                 (SG) (SG) (SG) (PI) (PI) (SG) (SG) (PI) (PI) (SG)
                 (SG) (PI) (PI) (SG) (SG) (SG) (SG) (SG) (SG)
 The electronic state of the initial guess is 6-SG.
 Leave Link  401 at Mon Feb 26 02:51:30 2018, MaxMem=  8589934592 cpu:               4.8 elap:               0.4
 (Enter /home1/apps/gaussian/16rA.03/g16/l502.exe)
 Keep R1 and R2 ints in memory in symmetry-blocked form, NReq=338797193.
 FoFCou: FMM=F IPFlag=           8 FMFlag=           0 FMFlg1=           0
         NFxFlg=           0 DoJE=F BraDBF=F KetDBF=F FulRan=T
         wScrn=  0.000000 ICntrl=       600 IOpCl=  0 I1Cent=           0 NGrid=           0
         NMat0=    1 NMatS0=  23220 NMatT0=    0 NMatD0=    1 NMtDS0=    0 NMtDT0=    0
 Petite list used in FoFCou.
 Restricted open shell SCF:
 Using DIIS extrapolation, IDIIS=  1040.
 NGot=  8589934592 LenX=  8451450423 LenY=  8451383418
 Requested convergence on RMS density matrix=1.00D-08 within 300 cycles.
 Requested convergence on MAX density matrix=1.00D-06.
 Requested convergence on             energy=1.00D-06.
 No special actions if energy rises.

 Cycle   1  Pass 1  IDiag  1:
 E= -86.0019988698295    
 DIIS: error= 1.67D-01 at cycle   1 NSaved=   1.
 NSaved= 1 IEnMin= 1 EnMin= -86.0019988698295     IErMin= 1 ErrMin= 1.67D-01
 ErrMax= 1.67D-01  0.00D+00 EMaxC= 1.00D-01 BMatC= 5.75D+00 BMatP= 5.75D+00
 IDIUse=3 WtCom= 0.00D+00 WtEn= 1.00D+00
 Coeff-Com:  0.100D+01
 Coeff-En:   0.100D+01
 Coeff:      0.100D+01
 Gap=    -0.034 Goal=   None    Shift=    0.000
 GapD=   -0.034 DampG=0.250 DampE=0.125 DampFc=0.1250 IDamp=-1.
 Damping current iteration by 1.25D-01
 RMSDP=1.49D-01 MaxDP=2.38D+01              OVMax= 1.00D+00

 Cycle   2  Pass 1  IDiag  1:
 E= -85.9892090558441     Delta-E=        0.012789813985 Rises=F Damp=T
 DIIS: error= 1.58D-01 at cycle   2 NSaved=   2.
 NSaved= 2 IEnMin= 1 EnMin= -86.0019988698295     IErMin= 2 ErrMin= 1.58D-01
 ErrMax= 1.58D-01  0.00D+00 EMaxC= 1.00D-01 BMatC= 4.29D+00 BMatP= 5.75D+00
 IDIUse=3 WtCom= 0.00D+00 WtEn= 1.00D+00
 Coeff-Com: -0.444D+01 0.544D+01
 Coeff-En:   0.662D+00 0.338D+00
 Coeff:      0.662D+00 0.338D+00
 Gap=    -0.057 Goal=   None    Shift=    0.000
 RMSDP=3.88D-02 MaxDP=3.30D+00 DE= 1.28D-02 OVMax= 1.00D+00

 Cycle   3  Pass 1  IDiag  1:
 E= -86.2170768507297     Delta-E=       -0.227867794886 Rises=F Damp=F
 DIIS: error= 4.83D-02 at cycle   3 NSaved=   3.
 NSaved= 3 IEnMin= 3 EnMin= -86.2170768507297     IErMin= 3 ErrMin= 4.83D-02
 ErrMax= 4.83D-02  0.00D+00 EMaxC= 1.00D-01 BMatC= 1.65D-01 BMatP= 4.29D+00
 IDIUse=3 WtCom= 5.17D-01 WtEn= 4.83D-01
 EnCoef did    25 forward-backward iterations
 Coeff-Com: -0.225D+00 0.318D+00 0.907D+00
 Coeff-En:   0.204D-01 0.123D+00 0.857D+00
 Coeff:     -0.106D+00 0.224D+00 0.883D+00
 Gap=     0.157 Goal=   None    Shift=    0.000
 RMSDP=6.28D-03 MaxDP=4.88D-01 DE=-2.28D-01 OVMax= 4.81D-01

 Cycle   4  Pass 1  IDiag  1:
 E= -86.2663240965080     Delta-E=       -0.049247245778 Rises=F Damp=F
 DIIS: error= 4.02D-02 at cycle   4 NSaved=   4.
 NSaved= 4 IEnMin= 4 EnMin= -86.2663240965080     IErMin= 4 ErrMin= 4.02D-02
 ErrMax= 4.02D-02  0.00D+00 EMaxC= 1.00D-01 BMatC= 1.18D-01 BMatP= 1.65D-01
 IDIUse=3 WtCom= 5.98D-01 WtEn= 4.02D-01
 Coeff-Com: -0.367D+00 0.412D+00 0.392D+00 0.564D+00
 Coeff-En:   0.000D+00 0.000D+00 0.446D+00 0.554D+00
 Coeff:     -0.220D+00 0.246D+00 0.414D+00 0.560D+00
 Gap=     0.104 Goal=   None    Shift=    0.000
 RMSDP=3.28D-03 MaxDP=2.11D-01 DE=-4.92D-02 OVMax= 2.38D-01

 Cycle   5  Pass 1  IDiag  1:
 E= -86.3431425614768     Delta-E=       -0.076818464969 Rises=F Damp=F
 DIIS: error= 1.00D-02 at cycle   5 NSaved=   5.
 NSaved= 5 IEnMin= 5 EnMin= -86.3431425614768     IErMin= 5 ErrMin= 1.00D-02
 ErrMax= 1.00D-02  0.00D+00 EMaxC= 1.00D-01 BMatC= 3.14D-03 BMatP= 1.18D-01
 IDIUse=3 WtCom= 9.00D-01 WtEn= 1.00D-01
 Rare condition: small coef for last iteration:  0.000D+00
 Coeff-Com: -0.226D+00 0.258D+00 0.629D-01 0.703D-01 0.835D+00
 Coeff-En:   0.000D+00 0.000D+00 0.150D+00 0.103D+00 0.747D+00
 Coeff:     -0.226D+00 0.258D+00 0.629D-01 0.703D-01 0.835D+00
 Gap=     0.056 Goal=   None    Shift=    0.000
 RMSDP=1.50D-03 MaxDP=7.10D-02 DE=-7.68D-02 OVMax= 8.92D-02

 Cycle   6  Pass 1  IDiag  1:
 E= -86.3423163941114     Delta-E=        0.000826167365 Rises=F Damp=F
 DIIS: error= 6.34D-03 at cycle   6 NSaved=   6.
 NSaved= 6 IEnMin= 5 EnMin= -86.3431425614768     IErMin= 6 ErrMin= 6.34D-03
 ErrMax= 6.34D-03  0.00D+00 EMaxC= 1.00D-01 BMatC= 2.72D-03 BMatP= 3.14D-03
 IDIUse=3 WtCom= 9.37D-01 WtEn= 6.34D-02
 EnCoef did   100 forward-backward iterations
 Coeff-Com: -0.180D+00 0.206D+00 0.172D-01-0.401D-02 0.557D+00 0.404D+00
 Coeff-En:   0.000D+00 0.000D+00 0.427D+00 0.523D+00 0.184D-01 0.318D-01
 Coeff:     -0.169D+00 0.193D+00 0.431D-01 0.294D-01 0.523D+00 0.380D+00
 Gap=     0.052 Goal=   None    Shift=    0.000
 RMSDP=9.58D-04 MaxDP=5.34D-02 DE= 8.26D-04 OVMax= 7.58D-02

 Cycle   7  Pass 1  IDiag  1:
 E= -86.3469186573992     Delta-E=       -0.004602263288 Rises=F Damp=F
 DIIS: error= 4.87D-03 at cycle   7 NSaved=   7.
 NSaved= 7 IEnMin= 7 EnMin= -86.3469186573992     IErMin= 7 ErrMin= 4.87D-03
 ErrMax= 4.87D-03  0.00D+00 EMaxC= 1.00D-01 BMatC= 7.83D-04 BMatP= 2.72D-03
 IDIUse=3 WtCom= 9.51D-01 WtEn= 4.87D-02
 EnCoef did   100 forward-backward iterations
 Coeff-Com: -0.143D+00 0.163D+00 0.184D-01 0.175D-01 0.145D+00 0.200D+00
 Coeff-Com:  0.598D+00
 Coeff-En:   0.000D+00 0.000D+00 0.423D+00 0.518D+00 0.139D-01 0.239D-01
 Coeff-En:   0.217D-01
 Coeff:     -0.136D+00 0.155D+00 0.381D-01 0.418D-01 0.139D+00 0.191D+00
 Coeff:      0.570D+00
 Gap=     0.051 Goal=   None    Shift=    0.000
 RMSDP=3.36D-04 MaxDP=2.34D-02 DE=-4.60D-03 OVMax= 2.06D-02

 Cycle   8  Pass 1  IDiag  1:
 E= -86.3464642625894     Delta-E=        0.000454394810 Rises=F Damp=F
 DIIS: error= 4.79D-03 at cycle   8 NSaved=   8.
 NSaved= 8 IEnMin= 7 EnMin= -86.3469186573992     IErMin= 8 ErrMin= 4.79D-03
 ErrMax= 4.79D-03  0.00D+00 EMaxC= 1.00D-01 BMatC= 8.64D-04 BMatP= 7.83D-04
 IDIUse=3 WtCom= 9.51D-01 WtEn= 4.87D-02
 EnCoef did   100 forward-backward iterations
 Rare condition: small coef for last iteration: -0.180D-15
 Coeff-Com: -0.126D+00 0.144D+00 0.547D-02 0.293D-01-0.171D+00 0.207D-02
 Coeff-Com:  0.256D+00 0.860D+00
 Coeff-En:   0.000D+00 0.000D+00 0.127D+00 0.132D-01 0.000D+00 0.149D+00
 Coeff-En:   0.600D+00 0.111D+00
 Coeff:     -0.126D+00 0.144D+00 0.547D-02 0.293D-01-0.171D+00 0.207D-02
 Coeff:      0.256D+00 0.860D+00
 Gap=     0.051 Goal=   None    Shift=    0.000
 RMSDP=1.27D-04 MaxDP=6.26D-03 DE= 4.54D-04 OVMax= 1.30D-02

 Cycle   9  Pass 1  IDiag  1:
 E= -86.3464961243460     Delta-E=       -0.000031861757 Rises=F Damp=F
 DIIS: error= 4.19D-03 at cycle   9 NSaved=   9.
 NSaved= 9 IEnMin= 7 EnMin= -86.3469186573992     IErMin= 9 ErrMin= 4.19D-03
 ErrMax= 4.19D-03  0.00D+00 EMaxC= 1.00D-01 BMatC= 8.10D-04 BMatP= 7.83D-04
 IDIUse=3 WtCom= 9.58D-01 WtEn= 4.19D-02
 EnCoef did   100 forward-backward iterations
 Coeff-Com: -0.124D+00 0.142D+00-0.678D-02 0.158D-01-0.151D+00-0.121D-01
 Coeff-Com:  0.431D-01 0.629D+00 0.465D+00
 Coeff-En:   0.000D+00 0.000D+00 0.418D+00 0.508D+00 0.000D+00 0.428D-01
 Coeff-En:   0.994D-02 0.954D-02 0.118D-01
 Coeff:     -0.119D+00 0.136D+00 0.110D-01 0.364D-01-0.145D+00-0.978D-02
 Coeff:      0.417D-01 0.603D+00 0.446D+00
 Gap=     0.050 Goal=   None    Shift=    0.000
 RMSDP=1.73D-04 MaxDP=1.15D-02 DE=-3.19D-05 OVMax= 3.17D-02

 Cycle  10  Pass 1  IDiag  1:
 E= -86.3475861080431     Delta-E=       -0.001089983697 Rises=F Damp=F
 DIIS: error= 3.67D-03 at cycle  10 NSaved=  10.
 NSaved=10 IEnMin=10 EnMin= -86.3475861080431     IErMin=10 ErrMin= 3.67D-03
 ErrMax= 3.67D-03  0.00D+00 EMaxC= 1.00D-01 BMatC= 4.05D-04 BMatP= 7.83D-04
 IDIUse=3 WtCom= 9.63D-01 WtEn= 3.67D-02
 EnCoef did   100 forward-backward iterations
 Coeff-Com: -0.111D+00 0.127D+00-0.471D-02 0.121D-01-0.912D-01-0.390D-01
 Coeff-Com: -0.175D+00 0.329D+00 0.573D+00 0.380D+00
 Coeff-En:   0.000D+00 0.000D+00 0.409D+00 0.496D+00 0.000D+00 0.272D-01
 Coeff-En:   0.644D-02 0.607D-02 0.749D-02 0.481D-01
 Coeff:     -0.107D+00 0.122D+00 0.105D-01 0.298D-01-0.878D-01-0.365D-01
 Coeff:     -0.168D+00 0.317D+00 0.552D+00 0.367D+00
 Gap=     0.050 Goal=   None    Shift=    0.000
 RMSDP=1.24D-04 MaxDP=1.02D-02 DE=-1.09D-03 OVMax= 5.68D-03

 Cycle  11  Pass 1  IDiag  1:
 E= -86.3477084430869     Delta-E=       -0.000122335044 Rises=F Damp=F
 DIIS: error= 3.14D-03 at cycle  11 NSaved=  11.
 NSaved=11 IEnMin=11 EnMin= -86.3477084430869     IErMin=11 ErrMin= 3.14D-03
 ErrMax= 3.14D-03  0.00D+00 EMaxC= 1.00D-01 BMatC= 3.31D-04 BMatP= 4.05D-04
 IDIUse=3 WtCom= 9.69D-01 WtEn= 3.14D-02
 EnCoef did   100 forward-backward iterations
 Rare condition: small coef for last iteration: -0.663D-15
 Coeff-Com: -0.980D-01 0.112D+00-0.389D-02 0.912D-02-0.456D-01-0.503D-01
 Coeff-Com: -0.281D+00 0.161D+00 0.518D+00 0.970D-01 0.581D+00
 Coeff-En:   0.000D+00 0.000D+00 0.129D+00 0.278D-02 0.000D+00 0.000D+00
 Coeff-En:   0.000D+00 0.000D+00 0.000D+00 0.000D+00 0.869D+00
 Coeff:     -0.980D-01 0.112D+00-0.389D-02 0.912D-02-0.456D-01-0.503D-01
 Coeff:     -0.281D+00 0.161D+00 0.518D+00 0.970D-01 0.581D+00
 Gap=     0.049 Goal=   None    Shift=    0.000
 RMSDP=5.91D-05 MaxDP=3.16D-03 DE=-1.22D-04 OVMax= 5.37D-03

 Cycle  12  Pass 1  IDiag  1:
 E= -86.3476440869299     Delta-E=        0.000064356157 Rises=F Damp=F
 DIIS: error= 2.96D-03 at cycle  12 NSaved=  12.
 NSaved=12 IEnMin=11 EnMin= -86.3477084430869     IErMin=12 ErrMin= 2.96D-03
 ErrMax= 2.96D-03  0.00D+00 EMaxC= 1.00D-01 BMatC= 3.23D-04 BMatP= 3.31D-04
 IDIUse=3 WtCom= 9.70D-01 WtEn= 2.96D-02
 EnCoef did    46 forward-backward iterations
 Rare condition: small coef for last iteration:  0.000D+00
 Coeff-Com: -0.808D-01 0.924D-01-0.397D-02 0.848D-02-0.279D-02-0.282D-01
 Coeff-Com:  0.340D-02 0.718D-01-0.832D-01-0.729D+00 0.174D+00 0.158D+01
 Coeff-En:   0.000D+00 0.000D+00 0.127D+00 0.115D-01 0.000D+00 0.000D+00
 Coeff-En:   0.000D+00 0.000D+00 0.000D+00 0.113D+00 0.000D+00 0.749D+00
 Coeff:     -0.808D-01 0.924D-01-0.397D-02 0.848D-02-0.279D-02-0.282D-01
 Coeff:      0.340D-02 0.718D-01-0.832D-01-0.729D+00 0.174D+00 0.158D+01
 Gap=     0.047 Goal=   None    Shift=    0.000
 RMSDP=2.40D-04 MaxDP=1.87D-02 DE= 6.44D-05 OVMax= 5.94D-03

 Cycle  13  Pass 1  IDiag  1:
 E= -86.3478648635668     Delta-E=       -0.000220776637 Rises=F Damp=F
 DIIS: error= 2.23D-03 at cycle  13 NSaved=  13.
 NSaved=13 IEnMin=13 EnMin= -86.3478648635668     IErMin=13 ErrMin= 2.23D-03
 ErrMax= 2.23D-03  0.00D+00 EMaxC= 1.00D-01 BMatC= 2.06D-04 BMatP= 3.23D-04
 IDIUse=3 WtCom= 9.78D-01 WtEn= 2.23D-02
 EnCoef did     7 forward-backward iterations
 Coeff-Com: -0.600D-01 0.685D-01-0.388D-02 0.824D-02 0.213D-01-0.980D-02
 Coeff-Com:  0.230D+00 0.370D-01-0.509D+00-0.119D+01-0.257D+00 0.200D+01
 Coeff-Com:  0.660D+00
 Coeff-En:   0.000D+00 0.000D+00 0.413D+00 0.505D+00 0.000D+00 0.000D+00
 Coeff-En:   0.000D+00 0.000D+00 0.000D+00 0.244D-02 0.000D+00 0.000D+00
 Coeff-En:   0.795D-01
 Coeff:     -0.586D-01 0.670D-01 0.542D-02 0.193D-01 0.209D-01-0.958D-02
 Coeff:      0.225D+00 0.361D-01-0.498D+00-0.116D+01-0.251D+00 0.196D+01
 Coeff:      0.647D+00
 Gap=     0.047 Goal=   None    Shift=    0.000
 RMSDP=3.05D-04 MaxDP=2.43D-02 DE=-2.21D-04 OVMax= 1.21D-02

 Cycle  14  Pass 1  IDiag  1:
 E= -86.3481105491955     Delta-E=       -0.000245685629 Rises=F Damp=F
 DIIS: error= 1.60D-03 at cycle  14 NSaved=  14.
 NSaved=14 IEnMin=14 EnMin= -86.3481105491955     IErMin=14 ErrMin= 1.60D-03
 ErrMax= 1.60D-03  0.00D+00 EMaxC= 1.00D-01 BMatC= 9.63D-05 BMatP= 2.06D-04
 IDIUse=3 WtCom= 9.84D-01 WtEn= 1.60D-02
 EnCoef did   100 forward-backward iterations
 Coeff-Com: -0.422D-01 0.482D-01-0.342D-02 0.726D-02 0.311D-01-0.264D-02
 Coeff-Com:  0.270D+00 0.244D-01-0.590D+00-0.126D+01-0.414D+00 0.178D+01
 Coeff-Com:  0.824D+00 0.328D+00
 Coeff-En:   0.000D+00 0.000D+00 0.394D+00 0.474D+00 0.000D+00 0.000D+00
 Coeff-En:   0.000D+00 0.000D+00 0.000D+00 0.222D-02 0.000D+00 0.000D+00
 Coeff-En:   0.171D-01 0.113D+00
 Coeff:     -0.415D-01 0.474D-01 0.294D-02 0.147D-01 0.306D-01-0.260D-02
 Coeff:      0.265D+00 0.240D-01-0.581D+00-0.124D+01-0.408D+00 0.175D+01
 Coeff:      0.811D+00 0.324D+00
 Gap=     0.046 Goal=   None    Shift=    0.000
 RMSDP=3.18D-04 MaxDP=2.52D-02 DE=-2.46D-04 OVMax= 1.18D-02

 Cycle  15  Pass 1  IDiag  1:
 E= -86.3482073375684     Delta-E=       -0.000096788373 Rises=F Damp=F
 DIIS: error= 1.19D-03 at cycle  15 NSaved=  15.
 NSaved=15 IEnMin=15 EnMin= -86.3482073375684     IErMin=15 ErrMin= 1.19D-03
 ErrMax= 1.19D-03  0.00D+00 EMaxC= 1.00D-01 BMatC= 4.88D-05 BMatP= 9.63D-05
 IDIUse=3 WtCom= 9.88D-01 WtEn= 1.19D-02
 EnCoef did   100 forward-backward iterations
 Coeff-Com: -0.189D-01 0.216D-01-0.204D-02 0.463D-02 0.281D-01 0.149D-03
 Coeff-Com:  0.154D+00 0.215D-01-0.353D+00-0.877D+00-0.370D+00 0.853D+00
 Coeff-Com:  0.524D+00 0.436D+00 0.579D+00
 Coeff-En:   0.000D+00 0.000D+00 0.389D+00 0.467D+00 0.000D+00 0.000D+00
 Coeff-En:   0.000D+00 0.000D+00 0.000D+00 0.207D-02 0.000D+00 0.000D+00
 Coeff-En:   0.159D-01 0.330D-02 0.123D+00
 Coeff:     -0.187D-01 0.213D-01 0.261D-02 0.101D-01 0.278D-01 0.147D-03
 Coeff:      0.152D+00 0.212D-01-0.349D+00-0.866D+00-0.366D+00 0.843D+00
 Coeff:      0.518D+00 0.431D+00 0.573D+00
 Gap=     0.044 Goal=   None    Shift=    0.000
 RMSDP=1.54D-04 MaxDP=9.53D-03 DE=-9.68D-05 OVMax= 6.05D-03

 Cycle  16  Pass 1  IDiag  1:
 E= -86.3482827128654     Delta-E=       -0.000075375297 Rises=F Damp=F
 DIIS: error= 5.06D-04 at cycle  16 NSaved=  16.
 NSaved=16 IEnMin=16 EnMin= -86.3482827128654     IErMin=16 ErrMin= 5.06D-04
 ErrMax= 5.06D-04  0.00D+00 EMaxC= 1.00D-01 BMatC= 9.41D-06 BMatP= 4.88D-05
 IDIUse=3 WtCom= 9.95D-01 WtEn= 5.06D-03
 EnCoef did   100 forward-backward iterations
 Coeff-Com: -0.115D-02 0.132D-02-0.758D-03 0.672D-03 0.738D-02 0.160D-02
 Coeff-Com: -0.215D-01 0.195D-01 0.511D-01-0.174D+00-0.135D+00-0.135D+00
 Coeff-Com: -0.177D-01 0.159D+00 0.483D+00 0.762D+00
 Coeff-En:   0.000D+00 0.000D+00 0.382D+00 0.455D+00 0.000D+00 0.000D+00
 Coeff-En:   0.000D+00 0.000D+00 0.000D+00 0.185D-02 0.000D+00 0.000D+00
 Coeff-En:   0.142D-01 0.295D-02 0.167D-01 0.128D+00
 Coeff:     -0.114D-02 0.131D-02 0.118D-02 0.297D-02 0.734D-02 0.159D-02
 Coeff:     -0.214D-01 0.194D-01 0.509D-01-0.173D+00-0.134D+00-0.135D+00
 Coeff:     -0.175D-01 0.158D+00 0.481D+00 0.759D+00
 Gap=     0.044 Goal=   None    Shift=    0.000
 RMSDP=1.03D-04 MaxDP=8.36D-03 DE=-7.54D-05 OVMax= 3.89D-03

 Cycle  17  Pass 1  IDiag  1:
 E= -86.3482999053953     Delta-E=       -0.000017192530 Rises=F Damp=F
 DIIS: error= 8.36D-05 at cycle  17 NSaved=  17.
 NSaved=17 IEnMin=17 EnMin= -86.3482999053953     IErMin=17 ErrMin= 8.36D-05
 ErrMax= 8.36D-05  0.00D+00 EMaxC= 1.00D-01 BMatC= 4.86D-07 BMatP= 9.41D-06
 IDIUse=1 WtCom= 1.00D+00 WtEn= 0.00D+00
 Coeff-Com:  0.144D-02-0.164D-02 0.179D-04-0.101D-04-0.185D-02 0.161D-02
 Coeff-Com: -0.274D-01 0.107D-01 0.925D-01 0.256D-01-0.547D-01-0.128D+00
 Coeff-Com: -0.703D-01-0.230D-01 0.923D-01 0.377D+00 0.705D+00
 Coeff:      0.144D-02-0.164D-02 0.179D-04-0.101D-04-0.185D-02 0.161D-02
 Coeff:     -0.274D-01 0.107D-01 0.925D-01 0.256D-01-0.547D-01-0.128D+00
 Coeff:     -0.703D-01-0.230D-01 0.923D-01 0.377D+00 0.705D+00
 Gap=     0.043 Goal=   None    Shift=    0.000
 RMSDP=5.64D-05 MaxDP=4.79D-03 DE=-1.72D-05 OVMax= 1.33D-03

 Cycle  18  Pass 1  IDiag  1:
 E= -86.3483006072837     Delta-E=       -0.000000701888 Rises=F Damp=F
 DIIS: error= 5.48D-05 at cycle  18 NSaved=  18.
 NSaved=18 IEnMin=18 EnMin= -86.3483006072837     IErMin=18 ErrMin= 5.48D-05
 ErrMax= 5.48D-05  0.00D+00 EMaxC= 1.00D-01 BMatC= 2.59D-07 BMatP= 4.86D-07
 IDIUse=1 WtCom= 1.00D+00 WtEn= 0.00D+00
 Coeff-Com:  0.124D-02-0.142D-02 0.944D-04-0.168D-04-0.264D-02 0.126D-02
 Coeff-Com: -0.219D-01 0.811D-02 0.778D-01 0.381D-01-0.354D-01-0.978D-01
 Coeff-Com: -0.579D-01-0.338D-01 0.365D-01 0.256D+00 0.602D+00 0.231D+00
 Coeff:      0.124D-02-0.142D-02 0.944D-04-0.168D-04-0.264D-02 0.126D-02
 Coeff:     -0.219D-01 0.811D-02 0.778D-01 0.381D-01-0.354D-01-0.978D-01
 Coeff:     -0.579D-01-0.338D-01 0.365D-01 0.256D+00 0.602D+00 0.231D+00
 Gap=     0.043 Goal=   None    Shift=    0.000
 RMSDP=1.51D-05 MaxDP=8.67D-04 DE=-7.02D-07 OVMax= 1.51D-03

 Cycle  19  Pass 1  IDiag  1:
 E= -86.3483009536419     Delta-E=       -0.000000346358 Rises=F Damp=F
 DIIS: error= 4.56D-05 at cycle  19 NSaved=  19.
 NSaved=19 IEnMin=19 EnMin= -86.3483009536419     IErMin=19 ErrMin= 4.56D-05
 ErrMax= 4.56D-05  0.00D+00 EMaxC= 1.00D-01 BMatC= 1.26D-07 BMatP= 2.59D-07
 IDIUse=1 WtCom= 1.00D+00 WtEn= 0.00D+00
 Coeff-Com:  0.308D-03-0.353D-03 0.152D-03 0.516D-04-0.280D-02 0.203D-03
 Coeff-Com: -0.701D-02 0.212D-02 0.281D-01 0.352D-01 0.613D-02-0.203D-01
 Coeff-Com: -0.169D-01-0.265D-01-0.370D-01-0.285D-02 0.166D+00 0.331D+00
 Coeff-Com:  0.544D+00
 Coeff:      0.308D-03-0.353D-03 0.152D-03 0.516D-04-0.280D-02 0.203D-03
 Coeff:     -0.701D-02 0.212D-02 0.281D-01 0.352D-01 0.613D-02-0.203D-01
 Coeff:     -0.169D-01-0.265D-01-0.370D-01-0.285D-02 0.166D+00 0.331D+00
 Coeff:      0.544D+00
 Gap=     0.043 Goal=   None    Shift=    0.000
 RMSDP=1.44D-05 MaxDP=1.06D-03 DE=-3.46D-07 OVMax= 5.80D-04

 Cycle  20  Pass 1  IDiag  1:
 E= -86.3483012280222     Delta-E=       -0.000000274380 Rises=F Damp=F
 DIIS: error= 1.12D-05 at cycle  20 NSaved=  20.
 NSaved=20 IEnMin=20 EnMin= -86.3483012280222     IErMin=20 ErrMin= 1.12D-05
 ErrMax= 1.12D-05  0.00D+00 EMaxC= 1.00D-01 BMatC= 7.76D-09 BMatP= 1.26D-07
 IDIUse=1 WtCom= 1.00D+00 WtEn= 0.00D+00
 Coeff-Com:  0.429D-04-0.502D-04 0.124D-03 0.278D-04-0.139D-02-0.293D-03
 Coeff-Com: -0.361D-02-0.145D-02 0.394D-02 0.239D-01 0.183D-01-0.436D-02
 Coeff-Com: -0.473D-02-0.814D-02-0.268D-01-0.566D-01-0.486D-01 0.941D-01
 Coeff-Com:  0.246D+00 0.770D+00
 Coeff:      0.429D-04-0.502D-04 0.124D-03 0.278D-04-0.139D-02-0.293D-03
 Coeff:     -0.361D-02-0.145D-02 0.394D-02 0.239D-01 0.183D-01-0.436D-02
 Coeff:     -0.473D-02-0.814D-02-0.268D-01-0.566D-01-0.486D-01 0.941D-01
 Coeff:      0.246D+00 0.770D+00
 Gap=     0.043 Goal=   None    Shift=    0.000
 RMSDP=5.38D-06 MaxDP=3.91D-04 DE=-2.74D-07 OVMax= 2.43D-04

 Cycle  21  Pass 1  IDiag  1:
 E= -86.3483012424920     Delta-E=       -0.000000014470 Rises=F Damp=F
 DIIS: error= 1.13D-05 at cycle  21 NSaved=  20.
 NSaved=20 IEnMin=20 EnMin= -86.3483012424920     IErMin=19 ErrMin= 1.12D-05
 ErrMax= 1.13D-05  0.00D+00 EMaxC= 1.00D-01 BMatC= 4.99D-09 BMatP= 7.76D-09
 IDIUse=1 WtCom= 1.00D+00 WtEn= 0.00D+00
 Coeff-Com: -0.227D-06 0.876D-04 0.284D-04-0.666D-03-0.219D-03-0.379D-02
 Coeff-Com: -0.174D-02 0.211D-02 0.190D-01 0.124D-01-0.973D-02-0.535D-02
 Coeff-Com: -0.301D-02-0.103D-01-0.293D-01-0.461D-01-0.353D-02 0.483D-01
 Coeff-Com:  0.523D+00 0.509D+00
 Coeff:     -0.227D-06 0.876D-04 0.284D-04-0.666D-03-0.219D-03-0.379D-02
 Coeff:     -0.174D-02 0.211D-02 0.190D-01 0.124D-01-0.973D-02-0.535D-02
 Coeff:     -0.301D-02-0.103D-01-0.293D-01-0.461D-01-0.353D-02 0.483D-01
 Coeff:      0.523D+00 0.509D+00
 Gap=     0.043 Goal=   None    Shift=    0.000
 RMSDP=2.47D-06 MaxDP=1.76D-04 DE=-1.45D-08 OVMax= 1.81D-04

 Cycle  22  Pass 1  IDiag  1:
 E= -86.3483012398597     Delta-E=        0.000000002632 Rises=F Damp=F
 DIIS: error= 1.48D-05 at cycle  22 NSaved=  20.
 NSaved=20 IEnMin=19 EnMin= -86.3483012424920     IErMin=18 ErrMin= 1.12D-05
 ErrMax= 1.48D-05  0.00D+00 EMaxC= 1.00D-01 BMatC= 7.38D-09 BMatP= 4.99D-09
 IDIUse=1 WtCom= 1.00D+00 WtEn= 0.00D+00
 Coeff-Com:  0.206D-04 0.409D-04 0.462D-03 0.318D-04-0.397D-02-0.153D-02
 Coeff-Com:  0.195D-02 0.101D-01-0.152D-02-0.218D-01-0.752D-02 0.441D-02
 Coeff-Com:  0.192D-01 0.299D-01-0.835D-02-0.141D+00-0.262D+00-0.701D-01
 Coeff-Com:  0.939D+00 0.512D+00
 Coeff:      0.206D-04 0.409D-04 0.462D-03 0.318D-04-0.397D-02-0.153D-02
 Coeff:      0.195D-02 0.101D-01-0.152D-02-0.218D-01-0.752D-02 0.441D-02
 Coeff:      0.192D-01 0.299D-01-0.835D-02-0.141D+00-0.262D+00-0.701D-01
 Coeff:      0.939D+00 0.512D+00
 Gap=     0.043 Goal=   None    Shift=    0.000
 RMSDP=2.17D-06 MaxDP=1.13D-04 DE= 2.63D-09 OVMax= 1.83D-04

 Cycle  23  Pass 1  IDiag  1:
 E= -86.3483012588212     Delta-E=       -0.000000018961 Rises=F Damp=F
 DIIS: error= 7.32D-06 at cycle  23 NSaved=  20.
 NSaved=20 IEnMin=20 EnMin= -86.3483012588212     IErMin=20 ErrMin= 7.32D-06
 ErrMax= 7.32D-06  0.00D+00 EMaxC= 1.00D-01 BMatC= 2.34D-09 BMatP= 4.99D-09
 IDIUse=1 WtCom= 1.00D+00 WtEn= 0.00D+00
 Coeff-Com:  0.602D-04 0.536D-03 0.162D-03-0.273D-02-0.703D-03 0.256D-02
 Coeff-Com:  0.565D-02-0.589D-02-0.219D-01-0.624D-02 0.558D-02 0.228D-01
 Coeff-Com:  0.403D-01 0.860D-02-0.126D+00-0.254D+00-0.239D+00 0.587D+00
 Coeff-Com:  0.448D+00 0.535D+00
 Coeff:      0.602D-04 0.536D-03 0.162D-03-0.273D-02-0.703D-03 0.256D-02
 Coeff:      0.565D-02-0.589D-02-0.219D-01-0.624D-02 0.558D-02 0.228D-01
 Coeff:      0.403D-01 0.860D-02-0.126D+00-0.254D+00-0.239D+00 0.587D+00
 Coeff:      0.448D+00 0.535D+00
 Gap=     0.043 Goal=   None    Shift=    0.000
 RMSDP=3.76D-06 MaxDP=3.07D-04 DE=-1.90D-08 OVMax= 1.14D-04

 Cycle  24  Pass 1  IDiag  1:
 E= -86.3483012637248     Delta-E=       -0.000000004904 Rises=F Damp=F
 DIIS: error= 3.99D-06 at cycle  24 NSaved=  20.
 NSaved=20 IEnMin=20 EnMin= -86.3483012637248     IErMin=20 ErrMin= 3.99D-06
 ErrMax= 3.99D-06  0.00D+00 EMaxC= 1.00D-01 BMatC= 1.14D-09 BMatP= 2.34D-09
 IDIUse=1 WtCom= 1.00D+00 WtEn= 0.00D+00
 Coeff-Com:  0.494D-04 0.154D-03-0.149D-02-0.482D-03 0.367D-02 0.726D-02
 Coeff-Com:  0.129D-02-0.132D-01-0.357D-02 0.104D-03 0.396D-02 0.688D-02
 Coeff-Com: -0.173D-02-0.129D-01-0.260D-01-0.448D-01-0.147D+00 0.197D-01
 Coeff-Com:  0.507D+00 0.701D+00
 Coeff:      0.494D-04 0.154D-03-0.149D-02-0.482D-03 0.367D-02 0.726D-02
 Coeff:      0.129D-02-0.132D-01-0.357D-02 0.104D-03 0.396D-02 0.688D-02
 Coeff:     -0.173D-02-0.129D-01-0.260D-01-0.448D-01-0.147D+00 0.197D-01
 Coeff:      0.507D+00 0.701D+00
 Gap=     0.043 Goal=   None    Shift=    0.000
 RMSDP=2.20D-06 MaxDP=1.40D-04 DE=-4.90D-09 OVMax= 8.14D-05

 Cycle  25  Pass 1  IDiag  1:
 E= -86.3483012671039     Delta-E=       -0.000000003379 Rises=F Damp=F
 DIIS: error= 1.25D-06 at cycle  25 NSaved=  20.
 NSaved=20 IEnMin=20 EnMin= -86.3483012671039     IErMin=20 ErrMin= 1.25D-06
 ErrMax= 1.25D-06  0.00D+00 EMaxC= 1.00D-01 BMatC= 1.18D-10 BMatP= 1.14D-09
 IDIUse=1 WtCom= 1.00D+00 WtEn= 0.00D+00
 Coeff-Com: -0.176D-05 0.204D-03 0.152D-04 0.486D-03-0.125D-02 0.996D-03
 Coeff-Com:  0.203D-02 0.521D-03-0.863D-03-0.210D-02-0.259D-02 0.390D-02
 Coeff-Com:  0.248D-01 0.477D-01 0.366D-01-0.254D+00-0.136D+00 0.496D-01
 Coeff-Com:  0.346D+00 0.884D+00
 Coeff:     -0.176D-05 0.204D-03 0.152D-04 0.486D-03-0.125D-02 0.996D-03
 Coeff:      0.203D-02 0.521D-03-0.863D-03-0.210D-02-0.259D-02 0.390D-02
 Coeff:      0.248D-01 0.477D-01 0.366D-01-0.254D+00-0.136D+00 0.496D-01
 Coeff:      0.346D+00 0.884D+00
 Gap=     0.043 Goal=   None    Shift=    0.000
 RMSDP=1.43D-06 MaxDP=8.91D-05 DE=-3.38D-09 OVMax= 5.61D-05

 Cycle  26  Pass 1  IDiag  1:
 E= -86.3483012674437     Delta-E=       -0.000000000340 Rises=F Damp=F
 DIIS: error= 1.69D-06 at cycle  26 NSaved=  20.
 NSaved=20 IEnMin=20 EnMin= -86.3483012674437     IErMin=19 ErrMin= 1.25D-06
 ErrMax= 1.69D-06  0.00D+00 EMaxC= 1.00D-01 BMatC= 1.22D-10 BMatP= 1.18D-10
 IDIUse=1 WtCom= 1.00D+00 WtEn= 0.00D+00
 Coeff-Com:  0.434D-03 0.142D-03-0.146D-03-0.258D-02 0.922D-04 0.406D-02
 Coeff-Com:  0.850D-03-0.706D-03-0.204D-02-0.169D-02 0.559D-02 0.198D-01
 Coeff-Com:  0.363D-01 0.272D-01-0.162D+00-0.103D+00-0.538D-01 0.135D+00
 Coeff-Com:  0.681D+00 0.416D+00
 Coeff:      0.434D-03 0.142D-03-0.146D-03-0.258D-02 0.922D-04 0.406D-02
 Coeff:      0.850D-03-0.706D-03-0.204D-02-0.169D-02 0.559D-02 0.198D-01
 Coeff:      0.363D-01 0.272D-01-0.162D+00-0.103D+00-0.538D-01 0.135D+00
 Coeff:      0.681D+00 0.416D+00
 Gap=     0.043 Goal=   None    Shift=    0.000
 RMSDP=1.14D-06 MaxDP=8.90D-05 DE=-3.40D-10 OVMax= 2.94D-05

 Cycle  27  Pass 1  IDiag  1:
 E= -86.3483012677368     Delta-E=       -0.000000000293 Rises=F Damp=F
 DIIS: error= 4.61D-07 at cycle  27 NSaved=  20.
 NSaved=20 IEnMin=20 EnMin= -86.3483012677368     IErMin=20 ErrMin= 4.61D-07
 ErrMax= 4.61D-07  0.00D+00 EMaxC= 1.00D-01 BMatC= 1.91D-11 BMatP= 1.18D-10
 IDIUse=1 WtCom= 1.00D+00 WtEn= 0.00D+00
 Coeff-Com:  0.183D-04-0.110D-03-0.102D-02-0.477D-03 0.109D-02 0.145D-03
 Coeff-Com:  0.866D-04 0.447D-03 0.108D-02 0.512D-03-0.377D-02-0.806D-02
 Coeff-Com: -0.840D-02 0.353D-01 0.113D-01-0.454D-01-0.780D-01-0.518D-01
 Coeff-Com:  0.189D+00 0.958D+00
 Coeff:      0.183D-04-0.110D-03-0.102D-02-0.477D-03 0.109D-02 0.145D-03
 Coeff:      0.866D-04 0.447D-03 0.108D-02 0.512D-03-0.377D-02-0.806D-02
 Coeff:     -0.840D-02 0.353D-01 0.113D-01-0.454D-01-0.780D-01-0.518D-01
 Coeff:      0.189D+00 0.958D+00
 Gap=     0.043 Goal=   None    Shift=    0.000
 RMSDP=2.92D-07 MaxDP=2.51D-05 DE=-2.93D-10 OVMax= 1.59D-05

 Cycle  28  Pass 1  IDiag  1:
 E= -86.3483012678058     Delta-E=       -0.000000000069 Rises=F Damp=F
 DIIS: error= 9.08D-08 at cycle  28 NSaved=  20.
 NSaved=20 IEnMin=20 EnMin= -86.3483012678058     IErMin=20 ErrMin= 9.08D-08
 ErrMax= 9.08D-08  0.00D+00 EMaxC= 1.00D-01 BMatC= 9.23D-13 BMatP= 1.91D-11
 IDIUse=1 WtCom= 1.00D+00 WtEn= 0.00D+00
 Coeff-Com:  0.949D-05 0.716D-04-0.149D-03-0.295D-03-0.419D-04 0.748D-04
 Coeff-Com:  0.257D-03 0.478D-03-0.197D-03-0.279D-02-0.569D-02-0.675D-02
 Coeff-Com:  0.244D-01 0.149D-01 0.101D-02-0.307D-01-0.103D+00-0.972D-02
 Coeff-Com:  0.223D+00 0.896D+00
 Coeff:      0.949D-05 0.716D-04-0.149D-03-0.295D-03-0.419D-04 0.748D-04
 Coeff:      0.257D-03 0.478D-03-0.197D-03-0.279D-02-0.569D-02-0.675D-02
 Coeff:      0.244D-01 0.149D-01 0.101D-02-0.307D-01-0.103D+00-0.972D-02
 Coeff:      0.223D+00 0.896D+00
 Gap=     0.043 Goal=   None    Shift=    0.000
 RMSDP=5.24D-08 MaxDP=3.02D-06 DE=-6.90D-11 OVMax= 3.60D-06

 Cycle  29  Pass 1  IDiag  1:
 E= -86.3483012678084     Delta-E=       -0.000000000003 Rises=F Damp=F
 DIIS: error= 8.14D-08 at cycle  29 NSaved=  20.
 NSaved=20 IEnMin=20 EnMin= -86.3483012678084     IErMin=20 ErrMin= 8.14D-08
 ErrMax= 8.14D-08  0.00D+00 EMaxC= 1.00D-01 BMatC= 3.90D-13 BMatP= 9.23D-13
 IDIUse=1 WtCom= 1.00D+00 WtEn= 0.00D+00
 Coeff-Com:  0.116D-03-0.135D-04-0.278D-03-0.383D-04 0.703D-04 0.150D-03
 Coeff-Com:  0.117D-03-0.490D-03-0.141D-02-0.259D-02-0.151D-02 0.116D-01
 Coeff-Com:  0.626D-02-0.112D-02-0.152D-01-0.448D-01-0.157D-01 0.438D-01
 Coeff-Com:  0.456D+00 0.565D+00
 Coeff:      0.116D-03-0.135D-04-0.278D-03-0.383D-04 0.703D-04 0.150D-03
 Coeff:      0.117D-03-0.490D-03-0.141D-02-0.259D-02-0.151D-02 0.116D-01
 Coeff:      0.626D-02-0.112D-02-0.152D-01-0.448D-01-0.157D-01 0.438D-01
 Coeff:      0.456D+00 0.565D+00
 Gap=     0.043 Goal=   None    Shift=    0.000
 RMSDP=1.41D-08 MaxDP=8.09D-07 DE=-2.59D-12 OVMax= 1.17D-06

 Cycle  30  Pass 1  IDiag  1:
 E= -86.3483012678082     Delta-E=        0.000000000000 Rises=F Damp=F
 DIIS: error= 4.00D-08 at cycle  30 NSaved=  20.
 NSaved=20 IEnMin=19 EnMin= -86.3483012678084     IErMin=20 ErrMin= 4.00D-08
 ErrMax= 4.00D-08  0.00D+00 EMaxC= 1.00D-01 BMatC= 7.34D-14 BMatP= 3.90D-13
 IDIUse=1 WtCom= 1.00D+00 WtEn= 0.00D+00
 Coeff-Com:  0.193D-04-0.113D-04 0.471D-06 0.776D-05-0.865D-06-0.289D-04
 Coeff-Com: -0.629D-04 0.105D-03 0.231D-03 0.773D-03 0.232D-03-0.498D-03
 Coeff-Com: -0.306D-02-0.359D-02-0.106D-02-0.305D-03 0.332D-02 0.911D-01
 Coeff-Com:  0.298D+00 0.615D+00
 Coeff:      0.193D-04-0.113D-04 0.471D-06 0.776D-05-0.865D-06-0.289D-04
 Coeff:     -0.629D-04 0.105D-03 0.231D-03 0.773D-03 0.232D-03-0.498D-03
 Coeff:     -0.306D-02-0.359D-02-0.106D-02-0.305D-03 0.332D-02 0.911D-01
 Coeff:      0.298D+00 0.615D+00
 Gap=     0.043 Goal=   None    Shift=    0.000
 RMSDP=6.73D-09 MaxDP=3.69D-07 DE= 1.14D-13 OVMax= 8.00D-07

 SCF Done:  E(ROHF) =  -86.3483012678     A.U. after   30 cycles
            NFock= 30  Conv=0.67D-08     -V/T= 3.0826
 <Sx>= 0.0000 <Sy>= 0.0000 <Sz>= 2.5000 <S**2>= 8.7500 S= 2.5000
 <L.S>=  0.00000000000    
 KE= 4.146247218953D+01 PE=-2.005311568217D+02 EE= 6.742861125520D+01
 Annihilation of the first spin contaminant:
 S**2 before annihilation     8.7500,   after     8.7500
 Leave Link  502 at Mon Feb 26 02:51:49 2018, MaxMem=  8589934592 cpu:             267.8 elap:              19.5
 (Enter /home1/apps/gaussian/16rA.03/g16/l801.exe)
 Windowed orbitals will be sorted by symmetry type.
 GenMOA:  NOpAll=  4 NOp2=4 NOpUse=  4 JSym2X=1
 FoFJK:  IHMeth= 1 ICntrl=       0 DoSepK=F KAlg= 0 I1Cent=           0 FoldK=F
 IRaf=         0 NMat=       1 IRICut=       1 DoRegI=T DoRafI=F ISym2E= 1 IDoP0=0 IntGTp=1.
 FoFCou: FMM=F IPFlag=           8 FMFlag=      100000 FMFlg1=           0
         NFxFlg=           0 DoJE=F BraDBF=F KetDBF=F FulRan=T
         wScrn=  0.000000 ICntrl=         0 IOpCl=  1 I1Cent=           0 NGrid=           0
         NMat0=    1 NMatS0=      1 NMatT0=    0 NMatD0=    1 NMtDS0=    0 NMtDT0=    0
 Petite list used in FoFCou.
 <Sx>= 0.0000 <Sy>= 0.0000 <Sz>= 2.5000 <S**2>= 8.7500 S= 2.5000
 Range of M.O.s used for correlation:     1   206
 NBasis=   215 NAE=    10 NBE=     5 NFC=     0 NFV=     0
 NROrb=    206 NOA=    10 NOB=     5 NVA=   196 NVB=   201

 **** Warning!!: The largest alpha MO coefficient is  0.27559320D+03


 **** Warning!!: The largest beta MO coefficient is  0.27556114D+03

 Singles contribution to E2=   -0.3153909469D-02
 Leave Link  801 at Mon Feb 26 02:51:54 2018, MaxMem=  8589934592 cpu:              67.9 elap:               4.3
 (Enter /home1/apps/gaussian/16rA.03/g16/l804.exe)
 Open-shell transformation, MDV=  8589934592 ITran=4 ISComp=2.
 Unit  1 TFree=       1402778 TCopy=       1172105.
 Semi-Direct transformation.
 ModeAB=           2 MOrb=            10 LenV=    8588503309
 LASXX=     10847743 LTotXX=    10847743 LenRXX=    10847743
 LTotAB=    11067855 MaxLAS=    68826660 LenRXY=    68826660
 NonZer=    70262480 LenScr=   106127872 LnRSAI=           0
 LnScr1=           0 LExtra=     4209721 Total=    190011996
 MaxDsk= 67108864000 SrtSym=           F ITran=            4
 DoSDTr:  NPSUse= 16
 JobTyp=1 Pass  1:  I=   1 to  10.
 (rs|ai) integrals will be sorted in core.
 Complete sort for first half transformation.
 First half transformation complete.
 Begin second half transformation for I=  10.
 Begin second half transformation for I=  10.
 Complete sort for second half transformation.
 Second half transformation complete.
 ModeAB=           2 MOrb=             5 LenV=    8588503309
 LASXX=      5573031 LTotXX=     5573031 LenRXX=    34413330
 LTotAB=     5140906 MaxLAS=    34413330 LenRXY=     5140906
 NonZer=    35131240 LenScr=    53451264 LnRSAI=           0
 LnScr1=           0 LExtra=    83884124 Total=    176889624
 MaxDsk= 67108864000 SrtSym=           F ITran=            4
 DoSDTr:  NPSUse= 16
 JobTyp=2 Pass  1:  I=   1 to   5.
 (rs|ai) integrals will be sorted in core.
 Complete sort for first half transformation.
 First half transformation complete.
 Complete sort for second half transformation.
 Second half transformation complete.
 Spin components of T(2) and E(2):
     alpha-alpha T2 =       0.3087306737D-01 E2=     -0.1368533898D+00
     alpha-beta  T2 =       0.5610001743D-01 E2=     -0.3617148125D+00
     beta-beta   T2 =       0.6310294440D-02 E2=     -0.4042776594D-01
 ANorm=    0.1046578008D+01
 E2 =    -0.5421498777D+00 EUMP2 =    -0.86890451145484D+02
 (S**2,0)=  0.87500D+01           (S**2,1)=  0.87500D+01
 E(PUHF)=      -0.86348301268D+02        E(PMP2)=      -0.86890451145D+02
 Leave Link  804 at Mon Feb 26 02:53:22 2018, MaxMem=  8589934592 cpu:            1397.8 elap:              87.5
 (Enter /home1/apps/gaussian/16rA.03/g16/l913.exe)
 CIDS:  MDV=  8589934592.
 IFCWin=0 IBDFC=1 NFBD=     0     0 NFCmp=     0     0 NFFFC=     0     0
 Using original routines for 1st iteration.
 Using DD4UQ or CC4UQ for 2nd and later iterations.
 Keep R2 and R3 ints in memory in symmetry-blocked form, NReq=338807128.
 FoFCou: FMM=F IPFlag=           8 FMFlag=           0 FMFlg1=           0
         NFxFlg=           0 DoJE=F BraDBF=F KetDBF=F FulRan=T
         wScrn=  0.000000 ICntrl=       600 IOpCl=  0 I1Cent=           0 NGrid=           0
         NMat0=    1 NMatS0=  23220 NMatT0=    0 NMatD0=    1 NMtDS0=    0 NMtDT0=    0
 Petite list used in FoFCou.
 CIDS: In Core Option IDoMem=           1.
 CCSD(T)
 =======
 Iterations= 150 Convergence= 0.100D-06
 Produce multiple copies of IABC intergrals
 Iteration Nr.   1
 **********************
 DD1Dir will call FoFMem   1 times, MxPair=       156
 NAB=    50 NAA=    45 NBB=    10.
 DD1Dir will call FoFMem   1 times, MxPair=       156
 NAB=    50 NAA=    45 NBB=    10.
 MP4(R+Q)=  0.11990673D-01
 Maximum subspace dimension=  5
 A-vector RMS=  2.4067916D-04 Max=  2.2966735D-03 conv= 1.00D-05.
 RLE energy=       -0.5336038001
 E3=       -0.34486946D-02        EROMP3=      -0.86893899840D+02
 E4(SDQ)=  -0.54673687D-02        ROMP4(SDQ)=  -0.86899367209D+02
 VARIATIONAL ENERGIES WITH THE FIRST-ORDER WAVEFUNCTION:
 DE(Corr)= -0.53346577     E(Corr)=     -86.881767040    
 NORM(A)=   0.10440005D+01
 Iteration Nr.   2
 **********************
 DD1Dir will call FoFMem   1 times, MxPair=       156
 NAB=    50 NAA=    45 NBB=    10.
 A-vector RMS=  2.9644209D-03 Max=  2.8408300D-02 conv= 1.00D-05.
 RLE energy=       -0.5343769708
 DE(Corr)= -0.53682824     E(CORR)=     -86.885129510     Delta=-3.36D-03
 NORM(A)=   0.10445776D+01
 Iteration Nr.   3
 **********************
 DD1Dir will call FoFMem   1 times, MxPair=       156
 NAB=    50 NAA=    45 NBB=    10.
 A-vector RMS=  2.4083889D-03 Max=  2.5757952D-02 conv= 1.00D-05.
 RLE energy=       -0.5410613453
 DE(Corr)= -0.53975382     E(CORR)=     -86.888055088     Delta=-2.93D-03
 NORM(A)=   0.10485324D+01
 Iteration Nr.   4
 **********************
 DD1Dir will call FoFMem   1 times, MxPair=       156
 NAB=    50 NAA=    45 NBB=    10.
 A-vector RMS=  2.0931611D-03 Max=  2.4200913D-02 conv= 1.00D-05.
 RLE energy=       -0.9362353892
 DE(Corr)= -0.54297609     E(CORR)=     -86.891277358     Delta=-3.22D-03
 NORM(A)=   0.33553820D+01
 Iteration Nr.   5
 **********************
 DD1Dir will call FoFMem   1 times, MxPair=       156
 NAB=    50 NAA=    45 NBB=    10.
 A-vector RMS=  6.9604209D-02 Max=  9.9389931D-01 conv= 1.00D-05.
 RLE energy=       -0.6408692397
 DE(Corr)= -0.62843386     E(CORR)=     -86.976735129     Delta=-8.55D-02
 NORM(A)=   0.15150745D+01
 Iteration Nr.   6
 **********************
 DD1Dir will call FoFMem   1 times, MxPair=       156
 NAB=    50 NAA=    45 NBB=    10.
 A-vector RMS=  1.2179246D-02 Max=  1.0292543D-01 conv= 1.00D-05.
 RLE energy=       -0.5495967862
 DE(Corr)= -0.63249174     E(CORR)=     -86.980793011     Delta=-4.06D-03
 NORM(A)=   0.10679681D+01
 Iteration Nr.   7
 **********************
 DD1Dir will call FoFMem   1 times, MxPair=       156
 NAB=    50 NAA=    45 NBB=    10.
 A-vector RMS=  9.8314212D-04 Max=  1.8844486D-02 conv= 1.00D-05.
 RLE energy=       -0.5508457989
 DE(Corr)= -0.55271978     E(CORR)=     -86.901021045     Delta= 7.98D-02
 NORM(A)=   0.10708729D+01
 Iteration Nr.   8
 **********************
 DD1Dir will call FoFMem   1 times, MxPair=       156
 NAB=    50 NAA=    45 NBB=    10.
 A-vector RMS=  8.5522635D-04 Max=  1.7884323D-02 conv= 1.00D-05.
 RLE energy=       -0.5530346151
 DE(Corr)= -0.55319936     E(CORR)=     -86.901500628     Delta=-4.80D-04
 NORM(A)=   0.10820072D+01
 Iteration Nr.   9
 **********************
 DD1Dir will call FoFMem   1 times, MxPair=       156
 NAB=    50 NAA=    45 NBB=    10.
 A-vector RMS=  5.5364272D-04 Max=  1.2692561D-02 conv= 1.00D-05.
 RLE energy=       -0.5596625396
 DE(Corr)= -0.55459871     E(CORR)=     -86.902899977     Delta=-1.40D-03
 NORM(A)=   0.11302087D+01
 Iteration Nr.  10
 **********************
 DD1Dir will call FoFMem   1 times, MxPair=       156
 NAB=    50 NAA=    45 NBB=    10.
 A-vector RMS=  3.2581525D-04 Max=  3.8988223D-03 conv= 1.00D-05.
 RLE energy=       -0.5571232326
 DE(Corr)= -0.55858487     E(CORR)=     -86.906886138     Delta=-3.99D-03
 NORM(A)=   0.11135724D+01
 Iteration Nr.  11
 **********************
 DD1Dir will call FoFMem   1 times, MxPair=       156
 NAB=    50 NAA=    45 NBB=    10.
 A-vector RMS=  1.0853391D-04 Max=  1.5655191D-03 conv= 1.00D-05.
 RLE energy=       -0.5575449437
 DE(Corr)= -0.55733679     E(CORR)=     -86.905638058     Delta= 1.25D-03
 NORM(A)=   0.11169869D+01
 Iteration Nr.  12
 **********************
 DD1Dir will call FoFMem   1 times, MxPair=       156
 NAB=    50 NAA=    45 NBB=    10.
 A-vector RMS=  4.5697703D-05 Max=  4.6120703D-04 conv= 1.00D-05.
 RLE energy=       -0.5574718008
 DE(Corr)= -0.55746936     E(CORR)=     -86.905770626     Delta=-1.33D-04
 NORM(A)=   0.11176150D+01
 Iteration Nr.  13
 **********************
 DD1Dir will call FoFMem   1 times, MxPair=       156
 NAB=    50 NAA=    45 NBB=    10.
 A-vector RMS=  3.0815763D-05 Max=  2.7070141D-04 conv= 1.00D-05.
 RLE energy=       -0.5574531278
 DE(Corr)= -0.55749262     E(CORR)=     -86.905793890     Delta=-2.33D-05
 NORM(A)=   0.11173869D+01
 Iteration Nr.  14
 **********************
 DD1Dir will call FoFMem   1 times, MxPair=       156
 NAB=    50 NAA=    45 NBB=    10.
 A-vector RMS=  1.5260725D-05 Max=  1.6356886D-04 conv= 1.00D-05.
 RLE energy=       -0.5574599765
 DE(Corr)= -0.55744629     E(CORR)=     -86.905747555     Delta= 4.63D-05
 NORM(A)=   0.11175918D+01
 Iteration Nr.  15
 **********************
 DD1Dir will call FoFMem   1 times, MxPair=       156
 NAB=    50 NAA=    45 NBB=    10.
 A-vector RMS=  5.6827935D-06 Max=  6.6143849D-05 conv= 1.00D-05.
 RLE energy=       -0.5574680855
 DE(Corr)= -0.55746472     E(CORR)=     -86.905765988     Delta=-1.84D-05
 NORM(A)=   0.11176470D+01
 Iteration Nr.  16
 **********************
 DD1Dir will call FoFMem   1 times, MxPair=       156
 NAB=    50 NAA=    45 NBB=    10.
 A-vector RMS=  3.7989839D-06 Max=  4.3181261D-05 conv= 1.00D-05.
 RLE energy=       -0.5574710118
 DE(Corr)= -0.55746784     E(CORR)=     -86.905769103     Delta=-3.12D-06
 NORM(A)=   0.11176676D+01
 Iteration Nr.  17
 **********************
 DD1Dir will call FoFMem   1 times, MxPair=       156
 NAB=    50 NAA=    45 NBB=    10.
 A-vector RMS=  1.4940957D-06 Max=  1.4468812D-05 conv= 1.00D-05.
 RLE energy=       -0.5574700260
 DE(Corr)= -0.55747021     E(CORR)=     -86.905771476     Delta=-2.37D-06
 NORM(A)=   0.11176652D+01
 Iteration Nr.  18
 **********************
 DD1Dir will call FoFMem   1 times, MxPair=       156
 NAB=    50 NAA=    45 NBB=    10.
 A-vector RMS=  9.4472346D-07 Max=  9.5110141D-06 conv= 1.00D-05.
 RLE energy=       -0.5574701018
 DE(Corr)= -0.55747022     E(CORR)=     -86.905771490     Delta=-1.39D-08
 NORM(A)=   0.11176569D+01
 CI/CC converged in   18 iterations to DelEn=-1.39D-08 Conv= 1.00D-07 ErrA1= 9.45D-07 Conv= 1.00D-05
 Wavefunction amplitudes converged. E(Corr)=     -86.905771490    
 Dominant configurations:
 ***********************
 Spin Case        I    J    A    B          Value
    AA           10        14           -0.129420D+00
    AA           10        17            0.188802D+00
    AA           10        22            0.113639D+00
    AA           10        23           -0.111750D+00
    AA           10        24           -0.112110D+00
 Largest amplitude= 1.89D-01
 Time for triples=     4931.20 seconds.
 T4(CCSD)= -0.20415085D-01
 T5(CCSD)=  0.24745631D-02
 CCSD(T)= -0.86923712012D+02
 Discarding MO integrals.
 Leave Link  913 at Mon Feb 26 03:00:47 2018, MaxMem=  8589934592 cpu:            7108.5 elap:             445.1
 (Enter /home1/apps/gaussian/16rA.03/g16/l601.exe)
 Copying SCF densities to generalized density rwf, IOpCl= 0 IROHF=1.

 **********************************************************************

            Population analysis using the SCF density.

 **********************************************************************

 Orbital symmetries:
       Occupied  (SG) (SG) (PI) (PI) (SG) (SG) (PI) (PI) (DLTA)
                 (DLTA)
       Virtual   (PI) (PI) (SG) (SG) (PI) (PI) (SG) (DLTA) (DLTA)
                 (PI) (PI) (SG) (SG) (SG) (PI) (PI) (SG) (SG) (PI)
                 (PI) (DLTA) (DLTA) (PI) (PI) (SG) (SG) (PHI) (PHI)
                 (DLTA) (DLTA) (SG) (PI) (PI) (SG) (PI) (PI) (SG)
                 (PI) (PI) (DLTA) (DLTA) (DLTA) (DLTA) (SG) (PI)
                 (PI) (SG) (SG) (PI) (PI) (SG) (DLTA) (DLTA) (PHI)
                 (PHI) (PI) (PI) (SG) (PI) (PI) (?A) (?A) (PHI)
                 (PHI) (SG) (DLTA) (DLTA) (SG) (PI) (PI) (PI) (PI)
                 (DLTA) (DLTA) (SG) (SG) (DLTA) (DLTA) (PI) (PI)
                 (SG) (PI) (PI) (SG) (PHI) (PHI) (DLTA) (DLTA)
                 (PI) (PI) (SG) (SG) (PI) (PI) (PHI) (PHI) (?A)
                 (?A) (DLTA) (DLTA) (SG) (PI) (PI) (SG) (DLTA)
                 (DLTA) (PI) (PI) (SG) (SG) (DLTA) (DLTA) (PHI)
                 (PHI) (PI) (PI) (SG) (PI) (PI) (SG) (SG) (DLTA)
                 (DLTA) (PI) (PI) (PHI) (PHI) (?A) (?A) (DLTA)
                 (DLTA) (SG) (PI) (PI) (SG) (SG) (PI) (PI) (SG)
                 (DLTA) (DLTA) (PI) (PI) (SG) (SG) (PI) (PI) (SG)
                 (SG) (PI) (PI) (SG) (SG) (DLTA) (DLTA) (PI) (PI)
                 (SG) (PI) (PI) (SG) (SG) (DLTA) (DLTA) (PI) (PI)
                 (SG) (PI) (PI) (SG) (SG) (PI) (PI) (SG) (SG) (PI)
                 (PI) (SG) (SG) (SG) (PI) (PI) (SG) (SG) (PI) (PI)
                 (SG) (SG) (PI) (PI) (SG) (SG) (SG) (SG) (SG) (SG)
 The electronic state is 6-SG.
 Alpha  occ. eigenvalues --   -3.81298  -2.53098  -2.53098  -2.49654  -0.46134
 Alpha  occ. eigenvalues --   -0.46134  -0.45008  -0.43512  -0.43512  -0.26288
 Alpha virt. eigenvalues --    0.01499   0.01499   0.02219   0.02402   0.05710
 Alpha virt. eigenvalues --    0.05710   0.06052   0.07802   0.07802   0.08110
 Alpha virt. eigenvalues --    0.08110   0.08499   0.10112   0.18645   0.21159
 Alpha virt. eigenvalues --    0.21159   0.24246   0.26290   0.27879   0.27879
 Alpha virt. eigenvalues --    0.28071   0.28071   0.35175   0.35175   0.36055
 Alpha virt. eigenvalues --    0.47323   0.63368   0.63368   0.63888   0.63888
 Alpha virt. eigenvalues --    0.69936   0.69936   0.70482   0.71639   0.74973
 Alpha virt. eigenvalues --    0.74973   0.83294   0.91172   0.91172   0.93089
 Alpha virt. eigenvalues --    0.93089   1.08372   1.08372   1.08690   1.11296
 Alpha virt. eigenvalues --    1.11296   1.17911   1.47675   1.55958   1.55958
 Alpha virt. eigenvalues --    1.91557   1.91773   1.91773   1.92160   1.92160
 Alpha virt. eigenvalues --    2.16424   2.16424   2.24939   2.27319   2.27319
 Alpha virt. eigenvalues --    2.30257   2.30257   2.30838   2.30838   2.39206
 Alpha virt. eigenvalues --    2.48843   2.48843   2.62776   2.83234   2.83234
 Alpha virt. eigenvalues --    2.90178   2.90178   2.92458   2.92458   3.06970
 Alpha virt. eigenvalues --    3.26322   4.11405   4.11405   4.54784   4.54784
 Alpha virt. eigenvalues --    4.65174   4.80217   4.80217   5.27207   5.27207
 Alpha virt. eigenvalues --    5.28358   5.28358   5.32147   5.61408   5.61408
 Alpha virt. eigenvalues --    5.86218   6.50217   6.50952   6.50952   6.82532
 Alpha virt. eigenvalues --    6.82532   6.82970   6.82970   6.91756   6.91756
 Alpha virt. eigenvalues --    6.94631   7.03536   7.03536   7.51236   8.00684
 Alpha virt. eigenvalues --    8.00684   8.07057   8.07057   8.57295  10.83530
 Alpha virt. eigenvalues --   14.36161  14.36161  14.36921  14.36921  14.51902
 Alpha virt. eigenvalues --   14.51902  14.62812  15.39618  15.39618  15.45972
 Alpha virt. eigenvalues --   16.27984  18.42610  18.42610  18.45190  18.45190
 Alpha virt. eigenvalues --   18.53085  18.53085  18.54142  18.54142  18.57465
 Alpha virt. eigenvalues --   18.57465  18.63188  18.63291  18.63291  18.98337
 Alpha virt. eigenvalues --   30.65820  30.67662  30.67662  31.39400  40.54193
 Alpha virt. eigenvalues --   40.54193  40.56353  40.56353  40.82202  56.76008
 Alpha virt. eigenvalues --   56.96162  56.96162  57.53841  62.39953 105.53142
 Alpha virt. eigenvalues --  105.53142 105.55961 107.63332 109.09845 109.09845
 Alpha virt. eigenvalues --  109.11668 109.11668 109.46460 200.73160 200.73160
 Alpha virt. eigenvalues --  200.83898 208.57844 370.61669 370.61669 370.63043
 Alpha virt. eigenvalues --  370.63043 370.75959 398.00972 398.00972 398.13046
 Alpha virt. eigenvalues --  418.98553 831.57251 831.57251 831.68718 869.59923
 Alpha virt. eigenvalues -- 1856.775751856.775751856.851791860.862084122.95487
 Alpha virt. eigenvalues -- 4542.103394542.103394542.198309535.93845**********
 Alpha virt. eigenvalues -- **************************************************
 Alpha virt. eigenvalues -- **************************************************
 Alpha virt. eigenvalues -- **********
     Molecular Orbital Coefficients:
                           1         2         3         4         5
                           O         O         O         O         O
     Eigenvalues --    -3.81298  -2.53098  -2.53098  -2.49654  -0.46134
   1 1   Cr 1S         -0.00000  -0.00000   0.00000   0.00000  -0.00000
   2        2S          0.00000   0.00000   0.00000   0.00000   0.00000
   3        3S         -0.00000  -0.00000   0.00000   0.00000  -0.00000
   4        4S          0.00000   0.00000   0.00000   0.00000   0.00000
   5        5S         -0.00000  -0.00000   0.00000   0.00000  -0.00000
   6        6S          0.00001   0.00000   0.00000   0.00000   0.00000
   7        7S         -0.00003  -0.00000   0.00000   0.00000  -0.00001
   8        8S          0.00011   0.00000   0.00000   0.00000   0.00002
   9        9S         -0.00031  -0.00001   0.00000   0.00000  -0.00005
  10       10S          0.00081   0.00003   0.00000   0.00000   0.00014
  11       11S         -0.00164  -0.00008   0.00000   0.00000  -0.00030
  12       12S          0.00095   0.00018   0.00000   0.00000   0.00028
  13       13S          0.03000  -0.00060   0.00000   0.00000   0.00439
  14       14S         -0.30746   0.00246   0.00000   0.00000  -0.05191
  15       15S          2.48772  -0.03059   0.00000   0.00000   0.49352
  16       16S         -0.17155  -0.00748   0.00000   0.00000  -0.01081
  17       17S         -1.23003  -0.03491   0.00000   0.00000  -0.27927
  18       18S         -0.22124  -0.00910   0.00000   0.00000  -0.07475
  19       19S          0.02594  -0.01056   0.00000   0.00000   0.12985
  20       20S          0.00226   0.00723   0.00000   0.00000  -0.04236
  21       21S         -1.89649   0.03239   0.00000   0.00000  -0.40236
  22       22S          0.43438   0.04390   0.00000   0.00000   0.05971
  23       23S          0.00072   0.00227   0.00000   0.00000  -0.02181
  24       24PX         0.00000   0.00000   0.00000   0.00000   0.00000
  25       24PY         0.00000   0.00000   0.00000   0.00000   0.00000
  26       24PZ         0.00000   0.00000   0.00000   0.00000  -0.00000
  27       25PX         0.00000   0.00000   0.00000  -0.00001   0.00000
  28       25PY         0.00000   0.00000  -0.00001   0.00000   0.00000
  29       25PZ        -0.00000  -0.00001   0.00000   0.00000   0.00000
  30       26PX         0.00000   0.00000   0.00000   0.00005   0.00000
  31       26PY         0.00000   0.00000   0.00005   0.00000   0.00000
  32       26PZ         0.00000   0.00005   0.00000   0.00000  -0.00001
  33       27PX         0.00000   0.00000   0.00000  -0.00020   0.00000
  34       27PY         0.00000   0.00000  -0.00020   0.00000   0.00000
  35       27PZ        -0.00000  -0.00020   0.00000   0.00000   0.00004
  36       28PX         0.00000   0.00000   0.00000   0.00075   0.00000
  37       28PY         0.00000   0.00000   0.00075   0.00000   0.00000
  38       28PZ         0.00001   0.00074   0.00000   0.00000  -0.00013
  39       29PX         0.00000   0.00000   0.00000  -0.00255   0.00000
  40       29PY         0.00000   0.00000  -0.00255   0.00000   0.00000
  41       29PZ        -0.00004  -0.00252   0.00000   0.00000   0.00045
  42       30PX         0.00000   0.00000   0.00000   0.00818   0.00000
  43       30PY         0.00000   0.00000   0.00818   0.00000   0.00000
  44       30PZ         0.00013   0.00810   0.00000   0.00000  -0.00147
  45       31PX         0.00000   0.00000   0.00000  -0.02525   0.00000
  46       31PY         0.00000   0.00000  -0.02525   0.00000   0.00000
  47       31PZ        -0.00041  -0.02499   0.00000   0.00000   0.00471
  48       32PX         0.00000   0.00000   0.00000   0.03773   0.00000
  49       32PY         0.00000   0.00000   0.03773   0.00000   0.00000
  50       32PZ         0.00167   0.03665   0.00000   0.00000  -0.00937
  51       33PX         0.00000   0.00000   0.00000  -1.12921   0.00000
  52       33PY         0.00000   0.00000  -1.12921   0.00000   0.00000
  53       33PZ         0.03947  -1.14893   0.00000   0.00000   0.13589
  54       34PX         0.00000   0.00000   0.00000  -0.30435   0.00000
  55       34PY         0.00000   0.00000  -0.30435   0.00000   0.00000
  56       34PZ        -0.00354  -0.30168   0.00000   0.00000   0.06132
  57       35PX         0.00000   0.00000   0.00000  -0.45606   0.00000
  58       35PY         0.00000   0.00000  -0.45606   0.00000   0.00000
  59       35PZ        -0.01182  -0.44933   0.00000   0.00000   0.06539
  60       36PX         0.00000   0.00000   0.00000  -0.25084   0.00000
  61       36PY         0.00000   0.00000  -0.25084   0.00000   0.00000
  62       36PZ        -0.00645  -0.24479   0.00000   0.00000   0.04574
  63       37PX         0.00000   0.00000   0.00000  -0.03772   0.00000
  64       37PY         0.00000   0.00000  -0.03772   0.00000   0.00000
  65       37PZ        -0.01521  -0.03263   0.00000   0.00000  -0.01831
  66       38PX         0.00000   0.00000   0.00000   0.00598   0.00000
  67       38PY         0.00000   0.00000   0.00598   0.00000   0.00000
  68       38PZ        -0.00951   0.00839   0.00000   0.00000  -0.01543
  69       39PX         0.00000   0.00000   0.00000  -0.00292   0.00000
  70       39PY         0.00000   0.00000  -0.00292   0.00000   0.00000
  71       39PZ        -0.00002  -0.00570   0.00000   0.00000   0.01867
  72       40PX         0.00000   0.00000   0.00000   1.13034   0.00000
  73       40PY         0.00000   0.00000   1.13034   0.00000   0.00000
  74       40PZ        -0.03831   1.14972   0.00000   0.00000  -0.13508
  75       41PX         0.00000   0.00000   0.00000  -0.03605   0.00000
  76       41PY         0.00000   0.00000  -0.03605   0.00000   0.00000
  77       41PZ         0.01606  -0.04504   0.00000   0.00000   0.02645
  78       42PX         0.00000   0.00000   0.00000   0.00090   0.00000
  79       42PY         0.00000   0.00000   0.00090   0.00000   0.00000
  80       42PZ        -0.00037  -0.00028   0.00000   0.00000   0.01033
  81       43D 0        0.00000  -0.00001   0.00000   0.00000   0.00015
  82       43D+1        0.00000   0.00000   0.00000   0.00000   0.00000
  83       43D-1        0.00000   0.00000   0.00000   0.00000   0.00000
  84       43D+2        0.00000  -0.00000   0.00000   0.00000   0.00000
  85       43D-2        0.00000   0.00000   0.00000   0.00000   0.00000
  86       44D 0       -0.00002   0.00008   0.00000   0.00000  -0.00140
  87       44D+1        0.00000   0.00000   0.00000  -0.00002   0.00000
  88       44D-1        0.00000   0.00000  -0.00002   0.00000   0.00000
  89       44D+2       -0.00000   0.00000   0.00000   0.00000  -0.00000
  90       44D-2        0.00000   0.00000   0.00000   0.00000   0.00000
  91       45D 0        0.00014  -0.00061   0.00000   0.00000   0.01056
  92       45D+1        0.00000   0.00000   0.00000   0.00017   0.00000
  93       45D-1        0.00000   0.00000   0.00017   0.00000   0.00000
  94       45D+2        0.00000  -0.00000   0.00000   0.00000   0.00000
  95       45D-2        0.00000   0.00000   0.00000   0.00000   0.00000
  96       46D 0       -0.00918  -0.00147   0.00000   0.00000   0.11008
  97       46D+1        0.00000   0.00000   0.00000   0.00127   0.00000
  98       46D-1        0.00000   0.00000   0.00127   0.00000   0.00000
  99       46D+2        0.00000  -0.00000   0.00000   0.00000   0.00000
 100       46D-2        0.00000   0.00000   0.00000   0.00000   0.00000
 101       47D 0        0.08226  -0.05509   0.00000   0.00000   0.08065
 102       47D+1        0.00000   0.00000   0.00000  -0.00360   0.00000
 103       47D-1        0.00000   0.00000  -0.00360   0.00000   0.00000
 104       47D+2        0.00000  -0.00000   0.00000   0.00000   0.00000
 105       47D-2        0.00000   0.00000   0.00000   0.00000   0.00000
 106       48D 0        0.00248  -0.00362   0.00000   0.00000   0.10679
 107       48D+1        0.00000   0.00000   0.00000  -0.00170   0.00000
 108       48D-1        0.00000   0.00000  -0.00170   0.00000   0.00000
 109       48D+2        0.00000  -0.00000   0.00000   0.00000   0.00000
 110       48D-2        0.00000   0.00000   0.00000   0.00000   0.00000
 111       49D 0        0.00816  -0.00007   0.00000   0.00000   0.07198
 112       49D+1        0.00000   0.00000   0.00000  -0.00129   0.00000
 113       49D-1        0.00000   0.00000  -0.00129   0.00000   0.00000
 114       49D+2        0.00000   0.00000   0.00000   0.00000   0.00000
 115       49D-2        0.00000   0.00000   0.00000   0.00000   0.00000
 116       50D 0        0.00197  -0.00044   0.00000   0.00000   0.01726
 117       50D+1        0.00000   0.00000   0.00000  -0.00031   0.00000
 118       50D-1        0.00000   0.00000  -0.00031   0.00000   0.00000
 119       50D+2        0.00000   0.00000   0.00000   0.00000   0.00000
 120       50D-2        0.00000   0.00000   0.00000   0.00000   0.00000
 121       51D 0        0.00952  -0.00144   0.00000   0.00000  -0.05521
 122       51D+1        0.00000   0.00000   0.00000  -0.00016   0.00000
 123       51D-1        0.00000   0.00000  -0.00016   0.00000   0.00000
 124       51D+2       -0.00000   0.00000   0.00000   0.00000  -0.00000
 125       51D-2        0.00000   0.00000   0.00000   0.00000   0.00000
 126       52D 0       -0.08721   0.05142   0.00000   0.00000   0.02047
 127       52D+1        0.00000   0.00000   0.00000   0.00477   0.00000
 128       52D-1        0.00000   0.00000   0.00477   0.00000   0.00000
 129       52D+2        0.00000  -0.00000   0.00000   0.00000   0.00000
 130       52D-2        0.00000   0.00000   0.00000   0.00000   0.00000
 131       53D 0       -0.00009   0.00085   0.00000   0.00000  -0.00660
 132       53D+1        0.00000   0.00000   0.00000   0.00001   0.00000
 133       53D-1        0.00000   0.00000   0.00001   0.00000   0.00000
 134       53D+2       -0.00000   0.00000   0.00000   0.00000  -0.00000
 135       53D-2        0.00000   0.00000   0.00000   0.00000   0.00000
 136       54F 0       -0.00024   0.00055   0.00000   0.00000  -0.00062
 137       54F+1        0.00000   0.00000   0.00000  -0.00118   0.00000
 138       54F-1        0.00000   0.00000  -0.00118   0.00000   0.00000
 139       54F+2       -0.00000   0.00000   0.00000   0.00000  -0.00000
 140       54F-2        0.00000   0.00000   0.00000   0.00000   0.00000
 141       54F+3        0.00000   0.00000   0.00000   0.00000   0.00000
 142       54F-3        0.00000   0.00000   0.00000   0.00000   0.00000
 143       55F 0       -0.00018   0.00097   0.00000   0.00000  -0.00559
 144       55F+1        0.00000   0.00000   0.00000  -0.00261   0.00000
 145       55F-1        0.00000   0.00000  -0.00261   0.00000   0.00000
 146       55F+2       -0.00000   0.00000   0.00000   0.00000  -0.00000
 147       55F-2        0.00000   0.00000   0.00000   0.00000   0.00000
 148       55F+3        0.00000   0.00000   0.00000   0.00000   0.00000
 149       55F-3        0.00000   0.00000   0.00000   0.00000   0.00000
 150       56F 0       -0.00268   0.00259   0.00000   0.00000  -0.00779
 151       56F+1        0.00000   0.00000   0.00000  -0.00114   0.00000
 152       56F-1        0.00000   0.00000  -0.00114   0.00000   0.00000
 153       56F+2        0.00000   0.00000   0.00000   0.00000  -0.00000
 154       56F-2        0.00000   0.00000   0.00000   0.00000   0.00000
 155       56F+3        0.00000   0.00000   0.00000  -0.00000   0.00000
 156       56F-3        0.00000   0.00000   0.00000   0.00000   0.00000
 157       57F 0       -0.00163   0.00047   0.00000   0.00000  -0.00187
 158       57F+1        0.00000   0.00000   0.00000   0.00004   0.00000
 159       57F-1        0.00000   0.00000   0.00004   0.00000   0.00000
 160       57F+2        0.00000  -0.00000   0.00000   0.00000  -0.00000
 161       57F-2        0.00000   0.00000   0.00000   0.00000   0.00000
 162       57F+3        0.00000   0.00000   0.00000   0.00000   0.00000
 163       57F-3        0.00000   0.00000  -0.00000   0.00000   0.00000
 164       58G 0        0.00016   0.00011   0.00000   0.00000   0.00011
 165       58G+1        0.00000   0.00000   0.00000   0.00009   0.00000
 166       58G-1        0.00000   0.00000   0.00009   0.00000   0.00000
 167       58G+2        0.00000   0.00000   0.00000   0.00000  -0.00000
 168       58G-2        0.00000   0.00000   0.00000   0.00000   0.00000
 169       58G+3        0.00000   0.00000   0.00000   0.00000   0.00000
 170       58G-3        0.00000   0.00000   0.00000   0.00000   0.00000
 171       58G+4       -0.00000   0.00000   0.00000   0.00000  -0.00000
 172       58G-4        0.00000   0.00000   0.00000   0.00000   0.00000
 173       59G 0        0.00039   0.00009   0.00000   0.00000   0.00167
 174       59G+1        0.00000   0.00000   0.00000  -0.00014   0.00000
 175       59G-1        0.00000   0.00000  -0.00014   0.00000   0.00000
 176       59G+2        0.00000  -0.00000   0.00000   0.00000  -0.00000
 177       59G-2        0.00000   0.00000   0.00000   0.00000   0.00000
 178       59G+3        0.00000   0.00000   0.00000  -0.00000   0.00000
 179       59G-3        0.00000   0.00000  -0.00000   0.00000   0.00000
 180       59G+4        0.00000   0.00000   0.00000   0.00000   0.00000
 181       59G-4        0.00000   0.00000   0.00000   0.00000   0.00000
 182       60G 0        0.00125   0.00013   0.00000   0.00000   0.00061
 183       60G+1        0.00000   0.00000   0.00000  -0.00003   0.00000
 184       60G-1        0.00000   0.00000  -0.00003   0.00000   0.00000
 185       60G+2        0.00000   0.00000   0.00000   0.00000  -0.00000
 186       60G-2        0.00000   0.00000   0.00000   0.00000   0.00000
 187       60G+3        0.00000   0.00000   0.00000   0.00000   0.00000
 188       60G-3        0.00000   0.00000  -0.00000   0.00000   0.00000
 189       60G+4       -0.00000   0.00000   0.00000   0.00000  -0.00000
 190       60G-4        0.00000   0.00000   0.00000   0.00000   0.00000
 191 2   H  1S         -0.00011   0.00042   0.00000   0.00000   0.00532
 192        2S         -0.00052   0.00248   0.00000   0.00000   0.03870
 193        3S         -0.00156   0.01119   0.00000   0.00000   0.15602
 194        4S         -0.01967   0.01494   0.00000   0.00000   0.38722
 195        5S         -0.02616   0.00794   0.00000   0.00000   0.37218
 196        6S         -0.00269  -0.00891   0.00000   0.00000   0.09384
 197        7PX         0.00000   0.00000   0.00000  -0.00064   0.00000
 198        7PY         0.00000   0.00000  -0.00064   0.00000   0.00000
 199        7PZ        -0.00142   0.00351   0.00000   0.00000   0.00805
 200        8PX         0.00000   0.00000   0.00000  -0.00037   0.00000
 201        8PY         0.00000   0.00000  -0.00037   0.00000   0.00000
 202        8PZ        -0.01107   0.00511   0.00000   0.00000   0.05145
 203        9PX         0.00000   0.00000   0.00000  -0.00019   0.00000
 204        9PY         0.00000   0.00000  -0.00019   0.00000   0.00000
 205        9PZ        -0.00878   0.00138   0.00000   0.00000   0.05041
 206       10D 0       -0.00191   0.00151   0.00000   0.00000   0.00464
 207       10D+1        0.00000   0.00000   0.00000  -0.00049   0.00000
 208       10D-1        0.00000   0.00000  -0.00049   0.00000   0.00000
 209       10D+2       -0.00000   0.00000   0.00000   0.00000  -0.00000
 210       10D-2        0.00000   0.00000   0.00000   0.00000   0.00000
 211       11D 0       -0.00237   0.00096   0.00000   0.00000   0.00923
 212       11D+1        0.00000   0.00000   0.00000   0.00017   0.00000
 213       11D-1        0.00000   0.00000   0.00017   0.00000   0.00000
 214       11D+2       -0.00000   0.00000   0.00000   0.00000  -0.00000
 215       11D-2        0.00000   0.00000   0.00000   0.00000   0.00000
                           6         7         8         9        10
                           O         O         O         O         O
[...]
     Gross orbital populations:
                         Total     Alpha     Beta      Spin
   1 1   Cr 1S          0.00000   0.00000   0.00000   0.00000
   2        2S         -0.00000  -0.00000  -0.00000  -0.00000
   3        3S          0.00000   0.00000   0.00000   0.00000
   4        4S         -0.00000  -0.00000  -0.00000  -0.00000
   5        5S          0.00000   0.00000   0.00000   0.00000
   6        6S         -0.00000  -0.00000  -0.00000  -0.00000
   7        7S          0.00000   0.00000   0.00000   0.00000
   8        8S         -0.00000  -0.00000  -0.00000  -0.00000
   9        9S          0.00000   0.00000   0.00000   0.00000
  10       10S         -0.00002  -0.00001  -0.00001  -0.00000
  11       11S          0.00008   0.00004   0.00004   0.00000
  12       12S         -0.00009  -0.00005  -0.00004  -0.00000
  13       13S         -0.00602  -0.00306  -0.00296  -0.00010
  14       14S          0.13258   0.06750   0.06509   0.00241
  15       15S         -2.19732  -1.12018  -1.07714  -0.04305
  16       16S          0.26163   0.13130   0.13033   0.00097
  17       17S          2.40465   1.21089   1.19376   0.01713
  18       18S          0.38073   0.18217   0.19856  -0.01639
  19       19S          0.56270   0.50512   0.05758   0.44753
  20       20S          0.17329   0.19481  -0.02152   0.21634
  21       21S          1.84584   0.94197   0.90386   0.03811
  22       22S         -0.83917  -0.42177  -0.41740  -0.00437
  23       23S         -0.01809  -0.01084  -0.00726  -0.00358
  24       24PX        -0.00000  -0.00000  -0.00000  -0.00000
  25       24PY        -0.00000  -0.00000  -0.00000  -0.00000
  26       24PZ        -0.00000  -0.00000  -0.00000  -0.00000
  27       25PX         0.00000   0.00000   0.00000   0.00000
  28       25PY         0.00000   0.00000   0.00000   0.00000
  29       25PZ         0.00000   0.00000   0.00000   0.00000
  30       26PX        -0.00000  -0.00000  -0.00000  -0.00000
  31       26PY        -0.00000  -0.00000  -0.00000  -0.00000
  32       26PZ        -0.00000  -0.00000  -0.00000  -0.00000
  33       27PX         0.00000   0.00000   0.00000   0.00000
  34       27PY         0.00000   0.00000   0.00000   0.00000
  35       27PZ         0.00000   0.00000   0.00000   0.00000
  36       28PX        -0.00001  -0.00001  -0.00001  -0.00000
  37       28PY        -0.00001  -0.00001  -0.00001  -0.00000
  38       28PZ        -0.00001  -0.00001  -0.00001  -0.00000
  39       29PX         0.00013   0.00006   0.00006   0.00000
  40       29PY         0.00013   0.00006   0.00006   0.00000
  41       29PZ         0.00013   0.00006   0.00006   0.00000
  42       30PX        -0.00102  -0.00051  -0.00051  -0.00000
  43       30PY        -0.00102  -0.00051  -0.00051  -0.00000
  44       30PZ        -0.00105  -0.00053  -0.00052  -0.00001
  45       31PX         0.00755   0.00378   0.00377   0.00000
  46       31PY         0.00755   0.00378   0.00377   0.00000
  47       31PZ         0.00774   0.00390   0.00384   0.00005
  48       32PX        -0.02432  -0.01216  -0.01216  -0.00000
  49       32PY        -0.02432  -0.01216  -0.01216  -0.00000
  50       32PZ        -0.02472  -0.01245  -0.01227  -0.00018
  51       33PX         1.32617   0.66323   0.66294   0.00029
  52       33PY         1.32617   0.66323   0.66294   0.00029
  53       33PZ         1.38005   0.69494   0.68511   0.00983
  54       34PX         0.52802   0.26405   0.26397   0.00008
  55       34PY         0.52802   0.26405   0.26397   0.00008
  56       34PZ         0.53828   0.27058   0.26770   0.00288
  57       35PX         0.90372   0.45188   0.45183   0.00005
  58       35PY         0.90372   0.45188   0.45183   0.00005
  59       35PZ         0.89856   0.45041   0.44814   0.00227
  60       36PX         0.43186   0.21592   0.21593  -0.00001
  61       36PY         0.43186   0.21592   0.21593  -0.00001
  62       36PZ         0.40752   0.20194   0.20557  -0.00363
  63       37PX         0.03896   0.02008   0.01888   0.00119
  64       37PY         0.03896   0.02008   0.01888   0.00119
  65       37PZ         0.09518   0.07102   0.02416   0.04686
  66       38PX        -0.00161  -0.00023  -0.00138   0.00115
  67       38PY        -0.00161  -0.00023  -0.00138   0.00115
  68       38PZ         0.10929   0.10403   0.00527   0.09876
  69       39PX         0.00057   0.00032   0.00025   0.00007
  70       39PY         0.00057   0.00032   0.00025   0.00007
  71       39PZ         0.02445   0.02982  -0.00537   0.03519
  72       40PX        -1.27905  -0.63966  -0.63938  -0.00028
  73       40PY        -1.27905  -0.63966  -0.63938  -0.00028
  74       40PZ        -1.33052  -0.66994  -0.66058  -0.00936
  75       41PX         0.07145   0.03573   0.03572   0.00001
  76       41PY         0.07145   0.03573   0.03572   0.00001
  77       41PZ         0.09219   0.04620   0.04599   0.00022
  78       42PX        -0.00005  -0.00002  -0.00003   0.00000
  79       42PY        -0.00005  -0.00002  -0.00003   0.00000
  80       42PZ        -0.00356  -0.00205  -0.00151  -0.00054
  81       43D 0        0.00000   0.00000   0.00000   0.00000
  82       43D+1        0.00001   0.00001   0.00000   0.00001
  83       43D-1        0.00001   0.00001   0.00000   0.00001
  84       43D+2        0.00001   0.00001   0.00000   0.00001
  85       43D-2        0.00001   0.00001   0.00000   0.00001
  86       44D 0       -0.00015  -0.00011  -0.00004  -0.00007
  87       44D+1       -0.00062  -0.00062  -0.00000  -0.00062
  88       44D-1       -0.00062  -0.00062  -0.00000  -0.00062
  89       44D+2       -0.00061  -0.00061  -0.00000  -0.00061
  90       44D-2       -0.00061  -0.00061  -0.00000  -0.00061
  91       45D 0        0.00347   0.00250   0.00097   0.00152
  92       45D+1        0.01456   0.01456   0.00000   0.01456
  93       45D-1        0.01456   0.01456   0.00000   0.01456
  94       45D+2        0.01436   0.01436   0.00000   0.01436
  95       45D-2        0.01436   0.01436   0.00000   0.01436
  96       46D 0        0.06664   0.04665   0.01999   0.02666
  97       46D+1        0.25997   0.25997   0.00000   0.25997
  98       46D-1        0.25997   0.25997   0.00000   0.25997
  99       46D+2        0.25575   0.25575   0.00000   0.25575
 100       46D-2        0.25575   0.25575   0.00000   0.25575
 101       47D 0        0.06219   0.03948   0.02271   0.01677
 102       47D+1        0.18626   0.18626  -0.00000   0.18626
 103       47D-1        0.18626   0.18626  -0.00000   0.18626
 104       47D+2        0.18387   0.18387   0.00000   0.18387
 105       47D-2        0.18387   0.18387   0.00000   0.18387
 106       48D 0        0.13671   0.09288   0.04384   0.04904
 107       48D+1        0.33129   0.33128   0.00000   0.33128
 108       48D-1        0.33129   0.33128   0.00000   0.33128
 109       48D+2        0.33382   0.33382   0.00000   0.33382
 110       48D-2        0.33382   0.33382   0.00000   0.33382
 111       49D 0        0.11878   0.08256   0.03622   0.04634
 112       49D+1        0.16601   0.16601   0.00000   0.16600
 113       49D-1        0.16601   0.16601   0.00000   0.16600
 114       49D+2        0.17335   0.17335   0.00000   0.17335
 115       49D-2        0.17335   0.17335   0.00000   0.17335
 116       50D 0        0.02082   0.01498   0.00584   0.00914
 117       50D+1        0.01622   0.01622   0.00000   0.01622
 118       50D-1        0.01622   0.01622   0.00000   0.01622
 119       50D+2        0.01744   0.01744   0.00000   0.01744
 120       50D-2        0.01744   0.01744   0.00000   0.01744
 121       51D 0       -0.03354  -0.02283  -0.01071  -0.01213
 122       51D+1       -0.12435  -0.12434  -0.00000  -0.12434
 123       51D-1       -0.12435  -0.12434  -0.00000  -0.12434
 124       51D+2       -0.12225  -0.12225  -0.00000  -0.12225
 125       51D-2       -0.12225  -0.12225  -0.00000  -0.12225
 126       52D 0        0.03166   0.02589   0.00578   0.02011
 127       52D+1        0.14681   0.14681   0.00000   0.14680
 128       52D-1        0.14681   0.14681   0.00000   0.14680
 129       52D+2        0.14449   0.14449   0.00000   0.14449
 130       52D-2        0.14449   0.14449   0.00000   0.14449
 131       53D 0       -0.00130  -0.00052  -0.00078   0.00025
 132       53D+1       -0.00021  -0.00021  -0.00000  -0.00021
 133       53D-1       -0.00021  -0.00021  -0.00000  -0.00021
 134       53D+2       -0.00023  -0.00023  -0.00000  -0.00023
 135       53D-2       -0.00023  -0.00023  -0.00000  -0.00023
 136       54F 0        0.00001   0.00001   0.00001  -0.00000
 137       54F+1        0.00001   0.00000   0.00000  -0.00000
 138       54F-1        0.00001   0.00000   0.00000  -0.00000
 139       54F+2       -0.00000  -0.00000   0.00000  -0.00000
 140       54F-2       -0.00000  -0.00000   0.00000  -0.00000
 141       54F+3        0.00000   0.00000   0.00000  -0.00000
 142       54F-3        0.00000   0.00000   0.00000   0.00000
 143       55F 0        0.00041   0.00021   0.00021  -0.00000
 144       55F+1        0.00002   0.00001   0.00001   0.00000
 145       55F-1        0.00002   0.00001   0.00001   0.00000
 146       55F+2        0.00000   0.00000   0.00000   0.00000
 147       55F-2        0.00000   0.00000   0.00000   0.00000
 148       55F+3        0.00000   0.00000   0.00000   0.00000
 149       55F-3        0.00000   0.00000   0.00000  -0.00000
 150       56F 0        0.00243   0.00124   0.00119   0.00005
 151       56F+1        0.00001   0.00001   0.00000   0.00000
 152       56F-1        0.00001   0.00001   0.00000   0.00000
 153       56F+2        0.00006   0.00006   0.00000   0.00006
 154       56F-2        0.00006   0.00006   0.00000   0.00006
 155       56F+3        0.00000   0.00000  -0.00000   0.00000
 156       56F-3        0.00000   0.00000   0.00000   0.00000
 157       57F 0        0.00057   0.00020   0.00037  -0.00017
 158       57F+1        0.00000   0.00000  -0.00000   0.00000
 159       57F-1        0.00000   0.00000  -0.00000   0.00000
 160       57F+2        0.00010   0.00010   0.00000   0.00010
 161       57F-2        0.00010   0.00010   0.00000   0.00010
 162       57F+3        0.00000   0.00000   0.00000   0.00000
 163       57F-3        0.00000   0.00000   0.00000   0.00000
 164       58G 0        0.00000   0.00000   0.00000  -0.00000
 165       58G+1        0.00000   0.00000   0.00000   0.00000
 166       58G-1        0.00000   0.00000   0.00000   0.00000
 167       58G+2        0.00000   0.00000   0.00000   0.00000
 168       58G-2        0.00000   0.00000   0.00000   0.00000
 169       58G+3        0.00000   0.00000   0.00000   0.00000
 170       58G-3        0.00000   0.00000  -0.00000   0.00000
 171       58G+4        0.00000   0.00000   0.00000   0.00000
 172       58G-4        0.00000   0.00000   0.00000   0.00000
 173       59G 0        0.00008   0.00004   0.00004   0.00000
 174       59G+1       -0.00000  -0.00000  -0.00000  -0.00000
 175       59G-1       -0.00000  -0.00000  -0.00000  -0.00000
 176       59G+2        0.00000   0.00000   0.00000   0.00000
 177       59G-2        0.00000   0.00000   0.00000   0.00000
 178       59G+3        0.00000   0.00000   0.00000   0.00000
 179       59G-3        0.00000   0.00000   0.00000   0.00000
 180       59G+4        0.00000   0.00000   0.00000   0.00000
 181       59G-4        0.00000   0.00000   0.00000   0.00000
 182       60G 0        0.00021   0.00015   0.00007   0.00008
 183       60G+1       -0.00000  -0.00000  -0.00000  -0.00000
 184       60G-1       -0.00000  -0.00000  -0.00000  -0.00000
 185       60G+2        0.00000   0.00000   0.00000   0.00000
 186       60G-2        0.00000   0.00000   0.00000   0.00000
 187       60G+3        0.00000   0.00000  -0.00000   0.00000
 188       60G-3        0.00000   0.00000   0.00000   0.00000
 189       60G+4        0.00000   0.00000   0.00000   0.00000
 190       60G-4        0.00000   0.00000   0.00000   0.00000
 191 2   H  1S          0.00128   0.00066   0.00062   0.00004
 192        2S          0.02931   0.01506   0.01425   0.00081
 193        3S          0.23124   0.11901   0.11224   0.00677
 194        4S          0.71034   0.35739   0.35295   0.00443
 195        5S          0.60261   0.29493   0.30768  -0.01276
 196        6S          0.10148   0.05406   0.04742   0.00665
 197        7PX         0.00070   0.00069   0.00001   0.00067
 198        7PY         0.00070   0.00069   0.00001   0.00067
 199        7PZ         0.00219   0.00115   0.00105   0.00010
 200        8PX         0.00161   0.00156   0.00004   0.00152
 201        8PY         0.00161   0.00156   0.00004   0.00152
 202        8PZ         0.01279   0.00700   0.00579   0.00120
 203        9PX        -0.00053  -0.00056   0.00003  -0.00059
 204        9PY        -0.00053  -0.00056   0.00003  -0.00059
 205        9PZ         0.00452   0.00105   0.00347  -0.00241
 206       10D 0        0.00086   0.00042   0.00044  -0.00002
 207       10D+1        0.00053   0.00050   0.00003   0.00046
 208       10D-1        0.00053   0.00050   0.00003   0.00046
 209       10D+2        0.00004   0.00004  -0.00000   0.00004
 210       10D-2        0.00004   0.00004  -0.00000   0.00004
 211       11D 0        0.00004   0.00013  -0.00009   0.00023
 212       11D+1       -0.00066  -0.00061  -0.00005  -0.00055
 213       11D-1       -0.00066  -0.00061  -0.00005  -0.00055
 214       11D+2       -0.00020  -0.00020  -0.00000  -0.00020
 215       11D-2       -0.00020  -0.00020  -0.00000  -0.00020
          Condensed to atoms (all electrons):
               1          2
     1  Cr  13.229528   0.070830
     2  H    0.070830   1.628813
          Atomic-Atomic Spin Densities.
               1          2
     1  Cr   5.001390  -0.009129
     2  H   -0.009129   0.016868
 Mulliken charges and spin densities:
               1          2
     1  Cr   0.699643   4.992261
     2  H   -0.699643   0.007739
 Sum of Mulliken charges =  -0.00000   5.00000
 Mulliken charges and spin densities with hydrogens summed into heavy atoms:
               1          2
     1  Cr  -0.000000   5.000000
 Electronic spatial extent (au):  <R**2>=             47.8793
 Charge=             -0.0000 electrons
 Dipole moment (field-independent basis, Debye):
    X=              0.0000    Y=              0.0000    Z=              1.5979  Tot=              1.5979
 Quadrupole moment (field-independent basis, Debye-Ang):
   XX=            -17.0688   YY=            -17.0688   ZZ=            -21.3746
   XY=              0.0000   XZ=              0.0000   YZ=              0.0000
 Traceless Quadrupole moment (field-independent basis, Debye-Ang):
   XX=              1.4352   YY=              1.4352   ZZ=             -2.8705
   XY=              0.0000   XZ=              0.0000   YZ=              0.0000
 Octapole moment (field-independent basis, Debye-Ang**2):
  XXX=              0.0000  YYY=              0.0000  ZZZ=              4.5352  XYY=              0.0000
  XXY=              0.0000  XXZ=             -0.9392  XZZ=              0.0000  YZZ=              0.0000
  YYZ=             -0.9392  XYZ=              0.0000
 Hexadecapole moment (field-independent basis, Debye-Ang**3):
 XXXX=            -31.4867 YYYY=            -31.4867 ZZZZ=            -62.5937 XXXY=              0.0000
 XXXZ=              0.0000 YYYX=              0.0000 YYYZ=              0.0000 ZZZX=              0.0000
 ZZZY=              0.0000 XXYY=            -10.4956 XXZZ=            -15.1996 YYZZ=            -15.1996
 XXYZ=              0.0000 YYXZ=              0.0000 ZZXY=              0.0000
 N-N= 5.291772109200D+00 E-N=-2.005311570129D+02  KE= 4.146247218953D+01
 Symmetry A1   KE= 1.640549288108D+01
 Symmetry A2   KE= 4.191249961390D+00
 Symmetry B1   KE= 1.043286466370D+01
 Symmetry B2   KE= 1.043286468688D+01
 Symmetry A1   SP= 2.000000000000D+00
 Symmetry A2   SP= 1.000000000000D+00
 Symmetry B1   SP= 1.000000000000D+00
 Symmetry B2   SP= 1.000000000000D+00
 Orbital energies and kinetic energies (alpha):
                                 1                 2
   1         O                -3.812982          1.714991
   2         O                -2.530976          3.081932
   3         O                -2.530976          3.096083
   4         O                -2.496540          3.096083
   5         O                -0.461345          0.914607
   6         O                -0.461345          0.791183
   7         O                -0.450081          4.240698
   8         O                -0.435123          4.240698
   9         O                -0.435123          4.191250
  10         O                -0.262878          4.191250
  11         V                 0.014988          0.052047
  12         V                 0.014988          0.052047
  13         V                 0.022194          0.029448
  14         V                 0.024023          0.095102
  15         V                 0.057099          0.170562
 Total kinetic energy from orbitals= 5.911755172835D+01
                          Isotropic Fermi Contact Couplings
        Atom                 a.u.       MegaHertz       Gauss      10(-4) cm-1
     1  Cr(53)             0.00141      -0.07118      -0.02540      -0.02374
     2  H(1)               0.01293      11.55534       4.12323       3.85445
 --------------------------------------------------------
       Center         ----  Spin Dipole Couplings  ----
                      3XX-RR        3YY-RR        3ZZ-RR
 --------------------------------------------------------
     1   Atom        0.345280      0.345280     -0.690560
     2   Atom       -0.164745     -0.164745      0.329491
 --------------------------------------------------------
                        XY            XZ            YZ
 --------------------------------------------------------
     1   Atom        0.000000      0.000000      0.000000
     2   Atom        0.000000      0.000000      0.000000
 --------------------------------------------------------


 ---------------------------------------------------------------------------------
              Anisotropic Spin Dipole Couplings in Principal Axis System
 ---------------------------------------------------------------------------------

       Atom             a.u.   MegaHertz   Gauss  10(-4) cm-1        Axes

              Baa    -0.6906    20.868     7.446     6.961  0.0000  0.0000  1.0000
     1 Cr(53) Bbb     0.3453   -10.434    -3.723    -3.480 -0.0000  1.0000  0.0000
              Bcc     0.3453   -10.434    -3.723    -3.480  1.0000  0.0000  0.0000
 
              Baa    -0.1647   -87.900   -31.365   -29.320  1.0000  0.0000  0.0000
     2 H(1)   Bbb    -0.1647   -87.900   -31.365   -29.320 -0.0000  1.0000  0.0000
              Bcc     0.3295   175.801    62.730    58.641  0.0000  0.0000  1.0000
 

 ---------------------------------------------------------------------------------

 No NMR shielding tensors so no spin-rotation constants.
 Leave Link  601 at Mon Feb 26 03:00:50 2018, MaxMem=  8589934592 cpu:              42.8 elap:               2.8
 (Enter /home1/apps/gaussian/16rA.03/g16/l9999.exe)

 Test job not archived.
 1\1\GINC-C422-131\SP\ROCCSD(T)-Full\Gen\Cr1H1(6)\AANNABE\26-Feb-2018\0
 \\#P ROCCSD(T)=(maxcyc=150, Full, SaveAmplitudes, ReadAmplitudes)/Gen 
 5d 7f SCF=(maxcycles=300) Integral(NoXCTest) MaxDisk=500GB Pop=Regular
  Pseudo=Read Guess=Read IOp(5/15=2)\\CrH\\0,6\Cr,0,0.,0.,0.\H,0,0.,0.,
 1.4\\Version=ES64L-G16RevA.03\State=6-SG\HF=-86.3483013\MP2=-86.890451
 1\MP3=-86.8938998\PUHF=-86.3483013\PMP2-0=-86.8904511\MP4SDQ=-86.89936
 72\CCSD=-86.9057715\CCSD(T)=-86.923712\RMSD=6.732e-09\PG=C*V [C*(H1Cr1
 )]\\@


 IF YOU DON'T HAVE THE LAW - ARGUE THE FACTS.
 IF YOU DON'T HAVE THE FACTS - ARGUE THE LAW.
 IF YOU DON'T HAVE EITHER - POUND THE TABLE.
 Job cpu time:       0 days  2 hours 28 minutes 37.8 seconds.
 Elapsed time:       0 days  0 hours  9 minutes 21.4 seconds.
 File lengths (MBytes):  RWF=   2232 Int=      0 D2E=      0 Chk=     12 Scr=      1
 Normal termination of Gaussian 16 at Mon Feb 26 03:00:50 2018.
