 Entering Gaussian System, Link 0=g16
 Initial command:
 /home1/apps/gaussian/16rA.03/g16/l1.exe "/tmp/Gau-101966.inp" -scrdir="/tmp/"
 Entering Link 1 = /home1/apps/gaussian/16rA.03/g16/l1.exe PID=    101967.
  
 Copyright (c) 1988,1990,1992,1993,1995,1998,2003,2009,2016,
            Gaussian, Inc.  All Rights Reserved.
  
 This is part of the Gaussian(R) 16 program.  It is based on
 the Gaussian(R) 09 system (copyright 2009, Gaussian, Inc.),
 the Gaussian(R) 03 system (copyright 2003, Gaussian, Inc.),
 the Gaussian(R) 98 system (copyright 1998, Gaussian, Inc.),
 the Gaussian(R) 94 system (copyright 1995, Gaussian, Inc.),
 the Gaussian 92(TM) system (copyright 1992, Gaussian, Inc.),
 the Gaussian 90(TM) system (copyright 1990, Gaussian, Inc.),
 the Gaussian 88(TM) system (copyright 1988, Gaussian, Inc.),
 the Gaussian 86(TM) system (copyright 1986, Carnegie Mellon
 University), and the Gaussian 82(TM) system (copyright 1983,
 Carnegie Mellon University). Gaussian is a federally registered
 trademark of Gaussian, Inc.
  
 This software contains proprietary and confidential information,
 including trade secrets, belonging to Gaussian, Inc.
  
 This software is provided under written license and may be
 used, copied, transmitted, or stored only in accord with that
 written license.
  
 The following legend is applicable only to US Government
 contracts under FAR:
  
                    RESTRICTED RIGHTS LEGEND
  
 Use, reproduction and disclosure by the US Government is
 subject to restrictions as set forth in subparagraphs (a)
 and (c) of the Commercial Computer Software - Restricted
 Rights clause in FAR 52.227-19.
  
 Gaussian, Inc.
 340 Quinnipiac St., Bldg. 40, Wallingford CT 06492
  
  
 ---------------------------------------------------------------
 Warning -- This program may not be used in any manner that
 competes with the business of Gaussian, Inc. or will provide
 assistance to any competitor of Gaussian, Inc.  The licensee
 of this program is prohibited from giving any competitor of
 Gaussian, Inc. access to this program.  By using this program,
 the user acknowledges that Gaussian, Inc. is engaged in the
 business of creating and licensing software in the field of
 computational chemistry and represents and warrants to the
 licensee that it is not a competitor of Gaussian, Inc. and that
 it will not use this program in any manner prohibited above.
 ---------------------------------------------------------------
  

 Cite this work as:
 Gaussian 16, Revision A.03,
 M. J. Frisch, G. W. Trucks, H. B. Schlegel, G. E. Scuseria, 
 M. A. Robb, J. R. Cheeseman, G. Scalmani, V. Barone, 
 G. A. Petersson, H. Nakatsuji, X. Li, M. Caricato, A. V. Marenich, 
 J. Bloino, B. G. Janesko, R. Gomperts, B. Mennucci, H. P. Hratchian, 
 J. V. Ortiz, A. F. Izmaylov, J. L. Sonnenberg, D. Williams-Young, 
 F. Ding, F. Lipparini, F. Egidi, J. Goings, B. Peng, A. Petrone, 
 T. Henderson, D. Ranasinghe, V. G. Zakrzewski, J. Gao, N. Rega, 
 G. Zheng, W. Liang, M. Hada, M. Ehara, K. Toyota, R. Fukuda, 
 J. Hasegawa, M. Ishida, T. Nakajima, Y. Honda, O. Kitao, H. Nakai, 
 T. Vreven, K. Throssell, J. A. Montgomery, Jr., J. E. Peralta, 
 F. Ogliaro, M. J. Bearpark, J. J. Heyd, E. N. Brothers, K. N. Kudin, 
 V. N. Staroverov, T. A. Keith, R. Kobayashi, J. Normand, 
 K. Raghavachari, A. P. Rendell, J. C. Burant, S. S. Iyengar, 
 J. Tomasi, M. Cossi, J. M. Millam, M. Klene, C. Adamo, R. Cammi, 
 J. W. Ochterski, R. L. Martin, K. Morokuma, O. Farkas, 
 J. B. Foresman, and D. J. Fox, Gaussian, Inc., Wallingford CT, 2016.
 
 ******************************************
 Gaussian 16:  ES64L-G16RevA.03 25-Dec-2016
                24-Mar-2018 
 ******************************************
 %mem=80GB
 %cpu=0-31
 SetSPE:  set environment variable "MP_BIND" = "yes"
 SetSPE:  set environment variable "MP_BLIST" = "0,1,2,3,4,5,6,7,8,9,10,11,12,13,14,15,16,17,18,19,20,21,22,23,24,25,26,27,28,29,30,31"
 Will use up to   32 processors via shared memory.
 %chk=tz.chk
 %rwf=/scratch/04843/gwang18/feo/
 ----------------------------------------------------------------------
 #P ROCCSD(T)=(MaxCyc=150, Full)/Gen SCF=(maxcycle=400) Pseudo=Read Int
 egral(NoXCTest) Pop=Regular MaxDisk=500GB
 ----------------------------------------------------------------------
 1/38=1,172=1/1;
 2/12=2,17=6,18=5,40=1/2;
 3/5=7,11=2,16=1,17=8,25=1,30=1,47=8,116=101/1,2,3;
 4//1;
 5/5=2,7=400,38=5/2;
 8/5=-1,6=4,9=120000,10=90/1,4;
 9/5=7,6=150,14=2/13;
 6//1;
 99/5=1,9=1/99;
 Leave Link    1 at Sat Mar 24 00:29:32 2018, MaxMem= 10737418240 cpu:               9.9 elap:               0.3
 (Enter /home1/apps/gaussian/16rA.03/g16/l101.exe)
 ---
 FeO
 ---
 Symbolic Z-matrix:
 Charge =  0 Multiplicity = 5
 Fe                    0.        0.        0. 
 O                     0.        0.        1.7 
 
 ITRead=  0  0
 MicOpt= -1 -1
 NAtoms=      2 NQM=        2 NQMF=       0 NMMI=      0 NMMIF=      0
                NMic=       0 NMicF=      0.
                    Isotopes and Nuclear Properties:
 (Nuclear quadrupole moments (NQMom) in fm**2, nuclear magnetic moments (NMagM)
  in nuclear magnetons)

  Atom         1           2
 IAtWgt=          56          16
 AtmWgt=  55.9349393  15.9949146
 NucSpn=           0           0
 AtZEff=  -0.0000000  -0.0000000
 NQMom=    0.0000000   0.0000000
 NMagM=    0.0000000   0.0000000
 AtZNuc=  26.0000000   8.0000000
 Leave Link  101 at Sat Mar 24 00:29:32 2018, MaxMem= 10737418240 cpu:               3.5 elap:               0.2
 (Enter /home1/apps/gaussian/16rA.03/g16/l202.exe)
                          Input orientation:                          
 ---------------------------------------------------------------------
 Center     Atomic      Atomic             Coordinates (Angstroms)
 Number     Number       Type             X           Y           Z
 ---------------------------------------------------------------------
      1         26           0        0.000000    0.000000    0.000000
      2          8           0        0.000000    0.000000    1.700000
 ---------------------------------------------------------------------
 Stoichiometry    FeO(5)
 Framework group  C*V[C*(OFe)]
 Deg. of freedom     1
 Full point group                 C*V     NOp   4
 Largest Abelian subgroup         C2V     NOp   4
 Largest concise Abelian subgroup C1      NOp   1
                         Standard orientation:                         
 ---------------------------------------------------------------------
 Center     Atomic      Atomic             Coordinates (Angstroms)
 Number     Number       Type             X           Y           Z
 ---------------------------------------------------------------------
      1         26           0        0.000000    0.000000    0.400000
      2          8           0        0.000000    0.000000   -1.300000
 ---------------------------------------------------------------------
 Rotational constants (GHZ):           0.0000000          14.0592916          14.0592916
 Leave Link  202 at Sat Mar 24 00:29:33 2018, MaxMem= 10737418240 cpu:               0.8 elap:               0.1
 (Enter /home1/apps/gaussian/16rA.03/g16/l301.exe)
 General basis read from cards:  (5D, 7F)
 Centers:       1
 S 1 1.00
     Exponent=  4.3162650000D+06 Coefficients=  1.0000000000D+00
 S 1 1.00
     Exponent=  6.4634240000D+05 Coefficients=  1.0000000000D+00
 S 1 1.00
     Exponent=  1.4708970000D+05 Coefficients=  1.0000000000D+00
 S 1 1.00
     Exponent=  4.1661520000D+04 Coefficients=  1.0000000000D+00
 S 1 1.00
     Exponent=  1.3590770000D+04 Coefficients=  1.0000000000D+00
 S 1 1.00
     Exponent=  4.9057500000D+03 Coefficients=  1.0000000000D+00
 S 1 1.00
     Exponent=  1.9127460000D+03 Coefficients=  1.0000000000D+00
 S 1 1.00
     Exponent=  7.9260430000D+02 Coefficients=  1.0000000000D+00
 S 1 1.00
     Exponent=  3.4480650000D+02 Coefficients=  1.0000000000D+00
 S 1 1.00
     Exponent=  1.5589990000D+02 Coefficients=  1.0000000000D+00
 S 1 1.00
     Exponent=  7.2230910000D+01 Coefficients=  1.0000000000D+00
 S 1 1.00
     Exponent=  3.2725060000D+01 Coefficients=  1.0000000000D+00
 S 1 1.00
     Exponent=  1.5667620000D+01 Coefficients=  1.0000000000D+00
 S 1 1.00
     Exponent=  7.5034830000D+00 Coefficients=  1.0000000000D+00
 S 1 1.00
     Exponent=  3.3122230000D+00 Coefficients=  1.0000000000D+00
 S 1 1.00
     Exponent=  1.5584710000D+00 Coefficients=  1.0000000000D+00
 S 1 1.00
     Exponent=  6.8391400000D-01 Coefficients=  1.0000000000D+00
 S 1 1.00
     Exponent=  1.4675700000D-01 Coefficients=  1.0000000000D+00
 S 1 1.00
     Exponent=  7.0583000000D-02 Coefficients=  1.0000000000D+00
 S 1 1.00
     Exponent=  3.1449000000D-02 Coefficients=  1.0000000000D+00
 S 1 1.00
     Exponent=  4.6844000000D+00 Coefficients=  1.0000000000D+00
 S 1 1.00
     Exponent=  1.2204000000D+00 Coefficients=  1.0000000000D+00
 S 1 1.00
     Exponent=  1.4010000000D-02 Coefficients=  1.0000000000D+00
 P 1 1.00
     Exponent=  1.7745690000D+04 Coefficients=  1.0000000000D+00
 P 1 1.00
     Exponent=  4.2007210000D+03 Coefficients=  1.0000000000D+00
 P 1 1.00
     Exponent=  1.3644290000D+03 Coefficients=  1.0000000000D+00
 P 1 1.00
     Exponent=  5.2208060000D+02 Coefficients=  1.0000000000D+00
 P 1 1.00
     Exponent=  2.2145950000D+02 Coefficients=  1.0000000000D+00
 P 1 1.00
     Exponent=  1.0090960000D+02 Coefficients=  1.0000000000D+00
 P 1 1.00
     Exponent=  4.8401150000D+01 Coefficients=  1.0000000000D+00
 P 1 1.00
     Exponent=  2.3985360000D+01 Coefficients=  1.0000000000D+00
 P 1 1.00
     Exponent=  1.2182500000D+01 Coefficients=  1.0000000000D+00
 P 1 1.00
     Exponent=  6.2422980000D+00 Coefficients=  1.0000000000D+00
 P 1 1.00
     Exponent=  3.1109440000D+00 Coefficients=  1.0000000000D+00
 P 1 1.00
     Exponent=  1.5099580000D+00 Coefficients=  1.0000000000D+00
 P 1 1.00
     Exponent=  7.1084500000D-01 Coefficients=  1.0000000000D+00
 P 1 1.00
     Exponent=  2.7259800000D-01 Coefficients=  1.0000000000D+00
 P 1 1.00
     Exponent=  1.0397200000D-01 Coefficients=  1.0000000000D+00
 P 1 1.00
     Exponent=  3.8166000000D-02 Coefficients=  1.0000000000D+00
 P 1 1.00
     Exponent=  6.8788000000D+00 Coefficients=  1.0000000000D+00
 P 1 1.00
     Exponent=  1.5748000000D+00 Coefficients=  1.0000000000D+00
 P 1 1.00
     Exponent=  1.4010000000D-02 Coefficients=  1.0000000000D+00
 D 1 1.00
     Exponent=  1.1488400000D+02 Coefficients=  1.0000000000D+00
 D 1 1.00
     Exponent=  3.3887800000D+01 Coefficients=  1.0000000000D+00
 D 1 1.00
     Exponent=  1.2373000000D+01 Coefficients=  1.0000000000D+00
 D 1 1.00
     Exponent=  4.9992500000D+00 Coefficients=  1.0000000000D+00
 D 1 1.00
     Exponent=  2.0704300000D+00 Coefficients=  1.0000000000D+00
 D 1 1.00
     Exponent=  8.2818300000D-01 Coefficients=  1.0000000000D+00
 D 1 1.00
     Exponent=  3.0754700000D-01 Coefficients=  1.0000000000D+00
 D 1 1.00
     Exponent=  9.9455000000D-02 Coefficients=  1.0000000000D+00
 D 1 1.00
     Exponent=  4.5305000000D+00 Coefficients=  1.0000000000D+00
 D 1 1.00
     Exponent=  2.1205000000D+00 Coefficients=  1.0000000000D+00
 D 1 1.00
     Exponent=  3.2160000000D-02 Coefficients=  1.0000000000D+00
 F 1 1.00
     Exponent=  6.0066000000D+00 Coefficients=  1.0000000000D+00
 F 1 1.00
     Exponent=  2.2522000000D+00 Coefficients=  1.0000000000D+00
 F 1 1.00
     Exponent=  7.7580000000D-01 Coefficients=  1.0000000000D+00
 F 1 1.00
     Exponent=  2.6723000000D-01 Coefficients=  1.0000000000D+00
 G 1 1.00
     Exponent=  5.5068000000D+00 Coefficients=  1.0000000000D+00
 G 1 1.00
     Exponent=  2.0515000000D+00 Coefficients=  1.0000000000D+00
 G 1 1.00
     Exponent=  7.6426000000D-01 Coefficients=  1.0000000000D+00
 ****
 Centers:       2
 S 1 1.00
     Exponent=  1.5330000000D+04 Coefficients=  1.0000000000D+00
 S 1 1.00
     Exponent=  2.2990000000D+03 Coefficients=  1.0000000000D+00
 S 1 1.00
     Exponent=  5.2240000000D+02 Coefficients=  1.0000000000D+00
 S 1 1.00
     Exponent=  1.4730000000D+02 Coefficients=  1.0000000000D+00
 S 1 1.00
     Exponent=  4.7550000000D+01 Coefficients=  1.0000000000D+00
 S 1 1.00
     Exponent=  1.6760000000D+01 Coefficients=  1.0000000000D+00
 S 1 1.00
     Exponent=  6.2070000000D+00 Coefficients=  1.0000000000D+00
 S 1 1.00
     Exponent=  6.8820000000D-01 Coefficients=  1.0000000000D+00
 S 1 1.00
     Exponent=  1.7520000000D+00 Coefficients=  1.0000000000D+00
 S 1 1.00
     Exponent=  2.3840000000D-01 Coefficients=  1.0000000000D+00
 S 1 1.00
     Exponent=  7.8450000000D+00 Coefficients=  1.0000000000D+00
 S 1 1.00
     Exponent=  2.1032000000D+01 Coefficients=  1.0000000000D+00
 S 1 1.00
     Exponent=  7.3760000000D-02 Coefficients=  1.0000000000D+00
 P 1 1.00
     Exponent=  3.4460000000D+01 Coefficients=  1.0000000000D+00
 P 1 1.00
     Exponent=  7.7490000000D+00 Coefficients=  1.0000000000D+00
 P 1 1.00
     Exponent=  2.2800000000D+00 Coefficients=  1.0000000000D+00
 P 1 1.00
     Exponent=  7.1560000000D-01 Coefficients=  1.0000000000D+00
 P 1 1.00
     Exponent=  2.1400000000D-01 Coefficients=  1.0000000000D+00
 P 1 1.00
     Exponent=  1.5159000000D+01 Coefficients=  1.0000000000D+00
 P 1 1.00
     Exponent=  5.7437000000D+01 Coefficients=  1.0000000000D+00
 P 1 1.00
     Exponent=  5.9740000000D-02 Coefficients=  1.0000000000D+00
 D 1 1.00
     Exponent=  2.3140000000D+00 Coefficients=  1.0000000000D+00
 D 1 1.00
     Exponent=  6.4500000000D-01 Coefficients=  1.0000000000D+00
 D 1 1.00
     Exponent=  1.5858000000D+01 Coefficients=  1.0000000000D+00
 D 1 1.00
     Exponent=  2.1400000000D-01 Coefficients=  1.0000000000D+00
 F 1 1.00
     Exponent=  1.4280000000D+00 Coefficients=  1.0000000000D+00
 F 1 1.00
     Exponent=  5.0000000000D-01 Coefficients=  1.0000000000D+00
 ****
 ======================================================================================================
                                       Pseudopotential Parameters
 ======================================================================================================
  Center     Atomic      Valence      Angular      Power
  Number     Number     Electrons     Momentum     of R      Exponent        Coefficient   SO-Coeffient
 ======================================================================================================
    1         26           16
                                      D and up 
                                                     1        3.7207563       16.00000000    0.00000000
                                                     3        3.9232127       59.53210107    0.00000000
                                                     2        3.8959544      -68.75847841    0.00000000
                                      S - D
                                                     2       10.4234355      112.92561163    0.00000000
                                      P - D
                                                     2        8.4166408       52.55882759    0.00000000
    2          8            6
                                      P and up 
                                                     1        9.2979390        6.00000000    0.00000000
                                                     3        8.8649220       55.78763416    0.00000000
                                                     2        8.6292567      -38.81978498    0.00000000
                                      S - P
                                                     2        8.7192445       38.41914135    0.00000000
 ======================================================================================================
 Ernie: Thresh=  0.10000D-02 Tol=  0.10000D-05 Strict=F.
 There are   144 symmetry adapted cartesian basis functions of A1  symmetry.
 There are    30 symmetry adapted cartesian basis functions of A2  symmetry.
 There are    69 symmetry adapted cartesian basis functions of B1  symmetry.
 There are    69 symmetry adapted cartesian basis functions of B2  symmetry.
 There are   114 symmetry adapted basis functions of A1  symmetry.
 There are    27 symmetry adapted basis functions of A2  symmetry.
 There are    60 symmetry adapted basis functions of B1  symmetry.
 There are    60 symmetry adapted basis functions of B2  symmetry.
   261 basis functions,   312 primitive gaussians,   312 cartesian basis functions
    13 alpha electrons        9 beta electrons
       nuclear repulsion energy        29.8829483814 Hartrees.
 IExCor=    0 DFT=F Ex=HF Corr=None ExCW=0 ScaHFX=  1.000000
 ScaDFX=  1.000000  1.000000  1.000000  1.000000 ScalE2=  1.000000  1.000000
 IRadAn=      5 IRanWt=     -1 IRanGd=            0 ICorTp=0 IEmpDi=  4
 NAtoms=    2 NActive=    2 NUniq=    2 SFac= 1.00D+00 NAtFMM=   60 NAOKFM=F Big=F
 Integral buffers will be    131072 words long.
 Raffenetti 2 integral format.
 Two-electron integral symmetry is turned on.
 Leave Link  301 at Sat Mar 24 00:29:35 2018, MaxMem= 10737418240 cpu:               8.1 elap:               0.3
 (Enter /home1/apps/gaussian/16rA.03/g16/l302.exe)
 NPDir=0 NMtPBC=     1 NCelOv=     1 NCel=       1 NClECP=     1 NCelD=      1
         NCelK=      1 NCelE2=     1 NClLst=     1 CellRange=     0.0.
 One-electron integrals computed using PRISM.
 One-electron integral symmetry used in STVInt
   4 Symmetry operations used in ECPInt.
 ECPInt:  NShTT=    3828 NPrTT=    3828 LenC2=    3509 LenP2D=    3508.
 LDataN:  DoStor=T MaxTD1= 8 Len=  415
 NBasis=   261 RedAO= T EigKep=  2.22D-06  NBF=   114    27    60    60
 NBsUse=   258 1.00D-06 EigRej=  9.68D-07 NBFU=   113    27    59    59
 Leave Link  302 at Sat Mar 24 00:29:36 2018, MaxMem= 10737418240 cpu:              31.1 elap:               1.0
 (Enter /home1/apps/gaussian/16rA.03/g16/l303.exe)
 DipDrv:  MaxL=1.
 Leave Link  303 at Sat Mar 24 00:29:36 2018, MaxMem= 10737418240 cpu:               2.4 elap:               0.1
 (Enter /home1/apps/gaussian/16rA.03/g16/l401.exe)
 ExpMin= 1.40D-02 ExpMax= 4.32D+06 ExpMxC= 4.32D+06 IAcc=4 IRadAn=    199590 AccDes= 0.00D+00
 Harris functional with IExCor=  205 and IRadAn=  199590 diagonalized for initial guess.
 HarFok:  IExCor=  205 AccDes= 0.00D+00 IRadAn=    199590 IDoV= 1 UseB2=F ITyADJ=14
 ICtDFT=  3500011 ScaDFX=  1.000000  1.000000  1.000000  1.000000
 Spurious integrated density or basis function:
 NE=   22 NElCor=    0 El error=5.77D-09 rel=1.70D-10 Tolerance=1.00D-03
 Shell     1     absolute error=1.51D-02              Tolerance=1.20D-02
 Shell     2       signed error=3.25D-05              Tolerance=1.00D-01
 FoFCou: FMM=F IPFlag=           8 FMFlag=      100000 FMFlg1=           0
         NFxFlg=           0 DoJE=T BraDBF=F KetDBF=T FulRan=T
         wScrn=  0.000000 ICntrl=       500 IOpCl=  0 I1Cent=   200000004 NGrid=           0
         NMat0=    1 NMatS0=      1 NMatT0=    0 NMatD0=    1 NMtDS0=    0 NMtDT0=    0
 Petite list used in FoFCou.
 Harris En= -140.108474018688    
 JPrj=0 DoOrth=F DoCkMO=F.
 Initial guess orbital symmetries:
       Occupied  (SG) (SG) (PI) (PI) (SG) (SG) (PI) (PI) (DLTA)
                 (DLTA) (PI) (PI) (SG)
       Virtual   (SG) (PI) (PI) (SG) (SG) (PI) (PI) (SG) (DLTA)
                 (DLTA) (PI) (PI) (SG) (SG) (SG) (PI) (PI) (PI)
                 (PI) (SG) (DLTA) (DLTA) (PI) (PI) (SG) (SG) (SG)
                 (DLTA) (DLTA) (PI) (PI) (SG) (PI) (PI) (PHI) (PHI)
                 (PI) (PI) (SG) (SG) (DLTA) (DLTA) (PI) (PI) (DLTA)
                 (DLTA) (SG) (PI) (PI) (SG) (SG) (SG) (PHI) (PHI)
                 (DLTA) (DLTA) (PI) (PI) (DLTA) (DLTA) (SG) (PI)
                 (PI) (SG) (PI) (PI) (PHI) (PHI) (DLTA) (DLTA)
                 (SG) (PI) (PI) (SG) (DLTA) (DLTA) (PI) (PI) (?A)
                 (?A) (PHI) (PHI) (SG) (PI) (PI) (DLTA) (DLTA)
                 (SG) (PI) (PI) (SG) (SG) (SG) (PHI) (PHI) (DLTA)
                 (DLTA) (PI) (PI) (SG) (DLTA) (DLTA) (PI) (PI)
                 (SG) (PHI) (PHI) (DLTA) (DLTA) (PI) (PI) (PI)
                 (PI) (SG) (DLTA) (DLTA) (SG) (PI) (PI) (SG) (?A)
                 (?A) (PHI) (PHI) (DLTA) (DLTA) (PI) (PI) (SG)
                 (SG) (SG) (PI) (PI) (SG) (SG) (DLTA) (DLTA) (PI)
                 (PI) (PI) (PI) (SG) (PHI) (PHI) (DLTA) (DLTA)
                 (PI) (PI) (SG) (?A) (?A) (PHI) (PHI) (DLTA) (DLTA)
                 (PI) (PI) (SG) (SG) (DLTA) (DLTA) (SG) (PI) (PI)
                 (SG) (PI) (PI) (SG) (DLTA) (DLTA) (PI) (PI) (SG)
                 (PI) (PI) (SG) (SG) (DLTA) (DLTA) (SG) (PI) (PI)
                 (SG) (PI) (PI) (SG) (SG) (PI) (PI) (SG) (SG) (PI)
                 (PI) (SG) (DLTA) (DLTA) (PI) (PI) (SG) (SG) (SG)
                 (PI) (PI) (SG) (PI) (PI) (SG) (SG) (DLTA) (DLTA)
                 (PI) (PI) (SG) (PI) (PI) (SG) (SG) (SG) (PI) (PI)
                 (SG) (SG) (SG) (PI) (PI) (SG) (SG) (PI) (PI) (SG)
                 (SG) (SG) (PI) (PI) (SG) (SG) (SG) (SG) (PI) (PI)
                 (SG) (SG) (SG) (SG) (SG)
 Leave Link  401 at Sat Mar 24 00:29:38 2018, MaxMem= 10737418240 cpu:              43.0 elap:               1.4
 (Enter /home1/apps/gaussian/16rA.03/g16/l502.exe)
 Keep R1 and R2 ints in memory in symmetry-blocked form, NReq=734602573.
 FoFCou: FMM=F IPFlag=           8 FMFlag=           0 FMFlg1=           0
         NFxFlg=           0 DoJE=F BraDBF=F KetDBF=F FulRan=T
         wScrn=  0.000000 ICntrl=       600 IOpCl=  0 I1Cent=           0 NGrid=           0
         NMat0=    1 NMatS0=  34191 NMatT0=    0 NMatD0=    1 NMtDS0=    0 NMtDT0=    0
 Petite list used in FoFCou.
 Restricted open shell SCF:
 Using DIIS extrapolation, IDIIS=  1040.
 NGot= 10737418240 LenX= 10437146893 LenY= 10437049108
 Requested convergence on RMS density matrix=1.00D-08 within 400 cycles.
 Requested convergence on MAX density matrix=1.00D-06.
 Requested convergence on             energy=1.00D-06.
 No special actions if energy rises.

 Cycle   1  Pass 1  IDiag  1:
 E= -138.614882126104    
 DIIS: error= 4.50D-02 at cycle   1 NSaved=   1.
 NSaved= 1 IEnMin= 1 EnMin= -138.614882126104     IErMin= 1 ErrMin= 4.50D-02
 ErrMax= 4.50D-02  0.00D+00 EMaxC= 1.00D-01 BMatC= 2.77D-01 BMatP= 2.77D-01
 IDIUse=3 WtCom= 5.50D-01 WtEn= 4.50D-01
 Coeff-Com:  0.100D+01
 Coeff-En:   0.100D+01
 Coeff:      0.100D+01
 Gap=     0.087 Goal=   None    Shift=    0.000
 GapD=    0.087 DampG=0.500 DampE=0.250 DampFc=0.1250 IDamp=-1.
 Damping current iteration by 1.25D-01
 RMSDP=4.10D-03 MaxDP=3.10D-01              OVMax= 2.66D-01

 Cycle   2  Pass 1  IDiag  1:
 E= -138.632065852268     Delta-E=       -0.017183726164 Rises=F Damp=T
 DIIS: error= 2.87D-02 at cycle   2 NSaved=   2.
 NSaved= 2 IEnMin= 2 EnMin= -138.632065852268     IErMin= 2 ErrMin= 2.87D-02
 ErrMax= 2.87D-02  0.00D+00 EMaxC= 1.00D-01 BMatC= 1.52D-01 BMatP= 2.77D-01
 IDIUse=3 WtCom= 7.13D-01 WtEn= 2.87D-01
 Coeff-Com: -0.860D+00 0.186D+01
 Coeff-En:   0.000D+00 0.100D+01
 Coeff:     -0.613D+00 0.161D+01
 Gap=     0.004 Goal=   None    Shift=    0.000
 RMSDP=1.04D-02 MaxDP=1.05D+00 DE=-1.72D-02 OVMax= 9.61D-01

 Cycle   3  Pass 1  IDiag  1:
 E= -136.354338784975     Delta-E=        2.277727067292 Rises=F Damp=F
 DIIS: error= 2.65D-01 at cycle   3 NSaved=   3.
 NSaved= 3 IEnMin= 2 EnMin= -138.632065852268     IErMin= 2 ErrMin= 2.87D-02
 ErrMax= 2.65D-01  0.00D+00 EMaxC= 1.00D-01 BMatC= 3.17D+00 BMatP= 1.52D-01
 IDIUse=2 WtCom= 0.00D+00 WtEn= 1.00D+00
 Coeff-En:   0.000D+00 0.830D+00 0.170D+00
 Coeff:      0.000D+00 0.830D+00 0.170D+00
 Gap=    -0.157 Goal=   None    Shift=    0.000
 RMSDP=9.76D-03 MaxDP=1.05D+00 DE= 2.28D+00 OVMax= 8.91D-01

 Cycle   4  Pass 1  IDiag  1:
 E= -138.550804787763     Delta-E=       -2.196466002787 Rises=F Damp=F
 DIIS: error= 6.01D-02 at cycle   4 NSaved=   4.
 NSaved= 4 IEnMin= 2 EnMin= -138.632065852268     IErMin= 2 ErrMin= 2.87D-02
 ErrMax= 6.01D-02  0.00D+00 EMaxC= 1.00D-01 BMatC= 4.07D-01 BMatP= 1.52D-01
 IDIUse=2 WtCom= 0.00D+00 WtEn= 1.00D+00
 Coeff-En:   0.000D+00 0.000D+00 0.253D+00 0.747D+00
 Coeff:      0.000D+00 0.000D+00 0.253D+00 0.747D+00
 Gap=     0.131 Goal=   None    Shift=    0.000
 RMSDP=2.60D-03 MaxDP=1.90D-01 DE=-2.20D+00 OVMax= 1.34D-01

 Cycle   5  Pass 1  IDiag  1:
 E= -138.714204042655     Delta-E=       -0.163399254892 Rises=F Damp=F
 DIIS: error= 3.07D-02 at cycle   5 NSaved=   5.
 NSaved= 5 IEnMin= 5 EnMin= -138.714204042655     IErMin= 2 ErrMin= 2.87D-02
 ErrMax= 3.07D-02  0.00D+00 EMaxC= 1.00D-01 BMatC= 1.15D-01 BMatP= 1.52D-01
 IDIUse=3 WtCom= 6.93D-01 WtEn= 3.07D-01
 EnCoef did     9 forward-backward iterations
 Coeff-Com: -0.514D+00 0.448D+00 0.114D+00 0.253D+00 0.698D+00
 Coeff-En:   0.000D+00 0.000D+00 0.210D+00 0.378D+00 0.412D+00
 Coeff:     -0.356D+00 0.311D+00 0.144D+00 0.291D+00 0.611D+00
 Gap=     0.097 Goal=   None    Shift=    0.000
 RMSDP=1.59D-03 MaxDP=1.34D-01 DE=-1.63D-01 OVMax= 1.55D-01

 Cycle   6  Pass 1  IDiag  1:
 E= -138.790352873145     Delta-E=       -0.076148830490 Rises=F Damp=F
 DIIS: error= 1.69D-02 at cycle   6 NSaved=   6.
 NSaved= 6 IEnMin= 6 EnMin= -138.790352873145     IErMin= 6 ErrMin= 1.69D-02
 ErrMax= 1.69D-02  0.00D+00 EMaxC= 1.00D-01 BMatC= 2.21D-02 BMatP= 1.15D-01
 IDIUse=3 WtCom= 8.31D-01 WtEn= 1.69D-01
 EnCoef did     5 forward-backward iterations
 Coeff-Com: -0.387D+00 0.476D+00 0.237D-01-0.244D+00 0.384D-01 0.109D+01
 Coeff-En:   0.000D+00 0.000D+00 0.165D+00 0.000D+00 0.231D-01 0.812D+00
 Coeff:     -0.322D+00 0.396D+00 0.475D-01-0.203D+00 0.358D-01 0.105D+01
 Gap=     0.069 Goal=   None    Shift=    0.000
 RMSDP=1.86D-03 MaxDP=1.83D-01 DE=-7.61D-02 OVMax= 1.22D-01

 Cycle   7  Pass 1  IDiag  1:
 E= -138.798609936489     Delta-E=       -0.008257063344 Rises=F Damp=F
 DIIS: error= 1.10D-02 at cycle   7 NSaved=   7.
 NSaved= 7 IEnMin= 7 EnMin= -138.798609936489     IErMin= 7 ErrMin= 1.10D-02
 ErrMax= 1.10D-02  0.00D+00 EMaxC= 1.00D-01 BMatC= 7.27D-03 BMatP= 2.21D-02
 IDIUse=3 WtCom= 8.90D-01 WtEn= 1.10D-01
 EnCoef did    20 forward-backward iterations
 Coeff-Com: -0.287D+00 0.379D+00 0.206D-01-0.170D+00-0.526D-01 0.614D+00
 Coeff-Com:  0.496D+00
 Coeff-En:   0.000D+00 0.000D+00 0.160D+00 0.000D+00 0.000D+00 0.462D+00
 Coeff-En:   0.378D+00
 Coeff:     -0.255D+00 0.337D+00 0.360D-01-0.151D+00-0.468D-01 0.597D+00
 Coeff:      0.483D+00
 Gap=     0.070 Goal=   None    Shift=    0.000
 RMSDP=2.08D-03 MaxDP=2.18D-01 DE=-8.26D-03 OVMax= 1.18D-01

 Cycle   8  Pass 1  IDiag  1:
 E= -138.804073264670     Delta-E=       -0.005463328181 Rises=F Damp=F
 DIIS: error= 8.55D-03 at cycle   8 NSaved=   8.
 NSaved= 8 IEnMin= 8 EnMin= -138.804073264670     IErMin= 8 ErrMin= 8.55D-03
 ErrMax= 8.55D-03  0.00D+00 EMaxC= 1.00D-01 BMatC= 5.71D-03 BMatP= 7.27D-03
 IDIUse=3 WtCom= 9.14D-01 WtEn= 8.55D-02
 Rare condition: small coef for last iteration:  0.000D+00
 Coeff-Com: -0.244D+00 0.316D+00 0.112D-01-0.141D+00-0.843D-01 0.229D+00
 Coeff-Com:  0.408D+00 0.505D+00
 Coeff-En:   0.000D+00 0.000D+00 0.154D+00 0.000D+00 0.000D+00 0.000D+00
 Coeff-En:   0.328D+00 0.518D+00
 Coeff:     -0.244D+00 0.316D+00 0.112D-01-0.141D+00-0.843D-01 0.229D+00
 Coeff:      0.408D+00 0.505D+00
 Gap=     0.055 Goal=   None    Shift=    0.000
 RMSDP=8.11D-04 MaxDP=5.77D-02 DE=-5.46D-03 OVMax= 6.48D-02

 Cycle   9  Pass 1  IDiag  1:
 E= -138.806601020222     Delta-E=       -0.002527755552 Rises=F Damp=F
 DIIS: error= 5.32D-03 at cycle   9 NSaved=   9.
 NSaved= 9 IEnMin= 9 EnMin= -138.806601020222     IErMin= 9 ErrMin= 5.32D-03
 ErrMax= 5.32D-03  0.00D+00 EMaxC= 1.00D-01 BMatC= 1.58D-03 BMatP= 5.71D-03
 IDIUse=3 WtCom= 9.47D-01 WtEn= 5.32D-02
 EnCoef did    61 forward-backward iterations
 Rare condition: small coef for last iteration:  0.831D-16
 Coeff-Com: -0.203D+00 0.241D+00 0.101D-02-0.499D-01-0.290D-01-0.177D+00
 Coeff-Com:  0.153D+00 0.408D+00 0.657D+00
 Coeff-En:   0.000D+00 0.000D+00 0.149D+00 0.000D+00 0.000D+00 0.000D+00
 Coeff-En:   0.219D+00 0.194D+00 0.439D+00
 Coeff:     -0.203D+00 0.241D+00 0.101D-02-0.499D-01-0.290D-01-0.177D+00
 Coeff:      0.153D+00 0.408D+00 0.657D+00
 Gap=     0.052 Goal=   None    Shift=    0.000
 RMSDP=8.36D-04 MaxDP=7.48D-02 DE=-2.53D-03 OVMax= 4.98D-02

 Cycle  10  Pass 1  IDiag  1:
 E= -138.807629911601     Delta-E=       -0.001028891380 Rises=F Damp=F
 DIIS: error= 2.96D-03 at cycle  10 NSaved=  10.
 NSaved=10 IEnMin=10 EnMin= -138.807629911601     IErMin=10 ErrMin= 2.96D-03
 ErrMax= 2.96D-03  0.00D+00 EMaxC= 1.00D-01 BMatC= 8.70D-04 BMatP= 1.58D-03
 IDIUse=3 WtCom= 9.70D-01 WtEn= 2.96D-02
 EnCoef did   100 forward-backward iterations
 Coeff-Com: -0.163D+00 0.190D+00-0.117D-03-0.230D-01 0.921D-02-0.134D+00
 Coeff-Com:  0.429D-01 0.428D-01 0.516D+00 0.520D+00
 Coeff-En:   0.000D+00 0.000D+00 0.160D+00 0.000D+00 0.000D+00 0.449D+00
 Coeff-En:   0.373D+00 0.221D-02 0.766D-02 0.840D-02
 Coeff:     -0.159D+00 0.184D+00 0.461D-02-0.223D-01 0.894D-02-0.116D+00
 Coeff:      0.527D-01 0.416D-01 0.501D+00 0.504D+00
 Gap=     0.055 Goal=   None    Shift=    0.000
 RMSDP=8.46D-04 MaxDP=8.24D-02 DE=-1.03D-03 OVMax= 3.89D-02

 Cycle  11  Pass 1  IDiag  1:
 E= -138.808498774013     Delta-E=       -0.000868862412 Rises=F Damp=F
 DIIS: error= 2.27D-03 at cycle  11 NSaved=  11.
 NSaved=11 IEnMin=11 EnMin= -138.808498774013     IErMin=11 ErrMin= 2.27D-03
 ErrMax= 2.27D-03  0.00D+00 EMaxC= 1.00D-01 BMatC= 5.16D-04 BMatP= 8.70D-04
 IDIUse=3 WtCom= 9.77D-01 WtEn= 2.27D-02
 EnCoef did   100 forward-backward iterations
 Rare condition: small coef for last iteration: -0.577D-15
 Coeff-Com: -0.118D+00 0.138D+00 0.131D-03-0.221D-01 0.104D-01-0.370D-01
 Coeff-Com:  0.420D-02-0.153D+00 0.285D+00 0.363D+00 0.530D+00
 Coeff-En:   0.000D+00 0.000D+00 0.149D+00 0.000D+00 0.000D+00 0.000D+00
 Coeff-En:   0.916D-01 0.000D+00 0.466D-01 0.844D-01 0.628D+00
 Coeff:     -0.118D+00 0.138D+00 0.131D-03-0.221D-01 0.104D-01-0.370D-01
 Coeff:      0.420D-02-0.153D+00 0.285D+00 0.363D+00 0.530D+00
 Gap=     0.053 Goal=   None    Shift=    0.000
 RMSDP=3.83D-04 MaxDP=3.13D-02 DE=-8.69D-04 OVMax= 2.30D-02

 Cycle  12  Pass 1  IDiag  1:
 E= -138.808564542809     Delta-E=       -0.000065768795 Rises=F Damp=F
 DIIS: error= 2.39D-03 at cycle  12 NSaved=  12.
 NSaved=12 IEnMin=12 EnMin= -138.808564542809     IErMin=11 ErrMin= 2.27D-03
 ErrMax= 2.39D-03  0.00D+00 EMaxC= 1.00D-01 BMatC= 2.65D-04 BMatP= 5.16D-04
 IDIUse=3 WtCom= 9.77D-01 WtEn= 2.27D-02
 EnCoef did   100 forward-backward iterations
 Rare condition: small coef for last iteration:  0.000D+00
 Coeff-Com: -0.946D-01 0.111D+00 0.581D-03-0.154D-01 0.683D-02 0.790D-02
 Coeff-Com:  0.976D-02-0.162D+00 0.148D+00 0.993D-01 0.453D+00 0.435D+00
 Coeff-En:   0.000D+00 0.000D+00 0.148D+00 0.000D+00 0.000D+00 0.000D+00
 Coeff-En:   0.823D-01 0.000D+00 0.000D+00 0.000D+00 0.344D+00 0.426D+00
 Coeff:     -0.946D-01 0.111D+00 0.581D-03-0.154D-01 0.683D-02 0.790D-02
 Coeff:      0.976D-02-0.162D+00 0.148D+00 0.993D-01 0.453D+00 0.435D+00
 Gap=     0.053 Goal=   None    Shift=    0.000
 RMSDP=1.69D-04 MaxDP=1.70D-02 DE=-6.58D-05 OVMax= 1.97D-02

 Cycle  13  Pass 1  IDiag  1:
 E= -138.808751676494     Delta-E=       -0.000187133685 Rises=F Damp=F
 DIIS: error= 1.95D-03 at cycle  13 NSaved=  13.
 NSaved=13 IEnMin=13 EnMin= -138.808751676494     IErMin=13 ErrMin= 1.95D-03
 ErrMax= 1.95D-03  0.00D+00 EMaxC= 1.00D-01 BMatC= 1.96D-04 BMatP= 2.65D-04
 IDIUse=3 WtCom= 9.81D-01 WtEn= 1.95D-02
 EnCoef did   100 forward-backward iterations
 Coeff-Com: -0.655D-01 0.761D-01 0.279D-03 0.174D-02 0.311D-02 0.442D-02
 Coeff-Com:  0.108D-01-0.946D-01 0.434D-01-0.172D+00 0.148D+00 0.444D+00
 Coeff-Com:  0.600D+00
 Coeff-En:   0.000D+00 0.000D+00 0.160D+00 0.000D+00 0.000D+00 0.446D+00
 Coeff-En:   0.369D+00 0.668D-04 0.000D+00 0.000D+00 0.204D-01 0.382D-02
 Coeff-En:   0.460D-03
 Coeff:     -0.642D-01 0.746D-01 0.338D-02 0.170D-02 0.304D-02 0.130D-01
 Coeff:      0.178D-01-0.928D-01 0.426D-01-0.169D+00 0.145D+00 0.436D+00
 Coeff:      0.588D+00
 Gap=     0.056 Goal=   None    Shift=    0.000
 RMSDP=1.69D-04 MaxDP=1.48D-02 DE=-1.87D-04 OVMax= 9.87D-03

 Cycle  14  Pass 1  IDiag  1:
 E= -138.808955869340     Delta-E=       -0.000204192847 Rises=F Damp=F
 DIIS: error= 1.19D-03 at cycle  14 NSaved=  14.
 NSaved=14 IEnMin=14 EnMin= -138.808955869340     IErMin=14 ErrMin= 1.19D-03
 ErrMax= 1.19D-03  0.00D+00 EMaxC= 1.00D-01 BMatC= 1.29D-04 BMatP= 1.96D-04
 IDIUse=3 WtCom= 9.88D-01 WtEn= 1.19D-02
 EnCoef did   100 forward-backward iterations
 Rare condition: small coef for last iteration:  0.115D-14
 Coeff-Com: -0.406D-01 0.461D-01-0.107D-04 0.920D-03-0.641D-02-0.126D-01
 Coeff-Com:  0.729D-02-0.389D-01 0.362D-01-0.200D+00-0.428D-01 0.120D+00
 Coeff-Com:  0.503D+00 0.628D+00
 Coeff-En:   0.000D+00 0.000D+00 0.149D+00 0.000D+00 0.000D+00 0.000D+00
 Coeff-En:   0.367D-01 0.000D+00 0.000D+00 0.000D+00 0.000D+00 0.000D+00
 Coeff-En:   0.000D+00 0.815D+00
 Coeff:     -0.406D-01 0.461D-01-0.107D-04 0.920D-03-0.641D-02-0.126D-01
 Coeff:      0.729D-02-0.389D-01 0.362D-01-0.200D+00-0.428D-01 0.120D+00
 Coeff:      0.503D+00 0.628D+00
 Gap=     0.053 Goal=   None    Shift=    0.000
 RMSDP=7.70D-05 MaxDP=4.49D-03 DE=-2.04D-04 OVMax= 7.16D-03

 Cycle  15  Pass 1  IDiag  1:
 E= -138.809054807011     Delta-E=       -0.000098937671 Rises=F Damp=F
 DIIS: error= 8.93D-04 at cycle  15 NSaved=  15.
 NSaved=15 IEnMin=15 EnMin= -138.809054807011     IErMin=15 ErrMin= 8.93D-04
 ErrMax= 8.93D-04  0.00D+00 EMaxC= 1.00D-01 BMatC= 3.50D-05 BMatP= 1.29D-04
 IDIUse=3 WtCom= 9.91D-01 WtEn= 8.93D-03
 EnCoef did   100 forward-backward iterations
 Rare condition: small coef for last iteration:  0.000D+00
 Coeff-Com: -0.259D-01 0.292D-01 0.727D-04-0.895D-03-0.387D-03-0.233D-01
 Coeff-Com:  0.770D-02 0.292D-01 0.698D-01 0.244D-01-0.102D+00-0.316D+00
 Coeff-Com: -0.201D-01 0.236D+00 0.109D+01
 Coeff-En:   0.000D+00 0.000D+00 0.147D+00 0.000D+00 0.000D+00 0.000D+00
 Coeff-En:   0.346D-01 0.000D+00 0.000D+00 0.000D+00 0.000D+00 0.000D+00
 Coeff-En:   0.000D+00 0.000D+00 0.819D+00
 Coeff:     -0.259D-01 0.292D-01 0.727D-04-0.895D-03-0.387D-03-0.233D-01
 Coeff:      0.770D-02 0.292D-01 0.698D-01 0.244D-01-0.102D+00-0.316D+00
 Coeff:     -0.201D-01 0.236D+00 0.109D+01
 Gap=     0.053 Goal=   None    Shift=    0.000
 RMSDP=1.16D-04 MaxDP=1.34D-02 DE=-9.89D-05 OVMax= 4.76D-03

 Cycle  16  Pass 1  IDiag  1:
 E= -138.809100692035     Delta-E=       -0.000045885024 Rises=F Damp=F
 DIIS: error= 4.21D-04 at cycle  16 NSaved=  16.
 NSaved=16 IEnMin=16 EnMin= -138.809100692035     IErMin=16 ErrMin= 4.21D-04
 ErrMax= 4.21D-04  0.00D+00 EMaxC= 1.00D-01 BMatC= 1.70D-05 BMatP= 3.50D-05
 IDIUse=3 WtCom= 9.96D-01 WtEn= 4.21D-03
 EnCoef did   100 forward-backward iterations
 Coeff-Com: -0.145D-01 0.165D-01-0.121D-03-0.116D-02 0.274D-02-0.208D-01
 Coeff-Com:  0.485D-02 0.387D-01 0.563D-01 0.995D-01-0.475D-01-0.352D+00
 Coeff-Com: -0.213D+00-0.148D+00 0.102D+01 0.560D+00
 Coeff-En:   0.000D+00 0.000D+00 0.159D+00 0.000D+00 0.000D+00 0.435D+00
 Coeff-En:   0.364D+00 0.223D-02 0.000D+00 0.000D+00 0.255D-01 0.000D+00
 Coeff-En:   0.000D+00 0.108D-01 0.000D+00 0.352D-02
 Coeff:     -0.144D-01 0.164D-01 0.552D-03-0.115D-02 0.273D-02-0.189D-01
 Coeff:      0.636D-02 0.386D-01 0.561D-01 0.991D-01-0.472D-01-0.350D+00
 Coeff:     -0.212D+00-0.148D+00 0.101D+01 0.557D+00
 Gap=     0.053 Goal=   None    Shift=    0.000
 RMSDP=1.01D-04 MaxDP=1.22D-02 DE=-4.59D-05 OVMax= 3.33D-03

 Cycle  17  Pass 1  IDiag  1:
 E= -138.809132996663     Delta-E=       -0.000032304628 Rises=F Damp=F
 DIIS: error= 3.18D-04 at cycle  17 NSaved=  17.
 NSaved=17 IEnMin=17 EnMin= -138.809132996663     IErMin=17 ErrMin= 3.18D-04
 ErrMax= 3.18D-04  0.00D+00 EMaxC= 1.00D-01 BMatC= 9.94D-06 BMatP= 1.70D-05
 IDIUse=3 WtCom= 9.97D-01 WtEn= 3.18D-03
 EnCoef did   100 forward-backward iterations
 Rare condition: small coef for last iteration: -0.249D-14
 Coeff-Com: -0.879D-02 0.103D-01 0.378D-03-0.321D-02 0.233D-02-0.119D-02
 Coeff-Com:  0.658D-02 0.161D-01 0.206D-01 0.530D-01 0.255D-01-0.129D+00
 Coeff-Com: -0.132D+00-0.351D+00 0.428D+00 0.317D+00 0.745D+00
 Coeff-En:   0.000D+00 0.000D+00 0.148D+00 0.000D+00 0.000D+00 0.000D+00
 Coeff-En:   0.151D-01 0.000D+00 0.000D+00 0.000D+00 0.000D+00 0.000D+00
 Coeff-En:   0.000D+00 0.000D+00 0.000D+00 0.000D+00 0.837D+00
 Coeff:     -0.879D-02 0.103D-01 0.378D-03-0.321D-02 0.233D-02-0.119D-02
 Coeff:      0.658D-02 0.161D-01 0.206D-01 0.530D-01 0.255D-01-0.129D+00
 Coeff:     -0.132D+00-0.351D+00 0.428D+00 0.317D+00 0.745D+00
 Gap=     0.053 Goal=   None    Shift=    0.000
 RMSDP=3.90D-05 MaxDP=4.22D-03 DE=-3.23D-05 OVMax= 3.36D-03

 Cycle  18  Pass 1  IDiag  1:
 E= -138.809139151521     Delta-E=       -0.000006154858 Rises=F Damp=F
 DIIS: error= 2.58D-04 at cycle  18 NSaved=  18.
 NSaved=18 IEnMin=18 EnMin= -138.809139151521     IErMin=18 ErrMin= 2.58D-04
 ErrMax= 2.58D-04  0.00D+00 EMaxC= 1.00D-01 BMatC= 6.44D-06 BMatP= 9.94D-06
 IDIUse=3 WtCom= 9.97D-01 WtEn= 2.58D-03
 EnCoef did   100 forward-backward iterations
 Rare condition: small coef for last iteration:  0.000D+00
 Coeff-Com: -0.216D-02 0.290D-02-0.242D-04-0.294D-02-0.437D-03 0.574D-02
 Coeff-Com:  0.459D-02-0.951D-02-0.470D-02-0.219D-01 0.657D-01 0.101D+00
 Coeff-Com:  0.403D-01-0.349D+00-0.205D+00-0.130D+00 0.898D+00 0.607D+00
 Coeff-En:   0.000D+00 0.000D+00 0.148D+00 0.000D+00 0.000D+00 0.000D+00
 Coeff-En:   0.224D-01 0.000D+00 0.000D+00 0.000D+00 0.000D+00 0.000D+00
 Coeff-En:   0.000D+00 0.000D+00 0.000D+00 0.000D+00 0.195D+00 0.635D+00
 Coeff:     -0.216D-02 0.290D-02-0.242D-04-0.294D-02-0.437D-03 0.574D-02
 Coeff:      0.459D-02-0.951D-02-0.470D-02-0.219D-01 0.657D-01 0.101D+00
 Coeff:      0.403D-01-0.349D+00-0.205D+00-0.130D+00 0.898D+00 0.607D+00
 Gap=     0.052 Goal=   None    Shift=    0.000
 RMSDP=3.65D-05 MaxDP=3.35D-03 DE=-6.15D-06 OVMax= 3.26D-03

 Cycle  19  Pass 1  IDiag  1:
 E= -138.809151708085     Delta-E=       -0.000012556564 Rises=F Damp=F
 DIIS: error= 1.18D-04 at cycle  19 NSaved=  19.
 NSaved=19 IEnMin=19 EnMin= -138.809151708085     IErMin=19 ErrMin= 1.18D-04
 ErrMax= 1.18D-04  0.00D+00 EMaxC= 1.00D-01 BMatC= 1.55D-06 BMatP= 6.44D-06
 IDIUse=3 WtCom= 9.99D-01 WtEn= 1.18D-03
 EnCoef did   100 forward-backward iterations
 Coeff-Com:  0.311D-03 0.388D-04-0.162D-04-0.208D-02-0.138D-02 0.935D-02
 Coeff-Com:  0.441D-02-0.158D-01-0.132D-01-0.596D-01 0.528D-01 0.160D+00
 Coeff-Com:  0.121D+00-0.187D+00-0.369D+00-0.308D+00 0.474D+00 0.510D+00
 Coeff-Com:  0.624D+00
 Coeff-En:   0.000D+00 0.000D+00 0.159D+00 0.000D+00 0.000D+00 0.421D+00
 Coeff-En:   0.355D+00 0.471D-02 0.000D+00 0.000D+00 0.199D-01 0.000D+00
 Coeff-En:   0.000D+00 0.176D-01 0.000D+00 0.000D+00 0.197D-02 0.106D-01
 Coeff-En:   0.992D-02
 Coeff:      0.311D-03 0.387D-04 0.171D-03-0.208D-02-0.138D-02 0.983D-02
 Coeff:      0.482D-02-0.157D-01-0.132D-01-0.595D-01 0.528D-01 0.160D+00
 Coeff:      0.120D+00-0.187D+00-0.368D+00-0.308D+00 0.474D+00 0.510D+00
 Coeff:      0.623D+00
 Gap=     0.052 Goal=   None    Shift=    0.000
 RMSDP=2.26D-05 MaxDP=1.75D-03 DE=-1.26D-05 OVMax= 1.60D-03

 Cycle  20  Pass 1  IDiag  1:
 E= -138.809154258048     Delta-E=       -0.000002549963 Rises=F Damp=F
 DIIS: error= 1.34D-04 at cycle  20 NSaved=  20.
 NSaved=20 IEnMin=20 EnMin= -138.809154258048     IErMin=19 ErrMin= 1.18D-04
 ErrMax= 1.34D-04  0.00D+00 EMaxC= 1.00D-01 BMatC= 1.63D-06 BMatP= 1.55D-06
 IDIUse=3 WtCom= 9.99D-01 WtEn= 1.18D-03
 EnCoef did   100 forward-backward iterations
 Rare condition: small coef for last iteration:  0.240D-15
 Coeff-Com:  0.972D-03-0.105D-02 0.215D-04-0.892D-03-0.134D-02 0.428D-02
 Coeff-Com:  0.250D-02-0.611D-02-0.327D-02-0.512D-01 0.839D-02 0.863D-01
 Coeff-Com:  0.967D-01 0.554D-02-0.163D+00-0.213D+00-0.852D-01 0.103D+00
 Coeff-Com:  0.500D+00 0.718D+00
 Coeff-En:   0.000D+00 0.000D+00 0.148D+00 0.000D+00 0.000D+00 0.000D+00
 Coeff-En:   0.124D-01 0.000D+00 0.000D+00 0.000D+00 0.000D+00 0.000D+00
 Coeff-En:   0.000D+00 0.000D+00 0.000D+00 0.000D+00 0.000D+00 0.000D+00
 Coeff-En:   0.000D+00 0.840D+00
 Coeff:      0.972D-03-0.105D-02 0.215D-04-0.892D-03-0.134D-02 0.428D-02
 Coeff:      0.250D-02-0.611D-02-0.327D-02-0.512D-01 0.839D-02 0.863D-01
 Coeff:      0.967D-01 0.554D-02-0.163D+00-0.213D+00-0.852D-01 0.103D+00
 Coeff:      0.500D+00 0.718D+00
 Gap=     0.052 Goal=   None    Shift=    0.000
 RMSDP=2.38D-05 MaxDP=2.37D-03 DE=-2.55D-06 OVMax= 1.16D-03

 Cycle  21  Pass 1  IDiag  1:
 E= -138.809155692478     Delta-E=       -0.000001434430 Rises=F Damp=F
 DIIS: error= 5.58D-05 at cycle  21 NSaved=  20.
 NSaved=20 IEnMin=20 EnMin= -138.809155692478     IErMin=20 ErrMin= 5.58D-05
 ErrMax= 5.58D-05  0.00D+00 EMaxC= 1.00D-01 BMatC= 2.76D-07 BMatP= 1.55D-06
 IDIUse=1 WtCom= 1.00D+00 WtEn= 0.00D+00
 Coeff-Com:  0.675D-03-0.834D-03 0.195D-04-0.592D-03-0.163D-03 0.107D-02
 Coeff-Com:  0.590D-03 0.288D-02-0.262D-01-0.120D-01 0.220D-01 0.479D-01
 Coeff-Com:  0.555D-01-0.645D-02-0.711D-01-0.206D+00-0.824D-01 0.165D+00
 Coeff-Com:  0.499D+00 0.611D+00
 Coeff:      0.675D-03-0.834D-03 0.195D-04-0.592D-03-0.163D-03 0.107D-02
 Coeff:      0.590D-03 0.288D-02-0.262D-01-0.120D-01 0.220D-01 0.479D-01
 Coeff:      0.555D-01-0.645D-02-0.711D-01-0.206D+00-0.824D-01 0.165D+00
 Coeff:      0.499D+00 0.611D+00
 Gap=     0.052 Goal=   None    Shift=    0.000
 RMSDP=1.28D-05 MaxDP=1.38D-03 DE=-1.43D-06 OVMax= 4.24D-04

 Cycle  22  Pass 1  IDiag  1:
 E= -138.809155969930     Delta-E=       -0.000000277451 Rises=F Damp=F
 DIIS: error= 1.91D-05 at cycle  22 NSaved=  20.
 NSaved=20 IEnMin=20 EnMin= -138.809155969930     IErMin=20 ErrMin= 1.91D-05
 ErrMax= 1.91D-05  0.00D+00 EMaxC= 1.00D-01 BMatC= 4.51D-08 BMatP= 2.76D-07
 IDIUse=1 WtCom= 1.00D+00 WtEn= 0.00D+00
 Coeff-Com: -0.149D-03 0.153D-03-0.563D-04-0.107D-02 0.806D-03 0.238D-02
 Coeff-Com:  0.330D-02-0.421D-02-0.695D-02-0.158D-02 0.863D-02 0.157D-01
 Coeff-Com:  0.278D-01 0.584D-02-0.682D-01-0.558D-01-0.304D-01 0.925D-01
 Coeff-Com:  0.342D+00 0.670D+00
 Coeff:     -0.149D-03 0.153D-03-0.563D-04-0.107D-02 0.806D-03 0.238D-02
 Coeff:      0.330D-02-0.421D-02-0.695D-02-0.158D-02 0.863D-02 0.157D-01
 Coeff:      0.278D-01 0.584D-02-0.682D-01-0.558D-01-0.304D-01 0.925D-01
 Coeff:      0.342D+00 0.670D+00
 Gap=     0.052 Goal=   None    Shift=    0.000
 RMSDP=5.93D-06 MaxDP=6.39D-04 DE=-2.77D-07 OVMax= 2.24D-04

 Cycle  23  Pass 1  IDiag  1:
 E= -138.809156017535     Delta-E=       -0.000000047606 Rises=F Damp=F
 DIIS: error= 9.88D-06 at cycle  23 NSaved=  20.
 NSaved=20 IEnMin=20 EnMin= -138.809156017535     IErMin=20 ErrMin= 9.88D-06
 ErrMax= 9.88D-06  0.00D+00 EMaxC= 1.00D-01 BMatC= 7.30D-09 BMatP= 4.51D-08
 IDIUse=1 WtCom= 1.00D+00 WtEn= 0.00D+00
 Coeff-Com: -0.117D-04-0.110D-04-0.657D-03 0.309D-03 0.185D-02 0.319D-03
 Coeff-Com:  0.179D-02-0.234D-02-0.535D-02-0.476D-02-0.170D-02 0.126D-01
 Coeff-Com:  0.151D-01 0.120D-01-0.105D-01-0.564D-01-0.663D-01 0.764D-02
 Coeff-Com:  0.332D+00 0.764D+00
 Coeff:     -0.117D-04-0.110D-04-0.657D-03 0.309D-03 0.185D-02 0.319D-03
 Coeff:      0.179D-02-0.234D-02-0.535D-02-0.476D-02-0.170D-02 0.126D-01
 Coeff:      0.151D-01 0.120D-01-0.105D-01-0.564D-01-0.663D-01 0.764D-02
 Coeff:      0.332D+00 0.764D+00
 Gap=     0.052 Goal=   None    Shift=    0.000
 RMSDP=2.22D-06 MaxDP=2.00D-04 DE=-4.76D-08 OVMax= 1.02D-04

 Cycle  24  Pass 1  IDiag  1:
 E= -138.809156028604     Delta-E=       -0.000000011069 Rises=F Damp=F
 DIIS: error= 3.90D-06 at cycle  24 NSaved=  20.
 NSaved=20 IEnMin=20 EnMin= -138.809156028604     IErMin=20 ErrMin= 3.90D-06
 ErrMax= 3.90D-06  0.00D+00 EMaxC= 1.00D-01 BMatC= 1.80D-09 BMatP= 7.30D-09
 IDIUse=1 WtCom= 1.00D+00 WtEn= 0.00D+00
 Coeff-Com: -0.132D-06-0.223D-03 0.133D-03 0.800D-03-0.551D-03 0.120D-02
 Coeff-Com: -0.306D-03-0.125D-02-0.304D-02-0.575D-02 0.456D-03 0.650D-02
 Coeff-Com:  0.217D-01 0.764D-02-0.232D-01-0.602D-01-0.649D-01 0.717D-01
 Coeff-Com:  0.477D+00 0.572D+00
 Coeff:     -0.132D-06-0.223D-03 0.133D-03 0.800D-03-0.551D-03 0.120D-02
 Coeff:     -0.306D-03-0.125D-02-0.304D-02-0.575D-02 0.456D-03 0.650D-02
 Coeff:      0.217D-01 0.764D-02-0.232D-01-0.602D-01-0.649D-01 0.717D-01
 Coeff:      0.477D+00 0.572D+00
 Gap=     0.052 Goal=   None    Shift=    0.000
 RMSDP=9.92D-07 MaxDP=6.73D-05 DE=-1.11D-08 OVMax= 6.45D-05

 Cycle  25  Pass 1  IDiag  1:
 E= -138.809156031976     Delta-E=       -0.000000003372 Rises=F Damp=F
 DIIS: error= 1.98D-06 at cycle  25 NSaved=  20.
 NSaved=20 IEnMin=20 EnMin= -138.809156031976     IErMin=20 ErrMin= 1.98D-06
 ErrMax= 1.98D-06  0.00D+00 EMaxC= 1.00D-01 BMatC= 4.44D-10 BMatP= 1.80D-09
 IDIUse=1 WtCom= 1.00D+00 WtEn= 0.00D+00
 Coeff-Com: -0.157D-04 0.549D-04 0.189D-03-0.370D-03 0.239D-04-0.118D-04
 Coeff-Com:  0.702D-03-0.179D-03-0.287D-02-0.205D-02 0.202D-03 0.780D-02
 Coeff-Com:  0.630D-02 0.404D-03-0.197D-01-0.353D-01-0.255D-01 0.101D+00
 Coeff-Com:  0.304D+00 0.665D+00
 Coeff:     -0.157D-04 0.549D-04 0.189D-03-0.370D-03 0.239D-04-0.118D-04
 Coeff:      0.702D-03-0.179D-03-0.287D-02-0.205D-02 0.202D-03 0.780D-02
 Coeff:      0.630D-02 0.404D-03-0.197D-01-0.353D-01-0.255D-01 0.101D+00
 Coeff:      0.304D+00 0.665D+00
 Gap=     0.052 Goal=   None    Shift=    0.000
 RMSDP=4.91D-07 MaxDP=4.09D-05 DE=-3.37D-09 OVMax= 2.00D-05

 Cycle  26  Pass 1  IDiag  1:
 E= -138.809156033736     Delta-E=       -0.000000001760 Rises=F Damp=F
 DIIS: error= 1.71D-06 at cycle  26 NSaved=  20.
 NSaved=20 IEnMin=20 EnMin= -138.809156033736     IErMin=20 ErrMin= 1.71D-06
 ErrMax= 1.71D-06  0.00D+00 EMaxC= 1.00D-01 BMatC= 1.25D-10 BMatP= 4.44D-10
 IDIUse=1 WtCom= 1.00D+00 WtEn= 0.00D+00
 Coeff-Com:  0.653D-05 0.293D-05 0.386D-04-0.162D-03-0.114D-03 0.194D-03
 Coeff-Com:  0.359D-03 0.145D-03 0.152D-03-0.635D-03-0.196D-02 0.474D-04
 Coeff-Com:  0.323D-02 0.346D-02 0.325D-02-0.166D-01-0.680D-01-0.367D-01
 Coeff-Com:  0.228D+00 0.885D+00
 Coeff:      0.653D-05 0.293D-05 0.386D-04-0.162D-03-0.114D-03 0.194D-03
 Coeff:      0.359D-03 0.145D-03 0.152D-03-0.635D-03-0.196D-02 0.474D-04
 Coeff:      0.323D-02 0.346D-02 0.325D-02-0.166D-01-0.680D-01-0.367D-01
 Coeff:      0.228D+00 0.885D+00
 Gap=     0.052 Goal=   None    Shift=    0.000
 RMSDP=4.23D-07 MaxDP=3.86D-05 DE=-1.76D-09 OVMax= 6.82D-06

 Cycle  27  Pass 1  IDiag  1:
 E= -138.809156035461     Delta-E=       -0.000000001725 Rises=F Damp=F
 DIIS: error= 1.62D-06 at cycle  27 NSaved=  20.
 NSaved=20 IEnMin=20 EnMin= -138.809156035461     IErMin=20 ErrMin= 1.62D-06
 ErrMax= 1.62D-06  0.00D+00 EMaxC= 1.00D-01 BMatC= 6.80D-11 BMatP= 1.25D-10
 IDIUse=1 WtCom= 1.00D+00 WtEn= 0.00D+00
 Coeff-Com: -0.375D-04 0.144D-03-0.777D-04-0.139D-04-0.130D-03 0.173D-03
 Coeff-Com:  0.751D-03 0.711D-03-0.859D-04-0.239D-02-0.217D-02-0.399D-03
 Coeff-Com:  0.651D-02 0.164D-01 0.179D-01-0.351D-01-0.117D+00-0.270D+00
 Coeff-Com: -0.143D-01 0.140D+01
 Coeff:     -0.375D-04 0.144D-03-0.777D-04-0.139D-04-0.130D-03 0.173D-03
 Coeff:      0.751D-03 0.711D-03-0.859D-04-0.239D-02-0.217D-02-0.399D-03
 Coeff:      0.651D-02 0.164D-01 0.179D-01-0.351D-01-0.117D+00-0.270D+00
 Coeff:     -0.143D-01 0.140D+01
 Gap=     0.052 Goal=   None    Shift=    0.000
 RMSDP=5.17D-07 MaxDP=5.68D-05 DE=-1.72D-09 OVMax= 7.06D-06

 Cycle  28  Pass 1  IDiag  1:
 E= -138.809156037893     Delta-E=       -0.000000002432 Rises=F Damp=F
 DIIS: error= 1.46D-06 at cycle  28 NSaved=  20.
 NSaved=20 IEnMin=20 EnMin= -138.809156037893     IErMin=20 ErrMin= 1.46D-06
 ErrMax= 1.46D-06  0.00D+00 EMaxC= 1.00D-01 BMatC= 5.80D-11 BMatP= 6.80D-11
 IDIUse=1 WtCom= 1.00D+00 WtEn= 0.00D+00
 Coeff-Com: -0.751D-04 0.449D-03 0.165D-03-0.796D-03-0.100D-02-0.324D-04
 Coeff-Com:  0.408D-03 0.189D-02 0.377D-02-0.876D-03-0.838D-02-0.810D-02
 Coeff-Com: -0.537D-02 0.373D-01 0.124D+00 0.194D-01-0.541D+00-0.154D+01
 Coeff-Com:  0.583D+00 0.234D+01
 Coeff:     -0.751D-04 0.449D-03 0.165D-03-0.796D-03-0.100D-02-0.324D-04
 Coeff:      0.408D-03 0.189D-02 0.377D-02-0.876D-03-0.838D-02-0.810D-02
 Coeff:     -0.537D-02 0.373D-01 0.124D+00 0.194D-01-0.541D+00-0.154D+01
 Coeff:      0.583D+00 0.234D+01
 Gap=     0.052 Goal=   None    Shift=    0.000
 RMSDP=1.42D-06 MaxDP=1.67D-04 DE=-2.43D-09 OVMax= 2.07D-05

 Cycle  29  Pass 1  IDiag  1:
 E= -138.809156043617     Delta-E=       -0.000000005724 Rises=F Damp=F
 DIIS: error= 1.03D-06 at cycle  29 NSaved=  20.
 NSaved=20 IEnMin=20 EnMin= -138.809156043617     IErMin=20 ErrMin= 1.03D-06
 ErrMax= 1.03D-06  0.00D+00 EMaxC= 1.00D-01 BMatC= 5.77D-11 BMatP= 5.80D-11
 IDIUse=1 WtCom= 1.00D+00 WtEn= 0.00D+00
 Coeff-Com:  0.218D-03 0.421D-04-0.448D-03-0.500D-03 0.533D-03 0.613D-03
 Coeff-Com:  0.106D-02 0.396D-03-0.213D-02-0.496D-02-0.127D-02 0.326D-02
 Coeff-Com:  0.322D-01 0.846D-01 0.121D-01-0.349D+00-0.117D+01-0.111D+00
 Coeff-Com:  0.176D+01 0.737D+00
 Coeff:      0.218D-03 0.421D-04-0.448D-03-0.500D-03 0.533D-03 0.613D-03
 Coeff:      0.106D-02 0.396D-03-0.213D-02-0.496D-02-0.127D-02 0.326D-02
 Coeff:      0.322D-01 0.846D-01 0.121D-01-0.349D+00-0.117D+01-0.111D+00
 Coeff:      0.176D+01 0.737D+00
 Gap=     0.052 Goal=   None    Shift=    0.000
 RMSDP=8.87D-07 MaxDP=1.05D-04 DE=-5.72D-09 OVMax= 1.28D-05

 Cycle  30  Pass 1  IDiag  1:
 E= -138.809156046183     Delta-E=       -0.000000002566 Rises=F Damp=F
 DIIS: error= 7.18D-07 at cycle  30 NSaved=  20.
 NSaved=20 IEnMin=20 EnMin= -138.809156046183     IErMin=20 ErrMin= 7.18D-07
 ErrMax= 7.18D-07  0.00D+00 EMaxC= 1.00D-01 BMatC= 2.73D-11 BMatP= 5.77D-11
 IDIUse=1 WtCom= 1.00D+00 WtEn= 0.00D+00
 Coeff-Com: -0.776D-04 0.622D-05-0.100D-03 0.124D-03-0.903D-04-0.425D-04
 Coeff-Com:  0.137D-03 0.299D-03 0.969D-03-0.940D-03-0.514D-02-0.110D-01
 Coeff-Com:  0.806D-02 0.578D-01 0.248D+00 0.286D+00-0.740D+00-0.655D+00
 Coeff-Com:  0.489D+00 0.132D+01
 Coeff:     -0.776D-04 0.622D-05-0.100D-03 0.124D-03-0.903D-04-0.425D-04
 Coeff:      0.137D-03 0.299D-03 0.969D-03-0.940D-03-0.514D-02-0.110D-01
 Coeff:      0.806D-02 0.578D-01 0.248D+00 0.286D+00-0.740D+00-0.655D+00
 Coeff:      0.489D+00 0.132D+01
 Gap=     0.052 Goal=   None    Shift=    0.000
 RMSDP=1.30D-06 MaxDP=1.55D-04 DE=-2.57D-09 OVMax= 1.88D-05

 Cycle  31  Pass 1  IDiag  1:
 E= -138.809156048453     Delta-E=       -0.000000002270 Rises=F Damp=F
 DIIS: error= 3.16D-07 at cycle  31 NSaved=  20.
 NSaved=20 IEnMin=20 EnMin= -138.809156048453     IErMin=20 ErrMin= 3.16D-07
 ErrMax= 3.16D-07  0.00D+00 EMaxC= 1.00D-01 BMatC= 1.28D-11 BMatP= 2.73D-11
 IDIUse=1 WtCom= 1.00D+00 WtEn= 0.00D+00
 Coeff-Com: -0.544D-04-0.158D-03-0.243D-03-0.102D-03 0.499D-04 0.123D-02
 Coeff-Com:  0.984D-03 0.569D-03-0.243D-02-0.702D-02-0.150D-01-0.124D-01
 Coeff-Com:  0.420D-01 0.223D+00 0.461D+00-0.289D+00-0.998D+00-0.728D-01
 Coeff-Com:  0.850D+00 0.818D+00
 Coeff:     -0.544D-04-0.158D-03-0.243D-03-0.102D-03 0.499D-04 0.123D-02
 Coeff:      0.984D-03 0.569D-03-0.243D-02-0.702D-02-0.150D-01-0.124D-01
 Coeff:      0.420D-01 0.223D+00 0.461D+00-0.289D+00-0.998D+00-0.728D-01
 Coeff:      0.850D+00 0.818D+00
 Gap=     0.052 Goal=   None    Shift=    0.000
 RMSDP=7.64D-07 MaxDP=9.04D-05 DE=-2.27D-09 OVMax= 1.09D-05

 Cycle  32  Pass 1  IDiag  1:
 E= -138.809156048957     Delta-E=       -0.000000000504 Rises=F Damp=F
 DIIS: error= 1.90D-07 at cycle  32 NSaved=  20.
 NSaved=20 IEnMin=20 EnMin= -138.809156048957     IErMin=20 ErrMin= 1.90D-07
 ErrMax= 1.90D-07  0.00D+00 EMaxC= 1.00D-01 BMatC= 4.90D-12 BMatP= 1.28D-11
 IDIUse=1 WtCom= 1.00D+00 WtEn= 0.00D+00
 Coeff-Com: -0.712D-04-0.139D-03-0.799D-04-0.275D-04 0.748D-03 0.512D-03
 Coeff-Com:  0.354D-04-0.176D-02-0.357D-02-0.670D-02-0.860D-02 0.257D-01
 Coeff-Com:  0.129D+00 0.277D+00-0.123D+00-0.590D+00-0.116D+00 0.395D+00
 Coeff-Com:  0.552D+00 0.470D+00
 Coeff:     -0.712D-04-0.139D-03-0.799D-04-0.275D-04 0.748D-03 0.512D-03
 Coeff:      0.354D-04-0.176D-02-0.357D-02-0.670D-02-0.860D-02 0.257D-01
 Coeff:      0.129D+00 0.277D+00-0.123D+00-0.590D+00-0.116D+00 0.395D+00
 Coeff:      0.552D+00 0.470D+00
 Gap=     0.052 Goal=   None    Shift=    0.000
 RMSDP=1.83D-07 MaxDP=1.64D-05 DE=-5.04D-10 OVMax= 4.08D-06

 Cycle  33  Pass 1  IDiag  1:
 E= -138.809156048986     Delta-E=       -0.000000000029 Rises=F Damp=F
 DIIS: error= 1.31D-07 at cycle  33 NSaved=  20.
 NSaved=20 IEnMin=20 EnMin= -138.809156048986     IErMin=20 ErrMin= 1.31D-07
 ErrMax= 1.31D-07  0.00D+00 EMaxC= 1.00D-01 BMatC= 1.52D-12 BMatP= 4.90D-12
 IDIUse=1 WtCom= 1.00D+00 WtEn= 0.00D+00
 Coeff-Com: -0.469D-04 0.628D-04-0.117D-04 0.285D-03 0.103D-04-0.228D-03
 Coeff-Com:  0.573D-04 0.859D-03 0.267D-02-0.166D-02-0.814D-02-0.338D-01
 Coeff-Com: -0.217D-01 0.103D+00 0.172D-01-0.681D-01-0.106D+00 0.862D-01
 Coeff-Com:  0.318D+00 0.712D+00
 Coeff:     -0.469D-04 0.628D-04-0.117D-04 0.285D-03 0.103D-04-0.228D-03
 Coeff:      0.573D-04 0.859D-03 0.267D-02-0.166D-02-0.814D-02-0.338D-01
 Coeff:     -0.217D-01 0.103D+00 0.172D-01-0.681D-01-0.106D+00 0.862D-01
 Coeff:      0.318D+00 0.712D+00
 Gap=     0.052 Goal=   None    Shift=    0.000
 RMSDP=8.83D-08 MaxDP=8.04D-06 DE=-2.89D-11 OVMax= 3.26D-06

 Cycle  34  Pass 1  IDiag  1:
 E= -138.809156048991     Delta-E=       -0.000000000006 Rises=F Damp=F
 DIIS: error= 1.01D-07 at cycle  34 NSaved=  20.
 NSaved=20 IEnMin=20 EnMin= -138.809156048991     IErMin=20 ErrMin= 1.01D-07
 ErrMax= 1.01D-07  0.00D+00 EMaxC= 1.00D-01 BMatC= 1.04D-12 BMatP= 1.52D-12
 IDIUse=1 WtCom= 1.00D+00 WtEn= 0.00D+00
 Coeff-Com:  0.398D-04-0.130D-04 0.450D-04-0.374D-04-0.912D-04 0.143D-03
 Coeff-Com:  0.626D-03 0.110D-02-0.210D-02-0.626D-02-0.182D-01-0.217D-02
 Coeff-Com:  0.549D-01 0.689D-02-0.332D-01-0.706D-01 0.205D-01 0.182D+00
 Coeff-Com:  0.520D+00 0.346D+00
 Coeff:      0.398D-04-0.130D-04 0.450D-04-0.374D-04-0.912D-04 0.143D-03
 Coeff:      0.626D-03 0.110D-02-0.210D-02-0.626D-02-0.182D-01-0.217D-02
 Coeff:      0.549D-01 0.689D-02-0.332D-01-0.706D-01 0.205D-01 0.182D+00
 Coeff:      0.520D+00 0.346D+00
 Gap=     0.052 Goal=   None    Shift=    0.000
 RMSDP=2.59D-08 MaxDP=1.84D-06 DE=-5.57D-12 OVMax= 1.79D-06

 Cycle  35  Pass 1  IDiag  1:
 E= -138.809156048994     Delta-E=       -0.000000000002 Rises=F Damp=F
 DIIS: error= 3.90D-08 at cycle  35 NSaved=  20.
 NSaved=20 IEnMin=20 EnMin= -138.809156048994     IErMin=20 ErrMin= 3.90D-08
 ErrMax= 3.90D-08  0.00D+00 EMaxC= 1.00D-01 BMatC= 1.74D-13 BMatP= 1.04D-12
 IDIUse=1 WtCom= 1.00D+00 WtEn= 0.00D+00
 Coeff-Com: -0.128D-04-0.364D-05 0.240D-04 0.376D-04 0.712D-04 0.230D-03
 Coeff-Com: -0.169D-03-0.216D-02-0.361D-02-0.609D-02 0.362D-02 0.184D-01
 Coeff-Com:  0.179D-01-0.794D-02-0.463D-01-0.352D-01 0.374D-01 0.213D+00
 Coeff-Com:  0.274D+00 0.536D+00
 Coeff:     -0.128D-04-0.364D-05 0.240D-04 0.376D-04 0.712D-04 0.230D-03
 Coeff:     -0.169D-03-0.216D-02-0.361D-02-0.609D-02 0.362D-02 0.184D-01
 Coeff:      0.179D-01-0.794D-02-0.463D-01-0.352D-01 0.374D-01 0.213D+00
 Coeff:      0.274D+00 0.536D+00
 Gap=     0.052 Goal=   None    Shift=    0.000
 RMSDP=2.14D-08 MaxDP=2.07D-06 DE=-2.19D-12 OVMax= 6.07D-07

 Cycle  36  Pass 1  IDiag  1:
 E= -138.809156048994     Delta-E=       -0.000000000001 Rises=F Damp=F
 DIIS: error= 2.50D-08 at cycle  36 NSaved=  20.
 NSaved=20 IEnMin=20 EnMin= -138.809156048994     IErMin=20 ErrMin= 2.50D-08
 ErrMax= 2.50D-08  0.00D+00 EMaxC= 1.00D-01 BMatC= 3.55D-14 BMatP= 1.74D-13
 IDIUse=1 WtCom= 1.00D+00 WtEn= 0.00D+00
 Coeff-Com: -0.175D-04-0.233D-05-0.159D-05-0.617D-05-0.676D-04-0.103D-03
 Coeff-Com:  0.870D-03 0.975D-03 0.673D-03-0.490D-02-0.113D-01 0.216D-01
 Coeff-Com:  0.102D-01-0.823D-02-0.349D-01-0.407D-01-0.353D-01 0.472D-01
 Coeff-Com:  0.319D+00 0.735D+00
 Coeff:     -0.175D-04-0.233D-05-0.159D-05-0.617D-05-0.676D-04-0.103D-03
 Coeff:      0.870D-03 0.975D-03 0.673D-03-0.490D-02-0.113D-01 0.216D-01
 Coeff:      0.102D-01-0.823D-02-0.349D-01-0.407D-01-0.353D-01 0.472D-01
 Coeff:      0.319D+00 0.735D+00
 Gap=     0.052 Goal=   None    Shift=    0.000
 RMSDP=7.89D-09 MaxDP=7.32D-07 DE=-5.40D-13 OVMax= 2.00D-07

 SCF Done:  E(ROHF) =  -138.809156049     A.U. after   36 cycles
            NFock= 36  Conv=0.79D-08     -V/T= 2.7120
 <Sx>= 0.0000 <Sy>= 0.0000 <Sz>= 2.0000 <S**2>= 6.0000 S= 2.0000
 <L.S>=  0.00000000000    
 KE= 8.107831843228D+01 PE=-3.854173770170D+02 EE= 1.356469541544D+02
 Annihilation of the first spin contaminant:
 S**2 before annihilation     6.0000,   after     6.0000
 Leave Link  502 at Sat Mar 24 00:30:10 2018, MaxMem= 10737418240 cpu:             762.5 elap:              31.2
 (Enter /home1/apps/gaussian/16rA.03/g16/l801.exe)
 Windowed orbitals will be sorted by symmetry type.
 GenMOA:  NOpAll=  4 NOp2=4 NOpUse=  4 JSym2X=1
 FoFJK:  IHMeth= 1 ICntrl=       0 DoSepK=F KAlg= 0 I1Cent=           0 FoldK=F
 IRaf=         0 NMat=       1 IRICut=       1 DoRegI=T DoRafI=F ISym2E= 1 IDoP0=0 IntGTp=1.
 FoFCou: FMM=F IPFlag=           8 FMFlag=      100000 FMFlg1=           0
         NFxFlg=           0 DoJE=F BraDBF=F KetDBF=F FulRan=T
         wScrn=  0.000000 ICntrl=         0 IOpCl=  1 I1Cent=           0 NGrid=           0
         NMat0=    1 NMatS0=      1 NMatT0=    0 NMatD0=    1 NMtDS0=    0 NMtDT0=    0
 Petite list used in FoFCou.
 <Sx>= 0.0000 <Sy>= 0.0000 <Sz>= 2.0000 <S**2>= 6.0000 S= 2.0000
 Range of M.O.s used for correlation:     1   258
 NBasis=   261 NAE=    13 NBE=     9 NFC=     0 NFV=     0
 NROrb=    258 NOA=    13 NOB=     9 NVA=   245 NVB=   249

 **** Warning!!: The largest alpha MO coefficient is  0.24551147D+03


 **** Warning!!: The largest beta MO coefficient is  0.24509579D+03

 Singles contribution to E2=   -0.8536387228D-02
 Leave Link  801 at Sat Mar 24 00:30:14 2018, MaxMem= 10737418240 cpu:             135.5 elap:               4.3
 (Enter /home1/apps/gaussian/16rA.03/g16/l804.exe)
 Open-shell transformation, MDV= 10737418240 ITran=4 ISComp=2.
 Unit  1 TFree=       2052546 TCopy=       1550327.
 Semi-Direct transformation.
 ModeAB=           4 MOrb=            13 LenV=   10735352976
 LASXX=     27714387 LTotXX=    27714387 LenRXX=    55891917
 LTotAB=    28177530 MaxLAS=   160609644 LenRXY=           0
 NonZer=    83606304 LenScr=   126157824 LnRSAI=   160609644
 LnScr1=   241859584 LExtra=    12245054 Total=    596764023
 MaxDsk= 67108864000 SrtSym=           T ITran=            4
 DoSDTr:  NPSUse= 32
 JobTyp=1 Pass  1:  I=   1 to  13.
 (rs|ai) integrals will be sorted in core.
 Complete sort for first half transformation.
 First half transformation complete.
 Begin second half transformation for I=  10.
 Complete sort for second half transformation.
 Second half transformation complete.
 ModeAB=           4 MOrb=             9 LenV=   10735352976
 LASXX=     19587894 LTotXX=    19587894 LenRXX=    37530309
 LTotAB=    17942415 MaxLAS=   111191292 LenRXY=           0
 NonZer=    57118203 LenScr=    86451200 LnRSAI=   111191292
 LnScr1=   167546880 LExtra=    68136971 Total=    470856652
 MaxDsk= 67108864000 SrtSym=           T ITran=            4
 DoSDTr:  NPSUse= 32
 JobTyp=2 Pass  1:  I=   1 to   9.
 (rs|ai) integrals will be sorted in core.
 Complete sort for first half transformation.
 First half transformation complete.
 Complete sort for second half transformation.
 Second half transformation complete.
 Spin components of T(2) and E(2):
     alpha-alpha T2 =       0.3847536143D-01 E2=     -0.1919040556D+00
     alpha-beta  T2 =       0.1419811194D+00 E2=     -0.6905430140D+00
     beta-beta   T2 =       0.2759878347D-01 E2=     -0.1056920845D+00
 ANorm=    0.1102025165D+01
 E2 =    -0.9966755414D+00 EUMP2 =    -0.13980583159037D+03
 (S**2,0)=  0.60000D+01           (S**2,1)=  0.60000D+01
 E(PUHF)=      -0.13880915605D+03        E(PMP2)=      -0.13980583159D+03
 Leave Link  804 at Sat Mar 24 00:32:14 2018, MaxMem= 10737418240 cpu:            3813.3 elap:             119.4
 (Enter /home1/apps/gaussian/16rA.03/g16/l913.exe)
 CIDS:  MDV= 10737418240.
 IFCWin=0 IBDFC=1 NFBD=     0     0 NFCmp=     0     0 NFFFC=     0     0
 Using original routines for 1st iteration.
 Using DD4UQ or CC4UQ for 2nd and later iterations.
 Keep R2 and R3 ints in memory in symmetry-blocked form, NReq=734618391.
 FoFCou: FMM=F IPFlag=           8 FMFlag=           0 FMFlg1=           0
         NFxFlg=           0 DoJE=F BraDBF=F KetDBF=F FulRan=T
         wScrn=  0.000000 ICntrl=       600 IOpCl=  0 I1Cent=           0 NGrid=           0
         NMat0=    1 NMatS0=  34191 NMatT0=    0 NMatD0=    1 NMtDS0=    0 NMtDT0=    0
 Petite list used in FoFCou.
 CIDS: In Core Option IDoMem=           1.
 CCSD(T)
 =======
 Iterations= 150 Convergence= 0.100D-06
 Produce multiple copies of IABC intergrals
 Iteration Nr.   1
 **********************
 DD1Dir will call FoFMem   1 times, MxPair=       348
 NAB=   117 NAA=    78 NBB=    36.
 DD1Dir will call FoFMem   1 times, MxPair=       348
 NAB=   117 NAA=    78 NBB=    36.
 MP4(R+Q)= -0.46627720D-01
 Maximum subspace dimension=  5
 A-vector RMS=  6.5409195D-04 Max=  1.5463733D-02 conv= 1.00D-05.
 RLE energy=       -0.9795814064
 E3=        0.63260508D-01        EROMP3=      -0.13974257108D+03
 E4(SDQ)=  -0.57014818D-01        ROMP4(SDQ)=  -0.13979958590D+03
 VARIATIONAL ENERGIES WITH THE FIRST-ORDER WAVEFUNCTION:
 DE(Corr)= -0.97927894     E(Corr)=     -139.78843498    
 NORM(A)=   0.10935653D+01
 Iteration Nr.   2
 **********************
 DD1Dir will call FoFMem   1 times, MxPair=       348
 NAB=   117 NAA=    78 NBB=    36.
 A-vector RMS=  6.6478301D-03 Max=  1.2887242D-01 conv= 1.00D-05.
 RLE energy=       -0.9515436512
 DE(Corr)= -0.91388615     E(CORR)=     -139.72304220     Delta= 6.54D-02
 NORM(A)=   0.10896269D+01
 Iteration Nr.   3
 **********************
 DD1Dir will call FoFMem   1 times, MxPair=       348
 NAB=   117 NAA=    78 NBB=    36.
 A-vector RMS=  2.7556378D-03 Max=  5.2539500D-02 conv= 1.00D-05.
 RLE energy=       -0.9716693470
 DE(Corr)= -0.94187067     E(CORR)=     -139.75102671     Delta=-2.80D-02
 NORM(A)=   0.10953872D+01
 Iteration Nr.   4
 **********************
 DD1Dir will call FoFMem   1 times, MxPair=       348
 NAB=   117 NAA=    78 NBB=    36.
 A-vector RMS=  5.2723289D-03 Max=  1.1013477D-01 conv= 1.00D-05.
 RLE energy=       -0.9598323145
 DE(Corr)= -0.92943889     E(CORR)=     -139.73859494     Delta= 1.24D-02
 NORM(A)=   0.12020927D+01
 Iteration Nr.   5
 **********************
 DD1Dir will call FoFMem   1 times, MxPair=       348
 NAB=   117 NAA=    78 NBB=    36.
 A-vector RMS=  4.8045651D-03 Max=  9.1709213D-02 conv= 1.00D-05.
 RLE energy=       -0.9745399887
 DE(Corr)= -0.99918720     E(CORR)=     -139.80834325     Delta=-6.97D-02
 NORM(A)=   0.11879094D+01
 Iteration Nr.   6
 **********************
 DD1Dir will call FoFMem   1 times, MxPair=       348
 NAB=   117 NAA=    78 NBB=    36.
 A-vector RMS=  1.0271340D-03 Max=  2.4373158D-02 conv= 1.00D-05.
 RLE energy=       -0.9766851812
 DE(Corr)= -0.97485127     E(CORR)=     -139.78400732     Delta= 2.43D-02
 NORM(A)=   0.12071673D+01
 Iteration Nr.   7
 **********************
 DD1Dir will call FoFMem   1 times, MxPair=       348
 NAB=   117 NAA=    78 NBB=    36.
 A-vector RMS=  7.1338727D-04 Max=  1.4617614D-02 conv= 1.00D-05.
 RLE energy=       -0.9774037188
 DE(Corr)= -0.97559951     E(CORR)=     -139.78475556     Delta=-7.48D-04
 NORM(A)=   0.12275817D+01
 Iteration Nr.   8
 **********************
 DD1Dir will call FoFMem   1 times, MxPair=       348
 NAB=   117 NAA=    78 NBB=    36.
 A-vector RMS=  3.9445712D-04 Max=  5.7290078D-03 conv= 1.00D-05.
 RLE energy=       -0.9778934760
 DE(Corr)= -0.97830992     E(CORR)=     -139.78746596     Delta=-2.71D-03
 NORM(A)=   0.12343966D+01
 Iteration Nr.   9
 **********************
 DD1Dir will call FoFMem   1 times, MxPair=       348
 NAB=   117 NAA=    78 NBB=    36.
 A-vector RMS=  2.5943319D-04 Max=  6.6996060D-03 conv= 1.00D-05.
 RLE energy=       -0.9790866376
 DE(Corr)= -0.97863203     E(CORR)=     -139.78778808     Delta=-3.22D-04
 NORM(A)=   0.12397427D+01
 Iteration Nr.  10
 **********************
 DD1Dir will call FoFMem   1 times, MxPair=       348
 NAB=   117 NAA=    78 NBB=    36.
 A-vector RMS=  1.3993565D-04 Max=  1.9549826D-03 conv= 1.00D-05.
 RLE energy=       -0.9786493857
 DE(Corr)= -0.97860970     E(CORR)=     -139.78776575     Delta= 2.23D-05
 NORM(A)=   0.12408548D+01
 Iteration Nr.  11
 **********************
 DD1Dir will call FoFMem   1 times, MxPair=       348
 NAB=   117 NAA=    78 NBB=    36.
 A-vector RMS=  1.7018014D-04 Max=  3.7544136D-03 conv= 1.00D-05.
 RLE energy=       -0.9790042157
 DE(Corr)= -0.97922593     E(CORR)=     -139.78838198     Delta=-6.16D-04
 NORM(A)=   0.12399482D+01
 Iteration Nr.  12
 **********************
 DD1Dir will call FoFMem   1 times, MxPair=       348
 NAB=   117 NAA=    78 NBB=    36.
 A-vector RMS=  1.4243687D-04 Max=  3.3001576D-03 conv= 1.00D-05.
 RLE energy=       -0.9788101057
 DE(Corr)= -0.97844810     E(CORR)=     -139.78760415     Delta= 7.78D-04
 NORM(A)=   0.12406124D+01
 Iteration Nr.  13
 **********************
 DD1Dir will call FoFMem   1 times, MxPair=       348
 NAB=   117 NAA=    78 NBB=    36.
 A-vector RMS=  5.4798082D-05 Max=  1.0993165D-03 conv= 1.00D-05.
 RLE energy=       -0.9786878511
 DE(Corr)= -0.97877509     E(CORR)=     -139.78793114     Delta=-3.27D-04
 NORM(A)=   0.12405443D+01
 Iteration Nr.  14
 **********************
 DD1Dir will call FoFMem   1 times, MxPair=       348
 NAB=   117 NAA=    78 NBB=    36.
 A-vector RMS=  3.5493178D-05 Max=  5.9044083D-04 conv= 1.00D-05.
 RLE energy=       -0.9787261750
 DE(Corr)= -0.97877282     E(CORR)=     -139.78792887     Delta= 2.27D-06
 NORM(A)=   0.12404724D+01
 Iteration Nr.  15
 **********************
 DD1Dir will call FoFMem   1 times, MxPair=       348
 NAB=   117 NAA=    78 NBB=    36.
 A-vector RMS=  2.5517510D-05 Max=  4.0702814D-04 conv= 1.00D-05.
 RLE energy=       -0.9786828321
 DE(Corr)= -0.97867548     E(CORR)=     -139.78783152     Delta= 9.73D-05
 NORM(A)=   0.12405204D+01
 Iteration Nr.  16
 **********************
 DD1Dir will call FoFMem   1 times, MxPair=       348
 NAB=   117 NAA=    78 NBB=    36.
 A-vector RMS=  1.8743913D-05 Max=  4.6905466D-04 conv= 1.00D-05.
 RLE energy=       -0.9786447419
 DE(Corr)= -0.97868121     E(CORR)=     -139.78783726     Delta=-5.73D-06
 NORM(A)=   0.12404984D+01
 Iteration Nr.  17
 **********************
 DD1Dir will call FoFMem   1 times, MxPair=       348
 NAB=   117 NAA=    78 NBB=    36.
 A-vector RMS=  1.3047667D-05 Max=  2.9902976D-04 conv= 1.00D-05.
 RLE energy=       -0.9786852367
 DE(Corr)= -0.97868756     E(CORR)=     -139.78784361     Delta=-6.35D-06
 NORM(A)=   0.12404351D+01
 Iteration Nr.  18
 **********************
 DD1Dir will call FoFMem   1 times, MxPair=       348
 NAB=   117 NAA=    78 NBB=    36.
 A-vector RMS=  1.8625691D-05 Max=  4.4186462D-04 conv= 1.00D-05.
 RLE energy=       -0.9786358585
 DE(Corr)= -0.97860879     E(CORR)=     -139.78776484     Delta= 7.88D-05
 NORM(A)=   0.12404242D+01
 Iteration Nr.  19
 **********************
 DD1Dir will call FoFMem   1 times, MxPair=       348
 NAB=   117 NAA=    78 NBB=    36.
 A-vector RMS=  8.9641866D-06 Max=  2.0141119D-04 conv= 1.00D-05.
 RLE energy=       -0.9786364025
 DE(Corr)= -0.97866015     E(CORR)=     -139.78781619     Delta=-5.14D-05
 NORM(A)=   0.12403790D+01
 Iteration Nr.  20
 **********************
 DD1Dir will call FoFMem   1 times, MxPair=       348
 NAB=   117 NAA=    78 NBB=    36.
 A-vector RMS=  6.7940673D-06 Max=  1.1193033D-04 conv= 1.00D-05.
 RLE energy=       -0.9786411478
 DE(Corr)= -0.97863781     E(CORR)=     -139.78779386     Delta= 2.23D-05
 NORM(A)=   0.12403165D+01
 Iteration Nr.  21
 **********************
 DD1Dir will call FoFMem   1 times, MxPair=       348
 NAB=   117 NAA=    78 NBB=    36.
 A-vector RMS=  4.0647081D-06 Max=  7.3182207D-05 conv= 1.00D-05.
 RLE energy=       -0.9786291821
 DE(Corr)= -0.97862584     E(CORR)=     -139.78778189     Delta= 1.20D-05
 NORM(A)=   0.12402862D+01
 Iteration Nr.  22
 **********************
 DD1Dir will call FoFMem   1 times, MxPair=       348
 NAB=   117 NAA=    78 NBB=    36.
 A-vector RMS=  3.3348559D-06 Max=  5.5385778D-05 conv= 1.00D-05.
 RLE energy=       -0.9786256185
 DE(Corr)= -0.97862886     E(CORR)=     -139.78778491     Delta=-3.02D-06
 NORM(A)=   0.12402447D+01
 Iteration Nr.  23
 **********************
 DD1Dir will call FoFMem   1 times, MxPair=       348
 NAB=   117 NAA=    78 NBB=    36.
 A-vector RMS=  2.3764647D-06 Max=  5.1759318D-05 conv= 1.00D-05.
 RLE energy=       -0.9786276435
 DE(Corr)= -0.97862670     E(CORR)=     -139.78778275     Delta= 2.15D-06
 NORM(A)=   0.12402062D+01
 Iteration Nr.  24
 **********************
 DD1Dir will call FoFMem   1 times, MxPair=       348
 NAB=   117 NAA=    78 NBB=    36.
 A-vector RMS=  1.8794599D-06 Max=  4.3160309D-05 conv= 1.00D-05.
 RLE energy=       -0.9786177288
 DE(Corr)= -0.97861898     E(CORR)=     -139.78777503     Delta= 7.73D-06
 NORM(A)=   0.12401826D+01
 Iteration Nr.  25
 **********************
 DD1Dir will call FoFMem   1 times, MxPair=       348
 NAB=   117 NAA=    78 NBB=    36.
 A-vector RMS=  2.7275295D-06 Max=  6.4173646D-05 conv= 1.00D-05.
 RLE energy=       -0.9786214229
 DE(Corr)= -0.97862743     E(CORR)=     -139.78778348     Delta=-8.45D-06
 NORM(A)=   0.12401596D+01
 Iteration Nr.  26
 **********************
 DD1Dir will call FoFMem   1 times, MxPair=       348
 NAB=   117 NAA=    78 NBB=    36.
 A-vector RMS=  1.2369964D-06 Max=  2.3010484D-05 conv= 1.00D-05.
 RLE energy=       -0.9786212658
 DE(Corr)= -0.97862053     E(CORR)=     -139.78777657     Delta= 6.90D-06
 NORM(A)=   0.12401445D+01
 Iteration Nr.  27
 **********************
 DD1Dir will call FoFMem   1 times, MxPair=       348
 NAB=   117 NAA=    78 NBB=    36.
 A-vector RMS=  1.0512691D-06 Max=  2.1299411D-05 conv= 1.00D-05.
 RLE energy=       -0.9786199368
 DE(Corr)= -0.97862071     E(CORR)=     -139.78777675     Delta=-1.79D-07
 NORM(A)=   0.12401395D+01
 Iteration Nr.  28
 **********************
 DD1Dir will call FoFMem   1 times, MxPair=       348
 NAB=   117 NAA=    78 NBB=    36.
 A-vector RMS=  6.9198315D-07 Max=  9.4829294D-06 conv= 1.00D-05.
 RLE energy=       -0.9786206254
 DE(Corr)= -0.97862182     E(CORR)=     -139.78777787     Delta=-1.12D-06
 NORM(A)=   0.12401362D+01
 Iteration Nr.  29
 **********************
 DD1Dir will call FoFMem   1 times, MxPair=       348
 NAB=   117 NAA=    78 NBB=    36.
 A-vector RMS=  5.5119083D-07 Max=  1.0629705D-05 conv= 1.00D-05.
 RLE energy=       -0.9786217968
 DE(Corr)= -0.97862171     E(CORR)=     -139.78777776     Delta= 1.13D-07
 NORM(A)=   0.12401344D+01
 Iteration Nr.  30
 **********************
 DD1Dir will call FoFMem   1 times, MxPair=       348
 NAB=   117 NAA=    78 NBB=    36.
 A-vector RMS=  4.0509080D-07 Max=  7.5307681D-06 conv= 1.00D-05.
 RLE energy=       -0.9786209510
 DE(Corr)= -0.97862099     E(CORR)=     -139.78777704     Delta= 7.20D-07
 NORM(A)=   0.12401375D+01
 Iteration Nr.  31
 **********************
 DD1Dir will call FoFMem   1 times, MxPair=       348
 NAB=   117 NAA=    78 NBB=    36.
 A-vector RMS=  3.7951762D-07 Max=  7.3877677D-06 conv= 1.00D-05.
 RLE energy=       -0.9786226183
 DE(Corr)= -0.97862303     E(CORR)=     -139.78777908     Delta=-2.04D-06
 NORM(A)=   0.12401387D+01
 Iteration Nr.  32
 **********************
 DD1Dir will call FoFMem   1 times, MxPair=       348
 NAB=   117 NAA=    78 NBB=    36.
 A-vector RMS=  3.7108661D-07 Max=  7.6115340D-06 conv= 1.00D-05.
 RLE energy=       -0.9786225916
 DE(Corr)= -0.97862178     E(CORR)=     -139.78777783     Delta= 1.25D-06
 NORM(A)=   0.12401413D+01
 Iteration Nr.  33
 **********************
 DD1Dir will call FoFMem   1 times, MxPair=       348
 NAB=   117 NAA=    78 NBB=    36.
 A-vector RMS=  2.0412555D-07 Max=  3.4662768D-06 conv= 1.00D-05.
 RLE energy=       -0.9786227361
 DE(Corr)= -0.97862264     E(CORR)=     -139.78777869     Delta=-8.59D-07
 NORM(A)=   0.12401446D+01
 Iteration Nr.  34
 **********************
 DD1Dir will call FoFMem   1 times, MxPair=       348
 NAB=   117 NAA=    78 NBB=    36.
 A-vector RMS=  1.8226550D-07 Max=  3.7413368D-06 conv= 1.00D-05.
 RLE energy=       -0.9786230428
 DE(Corr)= -0.97862300     E(CORR)=     -139.78777905     Delta=-3.65D-07
 NORM(A)=   0.12401459D+01
 Iteration Nr.  35
 **********************
 DD1Dir will call FoFMem   1 times, MxPair=       348
 NAB=   117 NAA=    78 NBB=    36.
 A-vector RMS=  1.4126232D-07 Max=  3.1521052D-06 conv= 1.00D-05.
 RLE energy=       -0.9786232823
 DE(Corr)= -0.97862304     E(CORR)=     -139.78777909     Delta=-4.10D-08
 NORM(A)=   0.12401474D+01
 CI/CC converged in   35 iterations to DelEn=-4.10D-08 Conv= 1.00D-07 ErrA1= 1.41D-07 Conv= 1.00D-05
 Wavefunction amplitudes converged. E(Corr)=     -139.78777909    
 Dominant configurations:
 ***********************
 Spin Case        I    J    A    B          Value
    AA           11        14            0.362664D+00
    AA           11        17            0.119166D+00
    AA           11        26            0.103892D+00
    BB            7        24           -0.108093D+00
    BB            8        25            0.128421D+00
    BB            9        26            0.128421D+00
 Largest amplitude= 3.63D-01
 Time for triples=    39588.79 seconds.
 T4(CCSD)= -0.72503565D-01
 T5(CCSD)=  0.24742459D-01
 CCSD(T)= -0.13983554020D+03
 Discarding MO integrals.
 Leave Link  913 at Sat Mar 24 01:06:03 2018, MaxMem= 10737418240 cpu:           64665.3 elap:            2027.9
 (Enter /home1/apps/gaussian/16rA.03/g16/l601.exe)
 Copying SCF densities to generalized density rwf, IOpCl= 0 IROHF=1.

 **********************************************************************

            Population analysis using the SCF density.

 **********************************************************************

 Orbital symmetries:
       Occupied  (SG) (PI) (PI) (SG) (SG) (DLTA) (SG) (PI) (PI)
                 (SG) (PI) (PI) (DLTA)
       Virtual   (SG) (PI) (PI) (SG) (SG) (PI) (PI) (SG) (DLTA)
                 (DLTA) (PI) (PI) (SG) (SG) (PI) (PI) (SG) (PI)
                 (PI) (SG) (DLTA) (DLTA) (PI) (PI) (SG) (SG) (SG)
                 (DLTA) (DLTA) (PI) (PI) (SG) (?A) (?A) (?A) (?A)
                 (SG) (PI) (PI) (DLTA) (DLTA) (SG) (DLTA) (DLTA)
                 (PI) (PI) (SG) (PI) (PI) (SG) (SG) (SG) (PHI)
                 (PHI) (DLTA) (DLTA) (PI) (PI) (DLTA) (DLTA) (SG)
                 (PI) (PI) (SG) (?A) (?A) (?A) (?A) (DLTA) (DLTA)
                 (SG) (PI) (PI) (SG) (DLTA) (DLTA) (?B) (?B) (?A)
                 (?A) (?A) (?A) (SG) (DLTA) (DLTA) (PI) (PI) (SG)
                 (PI) (PI) (SG) (SG) (SG) (PHI) (PHI) (DLTA) (DLTA)
                 (PI) (PI) (SG) (DLTA) (DLTA) (PI) (PI) (?A) (?A)
                 (DLTA) (DLTA) (SG) (?A) (?A) (PI) (PI) (SG) (DLTA)
                 (DLTA) (SG) (PI) (PI) (SG) (?A) (?A) (?B) (?B)
                 (DLTA) (DLTA) (?A) (?A) (SG) (SG) (SG) (PI) (PI)
                 (SG) (SG) (DLTA) (DLTA) (PI) (PI) (PI) (PI) (SG)
                 (DLTA) (?A) (?A) (DLTA) (?A) (?A) (SG) (?A) (?A)
                 (?C) (?C) (DLTA) (DLTA) (?A) (?A) (?C) (SG) (DLTA)
                 (SG) (DLTA) (PI) (PI) (SG) (PI) (PI) (SG) (DLTA)
                 (DLTA) (PI) (PI) (SG) (PI) (PI) (SG) (SG) (DLTA)
                 (SG) (DLTA) (PI) (PI) (SG) (PI) (PI) (SG) (SG)
                 (PI) (PI) (SG) (SG) (PI) (PI) (SG) (DLTA) (DLTA)
                 (PI) (PI) (SG) (SG) (SG) (PI) (PI) (SG) (PI) (PI)
                 (SG) (SG) (DLTA) (DLTA) (PI) (PI) (SG) (PI) (PI)
                 (SG) (SG) (SG) (PI) (PI) (SG) (SG) (SG) (PI) (PI)
                 (SG) (SG) (PI) (PI) (SG) (SG) (SG) (PI) (PI) (SG)
                 (SG) (SG) (SG) (PI) (PI) (SG) (SG) (SG) (SG) (SG)
 Unable to determine electronic state:  partially filled degenerate orbitals.
 Alpha  occ. eigenvalues --   -4.39210  -3.02077  -2.94682  -2.94682  -1.10614
 Alpha  occ. eigenvalues --   -0.69553  -0.69553  -0.67239  -0.66121  -0.61066
 Alpha  occ. eigenvalues --   -0.35337  -0.34134  -0.34134
 Alpha virt. eigenvalues --   -0.05634   0.01670   0.01670   0.01727   0.04028
 Alpha virt. eigenvalues --    0.06966   0.06966   0.08730   0.09486   0.09518
 Alpha virt. eigenvalues --    0.10619   0.10619   0.13707   0.14813   0.24295
 Alpha virt. eigenvalues --    0.24295   0.26126   0.30488   0.30671   0.30671
 Alpha virt. eigenvalues --    0.33476   0.33851   0.37718   0.37718   0.43322
 Alpha virt. eigenvalues --    0.49910   0.57459   0.76512   0.76591   0.81509
 Alpha virt. eigenvalues --    0.81509   0.87582   0.93465   0.93465   0.94131
 Alpha virt. eigenvalues --    0.94131   0.97289   1.04381   1.04381   1.04772
 Alpha virt. eigenvalues --    1.05358   1.12553   1.16026   1.17141   1.17708
 Alpha virt. eigenvalues --    1.17708   1.25942   1.50234   1.50234   1.64209
 Alpha virt. eigenvalues --    1.85873   1.92453   2.20239   2.20239   2.26487
 Alpha virt. eigenvalues --    2.26606   2.35769   2.35769   2.44298   2.44368
 Alpha virt. eigenvalues --    2.58594   2.66245   2.66245   2.67037   2.78913
 Alpha virt. eigenvalues --    2.78913   2.83648   2.83648   2.86802   2.88292
 Alpha virt. eigenvalues --    3.10926   3.13967   3.13967   3.27839   3.33766
 Alpha virt. eigenvalues --    3.36234   3.43586   3.43593   3.47690   3.47690
 Alpha virt. eigenvalues --    3.51243   3.51243   3.65133   3.77509   3.78474
 Alpha virt. eigenvalues --    3.98978   3.98978   4.32556   4.46705   4.46705
 Alpha virt. eigenvalues --    4.92595   5.32932   5.97434   6.67166   6.67166
 Alpha virt. eigenvalues --    6.76805   6.76831   6.90194   6.90194   6.93219
 Alpha virt. eigenvalues --    7.17167   7.17269   7.32845   7.32845   7.50752
 Alpha virt. eigenvalues --    7.51955   7.51955   7.53638   7.60722   7.74924
 Alpha virt. eigenvalues --    7.74924   7.77746   7.77746   7.89024   8.01045
 Alpha virt. eigenvalues --    8.04219   8.14542   8.23246   8.23246   9.53889
 Alpha virt. eigenvalues --    9.95927   9.95927   9.96933   9.96942  10.05208
 Alpha virt. eigenvalues --   10.07529  10.31818  10.31818  10.44946  13.38881
 Alpha virt. eigenvalues --   13.85585  15.05904  15.05904  16.04292  16.54078
 Alpha virt. eigenvalues --   16.58898  16.62574  16.66075  16.66075  17.85732
 Alpha virt. eigenvalues --   17.85732  18.90086  19.75106  19.78082  19.78483
 Alpha virt. eigenvalues --   19.78483  19.87483  19.87483  20.37471  25.36617
 Alpha virt. eigenvalues --   25.36617  25.39377  25.39594  25.39666  25.42281
 Alpha virt. eigenvalues --   25.53631  25.53631  25.60447  26.92049  31.03328
 Alpha virt. eigenvalues --   31.04729  31.07330  31.09773  31.09773  31.34246
 Alpha virt. eigenvalues --   35.46772  35.46772  36.67177  44.12345  44.12346
 Alpha virt. eigenvalues --   44.21442  44.21442  44.36480  46.42269  46.42269
 Alpha virt. eigenvalues --   47.22483  50.73275  58.49457  58.50367  58.52903
 Alpha virt. eigenvalues --   58.54972  58.54972  63.64692  66.54061  66.54061
 Alpha virt. eigenvalues --   67.98871  92.06063 121.01886 121.01886 121.56991
 Alpha virt. eigenvalues --  122.30513 125.36648 125.36648 126.71444 140.77612
 Alpha virt. eigenvalues --  140.79237 140.82312 140.82312 140.96271 168.00473
 Alpha virt. eigenvalues --  236.47970 242.58504 242.58504 243.98706 290.62710
 Alpha virt. eigenvalues --  290.62710 291.20212 320.38619 468.24908 468.25272
 Alpha virt. eigenvalues --  468.28132 468.28132 468.28963 486.13368 486.13368
 Alpha virt. eigenvalues --  487.47592 525.82211 639.221081020.149491020.14949
 Alpha virt. eigenvalues -- 1021.346351333.644781494.610062280.253722280.25372
 Alpha virt. eigenvalues -- 2281.320322914.020595577.823735577.823735578.74484
 Alpha virt. eigenvalues -- 5622.303926694.62948******************************
 Alpha virt. eigenvalues -- **************************************************
 Alpha virt. eigenvalues -- **************************************************
     Molecular Orbital Coefficients:
                           5         6         7         8         9
                           O         O         O         O         O
     Eigenvalues --    -1.10614  -0.69553  -0.69553  -0.67239  -0.66121
   1 1   Fe 1S          0.00000  -0.00000   0.00000   0.00000   0.00000
   2        2S         -0.00000   0.00000  -0.00000   0.00000   0.00000
   3        3S          0.00000  -0.00000   0.00000   0.00000   0.00000
   4        4S         -0.00000   0.00000  -0.00000   0.00000   0.00000
   5        5S          0.00000  -0.00000   0.00000   0.00000   0.00000
   6        6S         -0.00000   0.00000  -0.00000   0.00000   0.00000
   7        7S          0.00000  -0.00000   0.00001   0.00000   0.00000
[...]
  42       30PX        -0.00018  -0.00009  -0.00009  -0.00000
  43       30PY        -0.00018  -0.00009  -0.00009  -0.00000
  44       30PZ        -0.00017  -0.00009  -0.00008  -0.00000
  45       31PX         0.00203   0.00102   0.00101   0.00001
  46       31PY         0.00203   0.00102   0.00101   0.00001
  47       31PZ         0.00196   0.00099   0.00097   0.00001
  48       32PX        -0.02510  -0.01258  -0.01251  -0.00007
  49       32PY        -0.02510  -0.01258  -0.01251  -0.00007
  50       32PZ        -0.02457  -0.01236  -0.01221  -0.00015
  51       33PX         0.38433   0.19255   0.19178   0.00077
  52       33PY         0.38433   0.19255   0.19178   0.00077
  53       33PZ         0.40177   0.20067   0.20110  -0.00042
  54       34PX         0.55698   0.27907   0.27791   0.00116
  55       34PY         0.55698   0.27907   0.27791   0.00116
  56       34PZ         0.55762   0.27975   0.27786   0.00189
  57       35PX         0.75473   0.37800   0.37673   0.00127
  58       35PY         0.75473   0.37800   0.37673   0.00127
  59       35PZ         0.72213   0.36352   0.35861   0.00491
  60       36PX         0.46947   0.23459   0.23488  -0.00028
  61       36PY         0.46947   0.23459   0.23488  -0.00028
  62       36PZ         0.46205   0.23095   0.23110  -0.00015
  63       37PX         0.06894   0.03788   0.03106   0.00682
  64       37PY         0.06894   0.03788   0.03106   0.00682
  65       37PZ         0.06554   0.03509   0.03045   0.00464
  66       38PX         0.07334   0.04129   0.03204   0.00925
  67       38PY         0.07334   0.04129   0.03204   0.00925
  68       38PZ        -0.00689  -0.00274  -0.00415   0.00142
  69       39PX         0.00828   0.00412   0.00417  -0.00005
  70       39PY         0.00828   0.00412   0.00417  -0.00005
  71       39PZ        -0.00187  -0.00102  -0.00085  -0.00017
  72       40PX        -0.30918  -0.15487  -0.15430  -0.00057
  73       40PY        -0.30918  -0.15487  -0.15430  -0.00057
  74       40PZ        -0.32480  -0.16216  -0.16264   0.00048
  75       41PX         0.12754   0.06369   0.06385  -0.00017
  76       41PY         0.12754   0.06369   0.06385  -0.00017
  77       41PZ         0.16929   0.08274   0.08655  -0.00382
  78       42PX        -0.00061  -0.00030  -0.00031   0.00002
  79       42PY        -0.00061  -0.00030  -0.00031   0.00002
  80       42PZ        -0.00007  -0.00005  -0.00003  -0.00002
  81       43D 0        0.00000   0.00000   0.00000   0.00000
  82       43D+1        0.00000   0.00000   0.00000   0.00000
  83       43D-1        0.00000   0.00000   0.00000   0.00000
  84       43D+2        0.00001   0.00000   0.00000   0.00000
  85       43D-2        0.00000   0.00000   0.00000   0.00000
  86       44D 0       -0.00019  -0.00018  -0.00001  -0.00017
  87       44D+1       -0.00020  -0.00019  -0.00000  -0.00019
  88       44D-1       -0.00020  -0.00019  -0.00000  -0.00019
  89       44D+2       -0.00036  -0.00018  -0.00018  -0.00000
  90       44D-2       -0.00019  -0.00019  -0.00000  -0.00019
  91       45D 0        0.02119   0.01997   0.00122   0.01874
  92       45D+1        0.02177   0.02129   0.00048   0.02080
  93       45D-1        0.02177   0.02129   0.00048   0.02080
  94       45D+2        0.03997   0.01998   0.01998   0.00000
  95       45D-2        0.02084   0.02084   0.00000   0.02084
  96       46D 0        0.41352   0.38634   0.02718   0.35917
  97       46D+1        0.42022   0.40939   0.01082   0.39857
  98       46D-1        0.42022   0.40939   0.01082   0.39857
  99       46D+2        0.76688   0.38344   0.38344   0.00000
 100       46D-2        0.40118   0.40118   0.00000   0.40118
 101       47D 0       -0.55970  -0.48735  -0.07235  -0.41500
 102       47D+1       -0.50832  -0.47843  -0.02989  -0.44854
 103       47D-1       -0.50832  -0.47843  -0.02989  -0.44854
 104       47D+2       -0.90962  -0.45481  -0.45481  -0.00000
 105       47D-2       -0.46684  -0.46684  -0.00000  -0.46684
 106       48D 0        0.34976   0.31088   0.03888   0.27200
 107       48D+1        0.33510   0.31928   0.01582   0.30346
 108       48D-1        0.33510   0.31928   0.01582   0.30346
 109       48D+2        0.64270   0.32135   0.32135   0.00000
 110       48D-2        0.32334   0.32334   0.00000   0.32334
 111       49D 0        0.13976   0.11389   0.02588   0.08801
 112       49D+1        0.13877   0.11627   0.02249   0.09378
 113       49D-1        0.13877   0.11627   0.02249   0.09378
 114       49D+2        0.28547   0.14274   0.14274   0.00000
 115       49D-2        0.12162   0.12162   0.00000   0.12162
 116       50D 0        0.00262   0.00507  -0.00245   0.00752
 117       50D+1        0.02531   0.01425   0.01106   0.00319
 118       50D-1        0.02531   0.01425   0.01106   0.00319
 119       50D+2        0.02902   0.01451   0.01451   0.00000
 120       50D-2        0.00827   0.00827   0.00000   0.00827
 121       51D 0       -0.24037  -0.22302  -0.01735  -0.20567
 122       51D+1       -0.24222  -0.23530  -0.00692  -0.22839
 123       51D-1       -0.24222  -0.23530  -0.00692  -0.22839
 124       51D+2       -0.44245  -0.22122  -0.22122  -0.00000
 125       51D-2       -0.23067  -0.23067  -0.00000  -0.23067
 126       52D 0        0.92427   0.82789   0.09639   0.73150
 127       52D+1        0.87900   0.83945   0.03955   0.79990
 128       52D-1        0.87900   0.83945   0.03955   0.79990
 129       52D+2        1.58781   0.79390   0.79390   0.00000
 130       52D-2        0.82213   0.82213   0.00000   0.82213
 131       53D 0       -0.00041  -0.00024  -0.00017  -0.00007
 132       53D+1       -0.00146  -0.00072  -0.00073   0.00001
 133       53D-1       -0.00146  -0.00072  -0.00073   0.00001
 134       53D+2       -0.00057  -0.00028  -0.00028  -0.00000
 135       53D-2       -0.00017  -0.00017  -0.00000  -0.00017
 136       54F 0        0.00001   0.00001   0.00000   0.00000
 137       54F+1        0.00001   0.00000   0.00000   0.00000
 138       54F-1        0.00001   0.00000   0.00000   0.00000
 139       54F+2        0.00000   0.00000   0.00000   0.00000
 140       54F-2        0.00000   0.00000   0.00000   0.00000
 141       54F+3        0.00001   0.00000   0.00000   0.00000
 142       54F-3        0.00001   0.00000   0.00000   0.00000
 143       55F 0        0.00011   0.00007   0.00004   0.00003
 144       55F+1        0.00004   0.00003   0.00001   0.00002
 145       55F-1        0.00004   0.00003   0.00001   0.00002
 146       55F+2        0.00003   0.00001   0.00001   0.00000
 147       55F-2        0.00001   0.00001   0.00000   0.00001
 148       55F+3        0.00003   0.00002   0.00002   0.00000
 149       55F-3        0.00003   0.00002   0.00002   0.00000
 150       56F 0        0.00283   0.00168   0.00115   0.00053
 151       56F+1        0.00214   0.00133   0.00081   0.00052
 152       56F-1        0.00214   0.00133   0.00081   0.00052
 153       56F+2        0.00025   0.00012   0.00012   0.00000
 154       56F-2        0.00013   0.00013   0.00000   0.00013
 155       56F+3        0.00004   0.00002   0.00002  -0.00000
 156       56F-3        0.00004   0.00002   0.00002  -0.00000
 157       57F 0        0.00277   0.00183   0.00094   0.00089
 158       57F+1        0.00782   0.00481   0.00302   0.00179
 159       57F-1        0.00782   0.00481   0.00302   0.00179
 160       57F+2        0.00048   0.00024   0.00024   0.00000
 161       57F-2        0.00019   0.00019   0.00000   0.00019
 162       57F+3        0.00000   0.00000   0.00000   0.00000
 163       57F-3        0.00000   0.00000   0.00000   0.00000
 164       58G 0        0.00000   0.00000   0.00000   0.00000
 165       58G+1        0.00000   0.00000   0.00000   0.00000
 166       58G-1        0.00000   0.00000   0.00000   0.00000
 167       58G+2        0.00000   0.00000   0.00000   0.00000
 168       58G-2        0.00000   0.00000   0.00000   0.00000
 169       58G+3        0.00000   0.00000   0.00000   0.00000
 170       58G-3        0.00000   0.00000   0.00000   0.00000
 171       58G+4        0.00000   0.00000   0.00000   0.00000
 172       58G-4        0.00000   0.00000   0.00000   0.00000
 173       59G 0        0.00002   0.00001   0.00001   0.00000
 174       59G+1        0.00000   0.00000   0.00000   0.00000
 175       59G-1        0.00000   0.00000   0.00000   0.00000
 176       59G+2        0.00000   0.00000   0.00000   0.00000
 177       59G-2        0.00000   0.00000   0.00000   0.00000
 178       59G+3        0.00000   0.00000   0.00000   0.00000
 179       59G-3        0.00000   0.00000   0.00000   0.00000
 180       59G+4        0.00000   0.00000   0.00000   0.00000
 181       59G-4        0.00000   0.00000   0.00000   0.00000
 182       60G 0        0.00051   0.00025   0.00026  -0.00001
 183       60G+1        0.00079   0.00039   0.00039  -0.00000
 184       60G-1        0.00079   0.00039   0.00039  -0.00000
 185       60G+2        0.00000   0.00000   0.00000   0.00000
 186       60G-2        0.00000   0.00000   0.00000   0.00000
 187       60G+3        0.00000   0.00000   0.00000   0.00000
 188       60G-3        0.00000   0.00000   0.00000   0.00000
 189       60G+4        0.00000   0.00000   0.00000   0.00000
 190       60G-4        0.00000   0.00000   0.00000   0.00000
 191 2   O  1S         -0.00000  -0.00000  -0.00000   0.00000
 192        2S          0.00000   0.00000   0.00000  -0.00000
 193        3S         -0.00000  -0.00000  -0.00000   0.00000
 194        4S          0.00001   0.00000   0.00000  -0.00000
 195        5S         -0.00019  -0.00009  -0.00009   0.00000
 196        6S         -0.00812  -0.00406  -0.00407   0.00001
 197        7S         -0.15713  -0.07860  -0.07853  -0.00007
 198        8S          1.04392   0.52220   0.52172   0.00048
 199        9S          0.22577   0.11295   0.11281   0.00014
 200       10S          0.75060   0.37586   0.37474   0.00113
 201       11S          0.06839   0.03420   0.03419   0.00001
 202       12S          0.00497   0.00248   0.00249  -0.00000
 203       13S          0.07474   0.03759   0.03715   0.00044
 204       14PX         0.00112   0.00058   0.00055   0.00003
 205       14PY         0.00112   0.00058   0.00055   0.00003
 206       14PZ         0.00096   0.00049   0.00047   0.00002
 207       15PX         0.06341   0.03252   0.03089   0.00163
 208       15PY         0.06341   0.03252   0.03089   0.00163
 209       15PZ         0.05463   0.02775   0.02688   0.00087
 210       16PX         0.35188   0.18035   0.17153   0.00882
 211       16PY         0.35188   0.18035   0.17153   0.00882
 212       16PZ         0.30625   0.15526   0.15100   0.00426
 213       17PX         0.72126   0.36794   0.35333   0.01461
 214       17PY         0.72126   0.36794   0.35333   0.01461
 215       17PZ         0.64682   0.32640   0.32042   0.00598
 216       18PX         0.57950   0.29411   0.28538   0.00873
 217       18PY         0.57950   0.29411   0.28538   0.00873
 218       18PZ         0.45320   0.23358   0.21962   0.01397
 219       19PX         0.00043   0.00022   0.00021   0.00001
 220       19PY         0.00043   0.00022   0.00021   0.00001
 221       19PZ         0.00039   0.00019   0.00020  -0.00001
 222       20PX        -0.00021  -0.00011  -0.00010  -0.00001
 223       20PY        -0.00021  -0.00011  -0.00010  -0.00001
 224       20PZ        -0.00018  -0.00009  -0.00009  -0.00000
 225       21PX         0.08339   0.04360   0.03979   0.00381
 226       21PY         0.08339   0.04360   0.03979   0.00381
 227       21PZ         0.05744   0.03191   0.02552   0.00639
 228       22D 0        0.00043   0.00024   0.00019   0.00005
 229       22D+1        0.00024   0.00013   0.00011   0.00002
 230       22D-1        0.00024   0.00013   0.00011   0.00002
 231       22D+2        0.00001   0.00000   0.00000   0.00000
 232       22D-2        0.00000   0.00000   0.00000   0.00000
 233       23D 0        0.00447   0.00250   0.00198   0.00052
 234       23D+1        0.00367   0.00192   0.00175   0.00017
 235       23D-1        0.00367   0.00192   0.00175   0.00017
 236       23D+2        0.00020   0.00010   0.00010   0.00000
 237       23D-2        0.00007   0.00007   0.00000   0.00007
 238       24D 0        0.00000   0.00000   0.00000   0.00000
 239       24D+1        0.00000   0.00000   0.00000   0.00000
 240       24D-1        0.00000   0.00000   0.00000   0.00000
 241       24D+2        0.00000   0.00000   0.00000   0.00000
 242       24D-2        0.00000   0.00000   0.00000   0.00000
 243       25D 0        0.00059   0.00030   0.00029   0.00002
 244       25D+1        0.00507   0.00213   0.00294  -0.00081
 245       25D-1        0.00507   0.00213   0.00294  -0.00081
 246       25D+2       -0.00001  -0.00000  -0.00000   0.00000
 247       25D-2        0.00002   0.00002  -0.00000   0.00002
 248       26F 0        0.00021   0.00013   0.00007   0.00006
 249       26F+1        0.00014   0.00009   0.00005   0.00004
 250       26F-1        0.00014   0.00009   0.00005   0.00004
 251       26F+2        0.00001   0.00001   0.00001   0.00000
 252       26F-2        0.00001   0.00001   0.00000   0.00001
 253       26F+3        0.00000   0.00000   0.00000   0.00000
 254       26F-3        0.00000   0.00000   0.00000   0.00000
 255       27F 0        0.00008   0.00008  -0.00000   0.00008
 256       27F+1        0.00064   0.00026   0.00039  -0.00013
 257       27F-1        0.00064   0.00026   0.00039  -0.00013
 258       27F+2        0.00015   0.00007   0.00007   0.00000
 259       27F-2        0.00005   0.00005   0.00000   0.00005
 260       27F+3       -0.00000  -0.00000  -0.00000  -0.00000
 261       27F-3       -0.00000  -0.00000  -0.00000  -0.00000
          Condensed to atoms (all electrons):
               1          2
     1  Fe  14.545869   0.304269
     2  O    0.304269   6.845593
          Atomic-Atomic Spin Densities.
               1          2
     1  Fe   3.922184  -0.030501
     2  O   -0.030501   0.138818
 Mulliken charges and spin densities:
               1          2
     1  Fe   1.149862   3.891683
     2  O   -1.149862   0.108317
 Sum of Mulliken charges =  -0.00000   4.00000
 Mulliken charges and spin densities with hydrogens summed into heavy atoms:
               1          2
     1  Fe   1.149862   3.891683
     2  O   -1.149862   0.108317
 Electronic spatial extent (au):  <R**2>=             89.9701
 Charge=             -0.0000 electrons
 Dipole moment (field-independent basis, Debye):
    X=              0.0000    Y=              0.0000    Z=              9.3072  Tot=              9.3072
 Quadrupole moment (field-independent basis, Debye-Ang):
   XX=            -18.4854   YY=            -18.4854   ZZ=            -23.0414
   XY=              0.0000   XZ=              0.0000   YZ=              0.0000
 Traceless Quadrupole moment (field-independent basis, Debye-Ang):
   XX=              1.5187   YY=              1.5187   ZZ=             -3.0374
   XY=              0.0000   XZ=              0.0000   YZ=              0.0000
 Octapole moment (field-independent basis, Debye-Ang**2):
  XXX=              0.0000  YYY=              0.0000  ZZZ=             27.2543  XYY=              0.0000
  XXY=              0.0000  XXZ=              6.6181  XZZ=              0.0000  YZZ=              0.0000
  YYZ=              6.6181  XYZ=              0.0000
 Hexadecapole moment (field-independent basis, Debye-Ang**3):
 XXXX=            -21.2894 YYYY=            -21.2894 ZZZZ=           -105.4521 XXXY=              0.0000
 XXXZ=              0.0000 YYYX=              0.0000 YYYZ=              0.0000 ZZZX=              0.0000
 ZZZY=              0.0000 XXYY=             -6.8731 XXZZ=            -20.3254 YYZZ=            -20.3254
 XXYZ=              0.0000 YYXZ=              0.0000 ZZXY=              0.0000
 N-N= 2.988294838136D+01 E-N=-3.854173773844D+02  KE= 8.107831843228D+01
 Symmetry A1   KE= 3.702645043659D+01
 Symmetry A2   KE= 6.669357038625D+00
 Symmetry B1   KE= 1.869125614107D+01
 Symmetry B2   KE= 1.869125481705D+01
 Symmetry A1   SP= 1.000000000000D+00
 Symmetry A2   SP= 1.000000000000D+00
 Symmetry B1   SP= 1.000000000000D+00
 Symmetry B2   SP= 1.000000000000D+00
 Orbital energies and kinetic energies (alpha):
                                 1                 2
   5         O                -1.106141          0.831564
   6         O                -0.695531          6.397716
   7         O                -0.695531          2.147930
   8         O                -0.672395          2.001654
   9         O                -0.661206          2.001654
  10         O                -0.610658          6.107391
  11         O                -0.353374          6.724376
  12         O                -0.341337          6.724377
  13         O                -0.341337          6.669357
  14         V                -0.056337          0.456533
  15         V                 0.016701          0.094065
  16         V                 0.016701          0.094065
  17         V                 0.017270          0.160620
  18         V                 0.040278          0.050178
 Total kinetic energy from orbitals= 1.073038194962D+02
                          Isotropic Fermi Contact Couplings
        Atom                 a.u.       MegaHertz       Gauss      10(-4) cm-1
     1  Fe(57)             0.00024       0.00882       0.00315       0.00294
     2  O(17)              0.00014      -0.02153      -0.00768      -0.00718
 --------------------------------------------------------
       Center         ----  Spin Dipole Couplings  ----
                      3XX-RR        3YY-RR        3ZZ-RR
 --------------------------------------------------------
     1   Atom       -1.258651     -1.258650      2.517301
     2   Atom       -0.073988     -0.073988      0.147976
 --------------------------------------------------------
                        XY            XZ            YZ
 --------------------------------------------------------
     1   Atom        0.000000      0.000000      0.000000
     2   Atom        0.000000      0.000000      0.000000
 --------------------------------------------------------


 ---------------------------------------------------------------------------------
              Anisotropic Spin Dipole Couplings in Principal Axis System
 ---------------------------------------------------------------------------------

       Atom             a.u.   MegaHertz   Gauss  10(-4) cm-1        Axes

              Baa    -1.2587   -21.791    -7.776    -7.269  1.0000  0.0000  0.0000
     1 Fe(57) Bbb    -1.2587   -21.791    -7.776    -7.269 -0.0000  1.0000  0.0000
              Bcc     2.5173    43.582    15.551    14.537  0.0000  0.0000  1.0000
 
              Baa    -0.0740     5.354     1.910     1.786 -0.0000  1.0000  0.0000
     2 O(17)  Bbb    -0.0740     5.354     1.910     1.786  1.0000  0.0000  0.0000
              Bcc     0.1480   -10.707    -3.821    -3.572  0.0000  0.0000  1.0000
 

 ---------------------------------------------------------------------------------

 No NMR shielding tensors so no spin-rotation constants.
 Leave Link  601 at Sat Mar 24 01:06:08 2018, MaxMem= 10737418240 cpu:             112.4 elap:               4.6
 (Enter /home1/apps/gaussian/16rA.03/g16/l9999.exe)
 1\1\GINC-C473-122\SP\ROCCSD(T)-Full\Gen\Fe1O1(5)\GWANG18\24-Mar-2018\0
 \\#P ROCCSD(T)=(MaxCyc=150, Full)/Gen SCF=(maxcycle=400) Pseudo=Read I
 ntegral(NoXCTest) Pop=Regular MaxDisk=500GB\\FeO\\0,5\Fe,0,0.,0.,0.\O,
 0,0.,0.,1.7\\Version=ES64L-G16RevA.03\HF=-138.809156\MP2=-139.8058316\
 MP3=-139.7425711\PUHF=-138.809156\PMP2-0=-139.8058316\MP4SDQ=-139.7995
 859\CCSD=-139.7877791\CCSD(T)=-139.8355402\RMSD=7.894e-09\PG=C*V [C*(O
 1Fe1)]\\@


 Statistics are no substitute for judgment.
                            -- Henry Clay
 Job cpu time:       0 days 19 hours 19 minutes 54.1 seconds.
 Elapsed time:       0 days  0 hours 36 minutes 31.1 seconds.
 File lengths (MBytes):  RWF=   4558 Int=      0 D2E=      0 Chk=      9 Scr=      1
 Normal termination of Gaussian 16 at Sat Mar 24 01:06:09 2018.
