
 Primary working directories    : /tmp/cmelton
 Secondary working directories  : /tmp/cmelton
 Wavefunction directory         : /remote/cmelton/wfu/
 Main file repository           : /tmp/cmelton/

 SHA1      : 4c1979699e6aeda0524d0210415ba82a958648b0
 NAME      : 2012.1.39
 ARCHNAME  : Linux/x86_64
 FC        : /projects/sems/install/rhel6-x86_64/sems/compiler/intel/16.0.1/base/bin/ifort
 FCVERSION : 16.0.1
 BLASLIB   : -L/projects/sems/install/rhel6-x86_64/sems/compiler/intel/16.0.1/base/compilers_and_libraries_2016.1.150/linux/mkl/lib/intel64 -lmkl_intel_ilp64 -lmkl_sequential -lmkl_core
 id        : sandiacon

 Nodes           nprocs
 breve.sandia.gov    1

 Using customized tuning parameters: mindgm=7; mindgv=16; mindgc=1; mindgr=1; noblas=0; minvec=7
 default implementation of scratch files=df  

 ***,Calculation for Be atom, singlet and triplet
 memory,512,m
 gthresh,twoint=1.e-12
 geometry={
 1
 Mn
 Mn  0.0 0.0 0.0
 }
 
 basis={
 ECP,Mn,10,2,0
 4;
 1,23.9390798968269, 15.000;
 3,22.6487595203966, 359.086198452404;
 2,21.8940654317432,-152.940673128244;
 2,6.35910495525268,-2.00927518084064;
 2;
 2,18.5418030129861, 245.531112904643;
 2,8.39845964747084, 33.1420229873595;
 2;
 2,19.3120237305302, 163.210590494950;
 2,8.37007765431889, 25.0308813645583;
 Including file /remote/cmelton/data/corrECP/Mn/gani_cc51/basis/aug-cc-pwCV5Z-dk.basis
 }
 
 
 Including file /remote/cmelton/data/corrECP/Mn/gani_cc51/basis/states.proc
 
 do i=1,13
    if (i.eq.1) then
       Is2d5
    else if (i.eq.2) then
       Is1d6
    else if (i.eq.3) then
       Id7
    else if (i.eq.4) then
       IIs1d5
    else if (i.eq.5) then
       IId6
    else if (i.eq.6) then
       IIId5
    else if (i.eq.7) then
       IVd4
    else if (i.eq.8) then
       Vd3
    else if (i.eq.9) then
       VId2
    else if (i.eq.10) then
       VIId1
    else if (i.eq.11) then
       VIII
    else if (i.eq.12) then
       XIV
    else if (i.eq.13) then
       As2d6
    endif
    scf(i)=energy
     _CC_NORM_MAX=2.0
     {rccsd(t),maxit=100;core}
     ccsd(i)=energy
 enddo
 
 table,scf,ccsd
 save
 type,csv

 Variables initialized (782), CPU time= 0.00 sec
 Commands  initialized (547), CPU time= 0.01 sec, 517 directives.
 Default parameters read. Elapsed time= 0.10 sec

 Checking input...
 Passed
1


                                         ***  PROGRAM SYSTEM MOLPRO  ***
                         Copyright, University College Cardiff Consultants Limited, 2008

                                    Version 2012.1 linked Aug  2 2016 14:07:26


 **********************************************************************************************************************************
 LABEL *   Calculation for Be atom, singlet and triplet                                  
 Linux-3.10.0-693.11.6.el7.x86_64/breve.sandia.gov(x86_64) 64 bit serial version         DATE: 29-Jan-18          TIME: 10:02:19  
 **********************************************************************************************************************************

 SHA1:             4c1979699e6aeda0524d0210415ba82a958648b0
 **********************************************************************************************************************************

 THRESHOLDS:

 ZERO    =  1.00D-12  ONEINT  =  1.00D-12  TWOINT  =  1.00D-12  PREFAC  =  1.00D-14  LOCALI  =  1.00D-09  EORDER  =  1.00D-04
 ENERGY  =  0.00D+00  ETEST   =  0.00D+00  EDENS   =  0.00D+00  THRDEDEF=  1.00D-06  GRADIENT=  1.00D-02  STEP    =  1.00D-03
 ORBITAL =  1.00D-05  CIVEC   =  1.00D-05  COEFF   =  1.00D-04  PRINTCI =  5.00D-02  PUNCHCI =  9.90D+01  OPTGRAD =  3.00D-04
 OPTENERG=  1.00D-06  OPTSTEP =  3.00D-04  THRGRAD =  1.00D-10  COMPRESS=  1.00D-11  VARMIN  =  1.00D-07  VARMAX  =  1.00D-03
 THRDOUB =  0.00D+00  THRDIV  =  1.00D-05  THRRED  =  1.00D-07  THRPSP  =  1.00D+00  THRDC   =  1.00D-10  THRCS   =  1.00D-10
 THRNRM  =  1.00D-08  THREQ   =  0.00D+00  THRDE   =  1.00D+00  THRREF  =  1.00D-05  SPARFAC =  1.00D+00  THRDLP  =  1.00D-07
 THRDIA  =  1.00D-10  THRDLS  =  1.00D-07  THRGPS  =  0.00D+00  THRKEX  =  0.00D+00  THRDIS  =  2.00D-01  THRVAR  =  1.00D-10
 THRLOC  =  1.00D-06  THRGAP  =  1.00D-06  THRLOCT = -1.00D+00  THRGAPT = -1.00D+00  THRORB  =  1.00D-06  THRMLTP =  0.00D+00
 THRCPQCI=  1.00D-10  KEXTA   =  0.00D+00  THRCOARS=  0.00D+00  SYMTOL  =  1.00D-06  GRADTOL =  1.00D-06  THROVL  =  1.00D-08
 THRORTH =  1.00D-08  GRID    =  1.00D-06  GRIDMAX =  1.00D-03  DTMAX   =  0.00D+00  THROCCDE=  1.00D-01  THROCCDE=  1.00D-01



Geometry recognized as XYZ


 Variable memory set to  512000000 words,  buffer space   230000 words

 SETTING BASIS          =    USERDEF

 DO I                   =         1.00000000   

 Running procedure=IS2D5


 Recomputing integrals since basis changed


 Using spherical harmonics


1PROGRAM * SEWARD (Integral evaluation for generally contracted gaussian basis sets)     Author: Roland Lindh, 1990

 Geometry written to block  1 of record 700

 Orientation using atomic masses  
 Molecule type: Atom
 Symmetry elements: X,Y,Z
 Rotational constants:       0.0000000      0.0000000      0.0000000 GHz  (calculated with average atomic masses)

 Point group  D2h 



 ATOMIC COORDINATES

 NR  ATOM    CHARGE       X              Y              Z

   1  MN     15.00    0.000000000    0.000000000    0.000000000

 NUCLEAR CHARGE:                   15
 NUMBER OF PRIMITIVE AOS:         493
 NUMBER OF SYMMETRY AOS:          345
 NUMBER OF CONTRACTIONS:          345   (  88Ag  +  47B3u +  47B2u +  34B1g +  47B1u +  34B2g +  34B3g +  14Au  )
 NUMBER OF CORE ORBITALS:           4   (   1Ag  +   1B3u +   1B2u +   0B1g +   1B1u +   0B2g +   0B3g +   0Au  )
 NUMBER OF VALENCE ORBITALS:        6   (   3Ag  +   0B3u +   0B2u +   1B1g +   0B1u +   1B2g +   1B3g +   0Au  )


 NUCLEAR REPULSION ENERGY    0.00000000

 EXTRA SYMMETRY OF AOS IN SYMMETRY 1:   1 1 1 1 1 1 1 1 1 1   1 1 1 1 1 1 1 1 1 1   1 1 1 1 1 1 1 1 1 1   1 2 3 2 3 2 3 2 3 2
                                        3 2 3 2 3 2 3 2 3 2   3 2 3 2 3 2 3 2 3 2   3 4 5 6 4 5 6 4 5 6   4 5 6 4 5 6 7 8 910
                                        7 8 910 7 8 910
 EXTRA SYMMETRY OF AOS IN SYMMETRY 2:   1 1 1 1 1 1 1 1 1 1   1 1 1 1 1 1 1 1 1 1   1 1 1 2 3 2 3 2 3 2   3 2 3 2 3 4 5 6 4 5
                                        6 4 5 6 4 5 6
 EXTRA SYMMETRY OF AOS IN SYMMETRY 3:   1 1 1 1 1 1 1 1 1 1   1 1 1 1 1 1 1 1 1 1   1 1 1 2 3 2 3 2 3 2   3 2 3 2 3 4 5 6 4 5
                                        6 4 5 6 4 5 6
 EXTRA SYMMETRY OF AOS IN SYMMETRY 4:   1 1 1 1 1 1 1 1 1 1   1 1 1 1 1 2 3 2 3 2   3 2 3 2 3 4 5 6 4 5   6 4 5 6
 EXTRA SYMMETRY OF AOS IN SYMMETRY 5:   1 1 1 1 1 1 1 1 1 1   1 1 1 1 1 1 1 1 1 1   1 1 1 2 3 2 3 2 3 2   3 2 3 2 3 4 5 6 4 5
                                        6 4 5 6 4 5 6
 EXTRA SYMMETRY OF AOS IN SYMMETRY 6:   1 1 1 1 1 1 1 1 1 1   1 1 1 1 1 2 3 2 3 2   3 2 3 2 3 4 5 6 4 5   6 4 5 6
 EXTRA SYMMETRY OF AOS IN SYMMETRY 7:   1 1 1 1 1 1 1 1 1 1   1 1 1 1 1 2 3 2 3 2   3 2 3 2 3 4 5 6 4 5   6 4 5 6
 EXTRA SYMMETRY OF AOS IN SYMMETRY 8:   1 1 1 1 1 1 2 3 2 3   2 3 2 3

 Eigenvalues of metric

         1 0.103E-07 0.565E-06 0.608E-05 0.608E-05 0.341E-04 0.114E-03 0.284E-03 0.421E-03
         2 0.319E-06 0.350E-05 0.228E-03 0.803E-03 0.223E-02 0.515E-02 0.112E-01 0.186E-01
         3 0.319E-06 0.350E-05 0.228E-03 0.803E-03 0.223E-02 0.515E-02 0.112E-01 0.186E-01
         4 0.608E-05 0.421E-03 0.677E-02 0.202E-01 0.488E-01 0.951E-01 0.998E-01 0.998E-01
         5 0.319E-06 0.350E-05 0.228E-03 0.803E-03 0.223E-02 0.515E-02 0.112E-01 0.186E-01
         6 0.608E-05 0.421E-03 0.677E-02 0.202E-01 0.488E-01 0.951E-01 0.998E-01 0.998E-01
         7 0.608E-05 0.421E-03 0.677E-02 0.202E-01 0.488E-01 0.951E-01 0.998E-01 0.998E-01
         8 0.710E-01 0.221E+00 0.221E+00 0.250E+00 0.514E+00 0.567E+00 0.567E+00 0.105E+01


 Contracted 2-electron integrals neglected if value below      1.0D-13
 AO integral compression algorithm  1   Integral accuracy      1.0D-13

     1040.974 MB (compressed) written to integral file ( 40.6%)


 NUMBER OF SORTED TWO-ELECTRON INTEGRALS:  228231103.     BUFFER LENGTH:  32768
 NUMBER OF SEGMENTS:   8  SEGMENT LENGTH:   31998948      RECORD LENGTH: 524288

 Memory used in sort:      32.56 MW

 SORT1 READ   320603050. AND WROTE   116027936. INTEGRALS IN    337 RECORDS. CPU TIME:     6.86 SEC, REAL TIME:     7.99 SEC
 SORT2 READ   116027936. AND WROTE   228231103. INTEGRALS IN   3971 RECORDS. CPU TIME:     2.99 SEC, REAL TIME:     3.65 SEC

 FILE SIZES:   FILE 1:  1051.3 MBYTE,  FILE 4:  1413.5 MBYTE,   TOTAL:   2464.8 MBYTE

 OPERATOR DM      FOR CENTER  0  COORDINATES:    0.000000    0.000000    0.000000


 **********************************************************************************************************************************
 DATASETS  * FILE   NREC   LENGTH (MB)   RECORD NAMES
              1      20      654.89       500      610      700      900      950      970     1000      129      960     1100   
                                          VAR    BASINP    GEOM    SYMINP    ZMAT    AOBASIS   BASIS     P2S    ABASIS      S 
                                         1400     1410     1420     1200     1210     1080     1600     1650     1300     1700   
                                           T        V       ECP      H0       H01     AOSYM     SMH    MOLCAS    ERIS     OPER   

 PROGRAMS   *        TOTAL       INT
 CPU TIMES  *        98.82     98.64
 REAL TIME  *       102.39 SEC
 DISK USED  *         2.47 GB      
 **********************************************************************************************************************************

1PROGRAM * RHF-SCF (OPEN SHELL)       Authors: W. Meyer, H.-J. Werner


 NUMBER OF ELECTRONS:      10+    5-    SPACE SYMMETRY=1    SPIN SYMMETRY: Sextet  
 CONVERGENCE THRESHOLDS:    1.00E-05 (Density)    1.00E-07 (Energy)
 MAX. NUMBER OF ITERATIONS:       60
 INTERPOLATION TYPE:            DIIS
 INTERPOLATION STEPS:              2 (START)      1 (STEP)
 LEVEL SHIFTS:                 -0.30 (CLOSED)  0.00 (OPEN) 


 Singly occupied orbitals:      3.1       4.1       1.4       1.6       1.7
 
 Extra symmetries of mos in symmetry 1:   1   1   3   2
 Orbital guess generated from atomic densities. Full valence occupancy:    4   1   1   1   1   1   1   0


 Molecular orbital dump at record        4202.2

 ITERATION    DDIFF          GRAD             ENERGY        2-EL.EN.            DIPOLE MOMENTS         DIIS   ORB.
    1      0.000D+00      0.000D+00      -103.31401845    145.447902    0.00000    0.00000    0.00000    0    start
    2      0.000D+00      0.175D-01      -103.45974663    157.164605    0.00000    0.00000    0.00000    1    diag,B
    3      0.285D-01      0.143D-01      -103.50140075    154.344515    0.00000    0.00000    0.00000    2    diag,B
    4      0.272D-01      0.332D-02      -103.50442479    153.745886    0.00000    0.00000    0.00000    3    diag,B
    5      0.139D-01      0.482D-03      -103.50463713    153.652318    0.00000    0.00000    0.00000    4    diag,B
    6      0.236D-02      0.876D-04      -103.50466312    153.614973    0.00000    0.00000    0.00000    5    diag,B
    7      0.496D-03      0.308D-04      -103.50466722    153.596072    0.00000    0.00000    0.00000    6    fixocc
    8      0.434D-03      0.945D-05      -103.50466763    153.593422    0.00000    0.00000    0.00000    7    diag,B
    9      0.207D-03      0.291D-05      -103.50466767    153.592187    0.00000    0.00000    0.00000    8    diag,B
   10      0.191D-03      0.805D-06      -103.50466767    153.592220    0.00000    0.00000    0.00000    9    orth
   11      0.499D-04      0.266D-06      -103.50466767    153.592167    0.00000    0.00000    0.00000    9    diag,B
   12      0.242D-04      0.696D-07      -103.50466767    153.592181    0.00000    0.00000    0.00000    9    diag,B
   13      0.601D-05      0.915D-08      -103.50466767    153.592179    0.00000    0.00000    0.00000    0    orth

 Final alpha occupancy:   4   1   1   1   1   1   1   0
 Final beta  occupancy:   2   1   1   0   1   0   0   0

 !RHF STATE 1.1 Energy               -103.504667670689
 Nuclear energy                         0.00000000
 One-electron energy                 -180.30075697
 Two-electron energy                   76.79608929
 Virial quotient                       -1.81130575
 !RHF STATE 1.1 Dipole moment           0.00000000     0.00000000     0.00000000
 Dipole moment /Debye                   0.00000000     0.00000000     0.00000000

 ELECTRON ORBITALS
 =================


   Orb  Occ    Energy  Couls-En    Coefficients

                                   1 1s      1 1s      1 1s      1 1s      1 1s      1 1s      1 1s      1 1s      1 1s      1 1s   
                                   1 1s      1 1s      1 1s      1 1s      1 1s      1 1s      1 1s      1 1s      1 1s      1 1s   
                                   1 1s      1 1s      1 1s      1 1s      1 1s      1 1s      1 1s      1 1s      1 1s      1 1s   
                                   1 1s      1 3d0     1 3d2+    1 3d0     1 3d2+    1 3d0     1 3d2+    1 3d0     1 3d2+    1 3d0  
                                   1 3d2+    1 3d0     1 3d2+    1 3d0     1 3d2+    1 3d0     1 3d2+    1 3d0     1 3d2+    1 3d0  
                                   1 3d2+    1 3d0     1 3d2+    1 3d0     1 3d2+    1 3d0     1 3d2+    1 3d0     1 3d2+    1 3d0  
                                   1 3d2+    1 5g0     1 5g4+    1 5g2+    1 5g0     1 5g4+    1 5g2+    1 5g0     1 5g4+    1 5g2+ 
                                   1 5g0     1 5g4+    1 5g2+    1 5g0     1 5g4+    1 5g2+    1 7i6+    1 7i4+    1 7i2+    1 7i0  
                                   1 7i6+    1 7i4+    1 7i2+    1 7i0     1 7i6+    1 7i4+    1 7i2+    1 7i0  

   1.1   2    -3.9329  -19.3346 -0.000000  0.000000 -0.000000  0.000000 -0.000000  0.000000 -0.000000  0.000002 -0.000005  0.000015
                                -0.000041  0.000109 -0.000281  0.000727 -0.001983  0.006347 -0.027737  0.110855 -0.071373 -0.577274
                                -0.157308  1.205465  0.601251  0.223079  0.013048 -0.005305  0.001931 -0.000713  0.259493 -0.723471
                                 0.000171 -0.000000  0.000000  0.000000 -0.000000 -0.000000 -0.000000 -0.000000 -0.000000 -0.000000
                                -0.000000 -0.000000  0.000000 -0.000000  0.000000 -0.000000 -0.000000 -0.000000  0.000000 -0.000000
                                 0.000000 -0.000000 -0.000000  0.000000 -0.000000  0.000000 -0.000000  0.000000 -0.000000 -0.000000
                                -0.000000 -0.000000 -0.000000  0.000000  0.000000 -0.000000  0.000000 -0.000000 -0.000000 -0.000000
                                -0.000000  0.000000 -0.000000  0.000000  0.000000  0.000000  0.000000 -0.000000 -0.000000 -0.000000
                                 0.000000  0.000000  0.000000  0.000000  0.000000 -0.000000 -0.000000 -0.000000

   2.1   2    -0.2505   -5.2873  0.000000 -0.000000  0.000000 -0.000000  0.000000 -0.000000  0.000000 -0.000000  0.000001 -0.000003
                                 0.000009 -0.000024  0.000061 -0.000159  0.000437 -0.001426  0.006470 -0.027078  0.019736  0.146195
                                 0.040116 -0.402336 -0.227494 -0.186748  0.112338  0.424909  0.500886  0.134284 -0.067504  0.269536
                                 0.000447 -0.000000  0.000000  0.000000 -0.000000 -0.000000  0.000000 -0.000000  0.000000 -0.000000
                                 0.000000 -0.000000  0.000000 -0.000000  0.000000 -0.000000  0.000000 -0.000000  0.000000 -0.000000
                                 0.000000  0.000000 -0.000000  0.000000  0.000000 -0.000000  0.000000 -0.000000  0.000000  0.000000
                                -0.000000 -0.000000  0.000000 -0.000000  0.000000 -0.000000  0.000000 -0.000000  0.000000 -0.000000
                                 0.000000  0.000000  0.000000  0.000000  0.000000 -0.000000  0.000000 -0.000000 -0.000000 -0.000000
                                -0.000000  0.000000  0.000000  0.000000  0.000000 -0.000000 -0.000000 -0.000000

   3.1   +    -0.6290  -11.7968  0.000000 -0.000000 -0.000000  0.000000 -0.000000  0.000000 -0.000000  0.000000 -0.000000  0.000000
                                -0.000000  0.000000 -0.000000  0.000000 -0.000000 -0.000000  0.000000 -0.000000  0.000000 -0.000000
                                -0.000000  0.000001  0.000000 -0.000000 -0.000000  0.000000 -0.000000  0.000000  0.000000 -0.000001
                                -0.000000  0.000009  0.000017 -0.000069 -0.000136  0.001901  0.003717  0.013645  0.026684  0.033823
                                 0.066142  0.055952  0.109416  0.119842  0.234355  0.144319  0.282220  0.123052  0.240632  0.068601
                                 0.134151  0.016268  0.031813  0.000419  0.000819  0.020070  0.039247  0.013441  0.026284  0.000041
                                 0.000080 -0.000000 -0.000000  0.000000  0.000000  0.000000 -0.000000 -0.000000 -0.000000  0.000000
                                -0.000000  0.000000 -0.000000 -0.000000  0.000000 -0.000000 -0.000000  0.000000  0.000000  0.000000
                                 0.000000 -0.000000 -0.000000 -0.000000 -0.000000  0.000000  0.000000  0.000000

   4.1   +    -0.6290  -11.7968  0.000000 -0.000000  0.000000 -0.000000  0.000000 -0.000000  0.000000 -0.000000  0.000000 -0.000000
                                -0.000000  0.000000 -0.000000  0.000000 -0.000000 -0.000000  0.000000 -0.000000  0.000000 -0.000000
                                -0.000000 -0.000000 -0.000000  0.000000  0.000000 -0.000000  0.000000 -0.000000  0.000000  0.000000
                                 0.000000  0.000017 -0.000009 -0.000136  0.000069  0.003717 -0.001901  0.026684 -0.013645  0.066142
                                -0.033823  0.109416 -0.055952  0.234355 -0.119842  0.282220 -0.144319  0.240632 -0.123052  0.134151
                                -0.068601  0.031813 -0.016268  0.000819 -0.000419  0.039247 -0.020070  0.026284 -0.013441  0.000080
                                -0.000041 -0.000000 -0.000000  0.000000  0.000000  0.000000 -0.000000 -0.000000 -0.000000  0.000000
                                -0.000000  0.000000 -0.000000  0.000000 -0.000000  0.000000 -0.000000  0.000000  0.000000  0.000000
                                 0.000000 -0.000000 -0.000000 -0.000000 -0.000000  0.000000  0.000000  0.000000

   5.1   0     0.0212   -1.4267  0.000000 -0.000000  0.000000 -0.000000  0.000000 -0.000000  0.000000 -0.000001  0.000003 -0.000009
                                 0.000025 -0.000064  0.000162 -0.000395  0.000945 -0.002224  0.004999 -0.011850  0.057033 -0.619241
                                -0.702557  9.484592  0.538018 -0.241426  0.582491 -1.348551  1.884582 -3.293396  0.898399 -9.432012
                                 2.809580  0.000000  0.000000 -0.000000 -0.000000  0.000000  0.000000  0.000000  0.000000  0.000000
                                 0.000000  0.000000  0.000000  0.000000  0.000000 -0.000000  0.000000  0.000000  0.000000 -0.000000
                                 0.000000  0.000000  0.000000 -0.000000 -0.000000 -0.000000 -0.000000 -0.000000 -0.000000  0.000000
                                 0.000000 -0.000000 -0.000000  0.000000 -0.000000 -0.000000  0.000000  0.000000 -0.000000 -0.000000
                                 0.000000 -0.000000  0.000000 -0.000000  0.000000 -0.000000 -0.000000  0.000000  0.000000  0.000000
                                 0.000000 -0.000000 -0.000000 -0.000000 -0.000000  0.000000  0.000000  0.000000

   6.1   0     0.0560   -1.4238 -0.000000 -0.000000 -0.000000  0.000000 -0.000000  0.000000 -0.000000  0.000000 -0.000000  0.000000
                                -0.000000  0.000000 -0.000000  0.000000  0.000000 -0.000000  0.000000 -0.000000 -0.000000  0.000000
                                -0.000000  0.000000  0.000000  0.000000 -0.000000  0.000000 -0.000000  0.000000 -0.000000 -0.000000
                                -0.000000  0.000003  0.000000 -0.000026 -0.000001  0.000064  0.000003 -0.001501 -0.000076  0.005376
                                 0.000273  0.140697  0.007153  0.061725  0.003138 -0.043028 -0.002187  0.039974  0.002032 -0.081280
                                -0.004132  0.174526  0.008872 -0.416995 -0.021199 -0.085212 -0.004332 -0.116109 -0.005903  1.227318
                                 0.062394  0.000000  0.000000 -0.000000 -0.000000 -0.000000 -0.000000  0.000000 -0.000000  0.000000
                                -0.000000 -0.000000 -0.000000  0.000000  0.000000 -0.000000  0.000000  0.000000 -0.000000  0.000000
                                -0.000000 -0.000000 -0.000000 -0.000000 -0.000000  0.000000  0.000000  0.000000

                                   1 2px     1 2px     1 2px     1 2px     1 2px     1 2px     1 2px     1 2px     1 2px     1 2px  
                                   1 2px     1 2px     1 2px     1 2px     1 2px     1 2px     1 2px     1 2px     1 2px     1 2px  
                                   1 2px     1 2px     1 2px     1 4f1+    1 4f3+    1 4f1+    1 4f3+    1 4f1+    1 4f3+    1 4f1+ 
                                   1 4f3+    1 4f1+    1 4f3+    1 4f1+    1 4f3+    1 6h1+    1 6h3+    1 6h5+    1 6h1+    1 6h3+ 
                                   1 6h5+    1 6h1+    1 6h3+    1 6h5+    1 6h1+    1 6h3+    1 6h5+ 

   1.2   2    -2.5328  -16.4636 -0.000000  0.000000 -0.000001  0.000004 -0.000017  0.000058 -0.000186  0.000608 -0.002322  0.011137
                                -0.015945 -0.172420  0.009012  0.336599  0.416594  0.318554  0.106545  0.007615  0.000444  0.000034
                                 0.092745 -0.056294  0.000005 -0.000000 -0.000000 -0.000000 -0.000000  0.000000 -0.000000 -0.000000
                                -0.000000 -0.000000  0.000000 -0.000000  0.000000 -0.000000 -0.000000  0.000000  0.000000  0.000000
                                 0.000000 -0.000000 -0.000000  0.000000  0.000000 -0.000000  0.000000

   2.2   0     0.0171   -2.0980  0.000000 -0.000000  0.000000 -0.000002  0.000008 -0.000026  0.000079 -0.000236  0.000733 -0.002623
                                 0.008364 -0.083641 -0.068593  0.290341  0.044864 -0.084361  0.051625 -0.000942  0.325384 -0.215979
                                 0.116564 -0.332102  1.008583  0.000000  0.000000 -0.000000  0.000000  0.000000  0.000000 -0.000000
                                 0.000000  0.000000  0.000000  0.000000  0.000000 -0.000000 -0.000000  0.000000  0.000000  0.000000
                                 0.000000 -0.000000 -0.000000  0.000000  0.000000  0.000000  0.000000

   3.2   0     0.0560   -2.4521 -0.000000  0.000000 -0.000001  0.000004 -0.000017  0.000056 -0.000170  0.000486 -0.001356  0.003805
                                -0.018374  0.302221  0.193635 -0.968233 -0.290065  0.103230 -0.151418  0.364546 -0.302955  1.751426
                                -0.370616  0.985011 -1.446799  0.000000  0.000000 -0.000000  0.000000  0.000000  0.000000 -0.000000
                                 0.000000  0.000000  0.000000  0.000000  0.000000 -0.000000 -0.000000  0.000000  0.000000  0.000000
                                 0.000000 -0.000000 -0.000000  0.000000  0.000000  0.000000  0.000000

                                   1 2py     1 2py     1 2py     1 2py     1 2py     1 2py     1 2py     1 2py     1 2py     1 2py  
                                   1 2py     1 2py     1 2py     1 2py     1 2py     1 2py     1 2py     1 2py     1 2py     1 2py  
                                   1 2py     1 2py     1 2py     1 4f1-    1 4f3-    1 4f1-    1 4f3-    1 4f1-    1 4f3-    1 4f1- 
                                   1 4f3-    1 4f1-    1 4f3-    1 4f1-    1 4f3-    1 6h1-    1 6h3-    1 6h5-    1 6h1-    1 6h3- 
                                   1 6h5-    1 6h1-    1 6h3-    1 6h5-    1 6h1-    1 6h3-    1 6h5- 

   1.3   2    -2.5328  -16.4636 -0.000000  0.000000 -0.000001  0.000004 -0.000017  0.000058 -0.000186  0.000608 -0.002322  0.011137
                                -0.015945 -0.172420  0.009012  0.336599  0.416594  0.318554  0.106545  0.007615  0.000444  0.000034
                                 0.092745 -0.056294  0.000005 -0.000000  0.000000 -0.000000  0.000000 -0.000000  0.000000  0.000000
                                -0.000000 -0.000000 -0.000000 -0.000000 -0.000000 -0.000000  0.000000  0.000000  0.000000  0.000000
                                 0.000000 -0.000000  0.000000 -0.000000  0.000000  0.000000 -0.000000

   2.3   0     0.0171   -2.0980  0.000000 -0.000000  0.000000 -0.000002  0.000008 -0.000026  0.000079 -0.000236  0.000733 -0.002623
                                 0.008364 -0.083641 -0.068593  0.290341  0.044864 -0.084361  0.051625 -0.000942  0.325384 -0.215979
                                 0.116564 -0.332102  1.008583 -0.000000 -0.000000 -0.000000 -0.000000 -0.000000 -0.000000 -0.000000
                                -0.000000 -0.000000 -0.000000 -0.000000 -0.000000 -0.000000 -0.000000  0.000000  0.000000  0.000000
                                 0.000000 -0.000000 -0.000000  0.000000  0.000000  0.000000 -0.000000

   3.3   0     0.0560   -2.4521 -0.000000  0.000000 -0.000001  0.000004 -0.000017  0.000056 -0.000170  0.000486 -0.001356  0.003805
                                -0.018374  0.302221  0.193635 -0.968233 -0.290065  0.103230 -0.151418  0.364546 -0.302955  1.751426
                                -0.370616  0.985011 -1.446799 -0.000000 -0.000000 -0.000000 -0.000000 -0.000000 -0.000000 -0.000000
                                -0.000000 -0.000000 -0.000000 -0.000000 -0.000000 -0.000000 -0.000000  0.000000  0.000000  0.000000
                                 0.000000 -0.000000 -0.000000  0.000000  0.000000  0.000000 -0.000000

                                   1 3d2-    1 3d2-    1 3d2-    1 3d2-    1 3d2-    1 3d2-    1 3d2-    1 3d2-    1 3d2-    1 3d2- 
                                   1 3d2-    1 3d2-    1 3d2-    1 3d2-    1 3d2-    1 5g2-    1 5g4-    1 5g2-    1 5g4-    1 5g2- 
                                   1 5g4-    1 5g2-    1 5g4-    1 5g2-    1 5g4-    1 7i2-    1 7i6-    1 7i4-    1 7i2-    1 7i6- 
                                   1 7i4-    1 7i2-    1 7i6-    1 7i4- 

   1.4   +    -0.6290  -11.7968  0.000019 -0.000152  0.004175  0.029971  0.074288  0.122893  0.263220  0.316980  0.270270  0.150673
                                 0.035731  0.000920  0.044081  0.029521  0.000089 -0.000000 -0.000000 -0.000000  0.000000  0.000000
                                -0.000000  0.000000 -0.000000 -0.000000 -0.000000  0.000000 -0.000000  0.000000 -0.000000 -0.000000
                                -0.000000 -0.000000  0.000000  0.000000

   2.4   0     0.0560   -1.4238  0.000003 -0.000026  0.000064 -0.001503  0.005383  0.140878  0.061805 -0.043084  0.040025 -0.081385
                                 0.174751 -0.417534 -0.085322 -0.116259  1.228903  0.000000 -0.000000  0.000000 -0.000000 -0.000000
                                 0.000000 -0.000000 -0.000000  0.000000 -0.000000  0.000000  0.000000  0.000000 -0.000000 -0.000000
                                -0.000000  0.000000  0.000000  0.000000

   3.4   0     0.1744   -2.1638 -0.000012  0.000097 -0.000886 -0.000916 -0.027601 -0.412522 -0.216826  0.067932 -0.158084  0.230109
                                -0.472726  1.726647  0.229537  0.318538 -0.892805  0.000000  0.000000  0.000000 -0.000000 -0.000000
                                 0.000000 -0.000000 -0.000000  0.000000 -0.000000  0.000000  0.000000  0.000000 -0.000000 -0.000000
                                -0.000000  0.000000  0.000000  0.000000

                                   1 2pz     1 2pz     1 2pz     1 2pz     1 2pz     1 2pz     1 2pz     1 2pz     1 2pz     1 2pz  
                                   1 2pz     1 2pz     1 2pz     1 2pz     1 2pz     1 2pz     1 2pz     1 2pz     1 2pz     1 2pz  
                                   1 2pz     1 2pz     1 2pz     1 4f0     1 4f2+    1 4f0     1 4f2+    1 4f0     1 4f2+    1 4f0  
                                   1 4f2+    1 4f0     1 4f2+    1 4f0     1 4f2+    1 6h2+    1 6h4+    1 6h0     1 6h2+    1 6h4+ 
                                   1 6h0     1 6h2+    1 6h4+    1 6h0     1 6h2+    1 6h4+    1 6h0  

   1.5   2    -2.5328  -16.4636 -0.000000  0.000000 -0.000001  0.000004 -0.000017  0.000058 -0.000186  0.000608 -0.002322  0.011137
                                -0.015945 -0.172420  0.009012  0.336599  0.416594  0.318554  0.106545  0.007615  0.000444  0.000034
                                 0.092745 -0.056294  0.000005  0.000000  0.000000 -0.000000  0.000000  0.000000 -0.000000 -0.000000
                                 0.000000  0.000000 -0.000000  0.000000  0.000000 -0.000000  0.000000 -0.000000  0.000000  0.000000
                                 0.000000 -0.000000  0.000000 -0.000000 -0.000000  0.000000  0.000000

   2.5   0     0.0171   -2.0980  0.000000 -0.000000  0.000000 -0.000002  0.000008 -0.000026  0.000079 -0.000236  0.000733 -0.002623
                                 0.008364 -0.083641 -0.068593  0.290341  0.044864 -0.084361  0.051625 -0.000942  0.325384 -0.215979
                                 0.116564 -0.332102  1.008583  0.000000 -0.000000  0.000000  0.000000  0.000000 -0.000000  0.000000
                                 0.000000  0.000000 -0.000000  0.000000  0.000000 -0.000000  0.000000 -0.000000  0.000000  0.000000
                                 0.000000 -0.000000  0.000000 -0.000000  0.000000  0.000000  0.000000

   3.5   0     0.0560   -2.4521 -0.000000  0.000000 -0.000001  0.000004 -0.000017  0.000056 -0.000170  0.000486 -0.001356  0.003805
                                -0.018374  0.302221  0.193635 -0.968233 -0.290065  0.103230 -0.151418  0.364546 -0.302955  1.751426
                                -0.370616  0.985011 -1.446799  0.000000 -0.000000  0.000000  0.000000  0.000000  0.000000 -0.000000
                                 0.000000  0.000000  0.000000  0.000000  0.000000 -0.000000  0.000000 -0.000000  0.000000  0.000000
                                 0.000000 -0.000000  0.000000 -0.000000  0.000000  0.000000  0.000000

                                   1 3d1+    1 3d1+    1 3d1+    1 3d1+    1 3d1+    1 3d1+    1 3d1+    1 3d1+    1 3d1+    1 3d1+ 
                                   1 3d1+    1 3d1+    1 3d1+    1 3d1+    1 3d1+    1 5g1+    1 5g3+    1 5g1+    1 5g3+    1 5g1+ 
                                   1 5g3+    1 5g1+    1 5g3+    1 5g1+    1 5g3+    1 7i5+    1 7i3+    1 7i1+    1 7i5+    1 7i3+ 
                                   1 7i1+    1 7i5+    1 7i3+    1 7i1+ 

   1.6   +    -0.6290  -11.7968  0.000019 -0.000152  0.004175  0.029971  0.074288  0.122893  0.263220  0.316980  0.270270  0.150673
                                 0.035731  0.000920  0.044081  0.029521  0.000089 -0.000000 -0.000000  0.000000 -0.000000 -0.000000
                                -0.000000 -0.000000  0.000000  0.000000  0.000000  0.000000 -0.000000  0.000000 -0.000000  0.000000
                                -0.000000  0.000000 -0.000000 -0.000000

   2.6   0     0.0560   -1.4238  0.000003 -0.000026  0.000064 -0.001503  0.005383  0.140878  0.061805 -0.043084  0.040025 -0.081385
                                 0.174751 -0.417534 -0.085322 -0.116259  1.228903  0.000000  0.000000 -0.000000  0.000000  0.000000
                                 0.000000  0.000000  0.000000  0.000000  0.000000  0.000000  0.000000 -0.000000 -0.000000 -0.000000
                                -0.000000  0.000000  0.000000  0.000000

   3.6   0     0.1744   -2.1638 -0.000012  0.000097 -0.000886 -0.000916 -0.027601 -0.412522 -0.216826  0.067932 -0.158084  0.230109
                                -0.472726  1.726647  0.229537  0.318538 -0.892805  0.000000  0.000000 -0.000000  0.000000  0.000000
                                 0.000000  0.000000  0.000000  0.000000  0.000000  0.000000  0.000000  0.000000 -0.000000 -0.000000
                                -0.000000  0.000000  0.000000  0.000000

                                   1 3d1-    1 3d1-    1 3d1-    1 3d1-    1 3d1-    1 3d1-    1 3d1-    1 3d1-    1 3d1-    1 3d1- 
                                   1 3d1-    1 3d1-    1 3d1-    1 3d1-    1 3d1-    1 5g1-    1 5g3-    1 5g1-    1 5g3-    1 5g1- 
                                   1 5g3-    1 5g1-    1 5g3-    1 5g1-    1 5g3-    1 7i5-    1 7i3-    1 7i1-    1 7i5-    1 7i3- 
                                   1 7i1-    1 7i5-    1 7i3-    1 7i1- 

   1.7   +    -0.6290  -11.7968  0.000019 -0.000152  0.004175  0.029971  0.074288  0.122893  0.263220  0.316980  0.270270  0.150673
                                 0.035731  0.000920  0.044081  0.029521  0.000089 -0.000000  0.000000 -0.000000  0.000000  0.000000
                                -0.000000  0.000000 -0.000000  0.000000 -0.000000 -0.000000  0.000000  0.000000 -0.000000 -0.000000
                                -0.000000  0.000000 -0.000000 -0.000000

   2.7   0     0.0560   -1.4238  0.000003 -0.000026  0.000064 -0.001503  0.005383  0.140878  0.061805 -0.043084  0.040025 -0.081385
                                 0.174751 -0.417534 -0.085322 -0.116259  1.228903  0.000000 -0.000000 -0.000000 -0.000000  0.000000
                                -0.000000 -0.000000 -0.000000  0.000000 -0.000000  0.000000  0.000000  0.000000 -0.000000 -0.000000
                                -0.000000  0.000000  0.000000  0.000000

   3.7   0     0.1744   -2.1638 -0.000012  0.000097 -0.000886 -0.000916 -0.027601 -0.412522 -0.216826  0.067932 -0.158084  0.230109
                                -0.472726  1.726647  0.229537  0.318538 -0.892805  0.000000 -0.000000  0.000000 -0.000000 -0.000000
                                 0.000000 -0.000000 -0.000000  0.000000 -0.000000  0.000000  0.000000  0.000000  0.000000 -0.000000
                                -0.000000  0.000000  0.000000  0.000000

                                   1 4f2-    1 4f2-    1 4f2-    1 4f2-    1 4f2-    1 4f2-    1 6h4-    1 6h2-    1 6h4-    1 6h2- 
                                   1 6h4-    1 6h2-    1 6h4-    1 6h2- 

   1.8   0     0.3486   -2.3582 -0.001344  0.006579 -0.016056  0.048674 -0.132945  1.059984  0.000000 -0.000000 -0.000000  0.000000
                                 0.000000 -0.000000 -0.000000  0.000000

   2.8   0     1.0647   -3.1206  0.006482 -0.015004  0.083037 -0.104235  1.213378 -0.530041  0.000000 -0.000000 -0.000000  0.000000
                                -0.000000 -0.000000 -0.000000  0.000000

 HOMO      4.1    -0.629002 =     -17.1160eV
 LUMO      2.2     0.017051 =       0.4640eV
 LUMO-HOMO         0.646053 =      17.5800eV


 **********************************************************************************************************************************
 DATASETS  * FILE   NREC   LENGTH (MB)   RECORD NAMES
              1      20      654.89       500      610      700      900      950      970     1000      129      960     1100   
                                          VAR    BASINP    GEOM    SYMINP    ZMAT    AOBASIS   BASIS     P2S    ABASIS      S 
                                         1400     1410     1420     1200     1210     1080     1600     1650     1300     1700   
                                           T        V       ECP      H0       H01     AOSYM     SMH    MOLCAS    ERIS     OPER   

              2       5        5.91       200      700     1000      520     4202   
                                        OPTIONS   GEOM     BASIS   MCVARS     RHF  

 PROGRAMS   *        TOTAL       RHF       INT
 CPU TIMES  *       104.92      6.10     98.64
 REAL TIME  *       109.14 SEC
 DISK USED  *         2.47 GB      
 **********************************************************************************************************************************

1PROGRAM * POP (Mulliken population analysis)

 
 Density matrix read from record         4202.2  Type=RHF/CHARGE (state 1.1)
 
 Population analysis by basis function type

 Unique atom        s        p        d        f        g    Total    Charge
   1  MN      4.00000  6.00000  5.00000  0.00000  0.00000 15.00000  - 0.00000


 **********************************************************************************************************************************
 DATASETS  * FILE   NREC   LENGTH (MB)   RECORD NAMES
              1      20      654.89       500      610      700      900      950      970     1000      129      960     1100   
                                          VAR    BASINP    GEOM    SYMINP    ZMAT    AOBASIS   BASIS     P2S    ABASIS      S 
                                         1400     1410     1420     1200     1210     1080     1600     1650     1300     1700   
                                           T        V       ECP      H0       H01     AOSYM     SMH    MOLCAS    ERIS     OPER   

              2       5        5.91       200      700     1000      520     4202   
                                        OPTIONS   GEOM     BASIS   MCVARS     RHF  

 PROGRAMS   *        TOTAL       POP       RHF       INT
 CPU TIMES  *       104.93      0.01      6.10     98.64
 REAL TIME  *       109.15 SEC
 DISK USED  *         2.47 GB      
 **********************************************************************************************************************************

1PROGRAM * MULTI (Direct Multiconfiguration SCF)       Authors: P.J. Knowles, H.-J. Werner (1984)     S.T. Elbert (1988)


 Number of closed-shell orbitals:   5 (   2   1   1   0   1   0   0   0 )
 Number of active  orbitals:        5 (   2   0   0   1   0   1   1   0 )
 Number of external orbitals:     335 (  84  46  46  33  46  33  33  14 )

 State symmetry 1

 Number of electrons:     5    Spin symmetry=Sextet    Space symmetry=1
 Number of states:        1
 Number of CSFs:          1   (1 determinants, 1 intermediate states)

 Molecular orbitals read from record     4202.2  Type=RHF/CANONICAL (state 1.1)
 *** IN SYMMETRY 1 ORBITAL  3 SYMMETRY CONTAMINATION OF 0.338D+00 HAS BEEN REMOVED
 *** IN SYMMETRY 1 ORBITAL  4 SYMMETRY CONTAMINATION OF 0.338D+00 HAS BEEN REMOVED

 EXTRA SYMMETRY OF MOS IN SYMMETRY 1:   1 1 3 2 1 2 3 1 2 3   1 2 3 1 6 5 4 2 3 1   2 3 4 6 5 1 2 3 5 6   4 9 8 710 1 3 2 6 4
                                        5 7 8 910 1 3 2 5 4   6 2 3 1 8 7 910 2 3   1 1 3 2 1 2 3 1 1 3   2 1 1 2 3 1 1 1 1 1
                                        1 1 1 1 1 1 1 1
 EXTRA SYMMETRY OF MOS IN SYMMETRY 2:   1 1 1 1 3 2 1 3 2 1   4 5 6 3 2 1 5 4 6 2   3 1 2 3 5 6 4 1 1 3   2 6 5 4 1 1 1 1 1 1
                                        1 1 1 1 1 1 1
 EXTRA SYMMETRY OF MOS IN SYMMETRY 3:   1 1 1 1 2 3 1 2 3 1   4 5 6 3 2 1 4 5 6 2   3 1 2 3 4 6 5 1 1 3   2 6 5 4 1 1 1 1 1 1
                                        1 1 1 1 1 1 1
 EXTRA SYMMETRY OF MOS IN SYMMETRY 4:   1 1 1 1 2 3 1 1 2 3   1 2 3 4 6 5 1 2 3 4   5 6 1 3 2 1 5 6 4 1   1 1 1 1
 EXTRA SYMMETRY OF MOS IN SYMMETRY 5:   1 1 1 1 2 3 1 2 3 1   6 4 5 3 2 1 6 5 4 2   3 1 2 3 4 5 6 1 1 3   2 5 4 6 1 1 1 1 1 1
                                        1 1 1 1 1 1 1
 EXTRA SYMMETRY OF MOS IN SYMMETRY 6:   1 1 1 1 2 3 1 1 3 2   1 3 2 5 6 4 1 3 2 5   4 6 1 3 2 1 4 5 6 1   1 1 1 1
 EXTRA SYMMETRY OF MOS IN SYMMETRY 7:   1 1 1 1 2 3 1 1 2 3   1 2 3 6 5 4 1 2 3 6   4 5 1 3 2 1 4 5 6 1   1 1 1 1
 EXTRA SYMMETRY OF MOS IN SYMMETRY 8:   1 1 3 2 1 3 2 1 1 3   2 1 2 3

 Wavefunction dump at record             5202.2

 Convergence thresholds  0.10E-01 (gradient)  0.10E-05 (energy)  0.10E-02 (step length)

 Number of orbital rotations:      577   (     4 Core/Active    306 Core/Virtual   0 Active/Active    267 Active/Virtual)
 Total number of variables:        578


 ITER. MIC  NCI  NEG     ENERGY(VAR)     ENERGY(PROJ)   ENERGY CHANGE     GRAD(0)  GRAD(ORB)   GRAD(CI)     STEP       TIME

   1   21    4    0    -103.50466767    -103.50466767   -0.00000000    0.00000016 0.00000000 0.00000000  0.16D-06      1.75

 ** WVFN ****  CONVERGENCE REACHED, FINAL GRADIENT:  0.79D-10


 First order charge density matrix for state 1.1 saved on record  5202.2 (density set 1)

 Results for state 1.1
 =====================

 !MCSCF STATE 1.1 Energy             -103.504667670689
 Nuclear energy                         0.00000000
 Kinetic energy                        57.14367583
 One electron energy                 -180.30075725
 Two electron energy                   76.79608958
 Virial ratio                           2.81130573

 !MCSCF STATE 1.1 Dipole moment         0.00000000     0.00000000     0.00000000
 Dipole moment /Debye                   0.00000000     0.00000000     0.00000000


 NATURAL ORBITALS
 ================

   Orb     Occ        Energy       Coefficients

                                   1 1s      1 1s      1 1s      1 1s      1 1s      1 1s      1 1s      1 1s      1 1s      1 1s   
                                   1 1s      1 1s      1 1s      1 1s      1 1s      1 1s      1 1s      1 1s      1 1s      1 1s   
                                   1 1s      1 1s      1 1s      1 1s      1 1s      1 1s      1 1s      1 1s      1 1s      1 1s   
                                   1 1s      1 3d0     1 3d2+    1 3d0     1 3d2+    1 3d0     1 3d2+    1 3d0     1 3d2+    1 3d0  
                                   1 3d2+    1 3d0     1 3d2+    1 3d0     1 3d2+    1 3d0     1 3d2+    1 3d0     1 3d2+    1 3d0  
                                   1 3d2+    1 3d0     1 3d2+    1 3d0     1 3d2+    1 3d0     1 3d2+    1 3d0     1 3d2+    1 3d0  
                                   1 3d2+    1 5g0     1 5g4+    1 5g2+    1 5g0     1 5g4+    1 5g2+    1 5g0     1 5g4+    1 5g2+ 
                                   1 5g0     1 5g4+    1 5g2+    1 5g0     1 5g4+    1 5g2+    1 7i6+    1 7i4+    1 7i2+    1 7i0  
                                   1 7i6+    1 7i4+    1 7i2+    1 7i0     1 7i6+    1 7i4+    1 7i2+    1 7i0  

   1.1  2.00000    -3.932875    -0.000000  0.000000 -0.000000  0.000000 -0.000000  0.000000 -0.000000  0.000002 -0.000005  0.000015
                                -0.000041  0.000109 -0.000281  0.000727 -0.001983  0.006347 -0.027737  0.110855 -0.071373 -0.577274
                                -0.157308  1.205465  0.601251  0.223079  0.013048 -0.005305  0.001931 -0.000713  0.259493 -0.723471
                                 0.000171  0.000000  0.000000  0.000000  0.000000  0.000000  0.000000  0.000000  0.000000  0.000000
                                 0.000000  0.000000  0.000000  0.000000  0.000000  0.000000  0.000000  0.000000  0.000000  0.000000
                                 0.000000  0.000000  0.000000  0.000000  0.000000  0.000000  0.000000  0.000000  0.000000  0.000000
                                 0.000000  0.000000  0.000000  0.000000  0.000000  0.000000  0.000000  0.000000  0.000000  0.000000
                                 0.000000  0.000000  0.000000  0.000000  0.000000  0.000000  0.000000  0.000000  0.000000  0.000000
                                 0.000000  0.000000  0.000000  0.000000  0.000000  0.000000  0.000000  0.000000

   2.1  2.00000    -0.250547     0.000000 -0.000000  0.000000 -0.000000  0.000000 -0.000000  0.000000 -0.000000  0.000001 -0.000003
                                 0.000009 -0.000024  0.000061 -0.000159  0.000437 -0.001426  0.006470 -0.027078  0.019736  0.146195
                                 0.040115 -0.402328 -0.227493 -0.186748  0.112339  0.424907  0.500888  0.134282 -0.067503  0.269529
                                 0.000448  0.000000  0.000000  0.000000  0.000000  0.000000  0.000000  0.000000  0.000000  0.000000
                                 0.000000  0.000000  0.000000  0.000000  0.000000  0.000000  0.000000  0.000000  0.000000  0.000000
                                 0.000000  0.000000  0.000000  0.000000  0.000000  0.000000  0.000000  0.000000  0.000000  0.000000
                                 0.000000  0.000000  0.000000  0.000000  0.000000  0.000000  0.000000  0.000000  0.000000  0.000000
                                 0.000000  0.000000  0.000000  0.000000  0.000000  0.000000  0.000000  0.000000  0.000000  0.000000
                                 0.000000  0.000000  0.000000  0.000000  0.000000  0.000000  0.000000  0.000000

   3.1  1.00000    -0.134269     0.000000  0.000000  0.000000  0.000000  0.000000  0.000000  0.000000  0.000000  0.000000  0.000000
                                 0.000000  0.000000  0.000000  0.000000  0.000000  0.000000  0.000000  0.000000  0.000000  0.000000
                                 0.000000  0.000000  0.000000  0.000000  0.000000  0.000000  0.000000  0.000000  0.000000  0.000000
                                 0.000000  0.000019  0.000000 -0.000152  0.000000  0.004175  0.000000  0.029971  0.000000  0.074288
                                 0.000000  0.122893  0.000000  0.263220  0.000000  0.316980  0.000000  0.270270  0.000000  0.150673
                                 0.000000  0.035731  0.000000  0.000920  0.000000  0.044081  0.000000  0.029521  0.000000  0.000089
                                 0.000000  0.000000  0.000000  0.000000  0.000000  0.000000  0.000000  0.000000  0.000000  0.000000
                                 0.000000  0.000000  0.000000  0.000000  0.000000  0.000000  0.000000  0.000000  0.000000  0.000000
                                 0.000000  0.000000  0.000000  0.000000  0.000000  0.000000  0.000000  0.000000

   4.1  1.00000    -0.134269     0.000000  0.000000  0.000000  0.000000  0.000000  0.000000  0.000000  0.000000  0.000000  0.000000
                                 0.000000  0.000000  0.000000  0.000000  0.000000  0.000000  0.000000  0.000000  0.000000  0.000000
                                 0.000000  0.000000  0.000000  0.000000  0.000000  0.000000  0.000000  0.000000  0.000000  0.000000
                                 0.000000  0.000000  0.000019  0.000000 -0.000152  0.000000  0.004175  0.000000  0.029971  0.000000
                                 0.074288  0.000000  0.122893  0.000000  0.263220  0.000000  0.316980  0.000000  0.270270  0.000000
                                 0.150673  0.000000  0.035731  0.000000  0.000920  0.000000  0.044081  0.000000  0.029521  0.000000
                                 0.000089  0.000000  0.000000  0.000000  0.000000  0.000000  0.000000  0.000000  0.000000  0.000000
                                 0.000000  0.000000  0.000000  0.000000  0.000000  0.000000  0.000000  0.000000  0.000000  0.000000
                                 0.000000  0.000000  0.000000  0.000000  0.000000  0.000000  0.000000  0.000000

                                   1 2px     1 2px     1 2px     1 2px     1 2px     1 2px     1 2px     1 2px     1 2px     1 2px  
                                   1 2px     1 2px     1 2px     1 2px     1 2px     1 2px     1 2px     1 2px     1 2px     1 2px  
                                   1 2px     1 2px     1 2px     1 4f1+    1 4f3+    1 4f1+    1 4f3+    1 4f1+    1 4f3+    1 4f1+ 
                                   1 4f3+    1 4f1+    1 4f3+    1 4f1+    1 4f3+    1 6h1+    1 6h3+    1 6h5+    1 6h1+    1 6h3+ 
                                   1 6h5+    1 6h1+    1 6h3+    1 6h5+    1 6h1+    1 6h3+    1 6h5+ 

   1.2  2.00000    -2.532787    -0.000000  0.000000 -0.000001  0.000004 -0.000017  0.000058 -0.000186  0.000608 -0.002322  0.011137
                                -0.015945 -0.172420  0.009012  0.336599  0.416594  0.318554  0.106545  0.007615  0.000444  0.000034
                                 0.092745 -0.056294  0.000005  0.000000  0.000000  0.000000  0.000000  0.000000  0.000000  0.000000
                                 0.000000  0.000000  0.000000  0.000000  0.000000  0.000000  0.000000  0.000000  0.000000  0.000000
                                 0.000000  0.000000  0.000000  0.000000  0.000000  0.000000  0.000000

                                   1 2py     1 2py     1 2py     1 2py     1 2py     1 2py     1 2py     1 2py     1 2py     1 2py  
                                   1 2py     1 2py     1 2py     1 2py     1 2py     1 2py     1 2py     1 2py     1 2py     1 2py  
                                   1 2py     1 2py     1 2py     1 4f1-    1 4f3-    1 4f1-    1 4f3-    1 4f1-    1 4f3-    1 4f1- 
                                   1 4f3-    1 4f1-    1 4f3-    1 4f1-    1 4f3-    1 6h1-    1 6h3-    1 6h5-    1 6h1-    1 6h3- 
                                   1 6h5-    1 6h1-    1 6h3-    1 6h5-    1 6h1-    1 6h3-    1 6h5- 

   1.3  2.00000    -2.532787    -0.000000  0.000000 -0.000001  0.000004 -0.000017  0.000058 -0.000186  0.000608 -0.002322  0.011137
                                -0.015945 -0.172420  0.009012  0.336599  0.416594  0.318554  0.106545  0.007615  0.000444  0.000034
                                 0.092745 -0.056294  0.000005  0.000000  0.000000  0.000000  0.000000  0.000000  0.000000  0.000000
                                 0.000000  0.000000  0.000000  0.000000  0.000000  0.000000  0.000000  0.000000  0.000000  0.000000
                                 0.000000  0.000000  0.000000  0.000000  0.000000  0.000000  0.000000

                                   1 3d2-    1 3d2-    1 3d2-    1 3d2-    1 3d2-    1 3d2-    1 3d2-    1 3d2-    1 3d2-    1 3d2- 
                                   1 3d2-    1 3d2-    1 3d2-    1 3d2-    1 3d2-    1 5g2-    1 5g4-    1 5g2-    1 5g4-    1 5g2- 
                                   1 5g4-    1 5g2-    1 5g4-    1 5g2-    1 5g4-    1 7i2-    1 7i6-    1 7i4-    1 7i2-    1 7i6- 
                                   1 7i4-    1 7i2-    1 7i6-    1 7i4- 

   1.4  1.00000    -0.134269     0.000019 -0.000152  0.004175  0.029971  0.074288  0.122893  0.263220  0.316980  0.270270  0.150673
                                 0.035731  0.000920  0.044081  0.029521  0.000089  0.000000  0.000000  0.000000  0.000000  0.000000
                                 0.000000  0.000000  0.000000  0.000000  0.000000  0.000000  0.000000  0.000000  0.000000  0.000000
                                 0.000000  0.000000  0.000000  0.000000

                                   1 2pz     1 2pz     1 2pz     1 2pz     1 2pz     1 2pz     1 2pz     1 2pz     1 2pz     1 2pz  
                                   1 2pz     1 2pz     1 2pz     1 2pz     1 2pz     1 2pz     1 2pz     1 2pz     1 2pz     1 2pz  
                                   1 2pz     1 2pz     1 2pz     1 4f0     1 4f2+    1 4f0     1 4f2+    1 4f0     1 4f2+    1 4f0  
                                   1 4f2+    1 4f0     1 4f2+    1 4f0     1 4f2+    1 6h2+    1 6h4+    1 6h0     1 6h2+    1 6h4+ 
                                   1 6h0     1 6h2+    1 6h4+    1 6h0     1 6h2+    1 6h4+    1 6h0  

   1.5  2.00000    -2.532787    -0.000000  0.000000 -0.000001  0.000004 -0.000017  0.000058 -0.000186  0.000608 -0.002322  0.011137
                                -0.015945 -0.172420  0.009012  0.336599  0.416594  0.318554  0.106545  0.007615  0.000444  0.000034
                                 0.092745 -0.056294  0.000005  0.000000  0.000000  0.000000  0.000000  0.000000  0.000000  0.000000
                                 0.000000  0.000000  0.000000  0.000000  0.000000  0.000000  0.000000  0.000000  0.000000  0.000000
                                 0.000000  0.000000  0.000000  0.000000  0.000000  0.000000  0.000000

                                   1 3d1+    1 3d1+    1 3d1+    1 3d1+    1 3d1+    1 3d1+    1 3d1+    1 3d1+    1 3d1+    1 3d1+ 
                                   1 3d1+    1 3d1+    1 3d1+    1 3d1+    1 3d1+    1 5g1+    1 5g3+    1 5g1+    1 5g3+    1 5g1+ 
                                   1 5g3+    1 5g1+    1 5g3+    1 5g1+    1 5g3+    1 7i5+    1 7i3+    1 7i1+    1 7i5+    1 7i3+ 
                                   1 7i1+    1 7i5+    1 7i3+    1 7i1+ 

   1.6  1.00000    -0.134269     0.000019 -0.000152  0.004175  0.029971  0.074288  0.122893  0.263220  0.316980  0.270270  0.150673
                                 0.035731  0.000920  0.044081  0.029521  0.000089  0.000000  0.000000  0.000000  0.000000  0.000000
                                 0.000000  0.000000  0.000000  0.000000  0.000000  0.000000  0.000000  0.000000  0.000000  0.000000
                                 0.000000  0.000000  0.000000  0.000000

                                   1 3d1-    1 3d1-    1 3d1-    1 3d1-    1 3d1-    1 3d1-    1 3d1-    1 3d1-    1 3d1-    1 3d1- 
                                   1 3d1-    1 3d1-    1 3d1-    1 3d1-    1 3d1-    1 5g1-    1 5g3-    1 5g1-    1 5g3-    1 5g1- 
                                   1 5g3-    1 5g1-    1 5g3-    1 5g1-    1 5g3-    1 7i5-    1 7i3-    1 7i1-    1 7i5-    1 7i3- 
                                   1 7i1-    1 7i5-    1 7i3-    1 7i1- 

   1.7  1.00000    -0.134269     0.000019 -0.000152  0.004175  0.029971  0.074288  0.122893  0.263220  0.316980  0.270270  0.150673
                                 0.035731  0.000920  0.044081  0.029521  0.000089  0.000000  0.000000  0.000000  0.000000  0.000000
                                 0.000000  0.000000  0.000000  0.000000  0.000000  0.000000  0.000000  0.000000  0.000000  0.000000
                                 0.000000  0.000000  0.000000  0.000000
 

 EXTRA SYMMETRY OF MOS IN SYMMETRY 1:   1 1 2 3 1 2 3 1 2 3   1 2 3 1 6 5 4 3 2 1   3 2 4 5 6 1 3 2 5 4   6 8 7 910 1 3 2 5 6
                                        4 710 8 9 1 2 3 6 4   5 3 2 1 9 710 8 2 3   1 1 3 2 1 3 2 1 1 2   3 1 1 3 2 1 1 1 1 1
                                        1 1 1 1 1 1 1 1
 EXTRA SYMMETRY OF MOS IN SYMMETRY 2:   1 1 1 1 2 3 1 3 2 1   5 6 4 2 3 1 6 5 4 3   2 1 3 2 4 6 5 1 1 2   3 6 4 5 1 1 1 1 1 1
                                        1 1 1 1 1 1 1
 EXTRA SYMMETRY OF MOS IN SYMMETRY 3:   1 1 1 1 3 2 1 2 3 1   5 4 6 3 2 1 6 4 5 2   3 1 3 2 6 4 5 1 1 3   2 6 4 5 1 1 1 1 1 1
                                        1 1 1 1 1 1 1
 EXTRA SYMMETRY OF MOS IN SYMMETRY 4:   1 1 1 1 3 2 1 1 3 2   1 3 2 5 6 4 1 2 3 4   5 6 1 3 2 1 5 4 6 1   1 1 1 1
 EXTRA SYMMETRY OF MOS IN SYMMETRY 5:   1 1 1 1 2 3 1 2 3 1   5 4 6 3 2 1 4 6 5 2   3 1 3 2 6 5 4 1 1 2   3 6 4 5 1 1 1 1 1 1
                                        1 1 1 1 1 1 1
 EXTRA SYMMETRY OF MOS IN SYMMETRY 6:   1 1 1 1 2 3 1 1 2 3   1 2 3 5 6 4 1 2 3 6   5 4 1 2 3 1 6 5 4 1   1 1 1 1
 EXTRA SYMMETRY OF MOS IN SYMMETRY 7:   1 1 1 1 3 2 1 1 3 2   1 2 3 5 6 4 1 2 3 6   4 5 1 3 2 1 6 4 5 1   1 1 1 1
 EXTRA SYMMETRY OF MOS IN SYMMETRY 8:   1 1 2 3 1 2 3 1 1 2   3 1 3 2

 Natural orbital dump at molpro section  5202.2    (Orbital set 2)


 CI vector
 =========

 aa a a a          1.0000000

 TOTAL ENERGIES                      -103.50466767



 **********************************************************************************************************************************
 DATASETS  * FILE   NREC   LENGTH (MB)   RECORD NAMES
              1      21      665.53       500      610      700      900      950      970     1000      129      960     1100   
                                          VAR    BASINP    GEOM    SYMINP    ZMAT    AOBASIS   BASIS     P2S    ABASIS      S 
                                         1400     1410     1420     1200     1210     1080     1600     1650     1300     1700   
                                           T        V       ECP      H0       H01     AOSYM     SMH    MOLCAS    ERIS     OPER   
                                         1380   
                                         JKOP   

              2       6        8.99       200      700     1000      520     4202     5202   
                                        OPTIONS   GEOM     BASIS   MCVARS     RHF     MCSCF   

 PROGRAMS   *        TOTAL     MULTI       POP       RHF       INT
 CPU TIMES  *       108.47      3.54      0.01      6.10     98.64
 REAL TIME  *       113.00 SEC
 DISK USED  *         2.47 GB      
 **********************************************************************************************************************************

1PROGRAM * RHF-SCF (OPEN SHELL)       Authors: W. Meyer, H.-J. Werner


 NUMBER OF ELECTRONS:      10+    5-    SPACE SYMMETRY=1    SPIN SYMMETRY: Sextet  
 CONVERGENCE THRESHOLDS:    1.00E-05 (Density)    1.00E-07 (Energy)
 MAX. NUMBER OF ITERATIONS:        0
 INTERPOLATION TYPE:            DIIS
 INTERPOLATION STEPS:              2 (START)      1 (STEP)
 LEVEL SHIFTS:                 -0.30 (CLOSED)  0.00 (OPEN) 


 Singly occupied orbitals:      3.1       4.1       1.4       1.6       1.7
 Molecular orbitals read from record     5202.2  Type=MCSCF/NATURAL (state 1.1)

 Molecular orbital dump at record        2101.2

 ITERATION    DDIFF          GRAD             ENERGY        2-EL.EN.            DIPOLE MOMENTS         DIIS   ORB.
    1      0.000D+00      0.000D+00      -103.50466767    153.592179    0.00000    0.00000    0.00000    0    start

 Final alpha occupancy:   4   1   1   1   1   1   1   0
 Final beta  occupancy:   2   1   1   0   1   0   0   0

 !RHF STATE 1.1 Energy               -103.504667670689
 Nuclear energy                         0.00000000
 One-electron energy                 -180.30075725
 Two-electron energy                   76.79608958
 Virial quotient                       -1.81130573
 !RHF STATE 1.1 Dipole moment           0.00000000     0.00000000     0.00000000
 Dipole moment /Debye                   0.00000000     0.00000000     0.00000000

 Orbital energies:

         1.1          2.1          3.1          4.1          5.1          6.1
     -3.932875    -0.250547    -0.134269    -0.134269     0.021764     0.056091

         1.2          2.2          3.2
     -2.532787     0.018520     0.059781

         1.3          2.3          3.3
     -2.532787     0.018520     0.059781

         1.4          2.4          3.4
     -0.134269     0.056091     0.176783

         1.5          2.5          3.5
     -2.532787     0.018520     0.059781

         1.6          2.6          3.6
     -0.134269     0.056091     0.176783

         1.7          2.7          3.7
     -0.134269     0.056091     0.176783

         1.8          2.8
      0.349373     1.081739

 HOMO      4.1    -0.134269 =      -3.6537eV
 LUMO      2.2     0.018520 =       0.5040eV
 LUMO-HOMO         0.152789 =       4.1576eV


 **********************************************************************************************************************************
 DATASETS  * FILE   NREC   LENGTH (MB)   RECORD NAMES
              1      21      665.53       500      610      700      900      950      970     1000      129      960     1100   
                                          VAR    BASINP    GEOM    SYMINP    ZMAT    AOBASIS   BASIS     P2S    ABASIS      S 
                                         1400     1410     1420     1200     1210     1080     1600     1650     1300     1700   
                                           T        V       ECP      H0       H01     AOSYM     SMH    MOLCAS    ERIS     OPER   
                                         1380   
                                         JKOP   

              2       7       12.15       200      700     1000      520     4202     5202     2101   
                                        OPTIONS   GEOM     BASIS   MCVARS     RHF     MCSCF     RHF  

 PROGRAMS   *        TOTAL       RHF     MULTI       POP       RHF       INT
 CPU TIMES  *       108.94      0.47      3.54      0.01      6.10     98.64
 REAL TIME  *       113.54 SEC
 DISK USED  *         2.47 GB      
 **********************************************************************************************************************************
 SETTING SCF(1)         =      -103.50466767  AU                              
 SETTING _CC_NORM_MAX   =         2.00000000                                  


1PROGRAM * CCSD (Restricted open-shell coupled cluster)     Authors: C. Hampel, H.-J. Werner, 1991, M. Deegan, P.J. Knowles, 1992


 Convergence thresholds:  THRVAR = 1.00D-08  THRDEN = 1.00D-06

 CCSD(T)     terms to be evaluated (factor= 1.000)


 Number of closed-shell orbitals:   5 (   2   1   1   0   1   0   0   0 )
 Number of active  orbitals:        5 (   2   0   0   1   0   1   1   0 )
 Number of external orbitals:     335 (  84  46  46  33  46  33  33  14 )

 Memory could be reduced to 85.63 Mwords without degradation in triples

 Number of N-1 electron functions:              15
 Number of N-2 electron functions:             105
 Number of singly external CSFs:               894
 Number of doubly external CSFs:           1173662
 Total number of CSFs:                     1174556

 Molecular orbitals read from record     2101.2  Type=RHF/CANONICAL (state 1.1)

 Integral transformation finished. Total CPU:   2.48 sec, npass=  1  Memory used:  15.78 MW

 Starting RMP2 calculation

 Wavefunction is spin-projected

 ITER.      SQ.NORM     CORR.ENERGY   TOTAL ENERGY   ENERGY CHANGE        DEN1      VAR(S)    VAR(P)  DIIS     TIME
   1      1.09767497    -0.60381071  -104.10847838    -0.60381071    -0.00155752  0.47D-05  0.10D-02  1  1     2.55
   2      1.10034267    -0.60548402  -104.11015169    -0.00167331    -0.00002486  0.16D-06  0.26D-04  2  2     2.60
   3      1.10079852    -0.60565028  -104.11031795    -0.00016627    -0.00000023  0.31D-08  0.22D-06  3  3     2.65
   4      1.10083406    -0.60566034  -104.11032801    -0.00001005    -0.00000000  0.49D-10  0.16D-08  4  4     2.72
   5      1.10083409    -0.60566016  -104.11032784     0.00000017    -0.00000000  0.28D-11  0.21D-10  5  5     2.79

 Norm of t1 vector:      0.03612309      S-energy:    -0.00211544      T1 diagnostic:  0.00021095
 Norm of t2 vector:      0.31548251      P-energy:    -0.60354472
                                         Alpha-Beta:  -0.40700899
                                         Alpha-Alpha: -0.15229575
                                         Beta-Beta:   -0.04423998

 Spin contamination <S**2-Sz**2-Sz>     0.00000000
  Reference energy                   -103.504667670689
  RHF-RMP2 correlation energy          -0.605660164411
 !RHF-RMP2 energy                    -104.110327835100
 (NB above energy spin projected)

 Starting RCCSD calculation

 ITER.      SQ.NORM     CORR.ENERGY   TOTAL ENERGY   ENERGY CHANGE        DEN1      VAR(S)    VAR(P)  DIIS     TIME
   1      1.10071368    -0.59269070  -104.09735837    -0.59269070    -0.00883926  0.29D-02  0.24D-02  1  1     6.39
   2      1.11499339    -0.60101126  -104.10567893    -0.00832056    -0.00122513  0.53D-03  0.63D-03  2  2     9.96
   3      1.12578457    -0.60363794  -104.10830561    -0.00262668    -0.00018414  0.13D-03  0.80D-04  3  3    13.53
   4      1.13253925    -0.60500282  -104.10967049    -0.00136488    -0.00000966  0.40D-05  0.44D-05  4  4    17.11
   5      1.13335197    -0.60508553  -104.10975320    -0.00008271    -0.00000126  0.61D-06  0.66D-06  5  5    20.71
   6      1.13365724    -0.60512498  -104.10979265    -0.00003945    -0.00000016  0.59D-07  0.93D-07  6  6    24.28
   7      1.13368906    -0.60512634  -104.10979401    -0.00000137    -0.00000003  0.14D-07  0.19D-07  6  2    27.86
   8      1.13369159    -0.60512527  -104.10979294     0.00000107    -0.00000001  0.24D-08  0.30D-08  6  1    31.43
   9      1.13369682    -0.60512564  -104.10979331    -0.00000037    -0.00000000  0.52D-09  0.53D-09  6  5    35.01

 Norm of t1 vector:      0.12248538      S-energy:    -0.00304973      T1 diagnostic:  0.01948527
                                                                       D1 diagnostic:  0.06845357
 Norm of t2 vector:      0.34452017      P-energy:    -0.60207591
                                         Alpha-Beta:  -0.41767951
                                         Alpha-Alpha: -0.14164451
                                         Beta-Beta:   -0.04275189

 Singles amplitudes (print threshold =  0.500E-01):

         I         SYM. A    A   T(IA) [Alpha-Alpha]

         2         1         6     -0.06838615
         2         1         9     -0.06149645

 Doubles amplitudes (print threshold =  0.500E-01):

         I         J         SYM. A    SYM. B    A         B      T(IJ, AB) [Alpha-Beta]

         2         2         2         2         2         2     -0.05309488
         2         2         3         3         2         2     -0.05309488
         2         2         5         5         2         2     -0.05309488

 Spin contamination <S**2-Sz**2-Sz>     0.00000000

 Memory could be reduced to 90.88 Mwords without degradation in triples
 

  Correlated core orbitals:             1.1       1.2       1.3       1.5
  Orbital energies:                    -4.1512   -2.7979   -2.7979   -2.7979
 
  RCCSD core-core energy               -0.184442594493
  RCCSD core-valence energy            -0.285343666204
  RCCSD valence correlation energy     -0.135339375214
 

 RESULTS
 =======

  Reference energy                   -103.504667670689
  RCCSD singles energy                 -0.003049727899
  RCCSD pair energy                    -0.602075908012
  RCCSD correlation energy             -0.605125635911
  Triples (T) contribution             -0.018900872188
  Total correlation energy             -0.624026508099
 
  RHF-RCCSD energy                   -104.109793306600
  RHF-RCCSD[T] energy                -104.129196060517
  RHF-RCCSD-T energy                 -104.128600032782
 !RHF-RCCSD(T) energy                -104.128694178787

 Program statistics:

 Available memory in ccsd:               511999000
 Min. memory needed in ccsd:               3810699
 Max. memory used in ccsd:                 5231705
 Max. memory used in cckext:               3963547 ( 9 integral passes)
 Max. memory used in cckint:              15780972 ( 1 integral passes)



 **********************************************************************************************************************************
 DATASETS  * FILE   NREC   LENGTH (MB)   RECORD NAMES
              1      21      665.53       500      610      700      900      950      970     1000      129      960     1100   
                                          VAR    BASINP    GEOM    SYMINP    ZMAT    AOBASIS   BASIS     P2S    ABASIS      S 
                                         1400     1410     1420     1200     1210     1080     1600     1650     1300     1700   
                                           T        V       ECP      H0       H01     AOSYM     SMH    MOLCAS    ERIS     OPER   
                                         1380   
                                         JKOP   

              2       7       12.15       200      700     1000      520     4202     5202     2101   
                                        OPTIONS   GEOM     BASIS   MCVARS     RHF     MCSCF     RHF  

 PROGRAMS   *        TOTAL  RCCSD(T)       RHF     MULTI       POP       RHF       INT
 CPU TIMES  *       226.32    117.37      0.47      3.54      0.01      6.10     98.64
 REAL TIME  *       237.43 SEC
 DISK USED  *         2.47 GB      
 **********************************************************************************************************************************
 SETTING CCSD(1)        =      -104.12869418  AU                              

 DO I                   =         2.00000000   

 Running procedure=IS1D6

1PROGRAM * RHF-SCF (OPEN SHELL)       Authors: W. Meyer, H.-J. Werner


 NUMBER OF ELECTRONS:      10+    5-    SPACE SYMMETRY=1    SPIN SYMMETRY: Sextet  
 CONVERGENCE THRESHOLDS:    1.00E-05 (Density)    1.00E-07 (Energy)
 MAX. NUMBER OF ITERATIONS:       60
 INTERPOLATION TYPE:            DIIS
 INTERPOLATION STEPS:              2 (START)      1 (STEP)
 LEVEL SHIFTS:                 -0.30 (CLOSED)  0.00 (OPEN) 


 Singly occupied orbitals:      3.1       4.1       1.4       1.6       1.7
 
 Extra symmetries of mos in symmetry 1:   1   3   2   1
 Orbital guess generated from atomic densities. Full valence occupancy:    4   1   1   1   1   1   1   0


 Molecular orbital dump at record        4202.2

 ITERATION    DDIFF          GRAD             ENERGY        2-EL.EN.            DIPOLE MOMENTS         DIIS   ORB.
    1      0.000D+00      0.000D+00      -103.35773842    155.958690    0.00000    0.00000    0.00000    0    start
    2      0.000D+00      0.657D-02      -103.37375402    160.244582    0.00000    0.00000    0.00000    1    diag,B
    3      0.238D-01      0.597D-02      -103.38161376    158.677068    0.00000    0.00000    0.00000    2    diag,B
    4      0.303D-02      0.113D-02      -103.38252972    158.562589    0.00000    0.00000    0.00000    3    diag,B
    5      0.199D-02      0.329D-03      -103.38266988    158.498305    0.00000    0.00000    0.00000    4    diag,B
    6      0.428D-03      0.983D-04      -103.38269272    158.461956    0.00000    0.00000    0.00000    5    diag,B
    7      0.111D-03      0.244D-04      -103.38269447    158.460172    0.00000    0.00000    0.00000    6    fixocc
    8      0.551D-04      0.880D-05      -103.38269501    158.459577    0.00000    0.00000    0.00000    7    diag,B
    9      0.174D-04      0.519D-05      -103.38269522    158.459801    0.00000    0.00000    0.00000    8    diag,B
   10      0.405D-05      0.496D-05      -103.38269532    158.459733    0.00000    0.00000    0.00000    9    orth
   11      0.127D-05      0.500D-05      -103.38269579    158.459664    0.00000    0.00000    0.00000    0    orth

 Final alpha occupancy:   4   1   1   1   1   1   1   0
 Final beta  occupancy:   2   1   1   0   1   0   0   0

 !RHF STATE 1.1 Energy               -103.382695790205
 Nuclear energy                         0.00000000
 One-electron energy                 -182.61252757
 Two-electron energy                   79.22983178
 Virial quotient                       -1.77633110
 !RHF STATE 1.1 Dipole moment           0.00000000     0.00000000     0.00000000
 Dipole moment /Debye                   0.00000000     0.00000000     0.00000000

 ELECTRON ORBITALS
 =================


   Orb  Occ    Energy  Couls-En    Coefficients

                                   1 1s      1 1s      1 1s      1 1s      1 1s      1 1s      1 1s      1 1s      1 1s      1 1s   
                                   1 1s      1 1s      1 1s      1 1s      1 1s      1 1s      1 1s      1 1s      1 1s      1 1s   
                                   1 1s      1 1s      1 1s      1 1s      1 1s      1 1s      1 1s      1 1s      1 1s      1 1s   
                                   1 1s      1 3d0     1 3d2+    1 3d0     1 3d2+    1 3d0     1 3d2+    1 3d0     1 3d2+    1 3d0  
                                   1 3d2+    1 3d0     1 3d2+    1 3d0     1 3d2+    1 3d0     1 3d2+    1 3d0     1 3d2+    1 3d0  
                                   1 3d2+    1 3d0     1 3d2+    1 3d0     1 3d2+    1 3d0     1 3d2+    1 3d0     1 3d2+    1 3d0  
                                   1 3d2+    1 5g0     1 5g4+    1 5g2+    1 5g0     1 5g4+    1 5g2+    1 5g0     1 5g4+    1 5g2+ 
                                   1 5g0     1 5g4+    1 5g2+    1 5g0     1 5g4+    1 5g2+    1 7i6+    1 7i4+    1 7i2+    1 7i0  
                                   1 7i6+    1 7i4+    1 7i2+    1 7i0     1 7i6+    1 7i4+    1 7i2+    1 7i0  

   1.1   2    -3.7435  -19.1172 -0.000000  0.000000 -0.000000  0.000000 -0.000000  0.000000 -0.000000  0.000002 -0.000005  0.000015
                                -0.000041  0.000109 -0.000281  0.000728 -0.001984  0.006338 -0.027630  0.110266 -0.071467 -0.565710
                                -0.147266  1.099604  0.584990  0.237053  0.018831 -0.007585  0.003469 -0.001015  0.246486 -0.624740
                                 0.000282  0.000000 -0.000000 -0.000001  0.000001  0.000015 -0.000015  0.000109 -0.000104  0.000263
                                -0.000197  0.000530 -0.001186  0.001090 -0.002167  0.001194 -0.001517  0.000873  0.000539  0.000577
                                 0.000724  0.000239  0.000220  0.000023  0.000023  0.000109  0.000302  0.000059  0.000334 -0.000000
                                -0.000002  0.000089  0.000093 -0.000107  0.000019  0.000022 -0.000024  0.000297  0.000309 -0.000361
                                 0.000269  0.000274 -0.000328  0.000023  0.000022 -0.000030  0.000000 -0.000000  0.000000 -0.000000
                                 0.000001 -0.000001  0.000001 -0.000001 -0.000001  0.000001 -0.000000 -0.000000

   2.1   2    -0.2946  -10.6643 -0.000000  0.000000 -0.000000  0.000000 -0.000000  0.000000 -0.000000  0.000000 -0.000000  0.000000
                                -0.000000  0.000001 -0.000001  0.000003 -0.000010  0.000032 -0.000147  0.000599 -0.000293 -0.004333
                                -0.002136  0.024979  0.005201  0.001233 -0.003242 -0.002364  0.001007  0.002122  0.002995 -0.022121
                                 0.000000 -0.000011  0.000013  0.000091 -0.000102 -0.002487  0.002798 -0.017859  0.020096 -0.044276
                                 0.049822 -0.072933  0.082067 -0.155134  0.174553 -0.188206  0.211771 -0.177624  0.199908 -0.141613
                                 0.159434 -0.079621  0.089674 -0.017382  0.019582 -0.026154  0.029429 -0.017433  0.019613  0.000456
                                -0.000515 -0.000050 -0.000183  0.000120 -0.000099 -0.000364  0.000239 -0.000293 -0.001082  0.000710
                                -0.000365 -0.001346  0.000883 -0.000154 -0.000547  0.000363 -0.000045  0.000051 -0.000064  0.000050
                                -0.000092  0.000106 -0.000132  0.000103 -0.000157  0.000182 -0.000227  0.000178

   3.1   +    -0.4383  -11.2049 -0.000000  0.000000 -0.000000  0.000000 -0.000000  0.000000 -0.000000  0.000000 -0.000000  0.000000
                                -0.000000  0.000000 -0.000000  0.000000 -0.000001  0.000006 -0.000036  0.000159  0.000021 -0.002482
                                -0.001941  0.026398  0.003719  0.000480 -0.004309 -0.003194 -0.001786  0.000197  0.002510 -0.025220
                                -0.000056  0.000013  0.000012 -0.000107 -0.000095  0.002936  0.002608  0.021083  0.018727  0.052208
                                 0.046374  0.086352  0.076709  0.185014  0.164338  0.223813  0.198822  0.202635  0.180088  0.142496
                                 0.126711  0.057051  0.050738  0.005445  0.004842  0.030990  0.027521  0.020804  0.018472 -0.000136
                                -0.000121 -0.000157 -0.000240 -0.000074 -0.000355 -0.000443 -0.000101 -0.000891 -0.001297 -0.000399
                                -0.000795 -0.001544 -0.000638 -0.000053 -0.000573 -0.000372 -0.000089  0.000024  0.000047 -0.000067
                                -0.000184  0.000049  0.000100 -0.000141 -0.000262  0.000071  0.000145 -0.000202

   4.1   +    -0.2317   -5.0723  0.000000 -0.000000  0.000000 -0.000000  0.000000 -0.000000  0.000000 -0.000000  0.000001 -0.000003
                                 0.000009 -0.000024  0.000063 -0.000162  0.000443 -0.001421  0.006305 -0.026114  0.020257  0.122046
                                 0.017903 -0.088659 -0.190880 -0.176290  0.049272  0.381024  0.530883  0.187628 -0.038921 -0.039462
                                 0.001930  0.000000  0.000000 -0.000000 -0.000003  0.000011  0.000072  0.000076  0.000516  0.000190
                                 0.001260  0.000282  0.002234  0.000621  0.004938  0.000827  0.005379  0.001009  0.001720  0.001194
                                -0.004854  0.000904 -0.008475  0.000155 -0.003769  0.000127  0.000717  0.000090  0.000507 -0.000016
                                -0.000041  0.000026  0.000022 -0.000033  0.000114  0.000109 -0.000141 -0.000100 -0.000119  0.000111
                                -0.000685 -0.000691  0.000817 -0.000519 -0.000481  0.000627 -0.000002  0.000002 -0.000001  0.000000
                                -0.000005  0.000004 -0.000002  0.000001  0.000010 -0.000009  0.000008 -0.000006

   5.1   0     0.0226   -1.4015  0.000000 -0.000000  0.000000 -0.000000  0.000000 -0.000000  0.000000 -0.000001  0.000003 -0.000009
                                 0.000026 -0.000068  0.000170 -0.000415  0.000994 -0.002350  0.005361 -0.012999  0.059899 -0.640837
                                -0.729436  9.837922  0.548894 -0.253004  0.639927 -1.409458  1.994463 -3.492466  0.933036 -9.785962
                                 2.894618  0.000000 -0.000000 -0.000000  0.000001  0.000001 -0.000016  0.000009 -0.000101  0.000030
                                -0.000303  0.000173 -0.001339  0.000152 -0.001425  0.000065 -0.000890  0.000073 -0.000599 -0.000140
                                 0.001523  0.000012  0.000972 -0.000251  0.002395 -0.000065  0.000370 -0.000097  0.000600  0.001256
                                -0.008010 -0.000005 -0.000004  0.000007 -0.000023 -0.000021  0.000027  0.000021  0.000025 -0.000024
                                 0.000152  0.000154 -0.000183  0.000085  0.000079 -0.000103  0.000000 -0.000000  0.000000 -0.000000
                                 0.000001 -0.000001  0.000001 -0.000000 -0.000002  0.000002 -0.000001  0.000001

   6.1   0     0.0558   -1.4255  0.000000 -0.000000  0.000000 -0.000000  0.000000 -0.000000  0.000000 -0.000000  0.000000 -0.000000
                                 0.000000 -0.000001  0.000002 -0.000004  0.000011 -0.000027  0.000078 -0.000243  0.000619 -0.004995
                                -0.006375  0.088174  0.004057 -0.003226  0.006349 -0.011123  0.020745 -0.024684  0.008000 -0.088430
                                 0.014784  0.000002  0.000002 -0.000018 -0.000016  0.000020  0.000018 -0.001332 -0.001160  0.003547
                                 0.003114  0.105018  0.091833  0.044624  0.039058 -0.034513 -0.030121  0.027696  0.024254 -0.063983
                                -0.055918  0.127904  0.111847 -0.313551 -0.274082 -0.064410 -0.056303 -0.087522 -0.076512  0.925288
                                 0.808975  0.000005  0.000006  0.000001  0.000014  0.000021  0.000007  0.000025  0.000026  0.000005
                                 0.000025  0.000073  0.000039 -0.000079 -0.000306 -0.000165  0.000003 -0.000001 -0.000001  0.000002
                                 0.000007 -0.000002 -0.000004  0.000005  0.000003 -0.000001 -0.000002  0.000002

                                   1 2px     1 2px     1 2px     1 2px     1 2px     1 2px     1 2px     1 2px     1 2px     1 2px  
                                   1 2px     1 2px     1 2px     1 2px     1 2px     1 2px     1 2px     1 2px     1 2px     1 2px  
                                   1 2px     1 2px     1 2px     1 4f1+    1 4f3+    1 4f1+    1 4f3+    1 4f1+    1 4f3+    1 4f1+ 
                                   1 4f3+    1 4f1+    1 4f3+    1 4f1+    1 4f3+    1 6h1+    1 6h3+    1 6h5+    1 6h1+    1 6h3+ 
                                   1 6h5+    1 6h1+    1 6h3+    1 6h5+    1 6h1+    1 6h3+    1 6h5+ 

   1.2   2    -2.3535  -16.2361 -0.000000  0.000000 -0.000001  0.000004 -0.000017  0.000058 -0.000183  0.000601 -0.002296  0.011019
                                -0.015775 -0.171225  0.008835  0.333990  0.408821  0.317250  0.119600  0.011665  0.000188  0.000215
                                 0.092500 -0.056617 -0.000049 -0.000278  0.000182 -0.000681  0.000066 -0.001142 -0.000190 -0.002188
                                 0.001273 -0.001372  0.001233 -0.000038  0.000047 -0.000035  0.000030 -0.000028 -0.000124  0.000109
                                -0.000101 -0.000017  0.000016 -0.000015  0.000055 -0.000047  0.000043

   2.2   0     0.0193   -1.8627  0.000000 -0.000000  0.000000 -0.000002  0.000008 -0.000028  0.000085 -0.000251  0.000764 -0.002631
                                 0.008980 -0.101227 -0.077707  0.343053  0.066887 -0.081599  0.053355 -0.050175  0.311502 -0.316945
                                 0.136191 -0.380392  1.116319 -0.000011  0.000019 -0.000060  0.000089 -0.000160  0.000259  0.000109
[...]

 Final alpha occupancy:   4   1   1   1   1   1   1   0
 Final beta  occupancy:   3   1   1   0   1   0   0   0

 !RHF STATE 1.1 Energy               -103.361964994952
 Nuclear energy                         0.00000000
 One-electron energy                 -185.23125063
 Two-electron energy                   81.86928564
 Virial quotient                       -1.77490065
 !RHF STATE 1.1 Dipole moment           0.00000000     0.00000000     0.00000000
 Dipole moment /Debye                   0.00000000     0.00000000     0.00000000

 Orbital energies:

         1.1          2.1          3.1          4.1          5.1          6.1
     -3.568803    -0.017645     0.125893     0.125893     0.114164     0.149682

         1.2          2.2          3.2
     -2.183085     0.109743     0.193862

         1.3          2.3          3.3
     -2.183085     0.109743     0.193862

         1.4          2.4          3.4
      0.125893     0.149682     0.313110

         1.5          2.5          3.5
     -2.183085     0.109743     0.193862

         1.6          2.6          3.6
      0.125893     0.149682     0.313110

         1.7          2.7          3.7
      0.125893     0.149682     0.313110

         1.8          2.8
      0.503966     1.292812

 HOMO      4.1     0.125893 =       3.4257eV
 LUMO      2.2     0.109743 =       2.9862eV
 LUMO-HOMO        -0.016151 =      -0.4395eV


 **********************************************************************************************************************************
 DATASETS  * FILE   NREC   LENGTH (MB)   RECORD NAMES
              1      21      665.53       500      610      700      900      950      970     1000      129      960     1100   
                                          VAR    BASINP    GEOM    SYMINP    ZMAT    AOBASIS   BASIS     P2S    ABASIS      S 
                                         1400     1410     1420     1200     1210     1080     1600     1650     1300     1700   
                                           T        V       ECP      H0       H01     AOSYM     SMH    MOLCAS    ERIS     OPER   
                                         1380   
                                         JKOP   

              2      22       54.97       200      700     1000      520     4202     5202     2101     5202(1)  6202     2103   
                                        OPTIONS   GEOM     BASIS   MCVARS     RHF     MCSCF     RHF     MCSCF    MCSCF     RHF  
                                         5202(2)  2105     2107     2109     2115     2117     2119     2121     2123     2110   
                                         MCSCF     RHF      RHF      RHF      RHF      RHF      RHF      RHF      RHF      RHF  
                                         2111     2113   
                                          RHF      RHF  

 PROGRAMS   *        TOTAL       RHF     MULTI       POP       RHF  RCCSD(T)       RHF  RCCSD(T)       RHF  RCCSD(T)       RHF
 CPU TIMES  *      1282.58      0.45      7.18      0.00      8.32      4.91      2.80     28.98      3.20     35.98      0.44
 REAL TIME  *      1374.16 SEC
 DISK USED  *         2.47 GB      
 **********************************************************************************************************************************
 SETTING SCF(13)        =      -103.36196499  AU                              
 SETTING _CC_NORM_MAX   =         2.00000000                                  


1PROGRAM * CCSD (Restricted open-shell coupled cluster)     Authors: C. Hampel, H.-J. Werner, 1991, M. Deegan, P.J. Knowles, 1992


 Convergence thresholds:  THRVAR = 1.00D-08  THRDEN = 1.00D-06

 CCSD(T)     terms to be evaluated (factor= 1.000)


 Number of closed-shell orbitals:   6 (   3   1   1   0   1   0   0   0 )
 Number of active  orbitals:        4 (   1   0   0   1   0   1   1   0 )
 Number of external orbitals:     335 (  84  46  46  33  46  33  33  14 )

 Memory could be reduced to 85.90 Mwords without degradation in triples

 Number of N-1 electron functions:              16
 Number of N-2 electron functions:             120
 Number of singly external CSFs:               973
 Number of doubly external CSFs:           1362915
 Total number of CSFs:                     1363888

 Molecular orbitals read from record     2113.2  Type=RHF/CANONICAL (state 1.1)

 Integral transformation finished. Total CPU:   2.45 sec, npass=  1  Memory used:  15.78 MW

 Starting RMP2 calculation

 Wavefunction is spin-projected

 ITER.      SQ.NORM     CORR.ENERGY   TOTAL ENERGY   ENERGY CHANGE        DEN1      VAR(S)    VAR(P)  DIIS     TIME
   1      1.13572565    -0.69222016  -104.05418516    -0.69222016    -0.00246632  0.78D-04  0.22D-02  1  1     2.52
   2      1.14227061    -0.69491995  -104.05688495    -0.00269979    -0.00007760  0.31D-05  0.12D-03  2  2     2.58
   3      1.14411179    -0.69532467  -104.05728967    -0.00040472    -0.00000209  0.13D-06  0.38D-05  3  3     2.65
   4      1.14438227    -0.69536190  -104.05732689    -0.00003723    -0.00000007  0.13D-07  0.12D-06  4  4     2.71
   5      1.14440150    -0.69536279  -104.05732779    -0.00000089    -0.00000000  0.20D-08  0.46D-08  5  5     2.79

 Norm of t1 vector:      0.07120703      S-energy:    -0.00784136      T1 diagnostic:  0.00990892
 Norm of t2 vector:      0.37327076      P-energy:    -0.68752143
                                         Alpha-Beta:  -0.47092309
                                         Alpha-Alpha: -0.16507911
                                         Beta-Beta:   -0.05151923

 Spin contamination <S**2-Sz**2-Sz>     0.00000000
  Reference energy                   -103.361964994953
  RHF-RMP2 correlation energy          -0.695362794776
 !RHF-RMP2 energy                    -104.057327789729
 (NB above energy spin projected)

 Starting RCCSD calculation

 ITER.      SQ.NORM     CORR.ENERGY   TOTAL ENERGY   ENERGY CHANGE        DEN1      VAR(S)    VAR(P)  DIIS     TIME
   1      1.13668753    -0.65996382  -104.02192882    -0.65996382    -0.01729052  0.94D-02  0.46D-02  1  1     6.60
   2      1.16834890    -0.67441842  -104.03638342    -0.01445460    -0.00333616  0.28D-02  0.17D-02  2  2    10.35
   3      1.20504381    -0.67914515  -104.04111014    -0.00472673    -0.00119605  0.18D-02  0.34D-03  3  3    14.13
   4      1.24007751    -0.68297964  -104.04494463    -0.00383449    -0.00036033  0.53D-03  0.12D-03  4  4    17.90
   5      1.27680193    -0.68560349  -104.04756849    -0.00262385    -0.00009962  0.15D-03  0.47D-04  5  5    21.74
   6      1.28854545    -0.68605114  -104.04801614    -0.00044765    -0.00004320  0.55D-04  0.23D-04  6  6    25.52
   7      1.30171572    -0.68651374  -104.04847874    -0.00046260    -0.00001640  0.29D-04  0.53D-05  6  1    29.42
   8      1.30622582    -0.68657402  -104.04853902    -0.00006028    -0.00000679  0.11D-04  0.19D-05  6  3    33.17
   9      1.31140499    -0.68673214  -104.04869713    -0.00015811    -0.00000288  0.42D-05  0.13D-05  6  2    36.94
  10      1.31231616    -0.68674535  -104.04871035    -0.00001322    -0.00000113  0.16D-05  0.48D-06  6  4    40.72
  11      1.31266705    -0.68674473  -104.04870973     0.00000062    -0.00000051  0.67D-06  0.30D-06  6  5    44.51
  12      1.31314957    -0.68675337  -104.04871836    -0.00000863    -0.00000022  0.40D-06  0.99D-07  6  6    48.31
  13      1.31288201    -0.68674531  -104.04871030     0.00000806    -0.00000010  0.19D-06  0.31D-07  6  1    52.14
  14      1.31285306    -0.68674541  -104.04871041    -0.00000010    -0.00000005  0.10D-06  0.14D-07  6  3    55.92
  15      1.31287717    -0.68674645  -104.04871145    -0.00000104    -0.00000005  0.88D-07  0.11D-07  6  2    59.70
  16      1.31281329    -0.68674592  -104.04871092     0.00000053    -0.00000004  0.63D-07  0.84D-08  6  4    63.49
  17      1.31278674    -0.68674558  -104.04871057     0.00000034    -0.00000003  0.52D-07  0.69D-08  6  3    67.32
  18      1.31278746    -0.68674554  -104.04871053     0.00000004    -0.00000003  0.50D-07  0.68D-08  6  5    71.11
  19      1.31276951    -0.68674521  -104.04871021     0.00000033    -0.00000003  0.45D-07  0.63D-08  6  6    74.91
  20      1.31277035    -0.68674521  -104.04871021    -0.00000000    -0.00000003  0.44D-07  0.61D-08  6  2    78.72
  21      1.31275766    -0.68674493  -104.04870992     0.00000029    -0.00000003  0.42D-07  0.59D-08  6  4    82.51
  22      1.31275137    -0.68674461  -104.04870961     0.00000031    -0.00000002  0.37D-07  0.52D-08  6  2    86.33
  23      1.31274632    -0.68674430  -104.04870930     0.00000031    -0.00000002  0.32D-07  0.45D-08  6  1    90.13
  24      1.31273064    -0.68674331  -104.04870830     0.00000100    -0.00000002  0.30D-07  0.44D-08  6  3    93.93
  25      1.31273027    -0.68674322  -104.04870821     0.00000009    -0.00000002  0.30D-07  0.43D-08  6  4    97.73
  26      1.31273278    -0.68674312  -104.04870811     0.00000010    -0.00000001  0.29D-07  0.42D-08  6  1   101.52
  27      1.31275733    -0.68674277  -104.04870776     0.00000035    -0.00000001  0.24D-07  0.35D-08  6  6   105.30
  28      1.31278218    -0.68674261  -104.04870761     0.00000016    -0.00000001  0.21D-07  0.30D-08  6  2   109.11
  29      1.31278219    -0.68674255  -104.04870755     0.00000006    -0.00000001  0.22D-07  0.32D-08  6  5   112.89
  30      1.31279058    -0.68674265  -104.04870765    -0.00000010    -0.00000001  0.21D-07  0.30D-08  6  2   116.68
  31      1.31278914    -0.68674260  -104.04870760     0.00000005    -0.00000001  0.21D-07  0.30D-08  6  5   120.50
  32      1.31278134    -0.68674310  -104.04870809    -0.00000050    -0.00000001  0.18D-07  0.25D-08  6  3   124.31
  33      1.31278075    -0.68674309  -104.04870808     0.00000001    -0.00000001  0.18D-07  0.25D-08  6  5   128.24
  34      1.31278087    -0.68674309  -104.04870809    -0.00000001    -0.00000001  0.18D-07  0.25D-08  6  3   132.11
  35      1.31281898    -0.68674373  -104.04870872    -0.00000063    -0.00000000  0.99D-08  0.14D-08  6  5   135.94
  36      1.31281904    -0.68674379  -104.04870878    -0.00000006    -0.00000000  0.98D-08  0.14D-08  6  3   139.75
  37      1.31280135    -0.68674354  -104.04870853     0.00000025    -0.00000001  0.13D-07  0.19D-08  6  2   143.54
  38      1.31280396    -0.68674361  -104.04870861    -0.00000008    -0.00000001  0.12D-07  0.18D-08  6  3   147.45
  39      1.31280969    -0.68674369  -104.04870869    -0.00000008    -0.00000001  0.11D-07  0.16D-08  6  2   151.28
  40      1.31281119    -0.68674369  -104.04870868     0.00000001    -0.00000001  0.11D-07  0.16D-08  6  3   155.09
  41      1.31281152    -0.68674383  -104.04870882    -0.00000014    -0.00000001  0.11D-07  0.16D-08  6  5   158.89
  42      1.31281270    -0.68674386  -104.04870886    -0.00000004    -0.00000001  0.11D-07  0.15D-08  6  3   162.70
  43      1.31281372    -0.68674384  -104.04870883     0.00000003    -0.00000001  0.11D-07  0.15D-08  6  5   166.50
  44      1.31282375    -0.68674377  -104.04870877     0.00000007    -0.00000000  0.98D-08  0.14D-08  6  3   170.36
  45      1.31279159    -0.68674341  -104.04870841     0.00000036    -0.00000001  0.15D-07  0.22D-08  6  2   174.35
  46      1.31278363    -0.68674317  -104.04870817     0.00000024    -0.00000001  0.17D-07  0.25D-08  6  3   178.15
  47      1.31278900    -0.68674349  -104.04870849    -0.00000032    -0.00000001  0.15D-07  0.21D-08  6  2   181.98
  48      1.31278549    -0.68674338  -104.04870838     0.00000011    -0.00000001  0.16D-07  0.23D-08  6  5   185.96
  49      1.31278231    -0.68674332  -104.04870831     0.00000006    -0.00000001  0.17D-07  0.24D-08  6  2   189.76
  50      1.31278340    -0.68674333  -104.04870832    -0.00000001    -0.00000001  0.16D-07  0.24D-08  6  5   193.55
  51      1.31278096    -0.68674329  -104.04870829     0.00000003    -0.00000001  0.17D-07  0.24D-08  6  2   197.33
  52      1.31277788    -0.68674328  -104.04870827     0.00000002    -0.00000001  0.17D-07  0.25D-08  6  3   201.14
  53      1.31278056    -0.68674335  -104.04870834    -0.00000007    -0.00000001  0.17D-07  0.24D-08  6  5   204.96
  54      1.31278000    -0.68674330  -104.04870830     0.00000004    -0.00000001  0.17D-07  0.24D-08  6  2   208.86
  55      1.31278580    -0.68674327  -104.04870827     0.00000003    -0.00000001  0.16D-07  0.23D-08  6  3   212.83
  56      1.31278500    -0.68674334  -104.04870833    -0.00000007    -0.00000001  0.16D-07  0.23D-08  6  2   216.74
  57      1.31277969    -0.68674333  -104.04870832     0.00000001    -0.00000001  0.17D-07  0.24D-08  6  3   220.55
  58      1.31279907    -0.68674356  -104.04870856    -0.00000024    -0.00000001  0.13D-07  0.19D-08  6  2   224.34
  59      1.31279773    -0.68674360  -104.04870860    -0.00000004    -0.00000001  0.13D-07  0.19D-08  6  3   228.16
  60      1.31279526    -0.68674357  -104.04870856     0.00000004    -0.00000001  0.14D-07  0.19D-08  6  5   232.07
  61      1.31279677    -0.68674352  -104.04870852     0.00000004    -0.00000001  0.14D-07  0.19D-08  6  3   235.91
  62      1.31280579    -0.68674367  -104.04870866    -0.00000014    -0.00000001  0.12D-07  0.17D-08  6  5   239.70
  63      1.31280633    -0.68674375  -104.04870874    -0.00000008    -0.00000001  0.12D-07  0.17D-08  6  6   243.61
  64      1.31280956    -0.68674383  -104.04870882    -0.00000008    -0.00000001  0.11D-07  0.16D-08  6  2   247.47
  65      1.31281524    -0.68674395  -104.04870895    -0.00000012    -0.00000000  0.10D-07  0.15D-08  6  6   251.26
  66      1.31282212    -0.68674398  -104.04870898    -0.00000003    -0.00000000  0.93D-08  0.13D-08  6  2   255.12
  67      1.31282074    -0.68674405  -104.04870905    -0.00000007    -0.00000000  0.93D-08  0.13D-08  6  6   258.93
  68      1.31281942    -0.68674415  -104.04870914    -0.00000010    -0.00000000  0.94D-08  0.13D-08  6  2   262.74
  69      1.31283233    -0.68674428  -104.04870927    -0.00000013    -0.00000000  0.75D-08  0.11D-08  6  6   266.54

 Norm of t1 vector:      0.35999951      S-energy:    -0.01224964      T1 diagnostic:  0.06097663
                                                                       D1 diagnostic:  0.19090039
 Norm of t2 vector:      0.42805687      P-energy:    -0.67449464
                                         Alpha-Beta:  -0.47872364
                                         Alpha-Alpha: -0.14646286
                                         Beta-Beta:   -0.04930813

 Singles amplitudes (print threshold =  0.500E-01):

         I         SYM. A    A   T(IA) [Alpha-Alpha]

         2         1         2     -0.17147657
         2         1         5     -0.13933656
         2         1         8     -0.07205994
         3         1         3      0.05399172
         3         1         7      0.07460710
 
         I         SYM. A    A   T(IA) [Beta-Beta]

         2         1         2     -0.11703701
         2         1         5     -0.07181890
         3         1         3      0.09448805
         3         1         7      0.14151648
         3         1         9      0.10148219

 Doubles amplitudes (print threshold =  0.500E-01):

         I         J         SYM. A    SYM. B    A         B      T(IJ, AB) [Alpha-Beta]

         2         2         2         2         2         2     -0.08321332
         2         2         3         3         2         2     -0.08321332
         2         2         5         5         2         2     -0.07813677

 Spin contamination <S**2-Sz**2-Sz>     0.00000000

 Memory could be reduced to 90.60 Mwords without degradation in triples
 

  Correlated core orbitals:             1.1       1.2       1.3       1.5
  Orbital energies:                    -3.7261   -2.3986   -2.3986   -2.3299
 
  RCCSD core-core energy               -0.182091456646
  RCCSD core-valence energy            -0.297037128409
  RCCSD valence correlation energy     -0.207615692270
 

 RESULTS
 =======

  Reference energy                   -103.361964994953
  RCCSD singles energy                 -0.012249640611
  RCCSD pair energy                    -0.674494636713
  RCCSD correlation energy             -0.686744277325
  Triples (T) contribution             -0.030638024739
  Total correlation energy             -0.717382302064
 
  RHF-RCCSD energy                   -104.048709272277
  RHF-RCCSD[T] energy                -104.083051846123
  RHF-RCCSD-T energy                 -104.079041920101
 !RHF-RCCSD(T) energy                -104.079347297016

 Program statistics:

 Available memory in ccsd:               511999000
 Min. memory needed in ccsd:               4262971
 Max. memory used in ccsd:                 5911453
 Max. memory used in cckext:               4457662 (69 integral passes)
 Max. memory used in cckint:              15780794 ( 1 integral passes)



 **********************************************************************************************************************************
 DATASETS  * FILE   NREC   LENGTH (MB)   RECORD NAMES
              1      21      665.53       500      610      700      900      950      970     1000      129      960     1100   
                                          VAR    BASINP    GEOM    SYMINP    ZMAT    AOBASIS   BASIS     P2S    ABASIS      S 
                                         1400     1410     1420     1200     1210     1080     1600     1650     1300     1700   
                                           T        V       ECP      H0       H01     AOSYM     SMH    MOLCAS    ERIS     OPER   
                                         1380   
                                         JKOP   

              2      22       54.97       200      700     1000      520     4202     5202     2101     5202(1)  6202     2103   
                                        OPTIONS   GEOM     BASIS   MCVARS     RHF     MCSCF     RHF     MCSCF    MCSCF     RHF  
                                         5202(2)  2105     2107     2109     2115     2117     2119     2121     2123     2110   
                                         MCSCF     RHF      RHF      RHF      RHF      RHF      RHF      RHF      RHF      RHF  
                                         2111     2113   
                                          RHF      RHF  

 PROGRAMS   *        TOTAL  RCCSD(T)       RHF     MULTI       POP       RHF  RCCSD(T)       RHF  RCCSD(T)       RHF  RCCSD(T)
 CPU TIMES  *      1644.41    361.84      0.45      7.18      0.00      8.32      4.91      2.80     28.98      3.20     35.98
 REAL TIME  *      1760.77 SEC
 DISK USED  *         2.47 GB      
 **********************************************************************************************************************************
 SETTING CCSD(13)       =      -104.07934730  AU                              
 Output type csv         
                                                                                                                                                                                                                                                                

        SCF,CCSD
   -103.50466767,   -104.12869418
   -103.37767614,   -104.04805021
   -103.15989211,   -103.91326445
   -103.28694195,   -103.85674110
   -103.15097375,   -103.78693570
   -102.74019413,   -103.28044661
   -101.53993038,   -102.04171943
    -99.68756404,   -100.15134447
    -97.05350829,    -97.48907162
    -93.56188345,    -93.97881598
    -89.20720124,    -89.60233544
    -30.47302253,    -30.57506010
   -103.36196499,   -104.07934730
                                                  

        RCCSD(T)        RHF-SCF         MULTI           RHF-SCF         RCCSD(T)        RHF-SCF         RCCSD(T)        RHF-SCF 
   -104.07934730   -103.36196499   -103.36196500   -103.36821479    -30.57506010    -30.47302253    -89.60233544    -89.20720124
 **********************************************************************************************************************************
 Variable memory released
