 Entering Gaussian System, Link 0=g16
 Initial command:
 /home1/apps/gaussian/16rA.03/g16/l1.exe "/tmp/Gau-119891.inp" -scrdir="/tmp/"
 Entering Link 1 = /home1/apps/gaussian/16rA.03/g16/l1.exe PID=    119892.
  
 Copyright (c) 1988,1990,1992,1993,1995,1998,2003,2009,2016,
            Gaussian, Inc.  All Rights Reserved.
  
 This is part of the Gaussian(R) 16 program.  It is based on
 the Gaussian(R) 09 system (copyright 2009, Gaussian, Inc.),
 the Gaussian(R) 03 system (copyright 2003, Gaussian, Inc.),
 the Gaussian(R) 98 system (copyright 1998, Gaussian, Inc.),
 the Gaussian(R) 94 system (copyright 1995, Gaussian, Inc.),
 the Gaussian 92(TM) system (copyright 1992, Gaussian, Inc.),
 the Gaussian 90(TM) system (copyright 1990, Gaussian, Inc.),
 the Gaussian 88(TM) system (copyright 1988, Gaussian, Inc.),
 the Gaussian 86(TM) system (copyright 1986, Carnegie Mellon
 University), and the Gaussian 82(TM) system (copyright 1983,
 Carnegie Mellon University). Gaussian is a federally registered
 trademark of Gaussian, Inc.
  
 This software contains proprietary and confidential information,
 including trade secrets, belonging to Gaussian, Inc.
  
 This software is provided under written license and may be
 used, copied, transmitted, or stored only in accord with that
 written license.
  
 The following legend is applicable only to US Government
 contracts under FAR:
  
                    RESTRICTED RIGHTS LEGEND
  
 Use, reproduction and disclosure by the US Government is
 subject to restrictions as set forth in subparagraphs (a)
 and (c) of the Commercial Computer Software - Restricted
 Rights clause in FAR 52.227-19.
  
 Gaussian, Inc.
 340 Quinnipiac St., Bldg. 40, Wallingford CT 06492
  
  
 ---------------------------------------------------------------
 Warning -- This program may not be used in any manner that
 competes with the business of Gaussian, Inc. or will provide
 assistance to any competitor of Gaussian, Inc.  The licensee
 of this program is prohibited from giving any competitor of
 Gaussian, Inc. access to this program.  By using this program,
 the user acknowledges that Gaussian, Inc. is engaged in the
 business of creating and licensing software in the field of
 computational chemistry and represents and warrants to the
 licensee that it is not a competitor of Gaussian, Inc. and that
 it will not use this program in any manner prohibited above.
 ---------------------------------------------------------------
  

 Cite this work as:
 Gaussian 16, Revision A.03,
 M. J. Frisch, G. W. Trucks, H. B. Schlegel, G. E. Scuseria, 
 M. A. Robb, J. R. Cheeseman, G. Scalmani, V. Barone, 
 G. A. Petersson, H. Nakatsuji, X. Li, M. Caricato, A. V. Marenich, 
 J. Bloino, B. G. Janesko, R. Gomperts, B. Mennucci, H. P. Hratchian, 
 J. V. Ortiz, A. F. Izmaylov, J. L. Sonnenberg, D. Williams-Young, 
 F. Ding, F. Lipparini, F. Egidi, J. Goings, B. Peng, A. Petrone, 
 T. Henderson, D. Ranasinghe, V. G. Zakrzewski, J. Gao, N. Rega, 
 G. Zheng, W. Liang, M. Hada, M. Ehara, K. Toyota, R. Fukuda, 
 J. Hasegawa, M. Ishida, T. Nakajima, Y. Honda, O. Kitao, H. Nakai, 
 T. Vreven, K. Throssell, J. A. Montgomery, Jr., J. E. Peralta, 
 F. Ogliaro, M. J. Bearpark, J. J. Heyd, E. N. Brothers, K. N. Kudin, 
 V. N. Staroverov, T. A. Keith, R. Kobayashi, J. Normand, 
 K. Raghavachari, A. P. Rendell, J. C. Burant, S. S. Iyengar, 
 J. Tomasi, M. Cossi, J. M. Millam, M. Klene, C. Adamo, R. Cammi, 
 J. W. Ochterski, R. L. Martin, K. Morokuma, O. Farkas, 
 J. B. Foresman, and D. J. Fox, Gaussian, Inc., Wallingford CT, 2016.
 
 ******************************************
 Gaussian 16:  ES64L-G16RevA.03 25-Dec-2016
                26-Feb-2018 
 ******************************************
 %MEM=64GB
 %CPU=0-15
 SetSPE:  set environment variable "MP_BIND" = "yes"
 SetSPE:  set environment variable "MP_BLIST" = "0,1,2,3,4,5,6,7,8,9,10,11,12,13,14,15"
 Will use up to   16 processors via shared memory.
 %RWF=/scratch/04843/aannabe/gaussian/
 %Int=/scratch/04843/aannabe/gaussian/
 %D2E=/scratch/04843/aannabe/gaussian/
 %NoSave
 %CHK=MnH
 ----------------------------------------------------------------------
 #P ROCCSD(T)=(maxcyc=150, Full, SaveAmplitudes, ReadAmplitudes)/Gen 5d
  7f SCF=(maxcycles=300) Integral(NoXCTest) MaxDisk=500GB Pop=Regular P
 seudo=Read Guess=Read IOp(5/15=2)
 ----------------------------------------------------------------------
 1/38=1,172=1/1;
 2/12=2,17=6,18=5,40=1/2;
 3/5=7,8=11,11=2,16=1,17=8,25=1,30=1,47=8,116=101/1,2,3;
 4/5=1/1;
 5/5=2,7=300,15=2,38=6/2;
 8/5=-1,6=4,9=120000,10=90,24=1/1,4;
 9/5=7,6=150,14=2,77=1/13;
 6//1;
 99/5=1,9=1/99;
 Leave Link    1 at Mon Feb 26 18:27:30 2018, MaxMem=  8589934592 cpu:               5.1 elap:               0.3
 (Enter /home1/apps/gaussian/16rA.03/g16/l101.exe)
 ---
 MnH
 ---
 Symbolic Z-matrix:
 Charge =  0 Multiplicity = 7
 Mn                    0.        0.        0. 
 H                     0.        0.        2. 
 
 ITRead=  0  0
 MicOpt= -1 -1
 NAtoms=      2 NQM=        2 NQMF=       0 NMMI=      0 NMMIF=      0
                NMic=       0 NMicF=      0.
                    Isotopes and Nuclear Properties:
 (Nuclear quadrupole moments (NQMom) in fm**2, nuclear magnetic moments (NMagM)
  in nuclear magnetons)

  Atom         1           2
 IAtWgt=          55           1
 AtmWgt=  54.9380463   1.0078250
 NucSpn=           5           1
 AtZEff=  -0.0000000  -0.0000000
 NQMom=   33.0000000   0.0000000
 NMagM=    3.4532000   2.7928460
 AtZNuc=  25.0000000   1.0000000
 Leave Link  101 at Mon Feb 26 18:27:30 2018, MaxMem=  8589934592 cpu:               1.5 elap:               0.1
 (Enter /home1/apps/gaussian/16rA.03/g16/l202.exe)
                          Input orientation:                          
 ---------------------------------------------------------------------
 Center     Atomic      Atomic             Coordinates (Angstroms)
 Number     Number       Type             X           Y           Z
 ---------------------------------------------------------------------
      1         25           0        0.000000    0.000000    0.000000
      2          1           0        0.000000    0.000000    2.000000
 ---------------------------------------------------------------------
 Stoichiometry    HMn(7)
 Framework group  C*V[C*(HMn)]
 Deg. of freedom     1
 Full point group                 C*V     NOp   4
 Largest Abelian subgroup         C2V     NOp   4
 Largest concise Abelian subgroup C1      NOp   1
                         Standard orientation:                         
 ---------------------------------------------------------------------
 Center     Atomic      Atomic             Coordinates (Angstroms)
 Number     Number       Type             X           Y           Z
 ---------------------------------------------------------------------
      1         25           0        0.000000    0.000000    0.076923
      2          1           0        0.000000    0.000000   -1.923077
 ---------------------------------------------------------------------
 Rotational constants (GHZ):           0.0000000         127.6635440         127.6635440
 Leave Link  202 at Mon Feb 26 18:27:31 2018, MaxMem=  8589934592 cpu:               0.4 elap:               0.1
 (Enter /home1/apps/gaussian/16rA.03/g16/l301.exe)
 General basis read from cards:  (5D, 7F)
 Centers:       1
 S 1 1.00
     Exponent=  3.9608050000D+06 Coefficients=  1.0000000000D+00
 S 1 1.00
     Exponent=  5.9311550000D+05 Coefficients=  1.0000000000D+00
 S 1 1.00
     Exponent=  1.3497680000D+05 Coefficients=  1.0000000000D+00
 S 1 1.00
     Exponent=  3.8230670000D+04 Coefficients=  1.0000000000D+00
 S 1 1.00
     Exponent=  1.2471540000D+04 Coefficients=  1.0000000000D+00
 S 1 1.00
     Exponent=  4.5017430000D+03 Coefficients=  1.0000000000D+00
 S 1 1.00
     Exponent=  1.7552120000D+03 Coefficients=  1.0000000000D+00
 S 1 1.00
     Exponent=  7.2730390000D+02 Coefficients=  1.0000000000D+00
 S 1 1.00
     Exponent=  3.1636780000D+02 Coefficients=  1.0000000000D+00
 S 1 1.00
     Exponent=  1.4300980000D+02 Coefficients=  1.0000000000D+00
 S 1 1.00
     Exponent=  6.6218050000D+01 Coefficients=  1.0000000000D+00
 S 1 1.00
     Exponent=  2.9918960000D+01 Coefficients=  1.0000000000D+00
 S 1 1.00
     Exponent=  1.4303180000D+01 Coefficients=  1.0000000000D+00
 S 1 1.00
     Exponent=  6.8394510000D+00 Coefficients=  1.0000000000D+00
 S 1 1.00
     Exponent=  3.0123740000D+00 Coefficients=  1.0000000000D+00
 S 1 1.00
     Exponent=  1.4188080000D+00 Coefficients=  1.0000000000D+00
 S 1 1.00
     Exponent=  6.2362400000D-01 Coefficients=  1.0000000000D+00
 S 1 1.00
     Exponent=  1.3409800000D-01 Coefficients=  1.0000000000D+00
 S 1 1.00
     Exponent=  6.5548000000D-02 Coefficients=  1.0000000000D+00
 S 1 1.00
     Exponent=  2.9584000000D-02 Coefficients=  1.0000000000D+00
 S 1 1.00
     Exponent=  4.1714000000D+00 Coefficients=  1.0000000000D+00
 S 1 1.00
     Exponent=  1.0701000000D+00 Coefficients=  1.0000000000D+00
 S 1 1.00
     Exponent=  1.3350000000D-02 Coefficients=  1.0000000000D+00
 P 1 1.00
     Exponent=  1.6205860000D+04 Coefficients=  1.0000000000D+00
 P 1 1.00
     Exponent=  3.8362740000D+03 Coefficients=  1.0000000000D+00
 P 1 1.00
     Exponent=  1.2460480000D+03 Coefficients=  1.0000000000D+00
 P 1 1.00
     Exponent=  4.7675350000D+02 Coefficients=  1.0000000000D+00
 P 1 1.00
     Exponent=  2.0218950000D+02 Coefficients=  1.0000000000D+00
 P 1 1.00
     Exponent=  9.2094870000D+01 Coefficients=  1.0000000000D+00
 P 1 1.00
     Exponent=  4.4147200000D+01 Coefficients=  1.0000000000D+00
 P 1 1.00
     Exponent=  2.1854680000D+01 Coefficients=  1.0000000000D+00
 P 1 1.00
     Exponent=  1.1085960000D+01 Coefficients=  1.0000000000D+00
 P 1 1.00
     Exponent=  5.6741080000D+00 Coefficients=  1.0000000000D+00
 P 1 1.00
     Exponent=  2.8231700000D+00 Coefficients=  1.0000000000D+00
 P 1 1.00
     Exponent=  1.3686210000D+00 Coefficients=  1.0000000000D+00
 P 1 1.00
     Exponent=  6.4443100000D-01 Coefficients=  1.0000000000D+00
 P 1 1.00
     Exponent=  2.4834600000D-01 Coefficients=  1.0000000000D+00
 P 1 1.00
     Exponent=  9.7175000000D-02 Coefficients=  1.0000000000D+00
 P 1 1.00
     Exponent=  3.6565000000D-02 Coefficients=  1.0000000000D+00
 P 1 1.00
     Exponent=  6.0568000000D+00 Coefficients=  1.0000000000D+00
 P 1 1.00
     Exponent=  1.3911000000D+00 Coefficients=  1.0000000000D+00
 P 1 1.00
     Exponent=  1.3760000000D-02 Coefficients=  1.0000000000D+00
 D 1 1.00
     Exponent=  1.0190400000D+02 Coefficients=  1.0000000000D+00
 D 1 1.00
     Exponent=  3.0033700000D+01 Coefficients=  1.0000000000D+00
 D 1 1.00
     Exponent=  1.0923800000D+01 Coefficients=  1.0000000000D+00
 D 1 1.00
     Exponent=  4.3974000000D+00 Coefficients=  1.0000000000D+00
 D 1 1.00
     Exponent=  1.8159500000D+00 Coefficients=  1.0000000000D+00
 D 1 1.00
     Exponent=  7.2573100000D-01 Coefficients=  1.0000000000D+00
 D 1 1.00
     Exponent=  2.6996100000D-01 Coefficients=  1.0000000000D+00
 D 1 1.00
     Exponent=  8.7760000000D-02 Coefficients=  1.0000000000D+00
 D 1 1.00
     Exponent=  3.9511000000D+00 Coefficients=  1.0000000000D+00
 D 1 1.00
     Exponent=  1.8488000000D+00 Coefficients=  1.0000000000D+00
 D 1 1.00
     Exponent=  2.8530000000D-02 Coefficients=  1.0000000000D+00
 F 1 1.00
     Exponent=  5.1541000000D+00 Coefficients=  1.0000000000D+00
 F 1 1.00
     Exponent=  1.9044000000D+00 Coefficients=  1.0000000000D+00
 F 1 1.00
     Exponent=  6.4380000000D-01 Coefficients=  1.0000000000D+00
 F 1 1.00
     Exponent=  2.1764000000D-01 Coefficients=  1.0000000000D+00
 G 1 1.00
     Exponent=  4.7163000000D+00 Coefficients=  1.0000000000D+00
 G 1 1.00
     Exponent=  1.7022000000D+00 Coefficients=  1.0000000000D+00
 G 1 1.00
     Exponent=  6.1436000000D-01 Coefficients=  1.0000000000D+00
 ****
 Centers:       2
 S 1 1.00
     Exponent=  3.3870000000D+01 Coefficients=  1.0000000000D+00
 S 1 1.00
     Exponent=  5.0950000000D+00 Coefficients=  1.0000000000D+00
 S 1 1.00
     Exponent=  1.1590000000D+00 Coefficients=  1.0000000000D+00
 S 1 1.00
     Exponent=  3.2580000000D-01 Coefficients=  1.0000000000D+00
 S 1 1.00
     Exponent=  1.0270000000D-01 Coefficients=  1.0000000000D+00
 S 1 1.00
     Exponent=  2.5260000000D-02 Coefficients=  1.0000000000D+00
 P 1 1.00
     Exponent=  1.4070000000D+00 Coefficients=  1.0000000000D+00
 P 1 1.00
     Exponent=  3.8800000000D-01 Coefficients=  1.0000000000D+00
 P 1 1.00
     Exponent=  1.0200000000D-01 Coefficients=  1.0000000000D+00
 D 1 1.00
     Exponent=  1.0570000000D+00 Coefficients=  1.0000000000D+00
 D 1 1.00
     Exponent=  2.4700000000D-01 Coefficients=  1.0000000000D+00
 ****
 ======================================================================================================
                                       Pseudopotential Parameters
 ======================================================================================================
  Center     Atomic      Valence      Angular      Power
  Number     Number     Electrons     Momentum     of R      Exponent        Coefficient   SO-Coeffient
 ======================================================================================================
    1         25           15
                                      F and up 
                                                     1       18.4343224       15.00000000    0.00000000
                                                     2       12.7417521    31301.56494509    0.00000000
                                                     2       11.6741091    -4576.35463180    0.00000000
                                                     2       12.9037616    **************    0.00000000
                                                     2        4.9717187       -4.09339906    0.00000000
                                                     3        8.7926482      276.51483655    0.00000000
                                      S - F
                                                     2       13.5618787     2771.78238977    0.00000000
                                                     2        9.4481253    12553.69429672    0.00000000
                                                     2       10.7650385     1886.79316638    0.00000000
                                                     2       11.6534559    -9260.55332402    0.00000000
                                                     2        8.4807300    -8943.95003535    0.00000000
                                                     2        6.9670703     1041.73211249    0.00000000
                                      P - F
                                                     2       12.7134292    **************    0.00000000
                                                     2       18.0317451    **************    0.00000000
                                                     2       16.6827906    **************    0.00000000
                                                     2       13.1886712    16025.79106608    0.00000000
                                                     2       18.4286113    **************    0.00000000
                                                     2       12.9092897    14270.47832347    0.00000000
                                      D - F
                                                     2        8.1338423     -382.83904013    0.00000000
                                                     2       14.2869922     5676.99013005    0.00000000
                                                     2       11.1440663    35338.03440844    0.00000000
                                                     2       11.3767498    **************    0.00000000
                                                     2       18.2581823     3550.66026420    0.00000000
                                                     2       17.7314631    -5317.47975296    0.00000000
    2          1            1
                                      P and up 
                                                     2       21.7769666      -10.85192405    0.00000000
                                                     1       21.2435951        1.00000000    0.00000000
                                                     3       21.2435951       21.24359508    0.00000000
                                      S - P
                                                     2        1.0000000        0.00000000    0.00000000
 ======================================================================================================
 Ernie: Thresh=  0.10000D-02 Tol=  0.10000D-05 Strict=F.
 There are   120 symmetry adapted cartesian basis functions of A1  symmetry.
 There are    26 symmetry adapted cartesian basis functions of A2  symmetry.
 There are    56 symmetry adapted cartesian basis functions of B1  symmetry.
 There are    56 symmetry adapted cartesian basis functions of B2  symmetry.
 There are    94 symmetry adapted basis functions of A1  symmetry.
 There are    23 symmetry adapted basis functions of A2  symmetry.
 There are    49 symmetry adapted basis functions of B1  symmetry.
 There are    49 symmetry adapted basis functions of B2  symmetry.
   215 basis functions,   258 primitive gaussians,   258 cartesian basis functions
    11 alpha electrons        5 beta electrons
       nuclear repulsion energy         3.9688290819 Hartrees.
 IExCor=    0 DFT=F Ex=HF Corr=None ExCW=0 ScaHFX=  1.000000
 ScaDFX=  1.000000  1.000000  1.000000  1.000000 ScalE2=  1.000000  1.000000
 IRadAn=      5 IRanWt=     -1 IRanGd=            0 ICorTp=0 IEmpDi=  4
 NAtoms=    2 NActive=    2 NUniq=    2 SFac= 1.00D+00 NAtFMM=   60 NAOKFM=F Big=F
 Integral buffers will be    131072 words long.
 Raffenetti 2 integral format.
 Two-electron integral symmetry is turned on.
 Leave Link  301 at Mon Feb 26 18:27:31 2018, MaxMem=  8589934592 cpu:               4.1 elap:               0.3
 (Enter /home1/apps/gaussian/16rA.03/g16/l302.exe)
 NPDir=0 NMtPBC=     1 NCelOv=     1 NCel=       1 NClECP=     1 NCelD=      1
         NCelK=      1 NCelE2=     1 NClLst=     1 CellRange=     0.0.
 One-electron integrals computed using PRISM.
 One-electron integral symmetry used in STVInt
   4 Symmetry operations used in ECPInt.
 ECPInt:  NShTT=    2556 NPrTT=    2556 LenC2=    2518 LenP2D=    2517.
 LDataN:  DoStor=T MaxTD1= 8 Len=  415
 NBasis=   215 RedAO= T EigKep=  1.45D-06  NBF=    94    23    49    49
 NBsUse=   212 1.00D-06 EigRej=  1.76D-07 NBFU=    93    23    48    48
 Leave Link  302 at Mon Feb 26 18:27:33 2018, MaxMem=  8589934592 cpu:              16.4 elap:               1.1
 (Enter /home1/apps/gaussian/16rA.03/g16/l303.exe)
 DipDrv:  MaxL=1.
 Leave Link  303 at Mon Feb 26 18:27:33 2018, MaxMem=  8589934592 cpu:               1.0 elap:               0.1
 (Enter /home1/apps/gaussian/16rA.03/g16/l401.exe)
 Initial guess from the checkpoint file:  "MnH.chk"
 B after Tr=     0.000000    0.000000    0.000000
         Rot=    1.000000    0.000000    0.000000    0.000000 Ang=   0.00 deg.
 Guess basis will be translated and rotated to current coordinates.
 JPrj=2 DoOrth=T DoCkMO=T.
 Initial guess orbital symmetries:
       Occupied  (SG) (PI) (PI) (SG) (SG) (DLTA) (DLTA) (SG) (PI)
                 (PI) (SG)
       Virtual   (PI) (PI) (SG) (SG) (PI) (PI) (DLTA) (DLTA) (SG)
                 (PI) (PI) (SG) (SG) (SG) (PI) (PI) (SG) (DLTA)
                 (DLTA) (PI) (PI) (PI) (PI) (SG) (SG) (SG) (SG)
                 (DLTA) (DLTA) (PHI) (PHI) (PI) (PI) (PI) (PI)
                 (SG) (SG) (DLTA) (DLTA) (PI) (PI) (SG) (DLTA)
                 (DLTA) (PI) (PI) (SG) (PI) (PI) (SG) (SG) (PHI)
                 (PHI) (DLTA) (DLTA) (PI) (PI) (SG) (PI) (PI) (SG)
                 (?A) (?A) (PHI) (PHI) (SG) (DLTA) (DLTA) (PI)
                 (PI) (DLTA) (DLTA) (SG) (PI) (PI) (SG) (DLTA)
                 (DLTA) (PI) (PI) (PI) (PI) (SG) (SG) (SG) (PHI)
                 (PHI) (DLTA) (DLTA) (PI) (PI) (SG) (DLTA) (DLTA)
                 (PI) (PI) (PI) (PI) (SG) (SG) (?A) (?A) (PHI)
                 (PHI) (DLTA) (DLTA) (PI) (PI) (SG) (SG) (SG) (DLTA)
                 (DLTA) (PI) (PI) (SG) (PI) (PI) (PHI) (PHI) (DLTA)
                 (DLTA) (PI) (PI) (SG) (SG) (?A) (?A) (PHI) (PHI)
                 (DLTA) (DLTA) (PI) (PI) (SG) (SG) (DLTA) (DLTA)
                 (PI) (PI) (SG) (PI) (PI) (SG) (SG) (DLTA) (DLTA)
                 (PI) (PI) (SG) (PI) (PI) (SG) (SG) (SG) (PI) (PI)
                 (SG) (DLTA) (DLTA) (PI) (PI) (SG) (SG) (PI) (PI)
                 (SG) (SG) (DLTA) (DLTA) (PI) (PI) (SG) (PI) (PI)
                 (SG) (SG) (PI) (PI) (SG) (SG) (PI) (PI) (SG) (SG)
                 (PI) (PI) (SG) (SG) (PI) (PI) (SG) (SG) (SG) (PI)
                 (PI) (SG) (SG) (SG) (SG) (SG)
 The electronic state of the initial guess is 7-SG.
 Leave Link  401 at Mon Feb 26 18:27:34 2018, MaxMem=  8589934592 cpu:               5.0 elap:               0.4
 (Enter /home1/apps/gaussian/16rA.03/g16/l502.exe)
 Keep R1 and R2 ints in memory in symmetry-blocked form, NReq=338797193.
 FoFCou: FMM=F IPFlag=           8 FMFlag=           0 FMFlg1=           0
         NFxFlg=           0 DoJE=F BraDBF=F KetDBF=F FulRan=T
         wScrn=  0.000000 ICntrl=       600 IOpCl=  0 I1Cent=           0 NGrid=           0
         NMat0=    1 NMatS0=  23220 NMatT0=    0 NMatD0=    1 NMtDS0=    0 NMtDT0=    0
 Petite list used in FoFCou.
 Restricted open shell SCF:
 Using DIIS extrapolation, IDIIS=  1040.
 NGot=  8589934592 LenX=  8451450423 LenY=  8451383418
 Requested convergence on RMS density matrix=1.00D-08 within 300 cycles.
 Requested convergence on MAX density matrix=1.00D-06.
 Requested convergence on             energy=1.00D-06.
 No special actions if energy rises.

 Cycle   1  Pass 1  IDiag  1:
 E= -103.681701119627    
 DIIS: error= 2.19D-01 at cycle   1 NSaved=   1.
 NSaved= 1 IEnMin= 1 EnMin= -103.681701119627     IErMin= 1 ErrMin= 2.19D-01
 ErrMax= 2.19D-01  0.00D+00 EMaxC= 1.00D-01 BMatC= 9.96D+00 BMatP= 9.96D+00
 IDIUse=3 WtCom= 0.00D+00 WtEn= 1.00D+00
 Coeff-Com:  0.100D+01
 Coeff-En:   0.100D+01
 Coeff:      0.100D+01
 Gap=     0.064 Goal=   None    Shift=    0.000
 GapD=    0.064 DampG=0.500 DampE=0.125 DampFc=0.1250 IDamp=-1.
 Damping current iteration by 1.25D-01
 RMSDP=2.14D-02 MaxDP=1.54D+00              OVMax= 4.90D-02

 Cycle   2  Pass 1  IDiag  1:
 E= -103.728501121408     Delta-E=       -0.046800001780 Rises=F Damp=T
 DIIS: error= 1.90D-01 at cycle   2 NSaved=   2.
 NSaved= 2 IEnMin= 2 EnMin= -103.728501121408     IErMin= 2 ErrMin= 1.90D-01
 ErrMax= 1.90D-01  0.00D+00 EMaxC= 1.00D-01 BMatC= 7.52D+00 BMatP= 9.96D+00
 IDIUse=3 WtCom= 0.00D+00 WtEn= 1.00D+00
 Coeff-Com: -0.647D+01 0.747D+01
 Coeff-En:   0.000D+00 0.100D+01
 Coeff:      0.000D+00 0.100D+01
 Gap=     0.080 Goal=   None    Shift=    0.000
 RMSDP=1.87D-02 MaxDP=1.34D+00 DE=-4.68D-02 OVMax= 8.19D-02

 Cycle   3  Pass 1  IDiag  1:
 E= -104.058526163927     Delta-E=       -0.330025042520 Rises=F Damp=F
 DIIS: error= 2.02D-02 at cycle   3 NSaved=   3.
 NSaved= 3 IEnMin= 3 EnMin= -104.058526163927     IErMin= 3 ErrMin= 2.02D-02
 ErrMax= 2.02D-02  0.00D+00 EMaxC= 1.00D-01 BMatC= 2.06D-02 BMatP= 7.52D+00
 IDIUse=3 WtCom= 7.98D-01 WtEn= 2.02D-01
 Coeff-Com: -0.139D+00 0.132D+00 0.101D+01
 Coeff-En:   0.000D+00 0.000D+00 0.100D+01
 Coeff:     -0.111D+00 0.105D+00 0.101D+01
 Gap=     0.091 Goal=   None    Shift=    0.000
 RMSDP=1.01D-03 MaxDP=4.25D-02 DE=-3.30D-01 OVMax= 1.78D-01

 Cycle   4  Pass 1  IDiag  1:
 E= -104.048889583113     Delta-E=        0.009636580815 Rises=F Damp=F
 DIIS: error= 1.29D-02 at cycle   4 NSaved=   4.
 NSaved= 4 IEnMin= 3 EnMin= -104.058526163927     IErMin= 4 ErrMin= 1.29D-02
 ErrMax= 1.29D-02  0.00D+00 EMaxC= 1.00D-01 BMatC= 1.09D-02 BMatP= 2.06D-02
 IDIUse=3 WtCom= 8.71D-01 WtEn= 1.29D-01
 Coeff-Com:  0.186D+00-0.229D+00 0.480D+00 0.563D+00
 Coeff-En:   0.000D+00 0.000D+00 0.588D+00 0.412D+00
 Coeff:      0.162D+00-0.200D+00 0.494D+00 0.544D+00
 Gap=     0.088 Goal=   None    Shift=    0.000
 RMSDP=1.18D-03 MaxDP=6.09D-02 DE= 9.64D-03 OVMax= 2.16D-01

 Cycle   5  Pass 1  IDiag  1:
 E= -104.055308372566     Delta-E=       -0.006418789453 Rises=F Damp=F
 DIIS: error= 1.12D-02 at cycle   5 NSaved=   5.
 NSaved= 5 IEnMin= 3 EnMin= -104.058526163927     IErMin= 5 ErrMin= 1.12D-02
 ErrMax= 1.12D-02  0.00D+00 EMaxC= 1.00D-01 BMatC= 6.99D-03 BMatP= 1.09D-02
 IDIUse=3 WtCom= 8.88D-01 WtEn= 1.12D-01
 Coeff-Com:  0.105D+00-0.126D+00 0.161D+00 0.422D+00 0.437D+00
 Coeff-En:   0.000D+00 0.000D+00 0.000D+00 0.461D+00 0.539D+00
 Coeff:      0.933D-01-0.112D+00 0.143D+00 0.426D+00 0.449D+00
 Gap=     0.093 Goal=   None    Shift=    0.000
 RMSDP=9.49D-04 MaxDP=5.61D-02 DE=-6.42D-03 OVMax= 1.22D-01

 Cycle   6  Pass 1  IDiag  1:
 E= -104.066120498062     Delta-E=       -0.010812125496 Rises=F Damp=F
 DIIS: error= 3.60D-03 at cycle   6 NSaved=   6.
 NSaved= 6 IEnMin= 6 EnMin= -104.066120498062     IErMin= 6 ErrMin= 3.60D-03
 ErrMax= 3.60D-03  0.00D+00 EMaxC= 1.00D-01 BMatC= 1.04D-03 BMatP= 6.99D-03
 IDIUse=3 WtCom= 9.64D-01 WtEn= 3.60D-02
 Rare condition: small coef for last iteration:  0.000D+00
 Coeff-Com:  0.145D-01-0.190D-01 0.885D-01 0.243D+00 0.302D+00 0.371D+00
 Coeff-En:   0.000D+00 0.000D+00 0.000D+00 0.237D+00 0.231D+00 0.532D+00
 Coeff:      0.145D-01-0.190D-01 0.885D-01 0.243D+00 0.302D+00 0.371D+00
 Gap=     0.091 Goal=   None    Shift=    0.000
 RMSDP=4.34D-04 MaxDP=2.14D-02 DE=-1.08D-02 OVMax= 3.68D-02

 Cycle   7  Pass 1  IDiag  1:
 E= -104.067608733393     Delta-E=       -0.001488235331 Rises=F Damp=F
 DIIS: error= 9.41D-04 at cycle   7 NSaved=   7.
 NSaved= 7 IEnMin= 7 EnMin= -104.067608733393     IErMin= 7 ErrMin= 9.41D-04
 ErrMax= 9.41D-04  0.00D+00 EMaxC= 1.00D-01 BMatC= 8.97D-05 BMatP= 1.04D-03
 IDIUse=3 WtCom= 9.91D-01 WtEn= 9.41D-03
 EnCoef did   100 forward-backward iterations
 Rare condition: small coef for last iteration:  0.000D+00
 Coeff-Com: -0.440D-01 0.497D-01 0.382D-01 0.440D-01 0.675D-01 0.182D+00
 Coeff-Com:  0.663D+00
 Coeff-En:   0.000D+00 0.000D+00 0.000D+00 0.205D+00 0.148D+00 0.168D+00
 Coeff-En:   0.479D+00
 Coeff:     -0.440D-01 0.497D-01 0.382D-01 0.440D-01 0.675D-01 0.182D+00
 Coeff:      0.663D+00
 Gap=     0.086 Goal=   None    Shift=    0.000
 RMSDP=3.05D-04 MaxDP=2.25D-02 DE=-1.49D-03 OVMax= 1.30D-02

 Cycle   8  Pass 1  IDiag  1:
 E= -104.067666056645     Delta-E=       -0.000057323252 Rises=F Damp=F
 DIIS: error= 7.59D-04 at cycle   8 NSaved=   8.
 NSaved= 8 IEnMin= 8 EnMin= -104.067666056645     IErMin= 8 ErrMin= 7.59D-04
 ErrMax= 7.59D-04  0.00D+00 EMaxC= 1.00D-01 BMatC= 3.13D-05 BMatP= 8.97D-05
 IDIUse=3 WtCom= 9.92D-01 WtEn= 7.59D-03
 EnCoef did   100 forward-backward iterations
 Rare condition: small coef for last iteration:  0.000D+00
 Coeff-Com: -0.394D-01 0.449D-01 0.964D-02 0.263D-02 0.104D-01 0.541D-01
 Coeff-Com:  0.381D+00 0.537D+00
 Coeff-En:   0.000D+00 0.000D+00 0.000D+00 0.209D+00 0.141D+00 0.114D+00
 Coeff-En:   0.210D+00 0.326D+00
 Coeff:     -0.394D-01 0.449D-01 0.964D-02 0.263D-02 0.104D-01 0.541D-01
 Coeff:      0.381D+00 0.537D+00
 Gap=     0.085 Goal=   None    Shift=    0.000
 RMSDP=2.83D-04 MaxDP=2.58D-02 DE=-5.73D-05 OVMax= 1.64D-02

 Cycle   9  Pass 1  IDiag  1:
 E= -104.067646373183     Delta-E=        0.000019683462 Rises=F Damp=F
 DIIS: error= 8.38D-04 at cycle   9 NSaved=   9.
 NSaved= 9 IEnMin= 8 EnMin= -104.067666056645     IErMin= 8 ErrMin= 7.59D-04
 ErrMax= 8.38D-04  0.00D+00 EMaxC= 1.00D-01 BMatC= 4.27D-05 BMatP= 3.13D-05
 IDIUse=3 WtCom= 9.92D-01 WtEn= 7.59D-03
 EnCoef did   100 forward-backward iterations
 Rare condition: small coef for last iteration:  0.000D+00
 Coeff-Com: -0.220D-01 0.252D-01-0.114D-01-0.515D-02-0.603D-02-0.323D-01
 Coeff-Com:  0.252D-02 0.586D+00 0.463D+00
 Coeff-En:   0.000D+00 0.000D+00 0.000D+00 0.211D+00 0.137D+00 0.778D-01
 Coeff-En:   0.000D+00 0.304D+00 0.270D+00
 Coeff:     -0.220D-01 0.252D-01-0.114D-01-0.515D-02-0.603D-02-0.323D-01
 Coeff:      0.252D-02 0.586D+00 0.463D+00
 Gap=     0.085 Goal=   None    Shift=    0.000
 RMSDP=1.49D-04 MaxDP=1.18D-02 DE= 1.97D-05 OVMax= 9.86D-03

 Cycle  10  Pass 1  IDiag  1:
 E= -104.067716062470     Delta-E=       -0.000069689287 Rises=F Damp=F
 DIIS: error= 1.65D-04 at cycle  10 NSaved=  10.
 NSaved=10 IEnMin=10 EnMin= -104.067716062470     IErMin=10 ErrMin= 1.65D-04
 ErrMax= 1.65D-04  0.00D+00 EMaxC= 1.00D-01 BMatC= 2.77D-06 BMatP= 3.13D-05
 IDIUse=3 WtCom= 9.98D-01 WtEn= 1.65D-03
 EnCoef did   100 forward-backward iterations
 Rare condition: small coef for last iteration:  0.000D+00
 Coeff-Com: -0.167D-01 0.191D-01-0.859D-02-0.146D-02-0.220D-02-0.186D-01
 Coeff-Com: -0.228D-01 0.269D+00 0.254D+00 0.529D+00
 Coeff-En:   0.000D+00 0.000D+00 0.000D+00 0.211D+00 0.137D+00 0.868D-01
 Coeff-En:   0.000D+00 0.121D+00 0.101D+00 0.344D+00
 Coeff:     -0.167D-01 0.191D-01-0.859D-02-0.146D-02-0.220D-02-0.186D-01
 Coeff:     -0.228D-01 0.269D+00 0.254D+00 0.529D+00
 Gap=     0.085 Goal=   None    Shift=    0.000
 RMSDP=6.98D-05 MaxDP=6.50D-03 DE=-6.97D-05 OVMax= 1.97D-03

 Cycle  11  Pass 1  IDiag  1:
 E= -104.067718106214     Delta-E=       -0.000002043745 Rises=F Damp=F
 DIIS: error= 1.52D-04 at cycle  11 NSaved=  11.
 NSaved=11 IEnMin=11 EnMin= -104.067718106214     IErMin=11 ErrMin= 1.52D-04
 ErrMax= 1.52D-04  0.00D+00 EMaxC= 1.00D-01 BMatC= 1.45D-06 BMatP= 2.77D-06
 IDIUse=3 WtCom= 9.98D-01 WtEn= 1.52D-03
 EnCoef did   100 forward-backward iterations
 Rare condition: small coef for last iteration:  0.000D+00
 Coeff-Com: -0.141D-01 0.161D-01-0.446D-02-0.998D-03-0.639D-03-0.378D-02
 Coeff-Com: -0.538D-02 0.399D-01 0.568D-01 0.381D+00 0.536D+00
 Coeff-En:   0.000D+00 0.000D+00 0.000D+00 0.210D+00 0.138D+00 0.870D-01
 Coeff-En:   0.000D+00 0.109D+00 0.795D-01 0.142D+00 0.234D+00
 Coeff:     -0.141D-01 0.161D-01-0.446D-02-0.998D-03-0.639D-03-0.378D-02
 Coeff:     -0.538D-02 0.399D-01 0.568D-01 0.381D+00 0.536D+00
 Gap=     0.085 Goal=   None    Shift=    0.000
 RMSDP=3.66D-05 MaxDP=3.57D-03 DE=-2.04D-06 OVMax= 1.36D-03

 Cycle  12  Pass 1  IDiag  1:
 E= -104.067719027821     Delta-E=       -0.000000921607 Rises=F Damp=F
 DIIS: error= 8.22D-05 at cycle  12 NSaved=  12.
 NSaved=12 IEnMin=12 EnMin= -104.067719027821     IErMin=12 ErrMin= 8.22D-05
 ErrMax= 8.22D-05  0.00D+00 EMaxC= 1.00D-01 BMatC= 7.17D-07 BMatP= 1.45D-06
 IDIUse=1 WtCom= 1.00D+00 WtEn= 0.00D+00
 Coeff-Com: -0.122D-01 0.140D-01-0.267D-02-0.816D-03-0.159D-04 0.149D-02
 Coeff-Com:  0.568D-02-0.124D-01-0.186D-03 0.179D+00 0.395D+00 0.434D+00
 Coeff:     -0.122D-01 0.140D-01-0.267D-02-0.816D-03-0.159D-04 0.149D-02
 Coeff:      0.568D-02-0.124D-01-0.186D-03 0.179D+00 0.395D+00 0.434D+00
 Gap=     0.085 Goal=   None    Shift=    0.000
 RMSDP=1.76D-05 MaxDP=1.49D-03 DE=-9.22D-07 OVMax= 9.42D-04

 Cycle  13  Pass 1  IDiag  1:
 E= -104.067719445294     Delta-E=       -0.000000417473 Rises=F Damp=F
 DIIS: error= 8.11D-05 at cycle  13 NSaved=  13.
 NSaved=13 IEnMin=13 EnMin= -104.067719445294     IErMin=13 ErrMin= 8.11D-05
 ErrMax= 8.11D-05  0.00D+00 EMaxC= 1.00D-01 BMatC= 4.81D-07 BMatP= 7.17D-07
 IDIUse=1 WtCom= 1.00D+00 WtEn= 0.00D+00
 Coeff-Com: -0.972D-02 0.111D-01-0.129D-02-0.515D-03 0.457D-03 0.458D-02
 Coeff-Com:  0.131D-01-0.297D-01-0.276D-01-0.214D-01 0.120D+00 0.421D+00
 Coeff-Com:  0.520D+00
 Coeff:     -0.972D-02 0.111D-01-0.129D-02-0.515D-03 0.457D-03 0.458D-02
 Coeff:      0.131D-01-0.297D-01-0.276D-01-0.214D-01 0.120D+00 0.421D+00
 Coeff:      0.520D+00
 Gap=     0.085 Goal=   None    Shift=    0.000
 RMSDP=7.88D-06 MaxDP=6.75D-04 DE=-4.17D-07 OVMax= 4.44D-04

 Cycle  14  Pass 1  IDiag  1:
 E= -104.067719845588     Delta-E=       -0.000000400294 Rises=F Damp=F
 DIIS: error= 6.11D-05 at cycle  14 NSaved=  14.
 NSaved=14 IEnMin=14 EnMin= -104.067719845588     IErMin=14 ErrMin= 6.11D-05
 ErrMax= 6.11D-05  0.00D+00 EMaxC= 1.00D-01 BMatC= 2.59D-07 BMatP= 4.81D-07
 IDIUse=1 WtCom= 1.00D+00 WtEn= 0.00D+00
 Coeff-Com: -0.761D-02 0.870D-02-0.100D-02-0.315D-03 0.524D-03 0.402D-02
 Coeff-Com:  0.112D-01-0.212D-01-0.223D-01-0.564D-01 0.191D-02 0.176D+00
 Coeff-Com:  0.307D+00 0.600D+00
 Coeff:     -0.761D-02 0.870D-02-0.100D-02-0.315D-03 0.524D-03 0.402D-02
 Coeff:      0.112D-01-0.212D-01-0.223D-01-0.564D-01 0.191D-02 0.176D+00
 Coeff:      0.307D+00 0.600D+00
 Gap=     0.085 Goal=   None    Shift=    0.000
 RMSDP=3.28D-06 MaxDP=2.49D-04 DE=-4.00D-07 OVMax= 1.28D-04

 Cycle  15  Pass 1  IDiag  1:
 E= -104.067719988307     Delta-E=       -0.000000142719 Rises=F Damp=F
 DIIS: error= 4.49D-05 at cycle  15 NSaved=  15.
 NSaved=15 IEnMin=15 EnMin= -104.067719988307     IErMin=15 ErrMin= 4.49D-05
 ErrMax= 4.49D-05  0.00D+00 EMaxC= 1.00D-01 BMatC= 1.61D-07 BMatP= 2.59D-07
 IDIUse=1 WtCom= 1.00D+00 WtEn= 0.00D+00
 Coeff-Com: -0.484D-02 0.553D-02-0.733D-03-0.835D-04 0.429D-03 0.230D-02
 Coeff-Com:  0.576D-02-0.864D-02-0.104D-01-0.429D-01-0.513D-01-0.505D-01
 Coeff-Com:  0.447D-02 0.223D+00 0.928D+00
 Coeff:     -0.484D-02 0.553D-02-0.733D-03-0.835D-04 0.429D-03 0.230D-02
 Coeff:      0.576D-02-0.864D-02-0.104D-01-0.429D-01-0.513D-01-0.505D-01
 Coeff:      0.447D-02 0.223D+00 0.928D+00
 Gap=     0.085 Goal=   None    Shift=    0.000
 RMSDP=2.02D-06 MaxDP=1.11D-04 DE=-1.43D-07 OVMax= 1.08D-04

 Cycle  16  Pass 1  IDiag  1:
 E= -104.067720115391     Delta-E=       -0.000000127084 Rises=F Damp=F
 DIIS: error= 3.16D-05 at cycle  16 NSaved=  16.
 NSaved=16 IEnMin=16 EnMin= -104.067720115391     IErMin=16 ErrMin= 3.16D-05
 ErrMax= 3.16D-05  0.00D+00 EMaxC= 1.00D-01 BMatC= 6.71D-08 BMatP= 1.61D-07
 IDIUse=1 WtCom= 1.00D+00 WtEn= 0.00D+00
 Coeff-Com: -0.302D-02 0.345D-02-0.504D-03 0.350D-04 0.321D-03 0.108D-02
 Coeff-Com:  0.198D-02-0.265D-02-0.319D-02-0.151D-01-0.304D-01-0.775D-01
 Coeff-Com: -0.790D-01-0.137D+00 0.656D+00 0.686D+00
 Coeff:     -0.302D-02 0.345D-02-0.504D-03 0.350D-04 0.321D-03 0.108D-02
 Coeff:      0.198D-02-0.265D-02-0.319D-02-0.151D-01-0.304D-01-0.775D-01
 Coeff:     -0.790D-01-0.137D+00 0.656D+00 0.686D+00
 Gap=     0.085 Goal=   None    Shift=    0.000
 RMSDP=1.24D-06 MaxDP=7.84D-05 DE=-1.27D-07 OVMax= 5.99D-05

 Cycle  17  Pass 1  IDiag  1:
 E= -104.067720173617     Delta-E=       -0.000000058226 Rises=F Damp=F
 DIIS: error= 1.81D-05 at cycle  17 NSaved=  17.
 NSaved=17 IEnMin=17 EnMin= -104.067720173617     IErMin=17 ErrMin= 1.81D-05
 ErrMax= 1.81D-05  0.00D+00 EMaxC= 1.00D-01 BMatC= 2.65D-08 BMatP= 6.71D-08
 IDIUse=1 WtCom= 1.00D+00 WtEn= 0.00D+00
 Coeff-Com: -0.158D-02 0.180D-02-0.261D-03 0.773D-04 0.223D-03 0.354D-03
 Coeff-Com: -0.133D-04-0.832D-03-0.182D-03 0.599D-02 0.742D-02-0.137D-01
 Coeff-Com: -0.339D-01-0.231D+00 0.147D-01 0.415D+00 0.836D+00
 Coeff:     -0.158D-02 0.180D-02-0.261D-03 0.773D-04 0.223D-03 0.354D-03
 Coeff:     -0.133D-04-0.832D-03-0.182D-03 0.599D-02 0.742D-02-0.137D-01
 Coeff:     -0.339D-01-0.231D+00 0.147D-01 0.415D+00 0.836D+00
 Gap=     0.085 Goal=   None    Shift=    0.000
 RMSDP=1.27D-06 MaxDP=8.11D-05 DE=-5.82D-08 OVMax= 4.41D-05

 Cycle  18  Pass 1  IDiag  1:
 E= -104.067720201415     Delta-E=       -0.000000027798 Rises=F Damp=F
 DIIS: error= 1.03D-05 at cycle  18 NSaved=  18.
 NSaved=18 IEnMin=18 EnMin= -104.067720201415     IErMin=18 ErrMin= 1.03D-05
 ErrMax= 1.03D-05  0.00D+00 EMaxC= 1.00D-01 BMatC= 7.48D-09 BMatP= 2.65D-08
 IDIUse=1 WtCom= 1.00D+00 WtEn= 0.00D+00
 Coeff-Com: -0.456D-03 0.521D-03-0.648D-04 0.363D-04 0.754D-04-0.714D-05
 Coeff-Com: -0.518D-03-0.420D-03 0.294D-03 0.941D-02 0.182D-01 0.240D-01
 Coeff-Com:  0.125D-01-0.107D+00-0.253D+00-0.497D-01 0.424D+00 0.922D+00
 Coeff:     -0.456D-03 0.521D-03-0.648D-04 0.363D-04 0.754D-04-0.714D-05
 Coeff:     -0.518D-03-0.420D-03 0.294D-03 0.941D-02 0.182D-01 0.240D-01
 Coeff:      0.125D-01-0.107D+00-0.253D+00-0.497D-01 0.424D+00 0.922D+00
 Gap=     0.085 Goal=   None    Shift=    0.000
 RMSDP=7.31D-07 MaxDP=4.72D-05 DE=-2.78D-08 OVMax= 3.17D-05

 Cycle  19  Pass 1  IDiag  1:
 E= -104.067720210939     Delta-E=       -0.000000009524 Rises=F Damp=F
 DIIS: error= 2.72D-06 at cycle  19 NSaved=  19.
 NSaved=19 IEnMin=19 EnMin= -104.067720210939     IErMin=19 ErrMin= 2.72D-06
 ErrMax= 2.72D-06  0.00D+00 EMaxC= 1.00D-01 BMatC= 6.40D-10 BMatP= 7.48D-09
 IDIUse=1 WtCom= 1.00D+00 WtEn= 0.00D+00
 Coeff-Com: -0.164D-03 0.187D-03-0.195D-04 0.236D-05 0.152D-04-0.139D-04
 Coeff-Com: -0.189D-03-0.328D-03-0.317D-04 0.382D-02 0.884D-02 0.156D-01
 Coeff-Com:  0.131D-01-0.237D-01-0.137D+00-0.976D-01 0.742D-01 0.507D+00
 Coeff-Com:  0.636D+00
 Coeff:     -0.164D-03 0.187D-03-0.195D-04 0.236D-05 0.152D-04-0.139D-04
 Coeff:     -0.189D-03-0.328D-03-0.317D-04 0.382D-02 0.884D-02 0.156D-01
 Coeff:      0.131D-01-0.237D-01-0.137D+00-0.976D-01 0.742D-01 0.507D+00
 Coeff:      0.636D+00
 Gap=     0.085 Goal=   None    Shift=    0.000
 RMSDP=2.19D-07 MaxDP=1.15D-05 DE=-9.52D-09 OVMax= 8.07D-06

 Cycle  20  Pass 1  IDiag  1:
 E= -104.067720211697     Delta-E=       -0.000000000758 Rises=F Damp=F
 DIIS: error= 1.04D-06 at cycle  20 NSaved=  20.
 NSaved=20 IEnMin=20 EnMin= -104.067720211697     IErMin=20 ErrMin= 1.04D-06
 ErrMax= 1.04D-06  0.00D+00 EMaxC= 1.00D-01 BMatC= 7.86D-11 BMatP= 6.40D-10
 IDIUse=1 WtCom= 1.00D+00 WtEn= 0.00D+00
 Coeff-Com: -0.468D-04 0.535D-04-0.475D-05-0.817D-06 0.346D-05 0.171D-05
 Coeff-Com: -0.270D-04-0.142D-03-0.855D-04 0.757D-03 0.243D-02 0.562D-02
 Coeff-Com:  0.602D-02 0.224D-02-0.446D-01-0.553D-01-0.291D-01 0.159D+00
 Coeff-Com:  0.382D+00 0.571D+00
 Coeff:     -0.468D-04 0.535D-04-0.475D-05-0.817D-06 0.346D-05 0.171D-05
 Coeff:     -0.270D-04-0.142D-03-0.855D-04 0.757D-03 0.243D-02 0.562D-02
 Coeff:      0.602D-02 0.224D-02-0.446D-01-0.553D-01-0.291D-01 0.159D+00
 Coeff:      0.382D+00 0.571D+00
 Gap=     0.085 Goal=   None    Shift=    0.000
 RMSDP=6.29D-08 MaxDP=4.07D-06 DE=-7.58D-10 OVMax= 3.84D-06

 Cycle  21  Pass 1  IDiag  1:
 E= -104.067720211799     Delta-E=       -0.000000000102 Rises=F Damp=F
 DIIS: error= 2.64D-07 at cycle  21 NSaved=  20.
 NSaved=20 IEnMin=20 EnMin= -104.067720211799     IErMin=20 ErrMin= 2.64D-07
 ErrMax= 2.64D-07  0.00D+00 EMaxC= 1.00D-01 BMatC= 6.78D-12 BMatP= 7.86D-11
 IDIUse=1 WtCom= 1.00D+00 WtEn= 0.00D+00
 Coeff-Com: -0.827D-09 0.450D-06-0.168D-06 0.290D-06 0.233D-05 0.104D-04
 Coeff-Com: -0.182D-04-0.376D-04-0.159D-03 0.756D-04 0.111D-02 0.183D-02
 Coeff-Com:  0.627D-02-0.767D-02-0.241D-01-0.360D-01 0.221D-01 0.151D+00
 Coeff-Com:  0.366D+00 0.519D+00
 Coeff:     -0.827D-09 0.450D-06-0.168D-06 0.290D-06 0.233D-05 0.104D-04
 Coeff:     -0.182D-04-0.376D-04-0.159D-03 0.756D-04 0.111D-02 0.183D-02
 Coeff:      0.627D-02-0.767D-02-0.241D-01-0.360D-01 0.221D-01 0.151D+00
 Coeff:      0.366D+00 0.519D+00
 Gap=     0.085 Goal=   None    Shift=    0.000
 RMSDP=4.10D-08 MaxDP=2.18D-06 DE=-1.02D-10 OVMax= 1.68D-06

 Cycle  22  Pass 1  IDiag  1:
 E= -104.067720211809     Delta-E=       -0.000000000010 Rises=F Damp=F
 DIIS: error= 1.99D-08 at cycle  22 NSaved=  20.
 NSaved=20 IEnMin=20 EnMin= -104.067720211809     IErMin=20 ErrMin= 1.99D-08
 ErrMax= 1.99D-08  0.00D+00 EMaxC= 1.00D-01 BMatC= 4.99D-14 BMatP= 6.78D-12
 IDIUse=1 WtCom= 1.00D+00 WtEn= 0.00D+00
 Coeff-Com: -0.120D-06-0.804D-07-0.115D-06 0.117D-05 0.790D-05 0.792D-05
 Coeff-Com: -0.585D-05-0.167D-03-0.241D-03-0.102D-03 0.180D-03 0.253D-02
 Coeff-Com:  0.141D-02-0.508D-02-0.109D-01-0.372D-02 0.229D-01 0.860D-01
 Coeff-Com:  0.230D+00 0.677D+00
 Coeff:     -0.120D-06-0.804D-07-0.115D-06 0.117D-05 0.790D-05 0.792D-05
 Coeff:     -0.585D-05-0.167D-03-0.241D-03-0.102D-03 0.180D-03 0.253D-02
 Coeff:      0.141D-02-0.508D-02-0.109D-01-0.372D-02 0.229D-01 0.860D-01
 Coeff:      0.230D+00 0.677D+00
 Gap=     0.085 Goal=   None    Shift=    0.000
 RMSDP=9.09D-09 MaxDP=6.91D-07 DE=-1.00D-11 OVMax= 5.34D-07

 SCF Done:  E(ROHF) =  -104.067720212     A.U. after   22 cycles
            NFock= 22  Conv=0.91D-08     -V/T= 2.8327
 <Sx>= 0.0000 <Sy>= 0.0000 <Sz>= 3.0000 <S**2>=12.0000 S= 3.0000
 <L.S>=  0.00000000000    
 KE= 5.678364876508D+01 PE=-2.452413735765D+02 EE= 8.042117551774D+01
 Annihilation of the first spin contaminant:
 S**2 before annihilation    12.0000,   after    12.0000
 Leave Link  502 at Mon Feb 26 18:27:51 2018, MaxMem=  8589934592 cpu:             238.6 elap:              16.9
 (Enter /home1/apps/gaussian/16rA.03/g16/l801.exe)
 Windowed orbitals will be sorted by symmetry type.
 GenMOA:  NOpAll=  4 NOp2=4 NOpUse=  4 JSym2X=1
 FoFJK:  IHMeth= 1 ICntrl=       0 DoSepK=F KAlg= 0 I1Cent=           0 FoldK=F
 IRaf=         0 NMat=       1 IRICut=       1 DoRegI=T DoRafI=F ISym2E= 1 IDoP0=0 IntGTp=1.
 FoFCou: FMM=F IPFlag=           8 FMFlag=      100000 FMFlg1=           0
         NFxFlg=           0 DoJE=F BraDBF=F KetDBF=F FulRan=T
         wScrn=  0.000000 ICntrl=         0 IOpCl=  1 I1Cent=           0 NGrid=           0
         NMat0=    1 NMatS0=      1 NMatT0=    0 NMatD0=    1 NMtDS0=    0 NMtDT0=    0
 Petite list used in FoFCou.
 <Sx>= 0.0000 <Sy>= 0.0000 <Sz>= 3.0000 <S**2>=12.0000 S= 3.0000
 Range of M.O.s used for correlation:     1   212
 NBasis=   215 NAE=    11 NBE=     5 NFC=     0 NFV=     0
 NROrb=    212 NOA=    11 NOB=     5 NVA=   201 NVB=   207

 **** Warning!!: The largest alpha MO coefficient is  0.32938419D+03


 **** Warning!!: The largest beta MO coefficient is  0.32872880D+03

 Singles contribution to E2=   -0.1768295539D-02
 Leave Link  801 at Mon Feb 26 18:27:56 2018, MaxMem=  8589934592 cpu:              64.5 elap:               4.1
 (Enter /home1/apps/gaussian/16rA.03/g16/l804.exe)
 Open-shell transformation, MDV=  8589934592 ITran=4 ISComp=2.
 Unit  1 TFree=       1395089 TCopy=       1089083.
 Semi-Direct transformation.
 ModeAB=           2 MOrb=            11 LenV=    8588448913
 LASXX=     13028729 LTotXX=    13028729 LenRXX=    13028729
 LTotAB=    13295547 MaxLAS=    77914452 LenRXY=    77914452
 NonZer=    79315984 LenScr=   119728128 LnRSAI=           0
 LnScr1=           0 LExtra=     4806011 Total=    215477320
 MaxDsk= 67108864000 SrtSym=           F ITran=            4
 DoSDTr:  NPSUse= 16
 JobTyp=1 Pass  1:  I=   1 to  11.
 (rs|ai) integrals will be sorted in core.
 Complete sort for first half transformation.
 First half transformation complete.
 Begin second half transformation for I=  10.
 Begin second half transformation for I=  10.
 Complete sort for second half transformation.
 Second half transformation complete.
 ModeAB=           2 MOrb=             5 LenV=    8588448913
 LASXX=      6078645 LTotXX=     6078645 LenRXX=    35415660
 LTotAB=     5560512 MaxLAS=    35415660 LenRXY=     5560512
 NonZer=    36052720 LenScr=    54835200 LnRSAI=           0
 LnScr1=           0 LExtra=    95749192 Total=    191560564
 MaxDsk= 67108864000 SrtSym=           F ITran=            4
 DoSDTr:  NPSUse= 16
 JobTyp=2 Pass  1:  I=   1 to   5.
 (rs|ai) integrals will be sorted in core.
 Complete sort for first half transformation.
 First half transformation complete.
 Complete sort for second half transformation.
 Second half transformation complete.
 Spin components of T(2) and E(2):
     alpha-alpha T2 =       0.2420617726D-01 E2=     -0.1502822760D+00
     alpha-beta  T2 =       0.5349768239D-01 E2=     -0.3708073940D+00
     beta-beta   T2 =       0.6102032348D-02 E2=     -0.4018206727D-01
 ANorm=    0.1041515335D+01
 E2 =    -0.5630400329D+00 EUMP2 =    -0.10463076024469D+03
 (S**2,0)=  0.12000D+02           (S**2,1)=  0.12000D+02
 E(PUHF)=      -0.10406772021D+03        E(PMP2)=      -0.10463076024D+03
 Leave Link  804 at Mon Feb 26 18:29:29 2018, MaxMem=  8589934592 cpu:            1485.1 elap:              92.9
 (Enter /home1/apps/gaussian/16rA.03/g16/l913.exe)
 CIDS:  MDV=  8589934592.
 IFCWin=0 IBDFC=1 NFBD=     0     0 NFCmp=     0     0 NFFFC=     0     0
 Using original routines for 1st iteration.
 Using DD4UQ or CC4UQ for 2nd and later iterations.
 Keep R2 and R3 ints in memory in symmetry-blocked form, NReq=338807815.
 FoFCou: FMM=F IPFlag=           8 FMFlag=           0 FMFlg1=           0
         NFxFlg=           0 DoJE=F BraDBF=F KetDBF=F FulRan=T
         wScrn=  0.000000 ICntrl=       600 IOpCl=  0 I1Cent=           0 NGrid=           0
         NMat0=    1 NMatS0=  23220 NMatT0=    0 NMatD0=    1 NMtDS0=    0 NMtDT0=    0
 Petite list used in FoFCou.
 CIDS: In Core Option IDoMem=           1.
 CCSD(T)
 =======
 Iterations= 150 Convergence= 0.100D-06
 Produce multiple copies of IABC intergrals
 Iteration Nr.   1
 **********************
 DD1Dir will call FoFMem   1 times, MxPair=       176
 NAB=    55 NAA=    55 NBB=    10.
 DD1Dir will call FoFMem   1 times, MxPair=       176
 NAB=    55 NAA=    55 NBB=    10.
 MP4(R+Q)=  0.10294036D-01
 Maximum subspace dimension=  5
 A-vector RMS=  8.8958306D-05 Max=  9.1955467D-04 conv= 1.00D-05.
 RLE energy=       -0.5561101269
 E3=       -0.33108169D-02        EROMP3=      -0.10463407106D+03
 E4(SDQ)=  -0.42882036D-02        ROMP4(SDQ)=  -0.10463835927D+03
 VARIATIONAL ENERGIES WITH THE FIRST-ORDER WAVEFUNCTION:
 DE(Corr)= -0.55602314     E(Corr)=     -104.62374335    
 NORM(A)=   0.10397624D+01
 Iteration Nr.   2
 **********************
 DD1Dir will call FoFMem   1 times, MxPair=       176
 NAB=    55 NAA=    55 NBB=    10.
 A-vector RMS=  2.1513528D-03 Max=  1.4779072D-02 conv= 1.00D-05.
 RLE energy=       -0.5566641313
 DE(Corr)= -0.55915024     E(CORR)=     -104.62687045     Delta=-3.13D-03
 NORM(A)=   0.10404370D+01
 Iteration Nr.   3
 **********************
 DD1Dir will call FoFMem   1 times, MxPair=       176
 NAB=    55 NAA=    55 NBB=    10.
 A-vector RMS=  1.8683830D-03 Max=  1.3588658D-02 conv= 1.00D-05.
 RLE energy=       -0.5631601714
 DE(Corr)= -0.56092525     E(CORR)=     -104.62864546     Delta=-1.78D-03
 NORM(A)=   0.10445863D+01
 Iteration Nr.   4
 **********************
 DD1Dir will call FoFMem   1 times, MxPair=       176
 NAB=    55 NAA=    55 NBB=    10.
 A-vector RMS=  1.3601205D-03 Max=  1.0693594D-02 conv= 1.00D-05.
 RLE energy=       -0.5819091456
 DE(Corr)= -0.56478044     E(CORR)=     -104.63250065     Delta=-3.86D-03
 NORM(A)=   0.10751914D+01
 Iteration Nr.   5
 **********************
 DD1Dir will call FoFMem   1 times, MxPair=       176
 NAB=    55 NAA=    55 NBB=    10.
 A-vector RMS=  1.2608705D-03 Max=  1.0287153D-02 conv= 1.00D-05.
 RLE energy=       -0.5722884010
 DE(Corr)= -0.57967436     E(CORR)=     -104.64739457     Delta=-1.49D-02
 NORM(A)=   0.10584989D+01
 Iteration Nr.   6
 **********************
 DD1Dir will call FoFMem   1 times, MxPair=       176
 NAB=    55 NAA=    55 NBB=    10.
 A-vector RMS=  1.4812685D-04 Max=  1.6036902D-03 conv= 1.00D-05.
 RLE energy=       -0.5719528136
 DE(Corr)= -0.57220242     E(CORR)=     -104.63992263     Delta= 7.47D-03
 NORM(A)=   0.10588165D+01
 Iteration Nr.   7
 **********************
 DD1Dir will call FoFMem   1 times, MxPair=       176
 NAB=    55 NAA=    55 NBB=    10.
 A-vector RMS=  4.5786861D-05 Max=  4.2175349D-04 conv= 1.00D-05.
 RLE energy=       -0.5719667197
 DE(Corr)= -0.57194620     E(CORR)=     -104.63966641     Delta= 2.56D-04
 NORM(A)=   0.10590700D+01
 Iteration Nr.   8
 **********************
 DD1Dir will call FoFMem   1 times, MxPair=       176
 NAB=    55 NAA=    55 NBB=    10.
 A-vector RMS=  2.5080879D-05 Max=  2.6833864D-04 conv= 1.00D-05.
 RLE energy=       -0.5719607654
 DE(Corr)= -0.57197990     E(CORR)=     -104.63970011     Delta=-3.37D-05
 NORM(A)=   0.10590502D+01
 Iteration Nr.   9
 **********************
 DD1Dir will call FoFMem   1 times, MxPair=       176
 NAB=    55 NAA=    55 NBB=    10.
 A-vector RMS=  7.7440723D-06 Max=  6.8138728D-05 conv= 1.00D-05.
 RLE energy=       -0.5719675077
 DE(Corr)= -0.57195945     E(CORR)=     -104.63967966     Delta= 2.05D-05
 NORM(A)=   0.10590636D+01
 Iteration Nr.  10
 **********************
 DD1Dir will call FoFMem   1 times, MxPair=       176
 NAB=    55 NAA=    55 NBB=    10.
 A-vector RMS=  4.6460505D-06 Max=  5.3422437D-05 conv= 1.00D-05.
 RLE energy=       -0.5719669445
 DE(Corr)= -0.57196705     E(CORR)=     -104.63968726     Delta=-7.60D-06
 NORM(A)=   0.10590495D+01
 Iteration Nr.  11
 **********************
 DD1Dir will call FoFMem   1 times, MxPair=       176
 NAB=    55 NAA=    55 NBB=    10.
 A-vector RMS=  2.9977882D-06 Max=  2.9454215D-05 conv= 1.00D-05.
 RLE energy=       -0.5719651050
 DE(Corr)= -0.57196465     E(CORR)=     -104.63968486     Delta= 2.40D-06
 NORM(A)=   0.10590446D+01
 Iteration Nr.  12
 **********************
 DD1Dir will call FoFMem   1 times, MxPair=       176
 NAB=    55 NAA=    55 NBB=    10.
 A-vector RMS=  1.3973111D-06 Max=  1.6422675D-05 conv= 1.00D-05.
 RLE energy=       -0.5719657695
 DE(Corr)= -0.57196557     E(CORR)=     -104.63968578     Delta=-9.19D-07
 NORM(A)=   0.10590411D+01
 Iteration Nr.  13
 **********************
 DD1Dir will call FoFMem   1 times, MxPair=       176
 NAB=    55 NAA=    55 NBB=    10.
 A-vector RMS=  1.2072969D-06 Max=  1.3440596D-05 conv= 1.00D-05.
 RLE energy=       -0.5719654968
 DE(Corr)= -0.57196515     E(CORR)=     -104.63968536     Delta= 4.24D-07
 NORM(A)=   0.10590416D+01
 Iteration Nr.  14
 **********************
 DD1Dir will call FoFMem   1 times, MxPair=       176
 NAB=    55 NAA=    55 NBB=    10.
 A-vector RMS=  3.8728430D-07 Max=  3.6091268D-06 conv= 1.00D-05.
 RLE energy=       -0.5719657375
 DE(Corr)= -0.57196565     E(CORR)=     -104.63968586     Delta=-4.99D-07
 NORM(A)=   0.10590426D+01
 Iteration Nr.  15
 **********************
 DD1Dir will call FoFMem   1 times, MxPair=       176
 NAB=    55 NAA=    55 NBB=    10.
 A-vector RMS=  3.6184458D-07 Max=  4.7305441D-06 conv= 1.00D-05.
 RLE energy=       -0.5719660410
 DE(Corr)= -0.57196584     E(CORR)=     -104.63968605     Delta=-1.92D-07
 NORM(A)=   0.10590437D+01
 Iteration Nr.  16
 **********************
 DD1Dir will call FoFMem   1 times, MxPair=       176
 NAB=    55 NAA=    55 NBB=    10.
 A-vector RMS=  1.8125336D-07 Max=  2.0721890D-06 conv= 1.00D-05.
 RLE energy=       -0.5719660331
 DE(Corr)= -0.57196597     E(CORR)=     -104.63968618     Delta=-1.33D-07
 NORM(A)=   0.10590445D+01
 Iteration Nr.  17
 **********************
 DD1Dir will call FoFMem   1 times, MxPair=       176
 NAB=    55 NAA=    55 NBB=    10.
 A-vector RMS=  9.5609780D-08 Max=  9.9211913D-07 conv= 1.00D-05.
 RLE energy=       -0.5719661824
 DE(Corr)= -0.57196613     E(CORR)=     -104.63968634     Delta=-1.56D-07
 NORM(A)=   0.10590449D+01
 Iteration Nr.  18
 **********************
 DD1Dir will call FoFMem   1 times, MxPair=       176
 NAB=    55 NAA=    55 NBB=    10.
 A-vector RMS=  5.9707958D-08 Max=  6.7229297D-07 conv= 1.00D-05.
 RLE energy=       -0.5719661678
 DE(Corr)= -0.57196615     E(CORR)=     -104.63968636     Delta=-1.92D-08
 NORM(A)=   0.10590451D+01
 CI/CC converged in   18 iterations to DelEn=-1.92D-08 Conv= 1.00D-07 ErrA1= 5.97D-08 Conv= 1.00D-05
 Wavefunction amplitudes converged. E(Corr)=     -104.63968636    
 Largest amplitude= 5.47D-02
 Time for triples=     5692.85 seconds.
 T4(CCSD)= -0.15986386D-01
 T5(CCSD)=  0.65811150D-03
 CCSD(T)= -0.10465501463D+03
 Discarding MO integrals.
 Leave Link  913 at Mon Feb 26 18:38:07 2018, MaxMem=  8589934592 cpu:            8259.3 elap:             517.1
 (Enter /home1/apps/gaussian/16rA.03/g16/l601.exe)
 Copying SCF densities to generalized density rwf, IOpCl= 0 IROHF=1.

 **********************************************************************

            Population analysis using the SCF density.

 **********************************************************************

 Orbital symmetries:
       Occupied  (SG) (PI) (PI) (SG) (SG) (DLTA) (DLTA) (PI) (PI)
                 (SG) (SG)
       Virtual   (PI) (PI) (SG) (SG) (PI) (PI) (SG) (DLTA) (DLTA)
                 (PI) (PI) (SG) (SG) (SG) (PI) (PI) (SG) (PI) (PI)
                 (DLTA) (DLTA) (PI) (PI) (SG) (SG) (SG) (SG) (DLTA)
                 (DLTA) (PHI) (PHI) (PI) (PI) (SG) (PI) (PI) (PI)
                 (PI) (DLTA) (DLTA) (SG) (SG) (DLTA) (DLTA) (PI)
                 (PI) (SG) (PI) (PI) (SG) (SG) (PHI) (PHI) (SG)
                 (DLTA) (DLTA) (PI) (PI) (SG) (PI) (PI) (?A) (?A)
                 (PHI) (PHI) (SG) (DLTA) (DLTA) (PI) (PI) (SG)
                 (DLTA) (DLTA) (PI) (PI) (SG) (DLTA) (DLTA) (PI)
                 (PI) (PI) (PI) (SG) (SG) (SG) (PHI) (PHI) (DLTA)
                 (DLTA) (PI) (PI) (SG) (DLTA) (DLTA) (PI) (PI)
                 (SG) (PI) (PI) (SG) (?A) (?A) (PHI) (PHI) (DLTA)
                 (DLTA) (PI) (PI) (SG) (SG) (SG) (DLTA) (DLTA)
                 (PI) (PI) (SG) (PI) (PI) (SG) (PHI) (PHI) (DLTA)
                 (DLTA) (PI) (PI) (SG) (?A) (?A) (PHI) (PHI) (DLTA)
                 (DLTA) (PI) (PI) (SG) (SG) (DLTA) (DLTA) (PI)
                 (PI) (SG) (PI) (PI) (SG) (SG) (DLTA) (DLTA) (PI)
                 (PI) (SG) (PI) (PI) (SG) (SG) (SG) (PI) (PI) (SG)
                 (DLTA) (DLTA) (PI) (PI) (SG) (SG) (PI) (PI) (SG)
                 (SG) (DLTA) (DLTA) (PI) (PI) (SG) (PI) (PI) (SG)
                 (SG) (PI) (PI) (SG) (SG) (PI) (PI) (SG) (SG) (PI)
                 (PI) (SG) (SG) (PI) (PI) (SG) (SG) (SG) (PI) (PI)
                 (SG) (SG) (SG) (SG) (SG)
 The electronic state is 7-SG.
 Alpha  occ. eigenvalues --   -4.25695  -2.81167  -2.81167  -2.80873  -0.65842
 Alpha  occ. eigenvalues --   -0.65842  -0.65159  -0.65159  -0.65116  -0.38709
 Alpha  occ. eigenvalues --   -0.27009
 Alpha virt. eigenvalues --    0.00999   0.00999   0.02298   0.03137   0.05497
 Alpha virt. eigenvalues --    0.05497   0.07958   0.08376   0.08376   0.08874
 Alpha virt. eigenvalues --    0.08874   0.10346   0.13337   0.18147   0.22344
 Alpha virt. eigenvalues --    0.22344   0.23732   0.29014   0.29014   0.29300
 Alpha virt. eigenvalues --    0.29300   0.35099   0.35099   0.35809   0.42456
 Alpha virt. eigenvalues --    0.47080   0.68537   0.73812   0.73812   0.75642
 Alpha virt. eigenvalues --    0.75642   0.78285   0.78285   0.83509   0.85107
 Alpha virt. eigenvalues --    0.85107   0.95316   0.95316   0.96519   0.96766
 Alpha virt. eigenvalues --    0.96766   0.99741   1.00878   1.00878   1.12526
 Alpha virt. eigenvalues --    1.12526   1.26890   1.39534   1.39534   1.72436
 Alpha virt. eigenvalues --    1.85049   2.30324   2.30324   2.33673   2.33673
 Alpha virt. eigenvalues --    2.35059   2.37888   2.37888   2.58798   2.59861
 Alpha virt. eigenvalues --    2.59861   2.75356   2.75356   2.76749   2.76749
 Alpha virt. eigenvalues --    2.77193   2.81349   2.81349   2.85405   2.85405
 Alpha virt. eigenvalues --    2.86680   2.86680   2.86698   3.02784   3.02784
 Alpha virt. eigenvalues --    3.43214   3.99508   3.99508   4.12162   4.12162
 Alpha virt. eigenvalues --    4.33557   4.33557   4.44551   4.92887   5.24570
 Alpha virt. eigenvalues --    6.33176   6.33176   6.35094   6.35094   6.39272
 Alpha virt. eigenvalues --    6.39272   6.58624   6.76135   6.76135   6.81311
 Alpha virt. eigenvalues --    6.81311   6.90569   7.36422   7.36422   7.52722
 Alpha virt. eigenvalues --    8.13741   8.13741   8.14472   8.14472   8.16577
 Alpha virt. eigenvalues --    8.16577   8.26486   8.26486   8.52989  10.29313
 Alpha virt. eigenvalues --   12.21846  13.77710  13.77710  13.82348  13.82348
 Alpha virt. eigenvalues --   13.90700  17.22245  17.22245  17.34957  17.40260
 Alpha virt. eigenvalues --   17.40260  17.41412  17.41412  17.44081  17.44081
 Alpha virt. eigenvalues --   17.56109  21.92438  21.92438  21.92751  21.92751
 Alpha virt. eigenvalues --   21.93751  21.93751  21.98202  21.98202  22.09495
 Alpha virt. eigenvalues --   24.02271  26.25056  26.25056  26.29260  26.29260
 Alpha virt. eigenvalues --   26.37095  34.11235  34.11235  34.27455  42.36216
 Alpha virt. eigenvalues --   49.46395  49.46395  49.50005  49.50005  49.56814
 Alpha virt. eigenvalues --   63.24680  63.24680  63.42466  63.90319  75.53684
 Alpha virt. eigenvalues --  117.37490 117.37490 117.56040 119.99138 119.99138
 Alpha virt. eigenvalues --  120.01815 120.01815 120.07453 141.54198 223.78676
 Alpha virt. eigenvalues --  223.78676 223.97075 275.45430 411.27296 411.27296
 Alpha virt. eigenvalues --  411.28916 411.28916 411.32256 444.73447 444.73447
 Alpha virt. eigenvalues --  444.90499 561.01318 930.78438 930.78438 930.93805
 Alpha virt. eigenvalues -- 1192.320442080.259522080.259522080.395402638.57414
 Alpha virt. eigenvalues -- 5090.916085090.916085091.033026105.57762**********
 Alpha virt. eigenvalues -- **************************************************
 Alpha virt. eigenvalues -- **************************************************
 Alpha virt. eigenvalues -- **********
     Molecular Orbital Coefficients:
                           1         2         3         4         5
                           O         O         O         O         O
     Eigenvalues --    -4.25695  -2.81167  -2.81167  -2.80873  -0.65842
   1 1   Mn 1S         -0.00000   0.00000   0.00000   0.00000  -0.00000
   2        2S          0.00000   0.00000   0.00000  -0.00000   0.00000
   3        3S         -0.00000   0.00000   0.00000   0.00000  -0.00000
   4        4S          0.00000   0.00000   0.00000  -0.00000   0.00000
   5        5S         -0.00002   0.00000   0.00000   0.00000  -0.00000
   6        6S          0.00006   0.00000   0.00000  -0.00000   0.00001
   7        7S         -0.00021   0.00000   0.00000   0.00000  -0.00002
   8        8S          0.00069   0.00000   0.00000  -0.00000   0.00006
   9        9S         -0.00211   0.00000   0.00000   0.00000  -0.00019
  10       10S          0.00618   0.00000   0.00000  -0.00001   0.00057
  11       11S         -0.01848   0.00000   0.00000   0.00004  -0.00177
  12       12S          0.07436   0.00000   0.00000  -0.00020   0.00773
  13       13S         -0.32320   0.00000   0.00000   0.00094  -0.03706
  14       14S          0.89233   0.00000   0.00000  -0.00226   0.11288
  15       15S         -0.04748   0.00000   0.00000   0.00402   0.00600
  16       16S         -0.72264   0.00000   0.00000  -0.00655  -0.12188
  17       17S         -0.35814   0.00000   0.00000  -0.00389  -0.12284
  18       18S         -0.01652   0.00000   0.00000   0.00086   0.19314
  19       19S          0.00910   0.00000   0.00000  -0.00658   0.14721
  20       20S         -0.00513   0.00000   0.00000   0.00381   0.02620
  21       21S         -0.32533   0.00000   0.00000  -0.00189  -0.05190
  22       22S         -0.03961   0.00000   0.00000   0.01240  -0.00625
  23       23S          0.00075   0.00000   0.00000   0.00113  -0.01706
  24       24PX         0.00000   0.00000   0.00000   0.00000   0.00000
  25       24PY         0.00000   0.00000   0.00000   0.00000   0.00000
  26       24PZ         0.00000   0.00000   0.00000   0.00000  -0.00000
  27       25PX         0.00000  -0.00001   0.00000   0.00000   0.00000
  28       25PY         0.00000   0.00000  -0.00001   0.00000   0.00000
  29       25PZ        -0.00000   0.00000   0.00000  -0.00001   0.00000
  30       26PX         0.00000   0.00004   0.00000   0.00000   0.00000
  31       26PY         0.00000   0.00000   0.00004   0.00000   0.00000
  32       26PZ         0.00000   0.00000   0.00000   0.00004  -0.00000
  33       27PX         0.00000  -0.00017   0.00000   0.00000   0.00000
  34       27PY         0.00000   0.00000  -0.00017   0.00000   0.00000
  35       27PZ        -0.00000   0.00000   0.00000  -0.00017   0.00002
  36       28PX         0.00000   0.00064   0.00000   0.00000   0.00000
  37       28PY         0.00000   0.00000   0.00064   0.00000   0.00000
  38       28PZ         0.00000   0.00000   0.00000   0.00064  -0.00006
  39       29PX         0.00000  -0.00223   0.00000   0.00000   0.00000
  40       29PY         0.00000   0.00000  -0.00223   0.00000   0.00000
  41       29PZ        -0.00001   0.00000   0.00000  -0.00222   0.00022
  42       30PX         0.00000   0.00743   0.00000   0.00000   0.00000
  43       30PY         0.00000   0.00000   0.00743   0.00000   0.00000
  44       30PZ         0.00002   0.00000   0.00000   0.00739  -0.00075
  45       31PX         0.00000  -0.02370   0.00000   0.00000   0.00000
  46       31PY         0.00000   0.00000  -0.02370   0.00000   0.00000
  47       31PZ        -0.00007   0.00000   0.00000  -0.02360   0.00246
  48       32PX         0.00000   0.03719   0.00000   0.00000   0.00000
  49       32PY         0.00000   0.00000   0.03719   0.00000   0.00000
  50       32PZ         0.00010   0.00000   0.00000   0.03671  -0.00497
  51       33PX         0.00000  -0.64334   0.00000   0.00000   0.00000
  52       33PY         0.00000   0.00000  -0.64334   0.00000   0.00000
  53       33PZ        -0.00174   0.00000   0.00000  -0.65517   0.04223
  54       34PX         0.00000  -0.29952   0.00000   0.00000   0.00000
  55       34PY         0.00000   0.00000  -0.29952   0.00000   0.00000
  56       34PZ        -0.00091   0.00000   0.00000  -0.29879   0.03320
  57       35PX         0.00000  -0.43147   0.00000   0.00000   0.00000
  58       35PY         0.00000   0.00000  -0.43147   0.00000   0.00000
  59       35PZ         0.00105   0.00000   0.00000  -0.42966   0.03693
  60       36PX         0.00000  -0.27422   0.00000   0.00000   0.00000
  61       36PY         0.00000   0.00000  -0.27422   0.00000   0.00000
  62       36PZ        -0.00098   0.00000   0.00000  -0.26929   0.04099
  63       37PX         0.00000  -0.04294   0.00000   0.00000   0.00000
  64       37PY         0.00000   0.00000  -0.04294   0.00000   0.00000
  65       37PZ        -0.00054   0.00000   0.00000  -0.04389  -0.05901
  66       38PX         0.00000   0.00544   0.00000   0.00000   0.00000
  67       38PY         0.00000   0.00000   0.00544   0.00000   0.00000
  68       38PZ        -0.00010   0.00000   0.00000   0.00742  -0.10878
  69       39PX         0.00000  -0.00250   0.00000   0.00000   0.00000
  70       39PY         0.00000   0.00000  -0.00250   0.00000   0.00000
  71       39PZ         0.00017   0.00000   0.00000  -0.00407  -0.03603
  72       40PX         0.00000   0.64875   0.00000   0.00000   0.00000
  73       40PY         0.00000   0.00000   0.64875   0.00000   0.00000
  74       40PZ         0.00180   0.00000   0.00000   0.66000  -0.04209
  75       41PX         0.00000  -0.04830   0.00000   0.00000   0.00000
  76       41PY         0.00000   0.00000  -0.04830   0.00000   0.00000
  77       41PZ        -0.00196   0.00000   0.00000  -0.05353   0.01092
  78       42PX         0.00000   0.00078   0.00000   0.00000   0.00000
  79       42PY         0.00000   0.00000   0.00078   0.00000   0.00000
  80       42PZ         0.00031   0.00000   0.00000  -0.00038   0.00806
  81       43D 0        0.00000   0.00000   0.00000  -0.00000   0.00002
  82       43D+1        0.00000  -0.00000   0.00000   0.00000   0.00000
  83       43D-1        0.00000   0.00000  -0.00000   0.00000   0.00000
  84       43D+2       -0.00000   0.00000   0.00000  -0.00000   0.00000
  85       43D-2        0.00000   0.00000   0.00000   0.00000   0.00000
  86       44D 0       -0.00001   0.00000   0.00000   0.00002  -0.00040
  87       44D+1        0.00000   0.00000   0.00000   0.00000   0.00000
  88       44D-1        0.00000   0.00000   0.00000   0.00000   0.00000
  89       44D+2        0.00000   0.00000   0.00000   0.00000  -0.00000
  90       44D-2        0.00000   0.00000   0.00000   0.00000   0.00000
  91       45D 0        0.00026   0.00000   0.00000  -0.00047   0.01008
  92       45D+1        0.00000  -0.00010   0.00000   0.00000   0.00000
  93       45D-1        0.00000   0.00000  -0.00010   0.00000   0.00000
  94       45D+2       -0.00000   0.00000   0.00000  -0.00000   0.00000
  95       45D-2        0.00000   0.00000   0.00000   0.00000   0.00000
  96       46D 0        0.00035   0.00000   0.00000  -0.00204   0.01458
  97       46D+1        0.00000  -0.00062   0.00000   0.00000   0.00000
  98       46D-1        0.00000   0.00000  -0.00062   0.00000   0.00000
  99       46D+2        0.00000   0.00000   0.00000   0.00000   0.00000
 100       46D-2        0.00000   0.00000   0.00000   0.00000   0.00000
 101       47D 0        0.00354   0.00000   0.00000   0.02217   0.05535
 102       47D+1        0.00000   0.00956   0.00000   0.00000   0.00000
 103       47D-1        0.00000   0.00000   0.00956   0.00000   0.00000
 104       47D+2       -0.00000   0.00000   0.00000  -0.00000   0.00000
 105       47D-2        0.00000   0.00000   0.00000   0.00000   0.00000
 106       48D 0        0.00201   0.00000   0.00000  -0.00300   0.03148
 107       48D+1        0.00000  -0.00069   0.00000   0.00000   0.00000
 108       48D-1        0.00000   0.00000  -0.00069   0.00000   0.00000
 109       48D+2        0.00000   0.00000   0.00000  -0.00000   0.00000
 110       48D-2        0.00000   0.00000   0.00000   0.00000   0.00000
 111       49D 0        0.00038   0.00000   0.00000  -0.00023   0.04402
 112       49D+1        0.00000  -0.00027   0.00000   0.00000   0.00000
 113       49D-1        0.00000   0.00000  -0.00027   0.00000   0.00000
 114       49D+2        0.00000   0.00000   0.00000   0.00000   0.00000
 115       49D-2        0.00000   0.00000   0.00000   0.00000   0.00000
 116       50D 0       -0.00011   0.00000   0.00000  -0.00171   0.02583
 117       50D+1        0.00000  -0.00008   0.00000   0.00000   0.00000
 118       50D-1        0.00000   0.00000  -0.00008   0.00000   0.00000
 119       50D+2        0.00000   0.00000   0.00000  -0.00000   0.00000
 120       50D-2        0.00000   0.00000   0.00000   0.00000   0.00000
 121       51D 0        0.00016   0.00000   0.00000   0.00141   0.00464
 122       51D+1        0.00000   0.00049   0.00000   0.00000   0.00000
 123       51D-1        0.00000   0.00000   0.00049   0.00000   0.00000
 124       51D+2       -0.00000   0.00000   0.00000  -0.00000   0.00000
 125       51D-2        0.00000   0.00000   0.00000   0.00000   0.00000
 126       52D 0       -0.00253   0.00000   0.00000  -0.02372  -0.02517
 127       52D+1        0.00000  -0.00990   0.00000   0.00000   0.00000
 128       52D-1        0.00000   0.00000  -0.00990   0.00000   0.00000
 129       52D+2        0.00000   0.00000   0.00000   0.00000  -0.00000
 130       52D-2        0.00000   0.00000   0.00000   0.00000   0.00000
 131       53D 0       -0.00016   0.00000   0.00000   0.00099   0.00121
 132       53D+1        0.00000  -0.00004   0.00000   0.00000   0.00000
 133       53D-1        0.00000   0.00000  -0.00004   0.00000   0.00000
 134       53D+2       -0.00000   0.00000   0.00000   0.00000   0.00000
 135       53D-2        0.00000   0.00000   0.00000   0.00000   0.00000
 136       54F 0        0.00001   0.00000   0.00000   0.00006  -0.00019
 137       54F+1        0.00000   0.00006   0.00000   0.00000   0.00000
 138       54F-1        0.00000   0.00000   0.00006   0.00000   0.00000
 139       54F+2       -0.00000   0.00000   0.00000   0.00000   0.00000
 140       54F-2        0.00000   0.00000   0.00000   0.00000   0.00000
 141       54F+3        0.00000   0.00000   0.00000   0.00000   0.00000
 142       54F-3        0.00000   0.00000   0.00000   0.00000   0.00000
 143       55F 0       -0.00007   0.00000   0.00000   0.00063  -0.00046
 144       55F+1        0.00000   0.00045   0.00000   0.00000   0.00000
 145       55F-1        0.00000   0.00000   0.00045   0.00000   0.00000
 146       55F+2       -0.00000   0.00000   0.00000  -0.00000   0.00000
 147       55F-2        0.00000   0.00000   0.00000   0.00000   0.00000
 148       55F+3        0.00000  -0.00000   0.00000   0.00000   0.00000
 149       55F-3        0.00000   0.00000  -0.00000   0.00000   0.00000
 150       56F 0       -0.00019   0.00000   0.00000   0.00126  -0.00351
 151       56F+1        0.00000   0.00120   0.00000   0.00000   0.00000
 152       56F-1        0.00000   0.00000   0.00120   0.00000   0.00000
 153       56F+2       -0.00000   0.00000   0.00000  -0.00000   0.00000
 154       56F-2        0.00000   0.00000   0.00000   0.00000   0.00000
 155       56F+3        0.00000  -0.00000   0.00000   0.00000   0.00000
 156       56F-3        0.00000   0.00000  -0.00000   0.00000   0.00000
 157       57F 0        0.00007   0.00000   0.00000  -0.00028  -0.00778
 158       57F+1        0.00000  -0.00015   0.00000   0.00000   0.00000
 159       57F-1        0.00000   0.00000  -0.00015   0.00000   0.00000
 160       57F+2        0.00000   0.00000   0.00000   0.00000  -0.00000
 161       57F-2        0.00000   0.00000   0.00000   0.00000   0.00000
 162       57F+3        0.00000   0.00000   0.00000   0.00000   0.00000
 163       57F-3        0.00000   0.00000   0.00000   0.00000   0.00000
 164       58G 0       -0.00000   0.00000   0.00000   0.00001   0.00003
 165       58G+1        0.00000   0.00000   0.00000   0.00000   0.00000
 166       58G-1        0.00000   0.00000   0.00000   0.00000   0.00000
 167       58G+2       -0.00000   0.00000   0.00000   0.00000   0.00000
 168       58G-2        0.00000   0.00000   0.00000   0.00000   0.00000
 169       58G+3        0.00000   0.00000   0.00000   0.00000   0.00000
 170       58G-3        0.00000   0.00000   0.00000   0.00000   0.00000
 171       58G+4        0.00000   0.00000   0.00000   0.00000   0.00000
 172       58G-4        0.00000   0.00000   0.00000   0.00000   0.00000
 173       59G 0        0.00002   0.00000   0.00000  -0.00012  -0.00007
 174       59G+1        0.00000  -0.00007   0.00000   0.00000   0.00000
 175       59G-1        0.00000   0.00000  -0.00007   0.00000   0.00000
 176       59G+2       -0.00000   0.00000   0.00000  -0.00000  -0.00000
 177       59G-2        0.00000   0.00000   0.00000   0.00000   0.00000
 178       59G+3        0.00000  -0.00000   0.00000   0.00000   0.00000
 179       59G-3        0.00000   0.00000  -0.00000   0.00000   0.00000
 180       59G+4       -0.00000   0.00000   0.00000  -0.00000  -0.00000
 181       59G-4        0.00000   0.00000   0.00000   0.00000   0.00000
 182       60G 0       -0.00002   0.00000   0.00000   0.00012   0.00095
 183       60G+1        0.00000  -0.00005   0.00000   0.00000   0.00000
 184       60G-1        0.00000   0.00000  -0.00005   0.00000   0.00000
 185       60G+2       -0.00000   0.00000   0.00000   0.00000  -0.00000
 186       60G-2        0.00000   0.00000   0.00000   0.00000   0.00000
 187       60G+3        0.00000  -0.00000   0.00000   0.00000   0.00000
 188       60G-3        0.00000   0.00000  -0.00000   0.00000   0.00000
 189       60G+4        0.00000   0.00000   0.00000   0.00000   0.00000
 190       60G-4        0.00000   0.00000   0.00000   0.00000   0.00000
 191 2   H  1S         -0.00000   0.00000   0.00000   0.00004   0.00309
 192        2S         -0.00003   0.00000   0.00000   0.00030   0.03373
 193        3S         -0.00009   0.00000   0.00000   0.00143   0.12881
 194        4S         -0.00024   0.00000   0.00000   0.00187   0.30431
 195        5S          0.00003   0.00000   0.00000   0.00494   0.32397
 196        6S          0.00118   0.00000   0.00000  -0.00419   0.05080
 197        7PX         0.00000  -0.00005   0.00000   0.00000   0.00000
 198        7PY         0.00000   0.00000  -0.00005   0.00000   0.00000
 199        7PZ        -0.00005   0.00000   0.00000   0.00035   0.00273
 200        8PX         0.00000  -0.00008   0.00000   0.00000   0.00000
 201        8PY         0.00000   0.00000  -0.00008   0.00000   0.00000
 202        8PZ        -0.00015   0.00000   0.00000  -0.00015   0.02033
 203        9PX         0.00000  -0.00011   0.00000   0.00000   0.00000
 204        9PY         0.00000   0.00000  -0.00011   0.00000   0.00000
 205        9PZ         0.00009   0.00000   0.00000   0.00154   0.02111
 206       10D 0       -0.00010   0.00000   0.00000   0.00020   0.00145
 207       10D+1        0.00000  -0.00005   0.00000   0.00000   0.00000
 208       10D-1        0.00000   0.00000  -0.00005   0.00000   0.00000
 209       10D+2        0.00000   0.00000   0.00000  -0.00000   0.00000
 210       10D-2        0.00000   0.00000   0.00000   0.00000   0.00000
 211       11D 0       -0.00011   0.00000   0.00000  -0.00028   0.00162
 212       11D+1        0.00000   0.00015   0.00000   0.00000   0.00000
 213       11D-1        0.00000   0.00000   0.00015   0.00000   0.00000
 214       11D+2        0.00000   0.00000   0.00000   0.00000   0.00000
 215       11D-2        0.00000   0.00000   0.00000   0.00000   0.00000
                           6         7         8         9        10
                           O         O         O         O         O
     Eigenvalues --    -0.65842  -0.65159  -0.65159  -0.65116  -0.38709
   1 1   Mn 1S          0.00000  -0.00000   0.00000   0.00000   0.00000
   2        2S          0.00000   0.00000   0.00000   0.00000  -0.00000
   3        3S          0.00000  -0.00000   0.00000   0.00000   0.00000
   4        4S          0.00000   0.00000   0.00000   0.00000  -0.00000
   5        5S          0.00000  -0.00000   0.00000   0.00000   0.00000
   6        6S          0.00000   0.00000   0.00000   0.00000  -0.00000
   7        7S          0.00000  -0.00000   0.00000   0.00000   0.00001
   8        8S          0.00000   0.00000   0.00000   0.00000  -0.00005
   9        9S          0.00000  -0.00000   0.00000   0.00000   0.00015
  10       10S          0.00000   0.00000   0.00000   0.00000  -0.00045
  11       11S          0.00000  -0.00000   0.00000   0.00000   0.00142
  12       12S          0.00000   0.00000   0.00000   0.00000  -0.00646
  13       13S          0.00000  -0.00000   0.00000   0.00000   0.03187
  14       14S          0.00000   0.00000   0.00000   0.00000  -0.09571
  15       15S          0.00000   0.00000   0.00000   0.00000   0.02468
  16       16S          0.00000  -0.00000   0.00000   0.00000   0.04597
  17       17S          0.00000  -0.00000   0.00000   0.00000   0.05628
  18       18S          0.00000   0.00000   0.00000   0.00000  -0.20600
  19       19S          0.00000  -0.00000   0.00000   0.00000  -0.17306
  20       20S          0.00000   0.00000   0.00000   0.00000  -0.06651
  21       21S          0.00000  -0.00000   0.00000   0.00000   0.02464
  22       22S          0.00000   0.00000   0.00000   0.00000   0.09832
  23       23S          0.00000  -0.00000   0.00000   0.00000   0.00358
  24       24PX         0.00000   0.00000   0.00000   0.00000   0.00000
  25       24PY         0.00000   0.00000   0.00000   0.00000   0.00000
  26       24PZ         0.00000   0.00000   0.00000   0.00000  -0.00000
  27       25PX         0.00000   0.00000  -0.00000   0.00000   0.00000
  28       25PY         0.00000   0.00000   0.00000  -0.00000   0.00000
  29       25PZ         0.00000  -0.00000   0.00000   0.00000   0.00000
  30       26PX         0.00000   0.00000   0.00000   0.00000   0.00000
  31       26PY         0.00000   0.00000   0.00000   0.00000   0.00000
  32       26PZ         0.00000   0.00000   0.00000   0.00000  -0.00000
  33       27PX         0.00000   0.00000  -0.00000   0.00000   0.00000
  34       27PY         0.00000   0.00000   0.00000  -0.00000   0.00000
  35       27PZ         0.00000  -0.00000   0.00000   0.00000   0.00000
  36       28PX         0.00000   0.00000   0.00001   0.00000   0.00000
  37       28PY         0.00000   0.00000   0.00000   0.00001   0.00000
  38       28PZ         0.00000   0.00000   0.00000   0.00000  -0.00002
  39       29PX         0.00000   0.00000  -0.00002   0.00000   0.00000
  40       29PY         0.00000   0.00000   0.00000  -0.00002   0.00000
  41       29PZ         0.00000  -0.00000   0.00000   0.00000   0.00005
  42       30PX         0.00000   0.00000   0.00006   0.00000   0.00000
  43       30PY         0.00000   0.00000   0.00000   0.00006   0.00000
  44       30PZ         0.00000   0.00000   0.00000   0.00000  -0.00018
  45       31PX         0.00000   0.00000  -0.00020   0.00000   0.00000
  46       31PY         0.00000   0.00000   0.00000  -0.00020   0.00000
  47       31PZ         0.00000  -0.00000   0.00000   0.00000   0.00058
  48       32PX         0.00000   0.00000   0.00037   0.00000   0.00000
  49       32PY         0.00000   0.00000   0.00000   0.00037   0.00000
  50       32PZ         0.00000   0.00000   0.00000   0.00000  -0.00148
  51       33PX         0.00000   0.00000  -0.00543   0.00000   0.00000
  52       33PY         0.00000   0.00000   0.00000  -0.00543   0.00000
  53       33PZ         0.00000   0.00000   0.00000   0.00000  -0.00197
  54       34PX         0.00000   0.00000  -0.00261   0.00000   0.00000
  55       34PY         0.00000   0.00000   0.00000  -0.00261   0.00000
  56       34PZ         0.00000  -0.00000   0.00000   0.00000   0.00796
  57       35PX         0.00000   0.00000  -0.00369   0.00000   0.00000
  58       35PY         0.00000   0.00000   0.00000  -0.00369   0.00000
  59       35PZ         0.00000   0.00000   0.00000   0.00000   0.00555
  60       36PX         0.00000   0.00000  -0.00375   0.00000   0.00000
  61       36PY         0.00000   0.00000   0.00000  -0.00375   0.00000
  62       36PZ         0.00000  -0.00000   0.00000   0.00000   0.01253
  63       37PX         0.00000   0.00000   0.01279   0.00000   0.00000
  64       37PY         0.00000   0.00000   0.00000   0.01279   0.00000
  65       37PZ         0.00000   0.00000   0.00000   0.00000  -0.00840
  66       38PX         0.00000   0.00000   0.01110   0.00000   0.00000
  67       38PY         0.00000   0.00000   0.00000   0.01110   0.00000
  68       38PZ         0.00000   0.00000   0.00000   0.00000  -0.08211
  69       39PX         0.00000   0.00000  -0.00007   0.00000   0.00000
  70       39PY         0.00000   0.00000   0.00000  -0.00007   0.00000
  71       39PZ         0.00000   0.00000   0.00000   0.00000  -0.04324
  72       40PX         0.00000   0.00000   0.00532   0.00000   0.00000
  73       40PY         0.00000   0.00000   0.00000   0.00532   0.00000
  74       40PZ         0.00000  -0.00000   0.00000   0.00000   0.00157
  75       41PX         0.00000   0.00000  -0.00147   0.00000   0.00000
  76       41PY         0.00000   0.00000   0.00000  -0.00147   0.00000
  77       41PZ         0.00000  -0.00000   0.00000   0.00000   0.00106
  78       42PX         0.00000   0.00000   0.00018   0.00000   0.00000
  79       42PY         0.00000   0.00000   0.00000   0.00018   0.00000
  80       42PZ         0.00000   0.00000   0.00000   0.00000   0.00227
  81       43D 0        0.00000  -0.00000   0.00000   0.00000   0.00025
  82       43D+1        0.00000   0.00000   0.00028   0.00000   0.00000
  83       43D-1        0.00000   0.00000   0.00000   0.00028   0.00000
  84       43D+2        0.00000   0.00027   0.00000   0.00000   0.00000
  85       43D-2        0.00027   0.00000   0.00000   0.00000   0.00000
  86       44D 0        0.00000   0.00000   0.00000   0.00000  -0.00445
  87       44D+1        0.00000   0.00000  -0.00485   0.00000   0.00000
  88       44D-1        0.00000   0.00000   0.00000  -0.00485   0.00000
  89       44D+2        0.00000  -0.00483   0.00000   0.00000  -0.00000
  90       44D-2       -0.00483   0.00000   0.00000   0.00000   0.00000
  91       45D 0        0.00000  -0.00000   0.00000   0.00000   0.11527
  92       45D+1        0.00000   0.00000   0.12548   0.00000   0.00000
  93       45D-1        0.00000   0.00000   0.00000   0.12548   0.00000
  94       45D+2        0.00000   0.12502   0.00000   0.00000   0.00000
  95       45D-2        0.12502   0.00000   0.00000   0.00000   0.00000
  96       46D 0        0.00000   0.00000   0.00000   0.00000   0.18364
  97       46D+1        0.00000   0.00000   0.20069   0.00000   0.00000
  98       46D-1        0.00000   0.00000   0.00000   0.20069   0.00000
  99       46D+2        0.00000   0.20357   0.00000   0.00000   0.00000
 100       46D-2        0.20357   0.00000   0.00000   0.00000   0.00000
 101       47D 0        0.00000  -0.00000   0.00000   0.00000   0.35062
 102       47D+1        0.00000   0.00000   0.36688   0.00000   0.00000
 103       47D-1        0.00000   0.00000   0.00000   0.36688   0.00000
 104       47D+2        0.00000   0.30291   0.00000   0.00000   0.00000
 105       47D-2        0.30291   0.00000   0.00000   0.00000   0.00000
 106       48D 0        0.00000  -0.00000   0.00000   0.00000   0.34069
 107       48D+1        0.00000   0.00000   0.37244   0.00000   0.00000
[...]
   1 1   Mn 1S          0.00000   0.00000   0.00000   0.00000
   2        2S         -0.00000  -0.00000  -0.00000  -0.00000
   3        3S          0.00000   0.00000   0.00000   0.00000
   4        4S         -0.00000  -0.00000  -0.00000  -0.00000
   5        5S          0.00000   0.00000   0.00000   0.00000
   6        6S         -0.00000  -0.00000  -0.00000  -0.00000
   7        7S          0.00000   0.00000   0.00000   0.00000
   8        8S         -0.00001  -0.00000  -0.00000  -0.00000
   9        9S          0.00004   0.00002   0.00002   0.00000
  10       10S         -0.00020  -0.00010  -0.00010  -0.00000
  11       11S          0.00119   0.00061   0.00059   0.00002
  12       12S         -0.01058  -0.00539  -0.00519  -0.00019
  13       13S          0.10571   0.05387   0.05183   0.00204
  14       14S         -0.65366  -0.33326  -0.32040  -0.01286
  15       15S          0.06383   0.03175   0.03209  -0.00034
  16       16S          1.36760   0.69108   0.67652   0.01455
  17       17S          0.65233   0.31695   0.33537  -0.01842
  18       18S          0.42962   0.33057   0.09905   0.23152
  19       19S          0.49665   0.41447   0.08218   0.33229
  20       20S          0.12157   0.10609   0.01548   0.09060
  21       21S          0.36994   0.18893   0.18101   0.00793
  22       22S          0.07898   0.04041   0.03858   0.00183
  23       23S         -0.01545  -0.00830  -0.00715  -0.00115
  24       24PX        -0.00000  -0.00000  -0.00000  -0.00000
  25       24PY        -0.00000  -0.00000  -0.00000  -0.00000
  26       24PZ        -0.00000  -0.00000  -0.00000  -0.00000
  27       25PX         0.00000   0.00000   0.00000   0.00000
  28       25PY         0.00000   0.00000   0.00000   0.00000
  29       25PZ         0.00000   0.00000   0.00000   0.00000
  30       26PX        -0.00000  -0.00000  -0.00000  -0.00000
  31       26PY        -0.00000  -0.00000  -0.00000  -0.00000
  32       26PZ        -0.00000  -0.00000  -0.00000  -0.00000
  33       27PX         0.00000   0.00000   0.00000   0.00000
  34       27PY         0.00000   0.00000   0.00000   0.00000
  35       27PZ         0.00000   0.00000   0.00000   0.00000
  36       28PX        -0.00001  -0.00001  -0.00001  -0.00000
  37       28PY        -0.00001  -0.00001  -0.00001  -0.00000
  38       28PZ        -0.00001  -0.00001  -0.00001  -0.00000
  39       29PX         0.00012   0.00006   0.00006   0.00000
  40       29PY         0.00012   0.00006   0.00006   0.00000
  41       29PZ         0.00012   0.00006   0.00006   0.00000
  42       30PX        -0.00097  -0.00049  -0.00049  -0.00000
  43       30PY        -0.00097  -0.00049  -0.00049  -0.00000
  44       30PZ        -0.00099  -0.00050  -0.00049  -0.00001
  45       31PX         0.00725   0.00363   0.00363   0.00000
  46       31PY         0.00725   0.00363   0.00363   0.00000
  47       31PZ         0.00739   0.00373   0.00365   0.00008
  48       32PX        -0.02406  -0.01203  -0.01203  -0.00000
  49       32PY        -0.02406  -0.01203  -0.01203  -0.00000
  50       32PZ        -0.02440  -0.01236  -0.01205  -0.00031
  51       33PX         0.75001   0.37501   0.37499   0.00002
  52       33PY         0.75001   0.37501   0.37499   0.00002
  53       33PZ         0.77498   0.39038   0.38460   0.00578
  54       34PX         0.51522   0.25762   0.25761   0.00001
  55       34PY         0.51522   0.25762   0.25761   0.00001
  56       34PZ         0.52286   0.26362   0.25924   0.00438
  57       35PX         0.85444   0.42723   0.42721   0.00001
  58       35PY         0.85444   0.42723   0.42721   0.00001
  59       35PZ         0.85580   0.42920   0.42660   0.00259
  60       36PX         0.47958   0.23978   0.23980  -0.00002
  61       36PY         0.47958   0.23978   0.23980  -0.00002
  62       36PZ         0.45886   0.22655   0.23232  -0.00577
  63       37PX         0.04558   0.02289   0.02269   0.00021
  64       37PY         0.04558   0.02289   0.02269   0.00021
  65       37PZ         0.12796   0.08553   0.04243   0.04310
  66       38PX        -0.00239  -0.00109  -0.00130   0.00021
  67       38PY        -0.00239  -0.00109  -0.00130   0.00021
  68       38PZ         0.31763   0.25998   0.05764   0.20234
  69       39PX         0.00043   0.00021   0.00021  -0.00000
  70       39PY         0.00043   0.00021   0.00021  -0.00000
  71       39PZ         0.12094   0.10334   0.01760   0.08574
  72       40PX        -0.72032  -0.36017  -0.36015  -0.00002
  73       40PY        -0.72032  -0.36017  -0.36015  -0.00002
  74       40PZ        -0.74352  -0.37450  -0.36902  -0.00548
  75       41PX         0.09562   0.04781   0.04781   0.00000
  76       41PY         0.09562   0.04781   0.04781   0.00000
  77       41PZ         0.10761   0.05424   0.05336   0.00088
  78       42PX        -0.00004  -0.00002  -0.00002   0.00000
  79       42PY        -0.00004  -0.00002  -0.00002   0.00000
  80       42PZ        -0.00557  -0.00353  -0.00204  -0.00148
  81       43D 0        0.00001   0.00001   0.00000   0.00001
  82       43D+1        0.00001   0.00001   0.00000   0.00001
  83       43D-1        0.00001   0.00001   0.00000   0.00001
  84       43D+2        0.00001   0.00001   0.00000   0.00001
  85       43D-2        0.00001   0.00001   0.00000   0.00001
  86       44D 0       -0.00080  -0.00080  -0.00001  -0.00079
  87       44D+1       -0.00080  -0.00080  -0.00000  -0.00080
  88       44D-1       -0.00080  -0.00080  -0.00000  -0.00080
  89       44D+2       -0.00080  -0.00080  -0.00000  -0.00080
  90       44D-2       -0.00080  -0.00080  -0.00000  -0.00080
  91       45D 0        0.05376   0.05340   0.00036   0.05305
  92       45D+1        0.05371   0.05371   0.00000   0.05371
  93       45D-1        0.05371   0.05371   0.00000   0.05371
  94       45D+2        0.05338   0.05338   0.00000   0.05338
  95       45D-2        0.05338   0.05338   0.00000   0.05338
  96       46D 0        0.14211   0.14120   0.00091   0.14028
  97       46D+1        0.14333   0.14333   0.00000   0.14332
  98       46D-1        0.14333   0.14333   0.00000   0.14332
  99       46D+2        0.14513   0.14513   0.00000   0.14513
 100       46D-2        0.14513   0.14513   0.00000   0.14513
 101       47D 0        0.36061   0.35562   0.00499   0.35063
 102       47D+1        0.32832   0.32833  -0.00001   0.32834
 103       47D-1        0.32832   0.32833  -0.00001   0.32834
 104       47D+2        0.27107   0.27107   0.00000   0.27107
 105       47D-2        0.27107   0.27107   0.00000   0.27107
 106       48D 0        0.31765   0.31315   0.00450   0.30864
 107       48D+1        0.31728   0.31728   0.00000   0.31728
 108       48D-1        0.31728   0.31728   0.00000   0.31728
 109       48D+2        0.32115   0.32115   0.00000   0.32115
 110       48D-2        0.32115   0.32115   0.00000   0.32115
 111       49D 0        0.13511   0.12255   0.01255   0.11000
 112       49D+1        0.11620   0.11620   0.00000   0.11620
 113       49D-1        0.11620   0.11620   0.00000   0.11620
 114       49D+2        0.11711   0.11711   0.00000   0.11711
 115       49D-2        0.11711   0.11711   0.00000   0.11711
 116       50D 0        0.02446   0.01442   0.01004   0.00438
 117       50D+1        0.00726   0.00726   0.00000   0.00726
 118       50D-1        0.00726   0.00726   0.00000   0.00726
 119       50D+2        0.00601   0.00601   0.00000   0.00601
 120       50D-2        0.00601   0.00601   0.00000   0.00601
 121       51D 0        0.03058   0.03028   0.00030   0.02998
 122       51D+1        0.02876   0.02876  -0.00000   0.02876
 123       51D-1        0.02876   0.02876  -0.00000   0.02876
 124       51D+2        0.02517   0.02517   0.00000   0.02517
 125       51D-2        0.02517   0.02517   0.00000   0.02517
 126       52D 0       -0.02590  -0.02370  -0.00220  -0.02150
 127       52D+1        0.00573   0.00572   0.00001   0.00571
 128       52D-1        0.00573   0.00572   0.00001   0.00571
 129       52D+2        0.06187   0.06187  -0.00000   0.06187
 130       52D-2        0.06187   0.06187  -0.00000   0.06187
 131       53D 0        0.00053   0.00028   0.00025   0.00003
 132       53D+1       -0.00009  -0.00009   0.00000  -0.00009
 133       53D-1       -0.00009  -0.00009   0.00000  -0.00009
 134       53D+2       -0.00009  -0.00009   0.00000  -0.00009
 135       53D-2       -0.00009  -0.00009   0.00000  -0.00009
 136       54F 0        0.00000   0.00000   0.00000   0.00000
 137       54F+1        0.00000   0.00000   0.00000   0.00000
 138       54F-1        0.00000   0.00000   0.00000   0.00000
 139       54F+2        0.00000   0.00000   0.00000   0.00000
 140       54F-2        0.00000   0.00000   0.00000   0.00000
 141       54F+3       -0.00000  -0.00000  -0.00000   0.00000
 142       54F-3       -0.00000  -0.00000  -0.00000   0.00000
 143       55F 0        0.00001   0.00001   0.00000   0.00000
 144       55F+1        0.00000   0.00000   0.00000   0.00000
 145       55F-1        0.00000   0.00000   0.00000   0.00000
 146       55F+2        0.00000   0.00000   0.00000   0.00000
 147       55F-2        0.00000   0.00000   0.00000   0.00000
 148       55F+3        0.00000   0.00000   0.00000   0.00000
 149       55F-3        0.00000   0.00000   0.00000   0.00000
 150       56F 0        0.00043   0.00024   0.00018   0.00006
 151       56F+1        0.00002   0.00001   0.00000   0.00001
 152       56F-1        0.00002   0.00001   0.00000   0.00001
 153       56F+2        0.00000   0.00000  -0.00000   0.00000
 154       56F-2        0.00000   0.00000   0.00000   0.00000
 155       56F+3        0.00000   0.00000   0.00000  -0.00000
 156       56F-3        0.00000   0.00000   0.00000   0.00000
 157       57F 0        0.00341   0.00180   0.00161   0.00019
 158       57F+1        0.00001   0.00001  -0.00000   0.00001
 159       57F-1        0.00001   0.00001  -0.00000   0.00001
 160       57F+2        0.00002   0.00002  -0.00000   0.00002
 161       57F-2        0.00002   0.00002  -0.00000   0.00002
 162       57F+3        0.00000   0.00000  -0.00000   0.00000
 163       57F-3        0.00000   0.00000  -0.00000   0.00000
 164       58G 0        0.00000   0.00000   0.00000   0.00000
 165       58G+1        0.00000   0.00000  -0.00000   0.00000
 166       58G-1        0.00000   0.00000  -0.00000   0.00000
 167       58G+2        0.00000   0.00000  -0.00000   0.00000
 168       58G-2        0.00000   0.00000  -0.00000   0.00000
 169       58G+3        0.00000   0.00000   0.00000   0.00000
 170       58G-3        0.00000   0.00000  -0.00000   0.00000
 171       58G+4       -0.00000  -0.00000  -0.00000  -0.00000
 172       58G-4       -0.00000  -0.00000  -0.00000  -0.00000
 173       59G 0        0.00000   0.00000  -0.00000   0.00000
 174       59G+1        0.00000   0.00000   0.00000   0.00000
 175       59G-1        0.00000   0.00000   0.00000   0.00000
 176       59G+2        0.00000   0.00000   0.00000   0.00000
 177       59G-2        0.00000   0.00000   0.00000   0.00000
 178       59G+3        0.00000   0.00000   0.00000   0.00000
 179       59G-3        0.00000   0.00000   0.00000   0.00000
 180       59G+4        0.00000   0.00000   0.00000   0.00000
 181       59G-4        0.00000   0.00000   0.00000   0.00000
 182       60G 0        0.00009   0.00005   0.00004   0.00002
 183       60G+1        0.00001   0.00001   0.00000   0.00001
 184       60G-1        0.00001   0.00001   0.00000   0.00001
 185       60G+2        0.00000   0.00000   0.00000   0.00000
 186       60G-2        0.00000   0.00000   0.00000   0.00000
 187       60G+3        0.00000   0.00000   0.00000   0.00000
 188       60G-3       -0.00000  -0.00000  -0.00000  -0.00000
 189       60G+4        0.00000   0.00000  -0.00000   0.00000
 190       60G-4        0.00000   0.00000   0.00000   0.00000
 191 2   H  1S          0.00062   0.00033   0.00030   0.00003
 192        2S          0.02167   0.01138   0.01029   0.00109
 193        3S          0.16593   0.08701   0.07892   0.00810
 194        4S          0.55873   0.29083   0.26790   0.02293
 195        5S          0.61200   0.31553   0.29647   0.01906
 196        6S          0.05935   0.02783   0.03152  -0.00368
 197        7PX         0.00001   0.00001   0.00000   0.00001
 198        7PY         0.00001   0.00001   0.00000   0.00001
 199        7PZ         0.00038   0.00021   0.00017   0.00005
 200        8PX         0.00015   0.00015   0.00000   0.00015
 201        8PY         0.00015   0.00015   0.00000   0.00015
 202        8PZ         0.00574   0.00266   0.00308  -0.00042
 203        9PX        -0.00012  -0.00012   0.00001  -0.00013
 204        9PY        -0.00012  -0.00012   0.00001  -0.00013
 205        9PZ         0.00647   0.00247   0.00400  -0.00153
 206       10D 0        0.00011   0.00007   0.00004   0.00004
 207       10D+1        0.00001   0.00001   0.00000   0.00001
 208       10D-1        0.00001   0.00001   0.00000   0.00001
 209       10D+2        0.00000   0.00000  -0.00000   0.00000
 210       10D-2        0.00000   0.00000  -0.00000   0.00000
 211       11D 0       -0.00028  -0.00028   0.00000  -0.00028
 212       11D+1       -0.00023  -0.00022  -0.00002  -0.00020
 213       11D-1       -0.00023  -0.00022  -0.00002  -0.00020
 214       11D+2       -0.00002  -0.00002   0.00000  -0.00002
 215       11D-2       -0.00002  -0.00002   0.00000  -0.00002
          Condensed to atoms (all electrons):
               1          2
     1  Mn  14.265298   0.304368
     2  H    0.304368   1.125966
          Atomic-Atomic Spin Densities.
               1          2
     1  Mn   5.993516  -0.038511
     2  H   -0.038511   0.083506
 Mulliken charges and spin densities:
               1          2
     1  Mn   0.430334   5.955005
     2  H   -0.430334   0.044995
 Sum of Mulliken charges =  -0.00000   6.00000
 Mulliken charges and spin densities with hydrogens summed into heavy atoms:
               1          2
     1  Mn  -0.000000   6.000000
 Electronic spatial extent (au):  <R**2>=             58.9054
 Charge=              0.0000 electrons
 Dipole moment (field-independent basis, Debye):
    X=              0.0000    Y=              0.0000    Z=              2.4068  Tot=              2.4068
 Quadrupole moment (field-independent basis, Debye-Ang):
   XX=            -16.4894   YY=            -16.4894   ZZ=            -28.0613
   XY=              0.0000   XZ=              0.0000   YZ=              0.0000
 Traceless Quadrupole moment (field-independent basis, Debye-Ang):
   XX=              3.8573   YY=              3.8573   ZZ=             -7.7146
   XY=              0.0000   XZ=              0.0000   YZ=              0.0000
 Octapole moment (field-independent basis, Debye-Ang**2):
  XXX=              0.0000  YYY=              0.0000  ZZZ=             15.5690  XYY=              0.0000
  XXY=              0.0000  XXZ=              1.7033  XZZ=              0.0000  YZZ=              0.0000
  YYZ=              1.7033  XYZ=              0.0000
 Hexadecapole moment (field-independent basis, Debye-Ang**3):
 XXXX=            -28.0254 YYYY=            -28.0254 ZZZZ=           -126.0365 XXXY=              0.0000
 XXXZ=              0.0000 YYYX=              0.0000 YYYZ=              0.0000 ZZZX=              0.0000
 ZZZY=              0.0000 XXYY=             -9.3418 XXZZ=            -23.1602 YYZZ=            -23.1602
 XXYZ=              0.0000 YYXZ=              0.0000 ZZXY=              0.0000
 N-N= 3.968829081900D+00 E-N=-2.452413729728D+02  KE= 5.678364876508D+01
 Symmetry A1   KE= 2.445282313093D+01
 Symmetry A2   KE= 6.208586052478D+00
 Symmetry B1   KE= 1.306111979153D+01
 Symmetry B2   KE= 1.306111978948D+01
 Symmetry A1   SP= 3.000000000000D+00
 Symmetry A2   SP= 1.000000000000D+00
 Symmetry B1   SP= 1.000000000000D+00
 Symmetry B2   SP= 1.000000000000D+00
 Orbital energies and kinetic energies (alpha):
                                 1                 2
   1         O                -4.256952          1.982015
   2         O                -2.811668          3.415396
   3         O                -2.811668          3.415396
   4         O                -2.808732          3.424774
   5         O                -0.658422          0.434086
   6         O                -0.658422          6.208586
   7         O                -0.651591          6.208586
   8         O                -0.651591          6.230328
   9         O                -0.651164          6.230328
  10         O                -0.387093          5.318218
  11         O                -0.270093          1.244269
  12         V                 0.009992          0.072294
  13         V                 0.009992          0.072294
  14         V                 0.022985          0.038661
  15         V                 0.031367          0.041184
  16         V                 0.054972          0.179922
 Total kinetic energy from orbitals= 8.822396494378D+01
                          Isotropic Fermi Contact Couplings
        Atom                 a.u.       MegaHertz       Gauss      10(-4) cm-1
     1  Mn(55)             0.00125       0.23021       0.08214       0.07679
     2  H(1)               0.01530      11.39945       4.06761       3.80245
 --------------------------------------------------------
       Center         ----  Spin Dipole Couplings  ----
                      3XX-RR        3YY-RR        3ZZ-RR
 --------------------------------------------------------
     1   Atom       -0.105163     -0.105163      0.210325
     2   Atom       -0.091011     -0.091011      0.182021
 --------------------------------------------------------
                        XY            XZ            YZ
 --------------------------------------------------------
     1   Atom        0.000000      0.000000      0.000000
     2   Atom        0.000000      0.000000      0.000000
 --------------------------------------------------------


 ---------------------------------------------------------------------------------
              Anisotropic Spin Dipole Couplings in Principal Axis System
 ---------------------------------------------------------------------------------

       Atom             a.u.   MegaHertz   Gauss  10(-4) cm-1        Axes

              Baa    -0.1052   -13.875    -4.951    -4.628  1.0000  0.0000  0.0000
     1 Mn(55) Bbb    -0.1052   -13.875    -4.951    -4.628 -0.0000  1.0000  0.0000
              Bcc     0.2103    27.751     9.902     9.257  0.0000  0.0000  1.0000
 
              Baa    -0.0910   -48.559   -17.327   -16.198 -0.0000  1.0000  0.0000
     2 H(1)   Bbb    -0.0910   -48.559   -17.327   -16.198  1.0000  0.0000  0.0000
              Bcc     0.1820    97.118    34.654    32.395  0.0000  0.0000  1.0000
 

 ---------------------------------------------------------------------------------

 No NMR shielding tensors so no spin-rotation constants.
 Leave Link  601 at Mon Feb 26 18:38:10 2018, MaxMem=  8589934592 cpu:              43.0 elap:               2.8
 (Enter /home1/apps/gaussian/16rA.03/g16/l9999.exe)

 Test job not archived.
 1\1\GINC-C407-032\SP\ROCCSD(T)-Full\Gen\H1Mn1(7)\AANNABE\26-Feb-2018\0
 \\#P ROCCSD(T)=(maxcyc=150, Full, SaveAmplitudes, ReadAmplitudes)/Gen 
 5d 7f SCF=(maxcycles=300) Integral(NoXCTest) MaxDisk=500GB Pop=Regular
  Pseudo=Read Guess=Read IOp(5/15=2)\\MnH\\0,7\Mn,0,0.,0.,0.\H,0,0.,0.,
 2.\\Version=ES64L-G16RevA.03\State=7-SG\HF=-104.0677202\MP2=-104.63076
 02\MP3=-104.6340711\PUHF=-104.0677202\PMP2-0=-104.6307602\MP4SDQ=-104.
 6383593\CCSD=-104.6396864\CCSD(T)=-104.6550146\RMSD=9.093e-09\PG=C*V [
 C*(H1Mn1)]\\@


 SOME THINGS ARE EASY, THEY ARE ONLY HARD TO DO.
            -- A. EINSTEIN TO J. O. HIRSCHFELDER
 THE ONLY TROUBLE WITH A SURE THING IS THE UNCERTAINTY.
     -- FROM A TEABAG (BELONGING TO W.H.?)
 Job cpu time:       0 days  2 hours 48 minutes 48.1 seconds.
 Elapsed time:       0 days  0 hours 10 minutes 36.5 seconds.
 File lengths (MBytes):  RWF=   2543 Int=      0 D2E=      0 Chk=     13 Scr=      1
 Normal termination of Gaussian 16 at Mon Feb 26 18:38:10 2018.
