
 Primary working directories    : /tmp/cmelton
 Secondary working directories  : /tmp/cmelton
 Wavefunction directory         : /remote/cmelton/wfu/
 Main file repository           : /tmp/cmelton/

 SHA1      : 4c1979699e6aeda0524d0210415ba82a958648b0
 NAME      : 2012.1.39
 ARCHNAME  : Linux/x86_64
 FC        : /projects/sems/install/rhel6-x86_64/sems/compiler/intel/16.0.1/base/bin/ifort
 FCVERSION : 16.0.1
 BLASLIB   : -L/projects/sems/install/rhel6-x86_64/sems/compiler/intel/16.0.1/base/compilers_and_libraries_2016.1.150/linux/mkl/lib/intel64 -lmkl_intel_ilp64 -lmkl_sequential -lmkl_core
 id        : sandiacon

 Nodes           nprocs
 breve.sandia.gov    1

 Using customized tuning parameters: mindgm=7; mindgv=16; mindgc=1; mindgr=1; noblas=0; minvec=7
 default implementation of scratch files=df  

 ***,Calculation for Be atom, singlet and triplet
 memory,512,m
 gthresh,twoint=1.0E-12
 
 set,dkroll=1,dkho=10,dkhp=4
 basis={
 Including file /remote/cmelton/data/corrECP/VO/ae/aug-cc-pwCVTZ-dk.basis
 Including file /remote/cmelton/data/corrECP/VO/ae/O-aug-cc-CVTZ.basis
 }
 
 ne    =31
 symm  =1
 ss    =3
 
 A1=11
 B1=3
 B2=3
 A2=0
 
 do i=1,1
     z(i) = 1.589 + 0.05*(i-1)
     geometry={
         2
         Oxygen
         V  0.0 0.0 0.0
         O  0.0 0.0 z(i)
     }
     {rhf
      print,orbitals=3
     }
     pop
     individual
     {rhf
      wf,ne,symm,ss
      occ,A1,B1,B2,A2
      open,9.1,10.1,11.1
      sym,1,1,1,1,1,1,1,1,1,2,2,1
      print,orbitals=3
     }
     scf(i)=energy
     _CC_NORM_MAX=2.0
                                                                                 !    {rccsd(t);maxit,100;core}
                                                                                 !    ccsd(i)=energy
 enddo
 
 geometry={
    1
    Vanadium
    V 0.0 0.0 0.0
 }
 {rhf;
  start,atden
  wf,23,6,3;
  occ,6,2,2,0,2,1,0,0;
  open,5.1,6.1,1.6;
  sym,1,1,1,1,1,3,2
 }
 V_scf=energy
 _CC_NORM_MAX=2.0
 {rccsd(t);maxit,100;core}
 V_ccsd=energy
 
 geometry={
    1
    Oxygen
    O 0.0 0.0 0.0
 }
 {rhf;
  wf,8,7,2;
  occ,2,1,1,0,1,0,0,0;
  open,1.3,1.5;
 }
 O_scf=energy
 
 table,z,scf,ccsd
 save
 type,csv

 Variables initialized (782), CPU time= 0.01 sec
 Commands  initialized (547), CPU time= 0.01 sec, 517 directives.
 Default parameters read. Elapsed time= 0.10 sec

 Checking input...
 Passed
1


                                         ***  PROGRAM SYSTEM MOLPRO  ***
                         Copyright, University College Cardiff Consultants Limited, 2008

                                    Version 2012.1 linked Aug  2 2016 14:07:26


 **********************************************************************************************************************************
 LABEL *   Calculation for Be atom, singlet and triplet                                  
 Linux-3.10.0-693.11.6.el7.x86_64/breve.sandia.gov(x86_64) 64 bit serial version         DATE: 05-Feb-18          TIME: 11:21:20  
 **********************************************************************************************************************************

 SHA1:             4c1979699e6aeda0524d0210415ba82a958648b0
 **********************************************************************************************************************************

 THRESHOLDS:

 ZERO    =  1.00D-12  ONEINT  =  1.00D-12  TWOINT  =  1.00D-12  PREFAC  =  1.00D-14  LOCALI  =  1.00D-09  EORDER  =  1.00D-04
 ENERGY  =  0.00D+00  ETEST   =  0.00D+00  EDENS   =  0.00D+00  THRDEDEF=  1.00D-06  GRADIENT=  1.00D-02  STEP    =  1.00D-03
 ORBITAL =  1.00D-05  CIVEC   =  1.00D-05  COEFF   =  1.00D-04  PRINTCI =  5.00D-02  PUNCHCI =  9.90D+01  OPTGRAD =  3.00D-04
 OPTENERG=  1.00D-06  OPTSTEP =  3.00D-04  THRGRAD =  1.00D-10  COMPRESS=  1.00D-11  VARMIN  =  1.00D-07  VARMAX  =  1.00D-03
 THRDOUB =  0.00D+00  THRDIV  =  1.00D-05  THRRED  =  1.00D-07  THRPSP  =  1.00D+00  THRDC   =  1.00D-10  THRCS   =  1.00D-10
 THRNRM  =  1.00D-08  THREQ   =  0.00D+00  THRDE   =  1.00D+00  THRREF  =  1.00D-05  SPARFAC =  1.00D+00  THRDLP  =  1.00D-07
 THRDIA  =  1.00D-10  THRDLS  =  1.00D-07  THRGPS  =  0.00D+00  THRKEX  =  0.00D+00  THRDIS  =  2.00D-01  THRVAR  =  1.00D-10
 THRLOC  =  1.00D-06  THRGAP  =  1.00D-06  THRLOCT = -1.00D+00  THRGAPT = -1.00D+00  THRORB  =  1.00D-06  THRMLTP =  0.00D+00
 THRCPQCI=  1.00D-10  KEXTA   =  0.00D+00  THRCOARS=  0.00D+00  SYMTOL  =  1.00D-06  GRADTOL =  1.00D-06  THROVL  =  1.00D-08
 THRORTH =  1.00D-08  GRID    =  1.00D-06  GRIDMAX =  1.00D-03  DTMAX   =  0.00D+00  THROCCDE=  1.00D-01  THROCCDE=  1.00D-01


 SETTING DKROLL         =         1.00000000                                  
 SETTING DKHO           =        10.00000000                                  
 SETTING DKHP           =         4.00000000                                  

 Variable memory set to  512000000 words,  buffer space   230000 words

 SETTING BASIS          =    USERDEF
 SETTING NE             =        31.00000000                                  
 SETTING SYMM           =         1.00000000                                  
 SETTING SS             =         3.00000000                                  
 SETTING A1             =        11.00000000                                  
 SETTING B1             =         3.00000000                                  
 SETTING B2             =         3.00000000                                  
 SETTING A2             =         0.00000000                                  

 DO I                   =         1.00000000   
 SETTING Z(1)           =         1.58900000                                  

Geometry recognized as XYZ



 Recomputing integrals since basis changed


 Using spherical harmonics


1PROGRAM * SEWARD (Integral evaluation for generally contracted gaussian basis sets)     Author: Roland Lindh, 1990

 Geometry written to block  1 of record 700


 Point group  C2v 



 ATOMIC COORDINATES

 NR  ATOM    CHARGE       X              Y              Z

   1  V      23.00    0.000000000    0.000000000    0.000000000
   2  O       8.00    0.000000000    0.000000000    3.002774823

 Bond lengths in Bohr (Angstrom)

 1-2  3.002774823
     ( 1.589000000)

 NUCLEAR CHARGE:                   31
 NUMBER OF PRIMITIVE AOS:         306
 NUMBER OF SYMMETRY AOS:          256
 NUMBER OF CONTRACTIONS:          256   ( 112A1  +  59B1  +  59B2  +  26A2  )
 NUMBER OF CORE ORBITALS:          10   (   6A1  +   2B1  +   2B2  +   0A2  )
 NUMBER OF VALENCE ORBITALS:       10   (   5A1  +   2B1  +   2B2  +   1A2  )


 NUCLEAR REPULSION ENERGY   61.27665605

 One-electron integrals computed with SEWARD

 10nd-order Douglas-Kroll-Hess method activated. McWeeny DKH parametrization is used.

 Computing Douglas-Kroll integrals

 AO integral compression algorithm  1   Integral accuracy      1.0D-12

     430.178 MB (compressed) written to integral file ( 32.5%)


 NUMBER OF SORTED TWO-ELECTRON INTEGRALS:  140624482.     BUFFER LENGTH:  32768
 NUMBER OF SEGMENTS:   9  SEGMENT LENGTH:   15997996      RECORD LENGTH: 524288

 Memory used in sort:      16.56 MW

 SORT1 READ   165643369. AND WROTE    68441921. INTEGRALS IN    200 RECORDS. CPU TIME:     3.41 SEC, REAL TIME:     4.46 SEC
 SORT2 READ    68441921. AND WROTE   140624482. INTEGRALS IN   1641 RECORDS. CPU TIME:     2.97 SEC, REAL TIME:     3.66 SEC

 FILE SIZES:   FILE 1:   440.1 MBYTE,  FILE 4:   838.9 MBYTE,   TOTAL:   1278.9 MBYTE

 OPERATOR DM      FOR CENTER  0  COORDINATES:    0.000000    0.000000    0.000000

 EXTRA SYMMETRY OF AOS IN SYMMETRY 1:   1 1 1 1 1 1 1 1 1 1   1 1 1 1 1 1 1 1 1 1   1 1 1 1 1 1 1 1 1 1   1 1 1 1 1 1 1 1 1 1
                                        1 1 1 2 1 2 1 2 1 2   1 2 1 2 1 2 1 2 1 2   1 2 1 2 1 2 1 2 1 2   1 3 2 1 3 2 1 3 2 1
                                        1 1 1 1 1 1 1 1 1 1   1 1 1 1 1 1 1 1 1 1   1 2 1 2 1 2 1 2 1 2   1 2
 EXTRA SYMMETRY OF AOS IN SYMMETRY 2:   1 1 1 1 1 1 1 1 1 1   1 1 1 1 1 1 1 1 1 1   1 1 1 1 1 1 1 1 1 1   2 1 2 1 2 1 2 1 2 1
                                        2 1 2 1 1 1 1 1 1 1   1 1 1 1 1 1 2 1 2
 EXTRA SYMMETRY OF AOS IN SYMMETRY 3:   1 1 1 1 1 1 1 1 1 1   1 1 1 1 1 1 1 1 1 1   1 1 1 1 1 1 1 1 1 1   2 1 2 1 2 1 2 1 2 1
                                        2 1 2 1 1 1 1 1 1 1   1 1 1 1 1 1 2 1 2
 EXTRA SYMMETRY OF AOS IN SYMMETRY 4:   1 1 1 1 1 1 1 1 1 1   1 1 1 1 1 2 1 2 1 2   1 1 1 1 1 1

 Eigenvalues of metric

         1 0.557E-07 0.383E-06 0.634E-05 0.251E-04 0.699E-04 0.175E-03 0.317E-03 0.381E-03
         2 0.610E-07 0.434E-06 0.370E-03 0.129E-02 0.378E-02 0.481E-02 0.753E-02 0.114E-01
         3 0.610E-07 0.434E-06 0.370E-03 0.129E-02 0.378E-02 0.481E-02 0.753E-02 0.114E-01
         4 0.384E-03 0.450E-01 0.931E-01 0.127E+00 0.167E+00 0.226E+00 0.287E+00 0.386E+00


 **********************************************************************************************************************************
 DATASETS  * FILE   NREC   LENGTH (MB)   RECORD NAMES
              1      23      319.79       500      610      700      900      950      970     1000      129      960     1700   
                                          VAR    BASINP    GEOM    SYMINP    ZMAT    AOBASIS   BASIS     P2S    ABASIS    OPER   
                                         1101     1401     1411     1412     1650     1100     1400     1410     1200     1210   
                                          SR      EKINR    POTR     PVPR    MOLCAS      S      EKIN      POT      H0       H01  
                                         1300     1080     1600   
                                         ERIS     AOSYM     SMH  

 PROGRAMS   *        TOTAL       INT
 CPU TIMES  *        58.13     58.00
 REAL TIME  *        61.29 SEC
 DISK USED  *         1.28 GB      
 **********************************************************************************************************************************

1PROGRAM * RHF-SCF (OPEN SHELL)       Authors: W. Meyer, H.-J. Werner


 NUMBER OF ELECTRONS:      16+   15-
 CONVERGENCE THRESHOLDS:    1.00E-05 (Density)    1.00E-07 (Energy)
 MAX. NUMBER OF ITERATIONS:       60
 INTERPOLATION TYPE:            DIIS
 INTERPOLATION STEPS:              2 (START)      1 (STEP)
 LEVEL SHIFTS:                 -0.30 (CLOSED)  0.00 (OPEN) 



 Orbital guess generated from atomic densities. Full valence occupancy:   11   4   4   1

 Molecular orbital dump at record        2100.2

 Initial alpha occupancy:   9   3   3   1
 Initial beta  occupancy:   9   3   3   0
 Wave function symmetry:    4

 ITERATION    DDIFF          GRAD             ENERGY        2-EL.EN.            DIPOLE MOMENTS         DIIS   ORB.
    1      0.000D+00      0.000D+00     -1022.57151123    862.745228    0.00000    0.00000   -3.63002    0    start
    2      0.000D+00      0.188D-01     -1022.26016597    902.821537    0.00000    0.00000    2.12153    1    diag,B
    3      0.294D-01      0.320D-01     -1022.97788604    879.779099    0.00000    0.00000   -1.12640    2    diag,B
    4      0.186D-01      0.236D-02     -1022.98680870    879.797755    0.00000    0.00000   -1.24165    3    diag,B
    5      0.689D-02      0.888D-03     -1022.99012493    879.842046    0.00000    0.00000   -1.31706    4    diag,B
    6      0.336D-02      0.464D-03     -1022.99186120    880.281699    0.00000    0.00000   -1.39592    5    diag,B
    7      0.175D-02      0.330D-03     -1022.99310167    880.734032    0.00000    0.00000   -1.49103    6    fixocc
    8      0.159D-02      0.198D-03     -1022.99364062    881.108389    0.00000    0.00000   -1.58377    7    diag,B
    9      0.268D-02      0.120D-03     -1022.99381610    881.295280    0.00000    0.00000   -1.63911    8    diag,B
   10      0.223D-02      0.625D-04     -1022.99386942    881.399323    0.00000    0.00000   -1.67227    9    orth
   11      0.147D-02      0.214D-04     -1022.99387490    881.429843    0.00000    0.00000   -1.68311    9    diag,B
   12      0.139D-03      0.586D-05     -1022.99387521    881.431813    0.00000    0.00000   -1.68470    9    diag,B
   13      0.146D-03      0.217D-05     -1022.99387525    881.433741    0.00000    0.00000   -1.68528    9    diag,B
   14      0.213D-04      0.114D-05     -1022.99387526    881.434153    0.00000    0.00000   -1.68563    9    diag,B
   15      0.161D-04      0.749D-06     -1022.99387527    881.434767    0.00000    0.00000   -1.68577    9    diag,B
   16      0.603D-05      0.523D-06     -1022.99387527    881.434766    0.00000    0.00000   -1.68587    0    orth

 Final alpha occupancy:   9   3   3   1
 Final beta  occupancy:   9   3   3   0

 !RHF STATE 1.4 Energy              -1022.993875268419
 Nuclear energy                        61.27665605
 One-electron energy                -1524.98791449
 Two-electron energy                  440.71738318
 Virial quotient                       -0.96959316
 !RHF STATE 1.4 Dipole moment           0.00000000     0.00000000    -1.68587409
 Dipole moment /Debye                   0.00000000     0.00000000    -4.28478388

 ELECTRON ORBITALS
 =================


   Orb  Occ    Energy  Couls-En    Coefficients

                                   1 1s      1 1s      1 1s      1 1s      1 1s      1 1s      1 1s      1 1s      1 1s      1 1s   
                                   1 1s      1 1s      1 1s      1 1s      1 1s      1 1s      1 1s      1 1s      1 1s      1 1s   
                                   1 1s      1 1s      1 1s      1 2pz     1 2pz     1 2pz     1 2pz     1 2pz     1 2pz     1 2pz  
                                   1 2pz     1 2pz     1 2pz     1 2pz     1 2pz     1 2pz     1 2pz     1 2pz     1 2pz     1 2pz  
                                   1 2pz     1 2pz     1 3d0     1 3d2+    1 3d0     1 3d2+    1 3d0     1 3d2+    1 3d0     1 3d2+ 
                                   1 3d0     1 3d2+    1 3d0     1 3d2+    1 3d0     1 3d2+    1 3d0     1 3d2+    1 3d0     1 3d2+ 
                                   1 3d0     1 3d2+    1 4f0     1 4f2+    1 4f0     1 4f2+    1 4f0     1 4f2+    1 4f0     1 4f2+ 
                                   1 5g0     1 5g4+    1 5g2+    1 5g0     1 5g4+    1 5g2+    1 5g0     1 5g4+    1 5g2+    2 1s   
                                   2 1s      2 1s      2 1s      2 1s      2 1s      2 1s      2 1s      2 1s      2 1s      2 1s   
                                   2 1s      2 1s      2 2pz     2 2pz     2 2pz     2 2pz     2 2pz     2 2pz     2 2pz     2 2pz  
                                   2 3d0     2 3d2+    2 3d0     2 3d2+    2 3d0     2 3d2+    2 3d0     2 3d2+    2 4f0     2 4f2+ 
                                   2 4f0     2 4f2+ 

   1.1   2  -203.0196 -471.9272  0.000129  0.000382  0.001075  0.002868  0.007705  0.020798  0.054411  0.129032  0.253752  0.356343
                                 0.268461  0.063608 -0.002320  0.005166  0.006068 -0.002778 -0.000580 -0.000010 -0.000046  0.000010
                                -0.007905  0.002089 -0.000002 -0.000000 -0.000000 -0.000000 -0.000001 -0.000004 -0.000009  0.000001
                                 0.000010 -0.000007 -0.000611  0.000036 -0.001479 -0.000028 -0.000041 -0.000011 -0.000004  0.000603
                                 0.001481  0.000001  0.000001  0.000000  0.000000  0.000000 -0.000002  0.000000  0.000026 -0.000000
                                -0.000012 -0.000000 -0.000016  0.000000 -0.000000 -0.000000  0.000009 -0.000000 -0.000030  0.000000
                                -0.000000  0.000000  0.000002  0.000000  0.000000 -0.000000 -0.000007  0.000000 -0.000000  0.000000
                                 0.000001 -0.000000  0.000000 -0.000001  0.000000 -0.000000 -0.000001 -0.000000  0.000000 -0.000000
                                 0.000000 -0.000000  0.000000 -0.000001 -0.000009 -0.000012 -0.000013  0.000005  0.000058  0.000013
                                 0.000006  0.000043 -0.000001 -0.000002  0.000002 -0.000007 -0.000046  0.000002  0.000000 -0.000011
                                -0.000001 -0.000000  0.000006 -0.000000  0.000000  0.000000  0.000016 -0.000000  0.000001 -0.000000
                                -0.000003  0.000000

   2.1   2   -24.3321  -91.9634 -0.000039 -0.000115 -0.000325 -0.000869 -0.002347 -0.006404 -0.017171 -0.042888 -0.094436 -0.166983
                                -0.181060  0.057002  0.511155  0.504840  0.115527 -0.026443 -0.005959 -0.000014 -0.000552  0.000131
                                -0.023875  0.023408 -0.000031  0.000000  0.000002  0.000007  0.000030  0.000102  0.000288  0.000579
                                 0.000887  0.001100 -0.005393  0.000261 -0.015243 -0.000355 -0.000424 -0.000103 -0.000044  0.006015
                                 0.015225  0.000016 -0.000004 -0.000000 -0.000029  0.000000 -0.000200  0.000000  0.000065 -0.000000
                                -0.000143 -0.000000 -0.000152 -0.000000  0.000001 -0.000000  0.000091 -0.000000 -0.000143  0.000000
                                -0.000001  0.000000  0.000004 -0.000000 -0.000038 -0.000000 -0.000053  0.000000  0.000003 -0.000000
                                 0.000095 -0.000108  0.000000  0.000035 -0.000041  0.000000 -0.000006  0.000000  0.000000  0.000000
                                 0.000000  0.000000  0.000001 -0.000000 -0.000049 -0.000090 -0.000157  0.000045  0.000588  0.000099
                                 0.000036  0.000475 -0.000004 -0.000013  0.000013 -0.000060 -0.000510  0.000009  0.000002 -0.000128
                                -0.000007 -0.000000  0.000073  0.000000  0.000001  0.000000  0.000185 -0.000000  0.000009  0.000000
                                -0.000046 -0.000000

   3.1   2   -20.5750  -60.1852  0.000000  0.000000 -0.000000  0.000000 -0.000000  0.000000 -0.000000  0.000002 -0.000005  0.000014
                                -0.000035  0.000098 -0.000302  0.001383  0.006688 -0.007360 -0.003135 -0.011944  0.002757 -0.001694
                                -0.005534  0.007514  0.000448  0.000000  0.000000  0.000002  0.000004  0.000024  0.000029  0.000167
                                -0.000030  0.000948  0.060124 -0.003536  0.159900  0.003655 -0.007865 -0.001504 -0.000012 -0.059076
                                -0.160576  0.000009  0.000001  0.000000 -0.000000 -0.000000  0.000034  0.000000 -0.000587 -0.000000
                                 0.000850  0.000000 -0.002852 -0.000000 -0.000379  0.000000 -0.000503 -0.000000  0.000781  0.000000
                                 0.000072 -0.000000 -0.000053  0.000000  0.000129  0.000000  0.000513  0.000000 -0.000545 -0.000000
                                -0.000029  0.000000  0.000000  0.000164  0.000000  0.000000  0.000508  0.000000  0.000000  0.000742
                                 0.004246  0.020677  0.080056  0.229103  0.401042  0.317598 -0.017610  0.050088  0.016135  0.038910
                                 0.023341  0.003044  0.000049 -0.000197 -0.000841  0.001806 -0.007800 -0.000328 -0.000052 -0.000678
                                 0.000037 -0.000000 -0.000307 -0.000000  0.000024  0.000000  0.002385  0.000000  0.000152 -0.000000
                                -0.000225 -0.000000

   4.1   2   -20.2297  -86.8509  0.000000  0.000000  0.000001  0.000003  0.000007  0.000020  0.000053  0.000131  0.000291  0.000512
                                 0.000573 -0.000232 -0.001693 -0.001114 -0.000573 -0.000483 -0.000023 -0.000113 -0.000009 -0.000016
                                 0.000178  0.000195  0.000003  0.000108  0.000538  0.002576  0.010366  0.035109  0.097356  0.209707
                                 0.329994  0.330159  0.163124  0.023399  0.006228  0.000287 -0.000198 -0.000040 -0.000015 -0.006358
                                -0.005212  0.000003  0.000007  0.000000  0.000106  0.000000  0.000520  0.000000  0.000418 -0.000000
                                 0.000004  0.000000 -0.000064 -0.000000 -0.000009 -0.000000 -0.000008 -0.000000 -0.000327  0.000000
                                -0.000002 -0.000000  0.000258  0.000000  0.000253  0.000000  0.000002  0.000000 -0.000011 -0.000000
                                 0.000014  0.000001  0.000000 -0.000010  0.000000 -0.000000 -0.000013  0.000000  0.000000 -0.000000
                                -0.000002 -0.000011 -0.000042 -0.000121 -0.000199 -0.000142  0.000079 -0.000055  0.000189 -0.000051
                                -0.000021  0.000073 -0.000002 -0.000016 -0.000023 -0.000122 -0.000092  0.000002  0.000000 -0.000000
                                 0.000011  0.000000  0.000045  0.000000  0.000000  0.000000 -0.000000  0.000000 -0.000015 -0.000000
                                -0.000000 -0.000000

   5.1   2    -3.3631  -30.7281  0.000014  0.000042  0.000118  0.000317  0.000856  0.002346  0.006284  0.015863  0.035175  0.064560
                                 0.072356 -0.023175 -0.297464 -0.437575  0.176287  0.669121  0.354854  0.006708 -0.014755  0.002632
                                -0.055538  0.087388 -0.000573 -0.000000 -0.000000 -0.000002 -0.000005 -0.000023 -0.000049 -0.000154
                                -0.000059 -0.000970 -0.044777  0.007532 -0.179359 -0.009789 -0.006185 -0.004827 -0.000896  0.043549
                                 0.179159  0.000271  0.000015  0.000000  0.000143  0.000000  0.000426  0.000000  0.004451  0.000000
                                -0.000909  0.000000 -0.003529 -0.000000 -0.001069  0.000000  0.002196  0.000000 -0.004211 -0.000000
                                 0.000038 -0.000000 -0.000239 -0.000000 -0.000020 -0.000000 -0.000682  0.000000 -0.000376  0.000000
                                 0.000220 -0.000275  0.000000  0.001088 -0.000771  0.000000  0.000265 -0.000367  0.000000 -0.000004
                                -0.000021 -0.000102 -0.000401 -0.001265 -0.003137 -0.003621  0.009422  0.002139  0.013103  0.000288
                                 0.000229  0.011188 -0.000140 -0.001364 -0.003826 -0.008675 -0.008484 -0.000094 -0.000053 -0.002247
                                 0.000907 -0.000000  0.003444  0.000000  0.000037  0.000000  0.001743 -0.000000 -0.000827  0.000000
                                -0.000659 -0.000000

   6.1   2    -2.1757  -27.6167 -0.000000 -0.000000 -0.000001 -0.000003 -0.000007 -0.000019 -0.000054 -0.000124 -0.000309 -0.000475
                                -0.000741  0.000623  0.001156  0.009465  0.037704 -0.053851 -0.053263 -0.009630 -0.020991 -0.000737
                                -0.029145  0.069159  0.000573 -0.000037 -0.000186 -0.000896 -0.003624 -0.012442 -0.035340 -0.078961
                                -0.129915 -0.136550 -0.032995  0.330742 -0.017910  0.252903  0.029422 -0.018658 -0.000391  0.054810
                                 0.485554  0.000193 -0.000042 -0.000000 -0.000277 -0.000000 -0.001430 -0.000000 -0.000173 -0.000000
                                -0.007243 -0.000000 -0.001550  0.000000 -0.004204  0.000000 -0.002395 -0.000000 -0.001814  0.000000
                                 0.000551 -0.000000  0.001489  0.000000  0.004996  0.000000  0.003655  0.000000 -0.000699 -0.000000
                                 0.000115  0.000003  0.000000  0.000609  0.000008 -0.000000  0.000004  0.000008  0.000000 -0.000020
                                -0.000112 -0.000553 -0.002183 -0.006832 -0.016131 -0.019043  0.061050  0.014419  0.036299 -0.000133
                                 0.000461  0.029423 -0.000583 -0.006197 -0.019479 -0.035805 -0.019151 -0.000604 -0.000269 -0.006225
                                 0.002924  0.000000  0.010467  0.000000  0.000117 -0.000000  0.003070  0.000000 -0.002201 -0.000000
                                -0.002229 -0.000000

   7.1   2    -1.2118  -16.6407 -0.000001 -0.000004 -0.000012 -0.000031 -0.000084 -0.000231 -0.000617 -0.001561 -0.003460 -0.006385
                                -0.007149  0.002230  0.030768  0.046193 -0.026790 -0.076583 -0.027058 -0.018482 -0.001810 -0.007491
                                 0.009901 -0.044435  0.001897  0.000008  0.000042  0.000200  0.000810  0.002785  0.007908  0.017735
                                 0.029161  0.031080  0.028076 -0.082643  0.078707 -0.048368 -0.020260 -0.004150 -0.003776 -0.034233
                                -0.197668  0.000769  0.000523  0.000000  0.003663  0.000000  0.013644  0.000000  0.035269  0.000000
                                 0.060725  0.000000  0.010906  0.000000 -0.002225  0.000000  0.053776  0.000000 -0.002635  0.000000
                                 0.000098 -0.000000  0.000696 -0.000000  0.005210 -0.000000  0.007949  0.000000 -0.000251  0.000000
                                 0.000187  0.000025  0.000000  0.001333  0.000095  0.000000  0.002408  0.000105  0.000000 -0.000161
                                -0.000919 -0.004541 -0.017891 -0.056616 -0.141707 -0.177088  0.542631  0.152824  0.401528  0.014002
                                 0.008793  0.046706 -0.000584 -0.005513 -0.016011 -0.035850 -0.059288 -0.000319 -0.000203 -0.005531
                                 0.001356 -0.000000  0.010648  0.000000  0.000059 -0.000000  0.015425  0.000000 -0.001136 -0.000000
                                -0.002601 -0.000000

   8.1   2    -0.5348  -16.8494  0.000001  0.000003  0.000008  0.000022  0.000059  0.000161  0.000434  0.001085  0.002446  0.004409
                                 0.005180 -0.002052 -0.020154 -0.040370 -0.018595  0.104339  0.043759  0.019099  0.030080  0.004806
                                 0.023624 -0.016718 -0.002655 -0.000005 -0.000024 -0.000112 -0.000463 -0.001559 -0.004549 -0.009879
                                -0.017295 -0.014674  0.269029  0.029087  0.910126  0.037110 -0.009889 -0.006581  0.000163 -0.258289
                                -0.834022 -0.001655 -0.002049 -0.000000 -0.014317 -0.000000 -0.053627 -0.000000 -0.134558 -0.000000
                                -0.221131 -0.000000 -0.110157 -0.000000 -0.007452 -0.000000 -0.203915 -0.000000  0.004392 -0.000000
                                -0.001344  0.000000 -0.001588  0.000000 -0.007271  0.000000 -0.009473  0.000000 -0.002534  0.000000
                                -0.000003 -0.000109 -0.000000 -0.002364 -0.000271 -0.000000 -0.002712 -0.000306 -0.000000 -0.000028
                                -0.000158 -0.000784 -0.003073 -0.009899 -0.027087 -0.035998  0.102244  0.034533  0.145555  0.007001
                                 0.003067  0.014368  0.006422  0.070095  0.232778  0.368619  0.256930  0.006802  0.002955  0.031915
                                -0.007119 -0.000000 -0.023391 -0.000000 -0.000300 -0.000000 -0.016279  0.000000  0.004085  0.000000
                                 0.004697  0.000000

   9.1   2    -0.2887  -12.3121  0.000003  0.000010  0.000029  0.000078  0.000211  0.000578  0.001544  0.003918  0.008653  0.016076
                                 0.017843 -0.005235 -0.079884 -0.113934  0.104396  0.162963  0.179009 -0.428974 -0.438444 -0.117255
                                -0.049758  0.169244  0.005740 -0.000001 -0.000003 -0.000017 -0.000063 -0.000233 -0.000610 -0.001514
                                -0.002042 -0.003877 -0.121193  0.017975 -0.621119 -0.023471  0.054266  0.087078  0.038658  0.118774
                                 0.634489 -0.002308  0.001490  0.000000  0.010409  0.000000  0.039113  0.000000  0.098843  0.000000
                                 0.152111  0.000000  0.108818  0.000000  0.027184  0.000000  0.146798  0.000000 -0.004284 -0.000000
                                 0.000895  0.000000 -0.000296  0.000000 -0.003105 -0.000000 -0.013764 -0.000000 -0.011134 -0.000000
                                -0.000312  0.000183 -0.000000 -0.000129  0.000278  0.000000 -0.001057 -0.000204  0.000000 -0.000009
                                -0.000049 -0.000245 -0.000961 -0.003092 -0.008306 -0.010603  0.039511  0.010047  0.031403  0.001590
                                 0.000857  0.048041  0.002273  0.024658  0.082039  0.127972  0.135379  0.002318  0.001022  0.024986
                                 0.001799  0.000000  0.005029  0.000000  0.000077  0.000000 -0.008065  0.000000 -0.001338 -0.000000
                                 0.000201 -0.000000

  10.1   0    -0.0004   -6.9843  0.000001  0.000002  0.000005  0.000012  0.000033  0.000091  0.000246  0.000612  0.001389  0.002484
                                 0.002975 -0.001261 -0.011356 -0.024834 -0.013851  0.068274  0.038968 -0.275357  0.367210 -0.532597
                                 0.017587 -0.011248  0.921680 -0.000005 -0.000026 -0.000125 -0.000502 -0.001737 -0.004904 -0.011105
                                -0.018015 -0.020277 -0.095509  0.061806 -0.582553  0.030074 -0.071031 -0.191464 -0.092630  0.098161
                                 0.668642 -0.427094  0.001179  0.000000  0.008279  0.000000  0.030786  0.000000  0.082604  0.000000
                                 0.112594  0.000000  0.095469  0.000000  0.113568  0.000000  0.119397  0.000000 -0.008164 -0.000000
                                 0.144001  0.000000 -0.000228  0.000000 -0.002196  0.000000 -0.013918 -0.000000 -0.012507 -0.000000
                                -0.000256  0.000358 -0.000000 -0.000828  0.000897  0.000000 -0.001850  0.000766  0.000000  0.000003
                                 0.000020  0.000094  0.000402  0.001037 -0.000728 -0.002502 -0.020591  0.000550  0.026878  0.006469
                                 0.002333 -0.043705  0.001890  0.020953  0.071082  0.109720  0.096473  0.002122  0.000897  0.052113
                                 0.001857  0.000000  0.007336  0.000000  0.000096  0.000000  0.010150  0.000000 -0.000986 -0.000000
                                -0.001667 -0.000000

  11.1   0     0.0295   -3.7253 -0.000000 -0.000001 -0.000002 -0.000005 -0.000013 -0.000033 -0.000102 -0.000214 -0.000605 -0.000773
                                -0.001634  0.001894 -0.000160  0.030467  0.117909 -0.183028 -0.171698  1.093105 -1.483486  3.025647
                                -0.095926  0.216774 -2.426062 -0.000003 -0.000014 -0.000069 -0.000272 -0.000959 -0.002657 -0.006171
                                -0.009577 -0.012334 -0.154524  0.039625 -0.303773  0.016840  0.296495 -0.126631  0.078857  0.154257
                                 0.342394 -0.308895  0.000336  0.000000  0.002102  0.000000  0.009153  0.000000  0.000389  0.000000
                                 0.057371  0.000000  0.165012  0.000000  0.053734  0.000000  0.019468  0.000000  0.024501  0.000000
                                 0.272787 -0.000000  0.000197  0.000000 -0.002196  0.000000  0.024225 -0.000000  0.005489 -0.000000
                                -0.000318  0.000113  0.000000  0.001232  0.000198  0.000000  0.003339  0.000124  0.000000 -0.000002
                                -0.000011 -0.000042 -0.000241 -0.000170  0.008116  0.015098  0.061358 -0.009469 -0.288420 -0.017756
                                -0.006345 -0.398700  0.001056  0.010006  0.028973  0.052498  0.359796  0.000391  0.000309  0.036016
                                 0.002186  0.000000 -0.013229 -0.000000 -0.000018 -0.000000 -0.097968  0.000000 -0.000262  0.000000
                                 0.010966 -0.000000

  12.1   0     0.0353   -4.8116  0.000000  0.000000  0.000001  0.000002  0.000003  0.000014  0.000019  0.000111  0.000061  0.000607
                                -0.000414  0.002111 -0.008741  0.031546  0.190940 -0.287382 -0.190333 -0.005901 -2.253931  0.975767
                                -0.147679  0.391832 -0.443016 -0.000004 -0.000021 -0.000100 -0.000418 -0.001385 -0.004112 -0.008722
                                -0.015854 -0.011560  0.366345  0.016818  1.289773  0.081545 -0.229826 -0.837220 -1.255630 -0.354857
                                -1.226684  1.479896  0.000918  0.000000  0.006400  0.000000  0.024056  0.000000  0.060487  0.000000
                                 0.090923  0.000000 -0.039594  0.000000 -0.230000  0.000000  0.091246  0.000000 -0.002044 -0.000000
                                 0.032349  0.000000 -0.000344  0.000000 -0.000889  0.000000 -0.023092 -0.000000 -0.080067 -0.000000
                                -0.000203  0.000289 -0.000000 -0.000501  0.000620  0.000000 -0.008380  0.000487  0.000000  0.000007
                                 0.000040  0.000200  0.000777  0.002554  0.007665  0.010243 -0.037318 -0.007503  0.175766 -0.003062
                                -0.001326  2.040314  0.001361  0.014702  0.049232  0.075121 -0.109514  0.001365  0.000605 -0.460412
                                 0.000840  0.000000  0.013816  0.000000  0.000102  0.000000  0.027711  0.000000 -0.001164 -0.000000
                                -0.001620 -0.000000

                                   1 2px     1 2px     1 2px     1 2px     1 2px     1 2px     1 2px     1 2px     1 2px     1 2px  
                                   1 2px     1 2px     1 2px     1 2px     1 2px     1 2px     1 2px     1 2px     1 2px     1 3d1+ 
                                   1 3d1+    1 3d1+    1 3d1+    1 3d1+    1 3d1+    1 3d1+    1 3d1+    1 3d1+    1 3d1+    1 4f1+ 
                                   1 4f3+    1 4f1+    1 4f3+    1 4f1+    1 4f3+    1 4f1+    1 4f3+    1 5g1+    1 5g3+    1 5g1+ 
                                   1 5g3+    1 5g1+    1 5g3+    2 2px     2 2px     2 2px     2 2px     2 2px     2 2px     2 2px  
                                   2 2px     2 3d1+    2 3d1+    2 3d1+    2 3d1+    2 4f1+    2 4f3+    2 4f1+    2 4f3+ 

   1.2   2   -20.2345  -86.8387  0.000108  0.000538  0.002576  0.010365  0.035102  0.097338  0.209664  0.329926  0.330236  0.161581
                                 0.023296  0.007987  0.000364 -0.000078  0.000007 -0.000009 -0.004678 -0.007076  0.000002 -0.000001
                                 0.000037  0.000305  0.000293 -0.000011 -0.000065 -0.000006  0.000010 -0.000149 -0.000001 -0.000293
                                -0.000386 -0.000059 -0.000180 -0.000069 -0.000043 -0.000013  0.000003  0.000008 -0.000000 -0.000008
                                 0.000002 -0.000014  0.000000  0.000001  0.000010  0.000020  0.000043  0.000092 -0.000001  0.000000
                                 0.000010 -0.000000 -0.000026 -0.000000 -0.000045  0.000002 -0.000000  0.000015  0.000001

   2.2   2    -2.1466  -27.6639 -0.000038 -0.000190 -0.000914 -0.003700 -0.012686 -0.036087 -0.080477 -0.132860 -0.137926  0.103386
                                 0.326266  0.712798  0.275913  0.035254 -0.002513  0.001318 -0.078048 -0.238150 -0.000386 -0.000009
                                -0.000110 -0.000401 -0.002213 -0.005740 -0.002613 -0.000409 -0.001983  0.002926 -0.000006 -0.001360
                                -0.001830 -0.002741 -0.004108 -0.002486 -0.003072 -0.000693  0.000031  0.000023 -0.000001  0.000327
                                 0.000038 -0.000137  0.000060  0.000151  0.001536  0.004733  0.008605  0.004571  0.000116  0.000059
                                 0.000267 -0.000806 -0.003125 -0.000036 -0.000896  0.000752 -0.000007  0.000712  0.000015

   3.2   2    -0.4917  -14.6258  0.000003  0.000017  0.000082  0.000333  0.001145  0.003257  0.007307  0.012052  0.012802  0.012135
                                -0.036570  0.213524 -0.017453  0.030532  0.027950 -0.003719 -0.015020 -0.271113  0.000079  0.001005
                                 0.006905  0.026375  0.056235  0.125894  0.076258  0.009581  0.095392  0.008765 -0.002149  0.001339
                                 0.000102  0.007338  0.000115  0.021930  0.000072 -0.001721 -0.000034 -0.000044 -0.000046  0.003133
                                -0.000101  0.006380 -0.000063  0.007059  0.076296  0.252316  0.402085  0.323949  0.007127  0.003160
                                 0.042327 -0.006013 -0.024736 -0.000281 -0.024077  0.003355 -0.000003  0.005833  0.000011

   4.2   0     0.0121   -5.4749 -0.000004 -0.000018 -0.000087 -0.000341 -0.001217 -0.003323 -0.007862 -0.011791 -0.016827 -0.315334
                                 0.061281 -1.293361  0.000819 -0.024701 -0.238195  0.047224  0.312136  1.355672 -0.793280  0.000757
                                 0.005286  0.019753  0.050001  0.081696  0.092190  0.117471  0.076065 -0.001782  0.202015  0.000063
                                -0.000204  0.000449  0.000106 -0.000458  0.001318  0.000491  0.000943 -0.000168 -0.000159 -0.000224
                                -0.000388  0.000140 -0.000394 -0.000180 -0.001451 -0.003498 -0.008149 -0.009236  0.000041 -0.000026
                                -0.088732 -0.000861 -0.003193 -0.000042  0.006919  0.000848  0.000001 -0.000291  0.000006

   5.2   0     0.0468   -6.0343 -0.000004 -0.000022 -0.000095 -0.000438 -0.001300 -0.004363 -0.007839 -0.018614  0.000804  1.473547
                                -0.068877  6.054392  0.191841 -0.241967  0.130194 -1.319287 -1.438519 -6.012930  1.350069  0.001091
                                 0.007606  0.028487  0.071303  0.117812  0.119743  0.126457  0.109114 -0.001773  0.071087  0.000066
                                -0.000248 -0.000503  0.000090 -0.003125  0.001432 -0.018139  0.001180 -0.000248 -0.000227 -0.000478
                                -0.000543 -0.000990 -0.000538 -0.000514 -0.006213 -0.022345 -0.031508 -0.047691 -0.000804 -0.000300
                                 0.032779 -0.001184 -0.003268 -0.000051 -0.003578  0.000419  0.000001  0.001022  0.000003

   6.2   0     0.0735   -3.8409  0.000001  0.000006  0.000033  0.000121  0.000458  0.001168  0.003018  0.003827  0.008257  0.302492
                                -0.036617  1.205474  0.012506  0.036499  0.303910  0.491571 -0.297423 -1.230540 -0.057326 -0.000522
                                -0.003393 -0.014022 -0.013399 -0.071434  0.054433 -0.029772 -0.040864 -0.022600  1.195903  0.000027
                                 0.000069 -0.001376 -0.000066  0.010927 -0.000541  0.053220 -0.000432  0.000165  0.000103 -0.000386
                                 0.000232  0.008289  0.000225 -0.000473 -0.002879 -0.003594 -0.017085 -0.048415  0.000538  0.000037
                                -0.621749  0.001310  0.002247  0.000032  0.080776  0.001042 -0.000000 -0.012069 -0.000003

                                   1 2py     1 2py     1 2py     1 2py     1 2py     1 2py     1 2py     1 2py     1 2py     1 2py  
                                   1 2py     1 2py     1 2py     1 2py     1 2py     1 2py     1 2py     1 2py     1 2py     1 3d1- 
                                   1 3d1-    1 3d1-    1 3d1-    1 3d1-    1 3d1-    1 3d1-    1 3d1-    1 3d1-    1 3d1-    1 4f1- 
                                   1 4f3-    1 4f1-    1 4f3-    1 4f1-    1 4f3-    1 4f1-    1 4f3-    1 5g1-    1 5g3-    1 5g1- 
                                   1 5g3-    1 5g1-    1 5g3-    2 2py     2 2py     2 2py     2 2py     2 2py     2 2py     2 2py  
                                   2 2py     2 3d1-    2 3d1-    2 3d1-    2 3d1-    2 4f1-    2 4f3-    2 4f1-    2 4f3- 

   1.3   2   -20.2345  -86.8387  0.000108  0.000538  0.002576  0.010365  0.035102  0.097338  0.209664  0.329926  0.330236  0.161581
                                 0.023296  0.007987  0.000364 -0.000078  0.000007 -0.000009 -0.004678 -0.007076  0.000002 -0.000001
                                 0.000037  0.000305  0.000293 -0.000011 -0.000065 -0.000006  0.000010 -0.000149 -0.000001 -0.000293
                                 0.000386 -0.000059  0.000180 -0.000069  0.000043 -0.000013 -0.000003  0.000008  0.000000 -0.000008
                                -0.000002 -0.000014 -0.000000  0.000001  0.000010  0.000020  0.000043  0.000092 -0.000001  0.000000
                                 0.000010 -0.000000 -0.000026 -0.000000 -0.000045  0.000002  0.000000  0.000015 -0.000001

   2.3   2    -2.1466  -27.6639 -0.000038 -0.000190 -0.000914 -0.003700 -0.012686 -0.036087 -0.080477 -0.132860 -0.137926  0.103386
                                 0.326266  0.712798  0.275913  0.035254 -0.002513  0.001318 -0.078048 -0.238150 -0.000386 -0.000009
                                -0.000110 -0.000401 -0.002213 -0.005740 -0.002613 -0.000409 -0.001983  0.002926 -0.000006 -0.001360
                                 0.001830 -0.002741  0.004108 -0.002486  0.003072 -0.000693 -0.000031  0.000023  0.000001  0.000327
                                -0.000038 -0.000137 -0.000060  0.000151  0.001536  0.004733  0.008605  0.004571  0.000116  0.000059
                                 0.000267 -0.000806 -0.003125 -0.000036 -0.000896  0.000752  0.000007  0.000712 -0.000015

   3.3   2    -0.4917  -14.6258  0.000003  0.000017  0.000082  0.000333  0.001145  0.003257  0.007307  0.012052  0.012802  0.012135
                                -0.036570  0.213524 -0.017453  0.030532  0.027950 -0.003719 -0.015020 -0.271113  0.000079  0.001005
                                 0.006905  0.026375  0.056235  0.125894  0.076258  0.009581  0.095392  0.008765 -0.002149  0.001339
                                -0.000102  0.007338 -0.000115  0.021930 -0.000072 -0.001721  0.000034 -0.000044  0.000046  0.003133
                                 0.000101  0.006380  0.000063  0.007059  0.076296  0.252316  0.402085  0.323949  0.007127  0.003160
                                 0.042327 -0.006013 -0.024736 -0.000281 -0.024077  0.003355  0.000003  0.005833 -0.000011

   4.3   0     0.0121   -5.4749 -0.000004 -0.000018 -0.000087 -0.000341 -0.001217 -0.003323 -0.007862 -0.011791 -0.016827 -0.315333
                                 0.061281 -1.293360  0.000819 -0.024701 -0.238195  0.047224  0.312136  1.355671 -0.793280  0.000757
                                 0.005286  0.019753  0.050001  0.081696  0.092190  0.117471  0.076065 -0.001782  0.202015  0.000063
                                 0.000204  0.000449 -0.000106 -0.000458 -0.001318  0.000491 -0.000943 -0.000168  0.000159 -0.000224
                                 0.000388  0.000140  0.000394 -0.000180 -0.001451 -0.003498 -0.008149 -0.009236  0.000041 -0.000026
                                -0.088732 -0.000861 -0.003193 -0.000042  0.006919  0.000848 -0.000001 -0.000291 -0.000006

   5.3   0     0.0468   -6.0343 -0.000004 -0.000022 -0.000095 -0.000438 -0.001300 -0.004363 -0.007839 -0.018614  0.000804  1.473545
                                -0.068876  6.054389  0.191841 -0.241967  0.130194 -1.319287 -1.438518 -6.012926  1.350069  0.001091
                                 0.007606  0.028487  0.071303  0.117812  0.119743  0.126457  0.109114 -0.001773  0.071087  0.000066
                                 0.000248 -0.000503 -0.000090 -0.003125 -0.001432 -0.018139 -0.001180 -0.000248  0.000227 -0.000478
                                 0.000543 -0.000990  0.000538 -0.000514 -0.006213 -0.022345 -0.031508 -0.047691 -0.000804 -0.000300
                                 0.032779 -0.001184 -0.003268 -0.000051 -0.003578  0.000419 -0.000001  0.001022 -0.000003

   6.3   0     0.0735   -3.8409  0.000001  0.000006  0.000033  0.000121  0.000458  0.001168  0.003018  0.003827  0.008257  0.302491
                                -0.036617  1.205474  0.012506  0.036499  0.303910  0.491571 -0.297423 -1.230539 -0.057326 -0.000522
                                -0.003393 -0.014022 -0.013399 -0.071434  0.054433 -0.029772 -0.040864 -0.022600  1.195903  0.000027
                                -0.000069 -0.001376  0.000066  0.010927  0.000541  0.053220  0.000432  0.000165 -0.000103 -0.000386
                                -0.000232  0.008289 -0.000225 -0.000473 -0.002879 -0.003594 -0.017085 -0.048415  0.000538  0.000037
                                -0.621749  0.001310  0.002247  0.000032  0.080776  0.001042  0.000000 -0.012069  0.000003

                                   1 3d2-    1 3d2-    1 3d2-    1 3d2-    1 3d2-    1 3d2-    1 3d2-    1 3d2-    1 3d2-    1 3d2- 
                                   1 4f2-    1 4f2-    1 4f2-    1 4f2-    1 5g2-    1 5g4-    1 5g2-    1 5g4-    1 5g2-    1 5g4- 
                                   2 3d2-    2 3d2-    2 3d2-    2 3d2-    2 4f2-    2 4f2- 

   1.4   +    -0.6012  -21.8803  0.004015  0.027961  0.105578  0.258850  0.371666  0.167294  0.013629  0.390283 -0.001921 -0.000305
                                 0.000604 -0.001593 -0.009533 -0.004125 -0.001322  0.000000 -0.002501  0.000000 -0.001558  0.000000
                                 0.001043  0.004332  0.000052  0.001180 -0.000899 -0.001452

   2.4   0     0.0698   -3.5024 -0.000202 -0.001025 -0.005920  0.019158 -0.040068  0.063102 -0.204373 -0.001843 -0.036412  1.103822
                                 0.000083 -0.000471  0.002842 -0.019694  0.000015  0.000000  0.000256 -0.000000 -0.000836  0.000000
                                 0.000548 -0.000745  0.000004  0.009981 -0.000009  0.000314

   3.4   0     0.2379   -5.9022 -0.000746 -0.006498 -0.017731 -0.158457  0.014753 -0.221779  1.393314 -0.131697  0.125588 -0.680902
                                 0.000102 -0.001305  0.007016 -0.065057  0.000308  0.000000 -0.000201 -0.000000  0.000969  0.000000
                                -0.000091  0.014961  0.000118 -0.023414  0.000816 -0.005297

   4.4   0     0.4794   -6.6337  0.000043  0.000009  0.001591 -0.022182  0.020595 -0.024160  0.157113 -0.009741  0.028362 -0.051135
                                -0.002413  0.029109 -0.056928  1.097280  0.000279  0.000000 -0.001732  0.000000  0.019424 -0.000000
                                 0.005065  0.027500  0.000285 -0.140903 -0.008207  0.030666

 HOMO      9.1    -0.288673 =      -7.8552eV
 LUMO     10.1    -0.000358 =      -0.0097eV
 LUMO-HOMO         0.288315 =       7.8455eV


 **********************************************************************************************************************************
 DATASETS  * FILE   NREC   LENGTH (MB)   RECORD NAMES
              1      23      319.79       500      610      700      900      950      970     1000      129      960     1700   
                                          VAR    BASINP    GEOM    SYMINP    ZMAT    AOBASIS   BASIS     P2S    ABASIS    OPER   
                                         1101     1401     1411     1412     1650     1100     1400     1410     1200     1210   
                                          SR      EKINR    POTR     PVPR    MOLCAS      S      EKIN      POT      H0       H01  
                                         1300     1080     1600   
                                         ERIS     AOSYM     SMH  

              2       4        3.37       700     1000      520     2100   
                                         GEOM     BASIS   MCVARS     RHF  

 PROGRAMS   *        TOTAL       RHF       INT
 CPU TIMES  *        74.22     16.09     58.00
 REAL TIME  *        78.63 SEC
 DISK USED  *         1.28 GB      
 **********************************************************************************************************************************

1PROGRAM * POP (Mulliken population analysis)

 
 Density matrix read from record         2100.2  Type=RHF/CHARGE (state 1.4)
 
  Individual basis function populations

 Symmetry no. 1

     1 1s     1 1s     1 1s     1 1s     1 1s     1 1s     1 1s     1 1s     1 1s     1 1s   
   0.00000  0.00001  0.00010  0.00060  0.00327  0.01587  0.06595  0.21709  0.50936  0.70921

     1 1s     1 1s     1 1s     1 1s     1 1s     1 1s     1 1s     1 1s     1 1s     1 1s   
   0.38057  0.16067  0.95334  0.87778  0.37455  1.05181  0.56514  0.58237  0.65401  0.15485

     1 1s     1 1s     1 1s     1 2pz    1 2pz    1 2pz    1 2pz    1 2pz    1 2pz    1 2pz  
  -0.08751  0.17579 -0.00554  0.00000  0.00003  0.00044  0.00441  0.02958  0.13357  0.38701

     1 2pz    1 2pz    1 2pz    1 2pz    1 2pz    1 2pz    1 2pz    1 2pz    1 2pz    1 2pz  
   0.67051  0.58382  0.23457  0.55360  0.00671  0.42761  0.02809  0.02150  0.01404  0.01753

     1 2pz    1 2pz    1 3d0    1 3d2+   1 3d0    1 3d2+   1 3d0    1 3d2+   1 3d0    1 3d2+ 
   0.90833 -0.00064  0.00017  0.00000  0.00448  0.00000  0.03963  0.00000  0.16945  0.00000

     1 3d0    1 3d2+   1 3d0    1 3d2+   1 3d0    1 3d2+   1 3d0    1 3d2+   1 3d0    1 3d2+ 
   0.40562  0.00000  0.13199  0.00000  0.00973  0.00000  0.34329  0.00000 -0.00681 -0.00000

     1 3d0    1 3d2+   1 4f0    1 4f2+   1 4f0    1 4f2+   1 4f0    1 4f2+   1 4f0    1 4f2+ 
   0.00001  0.00000  0.00008  0.00000  0.00184  0.00000  0.00720  0.00000 -0.00319  0.00000

     1 5g0    1 5g4+   1 5g2+   1 5g0    1 5g4+   1 5g2+   1 5g0    1 5g4+   1 5g2+   2 1s   
   0.00000  0.00000  0.00000  0.00043  0.00000  0.00000  0.00114  0.00000  0.00000  0.00005

     2 1s     2 1s     2 1s     2 1s     2 1s     2 1s     2 1s     2 1s     2 1s     2 1s   
   0.00109  0.01319  0.09648  0.40540  0.80474  0.50115  1.01037  0.26122  0.75640  0.07437

     2 1s     2 1s     2 2pz    2 2pz    2 2pz    2 2pz    2 2pz    2 2pz    2 2pz    2 2pz  
   0.04311  0.03785  0.00159  0.05422  0.33236  0.67559  0.38751  0.00329  0.00046  0.04392

     2 3d0    2 3d2+   2 3d0    2 3d2+   2 3d0    2 3d2+   2 3d0    2 3d2+   2 4f0    2 4f2+ 
   0.00095  0.00000  0.00999  0.00000  0.00000  0.00000 -0.00212  0.00000  0.00077  0.00000

     2 4f0    2 4f2+ 
   0.00097  0.00000
  

 Symmetry no. 2

     1 2px    1 2px    1 2px    1 2px    1 2px    1 2px    1 2px    1 2px    1 2px    1 2px  
   0.00000  0.00003  0.00044  0.00440  0.02952  0.13332  0.38635  0.66993  0.58464  0.32627

     1 2px    1 2px    1 2px    1 2px    1 2px    1 2px    1 2px    1 2px    1 2px    1 3d1+ 
   0.53043  1.34081  0.46899  0.05146  0.01457 -0.00114 -0.07045 -0.43903 -0.00001  0.00002

     1 3d1+   1 3d1+   1 3d1+   1 3d1+   1 3d1+   1 3d1+   1 3d1+   1 3d1+   1 3d1+   1 4f1+ 
   0.00067  0.00608  0.02285  0.11013  0.08430  0.00693  0.05743  0.00377 -0.00051  0.00004

     1 4f3+   1 4f1+   1 4f3+   1 4f1+   1 4f3+   1 4f1+   1 4f3+   1 5g1+   1 5g3+   1 5g1+ 
   0.00002  0.00095  0.00005  0.01301  0.00003 -0.00120 -0.00000 -0.00000  0.00000  0.00040

     1 5g3+   1 5g1+   1 5g3+   2 2px    2 2px    2 2px    2 2px    2 2px    2 2px    2 2px  
   0.00000  0.00387  0.00000  0.00166  0.05599  0.34002  0.70393  0.50647  0.00329  0.00047

     2 2px    2 3d1+   2 3d1+   2 3d1+   2 3d1+   2 4f1+   2 4f3+   2 4f1+   2 4f3+ 
   0.03389  0.00047  0.00662  0.00000  0.00635  0.00026  0.00000  0.00119 -0.00000
  

 Symmetry no. 3

     1 2py    1 2py    1 2py    1 2py    1 2py    1 2py    1 2py    1 2py    1 2py    1 2py  
   0.00000  0.00003  0.00044  0.00440  0.02952  0.13332  0.38635  0.66993  0.58464  0.32627

     1 2py    1 2py    1 2py    1 2py    1 2py    1 2py    1 2py    1 2py    1 2py    1 3d1- 
   0.53043  1.34081  0.46899  0.05146  0.01457 -0.00114 -0.07045 -0.43903 -0.00001  0.00002

     1 3d1-   1 3d1-   1 3d1-   1 3d1-   1 3d1-   1 3d1-   1 3d1-   1 3d1-   1 3d1-   1 4f1- 
   0.00067  0.00608  0.02285  0.11013  0.08430  0.00693  0.05743  0.00377 -0.00051  0.00004

     1 4f3-   1 4f1-   1 4f3-   1 4f1-   1 4f3-   1 4f1-   1 4f3-   1 5g1-   1 5g3-   1 5g1- 
   0.00002  0.00095  0.00005  0.01301  0.00003 -0.00120 -0.00000 -0.00000  0.00000  0.00040

     1 5g3-   1 5g1-   1 5g3-   2 2py    2 2py    2 2py    2 2py    2 2py    2 2py    2 2py  
   0.00000  0.00387  0.00000  0.00166  0.05599  0.34002  0.70393  0.50647  0.00329  0.00047

     2 2py    2 3d1-   2 3d1-   2 3d1-   2 3d1-   2 4f1-   2 4f3-   2 4f1-   2 4f3- 
   0.03389  0.00047  0.00662  0.00000  0.00635  0.00026  0.00000  0.00119 -0.00000
  

 Symmetry no. 4

     1 3d2-   1 3d2-   1 3d2-   1 3d2-   1 3d2-   1 3d2-   1 3d2-   1 3d2-   1 3d2-   1 3d2- 
   0.00020  0.00533  0.04691  0.18935  0.31177  0.09031  0.00288  0.35390 -0.00147 -0.00002

     1 4f2-   1 4f2-   1 4f2-   1 4f2-   1 5g2-   1 5g4-   1 5g2-   1 5g4-   1 5g2-   1 5g4- 
  -0.00000  0.00001  0.00010  0.00003  0.00000  0.00000  0.00001  0.00000  0.00000  0.00000

     2 3d2-   2 3d2-   2 3d2-   2 3d2-   2 4f2-   2 4f2- 
   0.00001  0.00026  0.00000  0.00018  0.00002  0.00022
  
 Population analysis by basis function type

 Unique atom        s        p        d        f        g    Total    Charge
   1  V       7.35928 12.08182  2.68005  0.03187  0.01012 22.16314  + 0.83686
   2  O       4.00541  4.79040  0.03617  0.00489  0.00000  8.83686  - 0.83686


 **********************************************************************************************************************************
 DATASETS  * FILE   NREC   LENGTH (MB)   RECORD NAMES
              1      23      319.79       500      610      700      900      950      970     1000      129      960     1700   
                                          VAR    BASINP    GEOM    SYMINP    ZMAT    AOBASIS   BASIS     P2S    ABASIS    OPER   
                                         1101     1401     1411     1412     1650     1100     1400     1410     1200     1210   
                                          SR      EKINR    POTR     PVPR    MOLCAS      S      EKIN      POT      H0       H01  
                                         1300     1080     1600   
                                         ERIS     AOSYM     SMH  

              2       4        3.37       700     1000      520     2100   
                                         GEOM     BASIS   MCVARS     RHF  

 PROGRAMS   *        TOTAL       POP       RHF       INT
 CPU TIMES  *        74.23      0.00     16.09     58.00
 REAL TIME  *        78.64 SEC
 DISK USED  *         1.28 GB      
 **********************************************************************************************************************************

1PROGRAM * RHF-SCF (OPEN SHELL)       Authors: W. Meyer, H.-J. Werner


 NUMBER OF ELECTRONS:      17+   14-    SPACE SYMMETRY=1    SPIN SYMMETRY: Quartet 
 CONVERGENCE THRESHOLDS:    1.00E-05 (Density)    1.00E-07 (Energy)
 MAX. NUMBER OF ITERATIONS:       60
 INTERPOLATION TYPE:            DIIS
 INTERPOLATION STEPS:              2 (START)      1 (STEP)
 LEVEL SHIFTS:                 -0.30 (CLOSED)  0.00 (OPEN) 


 Singly occupied orbitals:      9.1      10.1      11.1
 
 Extra symmetries of mos in symmetry 1:   1   1   1   1   1   1   1   1   2   2   1
 Molecular orbitals read from record     2100.2  Type=RHF/CANONICAL (state 1.4)

 Molecular orbital dump at record        2101.2

 ITERATION    DDIFF          GRAD             ENERGY        2-EL.EN.            DIPOLE MOMENTS         DIIS   ORB.
    1      0.000D+00      0.000D+00     -1022.61188645    855.757385    0.00000    0.00000   -1.82896    0    start
    2      0.000D+00      0.786D-02     -1022.73254217    884.081661    0.00000    0.00000   -1.35668    1    diag,B
    3      0.143D-01      0.961D-02     -1022.76131086    867.511569    0.00000    0.00000   -0.41354    2    fixocc
     Orbital  9.1 strongly deviates from fixed occupation: 0.83359  (now: 1.00)
     Note:  Use {hf,nitord=N} to fix occupations at iteration N
            Use {gthresh,occdev=1.0} to suppress deviation warnings
    4      0.934D-02      0.221D-02     -1022.79410340    874.375703    0.00000    0.00000   -1.82454    3    diag,B
     Orbital  9.1 strongly deviates from fixed occupation: 0.89200  (now: 1.00)
    5      0.545D-02      0.237D-02     -1022.78031113    869.515526    0.00000    0.00000   -0.84316    4    diag,B
    6      0.464D-02      0.797D-03     -1022.78206561    869.900808    0.00000    0.00000   -0.92393    5    diag,B
    7      0.100D-02      0.588D-03     -1022.78263351    870.089235    0.00000    0.00000   -0.94777    6    diag,B
    8      0.961D-03      0.527D-03     -1022.78195811    869.957857    0.00000    0.00000   -0.93387    7    orth
    9      0.707D-03      0.539D-03     -1022.78173280    869.907307    0.00000    0.00000   -0.92440    8    diag,B
   10      0.198D-03      0.555D-03     -1022.78048616    869.664887    0.00000    0.00000   -0.88135    9    diag,B
   11      0.505D-03      0.604D-03     -1022.78071829    869.707520    0.00000    0.00000   -0.88939    9    diag,B
   12      0.743D-04      0.591D-03     -1022.78007723    869.566177    0.00000    0.00000   -0.87093    9    diag,B
   13      0.429D-03      0.624D-03     -1022.77981037    869.518533    0.00000    0.00000   -0.86403    9    diag,B
   14      0.218D-03      0.640D-03     -1022.77944803    869.460836    0.00000    0.00000   -0.85136    9    diag,B
   15      0.796D-04      0.654D-03     -1022.77965245    869.496972    0.00000    0.00000   -0.85897    9    diag,B
   16      0.394D-04      0.644D-03     -1022.77930672    869.437812    0.00000    0.00000   -0.84682    9    diag,B
   17      0.562D-04      0.662D-03     -1022.77941039    869.455200    0.00000    0.00000   -0.85060    9    diag,B
   18      0.231D-04      0.657D-03     -1022.77940984    869.455913    0.00000    0.00000   -0.85047    9    orth
   19      0.392D-04      0.658D-03     -1022.77939737    869.451992    0.00000    0.00000   -0.85004    9    diag,B
   20      0.490D-04      0.657D-03     -1022.77940548    869.453204    0.00000    0.00000   -0.85036    9    diag,B
   21      0.340D-05      0.657D-03     -1022.77941126    869.453794    0.00000    0.00000   -0.85045    9    diag,B
   22      0.305D-04      0.657D-03     -1022.77940246    869.452422    0.00000    0.00000   -0.85022    9    diag,B
   23      0.312D-04      0.657D-03     -1022.77940595    869.452930    0.00000    0.00000   -0.85034    9    diag,B
   24      0.115D-05      0.657D-03     -1022.77940027    869.452083    0.00000    0.00000   -0.85006    9    diag,B
   25      0.300D-04      0.658D-03     -1022.77940480    869.452688    0.00000    0.00000   -0.85029    9    diag,B
   26      0.309D-04      0.657D-03     -1022.77940538    869.452783    0.00000    0.00000   -0.85032    9    diag,B
   27      0.278D-06      0.657D-03     -1022.77940412    869.452308    0.00000    0.00000   -0.85021    9    diag,B
   28      0.223D-04      0.657D-03     -1022.77940563    869.452761    0.00000    0.00000   -0.85032    9    orth
   29      0.210D-04      0.657D-03     -1022.77940597    869.452788    0.00000    0.00000   -0.85033    9    diag,B
   30      0.665D-06      0.657D-03     -1022.77940093    869.452224    0.00000    0.00000   -0.85016    9    diag,B
   31      0.154D-04      0.657D-03     -1022.77940346    869.452653    0.00000    0.00000   -0.85025    9    diag,B
   32      0.463D-04      0.657D-03     -1022.77940553    869.452873    0.00000    0.00000   -0.85032    9    diag,B
   33      0.588D-04      0.657D-03     -1022.77940425    869.452578    0.00000    0.00000   -0.85027    9    diag,B
   34      0.236D-04      0.657D-03     -1022.77940465    869.452625    0.00000    0.00000   -0.85028    9    diag,B
   35      0.177D-04      0.657D-03     -1022.77940567    869.452752    0.00000    0.00000   -0.85032    9    diag,B
   36      0.165D-04      0.657D-03     -1022.77940556    869.452712    0.00000    0.00000   -0.85031    9    diag,B
   37      0.223D-05      0.657D-03     -1022.77940538    869.452634    0.00000    0.00000   -0.85030    9    diag,B
   38      0.164D-04      0.657D-03     -1022.77940564    869.452587    0.00000    0.00000   -0.85031    9    orth
   39      0.188D-04      0.657D-03     -1022.77940562    869.452667    0.00000    0.00000   -0.85031    9    diag,B
   40      0.202D-04      0.657D-03     -1022.77940518    869.452476    0.00000    0.00000   -0.85029    9    diag,B
   41      0.223D-04      0.657D-03     -1022.77940585    869.452567    0.00000    0.00000   -0.85032    9    diag,B
   42      0.106D-04      0.657D-03     -1022.77940503    869.452128    0.00000    0.00000   -0.85027    9    diag,B
   43      0.401D-04      0.657D-03     -1022.77940477    869.452187    0.00000    0.00000   -0.85027    9    diag,B
   44      0.147D-04      0.657D-03     -1022.77940446    869.451521    0.00000    0.00000   -0.85022    9    diag,B
   45      0.618D-04      0.657D-03     -1022.77940512    869.451556    0.00000    0.00000   -0.85025    9    diag,B
   46      0.774D-05      0.657D-03     -1022.77940074    869.449566    0.00000    0.00000   -0.85000    9    diag,B
   47      0.735D-04      0.658D-03     -1022.77940170    869.449430    0.00000    0.00000   -0.85002    9    diag,B
   48      0.157D-04      0.658D-03     -1022.77939782    869.448861    0.00000    0.00000   -0.84985    9    orth
   49      0.301D-04      0.658D-03     -1022.77939985    869.447717    0.00000    0.00000   -0.84986    9    diag,B
   50      0.807D-04      0.658D-03     -1022.77939575    869.446211    0.00000    0.00000   -0.84964    9    diag,B
   51      0.247D-04      0.658D-03     -1022.77939446    869.446052    0.00000    0.00000   -0.84960    9    diag,B
   52      0.496D-05      0.658D-03     -1022.77939513    869.445244    0.00000    0.00000   -0.84955    9    diag,B
   53      0.297D-04      0.659D-03     -1022.77940286    869.450398    0.00000    0.00000   -0.85016    9    diag,B
   54      0.146D-03      0.658D-03     -1022.77939585    869.447535    0.00000    0.00000   -0.84978    9    diag,B
   55      0.633D-04      0.658D-03     -1022.77940178    869.448111    0.00000    0.00000   -0.85002    9    diag,B
   56      0.325D-04      0.658D-03     -1022.77939424    869.445742    0.00000    0.00000   -0.84965    9    diag,B
   57      0.328D-04      0.659D-03     -1022.77939287    869.445542    0.00000    0.00000   -0.84960    9    diag,B
   58      0.747D-05      0.659D-03     -1022.77939446    869.444988    0.00000    0.00000   -0.84960    9    orth
   59      0.262D-04      0.659D-03     -1022.79128834    871.827077    0.00000    0.00000   -1.33692    9    orth
   60      0.234D-02      0.595D-03     -1022.79573307    872.246576    0.00000    0.00000   -1.50609    0    orth

 Final alpha occupancy:  11   3   3   0
 Final beta  occupancy:   8   3   3   0

 !RHF STATE 1.1 Energy              -1022.795733069563
 Nuclear energy                        61.27665605
 One-electron energy                -1520.19567699
 Two-electron energy                  436.12328787
 Virial quotient                       -0.96967214
 !RHF STATE 1.1 Dipole moment           0.00000000     0.00000000    -1.50609212
 Dipole moment /Debye                   0.00000000     0.00000000    -3.82785360

 ELECTRON ORBITALS
 =================


   Orb  Occ    Energy  Couls-En    Coefficients

                                   1 1s      1 1s      1 1s      1 1s      1 1s      1 1s      1 1s      1 1s      1 1s      1 1s   
                                   1 1s      1 1s      1 1s      1 1s      1 1s      1 1s      1 1s      1 1s      1 1s      1 1s   
                                   1 1s      1 1s      1 1s      1 2pz     1 2pz     1 2pz     1 2pz     1 2pz     1 2pz     1 2pz  
                                   1 2pz     1 2pz     1 2pz     1 2pz     1 2pz     1 2pz     1 2pz     1 2pz     1 2pz     1 2pz  
                                   1 2pz     1 2pz     1 3d0     1 3d2+    1 3d0     1 3d2+    1 3d0     1 3d2+    1 3d0     1 3d2+ 
                                   1 3d0     1 3d2+    1 3d0     1 3d2+    1 3d0     1 3d2+    1 3d0     1 3d2+    1 3d0     1 3d2+ 
                                   1 3d0     1 3d2+    1 4f0     1 4f2+    1 4f0     1 4f2+    1 4f0     1 4f2+    1 4f0     1 4f2+ 
                                   1 5g0     1 5g4+    1 5g2+    1 5g0     1 5g4+    1 5g2+    1 5g0     1 5g4+    1 5g2+    2 1s   
                                   2 1s      2 1s      2 1s      2 1s      2 1s      2 1s      2 1s      2 1s      2 1s      2 1s   
                                   2 1s      2 1s      2 2pz     2 2pz     2 2pz     2 2pz     2 2pz     2 2pz     2 2pz     2 2pz  
                                   2 3d0     2 3d2+    2 3d0     2 3d2+    2 3d0     2 3d2+    2 3d0     2 3d2+    2 4f0     2 4f2+ 
                                   2 4f0     2 4f2+ 

   1.1   2  -203.1920 -472.0995  0.000129  0.000382  0.001075  0.002868  0.007705  0.020798  0.054411  0.129032  0.253751  0.356340
                                 0.268462  0.063612 -0.002319  0.005166  0.006068 -0.002778 -0.000580 -0.000010 -0.000046  0.000010
                                -0.007907  0.002089 -0.000002 -0.000000 -0.000000 -0.000000 -0.000001 -0.000004 -0.000008  0.000002
                                 0.000010 -0.000007 -0.000614  0.000036 -0.001481 -0.000028 -0.000041 -0.000011 -0.000004  0.000607
                                 0.001483  0.000001  0.000000  0.000000  0.000001  0.000000 -0.000002 -0.000000  0.000027  0.000000
                                -0.000012  0.000000 -0.000016  0.000000 -0.000000 -0.000000  0.000009  0.000000 -0.000031 -0.000000
                                -0.000000 -0.000000  0.000002 -0.000000  0.000000  0.000000 -0.000007 -0.000000 -0.000000 -0.000000
                                 0.000001  0.000001  0.000000 -0.000001 -0.000000 -0.000000 -0.000001  0.000000  0.000000 -0.000000
                                 0.000000 -0.000000  0.000000 -0.000001 -0.000009 -0.000012 -0.000013  0.000005  0.000057  0.000013
                                 0.000006  0.000043 -0.000001 -0.000002  0.000002 -0.000007 -0.000046  0.000002  0.000000 -0.000011
                                -0.000001 -0.000000  0.000006  0.000000  0.000000  0.000000  0.000016 -0.000000  0.000001  0.000000
                                -0.000003 -0.000000

   2.1   2   -24.5039  -92.1345 -0.000039 -0.000115 -0.000325 -0.000869 -0.002347 -0.006404 -0.017170 -0.042886 -0.094431 -0.166972
                                -0.181050  0.056979  0.511095  0.504871  0.115562 -0.026444 -0.005976 -0.000044 -0.000559  0.000127
                                -0.023879  0.023452 -0.000030  0.000000  0.000002  0.000008  0.000031  0.000106  0.000298  0.000601
                                 0.000919  0.001167 -0.005728  0.000251 -0.015416 -0.000360 -0.000413 -0.000095 -0.000042  0.006394
                                 0.015399  0.000016  0.000001  0.000000  0.000015  0.000000  0.000046  0.000000  0.000199  0.000000
                                -0.000128  0.000000 -0.000142  0.000000  0.000002 -0.000000  0.000091  0.000000 -0.000240  0.000000
                                -0.000001 -0.000000  0.000003 -0.000000 -0.000041  0.000000 -0.000053 -0.000000  0.000003  0.000000
                                 0.000072  0.000112  0.000000  0.000023  0.000042  0.000000 -0.000006 -0.000001 -0.000000  0.000000
                                 0.000000  0.000000  0.000001  0.000001 -0.000045 -0.000084 -0.000154  0.000042  0.000586  0.000093
                                 0.000034  0.000472 -0.000005 -0.000013  0.000016 -0.000059 -0.000506  0.000009  0.000002 -0.000127
                                -0.000007  0.000000  0.000076  0.000000  0.000001  0.000000  0.000185 -0.000000  0.000008  0.000000
                                -0.000046 -0.000000

   3.1   2   -20.7286  -60.3390  0.000000  0.000000  0.000000  0.000000 -0.000000  0.000000 -0.000000  0.000002 -0.000004  0.000016
                                -0.000033  0.000098 -0.000307  0.001376  0.006687 -0.007347 -0.003108 -0.011924  0.002738 -0.001688
                                -0.005533  0.007500  0.000446  0.000000  0.000000  0.000002  0.000005  0.000029  0.000042  0.000196
                                 0.000015  0.000993  0.060087 -0.003526  0.159601  0.003662 -0.007843 -0.001501 -0.000011 -0.059018
                                -0.160272  0.000009  0.000001 -0.000000  0.000000 -0.000000  0.000036 -0.000000 -0.000576 -0.000000
                                 0.000863 -0.000000 -0.002841 -0.000000 -0.000378 -0.000000 -0.000491 -0.000000  0.000774  0.000000
                                 0.000072 -0.000000 -0.000053 -0.000000  0.000133 -0.000000  0.000516 -0.000000 -0.000544  0.000000
                                -0.000029 -0.000000 -0.000000  0.000166 -0.000000 -0.000000  0.000508 -0.000000  0.000000  0.000742
                                 0.004246  0.020677  0.080059  0.229108  0.401052  0.317522 -0.017606  0.050018  0.016077  0.038997
                                 0.023355  0.003032  0.000048 -0.000212 -0.000841  0.001797 -0.007784 -0.000336 -0.000053 -0.000676
                                 0.000023 -0.000000 -0.000310 -0.000000  0.000031  0.000000  0.002378  0.000000  0.000150  0.000000
                                -0.000225 -0.000000

   4.1   2   -20.4066  -87.0281  0.000000  0.000000  0.000001  0.000003  0.000008  0.000021  0.000056  0.000138  0.000306  0.000540
                                 0.000605 -0.000252 -0.001803 -0.001143 -0.000664 -0.000544 -0.000189 -0.000005  0.000029 -0.000008
                                 0.000240  0.000370  0.000000  0.000108  0.000538  0.002576  0.010366  0.035107  0.097350  0.209692
                                 0.329966  0.330249  0.162159  0.023224  0.005246  0.000217 -0.000047  0.000040 -0.000009 -0.005324
                                -0.004248  0.000002  0.000008 -0.000000  0.000118 -0.000000  0.000564 -0.000000  0.000413 -0.000000
                                -0.000012  0.000000  0.000026 -0.000000  0.000009 -0.000000 -0.000002  0.000000 -0.000325  0.000000
                                -0.000002 -0.000000  0.000273  0.000000  0.000122  0.000000  0.000032  0.000000  0.000007 -0.000000
                                 0.000016 -0.000001 -0.000000 -0.000014 -0.000000  0.000000  0.000005 -0.000000  0.000000 -0.000000
                                -0.000003 -0.000014 -0.000054 -0.000152 -0.000227 -0.000145  0.000056 -0.000071  0.000075 -0.000104
                                -0.000045 -0.000012 -0.000004 -0.000022 -0.000022 -0.000116 -0.000083  0.000005  0.000001  0.000009
                                 0.000007  0.000000  0.000064 -0.000000  0.000001 -0.000000  0.000022  0.000000 -0.000018 -0.000000
                                -0.000018  0.000000

   5.1   2    -3.5308  -30.8959  0.000014  0.000042  0.000118  0.000317  0.000856  0.002346  0.006284  0.015864  0.035175  0.064564
                                 0.072349 -0.023143 -0.297511 -0.437189  0.178267  0.664910  0.352907  0.005984 -0.013393  0.002324
                                -0.057235  0.093141 -0.000504 -0.000000 -0.000000 -0.000000 -0.000000 -0.000006 -0.000001 -0.000047
                                 0.000120 -0.000786 -0.043002  0.007086 -0.177675 -0.009310 -0.005747 -0.004349 -0.000848  0.041753
                                 0.176369  0.000253 -0.000006  0.000000 -0.000014  0.000000 -0.000220  0.000002  0.002179  0.000003
                                -0.001580  0.000005 -0.002824  0.000002 -0.000969  0.000000  0.000132  0.000007 -0.002573  0.000002
                                 0.000035  0.000001 -0.000273  0.000000 -0.000010  0.000000 -0.000582  0.000001 -0.000327 -0.000000
                                 0.000160  0.000284  0.000000  0.000887  0.000776  0.000000  0.000128  0.000334 -0.000000 -0.000004
                                -0.000021 -0.000102 -0.000401 -0.001256 -0.003030 -0.003445  0.009562  0.002033  0.012521  0.000112
                                 0.000163  0.010300 -0.000143 -0.001380 -0.003849 -0.008790 -0.008261 -0.000091 -0.000052 -0.002048
                                 0.000907  0.000000  0.003474  0.000000  0.000037  0.000000  0.001768  0.000000 -0.000816 -0.000000
                                -0.000677 -0.000000

   6.1   2    -2.3432  -27.7958 -0.000000 -0.000000 -0.000001 -0.000002 -0.000007 -0.000018 -0.000050 -0.000116 -0.000290 -0.000445
                                -0.000695  0.000586  0.001118  0.008820  0.035424 -0.048061 -0.045317 -0.012123 -0.021476 -0.000951
                                -0.027390  0.058558  0.000605 -0.000038 -0.000187 -0.000897 -0.003626 -0.012449 -0.035359 -0.079004
                                -0.129976 -0.136604 -0.030011  0.331073  0.020857  0.255075  0.026372 -0.018754 -0.000529  0.051850
                                 0.446018  0.000225 -0.000042  0.000000 -0.000281  0.000000 -0.001436  0.000000 -0.000429  0.000001
                                -0.005886  0.000001 -0.002642  0.000000 -0.004285 -0.000001 -0.002763  0.000001 -0.001463  0.000000
                                 0.000519 -0.000006  0.001350  0.000001  0.003862  0.000003  0.002272  0.000003 -0.000825  0.000001
                                 0.000102 -0.000001 -0.000000  0.000725 -0.000005  0.000000 -0.000045 -0.000007  0.000001 -0.000019
                                -0.000111 -0.000546 -0.002154 -0.006746 -0.016033 -0.018974  0.060373  0.014276  0.037643  0.000073
                                 0.000533  0.030100 -0.000578 -0.006155 -0.019361 -0.035854 -0.019957 -0.000603 -0.000267 -0.006195
                                 0.002962  0.000000  0.010384  0.000000  0.000116  0.000000  0.003229  0.000000 -0.002177 -0.000000
                                -0.002033 -0.000000

   7.1   2    -1.3542  -16.8604 -0.000001 -0.000004 -0.000012 -0.000032 -0.000086 -0.000235 -0.000627 -0.001589 -0.003516 -0.006504
                                -0.007250  0.002199  0.031562  0.046072 -0.033511 -0.068910 -0.018338 -0.020839 -0.004510 -0.006114
                                 0.014703 -0.059960  0.001682  0.000008  0.000042  0.000201  0.000810  0.002791  0.007913  0.017785
                                 0.029131  0.031460  0.056894 -0.085389  0.199679 -0.043916 -0.024127 -0.007412 -0.003058 -0.062479
                                -0.319773  0.000667  0.000542 -0.000000  0.003790 -0.000000  0.014132 -0.000002  0.036535 -0.000003
                                 0.063311 -0.000009  0.009120 -0.000000 -0.002752  0.000003  0.055793 -0.000007 -0.002863 -0.000002
                                 0.000313  0.000011  0.000743 -0.000000  0.005825 -0.000001  0.008819 -0.000000 -0.000218  0.000001
                                 0.000245 -0.000027  0.000000  0.001306 -0.000100 -0.000000  0.002408 -0.000100  0.000001 -0.000162
                                -0.000923 -0.004562 -0.017974 -0.056873 -0.142266 -0.177738  0.549236  0.154356  0.398557  0.013755
                                 0.008746  0.042830 -0.000640 -0.006015 -0.017393 -0.038210 -0.068999 -0.000340 -0.000219 -0.006345
                                 0.001379  0.000000  0.010902  0.000006  0.000055  0.000000  0.017687  0.000016 -0.001158  0.000000
                                -0.002756 -0.000002

   8.1   2    -0.6673  -16.7778  0.000001  0.000004  0.000012  0.000032  0.000085  0.000233  0.000626  0.001578  0.003518  0.006449
                                 0.007344 -0.002496 -0.030971 -0.051749  0.013648  0.096328  0.037553 -0.064819  0.025394 -0.003248
                                 0.003244  0.050850 -0.001430 -0.000005 -0.000023 -0.000109 -0.000448 -0.001512 -0.004403 -0.009584
                                -0.016713 -0.014423  0.243521  0.030231  0.776351  0.028371 -0.001837  0.021684  0.007367 -0.233485
                                -0.701184 -0.002675 -0.001919  0.000000 -0.013403  0.000002 -0.050212  0.000008 -0.125689  0.000014
                                -0.209879  0.000040 -0.095371  0.000019  0.000807 -0.000013 -0.191327  0.000027  0.003842  0.000005
                                -0.001230 -0.000074 -0.001710  0.000000 -0.008260  0.000002 -0.012203 -0.000002 -0.005550  0.000004
                                -0.000225  0.000086 -0.000000 -0.002250  0.000235 -0.000000 -0.002232  0.000264 -0.000006 -0.000032
                                -0.000184 -0.000913 -0.003587 -0.011523 -0.031069 -0.040974  0.123349  0.039609  0.159252  0.007101
                                 0.003227 -0.029081  0.006618  0.072118  0.239395  0.380087  0.255832  0.006951  0.003031  0.027394
                                -0.007416  0.000000 -0.024694  0.000001 -0.000318  0.000000 -0.022106  0.000013  0.004064 -0.000000
                                 0.005252  0.000006

   9.1   +    -0.7798  -22.2021 -0.000000 -0.000000 -0.000000 -0.000000 -0.000000 -0.000000 -0.000000 -0.000000 -0.000000 -0.000001
                                -0.000001 -0.000001  0.000007 -0.000006 -0.000079  0.000097  0.000128 -0.000024 -0.000101  0.000030
                                 0.000057 -0.000186 -0.000003  0.000000  0.000000  0.000000  0.000000  0.000001  0.000002  0.000003
                                 0.000006  0.000006 -0.000011 -0.000017 -0.000024 -0.000011  0.000014 -0.000003  0.000002  0.000009
                                -0.000001  0.000001 -0.000001 -0.004054 -0.000010 -0.028210 -0.000038 -0.106686 -0.000094 -0.258983
                                -0.000108 -0.377270  0.000003 -0.154252  0.000004 -0.003760 -0.000136 -0.391891  0.000003 -0.000744
                                -0.000002 -0.001190  0.000000 -0.000667  0.000003  0.001557  0.000010  0.009477 -0.000001  0.003239
                                 0.000001  0.000000  0.001022  0.000001  0.000001  0.003123 -0.000002 -0.000018  0.002686 -0.000000
                                -0.000000 -0.000000 -0.000001 -0.000002 -0.000007 -0.000010  0.000019  0.000008  0.000037  0.000003
                                 0.000001  0.000031 -0.000001 -0.000010 -0.000031 -0.000051 -0.000062 -0.000001 -0.000000 -0.000020
                                -0.000001 -0.000952  0.000001 -0.004394 -0.000000 -0.000050  0.000008 -0.001095  0.000001  0.000853
                                -0.000001  0.001765

  10.1   +    -0.0554   -4.3469 -0.000000 -0.000000 -0.000000 -0.000000 -0.000001 -0.000002 -0.000006 -0.000015 -0.000033 -0.000060
                                -0.000068  0.000024  0.000287  0.000496 -0.000082 -0.001083 -0.001199  0.007173 -0.001743  0.010421
                                -0.000069 -0.000156 -0.029092 -0.000000 -0.000000 -0.000000 -0.000001 -0.000005 -0.000013 -0.000029
                                -0.000050 -0.000044  0.000644  0.000088  0.004117  0.000318  0.000325 -0.002806 -0.002497 -0.000612
                                -0.003925 -0.002820 -0.000013 -0.000408 -0.000092 -0.002756 -0.000344 -0.010922 -0.000916 -0.019144
                                -0.001230 -0.040763  0.000039  0.030767  0.002349  0.166041 -0.001316 -0.034856  0.000086 -0.007957
                                 0.004411  0.881167  0.000006  0.000037  0.000037 -0.000522  0.000289  0.003148  0.000220 -0.034006
                                -0.000000  0.000003  0.000054  0.000012  0.000010  0.000322  0.000034  0.000003 -0.000946 -0.000000
                                -0.000002 -0.000008 -0.000032 -0.000100 -0.000227 -0.000277  0.001312  0.000277  0.000577 -0.000028
                                -0.000003  0.000327 -0.000006 -0.000065 -0.000227 -0.000344  0.000385 -0.000007 -0.000003 -0.000787
                                -0.000004  0.000636 -0.000052  0.003279 -0.000000  0.000038 -0.000252  0.004494  0.000006  0.000066
                                 0.000027 -0.000681

  11.1   +    -0.4530  -13.8505  0.000004  0.000011  0.000031  0.000084  0.000226  0.000623  0.001659  0.004227  0.009283  0.017392
                                 0.018983 -0.004977 -0.088164 -0.112886  0.171112  0.087091  0.121098 -0.638445 -0.175981 -0.059462
                                -0.098667  0.314597  0.005606 -0.000000 -0.000000 -0.000002 -0.000002 -0.000033 -0.000006 -0.000261
                                 0.000343 -0.002497 -0.203908  0.017809 -0.937941 -0.035586  0.098204  0.129456  0.014173  0.198978
                                 0.940843 -0.002522  0.001885  0.000000  0.013131  0.000000  0.049472  0.000004  0.121393 -0.000029
                                 0.193843  0.000018  0.129802 -0.000226  0.018894 -0.000226  0.183881 -0.000012 -0.000600  0.000041
                                -0.000618  0.000082 -0.000240 -0.000000 -0.002970  0.000002 -0.014852 -0.000001 -0.007751  0.000111
                                -0.000033 -0.000471  0.000000 -0.000617 -0.001947  0.000001 -0.002621 -0.002241  0.000009 -0.000005
                                -0.000026 -0.000127 -0.000511 -0.001558 -0.002929 -0.002875  0.030252  0.003584 -0.008292 -0.001955
[...]
 LUMO      3.3     0.015075 =       0.4102eV
 LUMO-HOMO         0.490765 =      13.3544eV


 **********************************************************************************************************************************
 DATASETS  * FILE   NREC   LENGTH (MB)   RECORD NAMES
              1      24       83.33       500      610      700      701      900      950      970     1001      129      960   
                                          VAR    BASINP    GEOM     GEOM    SYMINP    ZMAT    AOBASIS   BASIS     P2S    ABASIS    
                                         1700     1101     1401     1411     1412     1650     1100     1400     1410     1200   
                                         OPER      SR      EKINR    POTR     PVPR    MOLCAS      S      EKIN      POT      H0  
                                         1210     1300     1080     1600   
                                          H01     ERIS     AOSYM     SMH  

              2       8        9.78       700     1000      520     2100     2101      701     1001     2102   
                                         GEOM     BASIS   MCVARS     RHF      RHF     GEOM     BASIS     RHF  

 PROGRAMS   *        TOTAL       RHF       INT       RHF       POP       RHF       INT
 CPU TIMES  *       149.16      1.04     17.71     56.18      0.00     16.09     58.00
 REAL TIME  *       159.02 SEC
 DISK USED  *         1.28 GB      
 **********************************************************************************************************************************
 SETTING V_SCF          =      -948.14091342  AU                              
 SETTING _CC_NORM_MAX   =         2.00000000                                  


1PROGRAM * CCSD (Restricted open-shell coupled cluster)     Authors: C. Hampel, H.-J. Werner, 1991, M. Deegan, P.J. Knowles, 1992


 Convergence thresholds:  THRVAR = 1.00D-08  THRDEN = 1.00D-06

 CCSD(T)     terms to be evaluated (factor= 1.000)


 Number of closed-shell orbitals:  10 (   4   2   2   0   2   0   0   0 )
 Number of active  orbitals:        3 (   2   0   0   0   0   1   0   0 )
 Number of external orbitals:     172 (  46  25  25  16  25  15  16   4 )

 Memory could be reduced to 17.05 Mwords without degradation in triples

 Number of N-1 electron functions:              23
 Number of N-2 electron functions:             253
 Number of singly external CSFs:               796
 Number of doubly external CSFs:            818772
 Total number of CSFs:                      819568

 Molecular orbitals read from record     2102.2  Type=RHF/CANONICAL (state 1.6)

 Integral transformation finished. Total CPU:   0.73 sec, npass=  1  Memory used:   2.89 MW

 Starting RMP2 calculation

 Wavefunction is spin-projected

 ITER.      SQ.NORM     CORR.ENERGY   TOTAL ENERGY   ENERGY CHANGE        DEN1      VAR(S)    VAR(P)  DIIS     TIME
   1      1.09917004    -0.83349618  -948.97440961    -0.83349618    -0.00118899  0.35D-05  0.10D-02  1  1     0.85
   2      1.10193608    -0.83478346  -948.97569688    -0.00128728    -0.00002329  0.11D-06  0.28D-04  2  2     0.95
   3      1.10244931    -0.83494280  -948.97585622    -0.00015934    -0.00000014  0.61D-08  0.14D-06  3  3     1.05
   4      1.10247216    -0.83494722  -948.97586065    -0.00000443    -0.00000000  0.25D-09  0.16D-08  4  4     1.16
   5      1.10247244    -0.83494715  -948.97586058     0.00000007    -0.00000000  0.21D-10  0.16D-10  5  5     1.27

 Norm of t1 vector:      0.03254447      S-energy:    -0.00419040      T1 diagnostic:  0.00013010
 Norm of t2 vector:      0.31845454      P-energy:    -0.83075675
                                         Alpha-Beta:  -0.58723360
                                         Alpha-Alpha: -0.14932304
                                         Beta-Beta:   -0.09420010

 Spin contamination <S**2-Sz**2-Sz>     0.00000000
  Reference energy                   -948.140913424848
  RHF-RMP2 correlation energy          -0.834947151317
 !RHF-RMP2 energy                    -948.975860576164
 (NB above energy spin projected)

 Starting RCCSD calculation

 ITER.      SQ.NORM     CORR.ENERGY   TOTAL ENERGY   ENERGY CHANGE        DEN1      VAR(S)    VAR(P)  DIIS     TIME
   1      1.10560768    -0.82942264  -948.97033607    -0.82942264    -0.00919777  0.25D-02  0.29D-02  1  1     4.43
   2      1.12018431    -0.83792495  -948.97883838    -0.00850231    -0.00131769  0.51D-03  0.79D-03  2  2     7.42
   3      1.13153443    -0.84072853  -948.98164196    -0.00280358    -0.00026893  0.14D-03  0.16D-03  3  3    10.20
   4      1.14080733    -0.84245957  -948.98337300    -0.00173104    -0.00004205  0.55D-05  0.24D-04  4  4    12.76
   5      1.14367470    -0.84275398  -948.98366741    -0.00029441    -0.00001600  0.26D-05  0.96D-05  5  5    14.84
   6      1.14501216    -0.84288789  -948.98380131    -0.00013390    -0.00000613  0.22D-05  0.33D-05  6  6    17.40
   7      1.14510455    -0.84288746  -948.98380088     0.00000043    -0.00000126  0.79D-06  0.58D-06  6  1    19.41
   8      1.14494252    -0.84285964  -948.98377306     0.00002782    -0.00000031  0.14D-06  0.17D-06  6  2    22.55
   9      1.14499196    -0.84286986  -948.98378328    -0.00001022    -0.00000008  0.66D-07  0.26D-07  6  3    25.16
  10      1.14498717    -0.84286766  -948.98378109     0.00000219    -0.00000003  0.35D-07  0.80D-08  6  4    27.26
  11      1.14500305    -0.84286773  -948.98378115    -0.00000006    -0.00000002  0.16D-07  0.30D-08  6  5    29.29
  12      1.14500040    -0.84286515  -948.98377857     0.00000258    -0.00000001  0.59D-08  0.13D-08  6  6    31.76
  13      1.14500389    -0.84286466  -948.98377808     0.00000049    -0.00000000  0.20D-08  0.12D-08  6  4    33.67

 Norm of t1 vector:      0.11344040      S-energy:    -0.00427674      T1 diagnostic:  0.01549120
                                                                       D1 diagnostic:  0.06807869
 Norm of t2 vector:      0.36350401      P-energy:    -0.83858792
                                         Alpha-Beta:  -0.60427768
                                         Alpha-Alpha: -0.14378035
                                         Beta-Beta:   -0.09052988

 Singles amplitudes (print threshold =  0.500E-01):

         I         SYM. A    A   T(IA) [Alpha-Alpha]

         4         1         6     -0.06419279

 Doubles amplitudes (print threshold =  0.500E-01):

         I         J         SYM. A    SYM. B    A         B      T(IJ, AB) [Alpha-Alpha]

        13         6         4         7         2         2     -0.05131266
        13         6         7         4         2         2      0.05131266
 
         I         J         SYM. A    SYM. B    A         B      T(IJ, AB) [Alpha-Beta]

         4         4         2         2         2         2     -0.05175033
         4         4         3         3         1         2     -0.05105180
         4         4         3         3         2         1     -0.05105180
         4         4         3         3         2         2     -0.05644400
         4         4         5         5         2         2     -0.05175033

 Spin contamination <S**2-Sz**2-Sz>     0.00000000

 Memory could be reduced to 19.04 Mwords without degradation in triples
 

  Correlated core orbitals:             1.1       2.1       3.1       1.2       2.2       1.3       2.3       1.5       2.5
  Orbital energies:                  -202.8726  -24.1873   -3.3285  -20.0918   -2.1660  -20.0930   -2.1253  -20.0918   -2.1660
 
  RCCSD core-core energy               -0.574876519622
  RCCSD core-valence energy            -0.194616110155
  RCCSD valence correlation energy     -0.073372028340
 

 RESULTS
 =======

  Reference energy                   -948.140913424848
  RCCSD singles energy                 -0.004276742040
  RCCSD pair energy                    -0.838587916076
  RCCSD correlation energy             -0.842864658116
  Triples (T) contribution             -0.018425226827
  Total correlation energy             -0.861289884943
 
  RHF-RCCSD energy                   -948.983778082964
  RHF-RCCSD[T] energy                -949.002525321592
  RHF-RCCSD-T energy                 -949.002166392483
 !RHF-RCCSD(T) energy                -949.002203309791

 Program statistics:

 Available memory in ccsd:               511998418
 Min. memory needed in ccsd:               2404581
 Max. memory used in ccsd:                 3419307
 Max. memory used in cckext:               2665688 (13 integral passes)
 Max. memory used in cckint:               2888274 ( 1 integral passes)



 **********************************************************************************************************************************
 DATASETS  * FILE   NREC   LENGTH (MB)   RECORD NAMES
              1      24       83.33       500      610      700      701      900      950      970     1001      129      960   
                                          VAR    BASINP    GEOM     GEOM    SYMINP    ZMAT    AOBASIS   BASIS     P2S    ABASIS    
                                         1700     1101     1401     1411     1412     1650     1100     1400     1410     1200   
                                         OPER      SR      EKINR    POTR     PVPR    MOLCAS      S      EKIN      POT      H0  
                                         1210     1300     1080     1600   
                                          H01     ERIS     AOSYM     SMH  

              2       8        9.78       700     1000      520     2100     2101      701     1001     2102   
                                         GEOM     BASIS   MCVARS     RHF      RHF     GEOM     BASIS     RHF  

 PROGRAMS   *        TOTAL  RCCSD(T)       RHF       INT       RHF       POP       RHF       INT
 CPU TIMES  *       265.65    116.50      1.04     17.71     56.18      0.00     16.09     58.00
 REAL TIME  *       280.79 SEC
 DISK USED  *         1.28 GB      
 **********************************************************************************************************************************
 SETTING V_CCSD         =      -949.00220331  AU                              

Geometry recognized as XYZ



 Recomputing integrals since geometry and symmetry changed


 Using spherical harmonics


1PROGRAM * SEWARD (Integral evaluation for generally contracted gaussian basis sets)     Author: Roland Lindh, 1990

 Geometry written to block  1 of record 702

 Orientation using atomic masses  
 Molecule type: Atom
 Symmetry elements: X,Y,Z
 Rotational constants:       0.0000000      0.0000000      0.0000000 GHz  (calculated with average atomic masses)

 Point group  D2h 



 ATOMIC COORDINATES

 NR  ATOM    CHARGE       X              Y              Z

   1  O       8.00    0.000000000    0.000000000    0.000000000

 NUCLEAR CHARGE:                    8
 NUMBER OF PRIMITIVE AOS:          81
 NUMBER OF SYMMETRY AOS:           71
 NUMBER OF CONTRACTIONS:           71   (  21Ag  +  12B3u +  12B2u +   4B1g +  12B1u +   4B2g +   4B3g +   2Au  )
 NUMBER OF CORE ORBITALS:           1   (   1Ag  +   0B3u +   0B2u +   0B1g +   0B1u +   0B2g +   0B3g +   0Au  )
 NUMBER OF VALENCE ORBITALS:        4   (   1Ag  +   1B3u +   1B2u +   0B1g +   1B1u +   0B2g +   0B3g +   0Au  )

 MOLECULE CHANGED: INITIALIZING OCCUPATION AND DUMP RECORDS


 NUCLEAR REPULSION ENERGY    0.00000000

 One-electron integrals computed with SEWARD

 10nd-order Douglas-Kroll-Hess method activated. McWeeny DKH parametrization is used.

 Computing Douglas-Kroll integrals

 AO integral compression algorithm  1   Integral accuracy      1.0D-13

     5.243 MB (compressed) written to integral file ( 74.5%)


 NUMBER OF SORTED TWO-ELECTRON INTEGRALS:     465933.     BUFFER LENGTH:  32768
 NUMBER OF SEGMENTS:   1  SEGMENT LENGTH:     465933      RECORD LENGTH: 524288

 Memory used in sort:       1.02 MW

 SORT1 READ      886537. AND WROTE      362230. INTEGRALS IN      2 RECORDS. CPU TIME:     0.02 SEC, REAL TIME:     0.03 SEC
 SORT2 READ      362230. AND WROTE      465933. INTEGRALS IN     20 RECORDS. CPU TIME:     0.03 SEC, REAL TIME:     0.04 SEC

 FILE SIZES:   FILE 1:    13.1 MBYTE,  FILE 4:     8.4 MBYTE,   TOTAL:     21.6 MBYTE

 OPERATOR DM      FOR CENTER  0  COORDINATES:    0.000000    0.000000    0.000000

 EXTRA SYMMETRY OF AOS IN SYMMETRY 1:   1 1 1 1 1 1 1 1 1 1   1 1 1 2 3 2 3 2 3 2   3
 EXTRA SYMMETRY OF AOS IN SYMMETRY 2:   1 1 1 1 1 1 1 1 2 3   2 3
 EXTRA SYMMETRY OF AOS IN SYMMETRY 3:   1 1 1 1 1 1 1 1 2 3   2 3
 EXTRA SYMMETRY OF AOS IN SYMMETRY 5:   1 1 1 1 1 1 1 1 2 3   2 3

 Eigenvalues of metric

         1 0.267E-04 0.466E-03 0.119E-01 0.237E-01 0.730E-01 0.132E+00 0.255E+00 0.261E+00
         2 0.763E-02 0.514E-01 0.125E+00 0.335E+00 0.447E+00 0.447E+00 0.706E+00 0.127E+01
         3 0.763E-02 0.514E-01 0.125E+00 0.335E+00 0.447E+00 0.447E+00 0.706E+00 0.127E+01
         4 0.261E+00 0.743E+00 0.111E+01 0.188E+01
         5 0.763E-02 0.514E-01 0.125E+00 0.335E+00 0.447E+00 0.447E+00 0.706E+00 0.127E+01
         6 0.261E+00 0.743E+00 0.111E+01 0.188E+01
         7 0.261E+00 0.743E+00 0.111E+01 0.188E+01
         8 0.447E+00 0.155E+01


 **********************************************************************************************************************************
 DATASETS  * FILE   NREC   LENGTH (MB)   RECORD NAMES
              1      24       10.33       500      610      700      702      900      950      970     1002      129      960   
                                          VAR    BASINP    GEOM     GEOM    SYMINP    ZMAT    AOBASIS   BASIS     P2S    ABASIS    
                                         1700     1101     1401     1411     1412     1650     1100     1400     1410     1200   
                                         OPER      SR      EKINR    POTR     PVPR    MOLCAS      S      EKIN      POT      H0  
                                         1210     1300     1080     1600   
                                          H01     ERIS     AOSYM     SMH  

              2      10       10.05       700     1000      520     2100     2101      701     1001     2102      702     1002   
                                         GEOM     BASIS   MCVARS     RHF      RHF     GEOM     BASIS     RHF     GEOM     BASIS   

 PROGRAMS   *        TOTAL       INT  RCCSD(T)       RHF       INT       RHF       POP       RHF       INT
 CPU TIMES  *       266.27      0.61    116.50      1.04     17.71     56.18      0.00     16.09     58.00
 REAL TIME  *       281.55 SEC
 DISK USED  *         1.28 GB      
 **********************************************************************************************************************************

1PROGRAM * RHF-SCF (OPEN SHELL)       Authors: W. Meyer, H.-J. Werner


 NUMBER OF ELECTRONS:       5+    3-    SPACE SYMMETRY=7    SPIN SYMMETRY: Triplet 
 CONVERGENCE THRESHOLDS:    1.00E-05 (Density)    1.00E-07 (Energy)
 MAX. NUMBER OF ITERATIONS:       60
 INTERPOLATION TYPE:            DIIS
 INTERPOLATION STEPS:              2 (START)      1 (STEP)
 LEVEL SHIFTS:                 -0.30 (CLOSED)  0.00 (OPEN) 


 Singly occupied orbitals:      1.3       1.5
 Orbital guess generated from atomic densities. Full valence occupancy:    2   1   1   0   1   0   0   0


 Molecular orbital dump at record        2103.2

 ITERATION    DDIFF          GRAD             ENERGY        2-EL.EN.            DIPOLE MOMENTS         DIIS   ORB.
    1      0.000D+00      0.000D+00       -74.83615292     55.194582    0.00000    0.00000    0.00000    0    start
    2      0.000D+00      0.157D-01       -74.85831724     57.147340    0.00000    0.00000    0.00000    1    diag,B
    3      0.570D-02      0.556D-02       -74.85933074     56.914741    0.00000    0.00000    0.00000    2    diag,B
    4      0.112D-02      0.125D-02       -74.85948074     56.905881    0.00000    0.00000    0.00000    3    diag,B
    5      0.593D-03      0.296D-03       -74.85949341     56.904132    0.00000    0.00000    0.00000    4    diag,B
    6      0.225D-03      0.510D-04       -74.85949382     56.902655    0.00000    0.00000    0.00000    5    diag,B
    7      0.423D-04      0.108D-04       -74.85949385     56.902383    0.00000    0.00000    0.00000    6    fixocc
    8      0.959D-05      0.248D-05       -74.85949385     56.902334    0.00000    0.00000    0.00000    0    orth

 Final alpha occupancy:   2   1   1   0   1   0   0   0
 Final beta  occupancy:   2   1   0   0   0   0   0   0

 !RHF STATE 1.7 Energy                -74.859493848602
 Nuclear energy                         0.00000000
 One-electron energy                 -103.31066088
 Two-electron energy                   28.45116703
 Virial quotient                       -0.99538628
 !RHF STATE 1.7 Dipole moment           0.00000000     0.00000000     0.00000000
 Dipole moment /Debye                   0.00000000     0.00000000     0.00000000

 Orbital energies:

         1.1          2.1          3.1          4.1
    -20.686733    -1.248261     0.150844     0.622214

         1.2          2.2          3.2
     -0.566634     0.162597     0.904108

         1.3          2.3          3.3
     -0.702524     0.153085     0.860937

         1.4          2.4
      0.638172     2.087267

         1.5          2.5          3.5
     -0.702524     0.153085     0.860937

         1.6          2.6
      0.638172     2.087267

         1.7          2.7
      0.622214     2.040807

         1.8          2.8
      2.017233     6.380082

 HOMO      1.2    -0.566634 =     -15.4189eV
 LUMO      3.1     0.150844 =       4.1047eV
 LUMO-HOMO         0.717478 =      19.5236eV


 **********************************************************************************************************************************
 DATASETS  * FILE   NREC   LENGTH (MB)   RECORD NAMES
              1      24       10.33       500      610      700      702      900      950      970     1002      129      960   
                                          VAR    BASINP    GEOM     GEOM    SYMINP    ZMAT    AOBASIS   BASIS     P2S    ABASIS    
                                         1700     1101     1401     1411     1412     1650     1100     1400     1410     1200   
                                         OPER      SR      EKINR    POTR     PVPR    MOLCAS      S      EKIN      POT      H0  
                                         1210     1300     1080     1600   
                                          H01     ERIS     AOSYM     SMH  

              2      11       12.57       700     1000      520     2100     2101      701     1001     2102      702     1002   
                                         GEOM     BASIS   MCVARS     RHF      RHF     GEOM     BASIS     RHF     GEOM     BASIS   
                                         2103   
                                          RHF  

 PROGRAMS   *        TOTAL       RHF       INT  RCCSD(T)       RHF       INT       RHF       POP       RHF       INT
 CPU TIMES  *       266.33      0.06      0.61    116.50      1.04     17.71     56.18      0.00     16.09     58.00
 REAL TIME  *       281.66 SEC
 DISK USED  *         1.28 GB      
 **********************************************************************************************************************************
 SETTING O_SCF          =       -74.85949385  AU                              
 Output type csv         
                                                                                                                                                                                                                                                                

 ERROR IN MAKETAB: STRING COLUMN "CCSD" SPECIFIED AFTER DATA COLUMN(S)

        RHF-SCF         RCCSD(T)        RHF-SCF         RHF-SCF         RHF-SCF 
    -74.85949385   -949.00220331   -948.14091342  -1022.79573307  -1022.99387527
 **********************************************************************************************************************************
 Variable memory released
