 Entering Gaussian System, Link 0=g16
 Initial command:
 /home1/apps/gaussian/16rA.03/g16/l1.exe "/tmp/Gau-67636.inp" -scrdir="/tmp/"
 Entering Link 1 = /home1/apps/gaussian/16rA.03/g16/l1.exe PID=     67637.
  
 Copyright (c) 1988,1990,1992,1993,1995,1998,2003,2009,2016,
            Gaussian, Inc.  All Rights Reserved.
  
 This is part of the Gaussian(R) 16 program.  It is based on
 the Gaussian(R) 09 system (copyright 2009, Gaussian, Inc.),
 the Gaussian(R) 03 system (copyright 2003, Gaussian, Inc.),
 the Gaussian(R) 98 system (copyright 1998, Gaussian, Inc.),
 the Gaussian(R) 94 system (copyright 1995, Gaussian, Inc.),
 the Gaussian 92(TM) system (copyright 1992, Gaussian, Inc.),
 the Gaussian 90(TM) system (copyright 1990, Gaussian, Inc.),
 the Gaussian 88(TM) system (copyright 1988, Gaussian, Inc.),
 the Gaussian 86(TM) system (copyright 1986, Carnegie Mellon
 University), and the Gaussian 82(TM) system (copyright 1983,
 Carnegie Mellon University). Gaussian is a federally registered
 trademark of Gaussian, Inc.
  
 This software contains proprietary and confidential information,
 including trade secrets, belonging to Gaussian, Inc.
  
 This software is provided under written license and may be
 used, copied, transmitted, or stored only in accord with that
 written license.
  
 The following legend is applicable only to US Government
 contracts under FAR:
  
                    RESTRICTED RIGHTS LEGEND
  
 Use, reproduction and disclosure by the US Government is
 subject to restrictions as set forth in subparagraphs (a)
 and (c) of the Commercial Computer Software - Restricted
 Rights clause in FAR 52.227-19.
  
 Gaussian, Inc.
 340 Quinnipiac St., Bldg. 40, Wallingford CT 06492
  
  
 ---------------------------------------------------------------
 Warning -- This program may not be used in any manner that
 competes with the business of Gaussian, Inc. or will provide
 assistance to any competitor of Gaussian, Inc.  The licensee
 of this program is prohibited from giving any competitor of
 Gaussian, Inc. access to this program.  By using this program,
 the user acknowledges that Gaussian, Inc. is engaged in the
 business of creating and licensing software in the field of
 computational chemistry and represents and warrants to the
 licensee that it is not a competitor of Gaussian, Inc. and that
 it will not use this program in any manner prohibited above.
 ---------------------------------------------------------------
  

 Cite this work as:
 Gaussian 16, Revision A.03,
 M. J. Frisch, G. W. Trucks, H. B. Schlegel, G. E. Scuseria, 
 M. A. Robb, J. R. Cheeseman, G. Scalmani, V. Barone, 
 G. A. Petersson, H. Nakatsuji, X. Li, M. Caricato, A. V. Marenich, 
 J. Bloino, B. G. Janesko, R. Gomperts, B. Mennucci, H. P. Hratchian, 
 J. V. Ortiz, A. F. Izmaylov, J. L. Sonnenberg, D. Williams-Young, 
 F. Ding, F. Lipparini, F. Egidi, J. Goings, B. Peng, A. Petrone, 
 T. Henderson, D. Ranasinghe, V. G. Zakrzewski, J. Gao, N. Rega, 
 G. Zheng, W. Liang, M. Hada, M. Ehara, K. Toyota, R. Fukuda, 
 J. Hasegawa, M. Ishida, T. Nakajima, Y. Honda, O. Kitao, H. Nakai, 
 T. Vreven, K. Throssell, J. A. Montgomery, Jr., J. E. Peralta, 
 F. Ogliaro, M. J. Bearpark, J. J. Heyd, E. N. Brothers, K. N. Kudin, 
 V. N. Staroverov, T. A. Keith, R. Kobayashi, J. Normand, 
 K. Raghavachari, A. P. Rendell, J. C. Burant, S. S. Iyengar, 
 J. Tomasi, M. Cossi, J. M. Millam, M. Klene, C. Adamo, R. Cammi, 
 J. W. Ochterski, R. L. Martin, K. Morokuma, O. Farkas, 
 J. B. Foresman, and D. J. Fox, Gaussian, Inc., Wallingford CT, 2016.
 
 ******************************************
 Gaussian 16:  ES64L-G16RevA.03 25-Dec-2016
                21-Feb-2018 
 ******************************************
 %mem=160GB
 %cpu=0-31
 SetSPE:  set environment variable "MP_BIND" = "yes"
 SetSPE:  set environment variable "MP_BLIST" = "0,1,2,3,4,5,6,7,8,9,10,11,12,13,14,15,16,17,18,19,20,21,22,23,24,25,26,27,28,29,30,31"
 Will use up to   32 processors via shared memory.
 %chk=O
 %rwf=/scratch/04843/aannabe/gaussian/
 ----------------------------------------------------------------------
 #P ROHF/Gen 5d 7f SCF=(maxcycles=300) Integral(NoXCTest, DKHSO) MaxDis
 k=500GB Pop=Regular
 ----------------------------------------------------------------------
 1/38=1,172=1/1;
 2/12=2,17=6,18=5,40=1/2;
 3/5=7,8=11,11=2,25=1,30=1,47=8,91=5,116=101/1,2,3;
 4//1;
 5/5=2,7=300,38=5/2;
 6/28=1/1;
 99/5=1,9=1/99;
 Leave Link    1 at Wed Feb 21 15:57:00 2018, MaxMem= 21474836480 cpu:               3.8 elap:               0.1
 (Enter /home1/apps/gaussian/16rA.03/g16/l101.exe)
 -
 O
 -
 Symbolic Z-matrix:
 Charge =  0 Multiplicity = 3
 O                     0.        0.        0. 
 
 ITRead=  0
 MicOpt= -1
 NAtoms=      1 NQM=        1 NQMF=       0 NMMI=      0 NMMIF=      0
                NMic=       0 NMicF=      0.
                    Isotopes and Nuclear Properties:
 (Nuclear quadrupole moments (NQMom) in fm**2, nuclear magnetic moments (NMagM)
  in nuclear magnetons)

  Atom         1
 IAtWgt=          16
 AtmWgt=  15.9949146
 NucSpn=           0
 AtZEff=  -0.0000000
 NQMom=    0.0000000
 NMagM=    0.0000000
 AtZNuc=   8.0000000
 Leave Link  101 at Wed Feb 21 15:57:01 2018, MaxMem= 21474836480 cpu:               2.8 elap:               0.1
 (Enter /home1/apps/gaussian/16rA.03/g16/l202.exe)
                          Input orientation:                          
 ---------------------------------------------------------------------
 Center     Atomic      Atomic             Coordinates (Angstroms)
 Number     Number       Type             X           Y           Z
 ---------------------------------------------------------------------
      1          8           0        0.000000    0.000000    0.000000
 ---------------------------------------------------------------------
 Stoichiometry    O(3)
 Framework group  OH[O(O)]
 Deg. of freedom     0
 Full point group                 OH      NOp  48
 Largest Abelian subgroup         D2H     NOp   8
 Largest concise Abelian subgroup C1      NOp   1
                         Standard orientation:                         
 ---------------------------------------------------------------------
 Center     Atomic      Atomic             Coordinates (Angstroms)
 Number     Number       Type             X           Y           Z
 ---------------------------------------------------------------------
      1          8           0        0.000000    0.000000    0.000000
 ---------------------------------------------------------------------
 Leave Link  202 at Wed Feb 21 15:57:01 2018, MaxMem= 21474836480 cpu:               1.0 elap:               0.1
 (Enter /home1/apps/gaussian/16rA.03/g16/l301.exe)
 General basis read from cards:  (5D, 7F)
 Centers:       1
 S 1 1.00
     Exponent=  1.6420000000D+05 Coefficients=  1.0000000000D+00
 S 1 1.00
     Exponent=  2.4590000000D+04 Coefficients=  1.0000000000D+00
 S 1 1.00
     Exponent=  5.5920000000D+03 Coefficients=  1.0000000000D+00
 S 1 1.00
     Exponent=  1.5820000000D+03 Coefficients=  1.0000000000D+00
 S 1 1.00
     Exponent=  5.1610000000D+02 Coefficients=  1.0000000000D+00
 S 1 1.00
     Exponent=  1.8720000000D+02 Coefficients=  1.0000000000D+00
 S 1 1.00
     Exponent=  7.3930000000D+01 Coefficients=  1.0000000000D+00
 S 1 1.00
     Exponent=  3.1220000000D+01 Coefficients=  1.0000000000D+00
 S 1 1.00
     Exponent=  1.3810000000D+01 Coefficients=  1.0000000000D+00
 S 1 1.00
     Exponent=  6.2560000000D+00 Coefficients=  1.0000000000D+00
 S 1 1.00
     Exponent=  2.7760000000D+00 Coefficients=  1.0000000000D+00
 S 1 1.00
     Exponent=  1.1380000000D+00 Coefficients=  1.0000000000D+00
 S 1 1.00
     Exponent=  4.6000000000D-01 Coefficients=  1.0000000000D+00
 S 1 1.00
     Exponent=  1.8290000000D-01 Coefficients=  1.0000000000D+00
 S 1 1.00
     Exponent=  1.5645000000D+01 Coefficients=  1.0000000000D+00
 S 1 1.00
     Exponent=  3.5874000000D+01 Coefficients=  1.0000000000D+00
 S 1 1.00
     Exponent=  8.2259000000D+01 Coefficients=  1.0000000000D+00
 S 1 1.00
     Exponent=  1.8862000000D+02 Coefficients=  1.0000000000D+00
 S 1 1.00
     Exponent=  6.5500000000D-02 Coefficients=  1.0000000000D+00
 P 1 1.00
     Exponent=  1.9550000000D+02 Coefficients=  1.0000000000D+00
 P 1 1.00
     Exponent=  4.6160000000D+01 Coefficients=  1.0000000000D+00
 P 1 1.00
     Exponent=  1.4580000000D+01 Coefficients=  1.0000000000D+00
 P 1 1.00
     Exponent=  5.2960000000D+00 Coefficients=  1.0000000000D+00
 P 1 1.00
     Exponent=  2.0940000000D+00 Coefficients=  1.0000000000D+00
 P 1 1.00
     Exponent=  8.4710000000D-01 Coefficients=  1.0000000000D+00
 P 1 1.00
     Exponent=  3.3680000000D-01 Coefficients=  1.0000000000D+00
 P 1 1.00
     Exponent=  1.2850000000D-01 Coefficients=  1.0000000000D+00
 P 1 1.00
     Exponent=  1.4049000000D+01 Coefficients=  1.0000000000D+00
 P 1 1.00
     Exponent=  3.5446000000D+01 Coefficients=  1.0000000000D+00
 P 1 1.00
     Exponent=  8.9429000000D+01 Coefficients=  1.0000000000D+00
 P 1 1.00
     Exponent=  2.2563000000D+02 Coefficients=  1.0000000000D+00
 P 1 1.00
     Exponent=  4.4600000000D-02 Coefficients=  1.0000000000D+00
 D 1 1.00
     Exponent=  5.8790000000D+00 Coefficients=  1.0000000000D+00
 D 1 1.00
     Exponent=  2.3070000000D+00 Coefficients=  1.0000000000D+00
 D 1 1.00
     Exponent=  9.0500000000D-01 Coefficients=  1.0000000000D+00
 D 1 1.00
     Exponent=  3.5500000000D-01 Coefficients=  1.0000000000D+00
 D 1 1.00
     Exponent=  1.6703000000D+01 Coefficients=  1.0000000000D+00
 D 1 1.00
     Exponent=  4.7320000000D+01 Coefficients=  1.0000000000D+00
 D 1 1.00
     Exponent=  1.3405600000D+02 Coefficients=  1.0000000000D+00
 D 1 1.00
     Exponent=  1.3100000000D-01 Coefficients=  1.0000000000D+00
 F 1 1.00
     Exponent=  4.0160000000D+00 Coefficients=  1.0000000000D+00
 F 1 1.00
     Exponent=  1.5540000000D+00 Coefficients=  1.0000000000D+00
 F 1 1.00
     Exponent=  6.0100000000D-01 Coefficients=  1.0000000000D+00
 F 1 1.00
     Exponent=  1.7354000000D+01 Coefficients=  1.0000000000D+00
 F 1 1.00
     Exponent=  6.5546000000D+01 Coefficients=  1.0000000000D+00
 F 1 1.00
     Exponent=  2.3700000000D-01 Coefficients=  1.0000000000D+00
 G 1 1.00
     Exponent=  3.3500000000D+00 Coefficients=  1.0000000000D+00
 G 1 1.00
     Exponent=  1.1890000000D+00 Coefficients=  1.0000000000D+00
 G 1 1.00
     Exponent=  4.8578000000D+01 Coefficients=  1.0000000000D+00
 G 1 1.00
     Exponent=  5.1700000000D-01 Coefficients=  1.0000000000D+00
 H 1 1.00
     Exponent=  2.3190000000D+00 Coefficients=  1.0000000000D+00
 H 1 1.00
     Exponent=  1.0240000000D+00 Coefficients=  1.0000000000D+00
 ****
 Ernie: Thresh=  0.10000D-02 Tol=  0.10000D-05 Strict=F.
 There are    67 symmetry adapted cartesian basis functions of AG  symmetry.
 There are    20 symmetry adapted cartesian basis functions of B1G symmetry.
 There are    20 symmetry adapted cartesian basis functions of B2G symmetry.
 There are    20 symmetry adapted cartesian basis functions of B3G symmetry.
 There are    12 symmetry adapted cartesian basis functions of AU  symmetry.
 There are    43 symmetry adapted cartesian basis functions of B1U symmetry.
 There are    43 symmetry adapted cartesian basis functions of B2U symmetry.
 There are    43 symmetry adapted cartesian basis functions of B3U symmetry.
 There are    47 symmetry adapted basis functions of AG  symmetry.
 There are    16 symmetry adapted basis functions of B1G symmetry.
 There are    16 symmetry adapted basis functions of B2G symmetry.
 There are    16 symmetry adapted basis functions of B3G symmetry.
 There are    10 symmetry adapted basis functions of AU  symmetry.
 There are    31 symmetry adapted basis functions of B1U symmetry.
 There are    31 symmetry adapted basis functions of B2U symmetry.
 There are    31 symmetry adapted basis functions of B3U symmetry.
   198 basis functions,   268 primitive gaussians,   268 cartesian basis functions
     5 alpha electrons        3 beta electrons
       nuclear repulsion energy         0.0000000000 Hartrees.
 IExCor=    0 DFT=F Ex=HF Corr=None ExCW=0 ScaHFX=  1.000000
 ScaDFX=  1.000000  1.000000  1.000000  1.000000 ScalE2=  1.000000  1.000000
 IRadAn=      5 IRanWt=     -1 IRanGd=            0 ICorTp=0 IEmpDi=  4
 NAtoms=    1 NActive=    1 NUniq=    1 SFac= 1.00D+00 NAtFMM=   60 NAOKFM=F Big=F
 Integral buffers will be    131072 words long.
 Raffenetti 2 integral format.
 Two-electron integral symmetry is turned on.
 FoFCou: FMM=F IPFlag=           8 FMFlag=           0 FMFlg1=           0
         NFxFlg=           0 DoJE=F BraDBF=T KetDBF=T FulRan=T
         wScrn=  0.000000 ICntrl=       600 IOpCl=  3 I1Cent=           6 NGrid=           0
         NMat0=    1 NMatS0=      1 NMatT0=    0 NMatD0=    1 NMtDS0=    0 NMtDT0=    0
 Symmetry not used in FoFCou.
 Finite nuclear repulsion energy         0.0000000000.
 Leave Link  301 at Wed Feb 21 15:57:01 2018, MaxMem= 21474836480 cpu:               5.0 elap:               0.2
 (Enter /home1/apps/gaussian/16rA.03/g16/l302.exe)
 Using DK4 one-electron Hamiltonian with SO, DoBoet=T.
 NPDir=0 NMtPBC=     1 NCelOv=     1 NCel=       1 NClECP=     1 NCelD=      1
         NCelK=      1 NCelE2=     1 NClLst=     1 CellRange=     0.0.
 One-electron integrals computed using PRISM.
 One-electron integral symmetry used in STVInt
 FoFCou: FMM=F IPFlag=           8 FMFlag=      100000 FMFlg1=           0
         NFxFlg=           0 DoJE=T BraDBF=F KetDBF=T FulRan=T
         wScrn=  0.000000 ICntrl=       500 IOpCl=  0 I1Cent=           4 NGrid=           0
         NMat0=    1 NMatS0=      1 NMatT0=    0 NMatD0=    1 NMtDS0=    0 NMtDT0=    0
 Symmetry not used in FoFCou.
 UnConB:  Uncontracting AO basis from    198 functions to    198 functions (excluding duplicates).
 GSVD:  received Info=                   1 from GESDD.
 RelInt: Using uncontracted basis, NUnBas=   198 NBsUse=   198 0.100E-13 EigKep=  7.60D-09 EigRej= -1.00D+00
 NBasis=   198 RedAO= T EigKep=  3.48D-06  NBF=    47    16    16    16    10    31    31    31
 NBsUse=   196 1.00D-06 EigRej=  2.55D-07 NBFU=    45    16    16    16    10    31    31    31
 Leave Link  302 at Wed Feb 21 15:57:03 2018, MaxMem= 21474836480 cpu:              42.0 elap:               1.9
 (Enter /home1/apps/gaussian/16rA.03/g16/l303.exe)
 DipDrv:  MaxL=1.
 Leave Link  303 at Wed Feb 21 15:57:03 2018, MaxMem= 21474836480 cpu:               1.7 elap:               0.1
 (Enter /home1/apps/gaussian/16rA.03/g16/l401.exe)
 ExpMin= 4.46D-02 ExpMax= 1.64D+05 ExpMxC= 1.64D+05 IAcc=4 IRadAn=    199590 AccDes= 0.00D+00
 Harris functional with IExCor=  205 and IRadAn=  199590 diagonalized for initial guess.
 HarFok:  IExCor=  205 AccDes= 0.00D+00 IRadAn=    199590 IDoV= 1 UseB2=F ITyADJ=14
 ICtDFT=  3500011 ScaDFX=  1.000000  1.000000  1.000000  1.000000
 FoFCou: FMM=F IPFlag=           8 FMFlag=      100000 FMFlg1=           0
         NFxFlg=           0 DoJE=T BraDBF=F KetDBF=T FulRan=T
         wScrn=  0.000000 ICntrl=       500 IOpCl=  0 I1Cent=   200000004 NGrid=           0
         NMat0=    1 NMatS0=      1 NMatT0=    0 NMatD0=    1 NMtDS0=    0 NMtDT0=    0
 Petite list used in FoFCou.
 Harris En= -74.6795207102647    
 JPrj=0 DoOrth=F DoCkMO=F.
 Initial guess orbital symmetries:
       Occupied  (A1G) (A1G) (T1U) (T1U) (T1U)
       Virtual   (A1G) (T1U) (T1U) (T1U) (T2G) (T2G) (T2G) (EG)
                 (EG) (T1U) (T1U) (T1U) (A1G) (?A) (?A) (?A) (A2U)
                 (?A) (?A) (?A) (T2G) (T2G) (T2G) (EG) (EG) (T1U)
                 (T1U) (T1U) (?B) (?B) (?B) (?B) (?B) (?B) (T2G)
                 (T2G) (T2G) (A1G) (?A) (?A) (?A) (A2U) (?A) (?A)
                 (?A) (T2G) (T2G) (T2G) (EG) (EG) (T1U) (T1U) (T1U)
                 (EU) (EU) (T2U) (T2U) (T2U) (T1U) (T1U) (T1U)
                 (T1U) (T1U) (T1U) (?B) (?B) (?B) (?B) (?B) (?B)
                 (EG) (EG) (A1G) (T2U) (T2U) (T2U) (A2U) (T1U)
                 (T1U) (T1U) (T2G) (T2G) (T2G) (EG) (EG) (A1G)
                 (T1U) (T1U) (T1U) (EU) (EU) (T2U) (T2U) (T2U)
                 (T1U) (T1U) (T1U) (T1U) (T1U) (T1U) (T2U) (T2U)
                 (T2U) (A2U) (T1U) (T1U) (T1U) (T1G) (T1G) (T1G)
                 (T2G) (T2G) (T2G) (EG) (EG) (A1G) (T2G) (T2G)
                 (T2G) (EG) (EG) (A1G) (T1U) (T1U) (T1U) (A1G)
                 (T2G) (T2G) (T2G) (EG) (EG) (T1U) (T1U) (T1U)
                 (T2U) (T2U) (T2U) (A2U) (T1U) (T1U) (T1U) (A1G)
                 (T1U) (T1U) (T1U) (T2G) (T2G) (T2G) (EG) (EG)
                 (A1G) (T1G) (T1G) (T1G) (T2G) (T2G) (T2G) (EG)
                 (EG) (A1G) (T1U) (T1U) (T1U) (T2U) (T2U) (T2U)
                 (A2U) (T1U) (T1U) (T1U) (A1G) (T1U) (T1U) (T1U)
                 (T2G) (T2G) (T2G) (EG) (EG) (A1G) (T1U) (T1U)
                 (T1U) (T1U) (T1U) (T1U) (A1G) (A1G) (A1G) (A1G)
                 (A1G)
 Leave Link  401 at Wed Feb 21 15:57:04 2018, MaxMem= 21474836480 cpu:              20.9 elap:               0.7
 (Enter /home1/apps/gaussian/16rA.03/g16/l502.exe)
 Keep R1 and R2 ints in memory in symmetry-blocked form, NReq=325824035.
 FoFCou: FMM=F IPFlag=           8 FMFlag=           0 FMFlg1=           0
         NFxFlg=           0 DoJE=F BraDBF=F KetDBF=F FulRan=T
         wScrn=  0.000000 ICntrl=       600 IOpCl=  0 I1Cent=           0 NGrid=           0
         NMat0=    1 NMatS0=  19701 NMatT0=    0 NMatD0=    1 NMtDS0=    0 NMtDT0=    0
 Petite list used in FoFCou.
 Restricted open shell SCF:
 Using DIIS extrapolation, IDIIS=  1040.
 NGot= 21474836480 LenX= 21425280799 LenY= 21425208534
 Requested convergence on RMS density matrix=1.00D-08 within 300 cycles.
 Requested convergence on MAX density matrix=1.00D-06.
 Requested convergence on             energy=1.00D-06.
 No special actions if energy rises.

 Cycle   1  Pass 1  IDiag  1:
 Density matrix breaks symmetry, PCut= 1.00D-07
 Density has only Abelian symmetry.
 E= -74.8452126972867    
 DIIS: error= 8.38D-02 at cycle   1 NSaved=   1.
 NSaved= 1 IEnMin= 1 EnMin= -74.8452126972867     IErMin= 1 ErrMin= 8.38D-02
 ErrMax= 8.38D-02  0.00D+00 EMaxC= 1.00D-01 BMatC= 1.34D-01 BMatP= 1.34D-01
 IDIUse=3 WtCom= 1.62D-01 WtEn= 8.38D-01
 Coeff-Com:  0.100D+01
 Coeff-En:   0.100D+01
 Coeff:      0.100D+01
 Fock symm off for IB=6 I1=   21 I=  124 J=   45 Cut=1.00D-07 Err=1.23D-07
 Fock matrix is not symmetric: symmetry in diagonalization turned off.
 Gap=     0.318 Goal=   None    Shift=    0.000
 GapD=    0.318 DampG=1.000 DampE=0.500 DampFc=0.5000 IDamp=-1.
 Damping current iteration by 5.00D-01
 RMSDP=5.03D-04 MaxDP=2.66D-02              OVMax= 1.00D+00

 Cycle   2  Pass 1  IDiag  1:
 Density matrix breaks symmetry, PCut= 1.00D-07
 Density has only Abelian symmetry.
 E= -74.8518350391564     Delta-E=       -0.006622341870 Rises=F Damp=T
 DIIS: error= 4.29D-02 at cycle   2 NSaved=   2.
 NSaved= 2 IEnMin= 2 EnMin= -74.8518350391564     IErMin= 2 ErrMin= 4.29D-02
 ErrMax= 4.29D-02  0.00D+00 EMaxC= 1.00D-01 BMatC= 3.53D-02 BMatP= 1.34D-01
 IDIUse=3 WtCom= 5.71D-01 WtEn= 4.29D-01
 Coeff-Com: -0.682D+00 0.168D+01
 Coeff-En:   0.195D+00 0.805D+00
 Coeff:     -0.306D+00 0.131D+01
 Gap=     0.276 Goal=   None    Shift=    0.000
 RMSDP=6.10D-04 MaxDP=5.09D-02 DE=-6.62D-03 OVMax= 1.73D-01

 Cycle   3  Pass 1  IDiag  1:
 Density matrix breaks symmetry, PCut= 1.00D-07
 Density has only Abelian symmetry.
 E= -74.8436274742035     Delta-E=        0.008207564953 Rises=F Damp=F
 DIIS: error= 2.73D-02 at cycle   3 NSaved=   3.
 NSaved= 3 IEnMin= 2 EnMin= -74.8518350391564     IErMin= 3 ErrMin= 2.73D-02
 ErrMax= 2.73D-02  0.00D+00 EMaxC= 1.00D-01 BMatC= 1.54D-02 BMatP= 3.53D-02
 IDIUse=3 WtCom= 7.27D-01 WtEn= 2.73D-01
 Coeff-Com: -0.496D+00 0.942D+00 0.554D+00
 Coeff-En:   0.000D+00 0.629D+00 0.371D+00
 Coeff:     -0.360D+00 0.856D+00 0.504D+00
 Gap=     0.296 Goal=   None    Shift=    0.000
 RMSDP=5.47D-04 MaxDP=4.44D-02 DE= 8.21D-03 OVMax= 1.04D-01

 Cycle   4  Pass 1  IDiag  1:
 Density matrix breaks symmetry, PCut= 1.00D-07
 Density has only Abelian symmetry.
 E= -74.8634156088699     Delta-E=       -0.019788134666 Rises=F Damp=F
 DIIS: error= 6.71D-03 at cycle   4 NSaved=   4.
 NSaved= 4 IEnMin= 4 EnMin= -74.8634156088699     IErMin= 4 ErrMin= 6.71D-03
 ErrMax= 6.71D-03  0.00D+00 EMaxC= 1.00D-01 BMatC= 8.79D-04 BMatP= 1.54D-02
 IDIUse=3 WtCom= 9.33D-01 WtEn= 6.71D-02
 Coeff-Com: -0.281D+00 0.521D+00 0.210D+00 0.549D+00
 Coeff-En:   0.000D+00 0.000D+00 0.000D+00 0.100D+01
 Coeff:     -0.262D+00 0.486D+00 0.196D+00 0.579D+00
 Gap=     0.292 Goal=   None    Shift=    0.000
 RMSDP=1.09D-04 MaxDP=7.53D-03 DE=-1.98D-02 OVMax= 1.05D-02

 Cycle   5  Pass 1  IDiag  1:
 Density matrix breaks symmetry, PCut= 1.00D-07
 Density has only Abelian symmetry.
 E= -74.8641046749538     Delta-E=       -0.000689066084 Rises=F Damp=F
 DIIS: error= 4.41D-03 at cycle   5 NSaved=   5.
 NSaved= 5 IEnMin= 5 EnMin= -74.8641046749538     IErMin= 5 ErrMin= 4.41D-03
 ErrMax= 4.41D-03  0.00D+00 EMaxC= 1.00D-01 BMatC= 3.46D-04 BMatP= 8.79D-04
 IDIUse=3 WtCom= 9.56D-01 WtEn= 4.41D-02
 Coeff-Com: -0.819D-01 0.161D+00-0.979D-02-0.469D+00 0.140D+01
 Coeff-En:   0.000D+00 0.000D+00 0.000D+00 0.000D+00 0.100D+01
 Coeff:     -0.783D-01 0.154D+00-0.936D-02-0.448D+00 0.138D+01
 Gap=     0.284 Goal=   None    Shift=    0.000
 RMSDP=5.74D-05 MaxDP=3.67D-03 DE=-6.89D-04 OVMax= 1.44D-02

 Cycle   6  Pass 1  IDiag  1:
 Density matrix breaks symmetry, PCut= 1.00D-07
 Density has only Abelian symmetry.
 E= -74.8645833553034     Delta-E=       -0.000478680350 Rises=F Damp=F
 DIIS: error= 1.23D-03 at cycle   6 NSaved=   6.
 NSaved= 6 IEnMin= 6 EnMin= -74.8645833553034     IErMin= 6 ErrMin= 1.23D-03
 ErrMax= 1.23D-03  0.00D+00 EMaxC= 1.00D-01 BMatC= 3.59D-05 BMatP= 3.46D-04
 IDIUse=3 WtCom= 9.88D-01 WtEn= 1.23D-02
 Coeff-Com: -0.502D-01 0.930D-01 0.665D-01 0.634D-01-0.550D+00 0.138D+01
 Coeff-En:   0.000D+00 0.000D+00 0.000D+00 0.000D+00 0.000D+00 0.100D+01
 Coeff:     -0.496D-01 0.919D-01 0.657D-01 0.626D-01-0.544D+00 0.137D+01
 Gap=     0.286 Goal=   None    Shift=    0.000
 RMSDP=2.64D-05 MaxDP=1.72D-03 DE=-4.79D-04 OVMax= 2.64D-03

 Cycle   7  Pass 1  IDiag  1:
 Density matrix breaks symmetry, PCut= 1.00D-07
 Density has only Abelian symmetry.
 E= -74.8646042875949     Delta-E=       -0.000020932291 Rises=F Damp=F
 DIIS: error= 1.04D-03 at cycle   7 NSaved=   7.
 NSaved= 7 IEnMin= 7 EnMin= -74.8646042875949     IErMin= 7 ErrMin= 1.04D-03
 ErrMax= 1.04D-03  0.00D+00 EMaxC= 1.00D-01 BMatC= 1.86D-05 BMatP= 3.59D-05
 IDIUse=3 WtCom= 9.90D-01 WtEn= 1.04D-02
 Coeff-Com:  0.138D-01-0.252D-01-0.151D-01-0.720D-03-0.336D+00 0.348D+00
 Coeff-Com:  0.102D+01
 Coeff-En:   0.000D+00 0.000D+00 0.000D+00 0.000D+00 0.000D+00 0.000D+00
 Coeff-En:   0.100D+01
 Coeff:      0.137D-01-0.249D-01-0.150D-01-0.712D-03-0.332D+00 0.345D+00
 Coeff:      0.101D+01
 Gap=     0.283 Goal=   None    Shift=    0.000
 RMSDP=2.58D-05 MaxDP=1.96D-03 DE=-2.09D-05 OVMax= 6.32D-03

 Cycle   8  Pass 1  IDiag  1:
 Density matrix breaks symmetry, PCut= 1.00D-07
 Density has only Abelian symmetry.
 E= -74.8646321954508     Delta-E=       -0.000027907856 Rises=F Damp=F
 DIIS: error= 3.02D-04 at cycle   8 NSaved=   8.
 NSaved= 8 IEnMin= 8 EnMin= -74.8646321954508     IErMin= 8 ErrMin= 3.02D-04
 ErrMax= 3.02D-04  0.00D+00 EMaxC= 1.00D-01 BMatC= 1.59D-06 BMatP= 1.86D-05
 IDIUse=3 WtCom= 9.97D-01 WtEn= 3.02D-03
 EnCoef did    10 forward-backward iterations
 Coeff-Com:  0.182D-02-0.354D-02-0.180D-02 0.568D-02 0.155D-01-0.862D-01
 Coeff-Com:  0.237D+00 0.832D+00
 Coeff-En:   0.000D+00 0.000D+00 0.565D-02 0.000D+00 0.000D+00 0.000D+00
 Coeff-En:   0.287D-02 0.991D+00
 Coeff:      0.181D-02-0.353D-02-0.178D-02 0.567D-02 0.155D-01-0.859D-01
 Coeff:      0.236D+00 0.832D+00
 Gap=     0.284 Goal=   None    Shift=    0.000
 RMSDP=5.30D-06 MaxDP=4.14D-04 DE=-2.79D-05 OVMax= 1.27D-03

 Cycle   9  Pass 1  IDiag  1:
 Density matrix breaks symmetry, PCut= 1.00D-07
 Density has only Abelian symmetry.
 E= -74.8646346985942     Delta-E=       -0.000002503143 Rises=F Damp=F
 DIIS: error= 3.47D-05 at cycle   9 NSaved=   9.
 NSaved= 9 IEnMin= 9 EnMin= -74.8646346985942     IErMin= 9 ErrMin= 3.47D-05
 ErrMax= 3.47D-05  0.00D+00 EMaxC= 1.00D-01 BMatC= 2.06D-08 BMatP= 1.59D-06
 IDIUse=1 WtCom= 1.00D+00 WtEn= 0.00D+00
 Coeff-Com:  0.132D-04-0.259D-04-0.195D-05-0.684D-03 0.703D-02-0.918D-03
 Coeff-Com: -0.386D-01-0.187D+00 0.122D+01
 Coeff:      0.132D-04-0.259D-04-0.195D-05-0.684D-03 0.703D-02-0.918D-03
 Coeff:     -0.386D-01-0.187D+00 0.122D+01
 Gap=     0.284 Goal=   None    Shift=    0.000
 RMSDP=6.45D-07 MaxDP=4.48D-05 DE=-2.50D-06 OVMax= 1.58D-04

 Cycle  10  Pass 1  IDiag  1:
 Density matrix breaks symmetry, PCut= 1.00D-07
 Density has only Abelian symmetry.
 E= -74.8646347303202     Delta-E=       -0.000000031726 Rises=F Damp=F
 DIIS: error= 2.13D-07 at cycle  10 NSaved=  10.
 NSaved=10 IEnMin=10 EnMin= -74.8646347303202     IErMin=10 ErrMin= 2.13D-07
 ErrMax= 2.13D-07  0.00D+00 EMaxC= 1.00D-01 BMatC= 2.37D-12 BMatP= 2.06D-08
 IDIUse=1 WtCom= 1.00D+00 WtEn= 0.00D+00
 Coeff-Com: -0.181D-04 0.342D-04 0.843D-05 0.724D-04-0.530D-03 0.265D-03
 Coeff-Com:  0.342D-03 0.369D-02-0.747D-01 0.107D+01
 Coeff:     -0.181D-04 0.342D-04 0.843D-05 0.724D-04-0.530D-03 0.265D-03
 Coeff:      0.342D-03 0.369D-02-0.747D-01 0.107D+01
 Gap=     0.284 Goal=   None    Shift=    0.000
 RMSDP=9.04D-09 MaxDP=5.69D-07 DE=-3.17D-08 OVMax= 1.40D-06

 Density matrix breaks symmetry, PCut= 1.00D-07
 Density has only Abelian symmetry.
 SCF Done:  E(ROHF) =  -74.8646347303     A.U. after   10 cycles
            NFock= 10  Conv=0.90D-08     -V/T= 1.9952
 <Sx>= 0.0000 <Sy>= 0.0000 <Sz>= 1.0000 <S**2>= 2.0000 S= 1.0000
 <L.S>=  0.00000000000    
 KE= 7.522557360086D+01 PE=-1.785548831243D+02 EE= 2.846467479312D+01
 Annihilation of the first spin contaminant:
 S**2 before annihilation     2.0000,   after     2.0000
 Leave Link  502 at Wed Feb 21 15:57:11 2018, MaxMem= 21474836480 cpu:             225.5 elap:               7.2
 (Enter /home1/apps/gaussian/16rA.03/g16/l601.exe)
 Copying SCF densities to generalized density rwf, IOpCl= 0 IROHF=1.
 SCF density gives NOpUse=  8 NOpAll= 48.
 Marking SCF density as not fully symmetric.

 **********************************************************************

            Population analysis using the SCF density.

 **********************************************************************

 Orbital symmetries:
       Occupied  (A1G) (A1G) (?A) (?A) (?A)
       Virtual   (?A) (?A) (?A) (?B) (T2G) (?B) (T2G) (T2G) (?B)
                 (?A) (?A) (?A) (?B) (?A) (?A) (?A) (?A) (?A) (?A)
                 (?A) (?B) (?B) (?B) (?B) (?B) (?A) (?A) (?A) (?B)
                 (?B) (?B) (?B) (?B) (?B) (?B) (?B) (?B) (?B) (?A)
                 (?A) (?A) (?A) (?A) (?A) (?A) (?B) (?B) (?B) (?B)
                 (?B) (T1U) (T1U) (T1U) (?A) (?A) (?A) (?A) (?A)
                 (?A) (?A) (?A) (?A) (?A) (?A) (?B) (?B) (?B) (?B)
                 (?B) (?B) (?B) (?B) (?B) (?C) (?C) (?C) (?C) (?C)
                 (?C) (?C) (?B) (?B) (?B) (?B) (?B) (?B) (T1U)
                 (T1U) (T1U) (?D) (?D) (?D) (?D) (?D) (?D) (?D)
                 (?D) (?D) (?D) (?D) (?E) (?E) (?F) (?F) (?E) (?E)
                 (?E) (?E) (?F) (?F) (?E) (?E) (?E) (?F) (?F) (?F)
                 (?F) (?F) (?F) (?F) (?F) (?F) (T1U) (T1U) (T1U)
                 (?F) (?F) (?F) (?F) (?F) (?F) (T1U) (T1U) (T1U)
                 (?F) (?F) (?F) (?F) (?F) (?F) (?F) (A1G) (T1U)
                 (T1U) (T1U) (EG) (T2G) (T2G) (T2G) (EG) (A1G)
                 (?F) (?F) (?F) (?F) (?F) (?F) (?F) (?F) (?F) (T1U)
                 (T1U) (T1U) (?F) (?F) (?F) (?F) (?F) (?F) (?F)
                 (A1G) (T1U) (T1U) (T1U) (?F) (?F) (?F) (?F) (?F)
                 (A1G) (T1U) (T1U) (T1U) (T1U) (T1U) (T1U) (A1G)
                 (A1G) (A1G) (A1G) (A1G)
 Unable to determine electronic state:  an orbital has unidentified symmetry.
 Alpha  occ. eigenvalues --  -20.67211  -1.19375  -0.55315  -0.17742  -0.17742
 Alpha virt. eigenvalues --    0.10646   0.10646   0.11019   0.12358   0.39562
 Alpha virt. eigenvalues --    0.39562   0.40195   0.40195   0.40407   0.48538
 Alpha virt. eigenvalues --    0.48538   0.49564   0.72687   0.96071   0.96071
 Alpha virt. eigenvalues --    0.96926   0.96926   0.97444   0.97444   0.97618
 Alpha virt. eigenvalues --    1.23606   1.23606   1.25153   1.25153   1.25638
 Alpha virt. eigenvalues --    1.61533   1.61533   1.63739   2.57833   2.57833
 Alpha virt. eigenvalues --    2.59168   2.59168   2.60127   2.60127   2.60705
 Alpha virt. eigenvalues --    2.60705   2.60899   2.74713   2.83382   2.83382
 Alpha virt. eigenvalues --    2.85503   2.85503   2.86773   2.86773   2.87199
 Alpha virt. eigenvalues --    3.19899   3.19899   3.22879   3.22879   3.23827
 Alpha virt. eigenvalues --    4.64848   4.64848   4.69037   6.12441   6.12441
 Alpha virt. eigenvalues --    6.14272   6.14272   6.15700   6.15700   6.16721
 Alpha virt. eigenvalues --    6.16721   6.17335   6.17335   6.17540   6.99220
 Alpha virt. eigenvalues --    6.99220   7.01884   7.01884   7.03791   7.03791
 Alpha virt. eigenvalues --    7.04936   7.04936   7.05318   7.30214   7.30214
 Alpha virt. eigenvalues --    7.33796   7.33796   7.35938   7.35938   7.36655
 Alpha virt. eigenvalues --    8.17197   8.17197   8.21545   8.21545   8.22973
 Alpha virt. eigenvalues --    8.69964  12.52784  12.52784  12.58567  16.11424
 Alpha virt. eigenvalues --   16.11424  16.14386  16.14386  16.16694  16.16694
 Alpha virt. eigenvalues --   16.18345  16.18345  16.19336  16.19336  16.19667
 Alpha virt. eigenvalues --   18.95253  18.95253  18.97889  18.97889  18.98971
 Alpha virt. eigenvalues --   18.98971  19.01629  19.01629  19.02161  19.02161
 Alpha virt. eigenvalues --   19.03226  19.03226  19.03758  19.04723  19.04723
 Alpha virt. eigenvalues --   19.05577  21.45568  21.45568  21.50347  21.50347
 Alpha virt. eigenvalues --   21.51919  24.03971  31.13081  31.13081  31.19293
 Alpha virt. eigenvalues --   57.22633  60.69724  60.69724  60.73567  60.73567
 Alpha virt. eigenvalues --   60.74879  67.97029  67.97029  68.02888  71.47348
 Alpha virt. eigenvalues --   71.47348  71.50523  71.50523  71.52434  71.52434
 Alpha virt. eigenvalues --   71.53072 119.45089 134.19527 134.19527 134.24588
 Alpha virt. eigenvalues --  179.86486 179.86486 179.88800 179.88800 179.89573
 Alpha virt. eigenvalues --  230.70507 243.72690 243.72690 243.74333 243.74333
 Alpha virt. eigenvalues --  243.75507 243.75507 243.76211 243.76211 243.76446
 Alpha virt. eigenvalues --  250.36505 250.36505 250.40529 288.58987 288.58987
 Alpha virt. eigenvalues --  288.60457 288.60457 288.61339 288.61339 288.61634
 Alpha virt. eigenvalues --  428.86447 454.63521 454.63521 454.66426 546.39982
 Alpha virt. eigenvalues --  546.39982 546.41042 546.41042 546.41396 805.52876
 Alpha virt. eigenvalues --  841.69640 841.69640 841.714951550.015701550.01570
 Alpha virt. eigenvalues -- 1550.026001674.953184054.67616********************
 Alpha virt. eigenvalues -- **********
     Molecular Orbital Coefficients:
                           1         2         3         4         5
                       (A1G)--O  (A1G)--O      O         O         O
     Eigenvalues --   -20.67211  -1.19375  -0.55315  -0.17742  -0.17742
   1 1   O  1S          0.00008  -0.00002  -0.00000   0.00000  -0.00000
   2        2S          0.00032  -0.00007   0.00000  -0.00000   0.00000
   3        3S          0.00128  -0.00029  -0.00000   0.00000  -0.00000
   4        4S          0.00476  -0.00109   0.00000  -0.00000   0.00000
   5        5S          0.01663  -0.00380  -0.00000   0.00000  -0.00000
   6        6S          0.02588  -0.00568  -0.00000   0.00000  -0.00000
   7        7S          0.05389  -0.01587   0.00000  -0.00000   0.00000
   8        8S          0.09930  -0.02837   0.00000  -0.00000   0.00000
   9        9S          0.24544  -0.07393  -0.00000   0.00000  -0.00000
  10       10S          0.28822  -0.15357   0.00000  -0.00000   0.00000
  11       11S          0.05976   0.01396  -0.00000   0.00000  -0.00000
  12       12S          0.00243   0.38246   0.00000  -0.00000   0.00000
  13       13S          0.00005   0.53930  -0.00000   0.00000  -0.00000
  14       14S          0.00008   0.19878  -0.00000  -0.00000   0.00000
  15       15S          0.13770  -0.05109   0.00000  -0.00000   0.00000
  16       16S          0.14108  -0.03467  -0.00000   0.00000  -0.00000
  17       17S          0.05660  -0.01155  -0.00000   0.00000  -0.00000
  18       18S          0.02187  -0.00555   0.00000  -0.00000   0.00000
  19       19S         -0.00003   0.00176   0.00000   0.00000  -0.00000
  20       20PX         0.00000   0.00000  -0.00000   0.00051  -0.00207
  21       20PY        -0.00000   0.00000   0.00000  -0.00207  -0.00051
  22       20PZ         0.00000   0.00000  -0.00206  -0.00000   0.00000
  23       21PX         0.00000   0.00000  -0.00000   0.00057  -0.00230
  24       21PY        -0.00000   0.00000   0.00000  -0.00230  -0.00057
  25       21PZ         0.00000   0.00000  -0.00233  -0.00000   0.00000
  26       22PX         0.00000  -0.00000  -0.00000   0.00656  -0.02672
  27       22PY        -0.00000   0.00000  -0.00000  -0.02672  -0.00656
  28       22PZ         0.00000   0.00000  -0.02753  -0.00000   0.00000
  29       23PX         0.00000  -0.00000  -0.00000  -0.02756   0.11224
  30       23PY        -0.00000   0.00000   0.00000   0.11224   0.02756
  31       23PZ         0.00000  -0.00000   0.11170  -0.00000   0.00000
  32       24PX        -0.00000  -0.00000   0.00000  -0.06304   0.25674
  33       24PY         0.00000  -0.00000   0.00000   0.25674   0.06304
  34       24PZ        -0.00000  -0.00000   0.25183  -0.00000  -0.00000
  35       25PX         0.00000  -0.00000   0.00000  -0.09168   0.37337
  36       25PY        -0.00000   0.00000   0.00000   0.37337   0.09168
  37       25PZ         0.00000  -0.00000   0.36124  -0.00000  -0.00000
  38       26PX        -0.00000   0.00000   0.00000  -0.08088   0.32937
  39       26PY         0.00000  -0.00000   0.00000   0.32937   0.08088
  40       26PZ        -0.00000  -0.00000   0.34789  -0.00000  -0.00000
  41       27PX         0.00000  -0.00000   0.00000  -0.02529   0.10298
  42       27PY        -0.00000   0.00000   0.00000   0.10298   0.02529
  43       27PZ         0.00000  -0.00000   0.15035  -0.00000  -0.00000
  44       28PX        -0.00000   0.00000   0.00000  -0.01465   0.05967
  45       28PY         0.00000  -0.00000   0.00000   0.05967   0.01465
  46       28PZ        -0.00000  -0.00000   0.06038   0.00000  -0.00000
  47       29PX        -0.00000  -0.00000   0.00000  -0.00258   0.01050
  48       29PY         0.00000  -0.00000   0.00000   0.01050   0.00258
  49       29PZ        -0.00000  -0.00000   0.01048   0.00000  -0.00000
  50       30PX        -0.00000  -0.00000   0.00000  -0.00070   0.00285
  51       30PY         0.00000  -0.00000  -0.00000   0.00285   0.00070
  52       30PZ        -0.00000  -0.00000   0.00283   0.00000  -0.00000
  53       31PX        -0.00000  -0.00000   0.00000  -0.00053   0.00214
  54       31PY         0.00000  -0.00000  -0.00000   0.00214   0.00053
  55       31PZ        -0.00000  -0.00000   0.00213   0.00000  -0.00000
  56       32PX        -0.00000  -0.00000   0.00000  -0.00002   0.00009
  57       32PY         0.00000   0.00000   0.00000   0.00009   0.00002
  58       32PZ        -0.00000  -0.00000   0.00575   0.00000   0.00000
  59       33D 0       -0.00011   0.00048  -0.00000  -0.00000  -0.00000
  60       33D+1        0.00000   0.00000  -0.00000   0.00000   0.00000
  61       33D-1       -0.00000   0.00000  -0.00000  -0.00000  -0.00000
  62       33D+2       -0.00000   0.00000  -0.00000   0.00000   0.00000
  63       33D-2        0.00000  -0.00000   0.00000   0.00000   0.00000
  64       34D 0        0.00028   0.00027  -0.00000  -0.00000  -0.00000
  65       34D+1        0.00000   0.00000   0.00000   0.00000   0.00000
  66       34D-1       -0.00000   0.00000  -0.00000  -0.00000  -0.00000
  67       34D+2        0.00000   0.00000  -0.00000  -0.00000   0.00000
  68       34D-2       -0.00000  -0.00000   0.00000   0.00000   0.00000
  69       35D 0        0.00012   0.00028  -0.00000  -0.00000  -0.00000
  70       35D+1       -0.00000   0.00000   0.00000  -0.00000   0.00000
  71       35D-1       -0.00000   0.00000  -0.00000  -0.00000  -0.00000
  72       35D+2       -0.00000   0.00000  -0.00000   0.00000   0.00000
  73       35D-2        0.00000  -0.00000   0.00000   0.00000   0.00000
  74       36D 0        0.00004   0.00318   0.00000   0.00000  -0.00000
  75       36D+1       -0.00000  -0.00000  -0.00000  -0.00000   0.00000
  76       36D-1        0.00000   0.00000   0.00000  -0.00000  -0.00000
  77       36D+2        0.00000  -0.00000   0.00000  -0.00000   0.00000
  78       36D-2       -0.00000  -0.00000   0.00000   0.00000   0.00000
  79       37D 0       -0.00014   0.00010  -0.00000  -0.00000  -0.00000
  80       37D+1        0.00000   0.00000  -0.00000   0.00000   0.00000
  81       37D-1        0.00000   0.00000  -0.00000  -0.00000  -0.00000
  82       37D+2        0.00000   0.00000  -0.00000  -0.00000   0.00000
  83       37D-2       -0.00000   0.00000   0.00000   0.00000   0.00000
  84       38D 0       -0.00001   0.00001  -0.00000  -0.00000  -0.00000
  85       38D+1       -0.00000   0.00000  -0.00000   0.00000   0.00000
  86       38D-1       -0.00000   0.00000  -0.00000  -0.00000  -0.00000
  87       38D+2       -0.00000   0.00000   0.00000  -0.00000   0.00000
  88       38D-2        0.00000  -0.00000  -0.00000   0.00000   0.00000
  89       39D 0       -0.00000   0.00000   0.00000   0.00000   0.00000
  90       39D+1        0.00000   0.00000  -0.00000   0.00000   0.00000
  91       39D-1        0.00000  -0.00000   0.00000  -0.00000  -0.00000
  92       39D+2        0.00000  -0.00000  -0.00000  -0.00000   0.00000
  93       39D-2        0.00000   0.00000   0.00000   0.00000  -0.00000
  94       40D 0        0.00000   0.00142   0.00000  -0.00000   0.00000
  95       40D+1       -0.00000  -0.00000  -0.00000  -0.00000   0.00000
  96       40D-1        0.00000   0.00000   0.00000  -0.00000  -0.00000
  97       40D+2       -0.00000  -0.00000   0.00000   0.00000   0.00000
  98       40D-2       -0.00000  -0.00000   0.00000  -0.00000  -0.00000
  99       41F 0       -0.00000   0.00000  -0.00064   0.00000   0.00000
 100       41F+1       -0.00000  -0.00000   0.00000   0.00029  -0.00116
 101       41F-1        0.00000  -0.00000   0.00000  -0.00116  -0.00029
 102       41F+2       -0.00000  -0.00000   0.00000   0.00000   0.00000
 103       41F-2        0.00000   0.00000  -0.00000   0.00000   0.00000
 104       41F+3        0.00000  -0.00000  -0.00000   0.00000  -0.00000
 105       41F-3       -0.00000  -0.00000  -0.00000  -0.00000  -0.00000
 106       42F 0        0.00000   0.00000  -0.00221   0.00000   0.00000
 107       42F+1        0.00000  -0.00000   0.00000   0.00096  -0.00392
 108       42F-1       -0.00000  -0.00000   0.00000  -0.00392  -0.00096
 109       42F+2       -0.00000  -0.00000   0.00000   0.00000  -0.00000
 110       42F-2        0.00000   0.00000  -0.00000   0.00000   0.00000
 111       42F+3       -0.00000  -0.00000  -0.00000   0.00000  -0.00000
 112       42F-3        0.00000  -0.00000  -0.00000  -0.00000  -0.00000
 113       43F 0       -0.00000   0.00000  -0.00301   0.00000   0.00000
 114       43F+1       -0.00000  -0.00000   0.00000   0.00117  -0.00476
 115       43F-1        0.00000  -0.00000   0.00000  -0.00476  -0.00117
 116       43F+2       -0.00000  -0.00000   0.00000   0.00000  -0.00000
 117       43F-2        0.00000   0.00000  -0.00000   0.00000   0.00000
 118       43F+3        0.00000  -0.00000  -0.00000   0.00000  -0.00000
 119       43F-3       -0.00000  -0.00000  -0.00000  -0.00000  -0.00000
 120       44F 0        0.00000  -0.00000  -0.00004   0.00000   0.00000
 121       44F+1        0.00000  -0.00000  -0.00000   0.00002  -0.00007
 122       44F-1       -0.00000  -0.00000   0.00000  -0.00007  -0.00002
 123       44F+2        0.00000  -0.00000   0.00000   0.00000   0.00000
 124       44F-2        0.00000   0.00000  -0.00000  -0.00000   0.00000
 125       44F+3       -0.00000  -0.00000  -0.00000  -0.00000  -0.00000
 126       44F-3        0.00000  -0.00000  -0.00000  -0.00000  -0.00000
 127       45F 0       -0.00000   0.00000   0.00000  -0.00000  -0.00000
 128       45F+1       -0.00000  -0.00000  -0.00000  -0.00000   0.00000
 129       45F-1        0.00000  -0.00000  -0.00000   0.00000   0.00000
 130       45F+2        0.00000  -0.00000   0.00000  -0.00000  -0.00000
 131       45F-2       -0.00000   0.00000  -0.00000   0.00000   0.00000
 132       45F+3        0.00000   0.00000  -0.00000   0.00000   0.00000
 133       45F-3       -0.00000   0.00000  -0.00000   0.00000   0.00000
 134       46F 0        0.00000   0.00000  -0.00142   0.00000   0.00000
 135       46F+1        0.00000  -0.00000   0.00000   0.00039  -0.00160
 136       46F-1       -0.00000  -0.00000   0.00000  -0.00160  -0.00039
 137       46F+2        0.00000   0.00000   0.00000  -0.00000  -0.00000
 138       46F-2        0.00000  -0.00000  -0.00000   0.00000   0.00000
 139       46F+3       -0.00000  -0.00000  -0.00000  -0.00000  -0.00000
 140       46F-3        0.00000  -0.00000  -0.00000  -0.00000  -0.00000
 141       47G 0        0.00000  -0.00000   0.00000   0.00000   0.00000
 142       47G+1        0.00000   0.00000   0.00000  -0.00000  -0.00000
 143       47G-1       -0.00000   0.00000   0.00000   0.00000   0.00000
 144       47G+2        0.00000   0.00000  -0.00000   0.00000   0.00000
 145       47G-2       -0.00000   0.00000  -0.00000  -0.00000  -0.00000
 146       47G+3       -0.00000  -0.00000   0.00000   0.00000  -0.00000
 147       47G-3        0.00000  -0.00000   0.00000   0.00000   0.00000
 148       47G+4       -0.00000   0.00000  -0.00000   0.00000  -0.00000
 149       47G-4        0.00000  -0.00000   0.00000   0.00000   0.00000
 150       48G 0       -0.00000   0.00000   0.00000   0.00000   0.00000
 151       48G+1        0.00000   0.00000   0.00000  -0.00000  -0.00000
 152       48G-1        0.00000   0.00000   0.00000   0.00000   0.00000
 153       48G+2       -0.00000   0.00000   0.00000   0.00000  -0.00000
 154       48G-2        0.00000  -0.00000   0.00000  -0.00000  -0.00000
 155       48G+3       -0.00000  -0.00000   0.00000   0.00000  -0.00000
 156       48G-3       -0.00000  -0.00000   0.00000   0.00000   0.00000
 157       48G+4        0.00000  -0.00000   0.00000  -0.00000  -0.00000
 158       48G-4        0.00000  -0.00000   0.00000   0.00000   0.00000
 159       49G 0        0.00000  -0.00000  -0.00000   0.00000  -0.00000
 160       49G+1        0.00000   0.00000  -0.00000   0.00000  -0.00000
 161       49G-1       -0.00000  -0.00000  -0.00000   0.00000   0.00000
 162       49G+2       -0.00000   0.00000  -0.00000   0.00000  -0.00000
 163       49G-2       -0.00000   0.00000  -0.00000  -0.00000  -0.00000
 164       49G+3        0.00000  -0.00000   0.00000   0.00000   0.00000
 165       49G-3        0.00000   0.00000  -0.00000   0.00000  -0.00000
 166       49G+4        0.00000   0.00000  -0.00000   0.00000  -0.00000
 167       49G-4       -0.00000  -0.00000  -0.00000  -0.00000   0.00000
 168       50G 0       -0.00000  -0.00002   0.00000   0.00000  -0.00000
 169       50G+1        0.00000   0.00000  -0.00000  -0.00000  -0.00000
 170       50G-1        0.00000   0.00000   0.00000   0.00000   0.00000
 171       50G+2        0.00000   0.00000   0.00000  -0.00000  -0.00000
 172       50G-2       -0.00000   0.00000  -0.00000   0.00000   0.00000
 173       50G+3       -0.00000  -0.00000   0.00000   0.00000   0.00000
 174       50G-3        0.00000  -0.00000   0.00000   0.00000   0.00000
 175       50G+4       -0.00000   0.00000   0.00000   0.00000   0.00000
 176       50G-4        0.00000  -0.00000   0.00000   0.00000   0.00000
 177       51H 0        0.00000  -0.00000   0.00001  -0.00000  -0.00000
 178       51H+1        0.00000  -0.00000   0.00000  -0.00001   0.00003
 179       51H-1       -0.00000  -0.00000  -0.00000   0.00003   0.00001
 180       51H+2       -0.00000   0.00000  -0.00000  -0.00000  -0.00000
 181       51H-2        0.00000  -0.00000  -0.00000  -0.00000  -0.00000
 182       51H+3       -0.00000  -0.00000   0.00000   0.00000  -0.00000
 183       51H-3       -0.00000   0.00000   0.00000  -0.00000  -0.00000
 184       51H+4        0.00000  -0.00000   0.00000  -0.00000  -0.00000
 185       51H-4       -0.00000   0.00000   0.00000  -0.00000   0.00000
 186       51H+5       -0.00000   0.00000  -0.00000  -0.00000   0.00000
 187       51H-5        0.00000   0.00000   0.00000   0.00000  -0.00000
 188       52H 0        0.00000  -0.00000   0.00002  -0.00000  -0.00000
 189       52H+1       -0.00000   0.00000  -0.00000  -0.00001   0.00005
 190       52H-1        0.00000   0.00000  -0.00000   0.00005   0.00001
 191       52H+2        0.00000  -0.00000  -0.00000  -0.00000  -0.00000
 192       52H-2       -0.00000  -0.00000   0.00000  -0.00000  -0.00000
 193       52H+3        0.00000  -0.00000  -0.00000  -0.00000   0.00000
 194       52H-3        0.00000   0.00000   0.00000   0.00000   0.00000
 195       52H+4       -0.00000   0.00000   0.00000  -0.00000   0.00000
 196       52H-4        0.00000   0.00000   0.00000   0.00000   0.00000
 197       52H+5        0.00000  -0.00000   0.00000   0.00000   0.00000
 198       52H-5       -0.00000   0.00000   0.00000  -0.00000   0.00000
                           6         7         8         9        10
                           V         V         V         V     (T2G)--V
     Eigenvalues --     0.10646   0.10646   0.11019   0.12358   0.39562
   1 1   O  1S          0.00000  -0.00000  -0.00000   0.00000   0.00000
   2        2S         -0.00000   0.00000   0.00000   0.00001  -0.00000
   3        3S          0.00000  -0.00000  -0.00000   0.00007   0.00000
   4        4S         -0.00000   0.00000   0.00000   0.00015  -0.00000
   5        5S          0.00000  -0.00000  -0.00000   0.00118   0.00000
   6        6S          0.00000  -0.00000  -0.00000   0.01714   0.00000
   7        7S         -0.00000   0.00000   0.00000  -0.09565  -0.00000
   8        8S          0.00000   0.00000   0.00000  -0.07628  -0.00000
   9        9S          0.00000  -0.00000  -0.00000   0.26332   0.00000
  10       10S         -0.00000   0.00000   0.00000  -0.06359  -0.00000
  11       11S          0.00000  -0.00000  -0.00000   0.12775   0.00000
  12       12S         -0.00000   0.00000   0.00000  -0.33642  -0.00000
  13       13S          0.00000  -0.00000  -0.00000   0.37988  -0.00000
  14       14S         -0.00000   0.00000   0.00000  -1.32167   0.00000
  15       15S         -0.00000   0.00000   0.00000  -0.19597  -0.00000
  16       16S          0.00000  -0.00000  -0.00000   0.11482   0.00000
  17       17S          0.00000  -0.00000  -0.00000   0.08242   0.00000
  18       18S         -0.00000   0.00000   0.00000  -0.01728  -0.00000
  19       19S          0.00000  -0.00000  -0.00000   1.75841  -0.00000
  20       20PX         0.00004  -0.00118   0.00000  -0.00000  -0.00000
  21       20PY        -0.00118  -0.00004   0.00000  -0.00000  -0.00000
  22       20PZ         0.00000  -0.00000  -0.00117  -0.00000   0.00000
  23       21PX         0.00035  -0.01055   0.00000   0.00000  -0.00000
  24       21PY        -0.01055  -0.00035   0.00000  -0.00000   0.00000
  25       21PZ         0.00000  -0.00000  -0.01085  -0.00000   0.00000
  26       22PX         0.00614  -0.18595   0.00000   0.00000  -0.00000
  27       22PY        -0.18595  -0.00614   0.00000  -0.00000   0.00000
  28       22PZ         0.00000  -0.00000  -0.19142   0.00000   0.00000
  29       23PX         0.00102  -0.03094  -0.00000   0.00000  -0.00000
  30       23PY        -0.03094  -0.00102  -0.00000  -0.00000  -0.00000
  31       23PZ         0.00000   0.00000  -0.03463  -0.00000   0.00000
  32       24PX         0.00015  -0.00462  -0.00000   0.00000  -0.00000
  33       24PY        -0.00462  -0.00015  -0.00000  -0.00000  -0.00000
  34       24PZ        -0.00000   0.00000  -0.01066  -0.00000   0.00000
  35       25PX         0.00398  -0.12058  -0.00000   0.00000   0.00000
  36       25PY        -0.12058  -0.00398  -0.00000  -0.00000   0.00000
  37       25PZ         0.00000   0.00000  -0.13174  -0.00000  -0.00000
  38       26PX        -0.00422   0.12782   0.00000   0.00000  -0.00000
  39       26PY         0.12782   0.00422   0.00000  -0.00000  -0.00000
  40       26PZ        -0.00000  -0.00000   0.12603  -0.00000   0.00000
  41       27PX         0.01780  -0.53948  -0.00000  -0.00000   0.00000
  42       27PY        -0.53948  -0.01780  -0.00000   0.00000   0.00000
  43       27PZ         0.00000   0.00000  -0.55888  -0.00000  -0.00000
  44       28PX        -0.00605   0.18345  -0.00000  -0.00000  -0.00000
  45       28PY         0.18345   0.00605  -0.00000   0.00000  -0.00000
  46       28PZ        -0.00000   0.00000   0.18804  -0.00000  -0.00000
  47       29PX        -0.00043   0.01314  -0.00000  -0.00000   0.00000
  48       29PY         0.01314   0.00043  -0.00000   0.00000  -0.00000
  49       29PZ        -0.00000   0.00000   0.01333   0.00000  -0.00000
  50       30PX        -0.00006   0.00167  -0.00000   0.00000   0.00000
  51       30PY         0.00167   0.00006  -0.00000   0.00000   0.00000
  52       30PZ        -0.00000   0.00000   0.00166   0.00000  -0.00000
  53       31PX        -0.00002   0.00070  -0.00000   0.00000   0.00000
  54       31PY         0.00070   0.00002  -0.00000   0.00000   0.00000
  55       31PZ        -0.00000   0.00000   0.00067   0.00000  -0.00000
  56       32PX        -0.04281   1.29754   0.00000   0.00000  -0.00000
  57       32PY         1.29754   0.04281   0.00000  -0.00000  -0.00000
  58       32PZ        -0.00000  -0.00000   1.30501   0.00000   0.00000
  59       33D 0       -0.00000   0.00000  -0.00000  -0.00015  -0.00000
  60       33D+1       -0.00000  -0.00000   0.00000   0.00000  -0.00000
  61       33D-1       -0.00000  -0.00000  -0.00000  -0.00000  -0.00000
  62       33D+2        0.00000   0.00000   0.00000  -0.00000   0.00003
  63       33D-2        0.00000   0.00000   0.00000   0.00000   0.01001
  64       34D 0       -0.00000  -0.00000  -0.00000   0.00106   0.00000
  65       34D+1       -0.00000  -0.00000  -0.00000   0.00000   0.00000
  66       34D-1       -0.00000  -0.00000  -0.00000  -0.00000   0.00000
  67       34D+2       -0.00000   0.00000   0.00000  -0.00000  -0.00008
  68       34D-2        0.00000   0.00000   0.00000   0.00000  -0.02784
  69       35D 0       -0.00000   0.00000   0.00000  -0.00011  -0.00000
  70       35D+1        0.00000  -0.00000   0.00000   0.00000  -0.00000
  71       35D-1       -0.00000  -0.00000  -0.00000  -0.00000  -0.00000
  72       35D+2        0.00000  -0.00000  -0.00000  -0.00000   0.00036
  73       35D-2        0.00000   0.00000   0.00000   0.00000   0.11904
  74       36D 0        0.00000  -0.00000  -0.00000   0.00424   0.00000
  75       36D+1        0.00000  -0.00000   0.00000  -0.00000   0.00000
  76       36D-1       -0.00000  -0.00000  -0.00000  -0.00000   0.00000
  77       36D+2       -0.00000   0.00000  -0.00000  -0.00000  -0.00087
  78       36D-2        0.00000   0.00000   0.00000  -0.00000  -0.28633
  79       37D 0       -0.00000  -0.00000  -0.00000   0.00003   0.00000
  80       37D+1       -0.00000   0.00000   0.00000   0.00000   0.00000
  81       37D-1       -0.00000  -0.00000  -0.00000  -0.00000   0.00000
  82       37D+2       -0.00000   0.00000   0.00000   0.00000  -0.00001
  83       37D-2        0.00000   0.00000   0.00000   0.00000  -0.00209
  84       38D 0       -0.00000  -0.00000  -0.00000  -0.00001  -0.00000
  85       38D+1       -0.00000  -0.00000   0.00000   0.00000  -0.00000
  86       38D-1       -0.00000   0.00000  -0.00000  -0.00000  -0.00000
  87       38D+2       -0.00000  -0.00000   0.00000   0.00000   0.00000
  88       38D-2        0.00000   0.00000  -0.00000   0.00000   0.00056
  89       39D 0        0.00000   0.00000   0.00000   0.00000   0.00000
  90       39D+1        0.00000   0.00000   0.00000   0.00000   0.00000
  91       39D-1       -0.00000  -0.00000  -0.00000   0.00000   0.00000
  92       39D+2        0.00000   0.00000   0.00000   0.00000  -0.00000
  93       39D-2        0.00000  -0.00000   0.00000   0.00000  -0.00011
  94       40D 0       -0.00000   0.00000   0.00000  -0.02188  -0.00000
  95       40D+1        0.00000  -0.00000   0.00000   0.00000  -0.00000
  96       40D-1       -0.00000  -0.00000   0.00000  -0.00000  -0.00000
  97       40D+2        0.00000  -0.00000  -0.00000  -0.00000   0.00348
  98       40D-2        0.00000   0.00000  -0.00000   0.00000   1.14992
  99       41F 0        0.00000  -0.00000   0.00020   0.00000  -0.00000
 100       41F+1       -0.00000   0.00015   0.00000  -0.00000  -0.00000
 101       41F-1        0.00015   0.00000   0.00000   0.00000  -0.00000
 102       41F+2        0.00000   0.00000  -0.00000  -0.00000   0.00000
 103       41F-2        0.00000  -0.00000   0.00000  -0.00000  -0.00000
 104       41F+3        0.00000  -0.00000   0.00000   0.00000   0.00000
 105       41F-3       -0.00000  -0.00000   0.00000  -0.00000   0.00000
 106       42F 0        0.00000   0.00000   0.00024   0.00000  -0.00000
 107       42F+1       -0.00000   0.00015   0.00000  -0.00000  -0.00000
 108       42F-1        0.00015   0.00000   0.00000   0.00000  -0.00000
 109       42F+2        0.00000   0.00000  -0.00000  -0.00000  -0.00000
 110       42F-2       -0.00000  -0.00000   0.00000  -0.00000  -0.00000
 111       42F+3        0.00000  -0.00000  -0.00000   0.00000   0.00000
 112       42F-3       -0.00000  -0.00000   0.00000   0.00000   0.00000
 113       43F 0        0.00000  -0.00000   0.00142   0.00000  -0.00000
 114       43F+1       -0.00004   0.00112   0.00000  -0.00000  -0.00000
 115       43F-1        0.00112   0.00004   0.00000   0.00000  -0.00000
 116       43F+2        0.00000   0.00000  -0.00000  -0.00000   0.00000
 117       43F-2        0.00000  -0.00000   0.00000  -0.00000  -0.00000
 118       43F+3        0.00000  -0.00000   0.00000   0.00000   0.00000
 119       43F-3       -0.00000   0.00000   0.00000  -0.00000   0.00000
 120       44F 0        0.00000   0.00000   0.00000  -0.00000  -0.00000
 121       44F+1       -0.00000   0.00000   0.00000  -0.00000  -0.00000
 122       44F-1        0.00000   0.00000   0.00000   0.00000  -0.00000
 123       44F+2        0.00000   0.00000  -0.00000  -0.00000  -0.00000
 124       44F-2       -0.00000   0.00000   0.00000  -0.00000  -0.00000
 125       44F+3       -0.00000  -0.00000   0.00000   0.00000  -0.00000
 126       44F-3       -0.00000  -0.00000   0.00000  -0.00000  -0.00000
 127       45F 0       -0.00000  -0.00000   0.00000   0.00000  -0.00000
 128       45F+1       -0.00000   0.00000   0.00000  -0.00000  -0.00000
 129       45F-1        0.00000   0.00000   0.00000  -0.00000  -0.00000
 130       45F+2       -0.00000  -0.00000  -0.00000   0.00000  -0.00000
 131       45F-2        0.00000   0.00000   0.00000  -0.00000  -0.00000
 132       45F+3        0.00000   0.00000   0.00000  -0.00000   0.00000
 133       45F-3        0.00000   0.00000  -0.00000  -0.00000   0.00000
 134       46F 0        0.00000   0.00000  -0.00344  -0.00000  -0.00000
 135       46F+1        0.00009  -0.00285  -0.00000  -0.00000  -0.00000
 136       46F-1       -0.00285  -0.00009  -0.00000   0.00000  -0.00000
 137       46F+2        0.00000   0.00000  -0.00000  -0.00000  -0.00000
 138       46F-2       -0.00000  -0.00000   0.00000   0.00000  -0.00000
 139       46F+3       -0.00000  -0.00000  -0.00000   0.00000  -0.00000
 140       46F-3       -0.00000   0.00000   0.00000  -0.00000   0.00000
 141       47G 0       -0.00000   0.00000  -0.00000  -0.00000   0.00000
 142       47G+1       -0.00000  -0.00000  -0.00000   0.00000   0.00000
 143       47G-1        0.00000   0.00000   0.00000   0.00000   0.00000
 144       47G+2        0.00000   0.00000   0.00000   0.00000  -0.00000
 145       47G-2       -0.00000  -0.00000  -0.00000  -0.00000  -0.00013
 146       47G+3        0.00000   0.00000   0.00000  -0.00000  -0.00000
 147       47G-3        0.00000   0.00000   0.00000  -0.00000  -0.00000
 148       47G+4        0.00000  -0.00000   0.00000  -0.00000   0.00000
 149       47G-4        0.00000  -0.00000   0.00000   0.00000  -0.00000
 150       48G 0       -0.00000   0.00000  -0.00000  -0.00002  -0.00000
 151       48G+1       -0.00000  -0.00000  -0.00000   0.00000  -0.00000
 152       48G-1        0.00000   0.00000   0.00000   0.00000  -0.00000
 153       48G+2        0.00000  -0.00000  -0.00000  -0.00000   0.00000
 154       48G-2        0.00000   0.00000  -0.00000   0.00000   0.00041
 155       48G+3        0.00000   0.00000   0.00000  -0.00000  -0.00000
 156       48G-3        0.00000   0.00000   0.00000  -0.00000  -0.00000
 157       48G+4       -0.00000   0.00000  -0.00000   0.00000  -0.00000
 158       48G-4        0.00000   0.00000   0.00000   0.00000  -0.00000
 159       49G 0        0.00000  -0.00000   0.00000  -0.00000  -0.00000
 160       49G+1       -0.00000  -0.00000   0.00000  -0.00000   0.00000
 161       49G-1        0.00000   0.00000   0.00000  -0.00000   0.00000
 162       49G+2       -0.00000  -0.00000   0.00000  -0.00000   0.00000
 163       49G-2       -0.00000  -0.00000   0.00000  -0.00000   0.00000
 164       49G+3        0.00000  -0.00000  -0.00000   0.00000   0.00000
 165       49G-3        0.00000  -0.00000   0.00000  -0.00000  -0.00000
 166       49G+4        0.00000  -0.00000   0.00000  -0.00000  -0.00000
 167       49G-4       -0.00000  -0.00000  -0.00000   0.00000  -0.00000
 168       50G 0       -0.00000  -0.00000  -0.00000   0.00007   0.00000
 169       50G+1       -0.00000  -0.00000  -0.00000   0.00000   0.00000
 170       50G-1        0.00000   0.00000   0.00000   0.00000   0.00000
 171       50G+2       -0.00000  -0.00000   0.00000   0.00000  -0.00001
 172       50G-2       -0.00000  -0.00000   0.00000  -0.00000  -0.00260
 173       50G+3        0.00000   0.00000   0.00000  -0.00000  -0.00000
 174       50G-3        0.00000   0.00000   0.00000  -0.00000  -0.00000
 175       50G+4       -0.00000  -0.00000   0.00000  -0.00000  -0.00000
 176       50G-4        0.00000   0.00000   0.00000   0.00000  -0.00000
 177       51H 0       -0.00000   0.00000  -0.00000  -0.00000  -0.00000
 178       51H+1        0.00000  -0.00000  -0.00000   0.00000  -0.00000
 179       51H-1       -0.00000  -0.00000  -0.00000   0.00000  -0.00000
 180       51H+2       -0.00000  -0.00000  -0.00000  -0.00000   0.00000
 181       51H-2        0.00000  -0.00000  -0.00000   0.00000   0.00000
 182       51H+3        0.00000   0.00000   0.00000  -0.00000  -0.00000
 183       51H-3       -0.00000  -0.00000  -0.00000   0.00000  -0.00000
 184       51H+4       -0.00000   0.00000   0.00000   0.00000  -0.00000
 185       51H-4       -0.00000  -0.00000   0.00000  -0.00000   0.00000
 186       51H+5       -0.00000   0.00000  -0.00000  -0.00000  -0.00000
 187       51H-5        0.00000   0.00000   0.00000  -0.00000   0.00000
 188       52H 0       -0.00000  -0.00000   0.00000   0.00000   0.00000
 189       52H+1       -0.00000   0.00000   0.00000  -0.00000   0.00000
 190       52H-1        0.00000   0.00000   0.00000  -0.00000   0.00000
 191       52H+2       -0.00000  -0.00000   0.00000   0.00000  -0.00000
 192       52H-2       -0.00000   0.00000  -0.00000  -0.00000  -0.00000
 193       52H+3       -0.00000   0.00000   0.00000   0.00000   0.00000
 194       52H-3        0.00000  -0.00000  -0.00000   0.00000   0.00000
 195       52H+4       -0.00000  -0.00000   0.00000   0.00000  -0.00000
 196       52H-4        0.00000   0.00000   0.00000   0.00000   0.00000
 197       52H+5        0.00000   0.00000  -0.00000   0.00000   0.00000
 198       52H-5       -0.00000  -0.00000  -0.00000  -0.00000  -0.00000
     Alpha Density Matrix:
                           1         2         3         4         5
   1 1   O  1S          0.00000
   2        2S          0.00000   0.00000
   3        3S          0.00000   0.00000   0.00000
   4        4S          0.00000   0.00000   0.00001   0.00002
   5        5S          0.00000   0.00001   0.00002   0.00008   0.00029
   6        6S          0.00000   0.00001   0.00003   0.00013   0.00045
   7        7S          0.00000   0.00002   0.00007   0.00027   0.00096
   8        8S          0.00001   0.00003   0.00014   0.00050   0.00176
   9        9S          0.00002   0.00009   0.00034   0.00125   0.00436
  10       10S          0.00003   0.00010   0.00041   0.00154   0.00538
  11       11S          0.00000   0.00002   0.00007   0.00027   0.00094
  12       12S         -0.00001  -0.00003  -0.00011  -0.00040  -0.00141
  13       13S         -0.00001  -0.00004  -0.00016  -0.00058  -0.00205
  14       14S         -0.00000  -0.00001  -0.00006  -0.00022  -0.00075
  15       15S          0.00001   0.00005   0.00019   0.00071   0.00248
  16       16S          0.00001   0.00005   0.00019   0.00071   0.00248
  17       17S          0.00001   0.00002   0.00008   0.00028   0.00098
  18       18S          0.00000   0.00001   0.00003   0.00011   0.00038
  19       19S         -0.00000  -0.00000  -0.00000  -0.00000  -0.00001
  20       20PX        -0.00000  -0.00000  -0.00000  -0.00000  -0.00000
  21       20PY         0.00000   0.00000   0.00000   0.00000   0.00000
  22       20PZ         0.00000   0.00000   0.00000   0.00000   0.00000
  23       21PX        -0.00000  -0.00000  -0.00000  -0.00000  -0.00000
  24       21PY         0.00000   0.00000   0.00000   0.00000   0.00000
  25       21PZ         0.00000   0.00000   0.00000   0.00000   0.00000
  26       22PX        -0.00000  -0.00000  -0.00000  -0.00000  -0.00000
  27       22PY         0.00000   0.00000   0.00000   0.00000   0.00000
  28       22PZ         0.00000   0.00000   0.00000   0.00000   0.00000
  29       23PX         0.00000   0.00000   0.00000  -0.00000   0.00000
  30       23PY         0.00000  -0.00000   0.00000  -0.00000   0.00000
  31       23PZ        -0.00000   0.00000  -0.00000   0.00000  -0.00000
  32       24PX         0.00000   0.00000   0.00000  -0.00000   0.00000
  33       24PY         0.00000  -0.00000   0.00000   0.00000   0.00000
  34       24PZ        -0.00000   0.00000  -0.00000   0.00000  -0.00000
  35       25PX         0.00000  -0.00000   0.00000  -0.00000   0.00000
  36       25PY         0.00000   0.00000   0.00000   0.00000   0.00000
  37       25PZ        -0.00000   0.00000  -0.00000   0.00000  -0.00000
  38       26PX         0.00000  -0.00000   0.00000  -0.00000   0.00000
  39       26PY         0.00000   0.00000   0.00000   0.00000   0.00000
  40       26PZ        -0.00000   0.00000  -0.00000   0.00000  -0.00000
  41       27PX         0.00000  -0.00000   0.00000  -0.00000   0.00000
  42       27PY         0.00000   0.00000   0.00000   0.00000   0.00000
  43       27PZ        -0.00000   0.00000  -0.00000   0.00000  -0.00000
  44       28PX         0.00000   0.00000   0.00000   0.00000   0.00000
  45       28PY        -0.00000   0.00000  -0.00000   0.00000   0.00000
  46       28PZ        -0.00000  -0.00000  -0.00000  -0.00000  -0.00000
  47       29PX         0.00000   0.00000   0.00000   0.00000   0.00000
  48       29PY         0.00000  -0.00000   0.00000  -0.00000   0.00000
  49       29PZ        -0.00000  -0.00000  -0.00000  -0.00000  -0.00000
  50       30PX         0.00000   0.00000   0.00000   0.00000   0.00000
  51       30PY         0.00000   0.00000   0.00000   0.00000   0.00000
  52       30PZ        -0.00000  -0.00000  -0.00000  -0.00000  -0.00000
  53       31PX         0.00000   0.00000   0.00000   0.00000   0.00000
  54       31PY         0.00000   0.00000   0.00000   0.00000   0.00000
  55       31PZ        -0.00000  -0.00000  -0.00000  -0.00000  -0.00000
  56       32PX         0.00000  -0.00000   0.00000  -0.00000   0.00000
  57       32PY        -0.00000   0.00000  -0.00000   0.00000  -0.00000
  58       32PZ         0.00000   0.00000   0.00000   0.00000   0.00000
  59       33D 0       -0.00000  -0.00000  -0.00000  -0.00000  -0.00000
  60       33D+1       -0.00000  -0.00000  -0.00000  -0.00000  -0.00000
  61       33D-1        0.00000   0.00000   0.00000   0.00000   0.00000
  62       33D+2       -0.00000  -0.00000  -0.00000  -0.00000  -0.00000
  63       33D-2       -0.00000  -0.00000  -0.00000  -0.00000  -0.00000
  64       34D 0        0.00000   0.00000   0.00000   0.00000   0.00000
  65       34D+1        0.00000   0.00000   0.00000   0.00000   0.00000
  66       34D-1       -0.00000  -0.00000  -0.00000  -0.00000  -0.00000
  67       34D+2        0.00000   0.00000   0.00000   0.00000   0.00000
  68       34D-2        0.00000   0.00000   0.00000   0.00000   0.00000
  69       35D 0        0.00000   0.00000   0.00000   0.00000   0.00000
  70       35D+1        0.00000   0.00000   0.00000   0.00000   0.00000
  71       35D-1       -0.00000  -0.00000  -0.00000  -0.00000  -0.00000
  72       35D+2       -0.00000  -0.00000  -0.00000  -0.00000  -0.00000
  73       35D-2       -0.00000  -0.00000  -0.00000  -0.00000  -0.00000
  74       36D 0       -0.00000  -0.00000  -0.00000  -0.00000  -0.00001
  75       36D+1       -0.00000  -0.00000  -0.00000  -0.00000  -0.00000
  76       36D-1        0.00000   0.00000   0.00000   0.00000   0.00000
  77       36D+2        0.00000   0.00000   0.00000   0.00000   0.00000
  78       36D-2        0.00000   0.00000   0.00000   0.00000   0.00000
  79       37D 0       -0.00000  -0.00000  -0.00000  -0.00000  -0.00000
  80       37D+1       -0.00000  -0.00000  -0.00000  -0.00000  -0.00000
  81       37D-1        0.00000   0.00000   0.00000   0.00000   0.00000
  82       37D+2        0.00000   0.00000   0.00000   0.00000   0.00000
  83       37D-2        0.00000   0.00000   0.00000   0.00000   0.00000
  84       38D 0       -0.00000  -0.00000  -0.00000  -0.00000  -0.00000
  85       38D+1       -0.00000  -0.00000  -0.00000  -0.00000  -0.00000
  86       38D-1        0.00000   0.00000   0.00000   0.00000   0.00000
  87       38D+2       -0.00000  -0.00000  -0.00000  -0.00000  -0.00000
  88       38D-2       -0.00000  -0.00000  -0.00000  -0.00000  -0.00000
  89       39D 0       -0.00000  -0.00000  -0.00000  -0.00000  -0.00000
  90       39D+1       -0.00000  -0.00000  -0.00000  -0.00000  -0.00000
  91       39D-1        0.00000   0.00000   0.00000   0.00000   0.00000
  92       39D+2        0.00000   0.00000   0.00000   0.00000   0.00000
  93       39D-2        0.00000   0.00000   0.00000   0.00000   0.00000
  94       40D 0       -0.00000  -0.00000  -0.00000  -0.00000  -0.00001
  95       40D+1       -0.00000  -0.00000  -0.00000  -0.00000  -0.00000
  96       40D-1        0.00000   0.00000   0.00000   0.00000   0.00000
  97       40D+2        0.00000   0.00000   0.00000   0.00000   0.00000
  98       40D-2        0.00000   0.00000   0.00000   0.00000   0.00000
  99       41F 0        0.00000  -0.00000   0.00000  -0.00000   0.00000
 100       41F+1       -0.00000   0.00000  -0.00000   0.00000  -0.00000
 101       41F-1       -0.00000   0.00000  -0.00000   0.00000   0.00000
 102       41F+2        0.00000  -0.00000   0.00000  -0.00000   0.00000
 103       41F-2       -0.00000   0.00000  -0.00000   0.00000  -0.00000
 104       41F+3        0.00000  -0.00000  -0.00000  -0.00000  -0.00000
 105       41F-3       -0.00000  -0.00000  -0.00000  -0.00000  -0.00000
 106       42F 0        0.00000  -0.00000   0.00000  -0.00000   0.00000
 107       42F+1       -0.00000   0.00000  -0.00000   0.00000  -0.00000
 108       42F-1        0.00000   0.00000  -0.00000  -0.00000  -0.00000
 109       42F+2        0.00000  -0.00000   0.00000  -0.00000   0.00000
 110       42F-2       -0.00000   0.00000  -0.00000   0.00000  -0.00000
 111       42F+3       -0.00000   0.00000  -0.00000   0.00000   0.00000
 112       42F-3        0.00000   0.00000  -0.00000   0.00000   0.00000
 113       43F 0        0.00000  -0.00000   0.00000  -0.00000   0.00000
 114       43F+1       -0.00000   0.00000  -0.00000   0.00000  -0.00000
 115       43F-1       -0.00000   0.00000  -0.00000   0.00000  -0.00000
 116       43F+2        0.00000  -0.00000   0.00000  -0.00000   0.00000
 117       43F-2       -0.00000   0.00000  -0.00000   0.00000  -0.00000
 118       43F+3        0.00000   0.00000  -0.00000  -0.00000  -0.00000
 119       43F-3       -0.00000   0.00000  -0.00000   0.00000  -0.00000
 120       44F 0        0.00000   0.00000   0.00000   0.00000   0.00000
 121       44F+1       -0.00000  -0.00000  -0.00000  -0.00000  -0.00000
 122       44F-1       -0.00000   0.00000  -0.00000   0.00000   0.00000
 123       44F+2       -0.00000  -0.00000  -0.00000  -0.00000  -0.00000
 124       44F-2       -0.00000  -0.00000  -0.00000  -0.00000  -0.00000
 125       44F+3        0.00000   0.00000   0.00000   0.00000   0.00000
 126       44F-3        0.00000   0.00000   0.00000   0.00000   0.00000
 127       45F 0       -0.00000  -0.00000  -0.00000  -0.00000  -0.00000
 128       45F+1        0.00000   0.00000   0.00000   0.00000   0.00000
 129       45F-1        0.00000   0.00000   0.00000   0.00000   0.00000
 130       45F+2        0.00000   0.00000   0.00000   0.00000   0.00000
 131       45F-2        0.00000   0.00000   0.00000   0.00000   0.00000
 132       45F+3       -0.00000  -0.00000  -0.00000  -0.00000  -0.00000
 133       45F-3       -0.00000  -0.00000  -0.00000  -0.00000  -0.00000
 134       46F 0        0.00000  -0.00000   0.00000  -0.00000   0.00000
 135       46F+1       -0.00000   0.00000  -0.00000   0.00000  -0.00000
 136       46F-1       -0.00000  -0.00000  -0.00000  -0.00000  -0.00000
 137       46F+2       -0.00000  -0.00000  -0.00000  -0.00000  -0.00000
 138       46F-2       -0.00000   0.00000  -0.00000   0.00000  -0.00000
 139       46F+3        0.00000   0.00000   0.00000   0.00000   0.00000
 140       46F-3       -0.00000  -0.00000  -0.00000  -0.00000  -0.00000
 141       47G 0        0.00000   0.00000   0.00000   0.00000   0.00000
 142       47G+1        0.00000   0.00000   0.00000   0.00000   0.00000
 143       47G-1       -0.00000  -0.00000  -0.00000  -0.00000  -0.00000
 144       47G+2        0.00000   0.00000   0.00000   0.00000   0.00000
 145       47G-2        0.00000   0.00000   0.00000   0.00000   0.00000
 146       47G+3        0.00000   0.00000   0.00000   0.00000   0.00000
 147       47G-3       -0.00000   0.00000  -0.00000   0.00000  -0.00000
 148       47G+4       -0.00000  -0.00000  -0.00000  -0.00000  -0.00000
 149       47G-4       -0.00000  -0.00000  -0.00000  -0.00000  -0.00000
 150       48G 0       -0.00000  -0.00000  -0.00000  -0.00000  -0.00000
 151       48G+1       -0.00000  -0.00000  -0.00000  -0.00000  -0.00000
 152       48G-1        0.00000   0.00000   0.00000   0.00000   0.00000
 153       48G+2       -0.00000  -0.00000  -0.00000  -0.00000  -0.00000
 154       48G-2        0.00000   0.00000   0.00000   0.00000   0.00000
 155       48G+3        0.00000   0.00000   0.00000   0.00000   0.00000
 156       48G-3       -0.00000   0.00000  -0.00000  -0.00000  -0.00000
 157       48G+4        0.00000   0.00000   0.00000   0.00000   0.00000
 158       48G-4        0.00000   0.00000   0.00000   0.00000   0.00000
 159       49G 0        0.00000   0.00000   0.00000   0.00000   0.00000
 160       49G+1        0.00000   0.00000   0.00000   0.00000   0.00000
 161       49G-1       -0.00000  -0.00000  -0.00000  -0.00000  -0.00000
 162       49G+2       -0.00000  -0.00000  -0.00000  -0.00000  -0.00000
 163       49G-2        0.00000   0.00000   0.00000   0.00000   0.00000
 164       49G+3        0.00000   0.00000   0.00000   0.00000   0.00000
 165       49G-3       -0.00000  -0.00000  -0.00000  -0.00000  -0.00000
 166       49G+4        0.00000   0.00000   0.00000   0.00000   0.00000
 167       49G-4        0.00000   0.00000   0.00000   0.00000   0.00000
 168       50G 0        0.00000   0.00000   0.00000   0.00000   0.00000
 169       50G+1        0.00000   0.00000   0.00000   0.00000   0.00000
 170       50G-1       -0.00000  -0.00000  -0.00000  -0.00000  -0.00000
 171       50G+2       -0.00000  -0.00000  -0.00000  -0.00000  -0.00000
 172       50G-2        0.00000   0.00000   0.00000   0.00000   0.00000
 173       50G+3        0.00000   0.00000   0.00000   0.00000   0.00000
 174       50G-3       -0.00000   0.00000  -0.00000  -0.00000  -0.00000
 175       50G+4       -0.00000  -0.00000  -0.00000  -0.00000  -0.00000
 176       50G-4       -0.00000  -0.00000  -0.00000  -0.00000  -0.00000
 177       51H 0        0.00000   0.00000   0.00000   0.00000   0.00000
 178       51H+1        0.00000  -0.00000   0.00000   0.00000  -0.00000
 179       51H-1       -0.00000  -0.00000  -0.00000  -0.00000  -0.00000
 180       51H+2       -0.00000  -0.00000  -0.00000  -0.00000  -0.00000
 181       51H-2        0.00000   0.00000   0.00000   0.00000   0.00000
 182       51H+3       -0.00000  -0.00000  -0.00000  -0.00000  -0.00000
 183       51H-3        0.00000   0.00000   0.00000   0.00000   0.00000
 184       51H+4        0.00000   0.00000   0.00000   0.00000   0.00000
 185       51H-4        0.00000   0.00000   0.00000   0.00000   0.00000
 186       51H+5        0.00000   0.00000   0.00000   0.00000   0.00000
 187       51H-5        0.00000   0.00000   0.00000   0.00000   0.00000
 188       52H 0       -0.00000  -0.00000  -0.00000  -0.00000  -0.00000
 189       52H+1        0.00000   0.00000  -0.00000  -0.00000  -0.00000
 190       52H-1        0.00000   0.00000   0.00000   0.00000   0.00000
 191       52H+2        0.00000   0.00000   0.00000   0.00000   0.00000
 192       52H-2        0.00000  -0.00000   0.00000  -0.00000  -0.00000
 193       52H+3        0.00000   0.00000   0.00000   0.00000   0.00000
 194       52H-3       -0.00000  -0.00000  -0.00000  -0.00000  -0.00000
 195       52H+4       -0.00000  -0.00000  -0.00000  -0.00000  -0.00000
 196       52H-4       -0.00000  -0.00000  -0.00000  -0.00000  -0.00000
 197       52H+5       -0.00000  -0.00000  -0.00000  -0.00000  -0.00000
 198       52H-5       -0.00000  -0.00000  -0.00000  -0.00000  -0.00000
                           6         7         8         9        10
   6        6S          0.00070
   7        7S          0.00148   0.00316
   8        8S          0.00273   0.00580   0.01066
   9        9S          0.00677   0.01440   0.02647   0.06571
  10       10S          0.00833   0.01797   0.03297   0.08209   0.10665
  11       11S          0.00147   0.00300   0.00554   0.01364   0.01508
  12       12S         -0.00211  -0.00594  -0.01061  -0.02768  -0.05803
  13       13S         -0.00306  -0.00855  -0.01529  -0.03986  -0.08281
  14       14S         -0.00113  -0.00315  -0.00563  -0.01468  -0.03050
  15       15S          0.00385   0.00823   0.01512   0.03758   0.04753
  16       16S          0.00385   0.00815   0.01499   0.03719   0.04599
  17       17S          0.00153   0.00323   0.00595   0.01475   0.01809
  18       18S          0.00060   0.00127   0.00233   0.00578   0.00716
  19       19S         -0.00001  -0.00003  -0.00005  -0.00014  -0.00028
  20       20PX        -0.00000   0.00000  -0.00000  -0.00000  -0.00000
  21       20PY         0.00000   0.00000   0.00000   0.00000   0.00000
  22       20PZ         0.00000  -0.00000   0.00000   0.00000   0.00000
  23       21PX        -0.00000  -0.00000  -0.00000  -0.00000  -0.00000
  24       21PY         0.00000   0.00000   0.00000   0.00000   0.00000
  25       21PZ         0.00000   0.00000   0.00000   0.00000   0.00000
  26       22PX        -0.00000  -0.00000  -0.00000  -0.00000  -0.00000
  27       22PY         0.00000   0.00000   0.00000   0.00000   0.00000
  28       22PZ         0.00000   0.00000   0.00000   0.00000   0.00000
  29       23PX         0.00000  -0.00000  -0.00000   0.00000  -0.00000
  30       23PY         0.00000   0.00000  -0.00000   0.00000   0.00000
  31       23PZ        -0.00000   0.00000   0.00000  -0.00000   0.00000
  32       24PX         0.00000  -0.00000   0.00000   0.00000   0.00000
  33       24PY         0.00000   0.00000  -0.00000   0.00000  -0.00000
  34       24PZ        -0.00000   0.00000   0.00000  -0.00000   0.00000
  35       25PX         0.00000  -0.00000  -0.00000   0.00000   0.00000
  36       25PY         0.00000  -0.00000  -0.00000   0.00000  -0.00000
  37       25PZ        -0.00000   0.00000   0.00000  -0.00000   0.00000
  38       26PX         0.00000  -0.00000   0.00000   0.00000  -0.00000
  39       26PY         0.00000   0.00000  -0.00000   0.00000  -0.00000
  40       26PZ        -0.00000   0.00000   0.00000  -0.00000   0.00000
  41       27PX         0.00000  -0.00000   0.00000   0.00000  -0.00000
  42       27PY         0.00000   0.00000  -0.00000   0.00000   0.00000
  43       27PZ        -0.00000   0.00000   0.00000  -0.00000   0.00000
  44       28PX         0.00000  -0.00000   0.00000   0.00000   0.00000
  45       28PY         0.00000   0.00000  -0.00000   0.00000   0.00000
  46       28PZ        -0.00000   0.00000  -0.00000  -0.00000  -0.00000
  47       29PX         0.00000  -0.00000   0.00000   0.00000   0.00000
  48       29PY         0.00000  -0.00000   0.00000   0.00000  -0.00000
  49       29PZ        -0.00000   0.00000  -0.00000  -0.00000  -0.00000
  50       30PX         0.00000  -0.00000   0.00000   0.00000   0.00000
  51       30PY         0.00000   0.00000  -0.00000   0.00000   0.00000
  52       30PZ        -0.00000   0.00000  -0.00000  -0.00000  -0.00000
  53       31PX         0.00000  -0.00000   0.00000   0.00000   0.00000
  54       31PY         0.00000  -0.00000   0.00000   0.00000   0.00000
  55       31PZ        -0.00000   0.00000  -0.00000  -0.00000  -0.00000
  56       32PX         0.00000  -0.00000  -0.00000   0.00000   0.00000
  57       32PY        -0.00000   0.00000   0.00000  -0.00000  -0.00000
  58       32PZ         0.00000   0.00000   0.00000   0.00000   0.00000
  59       33D 0       -0.00001  -0.00001  -0.00002  -0.00006  -0.00010
  60       33D+1       -0.00000  -0.00000  -0.00000  -0.00000  -0.00000
  61       33D-1        0.00000   0.00000   0.00000   0.00000   0.00000
  62       33D+2       -0.00000  -0.00000  -0.00000  -0.00000  -0.00000
  63       33D-2       -0.00000  -0.00000  -0.00000  -0.00000  -0.00000
  64       34D 0        0.00001   0.00001   0.00002   0.00005   0.00004
  65       34D+1        0.00000   0.00000   0.00000   0.00000   0.00000
  66       34D-1       -0.00000  -0.00000  -0.00000  -0.00000  -0.00000
  67       34D+2        0.00000   0.00000   0.00000   0.00000   0.00000
  68       34D-2        0.00000   0.00000   0.00000   0.00000   0.00000
  69       35D 0        0.00000   0.00000   0.00000   0.00001  -0.00001
  70       35D+1        0.00000   0.00000   0.00000   0.00000  -0.00000
  71       35D-1       -0.00000  -0.00000  -0.00000  -0.00000   0.00000
  72       35D+2       -0.00000  -0.00000  -0.00000  -0.00000  -0.00000
  73       35D-2       -0.00000  -0.00000  -0.00000  -0.00000   0.00000
  74       36D 0       -0.00002  -0.00005  -0.00009  -0.00023  -0.00048
  75       36D+1       -0.00000  -0.00000  -0.00000  -0.00000  -0.00000
  76       36D-1        0.00000   0.00000   0.00000   0.00000   0.00000
  77       36D+2        0.00000   0.00000   0.00000   0.00000   0.00000
  78       36D-2        0.00000   0.00000   0.00000   0.00000   0.00000
  79       37D 0       -0.00000  -0.00001  -0.00002  -0.00004  -0.00005
  80       37D+1       -0.00000  -0.00000  -0.00000  -0.00000  -0.00000
  81       37D-1        0.00000   0.00000   0.00000   0.00000   0.00000
  82       37D+2        0.00000   0.00000   0.00000   0.00000   0.00000
  83       37D-2        0.00000   0.00000   0.00000   0.00000   0.00000
  84       38D 0       -0.00000  -0.00000  -0.00000  -0.00000  -0.00000
  85       38D+1       -0.00000  -0.00000  -0.00000  -0.00000  -0.00000
  86       38D-1        0.00000   0.00000   0.00000   0.00000   0.00000
[...]
                         186       187       188       189       190
 186       51H+5        0.00000
 187       51H-5        0.00000   0.00000
 188       52H 0       -0.00000   0.00000   0.00000
 189       52H+1       -0.00000   0.00000  -0.00000   0.00000
 190       52H-1        0.00000  -0.00000  -0.00000   0.00000   0.00000
 191       52H+2        0.00000   0.00000  -0.00000   0.00000   0.00000
 192       52H-2        0.00000  -0.00000   0.00000   0.00000  -0.00000
 193       52H+3        0.00000   0.00000  -0.00000  -0.00000   0.00000
 194       52H-3        0.00000  -0.00000   0.00000   0.00000  -0.00000
 195       52H+4       -0.00000   0.00000  -0.00000  -0.00000   0.00000
 196       52H-4       -0.00000  -0.00000   0.00000  -0.00000   0.00000
 197       52H+5       -0.00000   0.00000   0.00000  -0.00000   0.00000
 198       52H-5        0.00000  -0.00000  -0.00000   0.00000  -0.00000
                         191       192       193       194       195
 191       52H+2       -0.00000
 192       52H-2       -0.00000   0.00000
 193       52H+3       -0.00000  -0.00000  -0.00000
 194       52H-3        0.00000  -0.00000  -0.00000   0.00000
 195       52H+4       -0.00000  -0.00000  -0.00000  -0.00000   0.00000
 196       52H-4       -0.00000  -0.00000   0.00000  -0.00000   0.00000
 197       52H+5       -0.00000  -0.00000   0.00000  -0.00000   0.00000
 198       52H-5       -0.00000   0.00000   0.00000  -0.00000   0.00000
                         196       197       198
 196       52H-4        0.00000
 197       52H+5        0.00000   0.00000
 198       52H-5       -0.00000  -0.00000   0.00000
     Gross orbital populations:
                         Total     Alpha     Beta      Spin
   1 1   O  1S          0.00000   0.00000   0.00000   0.00000
   2        2S          0.00002   0.00001   0.00001   0.00000
   3        3S          0.00018   0.00009   0.00009   0.00000
   4        4S          0.00156   0.00078   0.00078   0.00000
   5        5S          0.01070   0.00535   0.00535   0.00000
   6        6S          0.02802   0.01401   0.01401   0.00000
   7        7S          0.08520   0.04260   0.04260   0.00000
   8        8S          0.19113   0.09557   0.09557   0.00000
   9        9S          0.48504   0.24252   0.24252   0.00000
  10       10S          0.45850   0.22925   0.22925   0.00000
  11       11S          0.09499   0.04749   0.04749   0.00000
  12       12S          0.62600   0.31300   0.31300   0.00000
  13       13S          1.03419   0.51709   0.51709   0.00000
  14       14S          0.33385   0.16692   0.16692   0.00000
  15       15S          0.27570   0.13785   0.13785   0.00000
  16       16S          0.26422   0.13211   0.13211   0.00000
  17       17S          0.08496   0.04248   0.04248   0.00000
  18       18S          0.02377   0.01189   0.01189   0.00000
  19       19S          0.00194   0.00097   0.00097   0.00000
  20       20PX        -0.00006  -0.00006  -0.00000  -0.00006
  21       20PY        -0.00006  -0.00006   0.00000  -0.00006
  22       20PZ        -0.00011  -0.00005  -0.00005   0.00000
  23       21PX        -0.00027  -0.00027  -0.00000  -0.00027
  24       21PY        -0.00027  -0.00027  -0.00000  -0.00027
  25       21PZ        -0.00050  -0.00025  -0.00025   0.00000
  26       22PX        -0.00807  -0.00807  -0.00000  -0.00807
  27       22PY        -0.00807  -0.00807  -0.00000  -0.00807
  28       22PZ        -0.01555  -0.00777  -0.00777   0.00000
  29       23PX         0.06458   0.06458  -0.00000   0.06458
  30       23PY         0.06458   0.06458   0.00000   0.06458
  31       23PZ         0.12038   0.06019   0.06019   0.00000
  32       24PX         0.21634   0.21634   0.00000   0.21634
  33       24PY         0.21634   0.21634   0.00000   0.21634
  34       24PZ         0.40017   0.20008   0.20008   0.00000
  35       25PX         0.36305   0.36305   0.00000   0.36305
  36       25PY         0.36305   0.36305   0.00000   0.36305
  37       25PZ         0.67459   0.33730   0.33730   0.00000
  38       26PX         0.28538   0.28538   0.00000   0.28538
  39       26PY         0.28538   0.28538   0.00000   0.28538
  40       26PZ         0.59974   0.29987   0.29987   0.00000
  41       27PX         0.05865   0.05865   0.00000   0.05865
  42       27PY         0.05865   0.05865   0.00000   0.05865
  43       27PZ         0.17957   0.08979   0.08979   0.00000
  44       28PX         0.01852   0.01852   0.00000   0.01852
  45       28PY         0.01852   0.01852   0.00000   0.01852
  46       28PZ         0.03504   0.01752   0.01752   0.00000
  47       29PX         0.00154   0.00154   0.00000   0.00154
  48       29PY         0.00154   0.00154   0.00000   0.00154
  49       29PZ         0.00288   0.00144   0.00144   0.00000
  50       30PX         0.00017   0.00017   0.00000   0.00017
  51       30PY         0.00017   0.00017   0.00000   0.00017
  52       30PZ         0.00033   0.00016   0.00016   0.00000
  53       31PX         0.00005   0.00005   0.00000   0.00005
  54       31PY         0.00005   0.00005  -0.00000   0.00005
  55       31PZ         0.00009   0.00005   0.00005   0.00000
  56       32PX         0.00002   0.00002   0.00000   0.00002
  57       32PY         0.00002   0.00002   0.00000   0.00002
  58       32PZ         0.00330   0.00165   0.00165   0.00000
  59       33D 0        0.00000   0.00000   0.00000   0.00000
  60       33D+1        0.00000   0.00000   0.00000   0.00000
  61       33D-1        0.00000   0.00000   0.00000   0.00000
  62       33D+2        0.00000   0.00000   0.00000  -0.00000
  63       33D-2        0.00000   0.00000   0.00000   0.00000
  64       34D 0        0.00000   0.00000   0.00000   0.00000
  65       34D+1        0.00000   0.00000   0.00000   0.00000
  66       34D-1        0.00000   0.00000   0.00000   0.00000
  67       34D+2        0.00000   0.00000   0.00000  -0.00000
  68       34D-2        0.00000   0.00000   0.00000   0.00000
  69       35D 0        0.00000   0.00000   0.00000   0.00000
  70       35D+1        0.00000   0.00000  -0.00000   0.00000
  71       35D-1        0.00000   0.00000   0.00000   0.00000
  72       35D+2        0.00000   0.00000  -0.00000   0.00000
  73       35D-2        0.00000   0.00000   0.00000   0.00000
  74       36D 0        0.00003   0.00001   0.00001   0.00000
  75       36D+1        0.00000   0.00000   0.00000   0.00000
  76       36D-1        0.00000   0.00000   0.00000   0.00000
  77       36D+2       -0.00000  -0.00000  -0.00000  -0.00000
  78       36D-2        0.00000   0.00000   0.00000   0.00000
  79       37D 0        0.00000   0.00000   0.00000   0.00000
  80       37D+1        0.00000   0.00000   0.00000   0.00000
  81       37D-1        0.00000   0.00000   0.00000   0.00000
  82       37D+2        0.00000   0.00000   0.00000   0.00000
  83       37D-2        0.00000   0.00000   0.00000   0.00000
  84       38D 0        0.00000   0.00000   0.00000   0.00000
  85       38D+1        0.00000   0.00000   0.00000   0.00000
  86       38D-1        0.00000   0.00000   0.00000   0.00000
  87       38D+2        0.00000   0.00000   0.00000  -0.00000
  88       38D-2        0.00000   0.00000  -0.00000   0.00000
  89       39D 0        0.00000   0.00000   0.00000   0.00000
  90       39D+1        0.00000   0.00000   0.00000   0.00000
  91       39D-1       -0.00000  -0.00000  -0.00000   0.00000
  92       39D+2       -0.00000  -0.00000  -0.00000  -0.00000
  93       39D-2        0.00000   0.00000   0.00000   0.00000
  94       40D 0        0.00001   0.00001   0.00001   0.00000
  95       40D+1        0.00000   0.00000   0.00000   0.00000
  96       40D-1        0.00000   0.00000   0.00000   0.00000
  97       40D+2        0.00000   0.00000   0.00000   0.00000
  98       40D-2        0.00000   0.00000   0.00000   0.00000
  99       41F 0        0.00000   0.00000   0.00000   0.00000
 100       41F+1        0.00001   0.00001   0.00000   0.00001
 101       41F-1        0.00001   0.00001   0.00000   0.00001
 102       41F+2        0.00000   0.00000   0.00000   0.00000
 103       41F-2        0.00000   0.00000   0.00000   0.00000
 104       41F+3       -0.00000  -0.00000   0.00000  -0.00000
 105       41F-3       -0.00000  -0.00000   0.00000  -0.00000
 106       42F 0        0.00002   0.00001   0.00001   0.00000
 107       42F+1        0.00003   0.00003   0.00000   0.00003
 108       42F-1        0.00003   0.00003   0.00000   0.00003
 109       42F+2        0.00000   0.00000   0.00000   0.00000
 110       42F-2        0.00000   0.00000   0.00000   0.00000
 111       42F+3        0.00000   0.00000   0.00000   0.00000
 112       42F-3       -0.00000  -0.00000   0.00000  -0.00000
 113       43F 0        0.00003   0.00002   0.00002   0.00000
 114       43F+1        0.00004   0.00004   0.00000   0.00004
 115       43F-1        0.00004   0.00004   0.00000   0.00004
 116       43F+2       -0.00000  -0.00000  -0.00000   0.00000
 117       43F-2        0.00000   0.00000   0.00000   0.00000
 118       43F+3        0.00000   0.00000   0.00000   0.00000
 119       43F-3       -0.00000  -0.00000   0.00000  -0.00000
 120       44F 0        0.00000   0.00000   0.00000   0.00000
 121       44F+1        0.00000   0.00000   0.00000   0.00000
 122       44F-1        0.00000   0.00000   0.00000   0.00000
 123       44F+2       -0.00000  -0.00000  -0.00000   0.00000
 124       44F-2        0.00000   0.00000   0.00000  -0.00000
 125       44F+3        0.00000   0.00000   0.00000   0.00000
 126       44F-3        0.00000   0.00000   0.00000   0.00000
 127       45F 0       -0.00000  -0.00000  -0.00000   0.00000
 128       45F+1       -0.00000  -0.00000  -0.00000  -0.00000
 129       45F-1       -0.00000  -0.00000  -0.00000  -0.00000
 130       45F+2        0.00000   0.00000   0.00000   0.00000
 131       45F-2        0.00000   0.00000   0.00000   0.00000
 132       45F+3       -0.00000  -0.00000  -0.00000  -0.00000
 133       45F-3        0.00000   0.00000  -0.00000   0.00000
 134       46F 0        0.00001   0.00001   0.00001   0.00000
 135       46F+1        0.00001   0.00001   0.00000   0.00001
 136       46F-1        0.00001   0.00001   0.00000   0.00001
 137       46F+2       -0.00000  -0.00000  -0.00000   0.00000
 138       46F-2        0.00000   0.00000   0.00000   0.00000
 139       46F+3        0.00000   0.00000   0.00000   0.00000
 140       46F-3        0.00000   0.00000   0.00000   0.00000
 141       47G 0        0.00000   0.00000   0.00000  -0.00000
 142       47G+1        0.00000   0.00000   0.00000   0.00000
 143       47G-1        0.00000   0.00000   0.00000   0.00000
 144       47G+2        0.00000   0.00000   0.00000   0.00000
 145       47G-2        0.00000   0.00000   0.00000   0.00000
 146       47G+3        0.00000   0.00000   0.00000   0.00000
 147       47G-3        0.00000   0.00000   0.00000   0.00000
 148       47G+4        0.00000   0.00000   0.00000   0.00000
 149       47G-4        0.00000   0.00000   0.00000   0.00000
 150       48G 0       -0.00000  -0.00000  -0.00000   0.00000
 151       48G+1        0.00000   0.00000   0.00000   0.00000
 152       48G-1        0.00000   0.00000   0.00000   0.00000
 153       48G+2       -0.00000  -0.00000  -0.00000   0.00000
 154       48G-2        0.00000   0.00000   0.00000   0.00000
 155       48G+3        0.00000   0.00000   0.00000   0.00000
 156       48G-3        0.00000   0.00000   0.00000   0.00000
 157       48G+4       -0.00000  -0.00000   0.00000  -0.00000
 158       48G-4        0.00000   0.00000   0.00000   0.00000
 159       49G 0        0.00000   0.00000   0.00000   0.00000
 160       49G+1        0.00000   0.00000   0.00000   0.00000
 161       49G-1        0.00000   0.00000   0.00000   0.00000
 162       49G+2        0.00000   0.00000   0.00000   0.00000
 163       49G-2        0.00000   0.00000   0.00000   0.00000
 164       49G+3        0.00000   0.00000   0.00000   0.00000
 165       49G-3        0.00000   0.00000   0.00000   0.00000
 166       49G+4        0.00000   0.00000   0.00000   0.00000
 167       49G-4        0.00000   0.00000   0.00000  -0.00000
 168       50G 0        0.00000   0.00000   0.00000   0.00000
 169       50G+1        0.00000   0.00000   0.00000   0.00000
 170       50G-1        0.00000   0.00000   0.00000   0.00000
 171       50G+2       -0.00000  -0.00000  -0.00000   0.00000
 172       50G-2        0.00000   0.00000   0.00000   0.00000
 173       50G+3        0.00000   0.00000   0.00000   0.00000
 174       50G-3        0.00000   0.00000   0.00000   0.00000
 175       50G+4       -0.00000  -0.00000  -0.00000  -0.00000
 176       50G-4        0.00000   0.00000   0.00000   0.00000
 177       51H 0        0.00000   0.00000   0.00000   0.00000
 178       51H+1        0.00000   0.00000   0.00000   0.00000
 179       51H-1        0.00000   0.00000   0.00000   0.00000
 180       51H+2        0.00000   0.00000   0.00000   0.00000
 181       51H-2        0.00000   0.00000  -0.00000   0.00000
 182       51H+3        0.00000   0.00000   0.00000   0.00000
 183       51H-3       -0.00000  -0.00000   0.00000  -0.00000
 184       51H+4        0.00000   0.00000   0.00000   0.00000
 185       51H-4        0.00000   0.00000   0.00000   0.00000
 186       51H+5       -0.00000  -0.00000   0.00000  -0.00000
 187       51H-5       -0.00000  -0.00000   0.00000  -0.00000
 188       52H 0        0.00000   0.00000   0.00000   0.00000
 189       52H+1        0.00000   0.00000  -0.00000   0.00000
 190       52H-1        0.00000   0.00000   0.00000   0.00000
 191       52H+2       -0.00000  -0.00000  -0.00000   0.00000
 192       52H-2        0.00000   0.00000   0.00000   0.00000
 193       52H+3       -0.00000  -0.00000  -0.00000  -0.00000
 194       52H-3        0.00000   0.00000  -0.00000   0.00000
 195       52H+4        0.00000   0.00000   0.00000   0.00000
 196       52H-4        0.00000   0.00000   0.00000   0.00000
 197       52H+5        0.00000   0.00000  -0.00000   0.00000
 198       52H-5        0.00000   0.00000  -0.00000   0.00000
          Condensed to atoms (all electrons):
               1
     1  O    8.000000
          Atomic-Atomic Spin Densities.
               1
     1  O    2.000000
 Mulliken charges and spin densities:
               1          2
     1  O   -0.000000   2.000000
 Sum of Mulliken charges =  -0.00000   2.00000
 Mulliken charges and spin densities with hydrogens summed into heavy atoms:
               1          2
     1  O   -0.000000   2.000000
 Electronic spatial extent (au):  <R**2>=             11.1954
 Charge=             -0.0000 electrons
 Dipole moment (field-independent basis, Debye):
    X=              0.0000    Y=             -0.0000    Z=              0.0000  Tot=              0.0000
 Quadrupole moment (field-independent basis, Debye-Ang):
   XX=             -4.6085   YY=             -4.6085   ZZ=             -5.8413
   XY=              0.0000   XZ=             -0.0000   YZ=              0.0000
 Traceless Quadrupole moment (field-independent basis, Debye-Ang):
   XX=              0.4109   YY=              0.4109   ZZ=             -0.8219
   XY=              0.0000   XZ=             -0.0000   YZ=              0.0000
 Octapole moment (field-independent basis, Debye-Ang**2):
  XXX=              0.0000  YYY=             -0.0000  ZZZ=              0.0000  XYY=              0.0000
  XXY=             -0.0000  XXZ=              0.0000  XZZ=              0.0000  YZZ=             -0.0000
  YYZ=              0.0000  XYZ=             -0.0000
 Hexadecapole moment (field-independent basis, Debye-Ang**3):
 XXXX=             -3.0860 YYYY=             -3.0860 ZZZZ=             -4.8927 XXXY=              0.0000
 XXXZ=             -0.0000 YYYX=              0.0000 YYYZ=              0.0000 ZZZX=             -0.0000
 ZZZY=              0.0000 XXYY=             -1.0287 XXZZ=             -1.3313 YYZZ=             -1.3313
 XXYZ=              0.0000 YYXZ=             -0.0000 ZZXY=              0.0000
 N-N= 0.000000000000D+00 E-N=-1.785548807001D+02  KE= 7.522557360086D+01
 Symmetry AG   KE= 6.505166671607D+01
 Symmetry B1G  KE= 2.399697517463D-23
 Symmetry B2G  KE= 1.835276885324D-23
 Symmetry B3G  KE= 4.682510064551D-23
 Symmetry AU   KE= 1.111147441060D-23
 Symmetry B1U  KE= 4.911088285413D+00
 Symmetry B2U  KE= 2.631409301050D+00
 Symmetry B3U  KE= 2.631409300896D+00
 Symmetry AG   SP=-7.804480389221D-20
 Symmetry B1G  SP= 2.172594824797D-24
 Symmetry B2G  SP= 9.426590057020D-24
 Symmetry B3G  SP= 1.087290903142D-23
 Symmetry AU   SP= 9.597685958757D-25
 Symmetry B1U  SP= 7.101537511419D-50
 Symmetry B2U  SP= 1.000000000000D+00
 Symmetry B3U  SP= 1.000000000000D+00
 Orbital energies and kinetic energies (alpha):
                                 1                 2
   1         (A1G)--O        -20.672109         29.410391
   2         (A1G)--O         -1.193755          3.115442
   3         O                -0.553151          2.455544
   4         O                -0.177425          2.631409
   5         O                -0.177425          2.631409
   6         V                 0.106462          0.147117
   7         V                 0.106462          0.147117
   8         V                 0.110187          0.166807
   9         V                 0.123576          0.275513
  10         (T2G)--V          0.395622          0.422012
 Total kinetic energy from orbitals= 8.048839220284D+01
 FoFCou: FMM=F IPFlag=           8 FMFlag=           0 FMFlg1=           0
         NFxFlg=           0 DoJE=F BraDBF=T KetDBF=F FulRan=T
         wScrn=  0.000000 ICntrl=   2000500 IOpCl=  0 I1Cent=           5 NGrid=           0
         NMat0=    1 NMatS0=      1 NMatT0=    0 NMatD0=    1 NMtDS0=    0 NMtDT0=    0
 Symmetry not used in FoFCou.
                          Isotropic Fermi Contact Couplings
        Atom                 a.u.       MegaHertz       Gauss      10(-4) cm-1
     1  O(17)              0.00000      -0.00002      -0.00001      -0.00001
 --------------------------------------------------------
       Center         ----  Spin Dipole Couplings  ----
                      3XX-RR        3YY-RR        3ZZ-RR
 --------------------------------------------------------
     1   Atom        2.077898      2.077898     -4.155795
 --------------------------------------------------------
                        XY            XZ            YZ
 --------------------------------------------------------
     1   Atom        0.000000      0.000000      0.000000
 --------------------------------------------------------


 ---------------------------------------------------------------------------------
              Anisotropic Spin Dipole Couplings in Principal Axis System
 ---------------------------------------------------------------------------------

       Atom             a.u.   MegaHertz   Gauss  10(-4) cm-1        Axes

              Baa    -4.1558   300.710   107.301   100.306  0.0000  0.0000  1.0000
     1 O(17)  Bbb     2.0779  -150.355   -53.650   -50.153 -0.0000  1.0000  0.0000
              Bcc     2.0779  -150.355   -53.650   -50.153  1.0000  0.0000  0.0000
 

 ---------------------------------------------------------------------------------

 No NMR shielding tensors so no spin-rotation constants.
 Leave Link  601 at Wed Feb 21 15:57:12 2018, MaxMem= 21474836480 cpu:              30.1 elap:               1.0
 (Enter /home1/apps/gaussian/16rA.03/g16/l9999.exe)
 1\1\GINC-C506-012\SP\ROHF\Gen\O1(3)\AANNABE\21-Feb-2018\0\\#P ROHF/Gen
  5d 7f SCF=(maxcycles=300) Integral(NoXCTest, DKHSO) MaxDisk=500GB Pop
 =Regular\\O\\0,3\O,0,0.,0.,0.\\Version=ES64L-G16RevA.03\HF=-74.8646347
 \RMSD=9.035e-09\Dipole=0.,0.,0.\Quadrupole=-0.6110556,0.3055278,0.3055
 278,0.,0.,0.\PG=OH [O(O1)]\\@


 THE WORLD IS NOT A HAMBURGER - YOU CAN'T HAVE IT YOUR WAY.
 Job cpu time:       0 days  0 hours  5 minutes 34.8 seconds.
 Elapsed time:       0 days  0 hours  0 minutes 11.5 seconds.
 File lengths (MBytes):  RWF=     22 Int=      0 D2E=      0 Chk=      4 Scr=      1
 Normal termination of Gaussian 16 at Wed Feb 21 15:57:13 2018.
