 Entering Gaussian System, Link 0=g16
 Initial command:
 /home1/apps/gaussian/16rA.03/g16/l1.exe "/tmp/Gau-70468.inp" -scrdir="/tmp/"
 Entering Link 1 = /home1/apps/gaussian/16rA.03/g16/l1.exe PID=     70469.
  
 Copyright (c) 1988,1990,1992,1993,1995,1998,2003,2009,2016,
            Gaussian, Inc.  All Rights Reserved.
  
 This is part of the Gaussian(R) 16 program.  It is based on
 the Gaussian(R) 09 system (copyright 2009, Gaussian, Inc.),
 the Gaussian(R) 03 system (copyright 2003, Gaussian, Inc.),
 the Gaussian(R) 98 system (copyright 1998, Gaussian, Inc.),
 the Gaussian(R) 94 system (copyright 1995, Gaussian, Inc.),
 the Gaussian 92(TM) system (copyright 1992, Gaussian, Inc.),
 the Gaussian 90(TM) system (copyright 1990, Gaussian, Inc.),
 the Gaussian 88(TM) system (copyright 1988, Gaussian, Inc.),
 the Gaussian 86(TM) system (copyright 1986, Carnegie Mellon
 University), and the Gaussian 82(TM) system (copyright 1983,
 Carnegie Mellon University). Gaussian is a federally registered
 trademark of Gaussian, Inc.
  
 This software contains proprietary and confidential information,
 including trade secrets, belonging to Gaussian, Inc.
  
 This software is provided under written license and may be
 used, copied, transmitted, or stored only in accord with that
 written license.
  
 The following legend is applicable only to US Government
 contracts under FAR:
  
                    RESTRICTED RIGHTS LEGEND
  
 Use, reproduction and disclosure by the US Government is
 subject to restrictions as set forth in subparagraphs (a)
 and (c) of the Commercial Computer Software - Restricted
 Rights clause in FAR 52.227-19.
  
 Gaussian, Inc.
 340 Quinnipiac St., Bldg. 40, Wallingford CT 06492
  
  
 ---------------------------------------------------------------
 Warning -- This program may not be used in any manner that
 competes with the business of Gaussian, Inc. or will provide
 assistance to any competitor of Gaussian, Inc.  The licensee
 of this program is prohibited from giving any competitor of
 Gaussian, Inc. access to this program.  By using this program,
 the user acknowledges that Gaussian, Inc. is engaged in the
 business of creating and licensing software in the field of
 computational chemistry and represents and warrants to the
 licensee that it is not a competitor of Gaussian, Inc. and that
 it will not use this program in any manner prohibited above.
 ---------------------------------------------------------------
  

 Cite this work as:
 Gaussian 16, Revision A.03,
 M. J. Frisch, G. W. Trucks, H. B. Schlegel, G. E. Scuseria, 
 M. A. Robb, J. R. Cheeseman, G. Scalmani, V. Barone, 
 G. A. Petersson, H. Nakatsuji, X. Li, M. Caricato, A. V. Marenich, 
 J. Bloino, B. G. Janesko, R. Gomperts, B. Mennucci, H. P. Hratchian, 
 J. V. Ortiz, A. F. Izmaylov, J. L. Sonnenberg, D. Williams-Young, 
 F. Ding, F. Lipparini, F. Egidi, J. Goings, B. Peng, A. Petrone, 
 T. Henderson, D. Ranasinghe, V. G. Zakrzewski, J. Gao, N. Rega, 
 G. Zheng, W. Liang, M. Hada, M. Ehara, K. Toyota, R. Fukuda, 
 J. Hasegawa, M. Ishida, T. Nakajima, Y. Honda, O. Kitao, H. Nakai, 
 T. Vreven, K. Throssell, J. A. Montgomery, Jr., J. E. Peralta, 
 F. Ogliaro, M. J. Bearpark, J. J. Heyd, E. N. Brothers, K. N. Kudin, 
 V. N. Staroverov, T. A. Keith, R. Kobayashi, J. Normand, 
 K. Raghavachari, A. P. Rendell, J. C. Burant, S. S. Iyengar, 
 J. Tomasi, M. Cossi, J. M. Millam, M. Klene, C. Adamo, R. Cammi, 
 J. W. Ochterski, R. L. Martin, K. Morokuma, O. Farkas, 
 J. B. Foresman, and D. J. Fox, Gaussian, Inc., Wallingford CT, 2016.
 
 ******************************************
 Gaussian 16:  ES64L-G16RevA.03 25-Dec-2016
                21-Apr-2018 
 ******************************************
 %mem=80GB
 %cpu=0-31
 SetSPE:  set environment variable "MP_BIND" = "yes"
 SetSPE:  set environment variable "MP_BLIST" = "0,1,2,3,4,5,6,7,8,9,10,11,12,13,14,15,16,17,18,19,20,21,22,23,24,25,26,27,28,29,30,31"
 Will use up to   32 processors via shared memory.
 %chk=qz.chk
 %rwf=/scratch/04843/gwang18/znh/
 ----------------------------------------------------------------------
 #P ROCCSD(T)=(MaxCyc=150, Full)/Gen SCF=(maxcycle=400, vshift=200) Pse
 udo=Read Integral(NoXCTest) Pop=Regular MaxDisk=500GB Guess=Read IOp(5
 /15=2)
 ----------------------------------------------------------------------
 1/38=1,172=1/1;
 2/12=2,17=6,18=5,40=1/2;
 3/5=7,11=2,16=1,17=8,25=1,30=1,47=8,116=101/1,2,3;
 4/5=1/1;
 5/5=2,7=400,10=200,15=2,38=6/2;
 8/5=-1,6=4,9=120000,10=90/1,4;
 9/5=7,6=150,14=2/13;
 6//1;
 99/5=1,9=1/99;
 Leave Link    1 at Sat Apr 21 10:25:48 2018, MaxMem= 10737418240 cpu:               7.0 elap:               0.2
 (Enter /home1/apps/gaussian/16rA.03/g16/l101.exe)
 ---
 ZnH
 ---
 Symbolic Z-matrix:
 Charge =  0 Multiplicity = 2
 Zn                    0.        0.        0. 
 H                     0.        0.        1.2 
 
 ITRead=  0  0
 MicOpt= -1 -1
 NAtoms=      2 NQM=        2 NQMF=       0 NMMI=      0 NMMIF=      0
                NMic=       0 NMicF=      0.
                    Isotopes and Nuclear Properties:
 (Nuclear quadrupole moments (NQMom) in fm**2, nuclear magnetic moments (NMagM)
  in nuclear magnetons)

  Atom         1           2
 IAtWgt=          64           1
 AtmWgt=  63.9291454   1.0078250
 NucSpn=           0           1
 AtZEff=  -0.0000000  -0.0000000
 NQMom=    0.0000000   0.0000000
 NMagM=    0.0000000   2.7928460
 AtZNuc=  30.0000000   1.0000000
 Leave Link  101 at Sat Apr 21 10:25:48 2018, MaxMem= 10737418240 cpu:               3.0 elap:               0.1
 (Enter /home1/apps/gaussian/16rA.03/g16/l202.exe)
                          Input orientation:                          
 ---------------------------------------------------------------------
 Center     Atomic      Atomic             Coordinates (Angstroms)
 Number     Number       Type             X           Y           Z
 ---------------------------------------------------------------------
      1         30           0        0.000000    0.000000    0.000000
      2          1           0        0.000000    0.000000    1.200000
 ---------------------------------------------------------------------
 Stoichiometry    HZn(2)
 Framework group  C*V[C*(HZn)]
 Deg. of freedom     1
 Full point group                 C*V     NOp   4
 Largest Abelian subgroup         C2V     NOp   4
 Largest concise Abelian subgroup C1      NOp   1
                         Standard orientation:                         
 ---------------------------------------------------------------------
 Center     Atomic      Atomic             Coordinates (Angstroms)
 Number     Number       Type             X           Y           Z
 ---------------------------------------------------------------------
      1         30           0        0.000000    0.000000    0.038710
      2          1           0        0.000000    0.000000   -1.161290
 ---------------------------------------------------------------------
 Rotational constants (GHZ):           0.0000000         353.7225024         353.7225024
 Leave Link  202 at Sat Apr 21 10:25:48 2018, MaxMem= 10737418240 cpu:               0.8 elap:               0.1
 (Enter /home1/apps/gaussian/16rA.03/g16/l301.exe)
 General basis read from cards:  (5D, 7F)
 Centers:       1
 S 1 1.00
     Exponent=  1.7852930000D+07 Coefficients=  1.0000000000D+00
 S 1 1.00
     Exponent=  2.6730380000D+06 Coefficients=  1.0000000000D+00
 S 1 1.00
     Exponent=  6.0832440000D+05 Coefficients=  1.0000000000D+00
 S 1 1.00
     Exponent=  1.7231760000D+05 Coefficients=  1.0000000000D+00
 S 1 1.00
     Exponent=  5.6222690000D+04 Coefficients=  1.0000000000D+00
 S 1 1.00
     Exponent=  2.0299850000D+04 Coefficients=  1.0000000000D+00
 S 1 1.00
     Exponent=  7.9188710000D+03 Coefficients=  1.0000000000D+00
 S 1 1.00
     Exponent=  3.2853400000D+03 Coefficients=  1.0000000000D+00
 S 1 1.00
     Exponent=  1.4335240000D+03 Coefficients=  1.0000000000D+00
 S 1 1.00
     Exponent=  6.5228890000D+02 Coefficients=  1.0000000000D+00
 S 1 1.00
     Exponent=  3.0743600000D+02 Coefficients=  1.0000000000D+00
 S 1 1.00
     Exponent=  1.4914660000D+02 Coefficients=  1.0000000000D+00
 S 1 1.00
     Exponent=  7.3451080000D+01 Coefficients=  1.0000000000D+00
 S 1 1.00
     Exponent=  3.3925620000D+01 Coefficients=  1.0000000000D+00
 S 1 1.00
     Exponent=  1.7189470000D+01 Coefficients=  1.0000000000D+00
 S 1 1.00
     Exponent=  8.6665950000D+00 Coefficients=  1.0000000000D+00
 S 1 1.00
     Exponent=  3.9725050000D+00 Coefficients=  1.0000000000D+00
 S 1 1.00
     Exponent=  1.8946650000D+00 Coefficients=  1.0000000000D+00
 S 1 1.00
     Exponent=  8.5938500000D-01 Coefficients=  1.0000000000D+00
 S 1 1.00
     Exponent=  1.9525600000D-01 Coefficients=  1.0000000000D+00
 S 1 1.00
     Exponent=  8.5854000000D-02 Coefficients=  1.0000000000D+00
 S 1 1.00
     Exponent=  3.6781000000D-02 Coefficients=  1.0000000000D+00
 S 1 1.00
     Exponent=  8.3276000000D+00 Coefficients=  1.0000000000D+00
 S 1 1.00
     Exponent=  3.4194000000D+00 Coefficients=  1.0000000000D+00
 S 1 1.00
     Exponent=  1.5760000000D-02 Coefficients=  1.0000000000D+00
 P 1 1.00
     Exponent=  5.2867930000D+04 Coefficients=  1.0000000000D+00
 P 1 1.00
     Exponent=  1.2511790000D+04 Coefficients=  1.0000000000D+00
 P 1 1.00
     Exponent=  4.0652860000D+03 Coefficients=  1.0000000000D+00
 P 1 1.00
     Exponent=  1.5575950000D+03 Coefficients=  1.0000000000D+00
 P 1 1.00
     Exponent=  6.6328920000D+02 Coefficients=  1.0000000000D+00
 P 1 1.00
     Exponent=  3.0415610000D+02 Coefficients=  1.0000000000D+00
 P 1 1.00
     Exponent=  1.4736800000D+02 Coefficients=  1.0000000000D+00
 P 1 1.00
     Exponent=  7.4454690000D+01 Coefficients=  1.0000000000D+00
 P 1 1.00
     Exponent=  3.8714930000D+01 Coefficients=  1.0000000000D+00
 P 1 1.00
     Exponent=  2.0570220000D+01 Coefficients=  1.0000000000D+00
 P 1 1.00
     Exponent=  1.1054250000D+01 Coefficients=  1.0000000000D+00
 P 1 1.00
     Exponent=  5.8746610000D+00 Coefficients=  1.0000000000D+00
 P 1 1.00
     Exponent=  3.0529360000D+00 Coefficients=  1.0000000000D+00
 P 1 1.00
     Exponent=  1.5472250000D+00 Coefficients=  1.0000000000D+00
 P 1 1.00
     Exponent=  7.5415100000D-01 Coefficients=  1.0000000000D+00
 P 1 1.00
     Exponent=  2.6534900000D-01 Coefficients=  1.0000000000D+00
 P 1 1.00
     Exponent=  1.0206700000D-01 Coefficients=  1.0000000000D+00
 P 1 1.00
     Exponent=  3.8755000000D-02 Coefficients=  1.0000000000D+00
 P 1 1.00
     Exponent=  1.2535700000D+01 Coefficients=  1.0000000000D+00
 P 1 1.00
     Exponent=  3.4227000000D+00 Coefficients=  1.0000000000D+00
 P 1 1.00
     Exponent=  1.4720000000D-02 Coefficients=  1.0000000000D+00
 D 1 1.00
     Exponent=  6.3978060000D+02 Coefficients=  1.0000000000D+00
 D 1 1.00
     Exponent=  1.9267420000D+02 Coefficients=  1.0000000000D+00
 D 1 1.00
     Exponent=  7.4843680000D+01 Coefficients=  1.0000000000D+00
 D 1 1.00
     Exponent=  3.2860480000D+01 Coefficients=  1.0000000000D+00
 D 1 1.00
     Exponent=  1.5393530000D+01 Coefficients=  1.0000000000D+00
 D 1 1.00
     Exponent=  7.5255120000D+00 Coefficients=  1.0000000000D+00
 D 1 1.00
     Exponent=  3.7154290000D+00 Coefficients=  1.0000000000D+00
 D 1 1.00
     Exponent=  1.8064590000D+00 Coefficients=  1.0000000000D+00
 D 1 1.00
     Exponent=  8.5297300000D-01 Coefficients=  1.0000000000D+00
 D 1 1.00
     Exponent=  3.8478000000D-01 Coefficients=  1.0000000000D+00
 D 1 1.00
     Exponent=  1.5933700000D-01 Coefficients=  1.0000000000D+00
 D 1 1.00
     Exponent=  9.2094000000D+00 Coefficients=  1.0000000000D+00
 D 1 1.00
     Exponent=  5.2262000000D+00 Coefficients=  1.0000000000D+00
 D 1 1.00
     Exponent=  6.5980000000D-02 Coefficients=  1.0000000000D+00
 F 1 1.00
     Exponent=  1.3235500000D+01 Coefficients=  1.0000000000D+00
 F 1 1.00
     Exponent=  5.6706000000D+00 Coefficients=  1.0000000000D+00
 F 1 1.00
     Exponent=  2.4295000000D+00 Coefficients=  1.0000000000D+00
 F 1 1.00
     Exponent=  8.5300000000D-01 Coefficients=  1.0000000000D+00
 F 1 1.00
     Exponent=  2.9949000000D-01 Coefficients=  1.0000000000D+00
 G 1 1.00
     Exponent=  1.0790200000D+01 Coefficients=  1.0000000000D+00
 G 1 1.00
     Exponent=  4.9368000000D+00 Coefficients=  1.0000000000D+00
 G 1 1.00
     Exponent=  2.0693000000D+00 Coefficients=  1.0000000000D+00
 G 1 1.00
     Exponent=  8.6736000000D-01 Coefficients=  1.0000000000D+00
 H 1 1.00
     Exponent=  9.6086000000D+00 Coefficients=  1.0000000000D+00
 H 1 1.00
     Exponent=  4.4136000000D+00 Coefficients=  1.0000000000D+00
 H 1 1.00
     Exponent=  2.0273400000D+00 Coefficients=  1.0000000000D+00
 ****
 Centers:       2
 S 1 1.00
     Exponent=  8.2640000000D+01 Coefficients=  1.0000000000D+00
 S 1 1.00
     Exponent=  1.2410000000D+01 Coefficients=  1.0000000000D+00
 S 1 1.00
     Exponent=  2.8240000000D+00 Coefficients=  1.0000000000D+00
 S 1 1.00
     Exponent=  7.9770000000D-01 Coefficients=  1.0000000000D+00
 S 1 1.00
     Exponent=  2.5810000000D-01 Coefficients=  1.0000000000D+00
 S 1 1.00
     Exponent=  8.9890000000D-02 Coefficients=  1.0000000000D+00
 S 1 1.00
     Exponent=  2.3630000000D-02 Coefficients=  1.0000000000D+00
 P 1 1.00
     Exponent=  2.2920000000D+00 Coefficients=  1.0000000000D+00
 P 1 1.00
     Exponent=  8.3800000000D-01 Coefficients=  1.0000000000D+00
 P 1 1.00
     Exponent=  2.9200000000D-01 Coefficients=  1.0000000000D+00
 P 1 1.00
     Exponent=  8.4800000000D-02 Coefficients=  1.0000000000D+00
 D 1 1.00
     Exponent=  2.0620000000D+00 Coefficients=  1.0000000000D+00
 D 1 1.00
     Exponent=  6.6200000000D-01 Coefficients=  1.0000000000D+00
 D 1 1.00
     Exponent=  1.9000000000D-01 Coefficients=  1.0000000000D+00
 F 1 1.00
     Exponent=  1.3970000000D+00 Coefficients=  1.0000000000D+00
 F 1 1.00
     Exponent=  3.6000000000D-01 Coefficients=  1.0000000000D+00
 ****
 ======================================================================================================
                                       Pseudopotential Parameters
 ======================================================================================================
  Center     Atomic      Valence      Angular      Power
  Number     Number     Electrons     Momentum     of R      Exponent        Coefficient   SO-Coeffient
 ======================================================================================================
    1         30           20
                                      D and up 
                                                     1        5.2528273       20.00000000    0.00000000
                                                     3        5.8543330      105.05654526    0.00000000
                                                     2        5.8045290     -105.08806248    0.00000000
                                      S - D
                                                     2       12.5217496      123.87006927    0.00000000
                                      P - D
                                                     2       11.5601905       72.33499364    0.00000000
    2          1            1
                                      P and up 
                                                     2       21.7769666      -10.85192405    0.00000000
                                                     1       21.2435951        1.00000000    0.00000000
                                                     3       21.2435951       21.24359508    0.00000000
                                      S - P
                                                     2        1.0000000        0.00000000    0.00000000
 ======================================================================================================
 Ernie: Thresh=  0.10000D-02 Tol=  0.10000D-05 Strict=F.
 There are   171 symmetry adapted cartesian basis functions of A1  symmetry.
 There are    45 symmetry adapted cartesian basis functions of A2  symmetry.
 There are    93 symmetry adapted cartesian basis functions of B1  symmetry.
 There are    93 symmetry adapted cartesian basis functions of B2  symmetry.
 There are   126 symmetry adapted basis functions of A1  symmetry.
 There are    38 symmetry adapted basis functions of A2  symmetry.
 There are    73 symmetry adapted basis functions of B1  symmetry.
 There are    73 symmetry adapted basis functions of B2  symmetry.
   310 basis functions,   402 primitive gaussians,   402 cartesian basis functions
    11 alpha electrons       10 beta electrons
       nuclear repulsion energy         8.8196201820 Hartrees.
 IExCor=    0 DFT=F Ex=HF Corr=None ExCW=0 ScaHFX=  1.000000
 ScaDFX=  1.000000  1.000000  1.000000  1.000000 ScalE2=  1.000000  1.000000
 IRadAn=      5 IRanWt=     -1 IRanGd=            0 ICorTp=0 IEmpDi=  4
 NAtoms=    2 NActive=    2 NUniq=    2 SFac= 1.00D+00 NAtFMM=   60 NAOKFM=F Big=F
 Integral buffers will be    131072 words long.
 Raffenetti 2 integral format.
 Two-electron integral symmetry is turned on.
 Leave Link  301 at Sat Apr 21 10:25:49 2018, MaxMem= 10737418240 cpu:               8.1 elap:               0.3
 (Enter /home1/apps/gaussian/16rA.03/g16/l302.exe)
 NPDir=0 NMtPBC=     1 NCelOv=     1 NCel=       1 NClECP=     1 NCelD=      1
         NCelK=      1 NCelE2=     1 NClLst=     1 CellRange=     0.0.
 One-electron integrals computed using PRISM.
 One-electron integral symmetry used in STVInt
   4 Symmetry operations used in ECPInt.
 ECPInt:  NShTT=    3916 NPrTT=    3916 LenC2=    3878 LenP2D=    3877.
 LDataN:  DoStor=T MaxTD1=10 Len=  848
 NBasis=   310 RedAO= T EigKep=  4.69D-06  NBF=   126    38    73    73
 NBsUse=   306 1.00D-06 EigRej=  9.65D-07 NBFU=   124    38    72    72
 Leave Link  302 at Sat Apr 21 10:25:51 2018, MaxMem= 10737418240 cpu:              75.1 elap:               2.4
 (Enter /home1/apps/gaussian/16rA.03/g16/l303.exe)
 DipDrv:  MaxL=1.
 Leave Link  303 at Sat Apr 21 10:25:51 2018, MaxMem= 10737418240 cpu:               3.0 elap:               0.2
 (Enter /home1/apps/gaussian/16rA.03/g16/l401.exe)
 Initial guess from the checkpoint file:  "qz.chk"
 B after Tr=     0.000000    0.000000    0.000000
         Rot=    1.000000    0.000000    0.000000    0.000000 Ang=   0.00 deg.
 Guess basis will be translated and rotated to current coordinates.
 JPrj=2 DoOrth=T DoCkMO=T.
 Initial guess orbital symmetries:
       Occupied  (SG) (SG) (PI) (PI) (SG) (DLTA) (DLTA) (PI) (PI)
                 (SG) (SG)
       Virtual   (PI) (PI) (SG) (SG) (PI) (PI) (SG) (SG) (SG) (PI)
                 (PI) (DLTA) (DLTA) (SG) (PI) (PI) (SG) (PI) (PI)
                 (SG) (SG) (SG) (PI) (PI) (DLTA) (DLTA) (DLTA)
                 (DLTA) (SG) (PI) (PI) (PI) (PI) (SG) (PI) (PI)
                 (SG) (SG) (PHI) (PHI) (DLTA) (DLTA) (SG) (PI)
                 (PI) (SG) (DLTA) (DLTA) (PI) (PI) (SG) (SG) (PI)
                 (PI) (DLTA) (DLTA) (SG) (PI) (PI) (PI) (PI) (SG)
                 (SG) (PHI) (PHI) (DLTA) (DLTA) (PI) (PI) (SG)
                 (DLTA) (DLTA) (PI) (PI) (SG) (?A) (?A) (PHI) (PHI)
                 (DLTA) (DLTA) (SG) (PI) (PI) (PI) (PI) (SG) (SG)
                 (SG) (PHI) (PHI) (DLTA) (DLTA) (PI) (PI) (SG)
                 (DLTA) (DLTA) (PI) (PI) (SG) (PI) (PI) (SG) (SG)
                 (?A) (?A) (PHI) (PHI) (DLTA) (DLTA) (PI) (PI)
                 (SG) (DLTA) (DLTA) (PI) (PI) (SG) (PI) (PI) (SG)
                 (PHI) (PHI) (DLTA) (DLTA) (SG) (PI) (PI) (SG)
                 (?A) (?A) (PHI) (PHI) (DLTA) (DLTA) (PI) (PI)
                 (SG) (DLTA) (DLTA) (PI) (PI) (SG) (PI) (PI) (SG)
                 (SG) (SG) (PI) (PI) (SG) (DLTA) (DLTA) (PI) (PI)
                 (SG) (SG) (PI) (PI) (SG) (SG) (DLTA) (DLTA) (PI)
                 (PI) (SG) (PI) (PI) (SG) (SG) (PI) (PI) (SG) (SG)
                 (DLTA) (DLTA) (PI) (PI) (SG) (PI) (PI) (SG) (SG)
                 (PI) (PI) (SG) (SG) (PI) (PI) (SG) (SG) (PI) (PI)
                 (SG) (SG) (SG) (PI) (PI) (SG) (SG) (SG) (SG) (SG)
                 (DLTA) (SG) (DLTA) (SG) (SG) (SG) (SG) (DLTA)
                 (SG) (SG) (DLTA) (DLTA) (SG) (SG) (?A) (SG) (SG)
                 (DLTA) (?A) (DLTA) (SG) (DLTA) (SG) (DLTA) (SG)
                 (SG) (DLTA) (?A) (DLTA) (?A) (DLTA) (DLTA) (DLTA)
                 (DLTA) (DLTA) (?A) (DLTA) (?A) (DLTA) (DLTA) (DLTA)
                 (DLTA) (?A) (DLTA) (?A) (PI) (PI) (PI) (PI) (PI)
                 (PHI) (PI) (PI) (PHI) (PI) (PI) (PHI) (?B) (PI)
                 (PI) (PHI) (PI) (PHI) (PI) (PHI) (?B) (?B) (PHI)
                 (PI) (PI) (PI) (PI) (PI) (PHI) (PI) (PI) (PHI)
                 (PI) (PI) (PHI) (?B) (PI) (PI) (PHI) (PI) (PHI)
                 (PI) (PHI) (?B) (?B) (PHI)
 The electronic state of the initial guess is 2-SG.
 Leave Link  401 at Sat Apr 21 10:25:52 2018, MaxMem= 10737418240 cpu:              16.9 elap:               0.6
 (Enter /home1/apps/gaussian/16rA.03/g16/l502.exe)
 Keep R1 and R2 ints in memory in symmetry-blocked form, NReq=1456552531.
 FoFCou: FMM=F IPFlag=           8 FMFlag=           0 FMFlg1=           0
         NFxFlg=           0 DoJE=F BraDBF=F KetDBF=F FulRan=T
         wScrn=  0.000000 ICntrl=       600 IOpCl=  0 I1Cent=           0 NGrid=           0
         NMat0=    1 NMatS0=  48205 NMatT0=    0 NMatD0=    1 NMtDS0=    0 NMtDT0=    0
 Petite list used in FoFCou.
 Restricted open shell SCF:
 Using DIIS extrapolation, IDIIS=  1040.
 NGot= 10737418240 LenX= 10147857266 LenY= 10147695221
 Requested convergence on RMS density matrix=1.00D-08 within 400 cycles.
 Requested convergence on MAX density matrix=1.00D-06.
 Requested convergence on             energy=1.00D-06.
 Virtual orbitals will be shifted by   0.200 hartree.
 No special actions if energy rises.

 Cycle   1  Pass 1  IDiag  1:
 E= -226.492661021316    
 DIIS: error= 2.79D+00 at cycle   1 NSaved=   1.
 NSaved= 1 IEnMin= 1 EnMin= -226.492661021316     IErMin= 1 ErrMin= 2.79D+00
 ErrMax= 2.79D+00  0.00D+00 EMaxC= 1.00D-01 BMatC= 1.11D+03 BMatP= 1.11D+03
 IDIUse=3 WtCom= 0.00D+00 WtEn= 1.00D+00
 Coeff-Com:  0.100D+01
 Coeff-En:   0.100D+01
 Coeff:      0.100D+01
 Gap=     0.089 Goal=   None    Shift=    0.200
 GapD=    0.089 DampG=0.500 DampE=0.125 DampFc=0.1250 IDamp=-1.
 Damping current iteration by 1.25D-01
 RMSDP=3.47D-03 MaxDP=4.24D-01              OVMax= 2.03D-03

 Cycle   2  Pass 1  IDiag  1:
 E= -226.492950311194     Delta-E=       -0.000289289878 Rises=F Damp=T
 DIIS: error= 2.44D+00 at cycle   2 NSaved=   2.
 NSaved= 2 IEnMin= 2 EnMin= -226.492950311194     IErMin= 2 ErrMin= 2.44D+00
 ErrMax= 2.44D+00  0.00D+00 EMaxC= 1.00D-01 BMatC= 8.49D+02 BMatP= 1.11D+03
 IDIUse=3 WtCom= 0.00D+00 WtEn= 1.00D+00
 Coeff-Com: -0.700D+01 0.800D+01
 Coeff-En:   0.000D+00 0.100D+01
 Coeff:      0.000D+00 0.100D+01
 Gap=     0.088 Goal=   None    Shift=    0.200
 RMSDP=3.06D-03 MaxDP=3.74D-01 DE=-2.89D-04 OVMax= 2.24D-04

 Cycle   3  Pass 1  IDiag  1:
 E= -226.494997065457     Delta-E=       -0.002046754263 Rises=F Damp=F
 DIIS: error= 3.97D-04 at cycle   3 NSaved=   3.
 NSaved= 3 IEnMin= 3 EnMin= -226.494997065457     IErMin= 3 ErrMin= 3.97D-04
 ErrMax= 3.97D-04  0.00D+00 EMaxC= 1.00D-01 BMatC= 8.00D-06 BMatP= 8.49D+02
 IDIUse=3 WtCom= 9.96D-01 WtEn= 3.97D-03
 Coeff-Com:  0.376D+01-0.430D+01 0.154D+01
 Coeff-En:   0.000D+00 0.000D+00 0.100D+01
 Coeff:      0.374D+01-0.428D+01 0.153D+01
 Gap=     0.088 Goal=   None    Shift=    0.200
 RMSDP=1.32D-04 MaxDP=1.26D-02 DE=-2.05D-03 OVMax= 1.45D-03

 Cycle   4  Pass 1  IDiag  1:
 E= -226.494997796811     Delta-E=       -0.000000731354 Rises=F Damp=F
 DIIS: error= 1.20D-04 at cycle   4 NSaved=   4.
 NSaved= 4 IEnMin= 4 EnMin= -226.494997796811     IErMin= 4 ErrMin= 1.20D-04
 ErrMax= 1.20D-04  0.00D+00 EMaxC= 1.00D-01 BMatC= 7.61D-07 BMatP= 8.00D-06
 IDIUse=3 WtCom= 9.99D-01 WtEn= 1.20D-03
 Coeff-Com:  0.270D+01-0.308D+01 0.507D+00 0.878D+00
 Coeff-En:   0.000D+00 0.000D+00 0.000D+00 0.100D+01
 Coeff:      0.269D+01-0.308D+01 0.506D+00 0.878D+00
 Gap=     0.088 Goal=   None    Shift=    0.200
 RMSDP=9.00D-06 MaxDP=1.04D-03 DE=-7.31D-07 OVMax= 1.29D-04

 Cycle   5  Pass 1  IDiag  1:
 E= -226.494997886290     Delta-E=       -0.000000089479 Rises=F Damp=F
 DIIS: error= 1.00D-04 at cycle   5 NSaved=   5.
 NSaved= 5 IEnMin= 5 EnMin= -226.494997886290     IErMin= 5 ErrMin= 1.00D-04
 ErrMax= 1.00D-04  0.00D+00 EMaxC= 1.00D-01 BMatC= 5.38D-07 BMatP= 7.61D-07
 IDIUse=3 WtCom= 9.99D-01 WtEn= 1.00D-03
 Coeff-Com:  0.246D+01-0.281D+01 0.468D+00 0.423D+00 0.460D+00
 Coeff-En:   0.000D+00 0.000D+00 0.000D+00 0.000D+00 0.100D+01
 Coeff:      0.246D+01-0.281D+01 0.467D+00 0.423D+00 0.461D+00
 Gap=     0.088 Goal=   None    Shift=    0.200
 RMSDP=7.28D-06 MaxDP=8.28D-04 DE=-8.95D-08 OVMax= 8.74D-05

 Cycle   6  Pass 1  IDiag  1:
 E= -226.494997973176     Delta-E=       -0.000000086886 Rises=F Damp=F
 DIIS: error= 9.14D-05 at cycle   6 NSaved=   6.
 NSaved= 6 IEnMin= 6 EnMin= -226.494997973176     IErMin= 6 ErrMin= 9.14D-05
 ErrMax= 9.14D-05  0.00D+00 EMaxC= 1.00D-01 BMatC= 4.36D-07 BMatP= 5.38D-07
 IDIUse=1 WtCom= 1.00D+00 WtEn= 0.00D+00
 Coeff-Com:  0.230D+01-0.262D+01 0.442D+00 0.287D+00 0.148D+00 0.452D+00
 Coeff:      0.230D+01-0.262D+01 0.442D+00 0.287D+00 0.148D+00 0.452D+00
 Gap=     0.088 Goal=   None    Shift=    0.200
 RMSDP=6.17D-06 MaxDP=7.17D-04 DE=-8.69D-08 OVMax= 7.95D-05

 Cycle   7  Pass 1  IDiag  1:
 E= -226.494998045397     Delta-E=       -0.000000072221 Rises=F Damp=F
 DIIS: error= 8.51D-05 at cycle   7 NSaved=   7.
 NSaved= 7 IEnMin= 7 EnMin= -226.494998045397     IErMin= 7 ErrMin= 8.51D-05
 ErrMax= 8.51D-05  0.00D+00 EMaxC= 1.00D-01 BMatC= 3.79D-07 BMatP= 4.36D-07
 IDIUse=1 WtCom= 1.00D+00 WtEn= 0.00D+00
 Coeff-Com:  0.100D+01-0.115D+01 0.189D+00 0.402D+00 0.208D-01-0.881D+01
 Coeff-Com:  0.934D+01
 Coeff:      0.100D+01-0.115D+01 0.189D+00 0.402D+00 0.208D-01-0.881D+01
 Coeff:      0.934D+01
 Gap=     0.088 Goal=   None    Shift=    0.200
 RMSDP=2.67D-05 MaxDP=2.57D-03 DE=-7.22D-08 OVMax= 3.47D-04

 Cycle   8  Pass 1  IDiag  1:
 E= -226.494998326619     Delta-E=       -0.000000281222 Rises=F Damp=F
 DIIS: error= 5.18D-05 at cycle   8 NSaved=   8.
 NSaved= 8 IEnMin= 8 EnMin= -226.494998326619     IErMin= 8 ErrMin= 5.18D-05
 ErrMax= 5.18D-05  0.00D+00 EMaxC= 1.00D-01 BMatC= 1.20D-07 BMatP= 3.79D-07
 IDIUse=1 WtCom= 1.00D+00 WtEn= 0.00D+00
 Coeff-Com:  0.681D+00-0.778D+00 0.121D+00 0.412D+00 0.174D+00-0.624D+01
 Coeff-Com:  0.575D+01 0.882D+00
 Coeff:      0.681D+00-0.778D+00 0.121D+00 0.412D+00 0.174D+00-0.624D+01
 Coeff:      0.575D+01 0.882D+00
 Gap=     0.088 Goal=   None    Shift=    0.200
 RMSDP=1.78D-05 MaxDP=2.22D-03 DE=-2.81D-07 OVMax= 2.45D-04

 Cycle   9  Pass 1  IDiag  1:
 E= -226.494998442440     Delta-E=       -0.000000115821 Rises=F Damp=F
 DIIS: error= 3.40D-05 at cycle   9 NSaved=   9.
 NSaved= 9 IEnMin= 9 EnMin= -226.494998442440     IErMin= 9 ErrMin= 3.40D-05
 ErrMax= 3.40D-05  0.00D+00 EMaxC= 1.00D-01 BMatC= 5.11D-08 BMatP= 1.20D-07
 IDIUse=1 WtCom= 1.00D+00 WtEn= 0.00D+00
 Coeff-Com:  0.535D-01-0.611D-01 0.116D-01-0.547D-01-0.100D-01 0.690D+00
 Coeff-Com: -0.501D+00-0.228D+01 0.315D+01
 Coeff:      0.535D-01-0.611D-01 0.116D-01-0.547D-01-0.100D-01 0.690D+00
 Coeff:     -0.501D+00-0.228D+01 0.315D+01
 Gap=     0.088 Goal=   None    Shift=    0.200
 RMSDP=1.96D-05 MaxDP=2.27D-03 DE=-1.16D-07 OVMax= 2.65D-04

 Cycle  10  Pass 1  IDiag  1:
 E= -226.494998514679     Delta-E=       -0.000000072238 Rises=F Damp=F
 DIIS: error= 1.26D-05 at cycle  10 NSaved=  10.
 NSaved=10 IEnMin=10 EnMin= -226.494998514679     IErMin=10 ErrMin= 1.26D-05
 ErrMax= 1.26D-05  0.00D+00 EMaxC= 1.00D-01 BMatC= 6.34D-09 BMatP= 5.11D-08
 IDIUse=1 WtCom= 1.00D+00 WtEn= 0.00D+00
 Coeff-Com:  0.157D-01-0.179D-01 0.314D-02-0.406D-03 0.758D-01-0.461D+00
 Coeff-Com:  0.961D+00-0.128D+01-0.499D-01 0.176D+01
 Coeff:      0.157D-01-0.179D-01 0.314D-02-0.406D-03 0.758D-01-0.461D+00
 Coeff:      0.961D+00-0.128D+01-0.499D-01 0.176D+01
 Gap=     0.088 Goal=   None    Shift=    0.200
 RMSDP=7.92D-06 MaxDP=1.06D-03 DE=-7.22D-08 OVMax= 1.21D-04

 Cycle  11  Pass 1  IDiag  1:
 E= -226.494998528180     Delta-E=       -0.000000013502 Rises=F Damp=F
 DIIS: error= 5.81D-06 at cycle  11 NSaved=  11.
 NSaved=11 IEnMin=11 EnMin= -226.494998528180     IErMin=11 ErrMin= 5.81D-06
 ErrMax= 5.81D-06  0.00D+00 EMaxC= 1.00D-01 BMatC= 1.38D-09 BMatP= 6.34D-09
 IDIUse=1 WtCom= 1.00D+00 WtEn= 0.00D+00
 Coeff-Com: -0.235D-01 0.269D-01-0.425D-02 0.389D-02-0.178D-01-0.462D+00
 Coeff-Com:  0.819D+00-0.290D+00-0.661D+00 0.270D+00 0.134D+01
 Coeff:     -0.235D-01 0.269D-01-0.425D-02 0.389D-02-0.178D-01-0.462D+00
 Coeff:      0.819D+00-0.290D+00-0.661D+00 0.270D+00 0.134D+01
 Gap=     0.088 Goal=   None    Shift=    0.200
 RMSDP=4.39D-06 MaxDP=5.78D-04 DE=-1.35D-08 OVMax= 6.79D-05

 Cycle  12  Pass 1  IDiag  1:
 E= -226.494998531671     Delta-E=       -0.000000003490 Rises=F Damp=F
 DIIS: error= 2.14D-06 at cycle  12 NSaved=  12.
 NSaved=12 IEnMin=12 EnMin= -226.494998531671     IErMin=12 ErrMin= 2.14D-06
 ErrMax= 2.14D-06  0.00D+00 EMaxC= 1.00D-01 BMatC= 2.82D-10 BMatP= 1.38D-09
 IDIUse=1 WtCom= 1.00D+00 WtEn= 0.00D+00
 Coeff-Com:  0.197D-02-0.225D-02 0.147D-03 0.140D-01-0.269D-02-0.349D+00
 Coeff-Com:  0.401D+00 0.295D-01-0.100D+00 0.312D+00-0.180D+01 0.250D+01
 Coeff:      0.197D-02-0.225D-02 0.147D-03 0.140D-01-0.269D-02-0.349D+00
 Coeff:      0.401D+00 0.295D-01-0.100D+00 0.312D+00-0.180D+01 0.250D+01
 Gap=     0.088 Goal=   None    Shift=    0.200
 RMSDP=1.53D-06 MaxDP=1.94D-04 DE=-3.49D-09 OVMax= 2.67D-05

 Cycle  13  Pass 1  IDiag  1:
 E= -226.494998532344     Delta-E=       -0.000000000673 Rises=F Damp=F
 DIIS: error= 1.26D-06 at cycle  13 NSaved=  13.
 NSaved=13 IEnMin=13 EnMin= -226.494998532344     IErMin=13 ErrMin= 1.26D-06
 ErrMax= 1.26D-06  0.00D+00 EMaxC= 1.00D-01 BMatC= 8.14D-11 BMatP= 2.82D-10
 IDIUse=1 WtCom= 1.00D+00 WtEn= 0.00D+00
 Coeff-Com:  0.626D-03-0.715D-03 0.398D-04 0.441D-02 0.272D-01-0.249D+00
 Coeff-Com:  0.258D+00-0.927D-02-0.105D+00 0.429D+00-0.101D+01 0.127D+00
 Coeff-Com:  0.153D+01
 Coeff:      0.626D-03-0.715D-03 0.398D-04 0.441D-02 0.272D-01-0.249D+00
 Coeff:      0.258D+00-0.927D-02-0.105D+00 0.429D+00-0.101D+01 0.127D+00
 Coeff:      0.153D+01
 Gap=     0.088 Goal=   None    Shift=    0.200
 RMSDP=8.30D-07 MaxDP=1.05D-04 DE=-6.73D-10 OVMax= 1.55D-05

 Cycle  14  Pass 1  IDiag  1:
 E= -226.494998532560     Delta-E=       -0.000000000216 Rises=F Damp=F
 DIIS: error= 7.07D-07 at cycle  14 NSaved=  14.
 NSaved=14 IEnMin=14 EnMin= -226.494998532560     IErMin=14 ErrMin= 7.07D-07
 ErrMax= 7.07D-07  0.00D+00 EMaxC= 1.00D-01 BMatC= 2.61D-11 BMatP= 8.14D-11
 IDIUse=1 WtCom= 1.00D+00 WtEn= 0.00D+00
 Coeff-Com:  0.147D-02-0.168D-02 0.241D-03 0.324D-02 0.237D-02-0.895D-01
 Coeff-Com:  0.102D+00 0.316D-01-0.117D+00-0.307D-01 0.512D+00-0.501D+00
 Coeff-Com: -0.166D+01 0.274D+01
 Coeff:      0.147D-02-0.168D-02 0.241D-03 0.324D-02 0.237D-02-0.895D-01
 Coeff:      0.102D+00 0.316D-01-0.117D+00-0.307D-01 0.512D+00-0.501D+00
 Coeff:     -0.166D+01 0.274D+01
 Gap=     0.088 Goal=   None    Shift=    0.200
 RMSDP=4.42D-07 MaxDP=5.35D-05 DE=-2.16D-10 OVMax= 8.53D-06

 Cycle  15  Pass 1  IDiag  1:
 E= -226.494998532628     Delta-E=       -0.000000000069 Rises=F Damp=F
 DIIS: error= 4.16D-07 at cycle  15 NSaved=  15.
 NSaved=15 IEnMin=15 EnMin= -226.494998532628     IErMin=15 ErrMin= 4.16D-07
 ErrMax= 4.16D-07  0.00D+00 EMaxC= 1.00D-01 BMatC= 9.47D-12 BMatP= 2.61D-11
 IDIUse=1 WtCom= 1.00D+00 WtEn= 0.00D+00
 Coeff-Com:  0.129D-02-0.147D-02 0.193D-03 0.365D-02-0.577D-02-0.518D-01
 Coeff-Com:  0.572D-01 0.477D-01-0.603D-01-0.276D-01-0.617D-01 0.363D+00
 Coeff-Com: -0.296D+00-0.153D+01 0.256D+01
 Coeff:      0.129D-02-0.147D-02 0.193D-03 0.365D-02-0.577D-02-0.518D-01
 Coeff:      0.572D-01 0.477D-01-0.603D-01-0.276D-01-0.617D-01 0.363D+00
 Coeff:     -0.296D+00-0.153D+01 0.256D+01
 Gap=     0.088 Goal=   None    Shift=    0.200
 RMSDP=2.27D-07 MaxDP=2.78D-05 DE=-6.85D-11 OVMax= 4.99D-06

 Cycle  16  Pass 1  IDiag  1:
 E= -226.494998532653     Delta-E=       -0.000000000024 Rises=F Damp=F
 DIIS: error= 2.60D-07 at cycle  16 NSaved=  16.
 NSaved=16 IEnMin=16 EnMin= -226.494998532653     IErMin=16 ErrMin= 2.60D-07
 ErrMax= 2.60D-07  0.00D+00 EMaxC= 1.00D-01 BMatC= 3.75D-12 BMatP= 9.47D-12
 IDIUse=1 WtCom= 1.00D+00 WtEn= 0.00D+00
 Coeff-Com:  0.344D-03-0.393D-03 0.670D-04-0.292D-03 0.238D-02-0.121D-02
 Coeff-Com: -0.239D-03-0.106D-01 0.112D-01 0.407D-01-0.959D-01 0.254D-01
 Coeff-Com:  0.596D-01 0.351D+00-0.246D+01 0.308D+01
 Coeff:      0.344D-03-0.393D-03 0.670D-04-0.292D-03 0.238D-02-0.121D-02
 Coeff:     -0.239D-03-0.106D-01 0.112D-01 0.407D-01-0.959D-01 0.254D-01
 Coeff:      0.596D-01 0.351D+00-0.246D+01 0.308D+01
 Gap=     0.088 Goal=   None    Shift=    0.200
 RMSDP=1.52D-07 MaxDP=1.87D-05 DE=-2.44D-11 OVMax= 3.06D-06

 Cycle  17  Pass 1  IDiag  1:
 E= -226.494998532663     Delta-E=       -0.000000000010 Rises=F Damp=F
 DIIS: error= 1.46D-07 at cycle  17 NSaved=  17.
 NSaved=17 IEnMin=17 EnMin= -226.494998532663     IErMin=17 ErrMin= 1.46D-07
 ErrMax= 1.46D-07  0.00D+00 EMaxC= 1.00D-01 BMatC= 1.49D-12 BMatP= 3.75D-12
 IDIUse=1 WtCom= 1.00D+00 WtEn= 0.00D+00
 Large coefficients: NSaved= 17 BigCof=    0.00 CofMax=   10.00 Det=-7.99D-15
 Inversion failed.  Reducing to 16 matrices.
 Large coefficients: NSaved= 16 BigCof=    0.00 CofMax=   10.00 Det=-7.99D-15
 Inversion failed.  Reducing to 15 matrices.
 Coeff-Com:  0.619D-05-0.331D-03-0.401D-03 0.677D-02-0.368D-02-0.148D-01
 Coeff-Com:  0.132D-01 0.128D-01 0.592D-02 0.702D-02-0.381D+00 0.763D+00
 Coeff-Com: -0.983D+00-0.621D-01 0.164D+01
 Coeff:      0.619D-05-0.331D-03-0.401D-03 0.677D-02-0.368D-02-0.148D-01
 Coeff:      0.132D-01 0.128D-01 0.592D-02 0.702D-02-0.381D+00 0.763D+00
 Coeff:     -0.983D+00-0.621D-01 0.164D+01
 Gap=     0.088 Goal=   None    Shift=    0.200
 RMSDP=8.60D-08 MaxDP=1.06D-05 DE=-1.00D-11 OVMax= 1.98D-06

 Cycle  18  Pass 1  IDiag  1:
 E= -226.494998532666     Delta-E=       -0.000000000003 Rises=F Damp=F
 DIIS: error= 9.09D-08 at cycle  18 NSaved=  16.
 NSaved=16 IEnMin=16 EnMin= -226.494998532666     IErMin=16 ErrMin= 9.09D-08
 ErrMax= 9.09D-08  0.00D+00 EMaxC= 1.00D-01 BMatC= 6.01D-13 BMatP= 1.49D-12
 IDIUse=1 WtCom= 1.00D+00 WtEn= 0.00D+00
 Large coefficients: NSaved= 16 BigCof=    0.00 CofMax=   10.00 Det=-3.50D-15
 Inversion failed.  Reducing to 15 matrices.
 Coeff-Com:  0.455D-03-0.170D-02-0.381D-02 0.545D-02 0.970D-02-0.141D-01
 Coeff-Com: -0.115D-01 0.344D-01 0.101D-01-0.747D-01-0.132D+00 0.123D+00
 Coeff-Com:  0.474D+00-0.208D+01 0.266D+01
 Coeff:      0.455D-03-0.170D-02-0.381D-02 0.545D-02 0.970D-02-0.141D-01
 Coeff:     -0.115D-01 0.344D-01 0.101D-01-0.747D-01-0.132D+00 0.123D+00
 Coeff:      0.474D+00-0.208D+01 0.266D+01
 Gap=     0.088 Goal=   None    Shift=    0.200
 RMSDP=5.16D-08 MaxDP=6.31D-06 DE=-3.38D-12 OVMax= 1.23D-06

 Cycle  19  Pass 1  IDiag  1:
 E= -226.494998532668     Delta-E=       -0.000000000002 Rises=F Damp=F
 DIIS: error= 5.73D-08 at cycle  19 NSaved=  16.
 NSaved=16 IEnMin=16 EnMin= -226.494998532668     IErMin=16 ErrMin= 5.73D-08
 ErrMax= 5.73D-08  0.00D+00 EMaxC= 1.00D-01 BMatC= 2.39D-13 BMatP= 6.01D-13
 IDIUse=1 WtCom= 1.00D+00 WtEn= 0.00D+00
 Large coefficients: NSaved= 16 BigCof=    0.00 CofMax=   10.00 Det=-1.02D-15
 Inversion failed.  Reducing to 15 matrices.
 Coeff-Com:  0.863D-03-0.135D-02-0.165D-02 0.640D-02-0.245D-02-0.280D-02
 Coeff-Com: -0.102D-01 0.185D-02 0.108D+00-0.148D+00-0.295D+00 0.580D+00
 Coeff-Com: -0.501D+00-0.981D+00 0.225D+01
 Coeff:      0.863D-03-0.135D-02-0.165D-02 0.640D-02-0.245D-02-0.280D-02
 Coeff:     -0.102D-01 0.185D-02 0.108D+00-0.148D+00-0.295D+00 0.580D+00
 Coeff:     -0.501D+00-0.981D+00 0.225D+01
 Gap=     0.088 Goal=   None    Shift=    0.200
 RMSDP=3.10D-08 MaxDP=3.80D-06 DE=-1.51D-12 OVMax= 7.83D-07

 Cycle  20  Pass 1  IDiag  1:
 E= -226.494998532668     Delta-E=       -0.000000000001 Rises=F Damp=F
 DIIS: error= 3.68D-08 at cycle  20 NSaved=  16.
 NSaved=16 IEnMin=16 EnMin= -226.494998532668     IErMin=16 ErrMin= 3.68D-08
 ErrMax= 3.68D-08  0.00D+00 EMaxC= 1.00D-01 BMatC= 1.02D-13 BMatP= 2.39D-13
 IDIUse=1 WtCom= 1.00D+00 WtEn= 0.00D+00
 Large coefficients: NSaved= 16 BigCof=    0.00 CofMax=   10.00 Det=-2.41D-16
 Inversion failed.  Reducing to 15 matrices.
 Coeff-Com:  0.203D-02-0.330D-02 0.330D-02-0.150D-02-0.251D-02 0.441D-02
 Coeff-Com: -0.125D-01 0.453D-01-0.500D-01-0.123D+00 0.207D+00-0.419D+00
 Coeff-Com:  0.338D+00-0.981D+00 0.199D+01
 Coeff:      0.203D-02-0.330D-02 0.330D-02-0.150D-02-0.251D-02 0.441D-02
 Coeff:     -0.125D-01 0.453D-01-0.500D-01-0.123D+00 0.207D+00-0.419D+00
 Coeff:      0.338D+00-0.981D+00 0.199D+01
 Gap=     0.088 Goal=   None    Shift=    0.200
 RMSDP=1.83D-08 MaxDP=2.27D-06 DE=-6.82D-13 OVMax= 5.18D-07

 Cycle  21  Pass 1  IDiag  1:
 E= -226.494998532669     Delta-E=       -0.000000000001 Rises=F Damp=F
 DIIS: error= 2.36D-08 at cycle  21 NSaved=  16.
 NSaved=16 IEnMin=16 EnMin= -226.494998532669     IErMin=16 ErrMin= 2.36D-08
 ErrMax= 2.36D-08  0.00D+00 EMaxC= 1.00D-01 BMatC= 4.43D-14 BMatP= 1.02D-13
 IDIUse=1 WtCom= 1.00D+00 WtEn= 0.00D+00
 Large coefficients: NSaved= 16 BigCof=    0.00 CofMax=   10.00 Det=-1.07D-16
 Inversion failed.  Reducing to 15 matrices.
 Coeff-Com: -0.165D-03 0.884D-03-0.576D-03-0.113D-02 0.231D-03 0.500D-02
 Coeff-Com:  0.802D-02-0.499D-01 0.170D-01 0.142D+00-0.408D+00 0.347D+00
 Coeff-Com:  0.395D+00-0.254D+01 0.309D+01
 Coeff:     -0.165D-03 0.884D-03-0.576D-03-0.113D-02 0.231D-03 0.500D-02
 Coeff:      0.802D-02-0.499D-01 0.170D-01 0.142D+00-0.408D+00 0.347D+00
 Coeff:      0.395D+00-0.254D+01 0.309D+01
 Gap=     0.088 Goal=   None    Shift=    0.200
 RMSDP=1.15D-08 MaxDP=1.46D-06 DE=-6.25D-13 OVMax= 3.35D-07

 Cycle  22  Pass 1  IDiag  1:
 E= -226.494998532669     Delta-E=        0.000000000000 Rises=F Damp=F
 DIIS: error= 1.53D-08 at cycle  22 NSaved=  16.
 NSaved=16 IEnMin=15 EnMin= -226.494998532669     IErMin=16 ErrMin= 1.53D-08
 ErrMax= 1.53D-08  0.00D+00 EMaxC= 1.00D-01 BMatC= 1.97D-14 BMatP= 4.43D-14
 IDIUse=1 WtCom= 1.00D+00 WtEn= 0.00D+00
 Large coefficients: NSaved= 16 BigCof=    0.00 CofMax=   10.00 Det=-2.50D-17
 Inversion failed.  Reducing to 15 matrices.
 Coeff-Com:  0.416D-03-0.511D-03-0.841D-03 0.178D-02 0.313D-02-0.578D-04
 Coeff-Com: -0.269D-01 0.116D-01 0.991D-01-0.308D+00 0.266D+00 0.168D+00
 Coeff-Com: -0.137D+01 0.105D+01 0.110D+01
 Coeff:      0.416D-03-0.511D-03-0.841D-03 0.178D-02 0.313D-02-0.578D-04
 Coeff:     -0.269D-01 0.116D-01 0.991D-01-0.308D+00 0.266D+00 0.168D+00
 Coeff:     -0.137D+01 0.105D+01 0.110D+01
 Gap=     0.088 Goal=   None    Shift=    0.200
 RMSDP=7.05D-09 MaxDP=8.85D-07 DE= 2.84D-14 OVMax= 2.26D-07

 SCF Done:  E(ROHF) =  -226.494998533     A.U. after   22 cycles
            NFock= 22  Conv=0.71D-08     -V/T= 2.5556
 <Sx>= 0.0000 <Sy>= 0.0000 <Sz>= 0.5000 <S**2>= 0.7500 S= 0.5000
 <L.S>=  0.00000000000    
 KE= 1.456043558285D+02 PE=-5.725719859420D+02 EE= 1.916530113988D+02
 Annihilation of the first spin contaminant:
 S**2 before annihilation     0.7500,   after     0.7500
 Leave Link  502 at Sat Apr 21 10:26:42 2018, MaxMem= 10737418240 cpu:            1357.4 elap:              50.5
 (Enter /home1/apps/gaussian/16rA.03/g16/l801.exe)
 Windowed orbitals will be sorted by symmetry type.
 GenMOA:  NOpAll=  4 NOp2=4 NOpUse=  4 JSym2X=1
 FoFJK:  IHMeth= 1 ICntrl=       0 DoSepK=F KAlg= 0 I1Cent=           0 FoldK=F
 IRaf=         0 NMat=       1 IRICut=       1 DoRegI=T DoRafI=F ISym2E= 1 IDoP0=0 IntGTp=1.
 FoFCou: FMM=F IPFlag=           8 FMFlag=      100000 FMFlg1=           0
         NFxFlg=           0 DoJE=F BraDBF=F KetDBF=F FulRan=T
         wScrn=  0.000000 ICntrl=         0 IOpCl=  1 I1Cent=           0 NGrid=           0
         NMat0=    1 NMatS0=      1 NMatT0=    0 NMatD0=    1 NMtDS0=    0 NMtDT0=    0
 Petite list used in FoFCou.
 <Sx>= 0.0000 <Sy>= 0.0000 <Sz>= 0.5000 <S**2>= 0.7500 S= 0.5000
 Range of M.O.s used for correlation:     1   306
 NBasis=   310 NAE=    11 NBE=    10 NFC=     0 NFV=     0
 NROrb=    306 NOA=    11 NOB=    10 NVA=   295 NVB=   296

 **** Warning!!: The largest alpha MO coefficient is  0.16926290D+03


 **** Warning!!: The largest beta MO coefficient is  0.16926085D+03

 Singles contribution to E2=   -0.7606976388D-03
 Leave Link  801 at Sat Apr 21 10:26:56 2018, MaxMem= 10737418240 cpu:             425.3 elap:              13.3
 (Enter /home1/apps/gaussian/16rA.03/g16/l804.exe)
 Open-shell transformation, MDV= 10737418240 ITran=4 ISComp=2.
 Unit  1 TFree=       2912904 TCopy=       1336685.
 Semi-Direct transformation.
 ModeAB=           2 MOrb=            11 LenV=   10734514140
 LASXX=     39182606 LTotXX=    39182606 LenRXX=    39182606
 LTotAB=    39699063 MaxLAS=   272656098 LenRXY=   272656098
 NonZer=   277880130 LenScr=   418455552 LnRSAI=           0
 LnScr1=           0 LExtra=    16204689 Total=    746498945
 MaxDsk= 67108864000 SrtSym=           F ITran=            4
 DoSDTr:  NPSUse= 32
 JobTyp=1 Pass  1:  I=   1 to  11.
 (rs|ai) integrals will be sorted in core.
 Complete sort for first half transformation.
 First half transformation complete.
 Begin second half transformation for I=  10.
 Begin second half transformation for I=  10.
 Complete sort for second half transformation.
 Second half transformation complete.
 ModeAB=           2 MOrb=            10 LenV=   10734514140
 LASXX=     35609842 LTotXX=    35609842 LenRXX=   247869180
 LTotAB=    33495734 MaxLAS=   247869180 LenRXY=    33495734
 NonZer=   252618300 LenScr=   380413952 LnRSAI=           0
 LnScr1=           0 LExtra=   328043393 Total=    989822259
 MaxDsk= 67108864000 SrtSym=           F ITran=            4
 DoSDTr:  NPSUse= 32
 JobTyp=2 Pass  1:  I=   1 to  10.
 (rs|ai) integrals will be sorted in core.
 Complete sort for first half transformation.
 First half transformation complete.
 Begin second half transformation for I=  10.
 Begin second half transformation for I=  10.
 Complete sort for second half transformation.
 Second half transformation complete.
 Spin components of T(2) and E(2):
     alpha-alpha T2 =       0.1886456025D-01 E2=     -0.1706879526D+00
     alpha-beta  T2 =       0.7897306987D-01 E2=     -0.7799209836D+00
     beta-beta   T2 =       0.1629363596D-01 E2=     -0.1622251151D+00
 ANorm=    0.1055846051D+01
 E2 =    -0.1113594749D+01 EUMP2 =    -0.22760859328160D+03
 (S**2,0)=  0.75000D+00           (S**2,1)=  0.75000D+00
 E(PUHF)=      -0.22649499853D+03        E(PMP2)=      -0.22760859328D+03
 Leave Link  804 at Sat Apr 21 10:36:14 2018, MaxMem= 10737418240 cpu:           17834.1 elap:             557.6
 (Enter /home1/apps/gaussian/16rA.03/g16/l913.exe)
 CIDS:  MDV= 10737418240.
 IFCWin=0 IBDFC=1 NFBD=     0     0 NFCmp=     0     0 NFFFC=     0     0
 Using original routines for 1st iteration.
 Using DD4UQ or CC4UQ for 2nd and later iterations.
 Keep R2 and R3 ints in memory in symmetry-blocked form, NReq=1456570172.
 FoFCou: FMM=F IPFlag=           8 FMFlag=           0 FMFlg1=           0
         NFxFlg=           0 DoJE=F BraDBF=F KetDBF=F FulRan=T
         wScrn=  0.000000 ICntrl=       600 IOpCl=  0 I1Cent=           0 NGrid=           0
         NMat0=    1 NMatS0=  48205 NMatT0=    0 NMatD0=    1 NMtDS0=    0 NMtDT0=    0
 Petite list used in FoFCou.
 CIDS: In Core Option IDoMem=           1.
 CCSD(T)
 =======
 Iterations= 150 Convergence= 0.100D-06
 Produce multiple copies of IABC intergrals
 Iteration Nr.   1
 **********************
 DD1Dir will call FoFMem   1 times, MxPair=       320
 NAB=   110 NAA=    55 NBB=    45.
 DD1Dir will call FoFMem   1 times, MxPair=       320
 NAB=   110 NAA=    55 NBB=    45.
 MP4(R+Q)= -0.13101452D+00
 Maximum subspace dimension=  5
 A-vector RMS=  8.4164334D-05 Max=  1.2980584D-03 conv= 1.00D-05.
 RLE energy=       -1.1178671690
 E3=        0.12670916D+00        EROMP3=      -0.22748188412D+03
 E4(SDQ)=  -0.78585621D-01        ROMP4(SDQ)=  -0.22756046974D+03
 VARIATIONAL ENERGIES WITH THE FIRST-ORDER WAVEFUNCTION:
 DE(Corr)=  -1.1178510     E(Corr)=     -227.61284951    
 NORM(A)=   0.10558183D+01
 Iteration Nr.   2
 **********************
 DD1Dir will call FoFMem   1 times, MxPair=       320
 NAB=   110 NAA=    55 NBB=    45.
 A-vector RMS=  2.8122299D-03 Max=  2.5631043D-02 conv= 1.00D-05.
 RLE energy=       -1.0982214999
 DE(Corr)= -0.98535142     E(CORR)=     -227.48034995     Delta= 1.32D-01
 NORM(A)=   0.10533314D+01
 Iteration Nr.   3
 **********************
 DD1Dir will call FoFMem   1 times, MxPair=       320
 NAB=   110 NAA=    55 NBB=    45.
 A-vector RMS=  2.2597116D-03 Max=  2.2760498D-02 conv= 1.00D-05.
 RLE energy=       -1.0607735348
 DE(Corr)= -0.99413355     E(CORR)=     -227.48913208     Delta=-8.78D-03
 NORM(A)=   0.10521002D+01
 Iteration Nr.   4
 **********************
 DD1Dir will call FoFMem   1 times, MxPair=       320
 NAB=   110 NAA=    55 NBB=    45.
 A-vector RMS=  1.3501009D-03 Max=  1.5458735D-02 conv= 1.00D-05.
 RLE energy=       -0.9776679247
 DE(Corr)=  -1.0144006     E(CORR)=     -227.50939916     Delta=-2.03D-02
 NORM(A)=   0.10673284D+01
 Iteration Nr.   5
 **********************
 DD1Dir will call FoFMem   1 times, MxPair=       320
 NAB=   110 NAA=    55 NBB=    45.
 A-vector RMS=  1.8682242D-03 Max=  1.5100038D-02 conv= 1.00D-05.
 RLE energy=       -1.0344853267
 DE(Corr)=  -1.0692977     E(CORR)=     -227.56429627     Delta=-5.49D-02
 NORM(A)=   0.10600665D+01
 Iteration Nr.   6
 **********************
 DD1Dir will call FoFMem   1 times, MxPair=       320
 NAB=   110 NAA=    55 NBB=    45.
 A-vector RMS=  1.3101399D-04 Max=  2.0399862D-03 conv= 1.00D-05.
 RLE energy=       -1.0347637799
 DE(Corr)=  -1.0349523     E(CORR)=     -227.52995078     Delta= 3.43D-02
 NORM(A)=   0.10596897D+01
 Iteration Nr.   7
 **********************
 DD1Dir will call FoFMem   1 times, MxPair=       320
 NAB=   110 NAA=    55 NBB=    45.
 A-vector RMS=  5.6791998D-05 Max=  1.3563847D-03 conv= 1.00D-05.
 RLE energy=       -1.0343038596
 DE(Corr)=  -1.0343193     E(CORR)=     -227.52931788     Delta= 6.33D-04
 NORM(A)=   0.10601184D+01
 Iteration Nr.   8
 **********************
 DD1Dir will call FoFMem   1 times, MxPair=       320
 NAB=   110 NAA=    55 NBB=    45.
 A-vector RMS=  3.6489687D-05 Max=  5.2089624D-04 conv= 1.00D-05.
 RLE energy=       -1.0344406389
 DE(Corr)=  -1.0345575     E(CORR)=     -227.52955605     Delta=-2.38D-04
 NORM(A)=   0.10602421D+01
 Iteration Nr.   9
 **********************
 DD1Dir will call FoFMem   1 times, MxPair=       320
 NAB=   110 NAA=    55 NBB=    45.
 A-vector RMS=  1.6208884D-05 Max=  1.9146105D-04 conv= 1.00D-05.
 RLE energy=       -1.0344836778
 DE(Corr)=  -1.0344584     E(CORR)=     -227.52945695     Delta= 9.91D-05
 NORM(A)=   0.10603383D+01
 Iteration Nr.  10
 **********************
 DD1Dir will call FoFMem   1 times, MxPair=       320
 NAB=   110 NAA=    55 NBB=    45.
 A-vector RMS=  6.6813521D-06 Max=  1.0477499D-04 conv= 1.00D-05.
 RLE energy=       -1.0344803133
 DE(Corr)=  -1.0344859     E(CORR)=     -227.52948447     Delta=-2.75D-05
 NORM(A)=   0.10603232D+01
 Iteration Nr.  11
 **********************
 DD1Dir will call FoFMem   1 times, MxPair=       320
 NAB=   110 NAA=    55 NBB=    45.
 A-vector RMS=  3.4227810D-06 Max=  6.1839939D-05 conv= 1.00D-05.
 RLE energy=       -1.0344742717
 DE(Corr)=  -1.0344793     E(CORR)=     -227.52947779     Delta= 6.68D-06
 NORM(A)=   0.10603050D+01
 Iteration Nr.  12
 **********************
 DD1Dir will call FoFMem   1 times, MxPair=       320
 NAB=   110 NAA=    55 NBB=    45.
 A-vector RMS=  1.2338913D-06 Max=  2.7820001D-05 conv= 1.00D-05.
 RLE energy=       -1.0344746573
 DE(Corr)=  -1.0344751     E(CORR)=     -227.52947361     Delta= 4.18D-06
 NORM(A)=   0.10603015D+01
 Iteration Nr.  13
 **********************
 DD1Dir will call FoFMem   1 times, MxPair=       320
 NAB=   110 NAA=    55 NBB=    45.
 A-vector RMS=  5.4853046D-07 Max=  7.4397864D-06 conv= 1.00D-05.
 RLE energy=       -1.0344738814
 DE(Corr)=  -1.0344743     E(CORR)=     -227.52947283     Delta= 7.80D-07
 NORM(A)=   0.10603002D+01
 Iteration Nr.  14
 **********************
 DD1Dir will call FoFMem   1 times, MxPair=       320
 NAB=   110 NAA=    55 NBB=    45.
 A-vector RMS=  2.9689897D-07 Max=  4.9823928D-06 conv= 1.00D-05.
 RLE energy=       -1.0344729503
 DE(Corr)=  -1.0344732     E(CORR)=     -227.52947174     Delta= 1.09D-06
 NORM(A)=   0.10603000D+01
 Iteration Nr.  15
 **********************
 DD1Dir will call FoFMem   1 times, MxPair=       320
 NAB=   110 NAA=    55 NBB=    45.
 A-vector RMS=  9.7069709D-08 Max=  1.4243078D-06 conv= 1.00D-05.
 RLE energy=       -1.0344734562
 DE(Corr)=  -1.0344736     E(CORR)=     -227.52947216     Delta=-4.22D-07
 NORM(A)=   0.10603004D+01
 Iteration Nr.  16
 **********************
 DD1Dir will call FoFMem   1 times, MxPair=       320
 NAB=   110 NAA=    55 NBB=    45.
 A-vector RMS=  6.8903725D-08 Max=  9.9375416D-07 conv= 1.00D-05.
 RLE energy=       -1.0344735886
 DE(Corr)=  -1.0344736     E(CORR)=     -227.52947211     Delta= 5.27D-08
 NORM(A)=   0.10603007D+01
 CI/CC converged in   16 iterations to DelEn= 5.27D-08 Conv= 1.00D-07 ErrA1= 6.89D-08 Conv= 1.00D-05
 Wavefunction amplitudes converged. E(Corr)=     -227.52947211    
 Largest amplitude= 6.17D-02
 Time for triples=    62769.56 seconds.
 T4(CCSD)= -0.32758507D-01
 T5(CCSD)=  0.34629814D-02
 CCSD(T)= -0.22755876763D+03
 Discarding MO integrals.
 Leave Link  913 at Sat Apr 21 11:18:12 2018, MaxMem= 10737418240 cpu:           80383.3 elap:            2518.2
 (Enter /home1/apps/gaussian/16rA.03/g16/l601.exe)
 Copying SCF densities to generalized density rwf, IOpCl= 0 IROHF=1.

 **********************************************************************

            Population analysis using the SCF density.

 **********************************************************************

 Orbital symmetries:
       Occupied  (SG) (SG) (PI) (PI) (SG) (DLTA) (DLTA) (PI) (PI)
                 (SG) (SG)
       Virtual   (PI) (PI) (SG) (SG) (PI) (PI) (SG) (SG) (PI) (PI)
                 (DLTA) (DLTA) (SG) (SG) (PI) (PI) (SG) (PI) (PI)
                 (SG) (SG) (PI) (PI) (DLTA) (DLTA) (SG) (DLTA)
                 (DLTA) (SG) (PI) (PI) (SG) (PI) (PI) (SG) (PHI)
                 (PHI) (PI) (PI) (DLTA) (DLTA) (SG) (PI) (PI) (SG)
                 (DLTA) (DLTA) (PHI) (PHI) (SG) (PI) (PI) (DLTA)
                 (DLTA) (PI) (PI) (SG) (SG) (SG) (PI) (PI) (DLTA)
                 (DLTA) (PI) (PI) (SG) (SG) (PHI) (PHI) (PI) (PI)
                 (DLTA) (DLTA) (PI) (PI) (DLTA) (DLTA) (?A) (?A)
                 (PHI) (PHI) (SG) (SG) (PI) (PI) (DLTA) (DLTA)
                 (SG) (PI) (PI) (SG) (PHI) (PHI) (SG) (DLTA) (DLTA)
                 (PI) (PI) (SG) (SG) (PI) (PI) (SG) (PHI) (PHI)
                 (DLTA) (DLTA) (PI) (PI) (DLTA) (DLTA) (PI) (PI)
                 (DLTA) (DLTA) (PI) (PI) (SG) (PI) (PI) (SG) (SG)
                 (?A) (?A) (PHI) (PHI) (SG) (DLTA) (DLTA) (?B)
                 (?B) (?A) (?A) (PHI) (PHI) (PI) (PI) (DLTA) (DLTA)
                 (SG) (PI) (PI) (SG) (PI) (PI) (SG) (DLTA) (DLTA)
                 (PI) (PI) (SG) (PHI) (PHI) (DLTA) (DLTA) (PI)
                 (PI) (SG) (SG) (?A) (?A) (PHI) (PHI) (DLTA) (DLTA)
                 (PI) (PI) (SG) (?B) (?B) (?A) (?A) (PHI) (PHI)
                 (DLTA) (DLTA) (SG) (PI) (PI) (SG) (PI) (PI) (SG)
                 (DLTA) (DLTA) (PI) (PI) (SG) (SG) (PHI) (PHI)
                 (DLTA) (DLTA) (PI) (PI) (SG) (?A) (?A) (PHI) (PHI)
                 (DLTA) (DLTA) (PI) (PI) (SG) (DLTA) (DLTA) (PI)
                 (PI) (SG) (?B) (?B) (?A) (?A) (PHI) (PHI) (DLTA)
                 (DLTA) (PI) (PI) (SG) (PI) (PI) (SG) (SG) (DLTA)
                 (DLTA) (PI) (PI) (SG) (PI) (PI) (SG) (SG) (SG)
                 (DLTA) (DLTA) (PI) (PI) (SG) (PI) (PI) (SG) (SG)
                 (DLTA) (DLTA) (PI) (PI) (SG) (PI) (PI) (SG) (SG)
                 (PI) (PI) (SG) (DLTA) (DLTA) (PI) (PI) (SG) (SG)
                 (PI) (PI) (SG) (SG) (DLTA) (DLTA) (PI) (PI) (SG)
                 (PI) (PI) (SG) (SG) (PI) (PI) (SG) (SG) (PI) (PI)
                 (SG) (SG) (PI) (PI) (SG) (SG) (PI) (PI) (SG) (SG)
                 (SG) (SG) (SG) (SG)
 The electronic state is 2-SG.
 Alpha  occ. eigenvalues --   -5.58744  -3.88601  -3.87738  -3.87738  -0.82701
 Alpha  occ. eigenvalues --   -0.80013  -0.80013  -0.79970  -0.79970  -0.48947
 Alpha  occ. eigenvalues --   -0.26821
 Alpha virt. eigenvalues --    0.02034   0.02034   0.02409   0.03805   0.06796
 Alpha virt. eigenvalues --    0.06796   0.08036   0.14572   0.17714   0.17840
 Alpha virt. eigenvalues --    0.17840   0.18256   0.18256   0.21931   0.22878
 Alpha virt. eigenvalues --    0.22878   0.28227   0.31578   0.31578   0.45383
 Alpha virt. eigenvalues --    0.50584   0.53638   0.53638   0.57588   0.57588
 Alpha virt. eigenvalues --    0.60013   0.68141   0.68141   0.72602   0.76495
 Alpha virt. eigenvalues --    0.76495   0.77893   0.78425   0.78425   1.07488
 Alpha virt. eigenvalues --    1.08703   1.08703   1.11974   1.11974   1.28592
 Alpha virt. eigenvalues --    1.28592   1.32137   1.40855   1.40855   1.50692
 Alpha virt. eigenvalues --    1.55182   1.55182   1.65526   1.65526   1.74614
 Alpha virt. eigenvalues --    1.76351   1.76351   1.97367   1.97367   1.97477
 Alpha virt. eigenvalues --    1.97477   2.03172   2.31389   2.48104   2.55686
 Alpha virt. eigenvalues --    2.55686   2.57680   2.57680   2.77926   2.77926
 Alpha virt. eigenvalues --    2.95468   3.11554   3.27198   3.27198   3.31528
 Alpha virt. eigenvalues --    3.31528   3.42874   3.42874   3.82786   3.82786
 Alpha virt. eigenvalues --    3.84364   3.84364   3.90741   3.90741   4.05949
 Alpha virt. eigenvalues --    4.05949   4.08353   4.10148   4.22992   4.22992
 Alpha virt. eigenvalues --    4.59089   4.59089   4.82348   5.17476   5.17476
 Alpha virt. eigenvalues --    5.27078   6.59253   6.59253   6.70457   7.07397
 Alpha virt. eigenvalues --    7.07397   7.19893   7.19893   7.33845   7.67550
 Alpha virt. eigenvalues --    7.74155   7.74155   8.39895   8.42907   8.42907
 Alpha virt. eigenvalues --    8.48838   8.48838   8.57828   8.57828   8.59064
 Alpha virt. eigenvalues --    8.59064   8.79739   8.79739   8.79837   8.79837
 Alpha virt. eigenvalues --    8.98107   8.98107   9.02046   9.42097   9.42097
 Alpha virt. eigenvalues --    9.70958  10.37290  10.51211  10.51211  10.59340
 Alpha virt. eigenvalues --   10.59340  10.64951  10.81832  10.81832  10.99637
 Alpha virt. eigenvalues --   10.99637  10.99945  10.99945  11.06527  11.06527
 Alpha virt. eigenvalues --   11.14915  11.14915  11.67196  11.67196  12.22852
 Alpha virt. eigenvalues --   13.17118  13.17118  14.33724  16.62435  16.62435
 Alpha virt. eigenvalues --   17.03219  18.22995  18.22995  18.33084  18.33084
 Alpha virt. eigenvalues --   18.97713  19.86978  19.86978  19.96588  19.96588
 Alpha virt. eigenvalues --   20.43996  20.43996  20.88268  22.58672  24.56472
 Alpha virt. eigenvalues --   24.56472  24.61702  24.61702  24.77719  24.77719
 Alpha virt. eigenvalues --   24.90698  24.90698  25.27079  27.40396  27.40396
 Alpha virt. eigenvalues --   27.40638  27.40638  27.43083  27.43083  27.66133
 Alpha virt. eigenvalues --   27.66133  28.05470  28.23198  28.23198  28.48156
 Alpha virt. eigenvalues --   33.17778  33.17778  33.63017  34.28182  34.28182
 Alpha virt. eigenvalues --   34.38876  34.38876  35.16964  44.49057  50.50391
 Alpha virt. eigenvalues --   50.50391  50.57769  50.57769  50.92036  50.92036
 Alpha virt. eigenvalues --   51.23387  54.76092  54.76092  54.80004  54.80004
 Alpha virt. eigenvalues --   54.91764  54.91764  55.00656  55.00656  55.24760
 Alpha virt. eigenvalues --   60.03415  60.03415  60.09974  60.09974  60.32874
 Alpha virt. eigenvalues --   60.56592  60.56592  60.57053  60.57053  60.58552
 Alpha virt. eigenvalues --   60.58552  60.71497  60.71497  60.98654  60.98654
 Alpha virt. eigenvalues --   61.14906  61.28887  61.28887  62.42059  84.43233
 Alpha virt. eigenvalues --  101.06481 101.06481 101.14745 101.14745 101.52012
 Alpha virt. eigenvalues --  111.01714 111.01714 112.16327 160.22822 164.03312
 Alpha virt. eigenvalues --  179.87531 179.87531 179.95158 179.95158 180.30631
 Alpha virt. eigenvalues --  203.99499 203.99499 205.19538 311.21847 373.13995
 Alpha virt. eigenvalues --  373.13995 373.20223 373.20223 373.46203 382.84174
 Alpha virt. eigenvalues --  382.84174 384.08116 615.87756 737.34264 737.34264
 Alpha virt. eigenvalues --  738.50186 914.30084 914.30084 914.34993 914.34993
 Alpha virt. eigenvalues --  914.586881241.404311469.623471469.623471470.72028
 Alpha virt. eigenvalues -- 2560.142822796.799522796.799522796.831992796.83199
 Alpha virt. eigenvalues -- 2796.989233068.709463068.709463069.720585438.65510
 Alpha virt. eigenvalues -- 6830.154196830.154196831.06178********************
 Alpha virt. eigenvalues -- **************************************************
 Alpha virt. eigenvalues -- **************************************************
 Alpha virt. eigenvalues -- **************************************************
     Molecular Orbital Coefficients:
                           6         7         8         9        10
                           O         O         O         O         O
     Eigenvalues --    -0.80013  -0.80013  -0.79970  -0.79970  -0.48947
   1 1   Zn 1S         -0.00000   0.00000   0.00000   0.00000   0.00000
   2        2S          0.00000   0.00000   0.00000   0.00000  -0.00000
   3        3S         -0.00000   0.00000   0.00000   0.00000   0.00000
   4        4S         -0.00000   0.00000   0.00000   0.00000  -0.00000
   5        5S          0.00000   0.00000   0.00000   0.00000   0.00000
   6        6S         -0.00000   0.00000   0.00000   0.00000  -0.00000
   7        7S          0.00000   0.00000   0.00000   0.00000   0.00001
   8        8S         -0.00000   0.00000   0.00000   0.00000  -0.00002
   9        9S          0.00000   0.00000   0.00000   0.00000   0.00006
  10       10S         -0.00000   0.00000   0.00000   0.00000  -0.00016
  11       11S          0.00000   0.00000   0.00000   0.00000   0.00044
  12       12S         -0.00000   0.00000   0.00000   0.00000  -0.00111
  13       13S          0.00000   0.00000   0.00000   0.00000   0.00274
  14       14S         -0.00000   0.00000   0.00000   0.00000  -0.00922
  15       15S          0.00000   0.00000   0.00000   0.00000   0.01199
  16       16S          0.00000   0.00000   0.00000   0.00000   0.09611
  17       17S         -0.00000   0.00000   0.00000   0.00000  -0.23114
  18       18S         -0.00000   0.00000   0.00000   0.00000  -0.23387
  19       19S         -0.00000   0.00000   0.00000   0.00000  -0.12709
  20       20S         -0.00000   0.00000   0.00000   0.00000   0.27643
  21       21S          0.00000   0.00000   0.00000   0.00000   0.22374
  22       22S         -0.00000   0.00000   0.00000   0.00000   0.02224
  23       23S          0.00000   0.00000   0.00000   0.00000  -0.01046
  24       24S         -0.00000   0.00000   0.00000   0.00000   0.17493
  25       25S          0.00000   0.00000   0.00000   0.00000  -0.00367
  26       26PX         0.00000   0.00000  -0.00000   0.00000   0.00000
  27       26PY         0.00000   0.00000   0.00000  -0.00000   0.00000
  28       26PZ         0.00000   0.00000   0.00000   0.00000   0.00000
  29       27PX         0.00000   0.00000   0.00000   0.00000   0.00000
  30       27PY         0.00000   0.00000   0.00000   0.00000   0.00000
  31       27PZ        -0.00000   0.00000   0.00000   0.00000  -0.00000
  32       28PX         0.00000   0.00000  -0.00000   0.00000   0.00000
  33       28PY         0.00000   0.00000   0.00000  -0.00000   0.00000
  34       28PZ         0.00000   0.00000   0.00000   0.00000   0.00000
  35       29PX         0.00000   0.00000   0.00000   0.00000   0.00000
  36       29PY         0.00000   0.00000   0.00000   0.00000   0.00000
  37       29PZ        -0.00000   0.00000   0.00000   0.00000  -0.00000
  38       30PX         0.00000   0.00000  -0.00000   0.00000   0.00000
  39       30PY         0.00000   0.00000   0.00000  -0.00000   0.00000
  40       30PZ         0.00000   0.00000   0.00000   0.00000   0.00000
  41       31PX         0.00000   0.00000   0.00000   0.00000   0.00000
  42       31PY         0.00000   0.00000   0.00000   0.00000   0.00000
  43       31PZ        -0.00000   0.00000   0.00000   0.00000  -0.00001
  44       32PX         0.00000   0.00000  -0.00000   0.00000   0.00000
  45       32PY         0.00000   0.00000   0.00000  -0.00000   0.00000
  46       32PZ         0.00000   0.00000   0.00000   0.00000   0.00003
  47       33PX         0.00000   0.00000   0.00001   0.00000   0.00000
  48       33PY         0.00000   0.00000   0.00000   0.00001   0.00000
  49       33PZ        -0.00000   0.00000   0.00000   0.00000  -0.00009
  50       34PX         0.00000   0.00000  -0.00002   0.00000   0.00000
  51       34PY         0.00000   0.00000   0.00000  -0.00002   0.00000
  52       34PZ         0.00000   0.00000   0.00000   0.00000   0.00034
  53       35PX         0.00000   0.00000   0.00006   0.00000   0.00000
  54       35PY         0.00000   0.00000   0.00000   0.00006   0.00000
  55       35PZ        -0.00000   0.00000   0.00000   0.00000  -0.00111
  56       36PX         0.00000   0.00000   0.00059   0.00000   0.00000
  57       36PY         0.00000   0.00000   0.00000   0.00059   0.00000
  58       36PZ         0.00000   0.00000   0.00000   0.00000   0.01346
  59       37PX         0.00000   0.00000   0.00037   0.00000   0.00000
  60       37PY         0.00000   0.00000   0.00000   0.00037   0.00000
  61       37PZ         0.00000   0.00000   0.00000   0.00000   0.02942
  62       38PX         0.00000   0.00000   0.00177   0.00000   0.00000
  63       38PY         0.00000   0.00000   0.00000   0.00177   0.00000
  64       38PZ         0.00000   0.00000   0.00000   0.00000   0.05724
  65       39PX         0.00000   0.00000   0.00034   0.00000   0.00000
  66       39PY         0.00000   0.00000   0.00000   0.00034   0.00000
  67       39PZ         0.00000   0.00000   0.00000   0.00000   0.05321
  68       40PX         0.00000   0.00000  -0.00004   0.00000   0.00000
  69       40PY         0.00000   0.00000   0.00000  -0.00004   0.00000
  70       40PZ         0.00000   0.00000   0.00000   0.00000   0.00739
  71       41PX         0.00000   0.00000  -0.00177   0.00000   0.00000
  72       41PY         0.00000   0.00000   0.00000  -0.00177   0.00000
  73       41PZ        -0.00000   0.00000   0.00000   0.00000  -0.09270
  74       42PX         0.00000   0.00000   0.00007   0.00000   0.00000
  75       42PY         0.00000   0.00000   0.00000   0.00007   0.00000
  76       42PZ        -0.00000   0.00000   0.00000   0.00000  -0.08703
  77       43PX         0.00000   0.00000   0.00070   0.00000   0.00000
  78       43PY         0.00000   0.00000   0.00000   0.00070   0.00000
  79       43PZ        -0.00000   0.00000   0.00000   0.00000  -0.00704
  80       44PX         0.00000   0.00000  -0.00061   0.00000   0.00000
  81       44PY         0.00000   0.00000   0.00000  -0.00061   0.00000
  82       44PZ        -0.00000   0.00000   0.00000   0.00000  -0.01577
  83       45PX         0.00000   0.00000  -0.00119   0.00000   0.00000
  84       45PY         0.00000   0.00000   0.00000  -0.00119   0.00000
  85       45PZ        -0.00000   0.00000   0.00000   0.00000  -0.00577
  86       46PX         0.00000   0.00000  -0.00012   0.00000   0.00000
  87       46PY         0.00000   0.00000   0.00000  -0.00012   0.00000
  88       46PZ        -0.00000   0.00000   0.00000   0.00000  -0.00044
  89       47D 0       -0.00000   0.00000   0.00000   0.00000   0.00000
  90       47D+1        0.00000   0.00000  -0.00000   0.00000   0.00000
  91       47D-1        0.00000   0.00000   0.00000  -0.00000   0.00000
  92       47D+2       -0.00000   0.00000   0.00000   0.00000   0.00000
  93       47D-2        0.00000  -0.00000   0.00000   0.00000   0.00000
  94       48D 0        0.00000   0.00000   0.00000   0.00000  -0.00000
  95       48D+1        0.00000   0.00000   0.00001   0.00000   0.00000
  96       48D-1        0.00000   0.00000   0.00000   0.00001   0.00000
  97       48D+2        0.00001   0.00000   0.00000   0.00000  -0.00000
  98       48D-2        0.00000   0.00001   0.00000   0.00000   0.00000
  99       49D 0       -0.00000   0.00000   0.00000   0.00000   0.00002
 100       49D+1        0.00000   0.00000  -0.00010   0.00000   0.00000
 101       49D-1        0.00000   0.00000   0.00000  -0.00010   0.00000
 102       49D+2       -0.00010   0.00000   0.00000   0.00000   0.00000
 103       49D-2        0.00000  -0.00010   0.00000   0.00000   0.00000
 104       50D 0        0.00000   0.00000   0.00000   0.00000  -0.00064
 105       50D+1        0.00000   0.00000   0.00238   0.00000   0.00000
 106       50D-1        0.00000   0.00000   0.00000   0.00238   0.00000
 107       50D+2        0.00237   0.00000   0.00000   0.00000  -0.00000
 108       50D-2        0.00000   0.00237   0.00000   0.00000   0.00000
 109       51D 0        0.00000   0.00000   0.00000   0.00000  -0.02078
 110       51D+1        0.00000   0.00000   0.07297   0.00000   0.00000
 111       51D-1        0.00000   0.00000   0.00000   0.07297   0.00000
 112       51D+2        0.07329   0.00000   0.00000   0.00000  -0.00000
 113       51D-2        0.00000   0.07329   0.00000   0.00000   0.00000
 114       52D 0        0.00000   0.00000   0.00000   0.00000  -0.04585
 115       52D+1        0.00000   0.00000   0.14831   0.00000   0.00000
 116       52D-1        0.00000   0.00000   0.00000   0.14831   0.00000
 117       52D+2        0.15031   0.00000   0.00000   0.00000   0.00000
 118       52D-2        0.00000   0.15031   0.00000   0.00000   0.00000
 119       53D 0        0.00000   0.00000   0.00000   0.00000  -0.07837
 120       53D+1        0.00000   0.00000   0.26941   0.00000   0.00000
 121       53D-1        0.00000   0.00000   0.00000   0.26941   0.00000
 122       53D+2        0.27103   0.00000   0.00000   0.00000  -0.00000
 123       53D-2        0.00000   0.27103   0.00000   0.00000   0.00000
 124       54D 0        0.00000   0.00000   0.00000   0.00000  -0.08304
 125       54D+1        0.00000   0.00000   0.30008   0.00000   0.00000
 126       54D-1        0.00000   0.00000   0.00000   0.30008   0.00000
 127       54D+2        0.30059   0.00000   0.00000   0.00000  -0.00000
 128       54D-2        0.00000   0.30059   0.00000   0.00000   0.00000
 129       55D 0        0.00000   0.00000   0.00000   0.00000  -0.06631
 130       55D+1        0.00000   0.00000   0.24291   0.00000   0.00000
 131       55D-1        0.00000   0.00000   0.00000   0.24291   0.00000
 132       55D+2        0.24369   0.00000   0.00000   0.00000  -0.00000
 133       55D-2        0.00000   0.24369   0.00000   0.00000   0.00000
 134       56D 0        0.00000   0.00000   0.00000   0.00000  -0.03129
 135       56D+1        0.00000   0.00000   0.13810   0.00000   0.00000
 136       56D-1        0.00000   0.00000   0.00000   0.13810   0.00000
 137       56D+2        0.13949   0.00000   0.00000   0.00000  -0.00000
 138       56D-2        0.00000   0.13949   0.00000   0.00000   0.00000
 139       57D 0        0.00000   0.00000   0.00000   0.00000  -0.00181
 140       57D+1        0.00000   0.00000   0.03540   0.00000   0.00000
 141       57D-1        0.00000   0.00000   0.00000   0.03540   0.00000
 142       57D+2        0.03451   0.00000   0.00000   0.00000   0.00000
 143       57D-2        0.00000   0.03451   0.00000   0.00000   0.00000
 144       58D 0        0.00000   0.00000   0.00000   0.00000  -0.02081
 145       58D+1        0.00000   0.00000   0.08307   0.00000   0.00000
 146       58D-1        0.00000   0.00000   0.00000   0.08307   0.00000
 147       58D+2        0.08242   0.00000   0.00000   0.00000  -0.00000
 148       58D-2        0.00000   0.08242   0.00000   0.00000   0.00000
 149       59D 0        0.00000   0.00000   0.00000   0.00000  -0.00527
 150       59D+1        0.00000   0.00000   0.03391   0.00000   0.00000
 151       59D-1        0.00000   0.00000   0.00000   0.03391   0.00000
 152       59D+2        0.03264   0.00000   0.00000   0.00000  -0.00000
 153       59D-2        0.00000   0.03264   0.00000   0.00000   0.00000
 154       60D 0        0.00000   0.00000   0.00000   0.00000   0.00462
 155       60D+1        0.00000   0.00000   0.00050   0.00000   0.00000
 156       60D-1        0.00000   0.00000   0.00000   0.00050   0.00000
 157       60D+2        0.00029   0.00000   0.00000   0.00000  -0.00000
 158       60D-2        0.00000   0.00029   0.00000   0.00000   0.00000
 159       61F 0       -0.00000   0.00000   0.00000   0.00000  -0.00015
 160       61F+1        0.00000   0.00000   0.00005   0.00000   0.00000
 161       61F-1        0.00000   0.00000   0.00000   0.00005   0.00000
 162       61F+2        0.00006   0.00000   0.00000   0.00000   0.00000
 163       61F-2        0.00000   0.00006   0.00000   0.00000   0.00000
 164       61F+3        0.00000   0.00000   0.00000   0.00000   0.00000
 165       61F-3        0.00000   0.00000   0.00000   0.00000   0.00000
 166       62F 0        0.00000   0.00000   0.00000   0.00000  -0.00040
 167       62F+1        0.00000   0.00000   0.00017   0.00000   0.00000
 168       62F-1        0.00000   0.00000   0.00000   0.00017   0.00000
 169       62F+2        0.00014   0.00000   0.00000   0.00000  -0.00000
 170       62F-2        0.00000   0.00014   0.00000   0.00000   0.00000
 171       62F+3        0.00000   0.00000   0.00000   0.00000   0.00000
 172       62F-3        0.00000   0.00000   0.00000   0.00000   0.00000
 173       63F 0       -0.00000   0.00000   0.00000   0.00000  -0.00123
 174       63F+1        0.00000   0.00000   0.00018   0.00000   0.00000
 175       63F-1        0.00000   0.00000   0.00000   0.00018   0.00000
 176       63F+2        0.00031   0.00000   0.00000   0.00000   0.00000
 177       63F-2        0.00000   0.00031   0.00000   0.00000   0.00000
 178       63F+3        0.00000   0.00000  -0.00000   0.00000   0.00000
 179       63F-3        0.00000   0.00000   0.00000   0.00000   0.00000
 180       64F 0       -0.00000   0.00000   0.00000   0.00000  -0.00374
 181       64F+1        0.00000   0.00000  -0.00005   0.00000   0.00000
 182       64F-1        0.00000   0.00000   0.00000  -0.00005   0.00000
 183       64F+2        0.00062   0.00000   0.00000   0.00000  -0.00000
 184       64F-2        0.00000   0.00062   0.00000   0.00000   0.00000
 185       64F+3        0.00000   0.00000  -0.00000   0.00000   0.00000
 186       64F-3        0.00000   0.00000   0.00000   0.00000   0.00000
 187       65F 0       -0.00000   0.00000   0.00000   0.00000  -0.00405
 188       65F+1        0.00000   0.00000  -0.00054   0.00000   0.00000
 189       65F-1        0.00000   0.00000   0.00000  -0.00054   0.00000
 190       65F+2       -0.00035   0.00000   0.00000   0.00000   0.00000
 191       65F-2        0.00000  -0.00035   0.00000   0.00000   0.00000
 192       65F+3        0.00000   0.00000  -0.00000   0.00000   0.00000
 193       65F-3        0.00000   0.00000   0.00000  -0.00000   0.00000
 194       66G 0       -0.00000   0.00000   0.00000   0.00000   0.00004
 195       66G+1        0.00000   0.00000  -0.00002   0.00000   0.00000
 196       66G-1        0.00000   0.00000   0.00000  -0.00002   0.00000
 197       66G+2       -0.00002   0.00000   0.00000   0.00000   0.00000
 198       66G-2        0.00000  -0.00002   0.00000   0.00000   0.00000
 199       66G+3        0.00000   0.00000   0.00000   0.00000   0.00000
 200       66G-3        0.00000   0.00000   0.00000   0.00000   0.00000
 201       66G+4        0.00000   0.00000   0.00000   0.00000   0.00000
 202       66G-4        0.00000   0.00000   0.00000   0.00000   0.00000
 203       67G 0       -0.00000   0.00000   0.00000   0.00000   0.00003
 204       67G+1        0.00000   0.00000  -0.00012   0.00000   0.00000
 205       67G-1        0.00000   0.00000   0.00000  -0.00012   0.00000
 206       67G+2       -0.00006   0.00000   0.00000   0.00000  -0.00000
 207       67G-2        0.00000  -0.00006   0.00000   0.00000   0.00000
 208       67G+3        0.00000   0.00000   0.00000   0.00000   0.00000
 209       67G-3        0.00000   0.00000   0.00000   0.00000   0.00000
 210       67G+4        0.00000   0.00000   0.00000   0.00000  -0.00000
 211       67G-4        0.00000   0.00000   0.00000   0.00000   0.00000
 212       68G 0        0.00000   0.00000   0.00000   0.00000   0.00027
 213       68G+1        0.00000   0.00000   0.00026   0.00000   0.00000
 214       68G-1        0.00000   0.00000   0.00000   0.00026   0.00000
 215       68G+2        0.00007   0.00000   0.00000   0.00000   0.00000
 216       68G-2        0.00000   0.00007   0.00000   0.00000   0.00000
 217       68G+3        0.00000   0.00000   0.00000   0.00000   0.00000
 218       68G-3        0.00000   0.00000   0.00000   0.00000   0.00000
 219       68G+4        0.00000   0.00000   0.00000   0.00000   0.00000
 220       68G-4        0.00000   0.00000   0.00000   0.00000   0.00000
 221       69G 0       -0.00000   0.00000   0.00000   0.00000   0.00057
 222       69G+1        0.00000   0.00000  -0.00047   0.00000   0.00000
 223       69G-1        0.00000   0.00000   0.00000  -0.00047   0.00000
 224       69G+2       -0.00047   0.00000   0.00000   0.00000  -0.00000
 225       69G-2        0.00000  -0.00047   0.00000   0.00000   0.00000
 226       69G+3        0.00000   0.00000  -0.00000   0.00000   0.00000
 227       69G-3        0.00000   0.00000   0.00000  -0.00000   0.00000
 228       69G+4        0.00000   0.00000   0.00000   0.00000  -0.00000
 229       69G-4        0.00000  -0.00000   0.00000   0.00000   0.00000
 230       70H 0       -0.00000   0.00000   0.00000   0.00000  -0.00000
 231       70H+1        0.00000   0.00000  -0.00002   0.00000   0.00000
 232       70H-1        0.00000   0.00000   0.00000  -0.00002   0.00000
 233       70H+2       -0.00001   0.00000   0.00000   0.00000  -0.00000
 234       70H-2        0.00000  -0.00001   0.00000   0.00000   0.00000
 235       70H+3        0.00000   0.00000  -0.00000   0.00000   0.00000
 236       70H-3        0.00000   0.00000   0.00000  -0.00000   0.00000
 237       70H+4        0.00000   0.00000   0.00000   0.00000   0.00000
 238       70H-4        0.00000   0.00000   0.00000   0.00000   0.00000
 239       70H+5        0.00000   0.00000  -0.00000   0.00000   0.00000
 240       70H-5        0.00000   0.00000   0.00000  -0.00000   0.00000
 241       71H 0        0.00000   0.00000   0.00000   0.00000   0.00000
 242       71H+1        0.00000   0.00000   0.00007   0.00000   0.00000
 243       71H-1        0.00000   0.00000   0.00000   0.00007   0.00000
 244       71H+2        0.00004   0.00000   0.00000   0.00000   0.00000
 245       71H-2        0.00000   0.00004   0.00000   0.00000   0.00000
 246       71H+3        0.00000   0.00000   0.00000   0.00000   0.00000
 247       71H-3        0.00000   0.00000   0.00000   0.00000   0.00000
 248       71H+4       -0.00000   0.00000   0.00000   0.00000  -0.00000
 249       71H-4        0.00000  -0.00000   0.00000   0.00000   0.00000
 250       71H+5        0.00000   0.00000   0.00000   0.00000   0.00000
 251       71H-5        0.00000   0.00000   0.00000   0.00000   0.00000
 252       72H 0       -0.00000   0.00000   0.00000   0.00000  -0.00006
 253       72H+1        0.00000   0.00000  -0.00032   0.00000   0.00000
 254       72H-1        0.00000   0.00000   0.00000  -0.00032   0.00000
 255       72H+2       -0.00015   0.00000   0.00000   0.00000  -0.00000
 256       72H-2        0.00000  -0.00015   0.00000   0.00000   0.00000
 257       72H+3        0.00000   0.00000  -0.00000   0.00000   0.00000
 258       72H-3        0.00000   0.00000   0.00000  -0.00000   0.00000
 259       72H+4        0.00000   0.00000   0.00000   0.00000   0.00000
 260       72H-4        0.00000   0.00000   0.00000   0.00000   0.00000
 261       72H+5        0.00000   0.00000  -0.00000   0.00000   0.00000
 262       72H-5        0.00000   0.00000   0.00000  -0.00000   0.00000
 263 2   H  1S          0.00000   0.00000   0.00000   0.00000   0.00033
 264        2S          0.00000   0.00000   0.00000   0.00000   0.01215
 265        3S          0.00000   0.00000   0.00000   0.00000   0.05390
 266        4S          0.00000   0.00000   0.00000   0.00000   0.17232
 267        5S          0.00000   0.00000   0.00000   0.00000   0.28629
 268        6S          0.00000   0.00000   0.00000   0.00000   0.14165
 269        7S          0.00000   0.00000   0.00000   0.00000   0.00673
 270        8PX         0.00000   0.00000  -0.00206   0.00000   0.00000
 271        8PY         0.00000   0.00000   0.00000  -0.00206   0.00000
 272        8PZ         0.00000   0.00000   0.00000   0.00000   0.00117
 273        9PX         0.00000   0.00000  -0.00531   0.00000   0.00000
 274        9PY         0.00000   0.00000   0.00000  -0.00531   0.00000
 275        9PZ         0.00000   0.00000   0.00000   0.00000   0.01138
 276       10PX         0.00000   0.00000  -0.00523   0.00000   0.00000
 277       10PY         0.00000   0.00000   0.00000  -0.00523   0.00000
 278       10PZ         0.00000   0.00000   0.00000   0.00000   0.01621
 279       11PX         0.00000   0.00000  -0.00175   0.00000   0.00000
 280       11PY         0.00000   0.00000   0.00000  -0.00175   0.00000
 281       11PZ         0.00000   0.00000   0.00000   0.00000   0.00095
 282       12D 0        0.00000   0.00000   0.00000   0.00000   0.00017
 283       12D+1        0.00000   0.00000  -0.00126   0.00000   0.00000
 284       12D-1        0.00000   0.00000   0.00000  -0.00126   0.00000
 285       12D+2        0.00030   0.00000   0.00000   0.00000   0.00000
 286       12D-2        0.00000   0.00030   0.00000   0.00000   0.00000
 287       13D 0        0.00000   0.00000   0.00000   0.00000   0.00292
 288       13D+1        0.00000   0.00000  -0.00187   0.00000   0.00000
 289       13D-1        0.00000   0.00000   0.00000  -0.00187   0.00000
 290       13D+2        0.00047   0.00000   0.00000   0.00000   0.00000
 291       13D-2        0.00000   0.00047   0.00000   0.00000   0.00000
 292       14D 0        0.00000   0.00000   0.00000   0.00000   0.00179
 293       14D+1        0.00000   0.00000  -0.00108   0.00000   0.00000
 294       14D-1        0.00000   0.00000   0.00000  -0.00108   0.00000
 295       14D+2       -0.00061   0.00000   0.00000   0.00000   0.00000
 296       14D-2        0.00000  -0.00061   0.00000   0.00000   0.00000
 297       15F 0        0.00000   0.00000   0.00000   0.00000  -0.00003
 298       15F+1        0.00000   0.00000  -0.00070   0.00000   0.00000
 299       15F-1        0.00000   0.00000   0.00000  -0.00070   0.00000
 300       15F+2        0.00036   0.00000   0.00000   0.00000   0.00000
 301       15F-2        0.00000   0.00036   0.00000   0.00000   0.00000
 302       15F+3        0.00000   0.00000   0.00000   0.00000   0.00000
 303       15F-3        0.00000   0.00000   0.00000   0.00000   0.00000
 304       16F 0       -0.00000   0.00000   0.00000   0.00000   0.00148
 305       16F+1        0.00000   0.00000  -0.00035   0.00000   0.00000
 306       16F-1        0.00000   0.00000   0.00000  -0.00035   0.00000
 307       16F+2       -0.00041   0.00000   0.00000   0.00000   0.00000
 308       16F-2        0.00000  -0.00041   0.00000   0.00000   0.00000
 309       16F+3        0.00000   0.00000   0.00000   0.00000   0.00000
 310       16F-3        0.00000   0.00000   0.00000   0.00000   0.00000
                          11        12        13        14        15
                           O         V         V         V         V
     Eigenvalues --    -0.26821   0.02034   0.02034   0.02409   0.03805
   1 1   Zn 1S          0.00000   0.00000   0.00000   0.00000  -0.00000
   2        2S         -0.00000   0.00000   0.00000  -0.00000   0.00000
   3        3S          0.00000   0.00000   0.00000   0.00000  -0.00000
[...]
  92       47D+2       -0.00000  -0.00000  -0.00000   0.00000
  93       47D-2       -0.00000  -0.00000  -0.00000   0.00000
  94       48D 0        0.00000   0.00000   0.00000   0.00000
  95       48D+1        0.00000   0.00000   0.00000   0.00000
  96       48D-1        0.00000   0.00000   0.00000   0.00000
  97       48D+2        0.00000   0.00000   0.00000   0.00000
  98       48D-2        0.00000   0.00000   0.00000   0.00000
  99       49D 0       -0.00002  -0.00001  -0.00001  -0.00000
 100       49D+1       -0.00002  -0.00001  -0.00001   0.00000
 101       49D-1       -0.00002  -0.00001  -0.00001   0.00000
 102       49D+2       -0.00002  -0.00001  -0.00001   0.00000
 103       49D-2       -0.00002  -0.00001  -0.00001   0.00000
 104       50D 0        0.00112   0.00056   0.00056   0.00001
 105       50D+1        0.00115   0.00057   0.00057   0.00000
 106       50D-1        0.00115   0.00057   0.00057   0.00000
 107       50D+2        0.00115   0.00057   0.00057   0.00000
 108       50D-2        0.00115   0.00057   0.00057   0.00000
 109       51D 0        0.06727   0.03382   0.03345   0.00036
 110       51D+1        0.06986   0.03493   0.03493   0.00000
 111       51D-1        0.06986   0.03493   0.03493   0.00000
 112       51D+2        0.07037   0.03519   0.03519  -0.00000
 113       51D-2        0.07037   0.03519   0.03519   0.00000
 114       52D 0        0.20239   0.10179   0.10059   0.00120
 115       52D+1        0.21366   0.10683   0.10683   0.00000
 116       52D-1        0.21366   0.10683   0.10683   0.00000
 117       52D+2        0.21714   0.10857   0.10857   0.00000
 118       52D-2        0.21714   0.10857   0.10857   0.00000
 119       53D 0        0.45395   0.22819   0.22576   0.00243
 120       53D+1        0.47265   0.23632   0.23632   0.00000
 121       53D-1        0.47265   0.23632   0.23632   0.00000
 122       53D+2        0.47660   0.23830   0.23830   0.00000
 123       53D-2        0.47660   0.23830   0.23830   0.00000
 124       54D 0        0.52507   0.26368   0.26139   0.00229
 125       54D+1        0.53669   0.26835   0.26835   0.00000
 126       54D-1        0.53669   0.26835   0.26835   0.00000
 127       54D+2        0.53818   0.26909   0.26909  -0.00000
 128       54D-2        0.53818   0.26909   0.26909   0.00000
 129       55D 0        0.36642   0.18369   0.18273   0.00096
 130       55D+1        0.37055   0.18528   0.18528   0.00000
 131       55D-1        0.37055   0.18528   0.18528   0.00000
 132       55D+2        0.37086   0.18543   0.18543   0.00000
 133       55D-2        0.37086   0.18543   0.18543   0.00000
 134       56D 0        0.14973   0.07463   0.07511  -0.00048
 135       56D+1        0.14559   0.07279   0.07279   0.00000
 136       56D-1        0.14559   0.07279   0.07279   0.00000
 137       56D+2        0.14560   0.07280   0.07280   0.00000
 138       56D-2        0.14560   0.07280   0.07280   0.00000
 139       57D 0        0.02109   0.00967   0.01143  -0.00176
 140       57D+1        0.01923   0.00962   0.00962   0.00000
 141       57D-1        0.01923   0.00962   0.00962   0.00000
 142       57D+2        0.01832   0.00916   0.00916   0.00000
 143       57D-2        0.01832   0.00916   0.00916   0.00000
 144       58D 0        0.10738   0.05394   0.05344   0.00050
 145       58D+1        0.10907   0.05454   0.05454   0.00000
 146       58D-1        0.10907   0.05454   0.05454   0.00000
 147       58D+2        0.10853   0.05426   0.05426  -0.00000
 148       58D-2        0.10853   0.05426   0.05426   0.00000
 149       59D 0        0.05823   0.02919   0.02904   0.00015
 150       59D+1        0.05537   0.02769   0.02769   0.00000
 151       59D-1        0.05537   0.02769   0.02769   0.00000
 152       59D+2        0.05344   0.02672   0.02672   0.00000
 153       59D-2        0.05344   0.02672   0.02672   0.00000
 154       60D 0        0.00053  -0.00016   0.00069  -0.00085
 155       60D+1        0.00011   0.00005   0.00005   0.00000
 156       60D-1        0.00011   0.00005   0.00005   0.00000
 157       60D+2        0.00006   0.00003   0.00003  -0.00000
 158       60D-2        0.00006   0.00003   0.00003   0.00000
 159       61F 0        0.00000   0.00000   0.00000   0.00000
 160       61F+1        0.00000   0.00000   0.00000   0.00000
 161       61F-1        0.00000   0.00000   0.00000   0.00000
 162       61F+2        0.00000   0.00000   0.00000  -0.00000
 163       61F-2        0.00000   0.00000   0.00000   0.00000
 164       61F+3        0.00000   0.00000   0.00000   0.00000
 165       61F-3        0.00000   0.00000   0.00000   0.00000
 166       62F 0        0.00000   0.00000   0.00000   0.00000
 167       62F+1        0.00000   0.00000   0.00000   0.00000
 168       62F-1        0.00000   0.00000   0.00000   0.00000
 169       62F+2        0.00000   0.00000   0.00000  -0.00000
 170       62F-2        0.00000   0.00000   0.00000   0.00000
 171       62F+3        0.00000   0.00000   0.00000   0.00000
 172       62F-3        0.00000   0.00000   0.00000   0.00000
 173       63F 0        0.00006   0.00004   0.00003   0.00001
 174       63F+1       -0.00000  -0.00000  -0.00000   0.00000
 175       63F-1       -0.00000  -0.00000  -0.00000   0.00000
 176       63F+2        0.00000   0.00000   0.00000   0.00000
 177       63F-2        0.00000   0.00000   0.00000   0.00000
 178       63F+3        0.00000   0.00000   0.00000   0.00000
 179       63F-3        0.00000   0.00000   0.00000   0.00000
 180       64F 0        0.00085   0.00046   0.00039   0.00007
 181       64F+1        0.00000   0.00000   0.00000   0.00000
 182       64F-1        0.00000   0.00000   0.00000   0.00000
 183       64F+2        0.00000   0.00000   0.00000  -0.00000
 184       64F-2        0.00000   0.00000   0.00000   0.00000
 185       64F+3        0.00000   0.00000   0.00000   0.00000
 186       64F-3        0.00000   0.00000   0.00000   0.00000
 187       65F 0        0.00163   0.00091   0.00072   0.00019
 188       65F+1        0.00001   0.00000   0.00000   0.00000
 189       65F-1        0.00001   0.00000   0.00000   0.00000
 190       65F+2       -0.00000  -0.00000  -0.00000   0.00000
 191       65F-2       -0.00000  -0.00000  -0.00000   0.00000
 192       65F+3        0.00000   0.00000   0.00000   0.00000
 193       65F-3        0.00000   0.00000   0.00000   0.00000
 194       66G 0        0.00000   0.00000   0.00000   0.00000
 195       66G+1        0.00000   0.00000   0.00000   0.00000
 196       66G-1        0.00000   0.00000   0.00000   0.00000
 197       66G+2        0.00000   0.00000   0.00000  -0.00000
 198       66G-2        0.00000   0.00000   0.00000   0.00000
 199       66G+3        0.00000   0.00000   0.00000   0.00000
 200       66G-3       -0.00000  -0.00000  -0.00000   0.00000
 201       66G+4        0.00000   0.00000   0.00000   0.00000
 202       66G-4        0.00000   0.00000   0.00000   0.00000
 203       67G 0       -0.00000  -0.00000  -0.00000   0.00000
 204       67G+1       -0.00000  -0.00000  -0.00000   0.00000
 205       67G-1       -0.00000  -0.00000  -0.00000   0.00000
 206       67G+2        0.00000   0.00000   0.00000   0.00000
 207       67G-2        0.00000   0.00000   0.00000   0.00000
 208       67G+3       -0.00000  -0.00000  -0.00000   0.00000
 209       67G-3        0.00000   0.00000   0.00000   0.00000
 210       67G+4       -0.00000  -0.00000  -0.00000  -0.00000
 211       67G-4        0.00000   0.00000   0.00000   0.00000
 212       68G 0        0.00002   0.00001   0.00001   0.00000
 213       68G+1        0.00000   0.00000   0.00000   0.00000
 214       68G-1        0.00000   0.00000   0.00000   0.00000
 215       68G+2       -0.00000  -0.00000  -0.00000  -0.00000
 216       68G-2       -0.00000  -0.00000  -0.00000   0.00000
 217       68G+3        0.00000   0.00000   0.00000   0.00000
 218       68G-3       -0.00000  -0.00000  -0.00000   0.00000
 219       68G+4        0.00000   0.00000   0.00000   0.00000
 220       68G-4        0.00000   0.00000   0.00000   0.00000
 221       69G 0        0.00003   0.00001   0.00002  -0.00001
 222       69G+1       -0.00000  -0.00000  -0.00000   0.00000
 223       69G-1       -0.00000  -0.00000  -0.00000   0.00000
 224       69G+2        0.00000   0.00000   0.00000  -0.00000
 225       69G-2        0.00000   0.00000   0.00000   0.00000
 226       69G+3        0.00000   0.00000   0.00000   0.00000
 227       69G-3       -0.00000  -0.00000  -0.00000   0.00000
 228       69G+4       -0.00000  -0.00000  -0.00000  -0.00000
 229       69G-4       -0.00000  -0.00000  -0.00000   0.00000
 230       70H 0        0.00000   0.00000   0.00000  -0.00000
 231       70H+1        0.00000   0.00000   0.00000   0.00000
 232       70H-1        0.00000   0.00000   0.00000   0.00000
 233       70H+2        0.00000   0.00000   0.00000   0.00000
 234       70H-2        0.00000   0.00000   0.00000   0.00000
 235       70H+3       -0.00000  -0.00000  -0.00000   0.00000
 236       70H-3        0.00000   0.00000   0.00000   0.00000
 237       70H+4       -0.00000  -0.00000  -0.00000  -0.00000
 238       70H-4        0.00000   0.00000   0.00000   0.00000
 239       70H+5        0.00000   0.00000   0.00000   0.00000
 240       70H-5       -0.00000  -0.00000  -0.00000   0.00000
 241       71H 0       -0.00000  -0.00000  -0.00000   0.00000
 242       71H+1       -0.00000  -0.00000  -0.00000   0.00000
 243       71H-1       -0.00000  -0.00000  -0.00000   0.00000
 244       71H+2       -0.00000  -0.00000  -0.00000  -0.00000
 245       71H-2       -0.00000  -0.00000  -0.00000   0.00000
 246       71H+3       -0.00000  -0.00000  -0.00000   0.00000
 247       71H-3       -0.00000  -0.00000  -0.00000   0.00000
 248       71H+4        0.00000   0.00000   0.00000   0.00000
 249       71H-4       -0.00000  -0.00000  -0.00000   0.00000
 250       71H+5       -0.00000  -0.00000  -0.00000   0.00000
 251       71H-5       -0.00000  -0.00000  -0.00000   0.00000
 252       72H 0        0.00001   0.00000   0.00000  -0.00000
 253       72H+1        0.00000   0.00000   0.00000   0.00000
 254       72H-1        0.00000   0.00000   0.00000   0.00000
 255       72H+2        0.00000   0.00000   0.00000   0.00000
 256       72H-2        0.00000   0.00000   0.00000   0.00000
 257       72H+3       -0.00000  -0.00000  -0.00000   0.00000
 258       72H-3        0.00000   0.00000   0.00000   0.00000
 259       72H+4       -0.00000  -0.00000  -0.00000  -0.00000
 260       72H-4        0.00000   0.00000   0.00000   0.00000
 261       72H+5       -0.00000  -0.00000  -0.00000   0.00000
 262       72H-5        0.00000   0.00000   0.00000   0.00000
 263 2   H  1S          0.00005   0.00003   0.00002   0.00000
 264        2S          0.00636   0.00338   0.00299   0.00039
 265        3S          0.06375   0.03376   0.03000   0.00376
 266        4S          0.32080   0.16948   0.15131   0.01817
 267        5S          0.58791   0.31169   0.27622   0.03547
 268        6S          0.23605   0.11502   0.12103  -0.00601
 269        7S          0.00898   0.00533   0.00365   0.00168
 270        8PX         0.00028   0.00014   0.00014   0.00000
 271        8PY         0.00028   0.00014   0.00014   0.00000
 272        8PZ         0.00126   0.00064   0.00062   0.00001
 273        9PX         0.00191   0.00095   0.00095   0.00000
 274        9PY         0.00191   0.00095   0.00095   0.00000
 275        9PZ         0.00682   0.00326   0.00356  -0.00030
 276       10PX         0.00205   0.00103   0.00103   0.00000
 277       10PY         0.00205   0.00103   0.00103   0.00000
 278       10PZ         0.00572   0.00178   0.00394  -0.00216
 279       11PX         0.00028   0.00014   0.00014   0.00000
 280       11PY         0.00028   0.00014   0.00014   0.00000
 281       11PZ         0.00412   0.00376   0.00035   0.00341
 282       12D 0        0.00052   0.00026   0.00026  -0.00000
 283       12D+1        0.00023   0.00011   0.00011   0.00000
 284       12D-1        0.00023   0.00011   0.00011   0.00000
 285       12D+2        0.00001   0.00001   0.00001   0.00000
 286       12D-2        0.00001   0.00001   0.00001   0.00000
 287       13D 0        0.00257   0.00122   0.00135  -0.00014
 288       13D+1        0.00107   0.00053   0.00053   0.00000
 289       13D-1        0.00107   0.00053   0.00053   0.00000
 290       13D+2        0.00009   0.00005   0.00005   0.00000
 291       13D-2        0.00009   0.00005   0.00005   0.00000
 292       14D 0        0.00268   0.00151   0.00117   0.00035
 293       14D+1        0.00005   0.00003   0.00003   0.00000
 294       14D-1        0.00005   0.00003   0.00003   0.00000
 295       14D+2       -0.00018  -0.00009  -0.00009  -0.00000
 296       14D-2       -0.00018  -0.00009  -0.00009   0.00000
 297       15F 0        0.00054   0.00027   0.00027  -0.00001
 298       15F+1        0.00025   0.00013   0.00013   0.00000
 299       15F-1        0.00025   0.00013   0.00013   0.00000
 300       15F+2        0.00005   0.00002   0.00002  -0.00000
 301       15F-2        0.00005   0.00002   0.00002   0.00000
 302       15F+3       -0.00000  -0.00000  -0.00000   0.00000
 303       15F-3        0.00000   0.00000   0.00000   0.00000
 304       16F 0        0.00096   0.00048   0.00048  -0.00000
 305       16F+1        0.00014   0.00007   0.00007   0.00000
 306       16F-1        0.00014   0.00007   0.00007   0.00000
 307       16F+2       -0.00021  -0.00010  -0.00010   0.00000
 308       16F-2       -0.00021  -0.00010  -0.00010   0.00000
 309       16F+3       -0.00000  -0.00000  -0.00000   0.00000
 310       16F-3       -0.00000  -0.00000  -0.00000   0.00000
          Condensed to atoms (all electrons):
               1          2
     1  Zn  19.387319   0.351551
     2  H    0.351551   0.909578
          Atomic-Atomic Spin Densities.
               1          2
     1  Zn   1.028990  -0.083613
     2  H   -0.083613   0.138236
 Mulliken charges and spin densities:
               1          2
     1  Zn   0.261130   0.945377
     2  H   -0.261130   0.054623
 Sum of Mulliken charges =  -0.00000   1.00000
 Mulliken charges and spin densities with hydrogens summed into heavy atoms:
               1          2
     1  Zn  -0.000000   1.000000
 Electronic spatial extent (au):  <R**2>=             41.2193
 Charge=             -0.0000 electrons
 Dipole moment (field-independent basis, Debye):
    X=              0.0000    Y=              0.0000    Z=             -0.2492  Tot=              0.2492
 Quadrupole moment (field-independent basis, Debye-Ang):
   XX=            -14.2685   YY=            -14.2685   ZZ=            -20.2828
   XY=              0.0000   XZ=              0.0000   YZ=              0.0000
 Traceless Quadrupole moment (field-independent basis, Debye-Ang):
   XX=              2.0048   YY=              2.0048   ZZ=             -4.0095
   XY=              0.0000   XZ=              0.0000   YZ=              0.0000
 Octapole moment (field-independent basis, Debye-Ang**2):
  XXX=              0.0000  YYY=              0.0000  ZZZ=             -2.6092  XYY=              0.0000
  XXY=              0.0000  XXZ=             -1.0630  XZZ=              0.0000  YZZ=              0.0000
  YYZ=             -1.0630  XYZ=              0.0000
 Hexadecapole moment (field-independent basis, Debye-Ang**3):
 XXXX=            -19.7160 YYYY=            -19.7160 ZZZZ=            -56.6160 XXXY=              0.0000
 XXXZ=              0.0000 YYYX=              0.0000 YYYZ=              0.0000 ZZZX=              0.0000
 ZZZY=              0.0000 XXYY=             -6.5720 XXZZ=            -12.4530 YYZZ=            -12.4530
 XXYZ=              0.0000 YYXZ=              0.0000 ZZXY=              0.0000
 N-N= 8.819620182000D+00 E-N=-5.725719861500D+02  KE= 1.456043558285D+02
 Symmetry A1   KE= 5.991607187377D+01
 Symmetry A2   KE= 2.080151280252D+01
 Symmetry B1   KE= 3.244338557615D+01
 Symmetry B2   KE= 3.244338557585D+01
 Symmetry A1   SP= 1.000000000000D+00
 Symmetry A2   SP= 0.000000000000D+00
 Symmetry B1   SP= 0.000000000000D+00
 Symmetry B2   SP= 0.000000000000D+00
 Orbital energies and kinetic energies (alpha):
                                 1                 2
   6         O                -0.800129         10.400756
   7         O                -0.800129         10.400756
   8         O                -0.799702         10.345840
   9         O                -0.799702         10.345840
  10         O                -0.489465          1.420225
  11         O                -0.268211          0.582180
  12         V                 0.020340          0.062827
  13         V                 0.020340          0.062827
  14         V                 0.024086          0.036654
  15         V                 0.038047          0.055801
  16         V                 0.067960          0.208095
 Total kinetic energy from orbitals= 1.461865355638D+02
                          Isotropic Fermi Contact Couplings
        Atom                 a.u.       MegaHertz       Gauss      10(-4) cm-1
     1  Zn(67)             0.00159       0.44429       0.15853       0.14820
     2  H(1)               0.02607     116.53396      41.58222      38.87155
 --------------------------------------------------------
       Center         ----  Spin Dipole Couplings  ----
                      3XX-RR        3YY-RR        3ZZ-RR
 --------------------------------------------------------
     1   Atom       -0.030202     -0.030202      0.060404
     2   Atom       -0.005827     -0.005827      0.011653
 --------------------------------------------------------
                        XY            XZ            YZ
 --------------------------------------------------------
     1   Atom        0.000000      0.000000      0.000000
     2   Atom        0.000000      0.000000      0.000000
 --------------------------------------------------------


 ---------------------------------------------------------------------------------
              Anisotropic Spin Dipole Couplings in Principal Axis System
 ---------------------------------------------------------------------------------

       Atom             a.u.   MegaHertz   Gauss  10(-4) cm-1        Axes

              Baa    -0.0302    -1.010    -0.360    -0.337 -0.0000  1.0000  0.0000
     1 Zn(67) Bbb    -0.0302    -1.010    -0.360    -0.337  1.0000  0.0000  0.0000
              Bcc     0.0604     2.021     0.721     0.674  0.0000  0.0000  1.0000
 
              Baa    -0.0058    -3.109    -1.109    -1.037  1.0000  0.0000  0.0000
     2 H(1)   Bbb    -0.0058    -3.109    -1.109    -1.037 -0.0000  1.0000  0.0000
              Bcc     0.0117     6.218     2.219     2.074  0.0000  0.0000  1.0000
 

 ---------------------------------------------------------------------------------

 No NMR shielding tensors so no spin-rotation constants.
 Leave Link  601 at Sat Apr 21 11:18:18 2018, MaxMem= 10737418240 cpu:             180.5 elap:               5.9
 (Enter /home1/apps/gaussian/16rA.03/g16/l9999.exe)

 Test job not archived.
 1\1\GINC-C469-114\SP\ROCCSD(T)-Full\Gen\H1Zn1(2)\GWANG18\21-Apr-2018\0
 \\#P ROCCSD(T)=(MaxCyc=150, Full)/Gen SCF=(maxcycle=400, vshift=200) P
 seudo=Read Integral(NoXCTest) Pop=Regular MaxDisk=500GB Guess=Read IOp
 (5/15=2)\\ZnH\\0,2\Zn,0,0.,0.,0.\H,0,0.,0.,1.2\\Version=ES64L-G16RevA.
 03\State=2-SG\HF=-226.4949985\MP2=-227.6085933\MP3=-227.4818841\PUHF=-
 226.4949985\PMP2-0=-227.6085933\MP4SDQ=-227.5604697\CCSD=-227.5294721\
 CCSD(T)=-227.5587676\RMSD=7.055e-09\PG=C*V [C*(H1Zn1)]\\@


 WHEN A MATHEMATICIAN ENGAGED IN INVESTIGATING
 PHYSICAL ACTIONS AND RESULTS HAS ARRIVED AT HIS
 CONCLUSIONS, MAY THEY NOT BE EXPRESSED IN COMMON
 LANGUAGE AS FULLY, CLEARLY, AND DEFINITELY AS IN
 MATHEMATICAL FORMULAE?
           - LETTER FROM M. FARADAY TO J.C. MAXWELL, 1857.
 Job cpu time:       1 days  3 hours 51 minutes 38.2 seconds.
 Elapsed time:       0 days  0 hours 52 minutes 29.5 seconds.
 File lengths (MBytes):  RWF=  10433 Int=      0 D2E=      0 Chk=     12 Scr=      1
 Normal termination of Gaussian 16 at Sat Apr 21 11:18:18 2018.
