 Entering Gaussian System, Link 0=g16
 Initial command:
 /home1/apps/gaussian/16rA.03/g16/l1.exe "/tmp/Gau-143441.inp" -scrdir="/tmp/"
 Entering Link 1 = /home1/apps/gaussian/16rA.03/g16/l1.exe PID=    143442.
  
 Copyright (c) 1988,1990,1992,1993,1995,1998,2003,2009,2016,
            Gaussian, Inc.  All Rights Reserved.
  
 This is part of the Gaussian(R) 16 program.  It is based on
 the Gaussian(R) 09 system (copyright 2009, Gaussian, Inc.),
 the Gaussian(R) 03 system (copyright 2003, Gaussian, Inc.),
 the Gaussian(R) 98 system (copyright 1998, Gaussian, Inc.),
 the Gaussian(R) 94 system (copyright 1995, Gaussian, Inc.),
 the Gaussian 92(TM) system (copyright 1992, Gaussian, Inc.),
 the Gaussian 90(TM) system (copyright 1990, Gaussian, Inc.),
 the Gaussian 88(TM) system (copyright 1988, Gaussian, Inc.),
 the Gaussian 86(TM) system (copyright 1986, Carnegie Mellon
 University), and the Gaussian 82(TM) system (copyright 1983,
 Carnegie Mellon University). Gaussian is a federally registered
 trademark of Gaussian, Inc.
  
 This software contains proprietary and confidential information,
 including trade secrets, belonging to Gaussian, Inc.
  
 This software is provided under written license and may be
 used, copied, transmitted, or stored only in accord with that
 written license.
  
 The following legend is applicable only to US Government
 contracts under FAR:
  
                    RESTRICTED RIGHTS LEGEND
  
 Use, reproduction and disclosure by the US Government is
 subject to restrictions as set forth in subparagraphs (a)
 and (c) of the Commercial Computer Software - Restricted
 Rights clause in FAR 52.227-19.
  
 Gaussian, Inc.
 340 Quinnipiac St., Bldg. 40, Wallingford CT 06492
  
  
 ---------------------------------------------------------------
 Warning -- This program may not be used in any manner that
 competes with the business of Gaussian, Inc. or will provide
 assistance to any competitor of Gaussian, Inc.  The licensee
 of this program is prohibited from giving any competitor of
 Gaussian, Inc. access to this program.  By using this program,
 the user acknowledges that Gaussian, Inc. is engaged in the
 business of creating and licensing software in the field of
 computational chemistry and represents and warrants to the
 licensee that it is not a competitor of Gaussian, Inc. and that
 it will not use this program in any manner prohibited above.
 ---------------------------------------------------------------
  

 Cite this work as:
 Gaussian 16, Revision A.03,
 M. J. Frisch, G. W. Trucks, H. B. Schlegel, G. E. Scuseria, 
 M. A. Robb, J. R. Cheeseman, G. Scalmani, V. Barone, 
 G. A. Petersson, H. Nakatsuji, X. Li, M. Caricato, A. V. Marenich, 
 J. Bloino, B. G. Janesko, R. Gomperts, B. Mennucci, H. P. Hratchian, 
 J. V. Ortiz, A. F. Izmaylov, J. L. Sonnenberg, D. Williams-Young, 
 F. Ding, F. Lipparini, F. Egidi, J. Goings, B. Peng, A. Petrone, 
 T. Henderson, D. Ranasinghe, V. G. Zakrzewski, J. Gao, N. Rega, 
 G. Zheng, W. Liang, M. Hada, M. Ehara, K. Toyota, R. Fukuda, 
 J. Hasegawa, M. Ishida, T. Nakajima, Y. Honda, O. Kitao, H. Nakai, 
 T. Vreven, K. Throssell, J. A. Montgomery, Jr., J. E. Peralta, 
 F. Ogliaro, M. J. Bearpark, J. J. Heyd, E. N. Brothers, K. N. Kudin, 
 V. N. Staroverov, T. A. Keith, R. Kobayashi, J. Normand, 
 K. Raghavachari, A. P. Rendell, J. C. Burant, S. S. Iyengar, 
 J. Tomasi, M. Cossi, J. M. Millam, M. Klene, C. Adamo, R. Cammi, 
 J. W. Ochterski, R. L. Martin, K. Morokuma, O. Farkas, 
 J. B. Foresman, and D. J. Fox, Gaussian, Inc., Wallingford CT, 2016.
 
 ******************************************
 Gaussian 16:  ES64L-G16RevA.03 25-Dec-2016
                 7-Mar-2018 
 ******************************************
 %mem=80GB
 %cpu=0-31
 SetSPE:  set environment variable "MP_BIND" = "yes"
 SetSPE:  set environment variable "MP_BLIST" = "0,1,2,3,4,5,6,7,8,9,10,11,12,13,14,15,16,17,18,19,20,21,22,23,24,25,26,27,28,29,30,31"
 Will use up to   32 processors via shared memory.
 %chk=tz.chk
 %rwf=/scratch/04843/gwang18/feh/
 ----------------------------------------------------------------------
 #P ROCCSD(T)=(MaxCyc=150, FrzINGC)/Gen SCF=(maxcycle=400) Integral(DKH
 SO, NoXCTest) Pop=Regular MaxDisk=500GB Guess=Read IOp(5/15=2)
 ----------------------------------------------------------------------
 1/38=1,172=1/1;
 2/12=2,17=6,18=5,40=1/2;
 3/5=7,11=2,25=1,30=1,47=8,91=5,116=101/1,2,3;
 4/5=1/1;
 5/5=2,7=400,15=2,38=6/2;
 8/5=-1,6=4,9=120000,10=3/1,4;
 9/5=7,6=150,14=2/13;
 6//1;
 99/5=1,9=1/99;
 Leave Link    1 at Wed Mar  7 11:04:34 2018, MaxMem= 10737418240 cpu:               8.7 elap:               0.3
 (Enter /home1/apps/gaussian/16rA.03/g16/l101.exe)
 ---
 FeH
 ---
 Symbolic Z-matrix:
 Charge =  0 Multiplicity = 4
 Fe                    0.        0.        0. 
 H                     0.        0.        1.7 
 
 ITRead=  0  0
 MicOpt= -1 -1
 NAtoms=      2 NQM=        2 NQMF=       0 NMMI=      0 NMMIF=      0
                NMic=       0 NMicF=      0.
                    Isotopes and Nuclear Properties:
 (Nuclear quadrupole moments (NQMom) in fm**2, nuclear magnetic moments (NMagM)
  in nuclear magnetons)

  Atom         1           2
 IAtWgt=          56           1
 AtmWgt=  55.9349393   1.0078250
 NucSpn=           0           1
 AtZEff=  -0.0000000  -0.0000000
 NQMom=    0.0000000   0.0000000
 NMagM=    0.0000000   2.7928460
 AtZNuc=  26.0000000   1.0000000
 Leave Link  101 at Wed Mar  7 11:04:34 2018, MaxMem= 10737418240 cpu:               3.4 elap:               0.1
 (Enter /home1/apps/gaussian/16rA.03/g16/l202.exe)
                          Input orientation:                          
 ---------------------------------------------------------------------
 Center     Atomic      Atomic             Coordinates (Angstroms)
 Number     Number       Type             X           Y           Z
 ---------------------------------------------------------------------
      1         26           0        0.000000    0.000000    0.000000
      2          1           0        0.000000    0.000000    1.700000
 ---------------------------------------------------------------------
 Stoichiometry    FeH(4)
 Framework group  C*V[C*(HFe)]
 Deg. of freedom     1
 Full point group                 C*V     NOp   4
 Largest Abelian subgroup         C2V     NOp   4
 Largest concise Abelian subgroup C1      NOp   1
                         Standard orientation:                         
 ---------------------------------------------------------------------
 Center     Atomic      Atomic             Coordinates (Angstroms)
 Number     Number       Type             X           Y           Z
 ---------------------------------------------------------------------
      1         26           0        0.000000    0.000000    0.062963
      2          1           0        0.000000    0.000000   -1.637037
 ---------------------------------------------------------------------
 Rotational constants (GHZ):           0.0000000         176.6402168         176.6402168
 Leave Link  202 at Wed Mar  7 11:04:35 2018, MaxMem= 10737418240 cpu:               0.8 elap:               0.1
 (Enter /home1/apps/gaussian/16rA.03/g16/l301.exe)
 General basis read from cards:  (5D, 7F)
 Centers:       1
 S 1 1.00
     Exponent=  4.3162650000D+06 Coefficients=  1.0000000000D+00
 S 1 1.00
     Exponent=  6.4634240000D+05 Coefficients=  1.0000000000D+00
 S 1 1.00
     Exponent=  1.4708970000D+05 Coefficients=  1.0000000000D+00
 S 1 1.00
     Exponent=  4.1661520000D+04 Coefficients=  1.0000000000D+00
 S 1 1.00
     Exponent=  1.3590770000D+04 Coefficients=  1.0000000000D+00
 S 1 1.00
     Exponent=  4.9057500000D+03 Coefficients=  1.0000000000D+00
 S 1 1.00
     Exponent=  1.9127460000D+03 Coefficients=  1.0000000000D+00
 S 1 1.00
     Exponent=  7.9260430000D+02 Coefficients=  1.0000000000D+00
 S 1 1.00
     Exponent=  3.4480650000D+02 Coefficients=  1.0000000000D+00
 S 1 1.00
     Exponent=  1.5589990000D+02 Coefficients=  1.0000000000D+00
 S 1 1.00
     Exponent=  7.2230910000D+01 Coefficients=  1.0000000000D+00
 S 1 1.00
     Exponent=  3.2725060000D+01 Coefficients=  1.0000000000D+00
 S 1 1.00
     Exponent=  1.5667620000D+01 Coefficients=  1.0000000000D+00
 S 1 1.00
     Exponent=  7.5034830000D+00 Coefficients=  1.0000000000D+00
 S 1 1.00
     Exponent=  3.3122230000D+00 Coefficients=  1.0000000000D+00
 S 1 1.00
     Exponent=  1.5584710000D+00 Coefficients=  1.0000000000D+00
 S 1 1.00
     Exponent=  6.8391400000D-01 Coefficients=  1.0000000000D+00
 S 1 1.00
     Exponent=  1.4675700000D-01 Coefficients=  1.0000000000D+00
 S 1 1.00
     Exponent=  7.0583000000D-02 Coefficients=  1.0000000000D+00
 S 1 1.00
     Exponent=  3.1449000000D-02 Coefficients=  1.0000000000D+00
 S 1 1.00
     Exponent=  4.6844000000D+00 Coefficients=  1.0000000000D+00
 S 1 1.00
     Exponent=  1.2204000000D+00 Coefficients=  1.0000000000D+00
 S 1 1.00
     Exponent=  1.4010000000D-02 Coefficients=  1.0000000000D+00
 P 1 1.00
     Exponent=  1.7745690000D+04 Coefficients=  1.0000000000D+00
 P 1 1.00
     Exponent=  4.2007210000D+03 Coefficients=  1.0000000000D+00
 P 1 1.00
     Exponent=  1.3644290000D+03 Coefficients=  1.0000000000D+00
 P 1 1.00
     Exponent=  5.2208060000D+02 Coefficients=  1.0000000000D+00
 P 1 1.00
     Exponent=  2.2145950000D+02 Coefficients=  1.0000000000D+00
 P 1 1.00
     Exponent=  1.0090960000D+02 Coefficients=  1.0000000000D+00
 P 1 1.00
     Exponent=  4.8401150000D+01 Coefficients=  1.0000000000D+00
 P 1 1.00
     Exponent=  2.3985360000D+01 Coefficients=  1.0000000000D+00
 P 1 1.00
     Exponent=  1.2182500000D+01 Coefficients=  1.0000000000D+00
 P 1 1.00
     Exponent=  6.2422980000D+00 Coefficients=  1.0000000000D+00
 P 1 1.00
     Exponent=  3.1109440000D+00 Coefficients=  1.0000000000D+00
 P 1 1.00
     Exponent=  1.5099580000D+00 Coefficients=  1.0000000000D+00
 P 1 1.00
     Exponent=  7.1084500000D-01 Coefficients=  1.0000000000D+00
 P 1 1.00
     Exponent=  2.7259800000D-01 Coefficients=  1.0000000000D+00
 P 1 1.00
     Exponent=  1.0397200000D-01 Coefficients=  1.0000000000D+00
 P 1 1.00
     Exponent=  3.8166000000D-02 Coefficients=  1.0000000000D+00
 P 1 1.00
     Exponent=  6.8788000000D+00 Coefficients=  1.0000000000D+00
 P 1 1.00
     Exponent=  1.5748000000D+00 Coefficients=  1.0000000000D+00
 P 1 1.00
     Exponent=  1.4010000000D-02 Coefficients=  1.0000000000D+00
 D 1 1.00
     Exponent=  1.1488400000D+02 Coefficients=  1.0000000000D+00
 D 1 1.00
     Exponent=  3.3887800000D+01 Coefficients=  1.0000000000D+00
 D 1 1.00
     Exponent=  1.2373000000D+01 Coefficients=  1.0000000000D+00
 D 1 1.00
     Exponent=  4.9992500000D+00 Coefficients=  1.0000000000D+00
 D 1 1.00
     Exponent=  2.0704300000D+00 Coefficients=  1.0000000000D+00
 D 1 1.00
     Exponent=  8.2818300000D-01 Coefficients=  1.0000000000D+00
 D 1 1.00
     Exponent=  3.0754700000D-01 Coefficients=  1.0000000000D+00
 D 1 1.00
     Exponent=  9.9455000000D-02 Coefficients=  1.0000000000D+00
 D 1 1.00
     Exponent=  4.5305000000D+00 Coefficients=  1.0000000000D+00
 D 1 1.00
     Exponent=  2.1205000000D+00 Coefficients=  1.0000000000D+00
 D 1 1.00
     Exponent=  3.2160000000D-02 Coefficients=  1.0000000000D+00
 F 1 1.00
     Exponent=  6.0066000000D+00 Coefficients=  1.0000000000D+00
 F 1 1.00
     Exponent=  2.2522000000D+00 Coefficients=  1.0000000000D+00
 F 1 1.00
     Exponent=  7.7580000000D-01 Coefficients=  1.0000000000D+00
 F 1 1.00
     Exponent=  2.6723000000D-01 Coefficients=  1.0000000000D+00
 G 1 1.00
     Exponent=  5.5068000000D+00 Coefficients=  1.0000000000D+00
 G 1 1.00
     Exponent=  2.0515000000D+00 Coefficients=  1.0000000000D+00
 G 1 1.00
     Exponent=  7.6426000000D-01 Coefficients=  1.0000000000D+00
 ****
 Centers:       2
 S 1 1.00
     Exponent=  3.3870000000D+01 Coefficients=  1.0000000000D+00
 S 1 1.00
     Exponent=  5.0950000000D+00 Coefficients=  1.0000000000D+00
 S 1 1.00
     Exponent=  1.1590000000D+00 Coefficients=  1.0000000000D+00
 S 1 1.00
     Exponent=  3.2580000000D-01 Coefficients=  1.0000000000D+00
 S 1 1.00
     Exponent=  1.0270000000D-01 Coefficients=  1.0000000000D+00
 S 1 1.00
     Exponent=  2.5260000000D-02 Coefficients=  1.0000000000D+00
 P 1 1.00
     Exponent=  1.4070000000D+00 Coefficients=  1.0000000000D+00
 P 1 1.00
     Exponent=  3.8800000000D-01 Coefficients=  1.0000000000D+00
 P 1 1.00
     Exponent=  1.0200000000D-01 Coefficients=  1.0000000000D+00
 D 1 1.00
     Exponent=  1.0570000000D+00 Coefficients=  1.0000000000D+00
 D 1 1.00
     Exponent=  2.4700000000D-01 Coefficients=  1.0000000000D+00
 ****
 Ernie: Thresh=  0.10000D-02 Tol=  0.10000D-05 Strict=F.
 There are   120 symmetry adapted cartesian basis functions of A1  symmetry.
 There are    26 symmetry adapted cartesian basis functions of A2  symmetry.
 There are    56 symmetry adapted cartesian basis functions of B1  symmetry.
 There are    56 symmetry adapted cartesian basis functions of B2  symmetry.
 There are    94 symmetry adapted basis functions of A1  symmetry.
 There are    23 symmetry adapted basis functions of A2  symmetry.
 There are    49 symmetry adapted basis functions of B1  symmetry.
 There are    49 symmetry adapted basis functions of B2  symmetry.
   215 basis functions,   258 primitive gaussians,   258 cartesian basis functions
    15 alpha electrons       12 beta electrons
       nuclear repulsion energy         8.0932985200 Hartrees.
 IExCor=    0 DFT=F Ex=HF Corr=None ExCW=0 ScaHFX=  1.000000
 ScaDFX=  1.000000  1.000000  1.000000  1.000000 ScalE2=  1.000000  1.000000
 IRadAn=      5 IRanWt=     -1 IRanGd=            0 ICorTp=0 IEmpDi=  4
 NAtoms=    2 NActive=    2 NUniq=    2 SFac= 1.00D+00 NAtFMM=   60 NAOKFM=F Big=F
 Integral buffers will be    131072 words long.
 Raffenetti 2 integral format.
 Two-electron integral symmetry is turned on.
 FoFCou: FMM=F IPFlag=           8 FMFlag=           0 FMFlg1=           0
         NFxFlg=           0 DoJE=F BraDBF=T KetDBF=T FulRan=T
         wScrn=  0.000000 ICntrl=       600 IOpCl=  3 I1Cent=           6 NGrid=           0
         NMat0=    1 NMatS0=      2 NMatT0=    0 NMatD0=    1 NMtDS0=    0 NMtDT0=    0
 Symmetry not used in FoFCou.
 Finite nuclear repulsion energy         8.0932985200.
 Leave Link  301 at Wed Mar  7 11:04:35 2018, MaxMem= 10737418240 cpu:              12.8 elap:               0.4
 (Enter /home1/apps/gaussian/16rA.03/g16/l302.exe)
 Using DK4 one-electron Hamiltonian with SO, DoBoet=T.
 NPDir=0 NMtPBC=     1 NCelOv=     1 NCel=       1 NClECP=     1 NCelD=      1
         NCelK=      1 NCelE2=     1 NClLst=     1 CellRange=     0.0.
 One-electron integrals computed using PRISM.
 One-electron integral symmetry used in STVInt
 FoFCou: FMM=F IPFlag=           8 FMFlag=      100000 FMFlg1=           0
         NFxFlg=           0 DoJE=T BraDBF=F KetDBF=T FulRan=T
         wScrn=  0.000000 ICntrl=       500 IOpCl=  0 I1Cent=           4 NGrid=           0
         NMat0=    1 NMatS0=      1 NMatT0=    0 NMatD0=    1 NMtDS0=    0 NMtDT0=    0
 Symmetry not used in FoFCou.
 UnConB:  Uncontracting AO basis from    215 functions to    215 functions (excluding duplicates).
 RelInt: Using uncontracted basis, NUnBas=   215 NBsUse=   215 0.100E-13 EigKep=  9.04D-07 EigRej= -1.00D+00
 NBasis=   215 RedAO= T EigKep=  2.49D-06  NBF=    94    23    49    49
 NBsUse=   212 1.00D-06 EigRej=  9.70D-07 NBFU=    93    23    48    48
 Leave Link  302 at Wed Mar  7 11:04:41 2018, MaxMem= 10737418240 cpu:             134.8 elap:               5.3
 (Enter /home1/apps/gaussian/16rA.03/g16/l303.exe)
 DipDrv:  MaxL=1.
 Leave Link  303 at Wed Mar  7 11:04:42 2018, MaxMem= 10737418240 cpu:               1.9 elap:               0.1
 (Enter /home1/apps/gaussian/16rA.03/g16/l401.exe)
 Initial guess from the checkpoint file:  "tz.chk"
 B after Tr=     0.000000    0.000000    0.000000
         Rot=    1.000000    0.000000    0.000000    0.000000 Ang=   0.00 deg.
 Guess basis will be translated and rotated to current coordinates.
 JPrj=2 DoOrth=T DoCkMO=T.
 Initial guess orbital symmetries:
       Occupied  (SG) (SG) (PI) (PI) (SG) (SG) (SG) (PI) (PI) (SG)
                 (?A) (SG) (PI) (PI) (?A)
       Virtual   (SG) (PI) (PI) (SG) (SG) (PI) (PI) (SG) (DLTA)
                 (DLTA) (PI) (PI) (SG) (SG) (SG) (PI) (PI) (SG)
                 (PI) (PI) (?A) (?A) (SG) (PI) (PI) (SG) (SG) (SG)
                 (DLTA) (DLTA) (PI) (PI) (SG) (PHI) (PHI) (PI)
                 (PI) (SG) (PI) (PI) (?A) (?A) (PI) (PI) (SG) (?A)
                 (?A) (SG) (PI) (PI) (SG) (SG) (SG) (?B) (?B) (?B)
                 (?B) (SG) (DLTA) (?B) (?B) (DLTA) (SG) (SG) (PI)
                 (PI) (DLTA) (DLTA) (DLTA) (PHI) (PHI) (DLTA) (?C)
                 (?C) (PI) (PI) (DLTA) (DLTA) (SG) (PI) (PI) (PI)
                 (PI) (SG) (SG) (SG) (?D) (?D) (DLTA) (DLTA) (?D)
                 (?D) (DLTA) (DLTA) (SG) (?D) (?D) (PI) (PI) (SG)
                 (SG) (?E) (?E) (?C) (?C) (DLTA) (DLTA) (?E) (?E)
                 (SG) (SG) (SG) (DLTA) (DLTA) (PI) (PI) (SG) (PI)
                 (PI) (SG) (DLTA) (?E) (?E) (DLTA) (?E) (?E) (SG)
                 (?E) (?E) (DLTA) (?F) (?F) (DLTA) (?E) (?E) (?F)
                 (SG) (DLTA) (DLTA) (PI) (PI) (SG) (PI) (PI) (SG)
                 (DLTA) (DLTA) (PI) (PI) (SG) (SG) (SG) (PI) (PI)
                 (SG) (DLTA) (DLTA) (PI) (PI) (SG) (SG) (PI) (PI)
                 (SG) (SG) (PI) (PI) (SG) (DLTA) (DLTA) (PI) (PI)
                 (SG) (PI) (PI) (SG) (SG) (PI) (PI) (SG) (SG) (PI)
                 (PI) (SG) (SG) (SG) (PI) (PI) (SG) (SG) (PI) (PI)
                 (SG) (SG) (SG) (SG) (SG)
 Leave Link  401 at Wed Mar  7 11:04:42 2018, MaxMem= 10737418240 cpu:               9.9 elap:               0.4
 (Enter /home1/apps/gaussian/16rA.03/g16/l502.exe)
 Keep R1 and R2 ints in memory in symmetry-blocked form, NReq=338797193.
 FoFCou: FMM=F IPFlag=           8 FMFlag=           0 FMFlg1=           0
         NFxFlg=           0 DoJE=F BraDBF=F KetDBF=F FulRan=T
         wScrn=  0.000000 ICntrl=       600 IOpCl=  0 I1Cent=           0 NGrid=           0
         NMat0=    1 NMatS0=  23220 NMatT0=    0 NMatD0=    1 NMtDS0=    0 NMtDT0=    0
 Petite list used in FoFCou.
 Restricted open shell SCF:
 Using DIIS extrapolation, IDIIS=  1040.
 NGot= 10737418240 LenX= 10598929943 LenY= 10598862938
 Requested convergence on RMS density matrix=1.00D-08 within 400 cycles.
 Requested convergence on MAX density matrix=1.00D-06.
 Requested convergence on             energy=1.00D-06.
 No special actions if energy rises.

 Cycle   1  Pass 1  IDiag  1:
 E= -1271.81921566681    
 DIIS: error= 5.22D-03 at cycle   1 NSaved=   1.
 NSaved= 1 IEnMin= 1 EnMin= -1271.81921566681     IErMin= 1 ErrMin= 5.22D-03
 ErrMax= 5.22D-03  0.00D+00 EMaxC= 1.00D-01 BMatC= 9.68D-04 BMatP= 9.68D-04
 IDIUse=3 WtCom= 9.48D-01 WtEn= 5.22D-02
 Coeff-Com:  0.100D+01
 Coeff-En:   0.100D+01
 Coeff:      0.100D+01
 Gap=     0.039 Goal=   None    Shift=    0.000
 GapD=    0.039 DampG=0.250 DampE=1.000 DampFc=0.2500 IDamp=-1.
 Damping current iteration by 2.50D-01
 RMSDP=1.17D-04 MaxDP=4.51D-03              OVMax= 1.19D-02

 Cycle   2  Pass 1  IDiag  1:
 E= -1271.81930178680     Delta-E=       -0.000086119991 Rises=F Damp=T
 DIIS: error= 3.91D-03 at cycle   2 NSaved=   2.
 NSaved= 2 IEnMin= 2 EnMin= -1271.81930178680     IErMin= 2 ErrMin= 3.91D-03
 ErrMax= 3.91D-03  0.00D+00 EMaxC= 1.00D-01 BMatC= 5.59D-04 BMatP= 9.68D-04
 IDIUse=3 WtCom= 9.61D-01 WtEn= 3.91D-02
 Coeff-Com: -0.187D+01 0.287D+01
 Coeff-En:   0.000D+00 0.100D+01
 Coeff:     -0.180D+01 0.280D+01
 Gap=     0.008 Goal=   None    Shift=    0.000
 RMSDP=3.83D-04 MaxDP=2.97D-02 DE=-8.61D-05 OVMax= 1.22D-01

 Cycle   3  Pass 1  IDiag  1:
 E= -1271.80962825221     Delta-E=        0.009673534588 Rises=F Damp=F
 DIIS: error= 9.45D-03 at cycle   3 NSaved=   3.
 NSaved= 3 IEnMin= 2 EnMin= -1271.81930178680     IErMin= 2 ErrMin= 3.91D-03
 ErrMax= 9.45D-03  0.00D+00 EMaxC= 1.00D-01 BMatC= 4.24D-03 BMatP= 5.59D-04
 IDIUse=3 WtCom= 9.33D-02 WtEn= 9.07D-01
 Coeff-Com: -0.207D+01 0.289D+01 0.177D+00
 Coeff-En:   0.000D+00 0.772D+00 0.228D+00
 Coeff:     -0.193D+00 0.970D+00 0.223D+00
 Gap=     0.011 Goal=   None    Shift=    0.000
 RMSDP=9.47D-04 MaxDP=8.09D-02 DE= 9.67D-03 OVMax= 2.39D-01

 Cycle   4  Pass 1  IDiag  1:
 E= -1271.80639575413     Delta-E=        0.003232498077 Rises=F Damp=F
 DIIS: error= 9.65D-03 at cycle   4 NSaved=   4.
 NSaved= 4 IEnMin= 2 EnMin= -1271.81930178680     IErMin= 2 ErrMin= 3.91D-03
 ErrMax= 9.65D-03  0.00D+00 EMaxC= 1.00D-01 BMatC= 5.69D-03 BMatP= 5.59D-04
 IDIUse=3 WtCom= 9.24D-02 WtEn= 9.08D-01
 Coeff-Com: -0.170D+01 0.229D+01 0.269D+00 0.145D+00
 Coeff-En:   0.000D+00 0.000D+00 0.522D+00 0.478D+00
 Coeff:     -0.157D+00 0.212D+00 0.498D+00 0.447D+00
 Gap=     0.018 Goal=   None    Shift=    0.000
 RMSDP=1.07D-03 MaxDP=8.17D-02 DE= 3.23D-03 OVMax= 1.67D-01

 Cycle   5  Pass 1  IDiag  1:
 E= -1271.81654888064     Delta-E=       -0.010153126509 Rises=F Damp=F
 DIIS: error= 5.88D-03 at cycle   5 NSaved=   5.
 NSaved= 5 IEnMin= 2 EnMin= -1271.81930178680     IErMin= 2 ErrMin= 3.91D-03
 ErrMax= 5.88D-03  0.00D+00 EMaxC= 1.00D-01 BMatC= 2.55D-03 BMatP= 5.59D-04
 IDIUse=3 WtCom= 1.15D-01 WtEn= 8.85D-01
 Rare condition: small coef for last iteration:  0.000D+00
 Coeff-Com: -0.958D+00 0.126D+01 0.300D+00 0.242D+00 0.151D+00
 Coeff-En:   0.000D+00 0.000D+00 0.264D+00 0.280D+00 0.456D+00
 Coeff:     -0.958D+00 0.126D+01 0.300D+00 0.242D+00 0.151D+00
 Gap=     0.011 Goal=   None    Shift=    0.000
 RMSDP=6.05D-04 MaxDP=3.26D-02 DE=-1.02D-02 OVMax= 7.00D-02

 Cycle   6  Pass 1  IDiag  1:
 E= -1271.81887731666     Delta-E=       -0.002328436019 Rises=F Damp=F
 DIIS: error= 2.87D-03 at cycle   6 NSaved=   6.
 NSaved= 6 IEnMin= 2 EnMin= -1271.81930178680     IErMin= 6 ErrMin= 2.87D-03
 ErrMax= 2.87D-03  0.00D+00 EMaxC= 1.00D-01 BMatC= 3.89D-04 BMatP= 5.59D-04
 IDIUse=3 WtCom= 9.71D-01 WtEn= 2.87D-02
 EnCoef did   100 forward-backward iterations
 Rare condition: small coef for last iteration:  0.000D+00
 Coeff-Com: -0.927D+00 0.122D+01 0.281D+00 0.222D+00 0.132D+00 0.695D-01
 Coeff-En:   0.000D+00 0.000D+00 0.258D+00 0.198D+00 0.192D+00 0.351D+00
 Coeff:     -0.927D+00 0.122D+01 0.281D+00 0.222D+00 0.132D+00 0.695D-01
 Gap=     0.011 Goal=   None    Shift=    0.000
 RMSDP=3.67D-04 MaxDP=3.11D-02 DE=-2.33D-03 OVMax= 9.37D-02

 Cycle   7  Pass 1  IDiag  1:
 E= -1271.81913414398     Delta-E=       -0.000256827325 Rises=F Damp=F
 DIIS: error= 2.41D-03 at cycle   7 NSaved=   7.
 NSaved= 7 IEnMin= 2 EnMin= -1271.81930178680     IErMin= 7 ErrMin= 2.41D-03
 ErrMax= 2.41D-03  0.00D+00 EMaxC= 1.00D-01 BMatC= 2.86D-04 BMatP= 3.89D-04
 IDIUse=3 WtCom= 9.76D-01 WtEn= 2.41D-02
 EnCoef did   100 forward-backward iterations
 Rare condition: small coef for last iteration:  0.000D+00
 Coeff-Com: -0.964D+00 0.127D+01 0.234D+00 0.164D+00 0.650D-01 0.109D+00
 Coeff-Com:  0.120D+00
 Coeff-En:   0.000D+00 0.000D+00 0.255D+00 0.168D+00 0.868D-01 0.233D+00
 Coeff-En:   0.258D+00
 Coeff:     -0.964D+00 0.127D+01 0.234D+00 0.164D+00 0.650D-01 0.109D+00
 Coeff:      0.120D+00
 Gap=     0.011 Goal=   None    Shift=    0.000
 RMSDP=2.08D-04 MaxDP=1.73D-02 DE=-2.57D-04 OVMax= 5.22D-02

 Cycle   8  Pass 1  IDiag  1:
 E= -1271.81967145958     Delta-E=       -0.000537315596 Rises=F Damp=F
 DIIS: error= 1.21D-03 at cycle   8 NSaved=   8.
 NSaved= 8 IEnMin= 8 EnMin= -1271.81967145958     IErMin= 8 ErrMin= 1.21D-03
 ErrMax= 1.21D-03  0.00D+00 EMaxC= 1.00D-01 BMatC= 7.62D-05 BMatP= 2.86D-04
 IDIUse=3 WtCom= 9.88D-01 WtEn= 1.21D-02
 EnCoef did   100 forward-backward iterations
 Rare condition: small coef for last iteration:  0.000D+00
 Coeff-Com: -0.887D+00 0.116D+01 0.343D-01-0.145D-01-0.163D+00-0.484D+00
 Coeff-Com: -0.176D+00 0.153D+01
 Coeff-En:   0.000D+00 0.000D+00 0.259D+00 0.176D+00 0.887D-01 0.124D+00
 Coeff-En:   0.117D+00 0.235D+00
 Coeff:     -0.887D+00 0.116D+01 0.343D-01-0.145D-01-0.163D+00-0.484D+00
 Coeff:     -0.176D+00 0.153D+01
 Gap=     0.006 Goal=   None    Shift=    0.000
 RMSDP=7.40D-05 MaxDP=5.19D-03 DE=-5.37D-04 OVMax= 1.73D-02

 Cycle   9  Pass 1  IDiag  1:
 E= -1271.81965292138     Delta-E=        0.000018538201 Rises=F Damp=F
 DIIS: error= 1.03D-03 at cycle   9 NSaved=   9.
 NSaved= 9 IEnMin= 8 EnMin= -1271.81967145958     IErMin= 9 ErrMin= 1.03D-03
 ErrMax= 1.03D-03  0.00D+00 EMaxC= 1.00D-01 BMatC= 4.02D-05 BMatP= 7.62D-05
 IDIUse=3 WtCom= 9.90D-01 WtEn= 1.03D-02
 EnCoef did   100 forward-backward iterations
 Coeff-Com: -0.581D+00 0.761D+00-0.799D-01-0.484D-01-0.107D+00-0.224D+00
 Coeff-Com: -0.231D+00 0.651D+00 0.859D+00
 Coeff-En:   0.000D+00 0.000D+00 0.514D+00 0.470D+00 0.311D-03 0.470D-02
 Coeff-En:   0.296D-02 0.471D-02 0.400D-02
 Coeff:     -0.575D+00 0.754D+00-0.739D-01-0.431D-01-0.106D+00-0.222D+00
 Coeff:     -0.228D+00 0.644D+00 0.851D+00
 Gap=     0.006 Goal=   None    Shift=    0.000
 RMSDP=9.12D-05 MaxDP=7.49D-03 DE= 1.85D-05 OVMax= 1.22D-02

 Cycle  10  Pass 1  IDiag  1:
 E= -1271.81972988905     Delta-E=       -0.000076967674 Rises=F Damp=F
 DIIS: error= 6.36D-04 at cycle  10 NSaved=  10.
 NSaved=10 IEnMin=10 EnMin= -1271.81972988905     IErMin=10 ErrMin= 6.36D-04
 ErrMax= 6.36D-04  0.00D+00 EMaxC= 1.00D-01 BMatC= 2.00D-05 BMatP= 4.02D-05
 IDIUse=3 WtCom= 9.94D-01 WtEn= 6.36D-03
 EnCoef did   100 forward-backward iterations
 Rare condition: small coef for last iteration:  0.000D+00
 Coeff-Com: -0.388D+00 0.509D+00-0.132D+00-0.806D-01-0.848D-01-0.446D-01
 Coeff-Com: -0.137D+00 0.119D+00 0.849D+00 0.390D+00
 Coeff-En:   0.000D+00 0.000D+00 0.256D+00 0.179D+00 0.911D-01 0.136D+00
 Coeff-En:   0.781D-01 0.205D-01 0.495D-01 0.190D+00
 Coeff:     -0.388D+00 0.509D+00-0.132D+00-0.806D-01-0.848D-01-0.446D-01
 Coeff:     -0.137D+00 0.119D+00 0.849D+00 0.390D+00
 Gap=     0.006 Goal=   None    Shift=    0.000
 RMSDP=1.49D-04 MaxDP=1.36D-02 DE=-7.70D-05 OVMax= 1.64D-02

 Cycle  11  Pass 1  IDiag  1:
 E= -1271.81972871460     Delta-E=        0.000001174457 Rises=F Damp=F
 DIIS: error= 5.97D-04 at cycle  11 NSaved=  11.
 NSaved=11 IEnMin=10 EnMin= -1271.81972988905     IErMin=11 ErrMin= 5.97D-04
 ErrMax= 5.97D-04  0.00D+00 EMaxC= 1.00D-01 BMatC= 2.35D-05 BMatP= 2.00D-05
 IDIUse=3 WtCom= 9.94D-01 WtEn= 6.36D-03
 EnCoef did   100 forward-backward iterations
 Rare condition: small coef for last iteration:  0.000D+00
 Coeff-Com: -0.272D+00 0.358D+00-0.139D+00-0.102D+00-0.822D-01 0.670D-01
 Coeff-Com: -0.515D-01-0.274D-01 0.487D+00 0.396D+00 0.367D+00
 Coeff-En:   0.000D+00 0.000D+00 0.258D+00 0.177D+00 0.923D-01 0.136D+00
 Coeff-En:   0.540D-01 0.161D-01 0.000D+00 0.135D+00 0.132D+00
 Coeff:     -0.272D+00 0.358D+00-0.139D+00-0.102D+00-0.822D-01 0.670D-01
 Coeff:     -0.515D-01-0.274D-01 0.487D+00 0.396D+00 0.367D+00
 Gap=     0.007 Goal=   None    Shift=    0.000
 RMSDP=1.28D-04 MaxDP=1.12D-02 DE= 1.17D-06 OVMax= 1.34D-02

 Cycle  12  Pass 1  IDiag  1:
 E= -1271.81975764368     Delta-E=       -0.000028929086 Rises=F Damp=F
 DIIS: error= 4.75D-04 at cycle  12 NSaved=  12.
 NSaved=12 IEnMin=12 EnMin= -1271.81975764368     IErMin=12 ErrMin= 4.75D-04
 ErrMax= 4.75D-04  0.00D+00 EMaxC= 1.00D-01 BMatC= 1.69D-05 BMatP= 2.00D-05
 IDIUse=3 WtCom= 9.95D-01 WtEn= 4.75D-03
 EnCoef did   100 forward-backward iterations
 Rare condition: small coef for last iteration:  0.000D+00
 Coeff-Com: -0.140D+00 0.186D+00-0.130D+00-0.118D+00-0.860D-01 0.144D+00
 Coeff-Com:  0.850D-01-0.506D-01-0.485D-01 0.248D+00 0.532D+00 0.377D+00
 Coeff-En:   0.000D+00 0.000D+00 0.259D+00 0.176D+00 0.912D-01 0.135D+00
 Coeff-En:   0.524D-01 0.000D+00 0.000D+00 0.239D-01 0.952D-01 0.168D+00
 Coeff:     -0.140D+00 0.186D+00-0.130D+00-0.118D+00-0.860D-01 0.144D+00
 Coeff:      0.850D-01-0.506D-01-0.485D-01 0.248D+00 0.532D+00 0.377D+00
 Gap=     0.007 Goal=   None    Shift=    0.000
 RMSDP=5.76D-05 MaxDP=4.19D-03 DE=-2.89D-05 OVMax= 9.17D-03

 Cycle  13  Pass 1  IDiag  1:
 E= -1271.81974354660     Delta-E=        0.000014097079 Rises=F Damp=F
 DIIS: error= 6.68D-04 at cycle  13 NSaved=  13.
 NSaved=13 IEnMin=12 EnMin= -1271.81975764368     IErMin=12 ErrMin= 4.75D-04
 ErrMax= 6.68D-04  0.00D+00 EMaxC= 1.00D-01 BMatC= 2.67D-05 BMatP= 1.69D-05
 IDIUse=3 WtCom= 9.95D-01 WtEn= 4.75D-03
 EnCoef did   100 forward-backward iterations
 Rare condition: small coef for last iteration:  0.000D+00
 Coeff-Com: -0.680D-01 0.922D-01-0.122D+00-0.120D+00-0.881D-01 0.170D+00
 Coeff-Com:  0.157D+00-0.358D-01-0.291D+00 0.147D+00 0.516D+00 0.484D+00
 Coeff-Com:  0.159D+00
 Coeff-En:   0.000D+00 0.000D+00 0.259D+00 0.176D+00 0.886D-01 0.133D+00
 Coeff-En:   0.563D-01 0.000D+00 0.000D+00 0.000D+00 0.599D-01 0.130D+00
 Coeff-En:   0.969D-01
 Coeff:     -0.680D-01 0.922D-01-0.122D+00-0.120D+00-0.881D-01 0.170D+00
 Coeff:      0.157D+00-0.358D-01-0.291D+00 0.147D+00 0.516D+00 0.484D+00
 Coeff:      0.159D+00
 Gap=     0.007 Goal=   None    Shift=    0.000
 RMSDP=4.93D-05 MaxDP=3.60D-03 DE= 1.41D-05 OVMax= 6.18D-03

 Cycle  14  Pass 1  IDiag  1:
 E= -1271.81976788360     Delta-E=       -0.000024336996 Rises=F Damp=F
 DIIS: error= 5.01D-04 at cycle  14 NSaved=  14.
 NSaved=14 IEnMin=14 EnMin= -1271.81976788360     IErMin=12 ErrMin= 4.75D-04
 ErrMax= 5.01D-04  0.00D+00 EMaxC= 1.00D-01 BMatC= 1.81D-05 BMatP= 1.69D-05
 IDIUse=3 WtCom= 9.95D-01 WtEn= 4.75D-03
 EnCoef did   100 forward-backward iterations
 Rare condition: small coef for last iteration:  0.000D+00
 Coeff-Com:  0.281D-01-0.345D-01-0.107D+00-0.784D-01-0.819D-01 0.150D+00
 Coeff-Com:  0.154D+00 0.487D-01-0.752D-01 0.135D-01-0.821D-01-0.629D-01
 Coeff-Com:  0.938D-01 0.103D+01
 Coeff-En:   0.000D+00 0.000D+00 0.258D+00 0.177D+00 0.849D-01 0.135D+00
 Coeff-En:   0.561D-01 0.000D+00 0.000D+00 0.000D+00 0.806D-02 0.670D-01
 Coeff-En:   0.647D-01 0.149D+00
 Coeff:      0.281D-01-0.345D-01-0.107D+00-0.784D-01-0.819D-01 0.150D+00
 Coeff:      0.154D+00 0.487D-01-0.752D-01 0.135D-01-0.821D-01-0.629D-01
 Coeff:      0.938D-01 0.103D+01
 Gap=     0.007 Goal=   None    Shift=    0.000
 RMSDP=6.36D-05 MaxDP=5.50D-03 DE=-2.43D-05 OVMax= 4.24D-03

 Cycle  15  Pass 1  IDiag  1:
 E= -1271.81979015618     Delta-E=       -0.000022272583 Rises=F Damp=F
 DIIS: error= 3.71D-04 at cycle  15 NSaved=  15.
 NSaved=15 IEnMin=15 EnMin= -1271.81979015618     IErMin=15 ErrMin= 3.71D-04
 ErrMax= 3.71D-04  0.00D+00 EMaxC= 1.00D-01 BMatC= 9.78D-06 BMatP= 1.69D-05
 IDIUse=3 WtCom= 9.96D-01 WtEn= 3.71D-03
 EnCoef did   100 forward-backward iterations
 Rare condition: small coef for last iteration:  0.375D-17
 Coeff-Com:  0.510D-01-0.648D-01-0.969D-01-0.664D-01-0.742D-01 0.145D+00
 Coeff-Com:  0.143D+00 0.438D-01 0.414D-02-0.550D-02-0.204D+00-0.193D+00
 Coeff-Com:  0.507D-01 0.106D+01 0.212D+00
 Coeff-En:   0.000D+00 0.000D+00 0.261D+00 0.173D+00 0.881D-01 0.128D+00
 Coeff-En:   0.493D-01 0.000D+00 0.000D+00 0.000D+00 0.000D+00 0.000D+00
 Coeff-En:   0.254D-01 0.000D+00 0.274D+00
 Coeff:      0.510D-01-0.648D-01-0.969D-01-0.664D-01-0.742D-01 0.145D+00
 Coeff:      0.143D+00 0.438D-01 0.414D-02-0.550D-02-0.204D+00-0.193D+00
 Coeff:      0.507D-01 0.106D+01 0.212D+00
 Gap=     0.007 Goal=   None    Shift=    0.000
 RMSDP=9.51D-05 MaxDP=8.67D-03 DE=-2.23D-05 OVMax= 5.10D-03

 Cycle  16  Pass 1  IDiag  1:
 E= -1271.81979578098     Delta-E=       -0.000005624800 Rises=F Damp=F
 DIIS: error= 3.49D-04 at cycle  16 NSaved=  16.
 NSaved=16 IEnMin=16 EnMin= -1271.81979578098     IErMin=16 ErrMin= 3.49D-04
 ErrMax= 3.49D-04  0.00D+00 EMaxC= 1.00D-01 BMatC= 7.40D-06 BMatP= 9.78D-06
 IDIUse=3 WtCom= 9.97D-01 WtEn= 3.49D-03
 EnCoef did   100 forward-backward iterations
 Rare condition: small coef for last iteration:  0.000D+00
 Coeff-Com:  0.933D-01-0.122D+00-0.444D-01-0.349D-01-0.270D-01 0.130D+00
 Coeff-Com:  0.869D-01-0.913D-01 0.209D+00 0.208D-01-0.248D+00-0.334D+00
 Coeff-Com: -0.129D+00-0.708D-02 0.669D+00 0.828D+00
 Coeff-En:   0.000D+00 0.000D+00 0.262D+00 0.173D+00 0.890D-01 0.125D+00
 Coeff-En:   0.465D-01 0.000D+00 0.000D+00 0.000D+00 0.000D+00 0.000D+00
 Coeff-En:   0.000D+00 0.000D+00 0.111D+00 0.195D+00
 Coeff:      0.933D-01-0.122D+00-0.444D-01-0.349D-01-0.270D-01 0.130D+00
 Coeff:      0.869D-01-0.913D-01 0.209D+00 0.208D-01-0.248D+00-0.334D+00
 Coeff:     -0.129D+00-0.708D-02 0.669D+00 0.828D+00
 Gap=     0.007 Goal=   None    Shift=    0.000
 RMSDP=5.72D-05 MaxDP=4.91D-03 DE=-5.62D-06 OVMax= 3.50D-03

 Cycle  17  Pass 1  IDiag  1:
 E= -1271.81980632439     Delta-E=       -0.000010543409 Rises=F Damp=F
 DIIS: error= 2.80D-04 at cycle  17 NSaved=  17.
 NSaved=17 IEnMin=17 EnMin= -1271.81980632439     IErMin=17 ErrMin= 2.80D-04
 ErrMax= 2.80D-04  0.00D+00 EMaxC= 1.00D-01 BMatC= 2.36D-06 BMatP= 7.40D-06
 IDIUse=3 WtCom= 9.97D-01 WtEn= 2.80D-03
 EnCoef did   100 forward-backward iterations
 Rare condition: small coef for last iteration:  0.000D+00
 Coeff-Com:  0.107D+00-0.141D+00 0.521D-02-0.757D-02 0.142D-01 0.922D-01
 Coeff-Com:  0.343D-01-0.172D+00 0.224D+00 0.482D-01-0.101D+00-0.229D+00
 Coeff-Com: -0.195D+00-0.884D+00 0.651D+00 0.101D+01 0.539D+00
 Coeff-En:   0.000D+00 0.000D+00 0.263D+00 0.172D+00 0.906D-01 0.115D+00
 Coeff-En:   0.454D-01 0.000D+00 0.000D+00 0.000D+00 0.000D+00 0.000D+00
 Coeff-En:   0.000D+00 0.000D+00 0.000D+00 0.000D+00 0.314D+00
 Coeff:      0.107D+00-0.141D+00 0.521D-02-0.757D-02 0.142D-01 0.922D-01
 Coeff:      0.343D-01-0.172D+00 0.224D+00 0.482D-01-0.101D+00-0.229D+00
 Coeff:     -0.195D+00-0.884D+00 0.651D+00 0.101D+01 0.539D+00
 Gap=     0.007 Goal=   None    Shift=    0.000
 RMSDP=1.90D-05 MaxDP=1.33D-03 DE=-1.05D-05 OVMax= 2.26D-03

 Cycle  18  Pass 1  IDiag  1:
 E= -1271.81981105506     Delta-E=       -0.000004730665 Rises=F Damp=F
 DIIS: error= 8.44D-05 at cycle  18 NSaved=  18.
 NSaved=18 IEnMin=18 EnMin= -1271.81981105506     IErMin=18 ErrMin= 8.44D-05
 ErrMax= 8.44D-05  0.00D+00 EMaxC= 1.00D-01 BMatC= 3.42D-07 BMatP= 2.36D-06
 IDIUse=1 WtCom= 1.00D+00 WtEn= 0.00D+00
 Coeff-Com:  0.732D-01-0.962D-01 0.624D-02 0.332D-02 0.126D-01 0.137D-01
 Coeff-Com: -0.595D-02-0.817D-01 0.317D-01 0.503D-01 0.109D+00 0.678D-01
 Coeff-Com: -0.297D-01-0.435D+00 0.224D-01 0.139D+00 0.286D+00 0.834D+00
 Coeff:      0.732D-01-0.962D-01 0.624D-02 0.332D-02 0.126D-01 0.137D-01
 Coeff:     -0.595D-02-0.817D-01 0.317D-01 0.503D-01 0.109D+00 0.678D-01
 Coeff:     -0.297D-01-0.435D+00 0.224D-01 0.139D+00 0.286D+00 0.834D+00
 Gap=     0.007 Goal=   None    Shift=    0.000
 RMSDP=8.59D-06 MaxDP=5.60D-04 DE=-4.73D-06 OVMax= 6.22D-04

 Cycle  19  Pass 1  IDiag  1:
 E= -1271.81981142731     Delta-E=       -0.000000372253 Rises=F Damp=F
 DIIS: error= 7.45D-05 at cycle  19 NSaved=  19.
 NSaved=19 IEnMin=19 EnMin= -1271.81981142731     IErMin=19 ErrMin= 7.45D-05
 ErrMax= 7.45D-05  0.00D+00 EMaxC= 1.00D-01 BMatC= 1.79D-07 BMatP= 3.42D-07
 IDIUse=1 WtCom= 1.00D+00 WtEn= 0.00D+00
 Coeff-Com:  0.368D-01-0.485D-01 0.353D-02 0.715D-02 0.345D-02-0.225D-01
 Coeff-Com: -0.929D-02 0.171D-01-0.432D-01-0.326D-02 0.520D-01 0.760D-01
 Coeff-Com:  0.488D-01 0.173D+00-0.173D+00-0.254D+00-0.838D-01 0.359D-01
 Coeff-Com:  0.118D+01
 Coeff:      0.368D-01-0.485D-01 0.353D-02 0.715D-02 0.345D-02-0.225D-01
 Coeff:     -0.929D-02 0.171D-01-0.432D-01-0.326D-02 0.520D-01 0.760D-01
 Coeff:      0.488D-01 0.173D+00-0.173D+00-0.254D+00-0.838D-01 0.359D-01
 Coeff:      0.118D+01
 Gap=     0.006 Goal=   None    Shift=    0.000
 RMSDP=1.18D-05 MaxDP=8.31D-04 DE=-3.72D-07 OVMax= 8.95D-04

 Cycle  20  Pass 1  IDiag  1:
 E= -1271.81981158723     Delta-E=       -0.000000159926 Rises=F Damp=F
 DIIS: error= 4.88D-05 at cycle  20 NSaved=  20.
 NSaved=20 IEnMin=20 EnMin= -1271.81981158723     IErMin=20 ErrMin= 4.88D-05
 ErrMax= 4.88D-05  0.00D+00 EMaxC= 1.00D-01 BMatC= 1.25D-07 BMatP= 1.79D-07
 IDIUse=1 WtCom= 1.00D+00 WtEn= 0.00D+00
 Coeff-Com:  0.248D-01-0.327D-01 0.370D-02 0.596D-02 0.206D-02-0.152D-01
 Coeff-Com: -0.974D-02 0.278D-01-0.211D-01-0.148D-01-0.150D-01 0.155D-01
 Coeff-Com:  0.329D-01 0.211D+00-0.923D-01-0.161D+00-0.104D+00-0.162D+00
 Coeff-Com:  0.678D+00 0.627D+00
 Coeff:      0.248D-01-0.327D-01 0.370D-02 0.596D-02 0.206D-02-0.152D-01
 Coeff:     -0.974D-02 0.278D-01-0.211D-01-0.148D-01-0.150D-01 0.155D-01
 Coeff:      0.329D-01 0.211D+00-0.923D-01-0.161D+00-0.104D+00-0.162D+00
 Coeff:      0.678D+00 0.627D+00
 Gap=     0.006 Goal=   None    Shift=    0.000
 RMSDP=1.29D-05 MaxDP=1.14D-03 DE=-1.60D-07 OVMax= 7.06D-04

 Cycle  21  Pass 1  IDiag  1:
 E= -1271.81981175042     Delta-E=       -0.000000163185 Rises=F Damp=F
 DIIS: error= 3.29D-05 at cycle  21 NSaved=  20.
 NSaved=20 IEnMin=20 EnMin= -1271.81981175042     IErMin=20 ErrMin= 3.29D-05
 ErrMax= 3.29D-05  0.00D+00 EMaxC= 1.00D-01 BMatC= 6.80D-08 BMatP= 1.25D-07
 IDIUse=1 WtCom= 1.00D+00 WtEn= 0.00D+00
 Coeff-Com:  0.146D-01-0.192D-01-0.282D-03-0.103D-02-0.946D-03-0.178D-02
 Coeff-Com:  0.191D-01-0.397D-03-0.122D-01-0.401D-01-0.246D-01 0.890D-02
 Coeff-Com:  0.135D+00 0.794D-02-0.164D-01-0.576D-01-0.168D+00 0.141D-02
 Coeff-Com:  0.582D+00 0.573D+00
 Coeff:      0.146D-01-0.192D-01-0.282D-03-0.103D-02-0.946D-03-0.178D-02
 Coeff:      0.191D-01-0.397D-03-0.122D-01-0.401D-01-0.246D-01 0.890D-02
 Coeff:      0.135D+00 0.794D-02-0.164D-01-0.576D-01-0.168D+00 0.141D-02
 Coeff:      0.582D+00 0.573D+00
 Gap=     0.006 Goal=   None    Shift=    0.000
 RMSDP=8.13D-06 MaxDP=7.42D-04 DE=-1.63D-07 OVMax= 3.08D-04

 Cycle  22  Pass 1  IDiag  1:
 E= -1271.81981187246     Delta-E=       -0.000000122046 Rises=F Damp=F
 DIIS: error= 1.35D-05 at cycle  22 NSaved=  20.
 NSaved=20 IEnMin=20 EnMin= -1271.81981187246     IErMin=20 ErrMin= 1.35D-05
 ErrMax= 1.35D-05  0.00D+00 EMaxC= 1.00D-01 BMatC= 8.08D-09 BMatP= 6.80D-08
 IDIUse=1 WtCom= 1.00D+00 WtEn= 0.00D+00
 Coeff-Com:  0.683D-02-0.897D-02-0.193D-03 0.158D-02 0.990D-03 0.696D-02
 Coeff-Com:  0.151D-01-0.691D-02-0.339D-01-0.366D-01-0.881D-02 0.370D-01
 Coeff-Com:  0.403D-01 0.418D-01-0.873D-02-0.486D-01-0.277D+00 0.143D+00
 Coeff-Com:  0.468D+00 0.668D+00
 Coeff:      0.683D-02-0.897D-02-0.193D-03 0.158D-02 0.990D-03 0.696D-02
 Coeff:      0.151D-01-0.691D-02-0.339D-01-0.366D-01-0.881D-02 0.370D-01
 Coeff:      0.403D-01 0.418D-01-0.873D-02-0.486D-01-0.277D+00 0.143D+00
 Coeff:      0.468D+00 0.668D+00
 Gap=     0.006 Goal=   None    Shift=    0.000
 RMSDP=3.07D-06 MaxDP=2.78D-04 DE=-1.22D-07 OVMax= 2.14D-04

 Cycle  23  Pass 1  IDiag  1:
 E= -1271.81981189270     Delta-E=       -0.000000020239 Rises=F Damp=F
 DIIS: error= 7.24D-06 at cycle  23 NSaved=  20.
 NSaved=20 IEnMin=20 EnMin= -1271.81981189270     IErMin=20 ErrMin= 7.24D-06
 ErrMax= 7.24D-06  0.00D+00 EMaxC= 1.00D-01 BMatC= 1.35D-09 BMatP= 8.08D-09
 IDIUse=1 WtCom= 1.00D+00 WtEn= 0.00D+00
 Coeff-Com:  0.131D-02-0.172D-02 0.343D-03 0.906D-03 0.124D-02 0.706D-02
 Coeff-Com: -0.861D-03-0.699D-02-0.115D-01-0.608D-02-0.962D-02 0.164D-01
 Coeff-Com:  0.215D-01 0.348D-02 0.134D-01-0.143D+00-0.803D-01 0.916D-01
 Coeff-Com:  0.384D+00 0.719D+00
 Coeff:      0.131D-02-0.172D-02 0.343D-03 0.906D-03 0.124D-02 0.706D-02
 Coeff:     -0.861D-03-0.699D-02-0.115D-01-0.608D-02-0.962D-02 0.164D-01
 Coeff:      0.215D-01 0.348D-02 0.134D-01-0.143D+00-0.803D-01 0.916D-01
 Coeff:      0.384D+00 0.719D+00
 Gap=     0.006 Goal=   None    Shift=    0.000
 RMSDP=1.33D-06 MaxDP=1.05D-04 DE=-2.02D-08 OVMax= 8.27D-05

 Cycle  24  Pass 1  IDiag  1:
 E= -1271.81981189481     Delta-E=       -0.000000002108 Rises=F Damp=F
 DIIS: error= 3.11D-06 at cycle  24 NSaved=  20.
 NSaved=20 IEnMin=20 EnMin= -1271.81981189481     IErMin=20 ErrMin= 3.11D-06
 ErrMax= 3.11D-06  0.00D+00 EMaxC= 1.00D-01 BMatC= 7.03D-10 BMatP= 1.35D-09
 IDIUse=1 WtCom= 1.00D+00 WtEn= 0.00D+00
 Coeff-Com: -0.183D-03 0.245D-03 0.479D-03-0.152D-04 0.221D-02 0.638D-03
 Coeff-Com:  0.825D-03-0.169D-02-0.246D-02-0.137D-01 0.442D-02 0.823D-02
 Coeff-Com:  0.307D-02 0.172D-01-0.521D-01-0.923D-01-0.282D-01 0.158D+00
 Coeff-Com:  0.592D+00 0.403D+00
 Coeff:     -0.183D-03 0.245D-03 0.479D-03-0.152D-04 0.221D-02 0.638D-03
 Coeff:      0.825D-03-0.169D-02-0.246D-02-0.137D-01 0.442D-02 0.823D-02
 Coeff:      0.307D-02 0.172D-01-0.521D-01-0.923D-01-0.282D-01 0.158D+00
 Coeff:      0.592D+00 0.403D+00
 Gap=     0.006 Goal=   None    Shift=    0.000
 RMSDP=6.80D-07 MaxDP=5.40D-05 DE=-2.11D-09 OVMax= 5.05D-05

 Cycle  25  Pass 1  IDiag  1:
 E= -1271.81981189627     Delta-E=       -0.000000001459 Rises=F Damp=F
 DIIS: error= 1.88D-06 at cycle  25 NSaved=  20.
 NSaved=20 IEnMin=20 EnMin= -1271.81981189627     IErMin=20 ErrMin= 1.88D-06
 ErrMax= 1.88D-06  0.00D+00 EMaxC= 1.00D-01 BMatC= 8.89D-11 BMatP= 7.03D-10
 IDIUse=1 WtCom= 1.00D+00 WtEn= 0.00D+00
 Coeff-Com: -0.282D-04 0.398D-04-0.590D-04-0.813D-03 0.447D-03 0.176D-02
 Coeff-Com:  0.166D-02 0.150D-03-0.383D-02-0.111D-02-0.105D-02 0.619D-04
 Coeff-Com:  0.475D-02 0.135D-02-0.344D-01-0.248D-01 0.271D-01 0.185D+00
 Coeff-Com:  0.198D+00 0.647D+00
 Coeff:     -0.282D-04 0.398D-04-0.590D-04-0.813D-03 0.447D-03 0.176D-02
 Coeff:      0.166D-02 0.150D-03-0.383D-02-0.111D-02-0.105D-02 0.619D-04
 Coeff:      0.475D-02 0.135D-02-0.344D-01-0.248D-01 0.271D-01 0.185D+00
 Coeff:      0.198D+00 0.647D+00
 Gap=     0.006 Goal=   None    Shift=    0.000
 RMSDP=2.10D-07 MaxDP=1.55D-05 DE=-1.46D-09 OVMax= 5.88D-05

 Cycle  26  Pass 1  IDiag  1:
 E= -1271.81981189623     Delta-E=        0.000000000045 Rises=F Damp=F
 DIIS: error= 1.94D-06 at cycle  26 NSaved=  20.
 NSaved=20 IEnMin=19 EnMin= -1271.81981189627     IErMin=19 ErrMin= 1.88D-06
 ErrMax= 1.94D-06  0.00D+00 EMaxC= 1.00D-01 BMatC= 1.04D-10 BMatP= 8.89D-11
 IDIUse=1 WtCom= 1.00D+00 WtEn= 0.00D+00
 Coeff-Com: -0.924D-06-0.177D-03 0.808D-04 0.207D-03-0.358D-03 0.118D-03
 Coeff-Com:  0.159D-03 0.311D-03 0.307D-04-0.133D-03-0.185D-03-0.298D-02
 Coeff-Com:  0.757D-02 0.397D-02-0.371D-02-0.182D-01-0.247D-01 0.397D-01
 Coeff-Com:  0.485D+00 0.513D+00
 Coeff:     -0.924D-06-0.177D-03 0.808D-04 0.207D-03-0.358D-03 0.118D-03
 Coeff:      0.159D-03 0.311D-03 0.307D-04-0.133D-03-0.185D-03-0.298D-02
 Coeff:      0.757D-02 0.397D-02-0.371D-02-0.182D-01-0.247D-01 0.397D-01
 Coeff:      0.485D+00 0.513D+00
 Gap=     0.006 Goal=   None    Shift=    0.000
 RMSDP=1.98D-07 MaxDP=1.36D-05 DE= 4.55D-11 OVMax= 3.53D-05

 Cycle  27  Pass 1  IDiag  1:
 E= -1271.81981189650     Delta-E=       -0.000000000278 Rises=F Damp=F
 DIIS: error= 3.86D-07 at cycle  27 NSaved=  20.
 NSaved=20 IEnMin=20 EnMin= -1271.81981189650     IErMin=20 ErrMin= 3.86D-07
 ErrMax= 3.86D-07  0.00D+00 EMaxC= 1.00D-01 BMatC= 6.21D-12 BMatP= 8.89D-11
 IDIUse=1 WtCom= 1.00D+00 WtEn= 0.00D+00
 Coeff-Com: -0.187D-03-0.201D-04 0.551D-04-0.190D-04 0.133D-03 0.137D-03
 Coeff-Com:  0.491D-03-0.286D-03-0.381D-03 0.134D-03-0.134D-02 0.522D-02
 Coeff-Com:  0.741D-02 0.826D-03-0.159D-01-0.565D-01-0.282D-01 0.112D+00
 Coeff-Com:  0.339D+00 0.637D+00
 Coeff:     -0.187D-03-0.201D-04 0.551D-04-0.190D-04 0.133D-03 0.137D-03
 Coeff:      0.491D-03-0.286D-03-0.381D-03 0.134D-03-0.134D-02 0.522D-02
 Coeff:      0.741D-02 0.826D-03-0.159D-01-0.565D-01-0.282D-01 0.112D+00
 Coeff:      0.339D+00 0.637D+00
 Gap=     0.006 Goal=   None    Shift=    0.000
 RMSDP=1.07D-07 MaxDP=8.77D-06 DE=-2.78D-10 OVMax= 3.58D-06

 Cycle  28  Pass 1  IDiag  1:
 E= -1271.81981189652     Delta-E=       -0.000000000015 Rises=F Damp=F
 DIIS: error= 1.28D-07 at cycle  28 NSaved=  20.
 NSaved=20 IEnMin=20 EnMin= -1271.81981189652     IErMin=20 ErrMin= 1.28D-07
 ErrMax= 1.28D-07  0.00D+00 EMaxC= 1.00D-01 BMatC= 1.02D-12 BMatP= 6.21D-12
 IDIUse=1 WtCom= 1.00D+00 WtEn= 0.00D+00
 Coeff-Com: -0.569D-04-0.712D-05 0.967D-04 0.511D-04-0.590D-05-0.128D-03
 Coeff-Com: -0.958D-04-0.284D-04 0.259D-03 0.477D-03 0.146D-03 0.114D-02
 Coeff-Com:  0.119D-02-0.143D-02-0.182D-01-0.219D-01-0.597D-01 0.751D-01
 Coeff-Com:  0.326D+00 0.697D+00
 Coeff:     -0.569D-04-0.712D-05 0.967D-04 0.511D-04-0.590D-05-0.128D-03
 Coeff:     -0.958D-04-0.284D-04 0.259D-03 0.477D-03 0.146D-03 0.114D-02
 Coeff:      0.119D-02-0.143D-02-0.182D-01-0.219D-01-0.597D-01 0.751D-01
 Coeff:      0.326D+00 0.697D+00
 Gap=     0.006 Goal=   None    Shift=    0.000
 RMSDP=5.03D-08 MaxDP=4.04D-06 DE=-1.50D-11 OVMax= 4.65D-06

 Cycle  29  Pass 1  IDiag  1:
 E= -1271.81981189652     Delta-E=        0.000000000001 Rises=F Damp=F
 DIIS: error= 1.34D-07 at cycle  29 NSaved=  20.
 NSaved=20 IEnMin=19 EnMin= -1271.81981189652     IErMin=19 ErrMin= 1.28D-07
 ErrMax= 1.34D-07  0.00D+00 EMaxC= 1.00D-01 BMatC= 1.06D-12 BMatP= 1.02D-12
 IDIUse=1 WtCom= 1.00D+00 WtEn= 0.00D+00
 Coeff-Com: -0.243D-04-0.136D-04-0.886D-05 0.701D-05 0.692D-04-0.165D-04
 Coeff-Com: -0.943D-05 0.961D-04 0.233D-03-0.389D-03 0.112D-02 0.126D-02
 Coeff-Com: -0.636D-03-0.100D-01-0.146D-01-0.675D-01-0.166D-01 0.125D+00
 Coeff-Com:  0.571D+00 0.411D+00
 Coeff:     -0.243D-04-0.136D-04-0.886D-05 0.701D-05 0.692D-04-0.165D-04
 Coeff:     -0.943D-05 0.961D-04 0.233D-03-0.389D-03 0.112D-02 0.126D-02
 Coeff:     -0.636D-03-0.100D-01-0.146D-01-0.675D-01-0.166D-01 0.125D+00
 Coeff:      0.571D+00 0.411D+00
 Gap=     0.006 Goal=   None    Shift=    0.000
 RMSDP=2.26D-08 MaxDP=2.09D-06 DE= 9.09D-13 OVMax= 3.50D-06

 Cycle  30  Pass 1  IDiag  1:
 E= -1271.81981189652     Delta-E=       -0.000000000003 Rises=F Damp=F
 DIIS: error= 7.67D-08 at cycle  30 NSaved=  20.
 NSaved=20 IEnMin=20 EnMin= -1271.81981189652     IErMin=20 ErrMin= 7.67D-08
 ErrMax= 7.67D-08  0.00D+00 EMaxC= 1.00D-01 BMatC= 2.45D-13 BMatP= 1.02D-12
 IDIUse=1 WtCom= 1.00D+00 WtEn= 0.00D+00
 Coeff-Com:  0.342D-05-0.249D-05-0.347D-05-0.320D-04-0.472D-05 0.820D-05
 Coeff-Com:  0.481D-04 0.245D-03-0.587D-04-0.333D-03-0.523D-04-0.170D-04
 Coeff-Com: -0.119D-02-0.308D-02-0.201D-01-0.959D-02-0.413D-02 0.102D+00
 Coeff-Com:  0.246D+00 0.690D+00
 Coeff:      0.342D-05-0.249D-05-0.347D-05-0.320D-04-0.472D-05 0.820D-05
 Coeff:      0.481D-04 0.245D-03-0.587D-04-0.333D-03-0.523D-04-0.170D-04
 Coeff:     -0.119D-02-0.308D-02-0.201D-01-0.959D-02-0.413D-02 0.102D+00
 Coeff:      0.246D+00 0.690D+00
 Gap=     0.006 Goal=   None    Shift=    0.000
 RMSDP=8.20D-09 MaxDP=6.41D-07 DE=-3.18D-12 OVMax= 7.77D-07

 SCF Done:  E(ROHF) =  -1271.81981190     A.U. after   30 cycles
            NFock= 30  Conv=0.82D-08     -V/T= 1.9596
 <Sx>= 0.0000 <Sy>= 0.0000 <Sz>= 1.5000 <S**2>= 3.7500 S= 1.5000
 <L.S>=  0.00000000000    
 KE= 1.325377922462D+03 PE=-3.102170405004D+03 EE= 4.968793721258D+02
 Annihilation of the first spin contaminant:
 S**2 before annihilation     3.7500,   after     3.7500
 Leave Link  502 at Wed Mar  7 11:04:59 2018, MaxMem= 10737418240 cpu:             422.2 elap:              15.9
 (Enter /home1/apps/gaussian/16rA.03/g16/l801.exe)
 Windowed orbitals will be sorted by symmetry type.
 GenMOA:  NOpAll=  4 NOp2=4 NOpUse=  4 JSym2X=1
 FoFJK:  IHMeth= 1 ICntrl=       0 DoSepK=F KAlg= 0 I1Cent=           0 FoldK=F
 IRaf=         0 NMat=       1 IRICut=       1 DoRegI=T DoRafI=F ISym2E= 1 IDoP0=0 IntGTp=1.
 FoFCou: FMM=F IPFlag=           8 FMFlag=      100000 FMFlg1=           0
         NFxFlg=           0 DoJE=F BraDBF=F KetDBF=F FulRan=T
         wScrn=  0.000000 ICntrl=         0 IOpCl=  1 I1Cent=           0 NGrid=           0
         NMat0=    1 NMatS0=      1 NMatT0=    0 NMatD0=    1 NMtDS0=    0 NMtDT0=    0
 Petite list used in FoFCou.
 <Sx>= 0.0000 <Sy>= 0.0000 <Sz>= 1.5000 <S**2>= 3.7500 S= 1.5000
 ExpMin= 1.40D-02 ExpMax= 4.32D+06 ExpMxC= 4.32D+06 IAcc=4 IRadAn=    199590 AccDes= 0.00D+00
 HarFok:  IExCor=  205 AccDes= 0.00D+00 IRadAn=    199590 IDoV=-2 UseB2=F ITyADJ=14
 ICtDFT= 12500011 ScaDFX=  1.000000  1.000000  1.000000  1.000000
 Spurious integrated density or basis function:
 NE=   27 NElCor=    0 El error=1.10D-07 rel=4.08D-09 Tolerance=1.00D-03
 Shell     1     absolute error=1.51D-02              Tolerance=1.20D-02
 Shell     2       signed error=3.25D-05              Tolerance=1.00D-01
 Largest valence mixing into a core orbital is  1.23D-04
 Largest core mixing into a valence orbital is  3.14D-05
 Largest valence mixing into a core orbital is  1.54D-04
 Largest core mixing into a valence orbital is  6.19D-05
 Range of M.O.s used for correlation:     6   212
 NBasis=   215 NAE=    15 NBE=    12 NFC=     5 NFV=     0
 NROrb=    207 NOA=    10 NOB=     7 NVA=   197 NVB=   200

 **** Warning!!: The largest alpha MO coefficient is  0.24225624D+03


 **** Warning!!: The largest beta MO coefficient is  0.24199508D+03

 Singles contribution to E2=   -0.6380684625D-02
 Leave Link  801 at Wed Mar  7 11:05:02 2018, MaxMem= 10737418240 cpu:             102.5 elap:               3.3
 (Enter /home1/apps/gaussian/16rA.03/g16/l804.exe)
 Open-shell transformation, MDV= 10737418240 ITran=4 ISComp=2.
 Unit  1 TFree=       1399425 TCopy=       1154413.
 Semi-Direct transformation.
 ModeAB=           2 MOrb=            10 LenV=   10735982371
 LASXX=     10991279 LTotXX=    10991279 LenRXX=    10991279
 LTotAB=    11212571 MaxLAS=    69160770 LenRXY=    69160770
 NonZer=    70510410 LenScr=   106536960 LnRSAI=           0
 LnScr1=           0 LExtra=     5309128 Total=    191998137
 MaxDsk= 67108864000 SrtSym=           F ITran=            4
 DoSDTr:  NPSUse= 32
 JobTyp=1 Pass  1:  I=   1 to  10.
 (rs|ai) integrals will be sorted in core.
 Complete sort for first half transformation.
 First half transformation complete.
 Begin second half transformation for I=  10.
 Begin second half transformation for I=  10.
 Complete sort for second half transformation.
 Second half transformation complete.
 ModeAB=           2 MOrb=             7 LenV=   10735982371
 LASXX=      7774332 LTotXX=     7774332 LenRXX=    48412539
 LTotAB=     7174273 MaxLAS=    48412539 LenRXY=     7174273
 NonZer=    49357287 LenScr=    74809344 LnRSAI=           0
 LnScr1=           0 LExtra=    85461177 Total=    215857333
 MaxDsk= 67108864000 SrtSym=           F ITran=            4
 DoSDTr:  NPSUse= 32
 JobTyp=2 Pass  1:  I=   1 to   7.
 (rs|ai) integrals will be sorted in core.
 Complete sort for first half transformation.
 First half transformation complete.
 Complete sort for second half transformation.
 Second half transformation complete.
 Spin components of T(2) and E(2):
     alpha-alpha T2 =       0.2932735724D-01 E2=     -0.1681457231D+00
     alpha-beta  T2 =       0.8802864836D-01 E2=     -0.5067733780D+00
     beta-beta   T2 =       0.1043719212D-01 E2=     -0.6770166813D-01
 ANorm=    0.1063228461D+01
 E2 =    -0.7490014539D+00 EUMP2 =    -0.12725688133504D+04
 (S**2,0)=  0.37500D+01           (S**2,1)=  0.37500D+01
 E(PUHF)=      -0.12718198119D+04        E(PMP2)=      -0.12725688134D+04
 Leave Link  804 at Wed Mar  7 11:06:35 2018, MaxMem= 10737418240 cpu:            2951.8 elap:              92.3
 (Enter /home1/apps/gaussian/16rA.03/g16/l913.exe)
 CIDS:  MDV= 10737418240.
 Frozen-core window:  NFC=   5 NFV=   0.
 IFCWin=0 IBDFC=1 NFBD=     0     0 NFCmp=     0     0 NFFFC=     0     0
 Using original routines for 1st iteration.
 Using DD4UQ or CC4UQ for 2nd and later iterations.
 Keep R2 and R3 ints in memory in symmetry-blocked form, NReq=338808056.
 FoFCou: FMM=F IPFlag=           8 FMFlag=           0 FMFlg1=           0
         NFxFlg=           0 DoJE=F BraDBF=F KetDBF=F FulRan=T
         wScrn=  0.000000 ICntrl=       600 IOpCl=  0 I1Cent=           0 NGrid=           0
         NMat0=    1 NMatS0=  23220 NMatT0=    0 NMatD0=    1 NMtDS0=    0 NMtDT0=    0
 Petite list used in FoFCou.
 CIDS: In Core Option IDoMem=           1.
 CCSD(T)
 =======
 Iterations= 150 Convergence= 0.100D-06
 Produce multiple copies of IABC intergrals
 Iteration Nr.   1
 **********************
 DD1Dir will call FoFMem   1 times, MxPair=       206
 NAB=    70 NAA=    45 NBB=    21.
 DD1Dir will call FoFMem   1 times, MxPair=       206
 NAB=    70 NAA=    45 NBB=    21.
 MP4(R+Q)= -0.67163808D-01
 Maximum subspace dimension=  5
 A-vector RMS=  4.6156986D-04 Max=  4.3644327D-03 conv= 1.00D-05.
 RLE energy=       -0.7457063397
 E3=        0.70168871D-01        EROMP3=      -0.12724986445D+04
 E4(SDQ)=  -0.47521759D-01        ROMP4(SDQ)=  -0.12725461662D+04
 VARIATIONAL ENERGIES WITH THE FIRST-ORDER WAVEFUNCTION:
 DE(Corr)= -0.74569126     E(Corr)=     -1272.5655032    
 NORM(A)=   0.10605179D+01
 Iteration Nr.   2
 **********************
 DD1Dir will call FoFMem   1 times, MxPair=       206
 NAB=    70 NAA=    45 NBB=    21.
 A-vector RMS=  4.6823936D-03 Max=  4.1705669D-02 conv= 1.00D-05.
 RLE energy=       -0.7310863930
 DE(Corr)= -0.67264898     E(CORR)=     -1272.4924609     Delta= 7.30D-02
 NORM(A)=   0.10580573D+01
 Iteration Nr.   3
 **********************
 DD1Dir will call FoFMem   1 times, MxPair=       206
 NAB=    70 NAA=    45 NBB=    21.
 A-vector RMS=  3.5339797D-03 Max=  3.3497159D-02 conv= 1.00D-05.
 RLE energy=       -0.7243789390
 DE(Corr)= -0.68085389     E(CORR)=     -1272.5006658     Delta=-8.20D-03
 NORM(A)=   0.10605176D+01
 Iteration Nr.   4
 **********************
 DD1Dir will call FoFMem   1 times, MxPair=       206
 NAB=    70 NAA=    45 NBB=    21.
 A-vector RMS=  3.1751221D-03 Max=  3.4071035D-02 conv= 1.00D-05.
 RLE energy=       -0.6880239076
 DE(Corr)= -0.68833818     E(CORR)=     -1272.5081501     Delta=-7.48D-03
 NORM(A)=   0.11063069D+01
 Iteration Nr.   5
 **********************
 DD1Dir will call FoFMem   1 times, MxPair=       206
 NAB=    70 NAA=    45 NBB=    21.
 A-vector RMS=  2.8628813D-03 Max=  2.5696723D-02 conv= 1.00D-05.
 RLE energy=       -0.7179666142
 DE(Corr)= -0.73151353     E(CORR)=     -1272.5513254     Delta=-4.32D-02
 NORM(A)=   0.10874506D+01
 Iteration Nr.   6
 **********************
 DD1Dir will call FoFMem   1 times, MxPair=       206
 NAB=    70 NAA=    45 NBB=    21.
 A-vector RMS=  1.6154521D-03 Max=  2.6932832D-02 conv= 1.00D-05.
 RLE energy=       -0.7121871711
 DE(Corr)= -0.70397428     E(CORR)=     -1272.5237862     Delta= 2.75D-02
 NORM(A)=   0.11264319D+01
 Iteration Nr.   7
 **********************
 DD1Dir will call FoFMem   1 times, MxPair=       206
 NAB=    70 NAA=    45 NBB=    21.
 A-vector RMS=  8.1607712D-04 Max=  1.1206328D-02 conv= 1.00D-05.
 RLE energy=       -0.7135689853
 DE(Corr)= -0.71280287     E(CORR)=     -1272.5326148     Delta=-8.83D-03
 NORM(A)=   0.11690332D+01
 Iteration Nr.   8
 **********************
 DD1Dir will call FoFMem   1 times, MxPair=       206
 NAB=    70 NAA=    45 NBB=    21.
 A-vector RMS=  9.4412467D-04 Max=  1.4585162D-02 conv= 1.00D-05.
 RLE energy=       -0.7153396439
 DE(Corr)= -0.71483215     E(CORR)=     -1272.5346441     Delta=-2.03D-03
 NORM(A)=   0.12149183D+01
 Iteration Nr.   9
 **********************
 DD1Dir will call FoFMem   1 times, MxPair=       206
 NAB=    70 NAA=    45 NBB=    21.
 A-vector RMS=  6.6659390D-04 Max=  8.8678515D-03 conv= 1.00D-05.
 RLE energy=       -0.7163815863
 DE(Corr)= -0.71448349     E(CORR)=     -1272.5342954     Delta= 3.49D-04
 NORM(A)=   0.12531899D+01
 Iteration Nr.  10
 **********************
 DD1Dir will call FoFMem   1 times, MxPair=       206
 NAB=    70 NAA=    45 NBB=    21.
 A-vector RMS=  5.6409339D-04 Max=  7.3250645D-03 conv= 1.00D-05.
 RLE energy=       -0.7148954232
 DE(Corr)= -0.71638080     E(CORR)=     -1272.5361927     Delta=-1.90D-03
 NORM(A)=   0.12461249D+01
 Iteration Nr.  11
 **********************
 DD1Dir will call FoFMem   1 times, MxPair=       206
 NAB=    70 NAA=    45 NBB=    21.
 A-vector RMS=  3.1523523D-04 Max=  4.2538202D-03 conv= 1.00D-05.
 RLE energy=       -0.7161697951
 DE(Corr)= -0.71580647     E(CORR)=     -1272.5356184     Delta= 5.74D-04
 NORM(A)=   0.12575038D+01
 Iteration Nr.  12
 **********************
 DD1Dir will call FoFMem   1 times, MxPair=       206
 NAB=    70 NAA=    45 NBB=    21.
 A-vector RMS=  2.7114970D-04 Max=  3.1823579D-03 conv= 1.00D-05.
 RLE energy=       -0.7155867047
 DE(Corr)= -0.71556406     E(CORR)=     -1272.5353760     Delta= 2.42D-04
 NORM(A)=   0.12672170D+01
 Iteration Nr.  13
 **********************
 DD1Dir will call FoFMem   1 times, MxPair=       206
 NAB=    70 NAA=    45 NBB=    21.
 A-vector RMS=  2.6760419D-04 Max=  4.9411281D-03 conv= 1.00D-05.
 RLE energy=       -0.7159682675
 DE(Corr)= -0.71627130     E(CORR)=     -1272.5360832     Delta=-7.07D-04
 NORM(A)=   0.12695260D+01
 Iteration Nr.  14
 **********************
 DD1Dir will call FoFMem   1 times, MxPair=       206
 NAB=    70 NAA=    45 NBB=    21.
 A-vector RMS=  2.5352088D-04 Max=  3.5281039D-03 conv= 1.00D-05.
 RLE energy=       -0.7166613820
 DE(Corr)= -0.71614125     E(CORR)=     -1272.5359531     Delta= 1.30D-04
 NORM(A)=   0.12785751D+01
 Iteration Nr.  15
 **********************
 DD1Dir will call FoFMem   1 times, MxPair=       206
 NAB=    70 NAA=    45 NBB=    21.
 A-vector RMS=  1.7057916D-04 Max=  2.2015517D-03 conv= 1.00D-05.
 RLE energy=       -0.7164499008
 DE(Corr)= -0.71625593     E(CORR)=     -1272.5360678     Delta=-1.15D-04
 NORM(A)=   0.12831880D+01
 Iteration Nr.  16
 **********************
 DD1Dir will call FoFMem   1 times, MxPair=       206
 NAB=    70 NAA=    45 NBB=    21.
 A-vector RMS=  1.1436536D-04 Max=  1.2909139D-03 conv= 1.00D-05.
 RLE energy=       -0.7166478316
 DE(Corr)= -0.71677692     E(CORR)=     -1272.5365888     Delta=-5.21D-04
 NORM(A)=   0.12820319D+01
 Iteration Nr.  17
 **********************
 DD1Dir will call FoFMem   1 times, MxPair=       206
 NAB=    70 NAA=    45 NBB=    21.
 A-vector RMS=  7.2782280D-05 Max=  7.3934634D-04 conv= 1.00D-05.
 RLE energy=       -0.7166944726
 DE(Corr)= -0.71659301     E(CORR)=     -1272.5364049     Delta= 1.84D-04
 NORM(A)=   0.12835442D+01
 Iteration Nr.  18
 **********************
 DD1Dir will call FoFMem   1 times, MxPair=       206
 NAB=    70 NAA=    45 NBB=    21.
 A-vector RMS=  3.3069078D-05 Max=  4.3968618D-04 conv= 1.00D-05.
 RLE energy=       -0.7166709576
 DE(Corr)= -0.71668107     E(CORR)=     -1272.5364930     Delta=-8.81D-05
 NORM(A)=   0.12838381D+01
 Iteration Nr.  19
 **********************
 DD1Dir will call FoFMem   1 times, MxPair=       206
 NAB=    70 NAA=    45 NBB=    21.
 A-vector RMS=  2.6052518D-05 Max=  3.6904986D-04 conv= 1.00D-05.
 RLE energy=       -0.7167108765
 DE(Corr)= -0.71674328     E(CORR)=     -1272.5365552     Delta=-6.22D-05
 NORM(A)=   0.12838431D+01
 Iteration Nr.  20
 **********************
 DD1Dir will call FoFMem   1 times, MxPair=       206
 NAB=    70 NAA=    45 NBB=    21.
 A-vector RMS=  1.6518577D-05 Max=  2.5901553D-04 conv= 1.00D-05.
 RLE energy=       -0.7167236099
 DE(Corr)= -0.71672427     E(CORR)=     -1272.5365362     Delta= 1.90D-05
 NORM(A)=   0.12838902D+01
 Iteration Nr.  21
 **********************
 DD1Dir will call FoFMem   1 times, MxPair=       206
 NAB=    70 NAA=    45 NBB=    21.
 A-vector RMS=  9.7736018D-06 Max=  1.0318542D-04 conv= 1.00D-05.
 RLE energy=       -0.7167127684
 DE(Corr)= -0.71672779     E(CORR)=     -1272.5365397     Delta=-3.52D-06
 NORM(A)=   0.12837850D+01
 Iteration Nr.  22
 **********************
 DD1Dir will call FoFMem   1 times, MxPair=       206
 NAB=    70 NAA=    45 NBB=    21.
 A-vector RMS=  7.2651901D-06 Max=  7.9276830D-05 conv= 1.00D-05.
 RLE energy=       -0.7167282112
 DE(Corr)= -0.71673196     E(CORR)=     -1272.5365439     Delta=-4.17D-06
 NORM(A)=   0.12835868D+01
 Iteration Nr.  23
 **********************
 DD1Dir will call FoFMem   1 times, MxPair=       206
 NAB=    70 NAA=    45 NBB=    21.
 A-vector RMS=  8.0048027D-06 Max=  8.1903183D-05 conv= 1.00D-05.
 RLE energy=       -0.7167202671
 DE(Corr)= -0.71671214     E(CORR)=     -1272.5365240     Delta= 1.98D-05
 NORM(A)=   0.12836148D+01
 Iteration Nr.  24
 **********************
 DD1Dir will call FoFMem   1 times, MxPair=       206
 NAB=    70 NAA=    45 NBB=    21.
 A-vector RMS=  2.9930816D-06 Max=  3.4997232D-05 conv= 1.00D-05.
 RLE energy=       -0.7167170024
 DE(Corr)= -0.71672010     E(CORR)=     -1272.5365320     Delta=-7.96D-06
 NORM(A)=   0.12835752D+01
 Iteration Nr.  25
 **********************
 DD1Dir will call FoFMem   1 times, MxPair=       206
 NAB=    70 NAA=    45 NBB=    21.
 A-vector RMS=  1.9227116D-06 Max=  2.6461620D-05 conv= 1.00D-05.
 RLE energy=       -0.7167184688
 DE(Corr)= -0.71671992     E(CORR)=     -1272.5365318     Delta= 1.87D-07
 NORM(A)=   0.12835426D+01
 Iteration Nr.  26
 **********************
 DD1Dir will call FoFMem   1 times, MxPair=       206
 NAB=    70 NAA=    45 NBB=    21.
 A-vector RMS=  1.3418201D-06 Max=  2.2226438D-05 conv= 1.00D-05.
 RLE energy=       -0.7167178985
 DE(Corr)= -0.71671708     E(CORR)=     -1272.5365290     Delta= 2.84D-06
 NORM(A)=   0.12835297D+01
 Iteration Nr.  27
 **********************
 DD1Dir will call FoFMem   1 times, MxPair=       206
 NAB=    70 NAA=    45 NBB=    21.
 A-vector RMS=  8.9919126D-07 Max=  1.1102671D-05 conv= 1.00D-05.
 RLE energy=       -0.7167163385
 DE(Corr)= -0.71671682     E(CORR)=     -1272.5365287     Delta= 2.60D-07
 NORM(A)=   0.12835054D+01
 Iteration Nr.  28
 **********************
 DD1Dir will call FoFMem   1 times, MxPair=       206
 NAB=    70 NAA=    45 NBB=    21.
 A-vector RMS=  6.4308851D-07 Max=  7.3983169D-06 conv= 1.00D-05.
 RLE energy=       -0.7167160807
 DE(Corr)= -0.71671627     E(CORR)=     -1272.5365282     Delta= 5.48D-07
 NORM(A)=   0.12834839D+01
 Iteration Nr.  29
 **********************
 DD1Dir will call FoFMem   1 times, MxPair=       206
 NAB=    70 NAA=    45 NBB=    21.
 A-vector RMS=  4.2694978D-07 Max=  5.0529485D-06 conv= 1.00D-05.
 RLE energy=       -0.7167153492
 DE(Corr)= -0.71671517     E(CORR)=     -1272.5365271     Delta= 1.10D-06
 NORM(A)=   0.12834801D+01
 Iteration Nr.  30
 **********************
 DD1Dir will call FoFMem   1 times, MxPair=       206
 NAB=    70 NAA=    45 NBB=    21.
 A-vector RMS=  5.4637284D-07 Max=  6.1854969D-06 conv= 1.00D-05.
 RLE energy=       -0.7167150093
 DE(Corr)= -0.71671547     E(CORR)=     -1272.5365274     Delta=-2.97D-07
 NORM(A)=   0.12834683D+01
 Iteration Nr.  31
 **********************
 DD1Dir will call FoFMem   1 times, MxPair=       206
 NAB=    70 NAA=    45 NBB=    21.
 A-vector RMS=  2.7215334D-07 Max=  3.4057461D-06 conv= 1.00D-05.
 RLE energy=       -0.7167149787
 DE(Corr)= -0.71671502     E(CORR)=     -1272.5365269     Delta= 4.47D-07
 NORM(A)=   0.12834610D+01
 Iteration Nr.  32
 **********************
 DD1Dir will call FoFMem   1 times, MxPair=       206
 NAB=    70 NAA=    45 NBB=    21.
 A-vector RMS=  1.6662449D-07 Max=  1.9979870D-06 conv= 1.00D-05.
 RLE energy=       -0.7167147374
 DE(Corr)= -0.71671471     E(CORR)=     -1272.5365266     Delta= 3.11D-07
 NORM(A)=   0.12834549D+01
 Iteration Nr.  33
 **********************
 DD1Dir will call FoFMem   1 times, MxPair=       206
 NAB=    70 NAA=    45 NBB=    21.
 A-vector RMS=  1.5694058D-07 Max=  2.4375895D-06 conv= 1.00D-05.
 RLE energy=       -0.7167146191
 DE(Corr)= -0.71671467     E(CORR)=     -1272.5365266     Delta= 3.93D-08
 NORM(A)=   0.12834521D+01
 CI/CC converged in   33 iterations to DelEn= 3.93D-08 Conv= 1.00D-07 ErrA1= 1.57D-07 Conv= 1.00D-05
 Wavefunction amplitudes converged. E(Corr)=     -1272.5365266    
 Dominant configurations:
 ***********************
 Spin Case        I    J    A    B          Value
    BB           10        13           -0.197760D+00
    BB           10        17           -0.178065D+00
    BB           10        26            0.101267D+00
    BB           12        13            0.410113D+00
    BB           12        17            0.368354D+00
    BB           12        26           -0.216076D+00
 Largest amplitude= 4.10D-01
 Time for triples=    11665.65 seconds.
 T4(CCSD)= -0.42885360D-01
 T5(CCSD)=  0.17175844D-01
 CCSD(T)= -0.12725622361D+04
 Discarding MO integrals.
 Leave Link  913 at Wed Mar  7 11:18:13 2018, MaxMem= 10737418240 cpu:           22241.2 elap:             697.6
 (Enter /home1/apps/gaussian/16rA.03/g16/l601.exe)
 Copying SCF densities to generalized density rwf, IOpCl= 0 IROHF=1.

 **********************************************************************

            Population analysis using the SCF density.

 **********************************************************************

 Orbital symmetries:
       Occupied  (SG) (SG) (PI) (PI) (SG) (SG) (SG) (PI) (PI) (SG)
                 (?A) (SG) (PI) (PI) (?A)
       Virtual   (SG) (PI) (PI) (SG) (SG) (PI) (PI) (SG) (DLTA)
                 (DLTA) (PI) (PI) (SG) (SG) (SG) (PI) (PI) (SG)
                 (PI) (PI) (?A) (?A) (PI) (PI) (SG) (SG) (SG) (SG)
                 (DLTA) (DLTA) (PI) (PI) (SG) (PHI) (PHI) (PI)
                 (PI) (SG) (PI) (PI) (DLTA) (DLTA) (PI) (PI) (SG)
                 (DLTA) (DLTA) (SG) (PI) (PI) (SG) (SG) (SG) (SG)
                 (?B) (?B) (?B) (?B) (?B) (?B) (DLTA) (DLTA) (SG)
                 (SG) (PI) (PI) (DLTA) (DLTA) (?C) (?C) (?D) (?D)
                 (DLTA) (DLTA) (?C) (?C) (DLTA) (DLTA) (SG) (PI)
                 (PI) (PI) (PI) (SG) (SG) (SG) (?E) (?E) (DLTA)
                 (DLTA) (?E) (?E) (DLTA) (DLTA) (SG) (?E) (?E)
                 (PI) (PI) (SG) (SG) (?C) (?C) (DLTA) (?D) (?D)
                 (DLTA) (?C) (?C) (SG) (SG) (SG) (DLTA) (DLTA)
                 (PI) (PI) (SG) (PI) (PI) (SG) (DLTA) (?C) (?C)
                 (DLTA) (?C) (?C) (SG) (?C) (?C) (DLTA) (?F) (?F)
                 (DLTA) (?C) (?C) (?F) (SG) (DLTA) (DLTA) (PI)
                 (PI) (SG) (PI) (PI) (SG) (DLTA) (DLTA) (PI) (PI)
                 (SG) (SG) (SG) (PI) (PI) (SG) (DLTA) (DLTA) (PI)
                 (PI) (SG) (SG) (PI) (PI) (SG) (SG) (PI) (PI) (SG)
                 (DLTA) (DLTA) (PI) (PI) (SG) (PI) (PI) (SG) (SG)
                 (PI) (PI) (SG) (SG) (PI) (PI) (SG) (SG) (SG) (PI)
                 (PI) (SG) (SG) (PI) (PI) (SG) (SG) (SG) (SG) (SG)
 Unable to determine electronic state:  an orbital has unidentified symmetry.
 Alpha  occ. eigenvalues -- -263.52995 -32.30368 -27.37254 -27.37254 -27.37122
 Alpha  occ. eigenvalues --   -4.20096  -2.75160  -2.74628  -2.74628  -0.49173
 Alpha  occ. eigenvalues --   -0.49173  -0.48652  -0.43680  -0.43416  -0.31928
 Alpha virt. eigenvalues --   -0.00639   0.02407   0.02407   0.03296   0.04026
 Alpha virt. eigenvalues --    0.08440   0.08440   0.09529   0.10167   0.10208
 Alpha virt. eigenvalues --    0.10396   0.10396   0.10892   0.17127   0.23252
 Alpha virt. eigenvalues --    0.27778   0.27778   0.29047   0.35119   0.35119
 Alpha virt. eigenvalues --    0.37119   0.37583   0.39118   0.39118   0.39364
 Alpha virt. eigenvalues --    0.50367   0.57937   0.70647   0.86623   0.86743
 Alpha virt. eigenvalues --    0.91457   0.91457   0.96045   0.99272   0.99272
 Alpha virt. eigenvalues --    1.02833   1.02833   1.09687   1.10567   1.10567
 Alpha virt. eigenvalues --    1.13487   1.13974   1.16786   1.16786   1.17863
 Alpha virt. eigenvalues --    1.22869   1.24242   1.48863   1.67512   1.67512
 Alpha virt. eigenvalues --    1.98608   2.06189   2.66086   2.93182   2.93182
 Alpha virt. eigenvalues --    2.93342   2.93772   2.94281   2.94281   2.95324
 Alpha virt. eigenvalues --    2.96175   2.96175   3.24681   3.33818   3.35595
 Alpha virt. eigenvalues --    3.35595   3.39832   3.42374   3.52437   3.52437
 Alpha virt. eigenvalues --    3.53766   3.53908   3.53911   3.54732   3.66472
 Alpha virt. eigenvalues --    3.66472   4.02580   4.02672   4.09967   4.34085
 Alpha virt. eigenvalues --    4.34085   4.57312   4.57312   4.87741   5.30390
 Alpha virt. eigenvalues --    5.99441   7.72730   7.74933   7.74933   7.75566
 Alpha virt. eigenvalues --    7.79474   7.79474   7.81773   7.84882   7.85086
 Alpha virt. eigenvalues --    7.89226   7.89226   8.12812   8.12812   8.20358
 Alpha virt. eigenvalues --    8.48180  10.00255  10.00255  10.01926  10.03166
 Alpha virt. eigenvalues --   10.03179  10.04152  10.20534  10.20534  10.31506
 Alpha virt. eigenvalues --   10.55131  13.61387  15.60102  15.63535  15.65308
 Alpha virt. eigenvalues --   15.65308  15.77046  18.83843  18.83843  19.10250
 Alpha virt. eigenvalues --   20.61681  20.64039  20.64039  20.64501  20.69072
 Alpha virt. eigenvalues --   20.69072  20.88000  26.18275  26.18275  26.19022
 Alpha virt. eigenvalues --   26.21248  26.21298  26.21690  26.30020  26.30020
 Alpha virt. eigenvalues --   26.46728  28.44158  28.76204  28.79884  28.81381
 Alpha virt. eigenvalues --   28.81381  28.93631  38.61638  38.61638  38.98454
 Alpha virt. eigenvalues --   52.16833  52.20195  52.21747  52.21747  52.31846
 Alpha virt. eigenvalues --   58.56807  61.96699  75.83580  75.83580  76.31841
 Alpha virt. eigenvalues --  112.28990 112.31012 112.32954 112.32954 112.40170
 Alpha virt. eigenvalues --  130.44603 153.79007 153.79007 154.29912 318.32417
 Alpha virt. eigenvalues --  328.86080 328.86080 329.32529 346.26941 346.27520
 Alpha virt. eigenvalues --  346.29422 346.29422 346.33829 735.59958 735.59958
 Alpha virt. eigenvalues --  736.00832 794.510731710.666481710.666481711.00919
 Alpha virt. eigenvalues -- 1938.418884129.930624129.930624130.199234563.68766
 Alpha virt. eigenvalues -- **************************************************
 Alpha virt. eigenvalues -- **************************************************
 Alpha virt. eigenvalues -- ********************
     Molecular Orbital Coefficients:
                           8         9        10        11        12
                           O         O         O         O         O
     Eigenvalues --    -2.74628  -2.74628  -0.49173  -0.49173  -0.48652
   1 1   Fe 1S          0.00000   0.00000  -0.00000   0.00000  -0.00000
   2        2S          0.00000   0.00000  -0.00000   0.00000  -0.00001
   3        3S          0.00000   0.00000  -0.00001   0.00000  -0.00002
   4        4S          0.00000   0.00000  -0.00002   0.00000  -0.00005
   5        5S          0.00000   0.00000  -0.00005   0.00000  -0.00013
   6        6S          0.00000   0.00000  -0.00012   0.00000  -0.00034
   7        7S          0.00000   0.00000  -0.00032   0.00000  -0.00091
   8        8S          0.00000   0.00000  -0.00081   0.00000  -0.00227
   9        9S          0.00000   0.00000  -0.00180   0.00000  -0.00503
  10       10S          0.00000   0.00000  -0.00332   0.00000  -0.00926
  11       11S          0.00000   0.00000  -0.00375   0.00000  -0.01052
  12       12S          0.00000   0.00000   0.00123   0.00000   0.00357
  13       13S          0.00000   0.00000   0.01639   0.00000   0.04609
  14       14S          0.00000   0.00000   0.02317   0.00000   0.06886
  15       15S          0.00000   0.00000  -0.01355   0.00000  -0.02955
  16       16S          0.00000   0.00000  -0.03683   0.00000  -0.14433
  17       17S          0.00000   0.00000  -0.04731   0.00000  -0.14589
  18       18S          0.00000   0.00000   0.01681   0.00000   0.17935
  19       19S          0.00000   0.00000   0.04795   0.00000   0.22379
  20       20S          0.00000   0.00000   0.01244   0.00000   0.09328
  21       21S          0.00000   0.00000   0.00344   0.00000   0.00075
  22       22S          0.00000   0.00000  -0.00955   0.00000  -0.00051
  23       23S          0.00000   0.00000  -0.00687   0.00000  -0.01592
  24       24PX        -0.00004   0.00000   0.00000   0.00000   0.00000
  25       24PY         0.00000  -0.00004   0.00000   0.00000   0.00000
  26       24PZ         0.00000   0.00000  -0.00000   0.00000  -0.00000
  27       25PX        -0.00020   0.00000   0.00000   0.00000   0.00000
  28       25PY         0.00000  -0.00020   0.00000   0.00000   0.00000
  29       25PZ         0.00000   0.00000  -0.00001   0.00000  -0.00001
  30       26PX        -0.00094   0.00000   0.00000   0.00000   0.00000
  31       26PY         0.00000  -0.00094   0.00000   0.00000   0.00000
  32       26PZ         0.00000   0.00000  -0.00005   0.00000  -0.00007
  33       27PX        -0.00373   0.00000   0.00000   0.00000   0.00000
  34       27PY         0.00000  -0.00373   0.00000   0.00000   0.00000
  35       27PZ         0.00000   0.00000  -0.00021   0.00000  -0.00026
  36       28PX        -0.01274   0.00000   0.00000   0.00000   0.00000
  37       28PY         0.00000  -0.01274   0.00000   0.00000   0.00000
  38       28PZ         0.00000   0.00000  -0.00072   0.00000  -0.00090
  39       29PX        -0.03650   0.00000   0.00000   0.00000   0.00000
  40       29PY         0.00000  -0.03650   0.00000   0.00000   0.00000
  41       29PZ         0.00000   0.00000  -0.00210   0.00000  -0.00254
  42       30PX        -0.08200   0.00000   0.00000   0.00000   0.00000
  43       30PY         0.00000  -0.08200   0.00000   0.00000   0.00000
  44       30PZ         0.00000   0.00000  -0.00460   0.00000  -0.00581
  45       31PX        -0.13728   0.00000   0.00000   0.00000   0.00000
  46       31PY         0.00000  -0.13728   0.00000   0.00000   0.00000
  47       31PZ         0.00000   0.00000  -0.00810   0.00000  -0.00952
  48       32PX        -0.13612   0.00000   0.00000   0.00000   0.00000
  49       32PY         0.00000  -0.13612   0.00000   0.00000   0.00000
  50       32PZ         0.00000   0.00000  -0.00681   0.00000  -0.01030
  51       33PX         0.07424   0.00000   0.00000   0.00000   0.00000
  52       33PY         0.00000   0.07424   0.00000   0.00000   0.00000
  53       33PZ         0.00000   0.00000   0.01559   0.00000  -0.00023
  54       34PX         0.31749   0.00000   0.00000   0.00000   0.00000
  55       34PY         0.00000   0.31749   0.00000   0.00000   0.00000
  56       34PZ         0.00000   0.00000   0.01855   0.00000   0.02668
  57       35PX         0.24553   0.00000   0.00000   0.00000   0.00000
  58       35PY         0.00000   0.24553   0.00000   0.00000   0.00000
  59       35PZ         0.00000   0.00000   0.02641   0.00000   0.01148
  60       36PX         0.29247   0.00000   0.00000   0.00000   0.00000
  61       36PY         0.00000   0.29247   0.00000   0.00000   0.00000
  62       36PZ         0.00000   0.00000   0.02091   0.00000   0.02916
  63       37PX         0.04708   0.00000   0.00000   0.00000   0.00000
  64       37PY         0.00000   0.04708   0.00000   0.00000   0.00000
  65       37PZ         0.00000   0.00000  -0.02046   0.00000  -0.03803
  66       38PX        -0.00258   0.00000   0.00000   0.00000   0.00000
  67       38PY         0.00000  -0.00258   0.00000   0.00000   0.00000
  68       38PZ         0.00000   0.00000  -0.04995   0.00000  -0.02934
  69       39PX         0.00168   0.00000   0.00000   0.00000   0.00000
  70       39PY         0.00000   0.00168   0.00000   0.00000   0.00000
  71       39PZ         0.00000   0.00000  -0.01884   0.00000  -0.01185
  72       40PX        -0.03774   0.00000   0.00000   0.00000   0.00000
  73       40PY         0.00000  -0.03774   0.00000   0.00000   0.00000
  74       40PZ         0.00000   0.00000  -0.01222   0.00000   0.00360
  75       41PX         0.21025   0.00000   0.00000   0.00000   0.00000
  76       41PY         0.00000   0.21025   0.00000   0.00000   0.00000
  77       41PZ         0.00000   0.00000   0.00670   0.00000   0.02504
  78       42PX        -0.00051   0.00000   0.00000   0.00000   0.00000
  79       42PY         0.00000  -0.00051   0.00000   0.00000   0.00000
  80       42PZ         0.00000   0.00000   0.00471   0.00000   0.00437
  81       43D 0        0.00000   0.00000   0.00244   0.00000  -0.00206
  82       43D+1        0.00002   0.00000   0.00000   0.00000   0.00000
  83       43D-1        0.00000   0.00002   0.00000   0.00000   0.00000
  84       43D+2        0.00000   0.00000  -0.00000   0.00000   0.00000
  85       43D-2        0.00000   0.00000   0.00000   0.00343   0.00000
  86       44D 0        0.00000   0.00000   0.01767   0.00000  -0.01491
  87       44D+1        0.00014   0.00000   0.00000   0.00000   0.00000
  88       44D-1        0.00000   0.00014   0.00000   0.00000   0.00000
  89       44D+2        0.00000   0.00000  -0.00000   0.00000   0.00000
  90       44D-2        0.00000   0.00000   0.00000   0.02481   0.00000
  91       45D 0        0.00000   0.00000   0.06790   0.00000  -0.05746
  92       45D+1        0.00050   0.00000   0.00000   0.00000   0.00000
  93       45D-1        0.00000   0.00050   0.00000   0.00000   0.00000
  94       45D+2        0.00000   0.00000  -0.00000   0.00000   0.00000
  95       45D-2        0.00000   0.00000   0.00000   0.09564   0.00000
  96       46D 0        0.00000   0.00000   0.16821   0.00000  -0.13804
  97       46D+1        0.00206   0.00000   0.00000   0.00000   0.00000
  98       46D-1        0.00000   0.00206   0.00000   0.00000   0.00000
  99       46D+2        0.00000   0.00000  -0.00000   0.00000   0.00000
 100       46D-2        0.00000   0.00000   0.00000   0.22807   0.00000
 101       47D 0        0.00000   0.00000   0.18010   0.00000  -0.21309
 102       47D+1       -0.00649   0.00000   0.00000   0.00000   0.00000
 103       47D-1        0.00000  -0.00649   0.00000   0.00000   0.00000
 104       47D+2        0.00000   0.00000  -0.00000   0.00000   0.00000
 105       47D-2        0.00000   0.00000   0.00000   0.36448   0.00000
 106       48D 0        0.00000   0.00000   0.26195   0.00000  -0.21676
 107       48D+1        0.00443   0.00000   0.00000   0.00000   0.00000
 108       48D-1        0.00000   0.00443   0.00000   0.00000   0.00000
 109       48D+2        0.00000   0.00000  -0.00000   0.00000   0.00000
 110       48D-2        0.00000   0.00000   0.00000   0.35582   0.00000
 111       49D 0        0.00000   0.00000   0.20190   0.00000  -0.15790
 112       49D+1        0.00162   0.00000   0.00000   0.00000   0.00000
 113       49D-1        0.00000   0.00162   0.00000   0.00000   0.00000
 114       49D+2        0.00000   0.00000  -0.00000   0.00000   0.00000
 115       49D-2        0.00000   0.00000   0.00000   0.26182   0.00000
 116       50D 0        0.00000   0.00000   0.07652   0.00000  -0.07447
 117       50D+1       -0.00011   0.00000   0.00000   0.00000   0.00000
 118       50D-1        0.00000  -0.00011   0.00000   0.00000   0.00000
 119       50D+2        0.00000   0.00000  -0.00000   0.00000   0.00000
 120       50D-2        0.00000   0.00000   0.00000   0.08708   0.00000
 121       51D 0        0.00000   0.00000  -0.00534   0.00000  -0.00073
 122       51D+1       -0.00088   0.00000   0.00000   0.00000   0.00000
 123       51D-1        0.00000  -0.00088   0.00000   0.00000   0.00000
 124       51D+2        0.00000   0.00000  -0.00000   0.00000   0.00000
 125       51D-2        0.00000   0.00000   0.00000   0.00316   0.00000
 126       52D 0        0.00000   0.00000   0.06612   0.00000   0.00540
 127       52D+1        0.00883   0.00000   0.00000   0.00000   0.00000
 128       52D-1        0.00000   0.00883   0.00000   0.00000   0.00000
 129       52D+2        0.00000   0.00000   0.00000   0.00000  -0.00000
 130       52D-2        0.00000   0.00000   0.00000  -0.02009   0.00000
 131       53D 0        0.00000   0.00000   0.00043   0.00000  -0.00274
 132       53D+1        0.00004   0.00000   0.00000   0.00000   0.00000
 133       53D-1        0.00000   0.00004   0.00000   0.00000   0.00000
 134       53D+2        0.00000   0.00000   0.00000   0.00000   0.00000
 135       53D-2        0.00000   0.00000   0.00000  -0.00196   0.00000
 136       54F 0        0.00000   0.00000   0.00007   0.00000  -0.00038
 137       54F+1       -0.00061   0.00000   0.00000   0.00000   0.00000
 138       54F-1        0.00000  -0.00061   0.00000   0.00000   0.00000
 139       54F+2        0.00000   0.00000  -0.00000   0.00000   0.00000
 140       54F-2        0.00000   0.00000   0.00000   0.00031   0.00000
 141       54F+3       -0.00104   0.00000   0.00000   0.00000   0.00000
 142       54F-3        0.00000   0.00104   0.00000   0.00000   0.00000
 143       55F 0        0.00000   0.00000   0.00062   0.00000  -0.00131
 144       55F+1       -0.00119   0.00000   0.00000   0.00000   0.00000
 145       55F-1        0.00000  -0.00119   0.00000   0.00000   0.00000
 146       55F+2        0.00000   0.00000  -0.00000   0.00000   0.00000
 147       55F-2        0.00000   0.00000   0.00000   0.00108   0.00000
 148       55F+3       -0.00245   0.00000   0.00000   0.00000   0.00000
 149       55F-3        0.00000   0.00245   0.00000   0.00000   0.00000
 150       56F 0        0.00000   0.00000  -0.00036   0.00000  -0.00609
 151       56F+1       -0.00183   0.00000   0.00000   0.00000   0.00000
 152       56F-1        0.00000  -0.00183   0.00000   0.00000   0.00000
 153       56F+2        0.00000   0.00000  -0.00000   0.00000   0.00000
[...]
  19       19S          0.31428   0.15714   0.15714   0.00000
  20       20S          0.12562   0.06281   0.06281   0.00000
  21       21S         -0.04928  -0.02464  -0.02464  -0.00000
  22       22S          0.03545   0.01772   0.01772   0.00000
  23       23S         -0.01791  -0.00896  -0.00896   0.00000
  24       24PX         0.00000   0.00000   0.00000   0.00000
  25       24PY         0.00000   0.00000   0.00000   0.00000
  26       24PZ         0.00000   0.00000   0.00000   0.00000
  27       25PX         0.00003   0.00001   0.00001   0.00000
  28       25PY         0.00003   0.00001   0.00001   0.00000
  29       25PZ         0.00003   0.00001   0.00001   0.00000
  30       26PX         0.00045   0.00022   0.00022   0.00000
  31       26PY         0.00045   0.00022   0.00022   0.00000
  32       26PZ         0.00045   0.00022   0.00022   0.00000
  33       27PX         0.00437   0.00219   0.00219   0.00000
  34       27PY         0.00437   0.00219   0.00219   0.00000
  35       27PZ         0.00438   0.00219   0.00219   0.00000
  36       28PX         0.02925   0.01462   0.01462   0.00000
  37       28PY         0.02925   0.01462   0.01462   0.00000
  38       28PZ         0.02929   0.01465   0.01465   0.00000
  39       29PX         0.13272   0.06636   0.06636   0.00000
  40       29PY         0.13272   0.06636   0.06636   0.00000
  41       29PZ         0.13290   0.06645   0.06645   0.00000
  42       30PX         0.38705   0.19353   0.19352   0.00001
  43       30PY         0.38705   0.19353   0.19352   0.00001
  44       30PZ         0.38752   0.19376   0.19376   0.00000
  45       31PX         0.67505   0.33753   0.33752   0.00001
  46       31PY         0.67505   0.33753   0.33752   0.00001
  47       31PZ         0.67547   0.33773   0.33773   0.00000
  48       32PX         0.58094   0.29047   0.29047  -0.00001
  49       32PY         0.58094   0.29047   0.29047  -0.00001
  50       32PZ         0.58078   0.29039   0.29039  -0.00000
  51       33PX         0.26707   0.13354   0.13353   0.00001
  52       33PY         0.26707   0.13354   0.13353   0.00001
  53       33PZ         0.27142   0.13571   0.13571  -0.00000
  54       34PX         0.51652   0.25831   0.25822   0.00009
  55       34PY         0.51652   0.25831   0.25822   0.00009
  56       34PZ         0.52114   0.26057   0.26057   0.00000
  57       35PX         0.48806   0.24405   0.24401   0.00004
  58       35PY         0.48806   0.24405   0.24401   0.00004
  59       35PZ         0.49239   0.24620   0.24620  -0.00000
  60       36PX         0.50133   0.25066   0.25067  -0.00001
  61       36PY         0.50133   0.25066   0.25067  -0.00001
  62       36PZ         0.49313   0.24656   0.24656   0.00000
  63       37PX         0.05013   0.02525   0.02488   0.00037
  64       37PY         0.05013   0.02525   0.02488   0.00037
  65       37PZ         0.07157   0.03578   0.03578  -0.00000
  66       38PX        -0.00093  -0.00031  -0.00061   0.00030
  67       38PY        -0.00093  -0.00031  -0.00061   0.00030
  68       38PZ         0.05090   0.02545   0.02545   0.00000
  69       39PX         0.00026   0.00012   0.00014  -0.00002
  70       39PY         0.00026   0.00012   0.00014  -0.00002
  71       39PZ         0.01784   0.00892   0.00892   0.00000
  72       40PX        -0.00199  -0.00100  -0.00099  -0.00000
  73       40PY        -0.00199  -0.00100  -0.00099  -0.00000
  74       40PZ        -0.00564  -0.00282  -0.00282   0.00000
  75       41PX         0.37034   0.18521   0.18513   0.00007
  76       41PY         0.37034   0.18521   0.18513   0.00007
  77       41PZ         0.37404   0.18702   0.18702   0.00000
  78       42PX        -0.00002  -0.00001  -0.00001   0.00000
  79       42PY        -0.00002  -0.00001  -0.00001   0.00000
  80       42PZ        -0.00262  -0.00131  -0.00131  -0.00000
  81       43D 0        0.00027   0.00014   0.00014   0.00000
  82       43D+1        0.00016   0.00016   0.00000   0.00016
  83       43D-1        0.00016   0.00016   0.00000   0.00016
  84       43D+2        0.00017   0.00017   0.00000   0.00017
  85       43D-2        0.00031   0.00016   0.00016   0.00000
  86       44D 0        0.00759   0.00379   0.00379   0.00000
  87       44D+1        0.00460   0.00459   0.00000   0.00459
  88       44D-1        0.00460   0.00459   0.00000   0.00459
  89       44D+2        0.00462   0.00462   0.00000   0.00462
  90       44D-2        0.00873   0.00436   0.00436   0.00000
  91       45D 0        0.06772   0.03386   0.03386   0.00000
  92       45D+1        0.04098   0.04098   0.00000   0.04098
  93       45D-1        0.04098   0.04098   0.00000   0.04098
  94       45D+2        0.04118   0.04118   0.00000   0.04118
  95       45D-2        0.07791   0.03896   0.03896   0.00000
  96       46D 0        0.27472   0.13736   0.13736   0.00000
  97       46D+1        0.16324   0.16323   0.00001   0.16322
  98       46D-1        0.16324   0.16323   0.00001   0.16322
  99       46D+2        0.16310   0.16310   0.00000   0.16310
 100       46D-2        0.30696   0.15348   0.15348   0.00000
 101       47D 0        0.44543   0.22271   0.22271   0.00000
 102       47D+1        0.30515   0.30520  -0.00004   0.30524
 103       47D-1        0.30515   0.30520  -0.00004   0.30524
 104       47D+2        0.31605   0.31605   0.00000   0.31605
 105       47D-2        0.62586   0.31293   0.31293   0.00000
 106       48D 0        0.56696   0.28348   0.28348   0.00000
 107       48D+1        0.31165   0.31162   0.00003   0.31159
 108       48D-1        0.31165   0.31162   0.00003   0.31159
 109       48D+2        0.31179   0.31179   0.00000   0.31179
 110       48D-2        0.61261   0.30631   0.30631   0.00000
 111       49D 0        0.34819   0.17410   0.17410   0.00000
 112       49D+1        0.14870   0.14870   0.00001   0.14869
 113       49D-1        0.14870   0.14870   0.00001   0.14869
 114       49D+2        0.14890   0.14890   0.00000   0.14890
 115       49D-2        0.34109   0.17055   0.17055   0.00000
 116       50D 0        0.07368   0.03684   0.03684   0.00000
 117       50D+1        0.01769   0.01769  -0.00000   0.01769
 118       50D-1        0.01769   0.01769  -0.00000   0.01769
 119       50D+2        0.01696   0.01696   0.00000   0.01696
 120       50D-2        0.05666   0.02833   0.02833   0.00000
 121       51D 0       -0.00477  -0.00238  -0.00238  -0.00000
 122       51D+1        0.00040   0.00041  -0.00000   0.00041
 123       51D-1        0.00040   0.00041  -0.00000   0.00041
 124       51D+2        0.00147   0.00147   0.00000   0.00147
 125       51D-2        0.00442   0.00221   0.00221   0.00000
 126       52D 0        0.07751   0.03876   0.03876   0.00000
 127       52D+1        0.00584   0.00578   0.00006   0.00572
 128       52D-1        0.00584   0.00578   0.00006   0.00572
 129       52D+2       -0.00416  -0.00416  -0.00000  -0.00416
 130       52D-2       -0.03438  -0.01719  -0.01719   0.00000
 131       53D 0       -0.00006  -0.00003  -0.00003  -0.00000
 132       53D+1       -0.00017  -0.00017   0.00000  -0.00017
 133       53D-1       -0.00017  -0.00017   0.00000  -0.00017
 134       53D+2       -0.00024  -0.00024   0.00000  -0.00024
 135       53D-2       -0.00041  -0.00020  -0.00020   0.00000
 136       54F 0        0.00001   0.00000   0.00000   0.00000
 137       54F+1        0.00000   0.00000   0.00000   0.00000
 138       54F-1        0.00000   0.00000   0.00000   0.00000
 139       54F+2        0.00000   0.00000   0.00000   0.00000
 140       54F-2        0.00000   0.00000   0.00000   0.00000
 141       54F+3        0.00001   0.00000   0.00000   0.00000
 142       54F-3        0.00001   0.00000   0.00000   0.00000
 143       55F 0        0.00005   0.00003   0.00003   0.00000
 144       55F+1        0.00001   0.00001   0.00000   0.00001
 145       55F-1        0.00001   0.00001   0.00000   0.00001
 146       55F+2        0.00000   0.00000   0.00000   0.00000
 147       55F-2        0.00001   0.00000   0.00000   0.00000
 148       55F+3        0.00002   0.00001   0.00001   0.00000
 149       55F-3        0.00002   0.00001   0.00001   0.00000
 150       56F 0        0.00063   0.00032   0.00032   0.00000
 151       56F+1        0.00006   0.00006   0.00001   0.00005
 152       56F-1        0.00006   0.00006   0.00001   0.00005
 153       56F+2        0.00004   0.00004   0.00000   0.00004
 154       56F-2        0.00008   0.00004   0.00004   0.00000
 155       56F+3        0.00003   0.00002   0.00002   0.00000
 156       56F-3        0.00003   0.00002   0.00002   0.00000
 157       57F 0        0.00226   0.00113   0.00113   0.00000
 158       57F+1        0.00008   0.00008   0.00000   0.00008
 159       57F-1        0.00008   0.00008   0.00000   0.00008
 160       57F+2        0.00009   0.00009   0.00000   0.00009
 161       57F-2        0.00024   0.00012   0.00012   0.00000
 162       57F+3        0.00001   0.00000   0.00000   0.00000
 163       57F-3        0.00001   0.00000   0.00000   0.00000
 164       58G 0        0.00000   0.00000   0.00000   0.00000
 165       58G+1        0.00000   0.00000  -0.00000   0.00000
 166       58G-1        0.00000   0.00000  -0.00000   0.00000
 167       58G+2        0.00000   0.00000   0.00000   0.00000
 168       58G-2        0.00000   0.00000   0.00000   0.00000
 169       58G+3        0.00000   0.00000   0.00000   0.00000
 170       58G-3        0.00000   0.00000   0.00000   0.00000
 171       58G+4        0.00000   0.00000   0.00000   0.00000
 172       58G-4        0.00000   0.00000   0.00000   0.00000
 173       59G 0        0.00000   0.00000   0.00000   0.00000
 174       59G+1       -0.00000  -0.00000   0.00000  -0.00000
 175       59G-1       -0.00000  -0.00000   0.00000  -0.00000
 176       59G+2        0.00000   0.00000   0.00000   0.00000
 177       59G-2        0.00000   0.00000   0.00000   0.00000
 178       59G+3        0.00000   0.00000   0.00000   0.00000
 179       59G-3        0.00000   0.00000   0.00000   0.00000
 180       59G+4        0.00000   0.00000   0.00000   0.00000
 181       59G-4        0.00000   0.00000   0.00000   0.00000
 182       60G 0        0.00018   0.00009   0.00009   0.00000
 183       60G+1        0.00000   0.00000   0.00000   0.00000
 184       60G-1        0.00000   0.00000   0.00000   0.00000
 185       60G+2        0.00000   0.00000   0.00000   0.00000
 186       60G-2        0.00000   0.00000   0.00000   0.00000
 187       60G+3        0.00000   0.00000   0.00000   0.00000
 188       60G-3        0.00000   0.00000   0.00000   0.00000
 189       60G+4        0.00000   0.00000   0.00000   0.00000
 190       60G-4        0.00000   0.00000   0.00000   0.00000
 191 2   H  1S          0.00092   0.00046   0.00046   0.00000
 192        2S          0.02127   0.01064   0.01064   0.00000
 193        3S          0.17241   0.08620   0.08620   0.00000
 194        4S          0.56123   0.28062   0.28062   0.00000
 195        5S          0.58614   0.29307   0.29307   0.00000
 196        6S          0.06914   0.03457   0.03457  -0.00000
 197        7PX         0.00007   0.00007   0.00000   0.00007
 198        7PY         0.00007   0.00007   0.00000   0.00007
 199        7PZ         0.00103   0.00051   0.00051   0.00000
 200        8PX         0.00098   0.00097   0.00001   0.00096
 201        8PY         0.00098   0.00097   0.00001   0.00096
 202        8PZ         0.00694   0.00347   0.00347   0.00000
 203        9PX        -0.00034  -0.00035   0.00001  -0.00035
 204        9PY        -0.00034  -0.00035   0.00001  -0.00035
 205        9PZ         0.00765   0.00382   0.00382   0.00000
 206       10D 0        0.00051   0.00025   0.00025   0.00000
 207       10D+1        0.00008   0.00008   0.00000   0.00008
 208       10D-1        0.00008   0.00008   0.00000   0.00008
 209       10D+2        0.00001   0.00001   0.00000   0.00001
 210       10D-2        0.00002   0.00001   0.00001   0.00000
 211       11D 0        0.00048   0.00024   0.00024  -0.00000
 212       11D+1        0.00009   0.00010  -0.00001   0.00011
 213       11D-1        0.00009   0.00010  -0.00001   0.00011
 214       11D+2        0.00002   0.00002   0.00000   0.00002
 215       11D-2       -0.00010  -0.00005  -0.00005   0.00000
          Condensed to atoms (all electrons):
               1          2
     1  Fe  25.210340   0.360233
     2  H    0.360233   1.069193
          Atomic-Atomic Spin Densities.
               1          2
     1  Fe   2.996575   0.001667
     2  H    0.001667   0.000090
 Mulliken charges and spin densities:
               1          2
     1  Fe   0.429426   2.998242
     2  H   -0.429426   0.001758
 Sum of Mulliken charges =  -0.00000   3.00000
 Mulliken charges and spin densities with hydrogens summed into heavy atoms:
               1          2
     1  Fe  -0.000000   3.000000
 Electronic spatial extent (au):  <R**2>=             47.0762
 Charge=             -0.0000 electrons
 Dipole moment (field-independent basis, Debye):
    X=              0.0000    Y=              0.0000    Z=              4.7008  Tot=              4.7008
 Quadrupole moment (field-independent basis, Debye-Ang):
   XX=            -15.7455   YY=            -15.7455   ZZ=            -18.4610
   XY=              0.0000   XZ=              0.0000   YZ=              0.0000
 Traceless Quadrupole moment (field-independent basis, Debye-Ang):
   XX=              0.9052   YY=              0.9052   ZZ=             -1.8103
   XY=              0.0000   XZ=              0.0000   YZ=              0.0000
 Octapole moment (field-independent basis, Debye-Ang**2):
  XXX=              0.0000  YYY=              0.0000  ZZZ=             19.3838  XYY=              0.0000
  XXY=              0.0000  XXZ=              4.6318  XZZ=              0.0000  YZZ=              0.0000
  YYZ=              4.6318  XYZ=              0.0000
 Hexadecapole moment (field-independent basis, Debye-Ang**3):
 XXXX=            -23.4771 YYYY=            -23.4771 ZZZZ=            -62.8542 XXXY=              0.0000
 XXXZ=              0.0000 YYYX=              0.0000 YYYZ=              0.0000 ZZZX=              0.0000
 ZZZY=              0.0000 XXYY=             -8.1753 XXZZ=            -13.3404 YYZZ=            -13.3404
 XXYZ=              0.0000 YYXZ=              0.0000 ZZXY=              0.0000
 N-N= 8.093298519953D+00 E-N=-3.102170405061D+03  KE= 1.325377922462D+03
 Symmetry A1   KE= 1.014840274072D+03
 Symmetry A2   KE= 1.303226032042D+01
 Symmetry B1   KE= 1.487526936124D+02
 Symmetry B2   KE= 1.487526944559D+02
 Symmetry A1   SP= 1.000000000000D+00
 Symmetry A2   SP= 0.000000000000D+00
 Symmetry B1   SP= 1.000000000000D+00
 Symmetry B2   SP= 1.000000000000D+00
 Orbital energies and kinetic energies (alpha):
                                 1                 2
   8         O                -2.746281         11.030523
   9         O                -2.746281         11.030523
  10         O                -0.491731          3.643745
  11         O                -0.491731          6.516130
  12         O                -0.486520          2.850921
  13         O                -0.436795          6.828024
  14         O                -0.434161          6.828024
  15         O                -0.319276          6.849502
  16         V                -0.006390          0.277852
  17         V                 0.024072          0.053159
  18         V                 0.024072          0.053159
  19         V                 0.032956          0.043191
  20         V                 0.040260          0.326295
 Total kinetic energy from orbitals= 1.345883472846D+03
 FoFCou: FMM=F IPFlag=           8 FMFlag=           0 FMFlg1=           0
         NFxFlg=           0 DoJE=F BraDBF=T KetDBF=F FulRan=T
         wScrn=  0.000000 ICntrl=   2000500 IOpCl=  0 I1Cent=           5 NGrid=           0
         NMat0=    1 NMatS0=      1 NMatT0=    0 NMatD0=    1 NMtDS0=    0 NMtDT0=    0
 Symmetry not used in FoFCou.
                          Isotropic Fermi Contact Couplings
        Atom                 a.u.       MegaHertz       Gauss      10(-4) cm-1
     1  Fe(57)             0.00000       0.00000       0.00000       0.00000
     2  H(1)               0.00000       0.00000       0.00000       0.00000
 --------------------------------------------------------
       Center         ----  Spin Dipole Couplings  ----
                      3XX-RR        3YY-RR        3ZZ-RR
 --------------------------------------------------------
     1   Atom        0.012842      0.012876     -0.025718
     2   Atom       -0.081063     -0.081063      0.162125
 --------------------------------------------------------
                        XY            XZ            YZ
 --------------------------------------------------------
     1   Atom        0.000000      0.000000      0.000000
     2   Atom        0.000000      0.000000      0.000000
 --------------------------------------------------------


 ---------------------------------------------------------------------------------
              Anisotropic Spin Dipole Couplings in Principal Axis System
 ---------------------------------------------------------------------------------

       Atom             a.u.   MegaHertz   Gauss  10(-4) cm-1        Axes

              Baa    -0.0257    -0.445    -0.159    -0.149  0.0000  0.0000  1.0000
     1 Fe(57) Bbb     0.0128     0.222     0.079     0.074  1.0000  0.0000  0.0000
              Bcc     0.0129     0.223     0.080     0.074 -0.0000  1.0000  0.0000
 
              Baa    -0.0811   -43.251   -15.433   -14.427  1.0000  0.0000  0.0000
     2 H(1)   Bbb    -0.0811   -43.251   -15.433   -14.427 -0.0000  1.0000  0.0000
              Bcc     0.1621    86.502    30.866    28.854  0.0000  0.0000  1.0000
 

 ---------------------------------------------------------------------------------

 No NMR shielding tensors so no spin-rotation constants.
 Leave Link  601 at Wed Mar  7 11:18:16 2018, MaxMem= 10737418240 cpu:              87.2 elap:               2.9
 (Enter /home1/apps/gaussian/16rA.03/g16/l9999.exe)

 Test job not archived.
 1\1\GINC-C419-134\SP\ROCCSD(T)-FC1\Gen\Fe1H1(4)\GWANG18\07-Mar-2018\0\
 \#P ROCCSD(T)=(MaxCyc=150, FrzINGC)/Gen SCF=(maxcycle=400) Integral(DK
 HSO, NoXCTest) Pop=Regular MaxDisk=500GB Guess=Read IOp(5/15=2)\\FeH\\
 0,4\Fe,0,0.,0.,0.\H,0,0.,0.,1.7\\Version=ES64L-G16RevA.03\HF=-1271.819
 8119\MP2=-1272.5688134\MP3=-1272.4986445\PUHF=-1271.8198119\PMP2-0=-12
 72.5688134\MP4SDQ=-1272.5461662\CCSD=-1272.5365266\CCSD(T)=-1272.56223
 61\RMSD=8.202e-09\PG=C*V [C*(H1Fe1)]\\@


 A ROPE OVER THE TOP OF A FENCE HAS THE SAME LENGTH ON EACH SIDE.
 WEIGHS 1/3 POUND PER FOOT.  ON ONE END HANGS A MONKEY HOLDING A
 BANANA, AND ON THE OTHER END A WEIGHT EQUAL TO THE WEIGHT
 OF THE MONKEY.  THE BANANA WEIGHS TWO OUNCES PER INCH.
 THE ROPE IS AS LONG AS THE AGE OF THE MONKEY, 
 AND THE WEIGHT OF THE MONKEY (IN OUNCES) IS AS MUCH
 AS THE AGE OF THE MONKEY'S MOTHER.  THE COMBINED AGES OF MONKEY
 AND MOTHER ARE THIRTY YEARS.  HALF THE WEIGHT OF THE MONKEY,
  PLUS THE WEIGHT OF THE BANANA, IS ONE FOURTH AS MUCH AS THE WEIGHT
 OF THE WEIGHT AND THE ROPE.
 THE MONKEY'S MOTHER IS HALF AS OLD AS THE MONKEY WILL BE
 WHEN IT IS 3 TIMES AS OLD AS ITS MOTHER WAS WHEN
 SHE WAS HALF AS OLD AS THE MONKEY WILL BE WHEN IT IS
 AS OLD AS ITS MOTHER WILL BE WHEN SHE IS 4 TIMES AS
 OLD AS THE MONKEY WAS WHEN IT WAS TWICE AS OLD AS 
 ITS MOTHER WAS WHEN SHE WAS ONE THIRD AS OLD AS THE
 MONKEY WAS WHEN IT WAS AS OLD AS ITS MOTHER WAS WHEN 
 SHE WAS 3 TIMES AS OLD AS THE MONKEY WAS WHEN IT WAS AS OLD AS ITS
 MOTHER WAS WHEN SHE WAS 3 TIMES AS OLD AS THE MONKEY 
 WAS WHEN IT WAS ONE FOURTH WAS OLD AS IT IS NOW.

 HOW LONG IS THE BANANA?
 Job cpu time:       0 days  7 hours 13 minutes  2.6 seconds.
 Elapsed time:       0 days  0 hours 13 minutes 38.9 seconds.
 File lengths (MBytes):  RWF=   2529 Int=      0 D2E=      0 Chk=      6 Scr=      1
 Normal termination of Gaussian 16 at Wed Mar  7 11:18:17 2018.
