 Entering Gaussian System, Link 0=g16
 Initial command:
 /home1/apps/gaussian/16rA.03/g16/l1.exe "/tmp/Gau-230919.inp" -scrdir="/tmp/"
 Entering Link 1 = /home1/apps/gaussian/16rA.03/g16/l1.exe PID=    230920.
  
 Copyright (c) 1988,1990,1992,1993,1995,1998,2003,2009,2016,
            Gaussian, Inc.  All Rights Reserved.
  
 This is part of the Gaussian(R) 16 program.  It is based on
 the Gaussian(R) 09 system (copyright 2009, Gaussian, Inc.),
 the Gaussian(R) 03 system (copyright 2003, Gaussian, Inc.),
 the Gaussian(R) 98 system (copyright 1998, Gaussian, Inc.),
 the Gaussian(R) 94 system (copyright 1995, Gaussian, Inc.),
 the Gaussian 92(TM) system (copyright 1992, Gaussian, Inc.),
 the Gaussian 90(TM) system (copyright 1990, Gaussian, Inc.),
 the Gaussian 88(TM) system (copyright 1988, Gaussian, Inc.),
 the Gaussian 86(TM) system (copyright 1986, Carnegie Mellon
 University), and the Gaussian 82(TM) system (copyright 1983,
 Carnegie Mellon University). Gaussian is a federally registered
 trademark of Gaussian, Inc.
  
 This software contains proprietary and confidential information,
 including trade secrets, belonging to Gaussian, Inc.
  
 This software is provided under written license and may be
 used, copied, transmitted, or stored only in accord with that
 written license.
  
 The following legend is applicable only to US Government
 contracts under FAR:
  
                    RESTRICTED RIGHTS LEGEND
  
 Use, reproduction and disclosure by the US Government is
 subject to restrictions as set forth in subparagraphs (a)
 and (c) of the Commercial Computer Software - Restricted
 Rights clause in FAR 52.227-19.
  
 Gaussian, Inc.
 340 Quinnipiac St., Bldg. 40, Wallingford CT 06492
  
  
 ---------------------------------------------------------------
 Warning -- This program may not be used in any manner that
 competes with the business of Gaussian, Inc. or will provide
 assistance to any competitor of Gaussian, Inc.  The licensee
 of this program is prohibited from giving any competitor of
 Gaussian, Inc. access to this program.  By using this program,
 the user acknowledges that Gaussian, Inc. is engaged in the
 business of creating and licensing software in the field of
 computational chemistry and represents and warrants to the
 licensee that it is not a competitor of Gaussian, Inc. and that
 it will not use this program in any manner prohibited above.
 ---------------------------------------------------------------
  

 Cite this work as:
 Gaussian 16, Revision A.03,
 M. J. Frisch, G. W. Trucks, H. B. Schlegel, G. E. Scuseria, 
 M. A. Robb, J. R. Cheeseman, G. Scalmani, V. Barone, 
 G. A. Petersson, H. Nakatsuji, X. Li, M. Caricato, A. V. Marenich, 
 J. Bloino, B. G. Janesko, R. Gomperts, B. Mennucci, H. P. Hratchian, 
 J. V. Ortiz, A. F. Izmaylov, J. L. Sonnenberg, D. Williams-Young, 
 F. Ding, F. Lipparini, F. Egidi, J. Goings, B. Peng, A. Petrone, 
 T. Henderson, D. Ranasinghe, V. G. Zakrzewski, J. Gao, N. Rega, 
 G. Zheng, W. Liang, M. Hada, M. Ehara, K. Toyota, R. Fukuda, 
 J. Hasegawa, M. Ishida, T. Nakajima, Y. Honda, O. Kitao, H. Nakai, 
 T. Vreven, K. Throssell, J. A. Montgomery, Jr., J. E. Peralta, 
 F. Ogliaro, M. J. Bearpark, J. J. Heyd, E. N. Brothers, K. N. Kudin, 
 V. N. Staroverov, T. A. Keith, R. Kobayashi, J. Normand, 
 K. Raghavachari, A. P. Rendell, J. C. Burant, S. S. Iyengar, 
 J. Tomasi, M. Cossi, J. M. Millam, M. Klene, C. Adamo, R. Cammi, 
 J. W. Ochterski, R. L. Martin, K. Morokuma, O. Farkas, 
 J. B. Foresman, and D. J. Fox, Gaussian, Inc., Wallingford CT, 2016.
 
 ******************************************
 Gaussian 16:  ES64L-G16RevA.03 25-Dec-2016
                13-Feb-2018 
 ******************************************
 %mem=64GB
 %cpu=0-31
 SetSPE:  set environment variable "MP_BIND" = "yes"
 SetSPE:  set environment variable "MP_BLIST" = "0,1,2,3,4,5,6,7,8,9,10,11,12,13,14,15,16,17,18,19,20,21,22,23,24,25,26,27,28,29,30,31"
 Will use up to   32 processors via shared memory.
 %chk=ScH
 ----------------------------------------------------------------------
 #P ROCCSD(T)=(maxcyc=150, FrzINGC)/Gen 5d 7f SCF=(maxcycles=300) Integ
 ral(NoXCTest, DKHSO) MaxDisk=500GB Pop=Regular IOp(5/15=2) Guess=Read
 ----------------------------------------------------------------------
 1/38=1,172=1/1;
 2/12=2,17=6,18=5,40=1/2;
 3/5=7,8=11,11=2,25=1,30=1,47=8,91=5,116=101/1,2,3;
 4/5=1/1;
 5/5=2,7=300,15=2,38=6/2;
 8/5=-1,6=4,9=120000,10=3/1,4;
 9/5=7,6=150,14=2/13;
 6//1;
 99/5=1,9=1/99;
 Leave Link    1 at Tue Feb 13 20:48:18 2018, MaxMem=  8589934592 cpu:               6.5 elap:               0.2
 (Enter /home1/apps/gaussian/16rA.03/g16/l101.exe)
 ---
 ScH
 ---
 Symbolic Z-matrix:
 Charge =  0 Multiplicity = 1
 Sc                    0.        0.        0. 
 H                     0.        0.        2.1 
 
 ITRead=  0  0
 MicOpt= -1 -1
 NAtoms=      2 NQM=        2 NQMF=       0 NMMI=      0 NMMIF=      0
                NMic=       0 NMicF=      0.
                    Isotopes and Nuclear Properties:
 (Nuclear quadrupole moments (NQMom) in fm**2, nuclear magnetic moments (NMagM)
  in nuclear magnetons)

  Atom         1           2
 IAtWgt=          45           1
 AtmWgt=  44.9559136   1.0078250
 NucSpn=           7           1
 AtZEff=  -0.0000000  -0.0000000
 NQMom=  -22.0000000   0.0000000
 NMagM=    4.7564830   2.7928460
 AtZNuc=  21.0000000   1.0000000
 Leave Link  101 at Tue Feb 13 20:48:18 2018, MaxMem=  8589934592 cpu:               2.8 elap:               0.1
 (Enter /home1/apps/gaussian/16rA.03/g16/l202.exe)
                          Input orientation:                          
 ---------------------------------------------------------------------
 Center     Atomic      Atomic             Coordinates (Angstroms)
 Number     Number       Type             X           Y           Z
 ---------------------------------------------------------------------
      1         21           0        0.000000    0.000000    0.000000
      2          1           0        0.000000    0.000000    2.100000
 ---------------------------------------------------------------------
 Stoichiometry    HSc
 Framework group  C*V[C*(HSc)]
 Deg. of freedom     1
 Full point group                 C*V     NOp   4
 Largest Abelian subgroup         C2V     NOp   4
 Largest concise Abelian subgroup C1      NOp   1
                         Standard orientation:                         
 ---------------------------------------------------------------------
 Center     Atomic      Atomic             Coordinates (Angstroms)
 Number     Number       Type             X           Y           Z
 ---------------------------------------------------------------------
      1         21           0        0.000000    0.000000    0.095455
      2          1           0        0.000000    0.000000   -2.004545
 ---------------------------------------------------------------------
 Rotational constants (GHZ):           0.0000000         116.2577693         116.2577693
 Leave Link  202 at Tue Feb 13 20:48:18 2018, MaxMem=  8589934592 cpu:               0.6 elap:               0.0
 (Enter /home1/apps/gaussian/16rA.03/g16/l301.exe)
 General basis read from cards:  (5D, 7F)
 Centers:       1
 S 1 1.00
     Exponent=  8.4179090000D+06 Coefficients=  1.0000000000D+00
 S 1 1.00
     Exponent=  1.2603120000D+06 Coefficients=  1.0000000000D+00
 S 1 1.00
     Exponent=  2.8679840000D+05 Coefficients=  1.0000000000D+00
 S 1 1.00
     Exponent=  8.1234690000D+04 Coefficients=  1.0000000000D+00
 S 1 1.00
     Exponent=  2.6503110000D+04 Coefficients=  1.0000000000D+00
 S 1 1.00
     Exponent=  9.5687010000D+03 Coefficients=  1.0000000000D+00
 S 1 1.00
     Exponent=  3.7324970000D+03 Coefficients=  1.0000000000D+00
 S 1 1.00
     Exponent=  1.5484220000D+03 Coefficients=  1.0000000000D+00
 S 1 1.00
     Exponent=  6.7554200000D+02 Coefficients=  1.0000000000D+00
 S 1 1.00
     Exponent=  3.0725220000D+02 Coefficients=  1.0000000000D+00
 S 1 1.00
     Exponent=  1.4466720000D+02 Coefficients=  1.0000000000D+00
 S 1 1.00
     Exponent=  7.0043870000D+01 Coefficients=  1.0000000000D+00
 S 1 1.00
     Exponent=  3.4322500000D+01 Coefficients=  1.0000000000D+00
 S 1 1.00
     Exponent=  1.5612240000D+01 Coefficients=  1.0000000000D+00
 S 1 1.00
     Exponent=  7.7437220000D+00 Coefficients=  1.0000000000D+00
 S 1 1.00
     Exponent=  3.8442600000D+00 Coefficients=  1.0000000000D+00
 S 1 1.00
     Exponent=  1.7197660000D+00 Coefficients=  1.0000000000D+00
 S 1 1.00
     Exponent=  8.3252300000D-01 Coefficients=  1.0000000000D+00
 S 1 1.00
     Exponent=  3.8556400000D-01 Coefficients=  1.0000000000D+00
 S 1 1.00
     Exponent=  9.6700000000D-02 Coefficients=  1.0000000000D+00
 S 1 1.00
     Exponent=  4.7778000000D-02 Coefficients=  1.0000000000D+00
 S 1 1.00
     Exponent=  2.2363000000D-02 Coefficients=  1.0000000000D+00
 S 1 1.00
     Exponent=  3.1672000000D+00 Coefficients=  1.0000000000D+00
 S 1 1.00
     Exponent=  1.6879000000D+00 Coefficients=  1.0000000000D+00
 S 1 1.00
     Exponent=  1.0470000000D-02 Coefficients=  1.0000000000D+00
 P 1 1.00
     Exponent=  2.2640970000D+04 Coefficients=  1.0000000000D+00
 P 1 1.00
     Exponent=  5.3575450000D+03 Coefficients=  1.0000000000D+00
 P 1 1.00
     Exponent=  1.7403730000D+03 Coefficients=  1.0000000000D+00
 P 1 1.00
     Exponent=  6.6661630000D+02 Coefficients=  1.0000000000D+00
 P 1 1.00
     Exponent=  2.8363840000D+02 Coefficients=  1.0000000000D+00
 P 1 1.00
     Exponent=  1.2979760000D+02 Coefficients=  1.0000000000D+00
 P 1 1.00
     Exponent=  6.2679560000D+01 Coefficients=  1.0000000000D+00
 P 1 1.00
     Exponent=  3.1504410000D+01 Coefficients=  1.0000000000D+00
 P 1 1.00
     Exponent=  1.6235250000D+01 Coefficients=  1.0000000000D+00
 P 1 1.00
     Exponent=  8.5183240000D+00 Coefficients=  1.0000000000D+00
 P 1 1.00
     Exponent=  4.5190050000D+00 Coefficients=  1.0000000000D+00
 P 1 1.00
     Exponent=  2.3665910000D+00 Coefficients=  1.0000000000D+00
 P 1 1.00
     Exponent=  1.2152350000D+00 Coefficients=  1.0000000000D+00
 P 1 1.00
     Exponent=  6.1434800000D-01 Coefficients=  1.0000000000D+00
 P 1 1.00
     Exponent=  3.0074500000D-01 Coefficients=  1.0000000000D+00
 P 1 1.00
     Exponent=  1.2583400000D-01 Coefficients=  1.0000000000D+00
 P 1 1.00
     Exponent=  5.4719000000D-02 Coefficients=  1.0000000000D+00
 P 1 1.00
     Exponent=  2.3488000000D-02 Coefficients=  1.0000000000D+00
 P 1 1.00
     Exponent=  4.0719000000D+00 Coefficients=  1.0000000000D+00
 P 1 1.00
     Exponent=  9.9940000000D-01 Coefficients=  1.0000000000D+00
 P 1 1.00
     Exponent=  1.0080000000D-02 Coefficients=  1.0000000000D+00
 D 1 1.00
     Exponent=  1.4802800000D+02 Coefficients=  1.0000000000D+00
 D 1 1.00
     Exponent=  4.3852800000D+01 Coefficients=  1.0000000000D+00
 D 1 1.00
     Exponent=  1.6664600000D+01 Coefficients=  1.0000000000D+00
 D 1 1.00
     Exponent=  6.9789300000D+00 Coefficients=  1.0000000000D+00
 D 1 1.00
     Exponent=  3.1236900000D+00 Coefficients=  1.0000000000D+00
 D 1 1.00
     Exponent=  1.4468700000D+00 Coefficients=  1.0000000000D+00
 D 1 1.00
     Exponent=  6.6740700000D-01 Coefficients=  1.0000000000D+00
 D 1 1.00
     Exponent=  3.0163300000D-01 Coefficients=  1.0000000000D+00
 D 1 1.00
     Exponent=  1.3267400000D-01 Coefficients=  1.0000000000D+00
 D 1 1.00
     Exponent=  5.6739000000D-02 Coefficients=  1.0000000000D+00
 D 1 1.00
     Exponent=  2.3175000000D-02 Coefficients=  1.0000000000D+00
 D 1 1.00
     Exponent=  2.1282000000D+00 Coefficients=  1.0000000000D+00
 D 1 1.00
     Exponent=  9.6910000000D-01 Coefficients=  1.0000000000D+00
 D 1 1.00
     Exponent=  9.4700000000D-03 Coefficients=  1.0000000000D+00
 F 1 1.00
     Exponent=  2.7590000000D+00 Coefficients=  1.0000000000D+00
 F 1 1.00
     Exponent=  1.0490000000D+00 Coefficients=  1.0000000000D+00
 F 1 1.00
     Exponent=  3.9890000000D-01 Coefficients=  1.0000000000D+00
 F 1 1.00
     Exponent=  1.1060000000D-01 Coefficients=  1.0000000000D+00
 F 1 1.00
     Exponent=  3.0670000000D-02 Coefficients=  1.0000000000D+00
 G 1 1.00
     Exponent=  2.4852000000D+00 Coefficients=  1.0000000000D+00
 G 1 1.00
     Exponent=  9.0670000000D-01 Coefficients=  1.0000000000D+00
 G 1 1.00
     Exponent=  2.5300000000D-01 Coefficients=  1.0000000000D+00
 G 1 1.00
     Exponent=  7.0600000000D-02 Coefficients=  1.0000000000D+00
 H 1 1.00
     Exponent=  2.0405000000D+00 Coefficients=  1.0000000000D+00
 H 1 1.00
     Exponent=  4.9340000000D-01 Coefficients=  1.0000000000D+00
 H 1 1.00
     Exponent=  1.1931000000D-01 Coefficients=  1.0000000000D+00
 ****
 Centers:       2
 S 1 1.00
     Exponent=  8.2640000000D+01 Coefficients=  1.0000000000D+00
 S 1 1.00
     Exponent=  1.2410000000D+01 Coefficients=  1.0000000000D+00
 S 1 1.00
     Exponent=  2.8240000000D+00 Coefficients=  1.0000000000D+00
 S 1 1.00
     Exponent=  7.9770000000D-01 Coefficients=  1.0000000000D+00
 S 1 1.00
     Exponent=  2.5810000000D-01 Coefficients=  1.0000000000D+00
 S 1 1.00
     Exponent=  8.9890000000D-02 Coefficients=  1.0000000000D+00
 S 1 1.00
     Exponent=  2.3630000000D-02 Coefficients=  1.0000000000D+00
 P 1 1.00
     Exponent=  2.2920000000D+00 Coefficients=  1.0000000000D+00
 P 1 1.00
     Exponent=  8.3800000000D-01 Coefficients=  1.0000000000D+00
 P 1 1.00
     Exponent=  2.9200000000D-01 Coefficients=  1.0000000000D+00
 P 1 1.00
     Exponent=  8.4800000000D-02 Coefficients=  1.0000000000D+00
 D 1 1.00
     Exponent=  2.0620000000D+00 Coefficients=  1.0000000000D+00
 D 1 1.00
     Exponent=  6.6200000000D-01 Coefficients=  1.0000000000D+00
 D 1 1.00
     Exponent=  1.9000000000D-01 Coefficients=  1.0000000000D+00
 F 1 1.00
     Exponent=  1.3970000000D+00 Coefficients=  1.0000000000D+00
 F 1 1.00
     Exponent=  3.6000000000D-01 Coefficients=  1.0000000000D+00
 ****
 Ernie: Thresh=  0.10000D-02 Tol=  0.10000D-05 Strict=F.
 There are   171 symmetry adapted cartesian basis functions of A1  symmetry.
 There are    45 symmetry adapted cartesian basis functions of A2  symmetry.
 There are    93 symmetry adapted cartesian basis functions of B1  symmetry.
 There are    93 symmetry adapted cartesian basis functions of B2  symmetry.
 There are   126 symmetry adapted basis functions of A1  symmetry.
 There are    38 symmetry adapted basis functions of A2  symmetry.
 There are    73 symmetry adapted basis functions of B1  symmetry.
 There are    73 symmetry adapted basis functions of B2  symmetry.
   310 basis functions,   402 primitive gaussians,   402 cartesian basis functions
    11 alpha electrons       11 beta electrons
       nuclear repulsion energy         5.2917721092 Hartrees.
 IExCor=    0 DFT=F Ex=HF Corr=None ExCW=0 ScaHFX=  1.000000
 ScaDFX=  1.000000  1.000000  1.000000  1.000000 ScalE2=  1.000000  1.000000
 IRadAn=      5 IRanWt=     -1 IRanGd=            0 ICorTp=0 IEmpDi=  4
 NAtoms=    2 NActive=    2 NUniq=    2 SFac= 1.00D+00 NAtFMM=   60 NAOKFM=F Big=F
 Integral buffers will be    131072 words long.
 Raffenetti 2 integral format.
 Two-electron integral symmetry is turned on.
 FoFCou: FMM=F IPFlag=           8 FMFlag=           0 FMFlg1=           0
         NFxFlg=           0 DoJE=F BraDBF=T KetDBF=T FulRan=T
         wScrn=  0.000000 ICntrl=       600 IOpCl=  3 I1Cent=           6 NGrid=           0
         NMat0=    1 NMatS0=      2 NMatT0=    0 NMatD0=    1 NMtDS0=    0 NMtDT0=    0
 Symmetry not used in FoFCou.
 Finite nuclear repulsion energy         5.2917721092.
 Leave Link  301 at Tue Feb 13 20:48:19 2018, MaxMem=  8589934592 cpu:              14.3 elap:               0.5
 (Enter /home1/apps/gaussian/16rA.03/g16/l302.exe)
 Using DK4 one-electron Hamiltonian with SO, DoBoet=T.
 NPDir=0 NMtPBC=     1 NCelOv=     1 NCel=       1 NClECP=     1 NCelD=      1
         NCelK=      1 NCelE2=     1 NClLst=     1 CellRange=     0.0.
 One-electron integrals computed using PRISM.
 One-electron integral symmetry used in STVInt
 FoFCou: FMM=F IPFlag=           8 FMFlag=      100000 FMFlg1=           0
         NFxFlg=           0 DoJE=T BraDBF=F KetDBF=T FulRan=T
         wScrn=  0.000000 ICntrl=       500 IOpCl=  0 I1Cent=           4 NGrid=           0
         NMat0=    1 NMatS0=      1 NMatT0=    0 NMatD0=    1 NMtDS0=    0 NMtDT0=    0
 Symmetry not used in FoFCou.
 UnConB:  Uncontracting AO basis from    310 functions to    310 functions (excluding duplicates).
 GSVD:  received Info=                   1 from GESDD.
 RelInt: Using uncontracted basis, NUnBas=   310 NBsUse=   310 0.100E-13 EigKep=  9.87D-09 EigRej= -1.00D+00
 NBasis=   310 RedAO= T EigKep=  1.29D-06  NBF=   126    38    73    73
 NBsUse=   309 1.00D-06 EigRej=  9.87D-09 NBFU=   125    38    73    73
 Leave Link  302 at Tue Feb 13 20:48:30 2018, MaxMem=  8589934592 cpu:             298.1 elap:              11.3
 (Enter /home1/apps/gaussian/16rA.03/g16/l303.exe)
 DipDrv:  MaxL=1.
 Leave Link  303 at Tue Feb 13 20:48:30 2018, MaxMem=  8589934592 cpu:               2.8 elap:               0.1
 (Enter /home1/apps/gaussian/16rA.03/g16/l401.exe)
 Initial guess from the checkpoint file:  "ScH.chk"
 B after Tr=     0.000000    0.000000    0.000000
         Rot=    1.000000    0.000000    0.000000    0.000000 Ang=   0.00 deg.
 Guess basis will be translated and rotated to current coordinates.
 JPrj=2 DoOrth=T DoCkMO=T.
 Initial guess orbital symmetries:
       Occupied  (SG) (SG) (PI) (PI) (SG) (SG) (PI) (PI) (SG) (SG)
                 (SG)
       Virtual   (PI) (PI) (SG) (SG) (SG) (DLTA) (DLTA) (PI) (PI)
                 (PI) (PI) (SG) (DLTA) (DLTA) (PI) (PI) (SG) (SG)
                 (SG) (SG) (DLTA) (DLTA) (PI) (PI) (PI) (PI) (PI)
                 (PI) (PHI) (PHI) (DLTA) (DLTA) (SG) (SG) (SG)
                 (PI) (PI) (SG) (DLTA) (DLTA) (PI) (PI) (?A) (?A)
                 (DLTA) (DLTA) (PHI) (PHI) (SG) (PI) (PI) (SG)
                 (PI) (PI) (SG) (PHI) (PHI) (DLTA) (DLTA) (SG)
                 (PI) (PI) (SG) (DLTA) (DLTA) (SG) (PI) (PI) (PI)
                 (PI) (DLTA) (DLTA) (SG) (SG) (PI) (PI) (PI) (PI)
                 (SG) (SG) (?A) (?A) (PHI) (PHI) (DLTA) (DLTA)
                 (PHI) (PHI) (DLTA) (DLTA) (PI) (PI) (PI) (PI)
                 (SG) (SG) (SG) (DLTA) (DLTA) (PI) (PI) (SG) (SG)
                 (SG) (PI) (PI) (DLTA) (DLTA) (PI) (PI) (PI) (PI)
                 (SG) (SG) (DLTA) (DLTA) (PI) (PI) (SG) (PHI) (PHI)
                 (DLTA) (DLTA) (PI) (PI) (SG) (?A) (?A) (PHI) (PHI)
                 (DLTA) (DLTA) (PI) (PI) (SG) (SG) (PI) (PI) (SG)
                 (SG) (DLTA) (DLTA) (PI) (PI) (SG) (SG) (PI) (PI)
                 (SG) (DLTA) (DLTA) (PI) (PI) (SG) (SG) (PI) (PI)
                 (SG) (DLTA) (DLTA) (PI) (PI) (SG) (SG) (SG) (PI)
                 (PI) (SG) (DLTA) (DLTA) (PI) (PI) (SG) (PI) (PI)
                 (SG) (SG) (PI) (PI) (SG) (SG) (PI) (PI) (SG) (SG)
                 (PI) (PI) (SG) (SG) (PI) (PI) (SG) (SG) (SG) (PI)
                 (PI) (SG) (SG) (SG) (SG) (SG) (DLTA) (SG) (SG)
                 (SG) (DLTA) (SG) (SG) (SG) (DLTA) (SG) (DLTA)
                 (SG) (DLTA) (SG) (DLTA) (?A) (SG) (DLTA) (SG)
                 (SG) (DLTA) (SG) (DLTA) (SG) (?A) (DLTA) (SG)
                 (SG) (DLTA) (SG) (?A) (?A) (DLTA) (DLTA) (DLTA)
                 (DLTA) (DLTA) (DLTA) (?A) (DLTA) (DLTA) (DLTA)
                 (?A) (DLTA) (DLTA) (?A) (?A) (PI) (PI) (PI) (PI)
                 (PI) (PI) (PHI) (PI) (PHI) (PI) (PI) (PI) (PHI)
                 (PI) (PHI) (PI) (?B) (PHI) (PI) (PHI) (PI) (?B)
                 (PHI) (PI) (?B) (PI) (PI) (PI) (PI) (PI) (PI)
                 (PHI) (PI) (PHI) (PI) (PI) (PI) (PHI) (PI) (PHI)
                 (PI) (?B) (PHI) (PI) (PHI) (PI) (?B) (PHI) (PI)
                 (?B)
 The electronic state of the initial guess is 1-SG.
 Leave Link  401 at Tue Feb 13 20:48:31 2018, MaxMem=  8589934592 cpu:              15.7 elap:               0.6
 (Enter /home1/apps/gaussian/16rA.03/g16/l502.exe)
 Keep R1 and R2 ints in memory in symmetry-blocked form, NReq=1456552531.
 FoFCou: FMM=F IPFlag=           8 FMFlag=           0 FMFlg1=           0
         NFxFlg=           0 DoJE=F BraDBF=F KetDBF=F FulRan=T
         wScrn=  0.000000 ICntrl=       600 IOpCl=  0 I1Cent=           0 NGrid=           0
         NMat0=    1 NMatS0=  48205 NMatT0=    0 NMatD0=    1 NMtDS0=    0 NMtDT0=    0
 Petite list used in FoFCou.
 Restricted open shell SCF:
 Using DIIS extrapolation, IDIIS=  1040.
 NGot=  8589934592 LenX=  8000373618 LenY=  8000211573
 Requested convergence on RMS density matrix=1.00D-08 within 300 cycles.
 Requested convergence on MAX density matrix=1.00D-06.
 Requested convergence on             energy=1.00D-06.
 No special actions if energy rises.

 Cycle   1  Pass 1  IDiag  1:
 E= -763.819295426745    
 DIIS: error= 6.54D-01 at cycle   1 NSaved=   1.
 NSaved= 1 IEnMin= 1 EnMin= -763.819295426745     IErMin= 1 ErrMin= 6.54D-01
 ErrMax= 6.54D-01  0.00D+00 EMaxC= 1.00D-01 BMatC= 6.37D+01 BMatP= 6.37D+01
 IDIUse=3 WtCom= 0.00D+00 WtEn= 1.00D+00
 Coeff-Com:  0.100D+01
 Coeff-En:   0.100D+01
 Coeff:      0.100D+01
 Fock symm off for IB=3 I1=   72 I=  235 J=   96 Cut=1.00D-07 Err=1.42D-07
 Fock matrix is not symmetric: symmetry in diagonalization turned off.
 Gap=     0.005 Goal=   None    Shift=    0.000
 GapD=    0.005 DampG=0.250 DampE=0.125 DampFc=0.1250 IDamp=-1.
 Damping current iteration by 1.25D-01
 RMSDP=1.09D-03 MaxDP=7.89D-02              OVMax= 1.00D+00

 Cycle   2  Pass 1  IDiag  1:
 E= -763.819332087090     Delta-E=       -0.000036660345 Rises=F Damp=T
 DIIS: error= 5.73D-01 at cycle   2 NSaved=   2.
 NSaved= 2 IEnMin= 2 EnMin= -763.819332087090     IErMin= 2 ErrMin= 5.73D-01
 ErrMax= 5.73D-01  0.00D+00 EMaxC= 1.00D-01 BMatC= 4.88D+01 BMatP= 6.37D+01
 IDIUse=3 WtCom= 0.00D+00 WtEn= 1.00D+00
 Coeff-Com: -0.700D+01 0.800D+01
 Coeff-En:   0.000D+00 0.100D+01
 Coeff:      0.000D+00 0.100D+01
 Gap=     0.252 Goal=   None    Shift=    0.000
 RMSDP=9.60D-04 MaxDP=6.91D-02 DE=-3.67D-05 OVMax= 3.18D-05

 Cycle   3  Pass 1  IDiag  1:
 E= -763.819591801422     Delta-E=       -0.000259714332 Rises=F Damp=F
 DIIS: error= 6.17D-05 at cycle   3 NSaved=   3.
 NSaved= 3 IEnMin= 3 EnMin= -763.819591801422     IErMin= 3 ErrMin= 6.17D-05
 ErrMax= 6.17D-05  0.00D+00 EMaxC= 1.00D-01 BMatC= 4.44D-07 BMatP= 4.88D+01
 IDIUse=1 WtCom= 1.00D+00 WtEn= 0.00D+00
 Large coefficients: NSaved=  3 BigCof=   60.95 CofMax=   10.00 Det=-1.06D-10
 Inversion failed.  Reducing to  2 matrices.
 Coeff-Com: -0.311D-04 0.100D+01
 Coeff:     -0.311D-04 0.100D+01
 Gap=     0.252 Goal=   None    Shift=    0.000
 DSYEVD-2 returned Info=       72190 IAlg= 4 N=   309 NDim=   309 NE2=    25890651 trying  DSYEV.
 RMSDP=4.86D-05 MaxDP=3.44D-03 DE=-2.60D-04 OVMax= 2.28D-04

 Cycle   4  Pass 1  IDiag  1:
 E= -763.819592068530     Delta-E=       -0.000000267109 Rises=F Damp=F
 DIIS: error= 6.28D-06 at cycle   4 NSaved=   3.
 NSaved= 3 IEnMin= 3 EnMin= -763.819592068530     IErMin= 3 ErrMin= 6.28D-06
 ErrMax= 6.28D-06  0.00D+00 EMaxC= 1.00D-01 BMatC= 4.90D-09 BMatP= 4.44D-07
 IDIUse=1 WtCom= 1.00D+00 WtEn= 0.00D+00
 Coeff-Com:  0.241D-05-0.777D-01 0.108D+01
 Coeff:      0.241D-05-0.777D-01 0.108D+01
 Gap=     0.252 Goal=   None    Shift=    0.000
 RMSDP=8.82D-06 MaxDP=7.09D-04 DE=-2.67D-07 OVMax= 9.04D-05

 Cycle   5  Pass 1  IDiag  1:
 E= -763.819592082310     Delta-E=       -0.000000013780 Rises=F Damp=F
 DIIS: error= 4.69D-06 at cycle   5 NSaved=   4.
 NSaved= 4 IEnMin= 4 EnMin= -763.819592082310     IErMin= 4 ErrMin= 4.69D-06
 ErrMax= 4.69D-06  0.00D+00 EMaxC= 1.00D-01 BMatC= 7.78D-10 BMatP= 4.90D-09
 IDIUse=1 WtCom= 1.00D+00 WtEn= 0.00D+00
 Coeff-Com: -0.412D-06 0.133D-01-0.262D+00 0.125D+01
 Coeff:     -0.412D-06 0.133D-01-0.262D+00 0.125D+01
 Gap=     0.252 Goal=   None    Shift=    0.000
 RMSDP=1.48D-06 MaxDP=1.15D-04 DE=-1.38D-08 OVMax= 7.08D-05

 Cycle   6  Pass 1  IDiag  1:
 E= -763.819592087607     Delta-E=       -0.000000005297 Rises=F Damp=F
 DIIS: error= 2.93D-06 at cycle   6 NSaved=   5.
 NSaved= 5 IEnMin= 5 EnMin= -763.819592087607     IErMin= 5 ErrMin= 2.93D-06
 ErrMax= 2.93D-06  0.00D+00 EMaxC= 1.00D-01 BMatC= 3.41D-10 BMatP= 7.78D-10
 IDIUse=1 WtCom= 1.00D+00 WtEn= 0.00D+00
 Coeff-Com: -0.374D-06 0.120D-01-0.145D+00-0.567D+00 0.170D+01
 Coeff:     -0.374D-06 0.120D-01-0.145D+00-0.567D+00 0.170D+01
 Gap=     0.252 Goal=   None    Shift=    0.000
 RMSDP=4.81D-07 MaxDP=5.53D-05 DE=-5.30D-09 OVMax= 8.57D-05

 Cycle   7  Pass 1  IDiag  1:
 E= -763.819592091378     Delta-E=       -0.000000003771 Rises=F Damp=F
 DIIS: error= 1.41D-06 at cycle   7 NSaved=   6.
 NSaved= 6 IEnMin= 6 EnMin= -763.819592091378     IErMin= 6 ErrMin= 1.41D-06
 ErrMax= 1.41D-06  0.00D+00 EMaxC= 1.00D-01 BMatC= 9.03D-11 BMatP= 3.41D-10
 IDIUse=1 WtCom= 1.00D+00 WtEn= 0.00D+00
 Coeff-Com:  0.265D-06-0.856D-02 0.148D+00-0.510D+00-0.234D+00 0.160D+01
 Coeff:      0.265D-06-0.856D-02 0.148D+00-0.510D+00-0.234D+00 0.160D+01
 Gap=     0.252 Goal=   None    Shift=    0.000
 RMSDP=4.35D-07 MaxDP=4.16D-05 DE=-3.77D-09 OVMax= 7.28D-05

 Cycle   8  Pass 1  IDiag  1:
 E= -763.819592092636     Delta-E=       -0.000000001258 Rises=F Damp=F
 DIIS: error= 2.91D-07 at cycle   8 NSaved=   7.
 NSaved= 7 IEnMin= 7 EnMin= -763.819592092636     IErMin= 7 ErrMin= 2.91D-07
 ErrMax= 2.91D-07  0.00D+00 EMaxC= 1.00D-01 BMatC= 5.58D-12 BMatP= 9.03D-11
 IDIUse=1 WtCom= 1.00D+00 WtEn= 0.00D+00
 Coeff-Com: -0.733D-07 0.236D-02-0.471D-01 0.237D+00 0.178D-01-0.786D+00
 Coeff-Com:  0.158D+01
 Coeff:     -0.733D-07 0.236D-02-0.471D-01 0.237D+00 0.178D-01-0.786D+00
 Coeff:      0.158D+01
 Gap=     0.252 Goal=   None    Shift=    0.000
 RMSDP=1.15D-07 MaxDP=8.73D-06 DE=-1.26D-09 OVMax= 1.47D-05

 Cycle   9  Pass 1  IDiag  1:
 E= -763.819592092695     Delta-E=       -0.000000000059 Rises=F Damp=F
 DIIS: error= 1.07D-07 at cycle   9 NSaved=   8.
 NSaved= 8 IEnMin= 8 EnMin= -763.819592092695     IErMin= 8 ErrMin= 1.07D-07
 ErrMax= 1.07D-07  0.00D+00 EMaxC= 1.00D-01 BMatC= 3.73D-13 BMatP= 5.58D-12
 IDIUse=1 WtCom= 1.00D+00 WtEn= 0.00D+00
 Coeff-Com:  0.326D-08-0.106D-03 0.390D-02-0.408D-01 0.183D-01 0.123D+00
 Coeff-Com: -0.518D+00 0.141D+01
 Coeff:      0.326D-08-0.106D-03 0.390D-02-0.408D-01 0.183D-01 0.123D+00
 Coeff:     -0.518D+00 0.141D+01
 Gap=     0.252 Goal=   None    Shift=    0.000
 RMSDP=3.33D-08 MaxDP=2.72D-06 DE=-5.91D-11 OVMax= 2.52D-06

 Cycle  10  Pass 1  IDiag  1:
 E= -763.819592092699     Delta-E=       -0.000000000004 Rises=F Damp=F
 DIIS: error= 2.47D-08 at cycle  10 NSaved=   9.
 NSaved= 9 IEnMin= 9 EnMin= -763.819592092699     IErMin= 9 ErrMin= 2.47D-08
 ErrMax= 2.47D-08  0.00D+00 EMaxC= 1.00D-01 BMatC= 2.16D-14 BMatP= 3.73D-13
 IDIUse=1 WtCom= 1.00D+00 WtEn= 0.00D+00
 Coeff-Com:  0.470D-08-0.151D-03 0.263D-02-0.812D-02-0.491D-02 0.316D-01
 Coeff-Com: -0.150D-01-0.268D+00 0.126D+01
 Coeff:      0.470D-08-0.151D-03 0.263D-02-0.812D-02-0.491D-02 0.316D-01
 Coeff:     -0.150D-01-0.268D+00 0.126D+01
 Gap=     0.252 Goal=   None    Shift=    0.000
 RMSDP=6.32D-09 MaxDP=5.29D-07 DE=-3.87D-12 OVMax= 4.00D-07

 SCF Done:  E(ROHF) =  -763.819592093     A.U. after   10 cycles
            NFock= 10  Conv=0.63D-08     -V/T= 1.9726
 <Sx>= 0.0000 <Sy>= 0.0000 <Sz>= 0.0000 <S**2>=-0.0000 S=-0.0000
 <L.S>=  0.00000000000    
 KE= 7.853481435791D+02 PE=-1.839093687969D+03 EE= 2.846341801884D+02
 Annihilation of the first spin contaminant:
 S**2 before annihilation    -0.0000,   after     0.0000
 Leave Link  502 at Tue Feb 13 20:49:06 2018, MaxMem=  8589934592 cpu:            1047.9 elap:              34.6
 (Enter /home1/apps/gaussian/16rA.03/g16/l801.exe)
 Windowed orbitals will be sorted by symmetry type.
 An orbital has undefined symmetry, so N**3 symmetry is turned off.
 GenMOA:  NOpAll=  4 NOp2=4 NOpUse=  4 JSym2X=1
 FoFJK:  IHMeth= 1 ICntrl=       0 DoSepK=F KAlg= 0 I1Cent=           0 FoldK=F
 IRaf=         0 NMat=       1 IRICut=       1 DoRegI=T DoRafI=F ISym2E= 1 IDoP0=0 IntGTp=1.
 FoFCou: FMM=F IPFlag=           8 FMFlag=      100000 FMFlg1=           0
         NFxFlg=           0 DoJE=F BraDBF=F KetDBF=F FulRan=T
         wScrn=  0.000000 ICntrl=         0 IOpCl=  1 I1Cent=           0 NGrid=           0
         NMat0=    1 NMatS0=      1 NMatT0=    0 NMatD0=    1 NMtDS0=    0 NMtDT0=    0
 Petite list used in FoFCou.
 <Sx>= 0.0000 <Sy>= 0.0000 <Sz>= 0.0000 <S**2>=-0.0000 S=-0.0000
 ExpMin= 9.47D-03 ExpMax= 8.42D+06 ExpMxC= 8.42D+06 IAcc=4 IRadAn=    199590 AccDes= 0.00D+00
 HarFok:  IExCor=  205 AccDes= 0.00D+00 IRadAn=    199590 IDoV=-2 UseB2=F ITyADJ=14
 ICtDFT= 12500011 ScaDFX=  1.000000  1.000000  1.000000  1.000000
 Spurious integrated density or basis function:
 NE=   22 NElCor=    0 El error=3.30D-09 rel=1.50D-10 Tolerance=1.00D-03
 Shell     1     absolute error=3.21D-02              Tolerance=1.20D-02
 Shell     1       signed error=3.21D-02              Tolerance=1.00D-01
 Largest valence mixing into a core orbital is  2.80D-04
 Largest core mixing into a valence orbital is  1.20D-04
 Largest valence mixing into a core orbital is  2.80D-04
 Largest core mixing into a valence orbital is  1.20D-04
 Range of M.O.s used for correlation:     6   309
 NBasis=   310 NAE=    11 NBE=    11 NFC=     5 NFV=     0
 NROrb=    304 NOA=     6 NOB=     6 NVA=   298 NVB=   298

 **** Warning!!: The largest alpha MO coefficient is  0.31931635D+03


 **** Warning!!: The largest beta MO coefficient is  0.31931635D+03

 Singles contribution to E2=   -0.5136945673D-14
 Leave Link  801 at Tue Feb 13 20:49:19 2018, MaxMem=  8589934592 cpu:             422.6 elap:              13.2
 (Enter /home1/apps/gaussian/16rA.03/g16/l804.exe)
 Open-shell transformation, MDV=  8589934592 ITran=4 ISComp=1.
 Unit  1 TFree=       2913449 TCopy=       2390364.
 Semi-Direct transformation.
 ModeAB=           2 MOrb=             6 LenV=    8587054543
 LASXX=     83012043 LTotXX=    83012043 LenRXX=    83012043
 LTotAB=    83865240 MaxLAS=   147749472 LenRXY=   147749472
 NonZer=   166024086 LenScr=   250013696 LnRSAI=           0
 LnScr1=           0 LExtra=     6922991 Total=    487698202
 MaxDsk= 67108864000 SrtSym=           F ITran=            4
 DoSDTr:  NPSUse= 32
 JobTyp=1 Pass  1:  I=   1 to   6.
 (rs|ai) integrals will be sorted in core.
 Complete sort for first half transformation.
 First half transformation complete.
 Complete sort for second half transformation.
 Second half transformation complete.
 ModeAB=           2 MOrb=             6 LenV=    8587054543
 LASXX=     83012043 LTotXX=    83012043 LenRXX=   147749472
 LTotAB=    80592759 MaxLAS=   147749472 LenRXY=    80592759
 NonZer=   166024086 LenScr=   250013696 LnRSAI=           0
 LnScr1=           0 LExtra=   237684506 Total=    716040433
 MaxDsk= 67108864000 SrtSym=           F ITran=            4
 DoSDTr:  NPSUse= 32
 JobTyp=2 Pass  1:  I=   1 to   6.
 (rs|ai) integrals will be sorted in core.
 Complete sort for first half transformation.
 First half transformation complete.
 Complete sort for second half transformation.
 Second half transformation complete.
 SymMOI:  orbitals are not symmetric.
 Spin components of T(2) and E(2):
     alpha-alpha T2 =       0.1110374333D-01 E2=     -0.4484691005D-01
     alpha-beta  T2 =       0.9500130812D-01 E2=     -0.2995624837D+00
     beta-beta   T2 =       0.1110374333D-01 E2=     -0.4484691005D-01
 ANorm=    0.1056980981D+01
 E2 =    -0.3892563038D+00 EUMP2 =    -0.76420884839648D+03
 (S**2,0)=  0.00000D+00           (S**2,1)=  0.00000D+00
 E(PUHF)=      -0.76381959209D+03        E(PMP2)=      -0.76420884840D+03
 Leave Link  804 at Tue Feb 13 20:55:22 2018, MaxMem=  8589934592 cpu:           11604.7 elap:             362.7
 (Enter /home1/apps/gaussian/16rA.03/g16/l913.exe)
 CIDS:  MDV=  8589934592.
 Frozen-core window:  NFC=   5 NFV=   0.
 IFCWin=0 IBDFC=1 NFBD=     0     0 NFCmp=     0     0 NFFFC=     0     0
 Using original routines for 1st iteration.
 Using DD4UQ or CC4UQ for 2nd and later iterations.
 Keep R2 and R3 ints in memory in symmetry-blocked form, NReq=1456566559.
 FoFCou: FMM=F IPFlag=           8 FMFlag=           0 FMFlg1=           0
         NFxFlg=           0 DoJE=F BraDBF=F KetDBF=F FulRan=T
         wScrn=  0.000000 ICntrl=       600 IOpCl=  0 I1Cent=           0 NGrid=           0
         NMat0=    1 NMatS0=  48205 NMatT0=    0 NMatD0=    1 NMtDS0=    0 NMtDT0=    0
 Petite list used in FoFCou.
 CIDS: In Core Option IDoMem=           1.
 CCSD(T)
 =======
 Iterations= 150 Convergence= 0.100D-06
 Produce multiple copies of IABC intergrals
 Iteration Nr.   1
 **********************
 DD1Dir will call FoFMem   1 times, MxPair=       102
 NAB=    36 NAA=    15 NBB=    15.
 DD1Dir will call FoFMem   1 times, MxPair=       102
 NAB=    36 NAA=    15 NBB=    15.
 MP4(R+Q)=  0.34017918D-01
 Maximum subspace dimension=  5
 A-vector RMS=  2.5318918D-05 Max=  5.9255136D-03 conv= 1.00D-05.
 RLE energy=       -0.3787649007
 E3=       -0.23235914D-01        EROMP3=      -0.76423208431D+03
 E4(SDQ)=  -0.34663767D-02        ROMP4(SDQ)=  -0.76423555069D+03
 VARIATIONAL ENERGIES WITH THE FIRST-ORDER WAVEFUNCTION:
 DE(Corr)= -0.37847430     E(Corr)=     -764.19806639    
 NORM(A)=   0.10508600D+01
 Iteration Nr.   2
 **********************
 DD1Dir will call FoFMem   1 times, MxPair=       102
 NAB=    36 NAA=    15 NBB=    15.
 A-vector RMS=  3.3010040D-03 Max=  3.2619224D-02 conv= 1.00D-05.
 RLE energy=       -0.3858350908
 DE(Corr)= -0.40076325     E(CORR)=     -764.22035534     Delta=-2.23D-02
 NORM(A)=   0.10552773D+01
 Iteration Nr.   3
 **********************
 DD1Dir will call FoFMem   1 times, MxPair=       102
 NAB=    36 NAA=    15 NBB=    15.
 A-vector RMS=  2.4467798D-03 Max=  2.4676678D-02 conv= 1.00D-05.
 RLE energy=       -0.3957657825
 DE(Corr)= -0.40432079     E(CORR)=     -764.22391289     Delta=-3.56D-03
 NORM(A)=   0.10631145D+01
 Iteration Nr.   4
 **********************
 DD1Dir will call FoFMem   1 times, MxPair=       102
 NAB=    36 NAA=    15 NBB=    15.
 A-vector RMS=  2.2793899D-03 Max=  2.2678225D-02 conv= 1.00D-05.
 RLE energy=       -0.4257999437
 DE(Corr)= -0.40710083     E(CORR)=     -764.22669292     Delta=-2.78D-03
 NORM(A)=   0.11171926D+01
 Iteration Nr.   5
 **********************
 DD1Dir will call FoFMem   1 times, MxPair=       102
 NAB=    36 NAA=    15 NBB=    15.
 A-vector RMS=  8.8816421D-04 Max=  6.4677586D-03 conv= 1.00D-05.
 RLE energy=       -0.4270161176
 DE(Corr)= -0.42087138     E(CORR)=     -764.24046347     Delta=-1.38D-02
 NORM(A)=   0.11290574D+01
 Iteration Nr.   6
 **********************
 DD1Dir will call FoFMem   1 times, MxPair=       102
 NAB=    36 NAA=    15 NBB=    15.
 A-vector RMS=  7.3726119D-04 Max=  5.8488029D-03 conv= 1.00D-05.
 RLE energy=       -0.4171365557
 DE(Corr)= -0.42134647     E(CORR)=     -764.24093857     Delta=-4.75D-04
 NORM(A)=   0.11086498D+01
 Iteration Nr.   7
 **********************
 DD1Dir will call FoFMem   1 times, MxPair=       102
 NAB=    36 NAA=    15 NBB=    15.
 A-vector RMS=  2.8517522D-04 Max=  3.8905620D-03 conv= 1.00D-05.
 RLE energy=       -0.4175798191
 DE(Corr)= -0.41710687     E(CORR)=     -764.23669896     Delta= 4.24D-03
 NORM(A)=   0.11165721D+01
 Iteration Nr.   8
 **********************
 DD1Dir will call FoFMem   1 times, MxPair=       102
 NAB=    36 NAA=    15 NBB=    15.
 A-vector RMS=  7.1033799D-05 Max=  5.6884607D-04 conv= 1.00D-05.
 RLE energy=       -0.4174974384
 DE(Corr)= -0.41763958     E(CORR)=     -764.23723167     Delta=-5.33D-04
 NORM(A)=   0.11164646D+01
 Iteration Nr.   9
 **********************
 DD1Dir will call FoFMem   1 times, MxPair=       102
 NAB=    36 NAA=    15 NBB=    15.
 A-vector RMS=  7.8171745D-05 Max=  8.9188735D-04 conv= 1.00D-05.
 RLE energy=       -0.4174960045
 DE(Corr)= -0.41746633     E(CORR)=     -764.23705843     Delta= 1.73D-04
 NORM(A)=   0.11175631D+01
 Iteration Nr.  10
 **********************
 DD1Dir will call FoFMem   1 times, MxPair=       102
 NAB=    36 NAA=    15 NBB=    15.
 A-vector RMS=  1.6703656D-05 Max=  1.8348377D-04 conv= 1.00D-05.
 RLE energy=       -0.4174562647
 DE(Corr)= -0.41748213     E(CORR)=     -764.23707422     Delta=-1.58D-05
 NORM(A)=   0.11174854D+01
 Iteration Nr.  11
 **********************
 DD1Dir will call FoFMem   1 times, MxPair=       102
 NAB=    36 NAA=    15 NBB=    15.
 A-vector RMS=  1.5331143D-05 Max=  1.8820929D-04 conv= 1.00D-05.
 RLE energy=       -0.4174781545
 DE(Corr)= -0.41746674     E(CORR)=     -764.23705883     Delta= 1.54D-05
 NORM(A)=   0.11176151D+01
 Iteration Nr.  12
 **********************
 DD1Dir will call FoFMem   1 times, MxPair=       102
 NAB=    36 NAA=    15 NBB=    15.
 A-vector RMS=  6.0935579D-06 Max=  6.7978869D-05 conv= 1.00D-05.
 RLE energy=       -0.4174629317
 DE(Corr)= -0.41745773     E(CORR)=     -764.23704982     Delta= 9.01D-06
 NORM(A)=   0.11176370D+01
 Iteration Nr.  13
 **********************
 DD1Dir will call FoFMem   1 times, MxPair=       102
 NAB=    36 NAA=    15 NBB=    15.
 A-vector RMS=  2.4137140D-06 Max=  2.4571600D-05 conv= 1.00D-05.
 RLE energy=       -0.4174676163
 DE(Corr)= -0.41746616     E(CORR)=     -764.23705826     Delta=-8.44D-06
 NORM(A)=   0.11176693D+01
 Iteration Nr.  14
 **********************
 DD1Dir will call FoFMem   1 times, MxPair=       102
 NAB=    36 NAA=    15 NBB=    15.
 A-vector RMS=  1.6471282D-06 Max=  1.5408555D-05 conv= 1.00D-05.
 RLE energy=       -0.4174657993
 DE(Corr)= -0.41746583     E(CORR)=     -764.23705792     Delta= 3.37D-07
 NORM(A)=   0.11176943D+01
 Iteration Nr.  15
 **********************
 DD1Dir will call FoFMem   1 times, MxPair=       102
 NAB=    36 NAA=    15 NBB=    15.
 A-vector RMS=  5.6063072D-07 Max=  5.2243168D-06 conv= 1.00D-05.
 RLE energy=       -0.4174672456
 DE(Corr)= -0.41746747     E(CORR)=     -764.23705956     Delta=-1.64D-06
 NORM(A)=   0.11177005D+01
 Iteration Nr.  16
 **********************
 DD1Dir will call FoFMem   1 times, MxPair=       102
 NAB=    36 NAA=    15 NBB=    15.
 A-vector RMS=  5.5191789D-07 Max=  5.7918973D-06 conv= 1.00D-05.
 RLE energy=       -0.4174671735
 DE(Corr)= -0.41746711     E(CORR)=     -764.23705920     Delta= 3.58D-07
 NORM(A)=   0.11177050D+01
 Iteration Nr.  17
 **********************
 DD1Dir will call FoFMem   1 times, MxPair=       102
 NAB=    36 NAA=    15 NBB=    15.
 A-vector RMS=  2.8125900D-07 Max=  3.7029903D-06 conv= 1.00D-05.
 RLE energy=       -0.4174667697
 DE(Corr)= -0.41746707     E(CORR)=     -764.23705916     Delta= 4.01D-08
 NORM(A)=   0.11177083D+01
 CI/CC converged in   17 iterations to DelEn= 4.01D-08 Conv= 1.00D-07 ErrA1= 2.81D-07 Conv= 1.00D-05
 Wavefunction amplitudes converged. E(Corr)=     -764.23705916    
 Dominant configurations:
 ***********************
 Spin Case        I    J    A    B          Value
    AA           11        21           -0.113050D+00
    BB           11        21           -0.113050D+00
 Largest amplitude= 1.13D-01
 Time for triples=    12636.09 seconds.
 T4(CCSD)= -0.20998329D-01
 T5(CCSD)=  0.25729166D-02
 CCSD(T)= -0.76425548458D+03
 Discarding MO integrals.
 Leave Link  913 at Tue Feb 13 21:12:03 2018, MaxMem=  8589934592 cpu:           32041.4 elap:            1001.4
 (Enter /home1/apps/gaussian/16rA.03/g16/l601.exe)
 Copying SCF densities to generalized density rwf, IOpCl= 0 IROHF=1.

 **********************************************************************

            Population analysis using the SCF density.

 **********************************************************************

 Orbital symmetries:
       Occupied  (SG) (SG) (PI) (PI) (SG) (SG) (PI) (PI) (SG) (SG)
                 (SG)
       Virtual   (PI) (PI) (SG) (SG) (DLTA) (DLTA) (PI) (PI) (SG)
                 (SG) (PI) (PI) (DLTA) (DLTA) (PI) (PI) (SG) (SG)
                 (DLTA) (DLTA) (SG) (PI) (PI) (SG) (PI) (PI) (PHI)
                 (PHI) (DLTA) (DLTA) (PI) (PI) (SG) (SG) (DLTA)
                 (DLTA) (PI) (PI) (SG) (SG) (PI) (PI) (SG) (DLTA)
                 (DLTA) (PI) (PI) (?A) (?A) (PHI) (PHI) (SG) (PI)
                 (PI) (PHI) (PHI) (DLTA) (DLTA) (SG) (PI) (PI)
                 (SG) (DLTA) (DLTA) (PI) (PI) (SG) (SG) (DLTA)
                 (DLTA) (?B) (?B) (?A) (?A) (PHI) (PHI) (PI) (PI)
                 (SG) (DLTA) (DLTA) (SG) (PI) (PI) (PI) (PI) (SG)
                 (PI) (PI) (SG) (PHI) (PHI) (?A) (?A) (DLTA) (DLTA)
                 (SG) (PI) (PI) (DLTA) (DLTA) (SG) (PHI) (PHI)
                 (DLTA) (DLTA) (PI) (PI) (PI) (PI) (SG) (SG) (PHI)
                 (PHI) (DLTA) (DLTA) (SG) (PI) (PI) (SG) (PI) (PI)
                 (DLTA) (DLTA) (SG) (PI) (PI) (SG) (?B) (?B) (?A)
                 (?A) (PHI) (PHI) (SG) (DLTA) (DLTA) (PI) (PI)
                 (PI) (PI) (DLTA) (DLTA) (SG) (PI) (PI) (SG) (PHI)
                 (PHI) (DLTA) (DLTA) (?A) (?A) (PHI) (PHI) (DLTA)
                 (DLTA) (PI) (PI) (PI) (PI) (SG) (SG) (SG) (DLTA)
                 (DLTA) (PI) (PI) (SG) (PI) (PI) (SG) (SG) (PHI)
                 (PHI) (DLTA) (DLTA) (PI) (PI) (SG) (PI) (PI) (DLTA)
                 (DLTA) (SG) (PI) (PI) (SG) (PHI) (PHI) (DLTA)
                 (DLTA) (PI) (PI) (DLTA) (DLTA) (PI) (PI) (SG)
                 (SG) (PI) (PI) (SG) (?B) (?B) (?A) (?A) (PHI)
                 (PHI) (DLTA) (DLTA) (PI) (PI) (SG) (?A) (?A) (PHI)
                 (PHI) (DLTA) (DLTA) (PI) (PI) (SG) (SG) (DLTA)
                 (DLTA) (PI) (PI) (SG) (PI) (PI) (SG) (SG) (SG)
                 (DLTA) (DLTA) (PI) (PI) (SG) (PI) (PI) (SG) (DLTA)
                 (DLTA) (PI) (PI) (SG) (SG) (PI) (PI) (SG) (PI)
                 (PI) (SG) (SG) (DLTA) (DLTA) (PI) (PI) (SG) (SG)
                 (PI) (PI) (SG) (SG) (PI) (PI) (SG) (DLTA) (DLTA)
                 (PI) (PI) (SG) (SG) (PI) (PI) (SG) (SG) (PI) (PI)
                 (SG) (SG) (PI) (PI) (SG) (SG) (PI) (PI) (SG) (SG)
                 (PI) (PI) (SG) (SG) (SG) (SG) (SG) (SG)
 The electronic state is 1-SG.
 Alpha  occ. eigenvalues -- -166.95219 -19.40902 -15.83239 -15.83239 -15.82416
 Alpha  occ. eigenvalues --   -2.71414  -1.68792  -1.68792  -1.68560  -0.36971
 Alpha  occ. eigenvalues --   -0.24314
 Alpha virt. eigenvalues --    0.00894   0.00894   0.01200   0.02047   0.02806
 Alpha virt. eigenvalues --    0.02806   0.02949   0.02949   0.03020   0.03745
 Alpha virt. eigenvalues --    0.03803   0.03803   0.06400   0.06400   0.07290
 Alpha virt. eigenvalues --    0.07290   0.08336   0.09468   0.10632   0.10632
 Alpha virt. eigenvalues --    0.10878   0.11091   0.11091   0.11534   0.12167
 Alpha virt. eigenvalues --    0.12167   0.12862   0.12862   0.13134   0.13134
 Alpha virt. eigenvalues --    0.14150   0.14150   0.17750   0.21159   0.25584
 Alpha virt. eigenvalues --    0.25584   0.25979   0.25979   0.26752   0.30342
 Alpha virt. eigenvalues --    0.30843   0.30843   0.35476   0.35915   0.35915
 Alpha virt. eigenvalues --    0.35937   0.35937   0.36349   0.36349   0.36634
 Alpha virt. eigenvalues --    0.36634   0.39375   0.41581   0.41581   0.45090
 Alpha virt. eigenvalues --    0.45090   0.45440   0.45440   0.46315   0.55916
 Alpha virt. eigenvalues --    0.55916   0.56891   0.60542   0.60542   0.60669
 Alpha virt. eigenvalues --    0.60669   0.63282   0.71942   0.73197   0.73197
 Alpha virt. eigenvalues --    0.73572   0.73572   0.73897   0.73897   0.73903
 Alpha virt. eigenvalues --    0.73903   0.74065   0.74065   0.83798   0.92309
 Alpha virt. eigenvalues --    0.92309   0.94207   0.94286   0.94286   1.08458
 Alpha virt. eigenvalues --    1.08458   1.13827   1.13841   1.13841   1.21392
 Alpha virt. eigenvalues --    1.25915   1.25915   1.26242   1.26242   1.33953
 Alpha virt. eigenvalues --    1.33953   1.35318   1.36681   1.36681   1.37664
 Alpha virt. eigenvalues --    1.37664   1.38125   1.38428   1.38428   1.40032
 Alpha virt. eigenvalues --    1.40032   1.40095   1.40095   1.68116   1.68116
 Alpha virt. eigenvalues --    1.72058   1.77748   1.79027   1.79027   2.03907
 Alpha virt. eigenvalues --    2.03907   2.15154   2.19320   2.19320   2.27889
 Alpha virt. eigenvalues --    2.64675   2.64675   2.69156   2.69156   2.76436
 Alpha virt. eigenvalues --    2.76544   2.76544   2.87498   2.89391   2.89391
 Alpha virt. eigenvalues --    2.89465   2.89465   2.90935   2.90935   2.94833
 Alpha virt. eigenvalues --    2.95429   2.95429   2.96498   2.96498   3.09390
 Alpha virt. eigenvalues --    3.09390   3.10046   3.10046   3.26475   3.29564
 Alpha virt. eigenvalues --    3.29564   3.60102   3.71238   3.71238   3.76359
 Alpha virt. eigenvalues --    3.76359   4.13801   4.13801   4.14635   4.14635
 Alpha virt. eigenvalues --    4.21229   4.21229   4.23168   4.23168   4.28511
 Alpha virt. eigenvalues --    4.28511   4.34370   4.59464   5.25855   5.67430
 Alpha virt. eigenvalues --    5.67430   5.69328   5.69328   5.71339   5.78523
 Alpha virt. eigenvalues --    5.78523   5.81935   6.55078   6.73456   6.73456
 Alpha virt. eigenvalues --    6.79642   6.79642   6.87646   6.87646   7.14145
 Alpha virt. eigenvalues --    8.39517   8.39517   8.64321   8.64321   8.73460
 Alpha virt. eigenvalues --    8.81480   8.81480   9.25684   9.74217   9.74217
 Alpha virt. eigenvalues --    9.77345   9.77345  10.01347  10.01347  10.17553
 Alpha virt. eigenvalues --   10.17553  10.21029  10.21029  10.28322  10.42516
 Alpha virt. eigenvalues --   11.00946  11.00946  11.18266  11.30023  11.30023
 Alpha virt. eigenvalues --   11.30363  11.30363  11.31204  11.31204  11.34840
 Alpha virt. eigenvalues --   11.34840  11.41806  11.41806  11.47551  11.66716
 Alpha virt. eigenvalues --   11.66716  11.67715  11.67715  11.71648  11.71648
 Alpha virt. eigenvalues --   11.76069  11.76069  11.86189  12.82828  17.53651
 Alpha virt. eigenvalues --   17.53651  17.56372  17.56372  17.67705  19.98546
 Alpha virt. eigenvalues --   19.98546  20.10756  26.35267  28.30617  30.75063
 Alpha virt. eigenvalues --   30.75063  30.77775  30.77775  30.87606  35.24340
 Alpha virt. eigenvalues --   35.24340  35.35542  61.67425  61.67425  61.69676
 Alpha virt. eigenvalues --   61.69676  61.76601  62.16821  62.27305  62.27305
 Alpha virt. eigenvalues --   62.39000 115.34224 115.34224 115.43053 144.92774
 Alpha virt. eigenvalues --  151.94259 151.94259 151.95730 151.95730 152.01270
 Alpha virt. eigenvalues --  156.57511 227.51091 227.51091 227.58518 346.02474
 Alpha virt. eigenvalues --  472.82700 472.82700 472.88914 487.61110 487.61110
 Alpha virt. eigenvalues --  487.61916 487.61916 487.65271 810.840971024.74299
 Alpha virt. eigenvalues -- 1024.742991024.794981851.602462306.919762306.91976
 Alpha virt. eigenvalues -- 2306.961544118.777255384.522165384.522165384.55266
 Alpha virt. eigenvalues -- 8863.95891****************************************
 Alpha virt. eigenvalues -- **************************************************
 Alpha virt. eigenvalues -- ******************************
     Molecular Orbital Coefficients:
                           7         8         9        10        11
                           O         O         O         O         O
     Eigenvalues --    -1.68792  -1.68792  -1.68560  -0.36971  -0.24314
   1 1   Sc 1S         -0.00000  -0.00000  -0.00000  -0.00000  -0.00000
   2        2S         -0.00000   0.00000  -0.00000  -0.00000  -0.00000
   3        3S         -0.00000  -0.00000  -0.00000  -0.00001  -0.00001
   4        4S         -0.00000   0.00000  -0.00000  -0.00001  -0.00002
   5        5S         -0.00000  -0.00000  -0.00000  -0.00003  -0.00006
   6        6S         -0.00000  -0.00000  -0.00000  -0.00008  -0.00014
   7        7S         -0.00000  -0.00000  -0.00001  -0.00021  -0.00036
   8        8S         -0.00000  -0.00000  -0.00002  -0.00053  -0.00092
   9        9S         -0.00000  -0.00000  -0.00006  -0.00130  -0.00223
  10       10S         -0.00000  -0.00000  -0.00013  -0.00287  -0.00494
  11       11S         -0.00000  -0.00000  -0.00024  -0.00559  -0.00960
  12       12S         -0.00000  -0.00000  -0.00039  -0.00828  -0.01432
  13       13S         -0.00000  -0.00000  -0.00022  -0.00624  -0.01061
  14       14S          0.00000   0.00000   0.00037   0.01235   0.02090
  15       15S          0.00000  -0.00000   0.00224   0.04180   0.07402
  16       16S          0.00000   0.00000  -0.00019   0.08338   0.13342
  17       17S         -0.00000  -0.00000  -0.00131  -0.01164  -0.02415
  18       18S         -0.00000  -0.00000  -0.00743  -0.15933  -0.27720
  19       19S         -0.00000   0.00000   0.00646  -0.10298  -0.20821
  20       20S          0.00000  -0.00000  -0.00039   0.19930   0.46165
  21       21S          0.00000  -0.00000   0.00018   0.09719   0.43980
  22       22S          0.00000   0.00000   0.00007   0.06358   0.16910
  23       23S         -0.00000  -0.00000   0.00380  -0.04093  -0.05667
  24       24S         -0.00000  -0.00000  -0.00310  -0.00294  -0.01104
  25       25S         -0.00000  -0.00000   0.00006  -0.00312  -0.00201
  26       26PX        -0.00001  -0.00001   0.00000   0.00000   0.00000
  27       26PY        -0.00001   0.00001  -0.00000   0.00000  -0.00000
  28       26PZ         0.00000  -0.00000  -0.00001  -0.00000   0.00000
  29       27PX        -0.00004  -0.00005   0.00000  -0.00000   0.00000
  30       27PY        -0.00005   0.00004  -0.00000   0.00000   0.00000
  31       27PZ         0.00000  -0.00000  -0.00006  -0.00001   0.00000
  32       28PX        -0.00017  -0.00021   0.00000   0.00000  -0.00000
  33       28PY        -0.00021   0.00017  -0.00000   0.00000   0.00000
  34       28PZ         0.00000  -0.00000  -0.00027  -0.00003   0.00002
  35       29PX        -0.00068  -0.00083   0.00000  -0.00000  -0.00000
  36       29PY        -0.00083   0.00068  -0.00000   0.00000   0.00000
  37       29PZ         0.00000  -0.00000  -0.00108  -0.00013   0.00009
  38       30PX        -0.00242  -0.00294   0.00000   0.00000  -0.00000
  39       30PY        -0.00294   0.00242  -0.00000   0.00000   0.00000
  40       30PZ         0.00000  -0.00000  -0.00383  -0.00045   0.00031
  41       31PX        -0.00744  -0.00907   0.00000   0.00000  -0.00000
  42       31PY        -0.00907   0.00744  -0.00000   0.00000   0.00000
  43       31PZ         0.00000  -0.00000  -0.01178  -0.00140   0.00095
  44       32PX        -0.01959  -0.02387   0.00000   0.00000  -0.00000
  45       32PY        -0.02387   0.01959  -0.00000   0.00000   0.00000
  46       32PZ         0.00000  -0.00000  -0.03103  -0.00367   0.00253
  47       33PX        -0.04201  -0.05119   0.00000   0.00000  -0.00000
  48       33PY        -0.05119   0.04201  -0.00000   0.00000   0.00000
  49       33PZ         0.00000  -0.00000  -0.06654  -0.00798   0.00535
  50       34PX        -0.06960  -0.08480   0.00000   0.00000  -0.00000
  51       34PY        -0.08480   0.06960  -0.00000   0.00000   0.00000
  52       34PZ         0.00000  -0.00000  -0.11030  -0.01302   0.00914
  53       35PX        -0.08399  -0.10234   0.00000   0.00000  -0.00000
  54       35PY        -0.10234   0.08399  -0.00000   0.00000   0.00000
  55       35PZ         0.00000  -0.00000  -0.13293  -0.01665   0.01032
  56       36PX        -0.03556  -0.04333   0.00000   0.00000   0.00000
  57       36PY        -0.04333   0.03556  -0.00000   0.00000   0.00000
  58       36PZ         0.00000  -0.00000  -0.05811   0.00376   0.01394
  59       37PX         0.11352   0.13831  -0.00000   0.00000   0.00000
  60       37PY         0.13831  -0.11352   0.00000  -0.00000   0.00000
  61       37PZ        -0.00000   0.00000   0.17922   0.03086  -0.01154
  62       38PX         0.26004   0.31683  -0.00000  -0.00000  -0.00000
  63       38PY         0.31683  -0.26004   0.00000  -0.00000  -0.00000
  64       38PZ        -0.00000   0.00000   0.41398   0.03678  -0.06455
  65       39PX         0.25295   0.30819  -0.00000  -0.00000  -0.00000
  66       39PY         0.30819  -0.25295   0.00000  -0.00000  -0.00000
  67       39PZ        -0.00000   0.00000   0.40068   0.05673  -0.06896
  68       40PX         0.09655   0.11764  -0.00000   0.00000   0.00000
  69       40PY         0.11764  -0.09655   0.00000  -0.00000  -0.00000
  70       40PZ        -0.00000   0.00000   0.14773   0.00926   0.00012
  71       41PX         0.00870   0.01060  -0.00000   0.00000  -0.00000
  72       41PY         0.01060  -0.00870   0.00000   0.00000  -0.00000
  73       41PZ        -0.00000   0.00000   0.00709  -0.08794   0.12064
  74       42PX         0.00001   0.00001  -0.00000  -0.00000   0.00000
  75       42PY         0.00001  -0.00001   0.00000   0.00000  -0.00000
  76       42PZ        -0.00000  -0.00000  -0.00063  -0.06079   0.15422
  77       43PX         0.00011   0.00014  -0.00000  -0.00000  -0.00000
  78       43PY         0.00014  -0.00011   0.00000   0.00000  -0.00000
  79       43PZ        -0.00000   0.00000  -0.00008  -0.02882   0.01670
  80       44PX         0.00183   0.00223  -0.00000  -0.00000  -0.00000
  81       44PY         0.00223  -0.00183   0.00000  -0.00000  -0.00000
  82       44PZ         0.00000   0.00000   0.00557  -0.01167  -0.01236
  83       45PX        -0.00056  -0.00068   0.00000   0.00000   0.00000
  84       45PY        -0.00068   0.00056  -0.00000   0.00000   0.00000
  85       45PZ        -0.00000  -0.00000  -0.00263   0.02311   0.03444
  86       46PX        -0.00002  -0.00002  -0.00000  -0.00000   0.00000
  87       46PY        -0.00002   0.00002   0.00000   0.00000  -0.00000
  88       46PZ         0.00000  -0.00000  -0.00002   0.00020  -0.00453
  89       47D 0       -0.00000   0.00000   0.00001   0.00011  -0.00021
  90       47D+1       -0.00000  -0.00000   0.00000   0.00000   0.00000
  91       47D-1       -0.00000   0.00000  -0.00000   0.00000   0.00000
  92       47D+2       -0.00000   0.00000  -0.00000  -0.00000  -0.00000
  93       47D-2        0.00000   0.00000  -0.00000   0.00000   0.00000
  94       48D 0       -0.00000   0.00000   0.00008   0.00094  -0.00179
  95       48D+1       -0.00001  -0.00001   0.00000   0.00000   0.00000
  96       48D-1       -0.00001   0.00001  -0.00000   0.00000   0.00000
  97       48D+2       -0.00000  -0.00000  -0.00000  -0.00000  -0.00000
  98       48D-2       -0.00000   0.00000  -0.00000   0.00000   0.00000
  99       49D 0       -0.00000   0.00000   0.00037   0.00429  -0.00809
 100       49D+1       -0.00003  -0.00003   0.00000   0.00000   0.00000
 101       49D-1       -0.00003   0.00003  -0.00000   0.00000   0.00000
 102       49D+2       -0.00000  -0.00000  -0.00000  -0.00000  -0.00000
 103       49D-2       -0.00000   0.00000  -0.00000   0.00000   0.00000
 104       50D 0       -0.00000   0.00000   0.00123   0.01306  -0.02515
 105       50D+1       -0.00008  -0.00010   0.00000   0.00000   0.00000
 106       50D-1       -0.00010   0.00008  -0.00000   0.00000   0.00000
 107       50D+2       -0.00000  -0.00000  -0.00000  -0.00000  -0.00000
 108       50D-2       -0.00000   0.00000  -0.00000   0.00000   0.00000
 109       51D 0       -0.00000   0.00000   0.00289   0.03248  -0.05915
 110       51D+1       -0.00032  -0.00039   0.00000   0.00000   0.00000
 111       51D-1       -0.00039   0.00032  -0.00000   0.00000   0.00000
 112       51D+2       -0.00000   0.00000  -0.00000  -0.00000  -0.00000
 113       51D-2       -0.00000   0.00000  -0.00000   0.00000   0.00000
 114       52D 0       -0.00000   0.00000   0.00509   0.06228  -0.09834
 115       52D+1       -0.00028  -0.00034   0.00000  -0.00000   0.00000
 116       52D-1       -0.00034   0.00028  -0.00000   0.00000   0.00000
 117       52D+2       -0.00000   0.00000  -0.00000  -0.00000  -0.00000
 118       52D-2       -0.00000   0.00000  -0.00000   0.00000  -0.00000
 119       53D 0       -0.00000   0.00000   0.00938   0.07843  -0.12754
 120       53D+1        0.00118   0.00144  -0.00000   0.00000   0.00000
 121       53D-1        0.00144  -0.00118   0.00000   0.00000   0.00000
 122       53D+2       -0.00000  -0.00000  -0.00000  -0.00000  -0.00000
 123       53D-2       -0.00000   0.00000  -0.00000   0.00000  -0.00000
 124       54D 0        0.00000   0.00000   0.00232   0.07272  -0.14257
 125       54D+1        0.00141   0.00172  -0.00000   0.00000   0.00000
 126       54D-1        0.00172  -0.00141   0.00000   0.00000   0.00000
 127       54D+2        0.00000  -0.00000   0.00000  -0.00000  -0.00000
 128       54D-2       -0.00000   0.00000  -0.00000   0.00000   0.00000
 129       55D 0        0.00000  -0.00000  -0.00014   0.07069  -0.10311
 130       55D+1        0.00096   0.00117  -0.00000   0.00000   0.00000
 131       55D-1        0.00117  -0.00096   0.00000   0.00000   0.00000
 132       55D+2       -0.00000  -0.00000   0.00000  -0.00000  -0.00000
 133       55D-2       -0.00000   0.00000  -0.00000  -0.00000   0.00000
 134       56D 0       -0.00000  -0.00000  -0.00004   0.03039  -0.04150
 135       56D+1        0.00049   0.00059   0.00000   0.00000   0.00000
 136       56D-1        0.00059  -0.00049   0.00000   0.00000   0.00000
 137       56D+2       -0.00000  -0.00000   0.00000  -0.00000  -0.00000
 138       56D-2       -0.00000   0.00000  -0.00000  -0.00000   0.00000
 139       57D 0        0.00000   0.00000   0.00003   0.01081   0.00134
 140       57D+1       -0.00001  -0.00002   0.00000  -0.00000   0.00000
 141       57D-1       -0.00002   0.00001   0.00000  -0.00000  -0.00000
 142       57D+2       -0.00000  -0.00000   0.00000  -0.00000  -0.00000
 143       57D-2       -0.00000   0.00000  -0.00000  -0.00000  -0.00000
 144       58D 0        0.00000  -0.00000  -0.00100  -0.00444  -0.00062
 145       58D+1       -0.00045  -0.00054   0.00000   0.00000   0.00000
 146       58D-1       -0.00054   0.00045  -0.00000   0.00000   0.00000
 147       58D+2        0.00000  -0.00000  -0.00000   0.00000  -0.00000
 148       58D-2       -0.00000  -0.00000  -0.00000   0.00000   0.00000
 149       59D 0        0.00000  -0.00000  -0.00198  -0.01274  -0.00295
 150       59D+1       -0.00091  -0.00111   0.00000   0.00000  -0.00000
 151       59D-1       -0.00111   0.00091  -0.00000   0.00000   0.00000
 152       59D+2        0.00000  -0.00000  -0.00000   0.00000  -0.00000
 153       59D-2       -0.00000  -0.00000  -0.00000  -0.00000   0.00000
 154       60D 0       -0.00000  -0.00000   0.00001  -0.00047   0.00118
 155       60D+1        0.00000   0.00000   0.00000   0.00000   0.00000
 156       60D-1        0.00000  -0.00000   0.00000   0.00000  -0.00000
 157       60D+2       -0.00000  -0.00000   0.00000  -0.00000  -0.00000
 158       60D-2       -0.00000   0.00000  -0.00000   0.00000  -0.00000
 159       61F 0        0.00000  -0.00000   0.00002  -0.00092   0.00024
 160       61F+1       -0.00068  -0.00082   0.00000   0.00000  -0.00000
 161       61F-1       -0.00082   0.00068  -0.00000   0.00000  -0.00000
 162       61F+2       -0.00000   0.00000   0.00000   0.00000  -0.00000
 163       61F-2       -0.00000  -0.00000   0.00000  -0.00000  -0.00000
 164       61F+3        0.00000   0.00000  -0.00000   0.00000  -0.00000
 165       61F-3        0.00000  -0.00000   0.00000  -0.00000   0.00000
 166       62F 0        0.00000  -0.00000  -0.00007  -0.00242  -0.00083
 167       62F+1       -0.00144  -0.00176   0.00000   0.00000  -0.00000
 168       62F-1       -0.00176   0.00144  -0.00000  -0.00000   0.00000
 169       62F+2       -0.00000  -0.00000   0.00000   0.00000  -0.00000
 170       62F-2       -0.00000  -0.00000   0.00000  -0.00000  -0.00000
 171       62F+3        0.00000   0.00000   0.00000  -0.00000   0.00000
 172       62F-3        0.00000  -0.00000  -0.00000   0.00000  -0.00000
 173       63F 0       -0.00000   0.00000   0.00165  -0.01076  -0.00202
 174       63F+1       -0.00158  -0.00192   0.00000   0.00000  -0.00000
 175       63F-1       -0.00192   0.00158  -0.00000   0.00000   0.00000
 176       63F+2        0.00000   0.00000   0.00000   0.00000  -0.00000
 177       63F-2       -0.00000   0.00000   0.00000  -0.00000  -0.00000
 178       63F+3        0.00000   0.00000  -0.00000   0.00000  -0.00000
 179       63F-3        0.00000  -0.00000  -0.00000   0.00000   0.00000
 180       64F 0       -0.00000   0.00000   0.00015  -0.02114  -0.00395
 181       64F+1       -0.00069  -0.00084   0.00000   0.00000  -0.00000
 182       64F-1       -0.00084   0.00069  -0.00000   0.00000   0.00000
 183       64F+2        0.00000  -0.00000  -0.00000   0.00000   0.00000
 184       64F-2       -0.00000   0.00000  -0.00000  -0.00000  -0.00000
 185       64F+3       -0.00000  -0.00000   0.00000   0.00000   0.00000
 186       64F-3       -0.00000   0.00000  -0.00000   0.00000   0.00000
 187       65F 0        0.00000  -0.00000  -0.00000  -0.00652  -0.00223
 188       65F+1       -0.00005  -0.00006  -0.00000   0.00000  -0.00000
 189       65F-1       -0.00006   0.00005  -0.00000   0.00000   0.00000
 190       65F+2        0.00000  -0.00000  -0.00000  -0.00000   0.00000
 191       65F-2       -0.00000   0.00000  -0.00000   0.00000  -0.00000
 192       65F+3        0.00000   0.00000   0.00000  -0.00000   0.00000
 193       65F-3        0.00000  -0.00000   0.00000  -0.00000   0.00000
 194       66G 0       -0.00000  -0.00000  -0.00015  -0.00017   0.00038
 195       66G+1       -0.00007  -0.00009   0.00000  -0.00000   0.00000
 196       66G-1       -0.00009   0.00007  -0.00000  -0.00000  -0.00000
 197       66G+2        0.00000   0.00000   0.00000   0.00000   0.00000
 198       66G-2        0.00000   0.00000  -0.00000   0.00000   0.00000
 199       66G+3        0.00000   0.00000  -0.00000  -0.00000  -0.00000
 200       66G-3        0.00000  -0.00000   0.00000   0.00000   0.00000
 201       66G+4        0.00000  -0.00000   0.00000   0.00000  -0.00000
 202       66G-4       -0.00000   0.00000   0.00000  -0.00000  -0.00000
 203       67G 0        0.00000   0.00000   0.00043   0.00099   0.00035
 204       67G+1        0.00029   0.00035  -0.00000  -0.00000   0.00000
 205       67G-1        0.00035  -0.00029   0.00000  -0.00000  -0.00000
 206       67G+2        0.00000  -0.00000   0.00000   0.00000  -0.00000
 207       67G-2        0.00000   0.00000  -0.00000   0.00000   0.00000
 208       67G+3        0.00000   0.00000   0.00000   0.00000   0.00000
 209       67G-3        0.00000  -0.00000  -0.00000  -0.00000  -0.00000
 210       67G+4       -0.00000   0.00000  -0.00000  -0.00000   0.00000
 211       67G-4       -0.00000  -0.00000   0.00000   0.00000   0.00000
 212       68G 0       -0.00000   0.00000   0.00006   0.00267   0.00069
 213       68G+1        0.00012   0.00015   0.00000  -0.00000   0.00000
 214       68G-1        0.00015  -0.00012   0.00000  -0.00000  -0.00000
 215       68G+2       -0.00000   0.00000   0.00000  -0.00000   0.00000
 216       68G-2        0.00000  -0.00000  -0.00000   0.00000   0.00000
 217       68G+3        0.00000   0.00000  -0.00000  -0.00000  -0.00000
 218       68G-3       -0.00000  -0.00000   0.00000  -0.00000   0.00000
 219       68G+4        0.00000  -0.00000   0.00000   0.00000  -0.00000
 220       68G-4       -0.00000   0.00000   0.00000   0.00000   0.00000
 221       69G 0       -0.00000  -0.00000   0.00002   0.00500   0.00176
 222       69G+1        0.00012   0.00015   0.00000  -0.00000   0.00000
 223       69G-1        0.00015  -0.00012   0.00000  -0.00000  -0.00000
 224       69G+2       -0.00000  -0.00000   0.00000   0.00000  -0.00000
 225       69G-2        0.00000  -0.00000   0.00000   0.00000   0.00000
 226       69G+3       -0.00000   0.00000   0.00000   0.00000   0.00000
 227       69G-3       -0.00000  -0.00000  -0.00000  -0.00000   0.00000
 228       69G+4       -0.00000   0.00000  -0.00000   0.00000  -0.00000
 229       69G-4       -0.00000  -0.00000  -0.00000   0.00000   0.00000
 230       70H 0       -0.00000  -0.00000  -0.00018  -0.00011   0.00007
 231       70H+1       -0.00009  -0.00010   0.00000   0.00000   0.00000
 232       70H-1       -0.00010   0.00009  -0.00000   0.00000  -0.00000
 233       70H+2       -0.00000   0.00000  -0.00000   0.00000  -0.00000
 234       70H-2       -0.00000  -0.00000   0.00000  -0.00000  -0.00000
 235       70H+3       -0.00000  -0.00000  -0.00000  -0.00000  -0.00000
 236       70H-3       -0.00000   0.00000  -0.00000  -0.00000  -0.00000
 237       70H+4       -0.00000  -0.00000  -0.00000  -0.00000   0.00000
 238       70H-4       -0.00000  -0.00000   0.00000  -0.00000  -0.00000
 239       70H+5        0.00000   0.00000   0.00000   0.00000   0.00000
 240       70H-5       -0.00000  -0.00000  -0.00000  -0.00000  -0.00000
 241       71H 0       -0.00000   0.00000   0.00008  -0.00012  -0.00039
 242       71H+1       -0.00001  -0.00001  -0.00000   0.00000  -0.00000
 243       71H-1       -0.00001   0.00001  -0.00000   0.00000   0.00000
 244       71H+2       -0.00000  -0.00000  -0.00000   0.00000  -0.00000
 245       71H-2       -0.00000  -0.00000   0.00000  -0.00000  -0.00000
 246       71H+3        0.00000   0.00000   0.00000   0.00000   0.00000
 247       71H-3        0.00000  -0.00000   0.00000   0.00000   0.00000
 248       71H+4        0.00000   0.00000  -0.00000   0.00000   0.00000
 249       71H-4       -0.00000   0.00000   0.00000   0.00000   0.00000
 250       71H+5       -0.00000   0.00000  -0.00000  -0.00000   0.00000
 251       71H-5        0.00000  -0.00000   0.00000   0.00000   0.00000
 252       72H 0       -0.00000   0.00000  -0.00003  -0.00035  -0.00068
 253       72H+1       -0.00006  -0.00007  -0.00000   0.00000  -0.00000
 254       72H-1       -0.00007   0.00006  -0.00000   0.00000   0.00000
 255       72H+2        0.00000   0.00000  -0.00000   0.00000  -0.00000
 256       72H-2       -0.00000   0.00000  -0.00000  -0.00000  -0.00000
 257       72H+3        0.00000   0.00000   0.00000   0.00000   0.00000
 258       72H-3        0.00000  -0.00000  -0.00000   0.00000   0.00000
 259       72H+4       -0.00000  -0.00000   0.00000   0.00000   0.00000
 260       72H-4       -0.00000  -0.00000  -0.00000  -0.00000  -0.00000
 261       72H+5        0.00000  -0.00000   0.00000   0.00000  -0.00000
 262       72H-5       -0.00000   0.00000  -0.00000  -0.00000   0.00000
 263 2   H  1S          0.00000  -0.00000  -0.00004   0.00149  -0.00031
 264        2S          0.00000  -0.00000  -0.00034   0.01127  -0.00233
 265        3S          0.00000  -0.00000  -0.00143   0.05380  -0.01105
 266        4S          0.00000  -0.00000  -0.00456   0.15948  -0.03433
 267        5S          0.00000  -0.00000  -0.00871   0.31073  -0.06560
 268        6S         -0.00000  -0.00000  -0.00254   0.25378  -0.07599
 269        7S          0.00000   0.00000  -0.00028  -0.02260  -0.04663
 270        8PX         0.00001   0.00001  -0.00000   0.00000  -0.00000
 271        8PY         0.00001  -0.00001  -0.00000   0.00000   0.00000
 272        8PZ        -0.00000  -0.00000  -0.00014   0.00118  -0.00018
 273        9PX         0.00006   0.00008  -0.00000   0.00000  -0.00000
 274        9PY         0.00008  -0.00006  -0.00000   0.00000   0.00000
 275        9PZ         0.00000  -0.00000  -0.00109   0.00429  -0.00137
 276       10PX         0.00024   0.00030  -0.00000   0.00000  -0.00000
 277       10PY         0.00030  -0.00024  -0.00000   0.00000   0.00000
 278       10PZ        -0.00000  -0.00000  -0.00248   0.02986  -0.00261
 279       11PX         0.00053   0.00065  -0.00000   0.00000  -0.00000
 280       11PY         0.00065  -0.00053   0.00000   0.00000   0.00000
 281       11PZ        -0.00000  -0.00000  -0.00044   0.02763  -0.00372
 282       12D 0       -0.00000  -0.00000  -0.00007  -0.00012  -0.00013
 283       12D+1        0.00001   0.00001  -0.00000  -0.00000  -0.00000
 284       12D-1        0.00001  -0.00001   0.00000  -0.00000  -0.00000
 285       12D+2       -0.00000   0.00000   0.00000  -0.00000   0.00000
 286       12D-2        0.00000   0.00000  -0.00000   0.00000   0.00000
 287       13D 0       -0.00000  -0.00000  -0.00051   0.00349  -0.00037
 288       13D+1        0.00008   0.00010  -0.00000   0.00000  -0.00000
 289       13D-1        0.00010  -0.00008   0.00000  -0.00000  -0.00000
 290       13D+2        0.00000  -0.00000   0.00000   0.00000  -0.00000
 291       13D-2        0.00000   0.00000  -0.00000   0.00000   0.00000
 292       14D 0        0.00000  -0.00000  -0.00022   0.00830   0.00224
 293       14D+1        0.00005   0.00006  -0.00000   0.00000  -0.00000
 294       14D-1        0.00006  -0.00005   0.00000  -0.00000  -0.00000
 295       14D+2        0.00000  -0.00000   0.00000  -0.00000  -0.00000
 296       14D-2        0.00000  -0.00000   0.00000   0.00000   0.00000
 297       15F 0       -0.00000  -0.00000  -0.00010   0.00021  -0.00018
 298       15F+1        0.00003   0.00004  -0.00000   0.00000   0.00000
 299       15F-1        0.00004  -0.00003   0.00000  -0.00000   0.00000
 300       15F+2       -0.00000   0.00000   0.00000  -0.00000   0.00000
 301       15F-2        0.00000   0.00000  -0.00000   0.00000   0.00000
 302       15F+3        0.00000   0.00000   0.00000   0.00000   0.00000
 303       15F-3        0.00000  -0.00000   0.00000   0.00000   0.00000
 304       16F 0        0.00000  -0.00000  -0.00002   0.00152   0.00135
 305       16F+1       -0.00004  -0.00005  -0.00000   0.00000  -0.00000
 306       16F-1       -0.00005   0.00004  -0.00000   0.00000  -0.00000
 307       16F+2        0.00000  -0.00000   0.00000   0.00000  -0.00000
 308       16F-2        0.00000   0.00000  -0.00000   0.00000   0.00000
 309       16F+3       -0.00000  -0.00000  -0.00000  -0.00000  -0.00000
 310       16F-3       -0.00000   0.00000   0.00000  -0.00000  -0.00000
                          12        13        14        15        16
                           V         V         V         V         V
     Eigenvalues --     0.00894   0.00894   0.01200   0.02047   0.02806
   1 1   Sc 1S          0.00000  -0.00000   0.00000  -0.00000   0.00000
   2        2S          0.00000  -0.00000   0.00000  -0.00000   0.00000
   3        3S          0.00000  -0.00000   0.00000  -0.00000   0.00000
   4        4S          0.00000  -0.00000   0.00000  -0.00000   0.00000
   5        5S          0.00000  -0.00000   0.00001  -0.00001   0.00000
   6        6S          0.00000  -0.00000   0.00002  -0.00002   0.00000
   7        7S          0.00000  -0.00000   0.00004  -0.00005   0.00000
   8        8S          0.00000  -0.00000   0.00012  -0.00014   0.00000
   9        9S          0.00000  -0.00000   0.00027  -0.00033   0.00000
  10       10S          0.00000  -0.00000   0.00065  -0.00076   0.00000
  11       11S          0.00000  -0.00000   0.00111  -0.00140   0.00000
  12       12S          0.00000  -0.00000   0.00199  -0.00227   0.00000
  13       13S          0.00000  -0.00000   0.00086  -0.00134   0.00000
  14       14S         -0.00000   0.00000  -0.00128   0.00242  -0.00000
  15       15S         -0.00000   0.00000  -0.01380   0.01353  -0.00000
  16       16S         -0.00000  -0.00000   0.01736   0.00225   0.00000
  17       17S         -0.00000  -0.00000   0.01019  -0.00426   0.00000
  18       18S          0.00000  -0.00000   0.01661  -0.03248   0.00000
  19       19S          0.00000  -0.00000   0.05243  -0.04369   0.00000
  20       20S         -0.00000   0.00000  -0.30094   0.33262  -0.00000
  21       21S         -0.00000  -0.00000   0.47047  -0.96587   0.00000
  22       22S         -0.00000   0.00000  -0.98802  -1.19227   0.00000
  23       23S          0.00000   0.00000  -0.03581   0.01345  -0.00000
  24       24S         -0.00000  -0.00000   0.01713  -0.01148   0.00000
  25       25S         -0.00000  -0.00000   1.23740  -2.84153   0.00000
  26       26PX         0.00000   0.00000   0.00000  -0.00000  -0.00000
  27       26PY         0.00000  -0.00000  -0.00000   0.00000  -0.00000
  28       26PZ        -0.00000  -0.00000   0.00000   0.00000  -0.00000
  29       27PX         0.00000   0.00001   0.00000  -0.00000   0.00000
  30       27PY         0.00001  -0.00000   0.00000   0.00000   0.00000
  31       27PZ        -0.00000  -0.00000   0.00000   0.00000  -0.00000
  32       28PX         0.00000   0.00003   0.00000  -0.00000  -0.00000
  33       28PY         0.00003  -0.00000  -0.00000   0.00000  -0.00000
  34       28PZ        -0.00000  -0.00000   0.00001   0.00001  -0.00000
  35       29PX         0.00001   0.00011   0.00000  -0.00000   0.00000
  36       29PY         0.00011  -0.00001   0.00000   0.00000   0.00000
  37       29PZ        -0.00000  -0.00000   0.00005   0.00003  -0.00000
  38       30PX         0.00002   0.00041   0.00000  -0.00000   0.00000
  39       30PY         0.00041  -0.00002   0.00000   0.00000  -0.00000
  40       30PZ        -0.00000  -0.00000   0.00020   0.00008  -0.00000
  41       31PX         0.00006   0.00119   0.00000  -0.00000   0.00000
  42       31PY         0.00119  -0.00006   0.00000   0.00000   0.00000
  43       31PZ        -0.00000  -0.00000   0.00052   0.00035  -0.00000
  44       32PX         0.00017   0.00339   0.00000  -0.00000   0.00000
  45       32PY         0.00339  -0.00017   0.00000   0.00000  -0.00000
  46       32PZ        -0.00000  -0.00000   0.00170   0.00065  -0.00000
  47       33PX         0.00033   0.00658   0.00000  -0.00000   0.00000
  48       33PY         0.00658  -0.00033   0.00000   0.00000   0.00000
  49       33PZ        -0.00000  -0.00000   0.00272   0.00214  -0.00000
  50       34PX         0.00065   0.01291   0.00000  -0.00000   0.00000
  51       34PY         0.01291  -0.00065   0.00000   0.00000  -0.00000
  52       34PZ        -0.00000  -0.00000   0.00706   0.00151  -0.00000
  53       35PX         0.00046   0.00915   0.00000  -0.00000   0.00000
  54       35PY         0.00915  -0.00046  -0.00000   0.00000   0.00000
  55       35PZ        -0.00000   0.00000   0.00010   0.00868  -0.00000
  56       36PX         0.00426   0.08400   0.00000   0.00000  -0.00000
  57       36PY         0.08400  -0.00426   0.00000  -0.00000  -0.00000
  58       36PZ        -0.00000  -0.00000   0.10468  -0.08177   0.00000
  59       37PX         0.00107   0.02102   0.00000   0.00000  -0.00000
  60       37PY         0.02102  -0.00107   0.00000  -0.00000  -0.00000
  61       37PZ         0.00000  -0.00000   0.04667  -0.05210   0.00000
  62       38PX        -0.01059  -0.20883  -0.00000  -0.00000   0.00000
  63       38PY        -0.20883   0.01059  -0.00000   0.00000   0.00000
  64       38PZ         0.00000   0.00000  -0.23515   0.16859  -0.00000
  65       39PX        -0.00730  -0.14390  -0.00000  -0.00000  -0.00000
  66       39PY        -0.14390   0.00730  -0.00000   0.00000   0.00000
  67       39PZ         0.00000   0.00000  -0.14630   0.09627  -0.00000
  68       40PX         0.00187   0.03685   0.00000   0.00000  -0.00000
  69       40PY         0.03685  -0.00187   0.00000  -0.00000  -0.00000
  70       40PZ        -0.00000  -0.00000   0.07285  -0.10375   0.00000
  71       41PX         0.00186   0.03674   0.00000  -0.00000   0.00000
  72       41PY         0.03674  -0.00186  -0.00000   0.00000   0.00000
  73       41PZ         0.00000   0.00000  -0.04726   0.15821  -0.00000
  74       42PX         0.01782   0.35142   0.00000   0.00000   0.00000
  75       42PY         0.35142  -0.01782   0.00000  -0.00000  -0.00000
  76       42PZ        -0.00000  -0.00000   0.24965   0.38385  -0.00000
  77       43PX        -0.00433  -0.08546  -0.00000  -0.00000   0.00000
  78       43PY        -0.08546   0.00433  -0.00000   0.00000   0.00000
  79       43PZ         0.00000   0.00000  -0.34369   1.86741  -0.00000
  80       44PX        -0.00482  -0.09514  -0.00000  -0.00000   0.00000
  81       44PY        -0.09514   0.00482  -0.00000   0.00000   0.00000
  82       44PZ         0.00000   0.00000  -0.12353   0.10050  -0.00000
  83       45PX         0.00974   0.19197   0.00000   0.00000  -0.00000
  84       45PY         0.19197  -0.00974   0.00000  -0.00000  -0.00000
  85       45PZ        -0.00000  -0.00000   0.25994  -0.22454   0.00000
  86       46PX         0.04212   0.83067   0.00000   0.00000  -0.00000
  87       46PY         0.83067  -0.04212   0.00000  -0.00000  -0.00000
  88       46PZ        -0.00000  -0.00000   0.82126   0.87916  -0.00000
  89       47D 0       -0.00000  -0.00000   0.00015   0.00004  -0.00000
  90       47D+1        0.00000   0.00003   0.00000  -0.00000   0.00000
  91       47D-1        0.00003  -0.00000  -0.00000   0.00000   0.00000
  92       47D+2       -0.00000   0.00000   0.00000   0.00000   0.00000
  93       47D-2        0.00000   0.00000   0.00000   0.00000   0.00003
  94       48D 0       -0.00000  -0.00000   0.00126   0.00037  -0.00000
  95       48D+1        0.00001   0.00027   0.00000  -0.00000   0.00000
  96       48D-1        0.00027  -0.00001  -0.00000   0.00000   0.00000
  97       48D+2       -0.00000   0.00000   0.00000   0.00000   0.00001
  98       48D-2        0.00000   0.00000   0.00000   0.00000   0.00033
  99       49D 0       -0.00000  -0.00000   0.00569   0.00138  -0.00000
 100       49D+1        0.00006   0.00121   0.00000  -0.00000   0.00000
 101       49D-1        0.00121  -0.00006  -0.00000   0.00000   0.00000
 102       49D+2       -0.00000   0.00000   0.00000   0.00000   0.00002
 103       49D-2        0.00000   0.00000   0.00000   0.00000   0.00107
 104       50D 0       -0.00000  -0.00000   0.01773   0.00562  -0.00000
 105       50D+1        0.00020   0.00386   0.00000  -0.00000   0.00000
 106       50D-1        0.00386  -0.00020  -0.00000   0.00000   0.00000
 107       50D+2       -0.00000   0.00000   0.00000   0.00000   0.00009
 108       50D-2        0.00000   0.00000   0.00000   0.00000   0.00523
 109       51D 0       -0.00000  -0.00000   0.04120   0.00228  -0.00000
 110       51D+1        0.00042   0.00821   0.00000  -0.00000  -0.00000
 111       51D-1        0.00821  -0.00042  -0.00000   0.00000   0.00000
 112       51D+2       -0.00000   0.00000   0.00000  -0.00000  -0.00005
 113       51D-2        0.00000   0.00000   0.00000   0.00000  -0.00314
 114       52D 0        0.00000  -0.00000   0.06782  -0.03913   0.00000
 115       52D+1        0.00052   0.01023   0.00000  -0.00000  -0.00000
 116       52D-1        0.01023  -0.00052  -0.00000   0.00000   0.00000
 117       52D+2       -0.00000   0.00000   0.00000  -0.00000  -0.00109
 118       52D-2        0.00000   0.00000   0.00000   0.00000  -0.06342
 119       53D 0       -0.00000  -0.00000   0.09223  -0.03625   0.00000
 120       53D+1        0.00072   0.01428   0.00000  -0.00000  -0.00000
 121       53D-1        0.01428  -0.00072  -0.00000   0.00000   0.00000
 122       53D+2       -0.00000   0.00000   0.00000  -0.00000  -0.00094
 123       53D-2        0.00000   0.00000   0.00000   0.00000  -0.05445
 124       54D 0       -0.00000  -0.00000   0.08815   0.08071  -0.00000
 125       54D+1        0.00126   0.02478   0.00000  -0.00000   0.00000
 126       54D-1        0.02478  -0.00126  -0.00000   0.00000  -0.00000
 127       54D+2       -0.00000   0.00000   0.00000   0.00000   0.00123
 128       54D-2        0.00000   0.00000   0.00000   0.00000   0.07104
 129       55D 0       -0.00000  -0.00000   0.09425  -0.10072   0.00000
 130       55D+1        0.00143   0.02813   0.00000  -0.00000  -0.00000
 131       55D-1        0.02813  -0.00143  -0.00000   0.00000   0.00000
 132       55D+2       -0.00000   0.00000   0.00000  -0.00000  -0.00089
 133       55D-2        0.00000  -0.00000   0.00000   0.00000  -0.05184
 134       56D 0       -0.00000  -0.00000   0.10079  -0.11262   0.00000
 135       56D+1        0.00286   0.05631   0.00000  -0.00000   0.00000
 136       56D-1        0.05631  -0.00286  -0.00000   0.00000  -0.00000
 137       56D+2       -0.00000  -0.00000   0.00000   0.00000   0.00336
 138       56D-2        0.00000  -0.00000   0.00000   0.00000   0.19461
 139       57D 0       -0.00000  -0.00000   0.06842  -0.75645   0.00000
 140       57D+1        0.00145   0.02863   0.00000  -0.00000  -0.00000
 141       57D-1        0.02863  -0.00145  -0.00000   0.00000   0.00000
 142       57D+2       -0.00000  -0.00000  -0.00000  -0.00000  -0.00719
 143       57D-2       -0.00000  -0.00000   0.00000  -0.00000  -0.41713
 144       58D 0       -0.00000   0.00000   0.00200   0.03070  -0.00000
 145       58D+1        0.00014   0.00273   0.00000  -0.00000   0.00000
 146       58D-1        0.00273  -0.00014   0.00000  -0.00000  -0.00000
[...]
  88       46PZ        -0.00147  -0.00074  -0.00074   0.00000
  89       47D 0        0.00000   0.00000   0.00000   0.00000
  90       47D+1        0.00000   0.00000   0.00000   0.00000
  91       47D-1        0.00000   0.00000   0.00000   0.00000
  92       47D+2        0.00000   0.00000   0.00000   0.00000
  93       47D-2        0.00000   0.00000   0.00000   0.00000
  94       48D 0        0.00011   0.00005   0.00005   0.00000
  95       48D+1        0.00000   0.00000   0.00000   0.00000
  96       48D-1        0.00000   0.00000   0.00000   0.00000
  97       48D+2        0.00000   0.00000   0.00000   0.00000
  98       48D-2        0.00000   0.00000   0.00000   0.00000
  99       49D 0        0.00135   0.00068   0.00068   0.00000
 100       49D+1        0.00000   0.00000   0.00000   0.00000
 101       49D-1        0.00000   0.00000   0.00000   0.00000
 102       49D+2        0.00000   0.00000   0.00000   0.00000
 103       49D-2        0.00000   0.00000   0.00000   0.00000
 104       50D 0        0.00891   0.00446   0.00446   0.00000
 105       50D+1        0.00000   0.00000   0.00000   0.00000
 106       50D-1        0.00000   0.00000   0.00000   0.00000
 107       50D+2        0.00000   0.00000   0.00000   0.00000
 108       50D-2        0.00000   0.00000   0.00000   0.00000
 109       51D 0        0.03599   0.01799   0.01799   0.00000
 110       51D+1        0.00000   0.00000   0.00000   0.00000
 111       51D-1        0.00000   0.00000   0.00000   0.00000
 112       51D+2        0.00000   0.00000   0.00000   0.00000
 113       51D-2        0.00000   0.00000   0.00000   0.00000
 114       52D 0        0.08806   0.04403   0.04403   0.00000
 115       52D+1        0.00000   0.00000   0.00000   0.00000
 116       52D-1        0.00000   0.00000   0.00000   0.00000
 117       52D+2        0.00000   0.00000   0.00000   0.00000
 118       52D-2        0.00000   0.00000   0.00000   0.00000
 119       53D 0        0.14181   0.07090   0.07090   0.00000
 120       53D+1        0.00001   0.00000   0.00000   0.00000
 121       53D-1        0.00001   0.00000   0.00000   0.00000
 122       53D+2        0.00000   0.00000   0.00000   0.00000
 123       53D-2        0.00000   0.00000   0.00000   0.00000
 124       54D 0        0.17298   0.08649   0.08649   0.00000
 125       54D+1        0.00002   0.00001   0.00001   0.00000
 126       54D-1        0.00002   0.00001   0.00001   0.00000
 127       54D+2        0.00000   0.00000   0.00000   0.00000
 128       54D-2        0.00000   0.00000   0.00000   0.00000
 129       55D 0        0.14608   0.07304   0.07304   0.00000
 130       55D+1        0.00001   0.00001   0.00001   0.00000
 131       55D-1        0.00001   0.00001   0.00001   0.00000
 132       55D+2        0.00000   0.00000   0.00000   0.00000
 133       55D-2        0.00000   0.00000   0.00000   0.00000
 134       56D 0        0.04637   0.02319   0.02319   0.00000
 135       56D+1        0.00000   0.00000   0.00000   0.00000
 136       56D-1        0.00000   0.00000   0.00000   0.00000
 137       56D+2        0.00000   0.00000   0.00000   0.00000
 138       56D-2        0.00000   0.00000   0.00000   0.00000
 139       57D 0        0.00406   0.00203   0.00203   0.00000
 140       57D+1       -0.00000  -0.00000  -0.00000   0.00000
 141       57D-1       -0.00000  -0.00000  -0.00000   0.00000
 142       57D+2        0.00000   0.00000   0.00000   0.00000
 143       57D-2        0.00000   0.00000   0.00000   0.00000
 144       58D 0       -0.00107  -0.00054  -0.00054   0.00000
 145       58D+1        0.00000   0.00000   0.00000   0.00000
 146       58D-1        0.00000   0.00000   0.00000   0.00000
 147       58D+2        0.00000   0.00000   0.00000   0.00000
 148       58D-2       -0.00000  -0.00000  -0.00000   0.00000
 149       59D 0       -0.00359  -0.00179  -0.00179   0.00000
 150       59D+1       -0.00000  -0.00000  -0.00000   0.00000
 151       59D-1       -0.00000  -0.00000  -0.00000   0.00000
 152       59D+2        0.00000   0.00000   0.00000   0.00000
 153       59D-2       -0.00000  -0.00000  -0.00000   0.00000
 154       60D 0       -0.00016  -0.00008  -0.00008   0.00000
 155       60D+1        0.00000   0.00000   0.00000   0.00000
 156       60D-1        0.00000   0.00000   0.00000   0.00000
 157       60D+2        0.00000   0.00000   0.00000   0.00000
 158       60D-2        0.00000   0.00000   0.00000   0.00000
 159       61F 0        0.00001   0.00001   0.00001   0.00000
 160       61F+1        0.00001   0.00000   0.00000   0.00000
 161       61F-1        0.00001   0.00000   0.00000   0.00000
 162       61F+2       -0.00000  -0.00000  -0.00000   0.00000
 163       61F-2        0.00000   0.00000   0.00000   0.00000
 164       61F+3        0.00000   0.00000   0.00000   0.00000
 165       61F-3        0.00000   0.00000   0.00000   0.00000
 166       62F 0        0.00013   0.00006   0.00006   0.00000
 167       62F+1        0.00002   0.00001   0.00001   0.00000
 168       62F-1        0.00002   0.00001   0.00001   0.00000
 169       62F+2       -0.00000  -0.00000  -0.00000   0.00000
 170       62F-2        0.00000   0.00000   0.00000   0.00000
 171       62F+3        0.00000   0.00000   0.00000   0.00000
 172       62F-3        0.00000   0.00000   0.00000   0.00000
 173       63F 0        0.00240   0.00120   0.00120   0.00000
 174       63F+1        0.00002   0.00001   0.00001   0.00000
 175       63F-1        0.00002   0.00001   0.00001   0.00000
 176       63F+2       -0.00000  -0.00000  -0.00000   0.00000
 177       63F-2        0.00000   0.00000   0.00000   0.00000
 178       63F+3        0.00000   0.00000   0.00000   0.00000
 179       63F-3       -0.00000  -0.00000  -0.00000   0.00000
 180       64F 0        0.01101   0.00550   0.00550   0.00000
 181       64F+1        0.00000   0.00000   0.00000   0.00000
 182       64F-1        0.00000   0.00000   0.00000   0.00000
 183       64F+2        0.00000   0.00000   0.00000   0.00000
 184       64F-2        0.00000   0.00000   0.00000   0.00000
 185       64F+3        0.00000   0.00000   0.00000   0.00000
 186       64F-3       -0.00000  -0.00000  -0.00000   0.00000
 187       65F 0        0.00132   0.00066   0.00066   0.00000
 188       65F+1        0.00000   0.00000   0.00000   0.00000
 189       65F-1        0.00000   0.00000   0.00000   0.00000
 190       65F+2        0.00000   0.00000   0.00000   0.00000
 191       65F-2        0.00000   0.00000   0.00000   0.00000
 192       65F+3       -0.00000  -0.00000  -0.00000   0.00000
 193       65F-3       -0.00000  -0.00000  -0.00000   0.00000
 194       66G 0       -0.00000  -0.00000  -0.00000   0.00000
 195       66G+1       -0.00000  -0.00000  -0.00000   0.00000
 196       66G-1       -0.00000  -0.00000  -0.00000   0.00000
 197       66G+2        0.00000   0.00000   0.00000   0.00000
 198       66G-2        0.00000   0.00000   0.00000   0.00000
 199       66G+3        0.00000   0.00000   0.00000   0.00000
 200       66G-3        0.00000   0.00000   0.00000   0.00000
 201       66G+4        0.00000   0.00000   0.00000   0.00000
 202       66G-4        0.00000   0.00000   0.00000   0.00000
 203       67G 0        0.00003   0.00001   0.00001   0.00000
 204       67G+1        0.00000   0.00000   0.00000   0.00000
 205       67G-1        0.00000   0.00000   0.00000   0.00000
 206       67G+2        0.00000   0.00000   0.00000   0.00000
 207       67G-2        0.00000   0.00000   0.00000   0.00000
 208       67G+3        0.00000   0.00000   0.00000   0.00000
 209       67G-3       -0.00000  -0.00000  -0.00000   0.00000
 210       67G+4        0.00000   0.00000   0.00000   0.00000
 211       67G-4        0.00000   0.00000   0.00000   0.00000
 212       68G 0        0.00073   0.00036   0.00036   0.00000
 213       68G+1        0.00000   0.00000   0.00000   0.00000
 214       68G-1        0.00000   0.00000   0.00000   0.00000
 215       68G+2        0.00000   0.00000   0.00000   0.00000
 216       68G-2        0.00000   0.00000   0.00000   0.00000
 217       68G+3        0.00000   0.00000   0.00000   0.00000
 218       68G-3       -0.00000  -0.00000  -0.00000   0.00000
 219       68G+4        0.00000   0.00000   0.00000   0.00000
 220       68G-4        0.00000   0.00000   0.00000   0.00000
 221       69G 0        0.00120   0.00060   0.00060   0.00000
 222       69G+1       -0.00000  -0.00000  -0.00000   0.00000
 223       69G-1       -0.00000  -0.00000  -0.00000   0.00000
 224       69G+2       -0.00000  -0.00000  -0.00000   0.00000
 225       69G-2        0.00000   0.00000   0.00000   0.00000
 226       69G+3       -0.00000  -0.00000  -0.00000   0.00000
 227       69G-3       -0.00000  -0.00000  -0.00000   0.00000
 228       69G+4        0.00000   0.00000   0.00000   0.00000
 229       69G-4        0.00000   0.00000   0.00000   0.00000
 230       70H 0        0.00000   0.00000   0.00000   0.00000
 231       70H+1        0.00000   0.00000   0.00000   0.00000
 232       70H-1        0.00000   0.00000   0.00000   0.00000
 233       70H+2        0.00000   0.00000   0.00000   0.00000
 234       70H-2        0.00000   0.00000   0.00000   0.00000
 235       70H+3       -0.00000  -0.00000  -0.00000   0.00000
 236       70H-3        0.00000   0.00000   0.00000   0.00000
 237       70H+4        0.00000   0.00000   0.00000   0.00000
 238       70H-4        0.00000   0.00000   0.00000   0.00000
 239       70H+5        0.00000   0.00000   0.00000   0.00000
 240       70H-5        0.00000   0.00000   0.00000   0.00000
 241       71H 0        0.00000   0.00000   0.00000   0.00000
 242       71H+1       -0.00000  -0.00000  -0.00000   0.00000
 243       71H-1       -0.00000  -0.00000  -0.00000   0.00000
 244       71H+2        0.00000   0.00000   0.00000   0.00000
 245       71H-2        0.00000   0.00000   0.00000   0.00000
 246       71H+3        0.00000   0.00000   0.00000   0.00000
 247       71H-3       -0.00000  -0.00000  -0.00000   0.00000
 248       71H+4        0.00000   0.00000   0.00000   0.00000
 249       71H-4        0.00000   0.00000   0.00000   0.00000
 250       71H+5       -0.00000  -0.00000  -0.00000   0.00000
 251       71H-5       -0.00000  -0.00000  -0.00000   0.00000
 252       72H 0        0.00005   0.00002   0.00002   0.00000
 253       72H+1       -0.00000  -0.00000  -0.00000   0.00000
 254       72H-1       -0.00000  -0.00000  -0.00000   0.00000
 255       72H+2        0.00000   0.00000   0.00000   0.00000
 256       72H-2        0.00000   0.00000   0.00000   0.00000
 257       72H+3        0.00000   0.00000   0.00000   0.00000
 258       72H-3       -0.00000  -0.00000  -0.00000   0.00000
 259       72H+4       -0.00000  -0.00000  -0.00000   0.00000
 260       72H-4        0.00000   0.00000   0.00000   0.00000
 261       72H+5        0.00000   0.00000   0.00000   0.00000
 262       72H-5        0.00000   0.00000   0.00000   0.00000
 263 2   H  1S          0.00017   0.00008   0.00008   0.00000
 264        2S          0.00437   0.00218   0.00218   0.00000
 265        3S          0.04732   0.02366   0.02366   0.00000
 266        4S          0.23698   0.11849   0.11849   0.00000
 267        5S          0.58554   0.29277   0.29277   0.00000
 268        6S          0.43151   0.21576   0.21576   0.00000
 269        7S         -0.06112  -0.03056  -0.03056   0.00000
 270        8PX         0.00000   0.00000   0.00000   0.00000
 271        8PY         0.00000   0.00000   0.00000   0.00000
 272        8PZ         0.00010   0.00005   0.00005   0.00000
 273        9PX         0.00000   0.00000   0.00000   0.00000
 274        9PY         0.00000   0.00000   0.00000   0.00000
 275        9PZ         0.00099   0.00049   0.00049   0.00000
 276       10PX         0.00003   0.00001   0.00001   0.00000
 277       10PY         0.00003   0.00001   0.00001   0.00000
 278       10PZ         0.01053   0.00526   0.00526   0.00000
 279       11PX         0.00017   0.00009   0.00009   0.00000
 280       11PY         0.00017   0.00009   0.00009   0.00000
 281       11PZ         0.00463   0.00232   0.00232   0.00000
 282       12D 0        0.00000   0.00000   0.00000   0.00000
 283       12D+1        0.00000   0.00000   0.00000   0.00000
 284       12D-1        0.00000   0.00000   0.00000   0.00000
 285       12D+2        0.00000   0.00000   0.00000   0.00000
 286       12D-2        0.00000   0.00000   0.00000   0.00000
 287       13D 0        0.00037   0.00019   0.00019   0.00000
 288       13D+1        0.00000   0.00000   0.00000   0.00000
 289       13D-1        0.00000   0.00000   0.00000   0.00000
 290       13D+2       -0.00000  -0.00000  -0.00000   0.00000
 291       13D-2        0.00000   0.00000   0.00000   0.00000
 292       14D 0        0.00004   0.00002   0.00002   0.00000
 293       14D+1        0.00003   0.00001   0.00001   0.00000
 294       14D-1        0.00003   0.00001   0.00001   0.00000
 295       14D+2        0.00000   0.00000   0.00000   0.00000
 296       14D-2        0.00000   0.00000   0.00000   0.00000
 297       15F 0        0.00001   0.00000   0.00000   0.00000
 298       15F+1        0.00000   0.00000   0.00000   0.00000
 299       15F-1        0.00000   0.00000   0.00000   0.00000
 300       15F+2       -0.00000  -0.00000  -0.00000   0.00000
 301       15F-2        0.00000   0.00000   0.00000   0.00000
 302       15F+3        0.00000   0.00000   0.00000   0.00000
 303       15F-3        0.00000   0.00000   0.00000   0.00000
 304       16F 0       -0.00032  -0.00016  -0.00016   0.00000
 305       16F+1       -0.00002  -0.00001  -0.00001   0.00000
 306       16F-1       -0.00002  -0.00001  -0.00001   0.00000
 307       16F+2        0.00000   0.00000   0.00000   0.00000
 308       16F-2        0.00000   0.00000   0.00000   0.00000
 309       16F+3       -0.00000  -0.00000  -0.00000   0.00000
 310       16F-3       -0.00000  -0.00000  -0.00000   0.00000
          Condensed to atoms (all electrons):
               1          2
     1  Sc  20.471783   0.266673
     2  H    0.266673   0.994871
          Atomic-Atomic Spin Densities.
               1          2
     1  Sc   0.000000   0.000000
     2  H    0.000000   0.000000
 Mulliken charges and spin densities:
               1          2
     1  Sc   0.261544   0.000000
     2  H   -0.261544   0.000000
 Sum of Mulliken charges =  -0.00000   0.00000
 Mulliken charges and spin densities with hydrogens summed into heavy atoms:
               1          2
     1  Sc  -0.000000   0.000000
 Electronic spatial extent (au):  <R**2>=             71.9283
 Charge=             -0.0000 electrons
 Dipole moment (field-independent basis, Debye):
    X=              0.0000    Y=              0.0000    Z=              2.4811  Tot=              2.4811
 Quadrupole moment (field-independent basis, Debye-Ang):
   XX=            -23.3241   YY=            -23.3241   ZZ=            -29.8786
   XY=             -0.0000   XZ=              0.0000   YZ=              0.0000
 Traceless Quadrupole moment (field-independent basis, Debye-Ang):
   XX=              2.1848   YY=              2.1848   ZZ=             -4.3697
   XY=             -0.0000   XZ=              0.0000   YZ=              0.0000
 Octapole moment (field-independent basis, Debye-Ang**2):
  XXX=              0.0000  YYY=              0.0000  ZZZ=             13.1852  XYY=              0.0000
  XXY=              0.0000  XXZ=             -2.0312  XZZ=              0.0000  YZZ=              0.0000
  YYZ=             -2.0312  XYZ=              0.0000
 Hexadecapole moment (field-independent basis, Debye-Ang**3):
 XXXX=            -67.5754 YYYY=            -67.5754 ZZZZ=           -141.9863 XXXY=             -0.0000
 XXXZ=              0.0000 YYYX=             -0.0000 YYYZ=              0.0000 ZZZX=              0.0000
 ZZZY=              0.0000 XXYY=            -22.5251 XXZZ=            -31.6004 YYZZ=            -31.6004
 XXYZ=              0.0000 YYXZ=              0.0000 ZZXY=             -0.0000
 N-N= 5.291772109200D+00 E-N=-1.839093688322D+03  KE= 7.853481435791D+02
 Orbital energies and kinetic energies (alpha):
                                 1                 2
   7         O                -1.687923          6.017917
   8         O                -1.687923          6.017917
   9         O                -1.685604          6.067676
  10         O                -0.369712          0.678825
  11         O                -0.243139          1.050484
  12         V                 0.008937          0.130774
  13         V                 0.008937          0.130774
  14         V                 0.012001          0.299510
  15         V                 0.020469          0.057013
  16         V                 0.028061          0.043312
 Total kinetic energy from orbitals= 7.853481435791D+02
 FoFCou: FMM=F IPFlag=           8 FMFlag=           0 FMFlg1=           0
         NFxFlg=           0 DoJE=F BraDBF=T KetDBF=F FulRan=T
         wScrn=  0.000000 ICntrl=   2000500 IOpCl=  0 I1Cent=           5 NGrid=           0
         NMat0=    1 NMatS0=      1 NMatT0=    0 NMatD0=    1 NMtDS0=    0 NMtDT0=    0
 Symmetry not used in FoFCou.
                          Isotropic Fermi Contact Couplings
        Atom                 a.u.       MegaHertz       Gauss      10(-4) cm-1
     1  Sc(45)             0.00000       0.00000       0.00000       0.00000
     2  H(1)               0.00000       0.00000       0.00000       0.00000
 --------------------------------------------------------
       Center         ----  Spin Dipole Couplings  ----
                      3XX-RR        3YY-RR        3ZZ-RR
 --------------------------------------------------------
     1   Atom        0.000000      0.000000      0.000000
     2   Atom        0.000000      0.000000      0.000000
 --------------------------------------------------------
                        XY            XZ            YZ
 --------------------------------------------------------
     1   Atom        0.000000      0.000000      0.000000
     2   Atom        0.000000      0.000000      0.000000
 --------------------------------------------------------


 ---------------------------------------------------------------------------------
              Anisotropic Spin Dipole Couplings in Principal Axis System
 ---------------------------------------------------------------------------------

       Atom             a.u.   MegaHertz   Gauss  10(-4) cm-1        Axes

              Baa     0.0000     0.000     0.000     0.000  1.0000  0.0000  0.0000
     1 Sc(45) Bbb     0.0000     0.000     0.000     0.000 -0.0000  1.0000  0.0000
              Bcc     0.0000     0.000     0.000     0.000  0.0000  0.0000  1.0000
 
              Baa     0.0000     0.000     0.000     0.000  1.0000  0.0000  0.0000
     2 H(1)   Bbb     0.0000     0.000     0.000     0.000 -0.0000  1.0000  0.0000
              Bcc     0.0000     0.000     0.000     0.000  0.0000  0.0000  1.0000
 

 ---------------------------------------------------------------------------------

 No NMR shielding tensors so no spin-rotation constants.
 Leave Link  601 at Tue Feb 13 21:12:08 2018, MaxMem=  8589934592 cpu:             131.9 elap:               4.4
 (Enter /home1/apps/gaussian/16rA.03/g16/l9999.exe)

 Test job not archived.
 1\1\GINC-C407-072\SP\ROCCSD(T)-FC1\Gen\H1Sc1\AANNABE\13-Feb-2018\0\\#P
  ROCCSD(T)=(maxcyc=150, FrzINGC)/Gen 5d 7f SCF=(maxcycles=300) Integra
 l(NoXCTest, DKHSO) MaxDisk=500GB Pop=Regular IOp(5/15=2) Guess=Read\\S
 cH\\0,1\Sc,0,0.,0.,0.\H,0,0.,0.,2.1\\Version=ES64L-G16RevA.03\State=1-
 SG\HF=-763.8195921\MP2=-764.2088484\MP3=-764.2320843\PUHF=-763.8195921
 \PMP2-0=-764.2088484\MP4SDQ=-764.2355507\CCSD=-764.2370592\CCSD(T)=-76
 4.2554846\RMSD=6.321e-09\PG=C*V [C*(H1Sc1)]\\@


 NOTHING MAKES A PERSON MORE PRODUCTIVE THAN THE LAST MINUTE.
 Job cpu time:       0 days 12 hours 39 minutes 53.2 seconds.
 Elapsed time:       0 days  0 hours 23 minutes 49.3 seconds.
 File lengths (MBytes):  RWF=  16183 Int=      0 D2E=      0 Chk=     12 Scr=      1
 Normal termination of Gaussian 16 at Tue Feb 13 21:12:15 2018.
