 Entering Gaussian System, Link 0=g16
 Initial command:
 /home1/apps/gaussian/16rA.03/g16/l1.exe "/tmp/Gau-385497.inp" -scrdir="/tmp/"
 Entering Link 1 = /home1/apps/gaussian/16rA.03/g16/l1.exe PID=    385498.
  
 Copyright (c) 1988,1990,1992,1993,1995,1998,2003,2009,2016,
            Gaussian, Inc.  All Rights Reserved.
  
 This is part of the Gaussian(R) 16 program.  It is based on
 the Gaussian(R) 09 system (copyright 2009, Gaussian, Inc.),
 the Gaussian(R) 03 system (copyright 2003, Gaussian, Inc.),
 the Gaussian(R) 98 system (copyright 1998, Gaussian, Inc.),
 the Gaussian(R) 94 system (copyright 1995, Gaussian, Inc.),
 the Gaussian 92(TM) system (copyright 1992, Gaussian, Inc.),
 the Gaussian 90(TM) system (copyright 1990, Gaussian, Inc.),
 the Gaussian 88(TM) system (copyright 1988, Gaussian, Inc.),
 the Gaussian 86(TM) system (copyright 1986, Carnegie Mellon
 University), and the Gaussian 82(TM) system (copyright 1983,
 Carnegie Mellon University). Gaussian is a federally registered
 trademark of Gaussian, Inc.
  
 This software contains proprietary and confidential information,
 including trade secrets, belonging to Gaussian, Inc.
  
 This software is provided under written license and may be
 used, copied, transmitted, or stored only in accord with that
 written license.
  
 The following legend is applicable only to US Government
 contracts under FAR:
  
                    RESTRICTED RIGHTS LEGEND
  
 Use, reproduction and disclosure by the US Government is
 subject to restrictions as set forth in subparagraphs (a)
 and (c) of the Commercial Computer Software - Restricted
 Rights clause in FAR 52.227-19.
  
 Gaussian, Inc.
 340 Quinnipiac St., Bldg. 40, Wallingford CT 06492
  
  
 ---------------------------------------------------------------
 Warning -- This program may not be used in any manner that
 competes with the business of Gaussian, Inc. or will provide
 assistance to any competitor of Gaussian, Inc.  The licensee
 of this program is prohibited from giving any competitor of
 Gaussian, Inc. access to this program.  By using this program,
 the user acknowledges that Gaussian, Inc. is engaged in the
 business of creating and licensing software in the field of
 computational chemistry and represents and warrants to the
 licensee that it is not a competitor of Gaussian, Inc. and that
 it will not use this program in any manner prohibited above.
 ---------------------------------------------------------------
  

 Cite this work as:
 Gaussian 16, Revision A.03,
 M. J. Frisch, G. W. Trucks, H. B. Schlegel, G. E. Scuseria, 
 M. A. Robb, J. R. Cheeseman, G. Scalmani, V. Barone, 
 G. A. Petersson, H. Nakatsuji, X. Li, M. Caricato, A. V. Marenich, 
 J. Bloino, B. G. Janesko, R. Gomperts, B. Mennucci, H. P. Hratchian, 
 J. V. Ortiz, A. F. Izmaylov, J. L. Sonnenberg, D. Williams-Young, 
 F. Ding, F. Lipparini, F. Egidi, J. Goings, B. Peng, A. Petrone, 
 T. Henderson, D. Ranasinghe, V. G. Zakrzewski, J. Gao, N. Rega, 
 G. Zheng, W. Liang, M. Hada, M. Ehara, K. Toyota, R. Fukuda, 
 J. Hasegawa, M. Ishida, T. Nakajima, Y. Honda, O. Kitao, H. Nakai, 
 T. Vreven, K. Throssell, J. A. Montgomery, Jr., J. E. Peralta, 
 F. Ogliaro, M. J. Bearpark, J. J. Heyd, E. N. Brothers, K. N. Kudin, 
 V. N. Staroverov, T. A. Keith, R. Kobayashi, J. Normand, 
 K. Raghavachari, A. P. Rendell, J. C. Burant, S. S. Iyengar, 
 J. Tomasi, M. Cossi, J. M. Millam, M. Klene, C. Adamo, R. Cammi, 
 J. W. Ochterski, R. L. Martin, K. Morokuma, O. Farkas, 
 J. B. Foresman, and D. J. Fox, Gaussian, Inc., Wallingford CT, 2016.
 
 ******************************************
 Gaussian 16:  ES64L-G16RevA.03 25-Dec-2016
                 5-Apr-2018 
 ******************************************
 %MEM=160GB
 %CPU=0-31
 SetSPE:  set environment variable "MP_BIND" = "yes"
 SetSPE:  set environment variable "MP_BLIST" = "0,1,2,3,4,5,6,7,8,9,10,11,12,13,14,15,16,17,18,19,20,21,22,23,24,25,26,27,28,29,30,31"
 Will use up to   32 processors via shared memory.
 %RWF=/scratch/04843/aannabe/gaussian/
 %Int=/scratch/04843/aannabe/gaussian/
 %D2E=/scratch/04843/aannabe/gaussian/
 %NoSave
 %CHK=Cr
 ----------------------------------------------------------------------
 #P ROCCSD(T)=(maxcyc=150, Full)/Gen 5d 7f SCF=(maxcycles=300, NoVarAcc
 , VShift=400) MaxDisk=100GB Pop=Regular Pseudo=Read Guess=Read IOp(5/1
 5=2)
 ----------------------------------------------------------------------
 1/38=1,172=1/1;
 2/12=2,17=6,18=5,40=1/2;
 3/5=7,8=11,11=2,16=1,17=8,25=1,30=1,116=101/1,2,3;
 4/5=1/1;
 5/5=2,7=300,10=400,15=2,38=6/2;
 8/5=-1,6=4,9=120000,10=90/1,4;
 9/5=7,6=150,14=2/13;
 6//1;
 99/5=1,9=1/99;
 Leave Link    1 at Thu Apr  5 15:14:50 2018, MaxMem= 21474836480 cpu:               2.8 elap:               0.1
 (Enter /home1/apps/gaussian/16rA.03/g16/l101.exe)
 --
 Cr
 --
 Symbolic Z-matrix:
 Charge =  0 Multiplicity = 7
 Cr                    0.        0.        0. 
 
 ITRead=  0
 MicOpt= -1
 NAtoms=      1 NQM=        1 NQMF=       0 NMMI=      0 NMMIF=      0
                NMic=       0 NMicF=      0.
                    Isotopes and Nuclear Properties:
 (Nuclear quadrupole moments (NQMom) in fm**2, nuclear magnetic moments (NMagM)
  in nuclear magnetons)

  Atom         1
 IAtWgt=          52
 AtmWgt=  51.9405097
 NucSpn=           0
 AtZEff=  -0.0000000
 NQMom=    0.0000000
 NMagM=    0.0000000
 AtZNuc=  24.0000000
 Leave Link  101 at Thu Apr  5 15:14:52 2018, MaxMem= 21474836480 cpu:               2.8 elap:               0.1
 (Enter /home1/apps/gaussian/16rA.03/g16/l202.exe)
                          Input orientation:                          
 ---------------------------------------------------------------------
 Center     Atomic      Atomic             Coordinates (Angstroms)
 Number     Number       Type             X           Y           Z
 ---------------------------------------------------------------------
      1         24           0        0.000000    0.000000    0.000000
 ---------------------------------------------------------------------
 Stoichiometry    Cr(7)
 Framework group  OH[O(Cr)]
 Deg. of freedom     0
 Full point group                 OH      NOp  48
 Largest Abelian subgroup         D2H     NOp   8
 Largest concise Abelian subgroup C1      NOp   1
                         Standard orientation:                         
 ---------------------------------------------------------------------
 Center     Atomic      Atomic             Coordinates (Angstroms)
 Number     Number       Type             X           Y           Z
 ---------------------------------------------------------------------
      1         24           0        0.000000    0.000000    0.000000
 ---------------------------------------------------------------------
 Leave Link  202 at Thu Apr  5 15:14:55 2018, MaxMem= 21474836480 cpu:               1.1 elap:               0.1
 (Enter /home1/apps/gaussian/16rA.03/g16/l301.exe)
 General basis read from cards:  (5D, 7F)
 Centers:       1
 S 1 1.00
     Exponent=  3.4689760000D+04 Coefficients=  1.0000000000D+00
 S 1 1.00
     Exponent=  1.2524830000D+04 Coefficients=  1.0000000000D+00
 S 1 1.00
     Exponent=  4.8857520000D+03 Coefficients=  1.0000000000D+00
 S 1 1.00
     Exponent=  2.0269180000D+03 Coefficients=  1.0000000000D+00
 S 1 1.00
     Exponent=  8.8436450000D+02 Coefficients=  1.0000000000D+00
 S 1 1.00
     Exponent=  4.0231700000D+02 Coefficients=  1.0000000000D+00
 S 1 1.00
     Exponent=  1.8952710000D+02 Coefficients=  1.0000000000D+00
 S 1 1.00
     Exponent=  9.1860950000D+01 Coefficients=  1.0000000000D+00
 S 1 1.00
     Exponent=  4.5124760000D+01 Coefficients=  1.0000000000D+00
 S 1 1.00
     Exponent=  2.0625120000D+01 Coefficients=  1.0000000000D+00
 S 1 1.00
     Exponent=  1.0319730000D+01 Coefficients=  1.0000000000D+00
 S 1 1.00
     Exponent=  5.1577230000D+00 Coefficients=  1.0000000000D+00
 S 1 1.00
     Exponent=  2.3126280000D+00 Coefficients=  1.0000000000D+00
 S 1 1.00
     Exponent=  1.1030790000D+00 Coefficients=  1.0000000000D+00
 S 1 1.00
     Exponent=  4.9804200000D-01 Coefficients=  1.0000000000D+00
 S 1 1.00
     Exponent=  1.1824700000D-01 Coefficients=  1.0000000000D+00
 S 1 1.00
     Exponent=  5.7356000000D-02 Coefficients=  1.0000000000D+00
 S 1 1.00
     Exponent=  2.5760000000D-02 Coefficients=  1.0000000000D+00
 S 1 1.00
     Exponent=  4.7991000000D+00 Coefficients=  1.0000000000D+00
 S 1 1.00
     Exponent=  1.4287000000D+00 Coefficients=  1.0000000000D+00
 S 1 1.00
     Exponent=  1.1570000000D-02 Coefficients=  1.0000000000D+00
 P 1 1.00
     Exponent=  2.4226220000D+03 Coefficients=  1.0000000000D+00
 P 1 1.00
     Exponent=  9.2775470000D+02 Coefficients=  1.0000000000D+00
 P 1 1.00
     Exponent=  3.9480410000D+02 Coefficients=  1.0000000000D+00
 P 1 1.00
     Exponent=  1.8080270000D+02 Coefficients=  1.0000000000D+00
 P 1 1.00
     Exponent=  8.7423930000D+01 Coefficients=  1.0000000000D+00
 P 1 1.00
     Exponent=  4.4034270000D+01 Coefficients=  1.0000000000D+00
 P 1 1.00
     Exponent=  2.2777040000D+01 Coefficients=  1.0000000000D+00
 P 1 1.00
     Exponent=  1.2015470000D+01 Coefficients=  1.0000000000D+00
 P 1 1.00
     Exponent=  6.4117510000D+00 Coefficients=  1.0000000000D+00
 P 1 1.00
     Exponent=  3.3811360000D+00 Coefficients=  1.0000000000D+00
 P 1 1.00
     Exponent=  1.7470540000D+00 Coefficients=  1.0000000000D+00
 P 1 1.00
     Exponent=  8.8500400000D-01 Coefficients=  1.0000000000D+00
 P 1 1.00
     Exponent=  4.3302800000D-01 Coefficients=  1.0000000000D+00
 P 1 1.00
     Exponent=  1.7396200000D-01 Coefficients=  1.0000000000D+00
 P 1 1.00
     Exponent=  7.2823000000D-02 Coefficients=  1.0000000000D+00
 P 1 1.00
     Exponent=  2.9952000000D-02 Coefficients=  1.0000000000D+00
 P 1 1.00
     Exponent=  6.4552000000D+00 Coefficients=  1.0000000000D+00
 P 1 1.00
     Exponent=  1.6531000000D+00 Coefficients=  1.0000000000D+00
 P 1 1.00
     Exponent=  1.2320000000D-02 Coefficients=  1.0000000000D+00
 D 1 1.00
     Exponent=  2.8131200000D+02 Coefficients=  1.0000000000D+00
 D 1 1.00
     Exponent=  8.3188500000D+01 Coefficients=  1.0000000000D+00
 D 1 1.00
     Exponent=  3.1839600000D+01 Coefficients=  1.0000000000D+00
 D 1 1.00
     Exponent=  1.3602600000D+01 Coefficients=  1.0000000000D+00
 D 1 1.00
     Exponent=  6.1829800000D+00 Coefficients=  1.0000000000D+00
 D 1 1.00
     Exponent=  2.9227000000D+00 Coefficients=  1.0000000000D+00
 D 1 1.00
     Exponent=  1.3821600000D+00 Coefficients=  1.0000000000D+00
 D 1 1.00
     Exponent=  6.3946000000D-01 Coefficients=  1.0000000000D+00
 D 1 1.00
     Exponent=  2.8489800000D-01 Coefficients=  1.0000000000D+00
 D 1 1.00
     Exponent=  1.2004500000D-01 Coefficients=  1.0000000000D+00
 D 1 1.00
     Exponent=  4.6229000000D-02 Coefficients=  1.0000000000D+00
 D 1 1.00
     Exponent=  4.0848000000D+00 Coefficients=  1.0000000000D+00
 D 1 1.00
     Exponent=  2.1405000000D+00 Coefficients=  1.0000000000D+00
 D 1 1.00
     Exponent=  1.7800000000D-02 Coefficients=  1.0000000000D+00
 F 1 1.00
     Exponent=  5.6633000000D+00 Coefficients=  1.0000000000D+00
 F 1 1.00
     Exponent=  2.3365000000D+00 Coefficients=  1.0000000000D+00
 F 1 1.00
     Exponent=  9.6390000000D-01 Coefficients=  1.0000000000D+00
 F 1 1.00
     Exponent=  3.1420000000D-01 Coefficients=  1.0000000000D+00
 F 1 1.00
     Exponent=  1.0242000000D-01 Coefficients=  1.0000000000D+00
 G 1 1.00
     Exponent=  4.6690000000D+00 Coefficients=  1.0000000000D+00
 G 1 1.00
     Exponent=  1.9538000000D+00 Coefficients=  1.0000000000D+00
 G 1 1.00
     Exponent=  6.8480000000D-01 Coefficients=  1.0000000000D+00
 G 1 1.00
     Exponent=  2.4002000000D-01 Coefficients=  1.0000000000D+00
 H 1 1.00
     Exponent=  4.4133000000D+00 Coefficients=  1.0000000000D+00
 H 1 1.00
     Exponent=  1.6472000000D+00 Coefficients=  1.0000000000D+00
 H 1 1.00
     Exponent=  6.1479000000D-01 Coefficients=  1.0000000000D+00
 ****
 ======================================================================================================
                                       Pseudopotential Parameters
 ======================================================================================================
  Center     Atomic      Valence      Angular      Power
  Number     Number     Electrons     Momentum     of R      Exponent        Coefficient   SO-Coeffient
 ======================================================================================================
    1         24           14
                                      D and up 
                                                     1       17.3211690       14.00000000    0.00000000
                                                     3       17.5104053      242.49636536    0.00000000
                                                     2       16.9184554     -132.24405673    0.00000000
                                                     2        5.0532935       -0.99695672    0.00000000
                                      S - D
                                                     2       16.6592991      219.48557431    0.00000000
                                                     2        7.6814547       28.21805877    0.00000000
                                      P - D
                                                     2       16.2482471      140.06793071    0.00000000
                                                     2        7.5459700       19.57993997    0.00000000
 ======================================================================================================
 Ernie: Thresh=  0.10000D-02 Tol=  0.10000D-05 Strict=F.
 There are    87 symmetry adapted cartesian basis functions of AG  symmetry.
 There are    26 symmetry adapted cartesian basis functions of B1G symmetry.
 There are    26 symmetry adapted cartesian basis functions of B2G symmetry.
 There are    26 symmetry adapted cartesian basis functions of B3G symmetry.
 There are    14 symmetry adapted cartesian basis functions of AU  symmetry.
 There are    52 symmetry adapted cartesian basis functions of B1U symmetry.
 There are    52 symmetry adapted cartesian basis functions of B2U symmetry.
 There are    52 symmetry adapted cartesian basis functions of B3U symmetry.
 There are    61 symmetry adapted basis functions of AG  symmetry.
 There are    22 symmetry adapted basis functions of B1G symmetry.
 There are    22 symmetry adapted basis functions of B2G symmetry.
 There are    22 symmetry adapted basis functions of B3G symmetry.
 There are    11 symmetry adapted basis functions of AU  symmetry.
 There are    38 symmetry adapted basis functions of B1U symmetry.
 There are    38 symmetry adapted basis functions of B2U symmetry.
 There are    38 symmetry adapted basis functions of B3U symmetry.
   252 basis functions,   335 primitive gaussians,   335 cartesian basis functions
    10 alpha electrons        4 beta electrons
       nuclear repulsion energy         0.0000000000 Hartrees.
 IExCor=    0 DFT=F Ex=HF Corr=None ExCW=0 ScaHFX=  1.000000
 ScaDFX=  1.000000  1.000000  1.000000  1.000000 ScalE2=  1.000000  1.000000
 IRadAn=      5 IRanWt=     -1 IRanGd=            0 ICorTp=0 IEmpDi=  4
 NAtoms=    1 NActive=    1 NUniq=    1 SFac= 1.00D+00 NAtFMM=   60 NAOKFM=F Big=F
 Integral buffers will be    131072 words long.
 Raffenetti 2 integral format.
 Two-electron integral symmetry is turned on.
 Leave Link  301 at Thu Apr  5 15:14:55 2018, MaxMem= 21474836480 cpu:               3.4 elap:               0.1
 (Enter /home1/apps/gaussian/16rA.03/g16/l302.exe)
 NPDir=0 NMtPBC=     1 NCelOv=     1 NCel=       1 NClECP=     1 NCelD=      1
         NCelK=      1 NCelE2=     1 NClLst=     1 CellRange=     0.0.
 One-electron integrals computed using PRISM.
 One-electron integral symmetry used in STVInt
  48 Symmetry operations used in ECPInt.
 ECPInt:  NShTT=    2211 NPrTT=    2211 LenC2=    2212 LenP2D=    2211.
 LDataN:  DoStor=T MaxTD1=10 Len=  848
 NBasis=   252 RedAO= T EigKep=  1.68D-06  NBF=    61    22    22    22    11    38    38    38
 NBsUse=   248 1.00D-06 EigRej=  3.90D-07 NBFU=    60    22    22    22    11    37    37    37
 Leave Link  302 at Thu Apr  5 15:14:59 2018, MaxMem= 21474836480 cpu:              28.7 elap:               0.9
 (Enter /home1/apps/gaussian/16rA.03/g16/l303.exe)
 DipDrv:  MaxL=1.
 Leave Link  303 at Thu Apr  5 15:15:00 2018, MaxMem= 21474836480 cpu:               1.8 elap:               0.1
 (Enter /home1/apps/gaussian/16rA.03/g16/l401.exe)
 Initial guess from the checkpoint file:  "Cr.chk"
 B after Tr=     0.000000    0.000000    0.000000
         Rot=    1.000000    0.000000    0.000000    0.000000 Ang=   0.00 deg.
 Guess basis will be translated and rotated to current coordinates.
 JPrj=2 DoOrth=T DoCkMO=T.
 Initial guess orbital symmetries:
       Occupied  (A1G) (T1U) (T1U) (T1U) (A1G) (EG) (T2G) (T2G)
                 (T2G) (EG)
       Virtual   (T1U) (T1U) (T1U) (A1G) (T1U) (T1U) (T1U) (T2G)
                 (EG) (EG) (T2G) (T2G) (A1G) (T1U) (T1U) (T1U)
                 (EG) (EG) (T2G) (T2G) (T2G) (A2U) (?A) (?A) (?A)
                 (?A) (?A) (?A) (T1U) (T1U) (T1U) (EG) (T2G) (EG)
                 (T2G) (T2G) (A1G) (?A) (?A) (?A) (A2U) (?A) (?A)
                 (?A) (?B) (?B) (?B) (T2G) (T2G) (?B) (?B) (T2G)
                 (?B) (T1U) (T1U) (T1U) (EG) (EG) (T2G) (T2G) (T2G)
                 (?A) (?A) (?A) (?A) (?A) (?A) (A2U) (A1G) (T1U)
                 (T1U) (T1U) (?B) (T2G) (?B) (?B) (T2G) (?B) (?B)
                 (T2G) (?B) (EG) (T2G) (T2G) (T2G) (EG) (?A) (?A)
                 (?A) (A2U) (?A) (?A) (?A) (T1U) (T1U) (T1U) (A1G)
                 (T2G) (EG) (EG) (T2G) (T2G) (?B) (T2G) (?B) (?B)
                 (T2G) (?B) (T2G) (?B) (?B) (T1U) (T1U) (T1U) (T2G)
                 (EG) (T2G) (EG) (T2G) (A1G) (T1U) (T1U) (T1U)
                 (A1G) (T2G) (EG) (T2G) (T2G) (EG) (T1U) (T1U)
                 (T1U) (A1G) (T1U) (T1U) (T1U) (A1G) (T2G) (EG)
                 (EG) (T2G) (T2G) (T1U) (T1U) (T1U) (A1G) (T1U)
                 (T1U) (T1U) (A1G) (T1U) (T1U) (T1U) (A1G) (A1G)
                 (T1U) (T1U) (T1U) (A1G) (T1U) (T1U) (T1U) (A1G)
                 (T1U) (T1U) (T1U) (A1G) (A1G) (EG) (EG) (EG) (EG)
                 (T2G) (T2G) (T2G) (EG) (EG) (EG) (EG) (A1G) (T2G)
                 (T2G) (?B) (?B) (T2G) (T2G) (T2G) (T2G) (?B) (?B)
                 (T2G) (T2G) (T2G) (T2G) (?B) (?B) (T2G) (T2G)
                 (A2U) (EU) (EU) (EU) (EU) (EU) (EU) (?A) (?A)
                 (?C) (?C) (?C) (?D) (?D) (?D) (?E) (?E) (?E) (?A)
                 (?A) (?C) (?C) (?C) (?D) (?D) (?D) (?E) (?E) (?E)
                 (?A) (?A) (?C) (?C) (?C) (?D) (?D) (?D) (?E) (?E)
                 (?E)
 The electronic state of the initial guess is 7-A1G.
 Leave Link  401 at Thu Apr  5 15:15:00 2018, MaxMem= 21474836480 cpu:               5.9 elap:               0.2
 (Enter /home1/apps/gaussian/16rA.03/g16/l502.exe)
 Keep R1 and R2 ints in memory in symmetry-blocked form, NReq=639953247.
 FoFCou: FMM=F IPFlag=           0 FMFlag=           0 FMFlg1=           0
         NFxFlg=           0 DoJE=F BraDBF=F KetDBF=F FulRan=T
         wScrn=  0.000000 ICntrl=       600 IOpCl=  0 I1Cent=           0 NGrid=           0
         NMat0=    1 NMatS0=  31878 NMatT0=    0 NMatD0=    1 NMtDS0=    0 NMtDT0=    0
 Petite list used in FoFCou.
 Restricted open shell SCF:
 Using DIIS extrapolation, IDIIS=  1040.
 NGot= 21474836480 LenX= 21345436690 LenY= 21345324024
 Requested convergence on RMS density matrix=1.00D-08 within 300 cycles.
 Requested convergence on MAX density matrix=1.00D-06.
 Requested convergence on             energy=1.00D-06.
 Virtual orbitals will be shifted by   0.400 hartree.
 No special actions if energy rises.

 Cycle   1  Pass 1  IDiag  1:
 Density matrix breaks symmetry, PCut= 1.00D-07
 Density has only Abelian symmetry.
 E= -86.4593615009554    
 DIIS: error= 1.24D-01 at cycle   1 NSaved=   1.
 NSaved= 1 IEnMin= 1 EnMin= -86.4593615009554     IErMin= 1 ErrMin= 1.24D-01
 ErrMax= 1.24D-01  0.00D+00 EMaxC= 1.00D-01 BMatC= 1.78D+00 BMatP= 1.78D+00
 IDIUse=3 WtCom= 0.00D+00 WtEn= 1.00D+00
 Coeff-Com:  0.100D+01
 Coeff-En:   0.100D+01
 Coeff:      0.100D+01
 Gap=     0.010 Goal=   None    Shift=    0.400
 DSYEVD-2 returned Info=         121 IAlg= 4 N=    60 NDim=   248 NE2=    86069853 trying  DSYEV.
 GapD=    0.010 DampG=0.250 DampE=0.125 DampFc=0.1250 IDamp=-1.
 Damping current iteration by 1.25D-01
 RMSDP=2.57D-03 MaxDP=1.87D-01              OVMax= 2.54D-02

 Cycle   2  Pass 1  IDiag  1:
 Density matrix breaks symmetry, PCut= 1.00D-07
 Density has only Abelian symmetry.
 E= -86.4623371462330     Delta-E=       -0.002975645278 Rises=F Damp=T
 DIIS: error= 1.08D-01 at cycle   2 NSaved=   2.
 NSaved= 2 IEnMin= 2 EnMin= -86.4623371462330     IErMin= 2 ErrMin= 1.08D-01
 ErrMax= 1.08D-01  0.00D+00 EMaxC= 1.00D-01 BMatC= 1.35D+00 BMatP= 1.78D+00
 IDIUse=3 WtCom= 0.00D+00 WtEn= 1.00D+00
 Coeff-Com: -0.667D+01 0.767D+01
 Coeff-En:   0.000D+00 0.100D+01
 Coeff:      0.000D+00 0.100D+01
 Gap=     0.003 Goal=   None    Shift=    0.400
 RMSDP=2.32D-03 MaxDP=1.68D-01 DE=-2.98D-03 OVMax= 1.08D-03

 Cycle   3  Pass 1  IDiag  1:
 Density matrix breaks symmetry, PCut= 1.00D-07
 Density has only Abelian symmetry.
 E= -86.4801801534623     Delta-E=       -0.017843007229 Rises=F Damp=F
 DIIS: error= 8.01D-03 at cycle   3 NSaved=   3.
 NSaved= 3 IEnMin= 3 EnMin= -86.4801801534623     IErMin= 3 ErrMin= 8.01D-03
 ErrMax= 8.01D-03  0.00D+00 EMaxC= 1.00D-01 BMatC= 4.39D-03 BMatP= 1.35D+00
 IDIUse=3 WtCom= 9.20D-01 WtEn= 8.01D-02
 Coeff-Com:  0.213D+01-0.244D+01 0.131D+01
 Coeff-En:   0.000D+00 0.000D+00 0.100D+01
 Coeff:      0.196D+01-0.225D+01 0.128D+01
 Gap=    -0.017 Goal=   None    Shift=    0.400
 DSYEVD-2 returned Info=         121 IAlg= 4 N=    60 NDim=   248 NE2=    86069853 trying  DSYEV.
 RMSDP=1.81D-04 MaxDP=2.18D-02 DE=-1.78D-02 OVMax= 8.57D-03

 Cycle   4  Pass 1  IDiag  1:
 Density matrix breaks symmetry, PCut= 1.00D-07
 Density has only Abelian symmetry.
 E= -86.4810172924936     Delta-E=       -0.000837139031 Rises=F Damp=F
 DIIS: error= 4.38D-03 at cycle   4 NSaved=   4.
 NSaved= 4 IEnMin= 4 EnMin= -86.4810172924936     IErMin= 4 ErrMin= 4.38D-03
 ErrMax= 4.38D-03  0.00D+00 EMaxC= 1.00D-01 BMatC= 5.13D-04 BMatP= 4.39D-03
 IDIUse=3 WtCom= 9.56D-01 WtEn= 4.38D-02
 Coeff-Com:  0.115D+01-0.131D+01 0.255D+00 0.909D+00
 Coeff-En:   0.000D+00 0.000D+00 0.000D+00 0.100D+01
 Coeff:      0.110D+01-0.125D+01 0.244D+00 0.913D+00
 Gap=    -0.016 Goal=   None    Shift=    0.400
 RMSDP=5.03D-05 MaxDP=6.76D-03 DE=-8.37D-04 OVMax= 2.45D-03

 Cycle   5  Pass 1  IDiag  1:
 Density matrix breaks symmetry, PCut= 1.00D-07
 Density has only Abelian symmetry.
 E= -86.4811122433139     Delta-E=       -0.000094950820 Rises=F Damp=F
 DIIS: error= 4.09D-03 at cycle   5 NSaved=   5.
 NSaved= 5 IEnMin= 5 EnMin= -86.4811122433139     IErMin= 5 ErrMin= 4.09D-03
 ErrMax= 4.09D-03  0.00D+00 EMaxC= 1.00D-01 BMatC= 4.07D-04 BMatP= 5.13D-04
 IDIUse=3 WtCom= 9.59D-01 WtEn= 4.09D-02
 Coeff-Com:  0.101D+01-0.116D+01 0.180D+00-0.122D+00 0.109D+01
 Coeff-En:   0.000D+00 0.000D+00 0.000D+00 0.000D+00 0.100D+01
 Coeff:      0.972D+00-0.111D+01 0.173D+00-0.117D+00 0.108D+01
 Gap=    -0.015 Goal=   None    Shift=    0.400
 RMSDP=1.59D-05 MaxDP=1.67D-03 DE=-9.50D-05 OVMax= 1.39D-03

 Cycle   6  Pass 1  IDiag  1:
 Density matrix breaks symmetry, PCut= 1.00D-07
 Density has only Abelian symmetry.
 E= -86.4811747688635     Delta-E=       -0.000062525550 Rises=F Damp=F
 DIIS: error= 3.83D-03 at cycle   6 NSaved=   6.
 NSaved= 6 IEnMin= 6 EnMin= -86.4811747688635     IErMin= 6 ErrMin= 3.83D-03
 ErrMax= 3.83D-03  0.00D+00 EMaxC= 1.00D-01 BMatC= 3.52D-04 BMatP= 4.07D-04
 IDIUse=3 WtCom= 9.62D-01 WtEn= 3.83D-02
 Coeff-Com:  0.883D+00-0.101D+01 0.149D+00 0.185D+00-0.133D+01 0.212D+01
 Coeff-En:   0.000D+00 0.000D+00 0.000D+00 0.000D+00 0.000D+00 0.100D+01
 Coeff:      0.849D+00-0.970D+00 0.143D+00 0.178D+00-0.128D+01 0.208D+01
 Gap=    -0.014 Goal=   None    Shift=    0.400
 RMSDP=7.84D-06 MaxDP=7.00D-04 DE=-6.25D-05 OVMax= 8.13D-04

 Cycle   7  Pass 1  IDiag  1:
 Density matrix breaks symmetry, PCut= 1.00D-07
 Density has only Abelian symmetry.
 E= -86.4812258708840     Delta-E=       -0.000051102021 Rises=F Damp=F
 DIIS: error= 3.48D-03 at cycle   7 NSaved=   7.
 NSaved= 7 IEnMin= 7 EnMin= -86.4812258708840     IErMin= 7 ErrMin= 3.48D-03
 ErrMax= 3.48D-03  0.00D+00 EMaxC= 1.00D-01 BMatC= 2.91D-04 BMatP= 3.52D-04
 IDIUse=3 WtCom= 9.65D-01 WtEn= 3.48D-02
 Coeff-Com:  0.821D+00-0.939D+00 0.136D+00 0.157D+00-0.110D+01 0.109D+01
 Coeff-Com:  0.831D+00
 Coeff-En:   0.000D+00 0.000D+00 0.000D+00 0.000D+00 0.000D+00 0.000D+00
 Coeff-En:   0.100D+01
 Coeff:      0.793D+00-0.906D+00 0.131D+00 0.152D+00-0.106D+01 0.105D+01
 Coeff:      0.837D+00
 Gap=    -0.014 Goal=   None    Shift=    0.400
 RMSDP=7.32D-06 MaxDP=1.22D-03 DE=-5.11D-05 OVMax= 7.53D-04

 Cycle   8  Pass 1  IDiag  1:
 Density matrix breaks symmetry, PCut= 1.00D-07
 Density has only Abelian symmetry.
 E= -86.4812661792379     Delta-E=       -0.000040308354 Rises=F Damp=F
 DIIS: error= 3.21D-03 at cycle   8 NSaved=   8.
 NSaved= 8 IEnMin= 8 EnMin= -86.4812661792379     IErMin= 8 ErrMin= 3.21D-03
 ErrMax= 3.21D-03  0.00D+00 EMaxC= 1.00D-01 BMatC= 2.47D-04 BMatP= 2.91D-04
 IDIUse=3 WtCom= 9.68D-01 WtEn= 3.21D-02
 Coeff-Com:  0.711D+00-0.813D+00 0.123D+00 0.896D-01-0.499D+00 0.667D+00
 Coeff-Com: -0.162D+01 0.234D+01
 Coeff-En:   0.000D+00 0.000D+00 0.000D+00 0.000D+00 0.000D+00 0.000D+00
 Coeff-En:   0.000D+00 0.100D+01
 Coeff:      0.688D+00-0.787D+00 0.119D+00 0.868D-01-0.483D+00 0.645D+00
 Coeff:     -0.156D+01 0.229D+01
 Gap=    -0.013 Goal=   None    Shift=    0.400
 RMSDP=8.30D-06 MaxDP=1.63D-03 DE=-4.03D-05 OVMax= 7.98D-04

 Cycle   9  Pass 1  IDiag  1:
 Density matrix breaks symmetry, PCut= 1.00D-07
 Density has only Abelian symmetry.
 E= -86.4813073137334     Delta-E=       -0.000041134495 Rises=F Damp=F
 DIIS: error= 2.89D-03 at cycle   9 NSaved=   9.
 NSaved= 9 IEnMin= 9 EnMin= -86.4813073137334     IErMin= 9 ErrMin= 2.89D-03
 ErrMax= 2.89D-03  0.00D+00 EMaxC= 1.00D-01 BMatC= 2.00D-04 BMatP= 2.47D-04
 IDIUse=3 WtCom= 9.71D-01 WtEn= 2.89D-02
 Coeff-Com:  0.664D+00-0.759D+00 0.112D+00 0.956D-01-0.613D+00 0.133D+01
 Coeff-Com: -0.221D+01 0.136D+01 0.103D+01
 Coeff-En:   0.000D+00 0.000D+00 0.000D+00 0.000D+00 0.000D+00 0.000D+00
 Coeff-En:   0.000D+00 0.000D+00 0.100D+01
 Coeff:      0.645D+00-0.737D+00 0.109D+00 0.929D-01-0.596D+00 0.129D+01
 Coeff:     -0.215D+01 0.132D+01 0.103D+01
 Gap=    -0.013 Goal=   None    Shift=    0.400
 DSYEVD-2 returned Info=         121 IAlg= 4 N=    60 NDim=   248 NE2=    86069853 trying  DSYEV.
 RMSDP=6.33D-06 MaxDP=1.33D-03 DE=-4.11D-05 OVMax= 6.43D-04

 Cycle  10  Pass 1  IDiag  1:
 Density matrix breaks symmetry, PCut= 1.00D-07
 Density has only Abelian symmetry.
 E= -86.4813358110514     Delta-E=       -0.000028497318 Rises=F Damp=F
 DIIS: error= 2.67D-03 at cycle  10 NSaved=  10.
 NSaved=10 IEnMin=10 EnMin= -86.4813358110514     IErMin=10 ErrMin= 2.67D-03
 ErrMax= 2.67D-03  0.00D+00 EMaxC= 1.00D-01 BMatC= 1.71D-04 BMatP= 2.00D-04
 IDIUse=3 WtCom= 9.73D-01 WtEn= 2.67D-02
 Coeff-Com:  0.505D+00-0.577D+00 0.813D-01 0.990D-01-0.747D+00 0.128D+01
 Coeff-Com:  0.474D+00-0.202D+01-0.222D+01 0.412D+01
 Coeff-En:   0.000D+00 0.000D+00 0.000D+00 0.000D+00 0.000D+00 0.000D+00
 Coeff-En:   0.000D+00 0.000D+00 0.000D+00 0.100D+01
 Coeff:      0.491D+00-0.561D+00 0.792D-01 0.964D-01-0.727D+00 0.125D+01
 Coeff:      0.462D+00-0.196D+01-0.216D+01 0.404D+01
 Gap=    -0.013 Goal=   None    Shift=    0.400
 DSYEVD-2 returned Info=         121 IAlg= 4 N=    60 NDim=   248 NE2=    86069853 trying  DSYEV.
 RMSDP=1.03D-05 MaxDP=2.07D-03 DE=-2.85D-05 OVMax= 9.39D-04

 Cycle  11  Pass 1  IDiag  1:
 Density matrix breaks symmetry, PCut= 1.00D-07
 Density has only Abelian symmetry.
 E= -86.4813763752622     Delta-E=       -0.000040564211 Rises=F Damp=F
 DIIS: error= 2.24D-03 at cycle  11 NSaved=  11.
 NSaved=11 IEnMin=11 EnMin= -86.4813763752622     IErMin=11 ErrMin= 2.24D-03
 ErrMax= 2.24D-03  0.00D+00 EMaxC= 1.00D-01 BMatC= 1.22D-04 BMatP= 1.71D-04
 IDIUse=3 WtCom= 9.78D-01 WtEn= 2.24D-02
 Coeff-Com:  0.497D+00-0.568D+00 0.759D-01 0.916D-01-0.763D+00 0.125D+01
 Coeff-Com:  0.285D+01-0.777D+01 0.238D+00 0.681D+01-0.171D+01
 Coeff-En:   0.000D+00 0.000D+00 0.000D+00 0.000D+00 0.000D+00 0.000D+00
 Coeff-En:   0.000D+00 0.000D+00 0.000D+00 0.000D+00 0.100D+01
 Coeff:      0.486D+00-0.555D+00 0.742D-01 0.896D-01-0.746D+00 0.122D+01
 Coeff:      0.279D+01-0.759D+01 0.233D+00 0.665D+01-0.165D+01
 Gap=    -0.013 Goal=   None    Shift=    0.400
 RMSDP=5.22D-06 MaxDP=9.45D-04 DE=-4.06D-05 OVMax= 5.84D-04

 Cycle  12  Pass 1  IDiag  1:
 Density matrix breaks symmetry, PCut= 1.00D-07
 Density has only Abelian symmetry.
 E= -86.4813956914050     Delta-E=       -0.000019316143 Rises=F Damp=F
 DIIS: error= 2.08D-03 at cycle  12 NSaved=  12.
 NSaved=12 IEnMin=12 EnMin= -86.4813956914050     IErMin=12 ErrMin= 2.08D-03
 ErrMax= 2.08D-03  0.00D+00 EMaxC= 1.00D-01 BMatC= 1.04D-04 BMatP= 1.22D-04
 IDIUse=3 WtCom= 9.79D-01 WtEn= 2.08D-02
 Coeff-Com:  0.450D+00-0.514D+00 0.672D-01 0.869D-01-0.779D+00 0.121D+01
 Coeff-Com:  0.285D+01-0.854D+01 0.406D+01 0.340D+01-0.347D+01 0.217D+01
 Coeff-En:   0.000D+00 0.000D+00 0.000D+00 0.000D+00 0.000D+00 0.000D+00
 Coeff-En:   0.000D+00 0.000D+00 0.000D+00 0.000D+00 0.000D+00 0.100D+01
 Coeff:      0.441D+00-0.503D+00 0.658D-01 0.851D-01-0.762D+00 0.119D+01
 Coeff:      0.279D+01-0.836D+01 0.398D+01 0.333D+01-0.340D+01 0.215D+01
 Gap=    -0.013 Goal=   None    Shift=    0.400
 DSYEVD-2 returned Info=         121 IAlg= 4 N=    60 NDim=   248 NE2=    86069853 trying  DSYEV.
 RMSDP=4.60D-06 MaxDP=7.74D-04 DE=-1.93D-05 OVMax= 5.43D-04

 Cycle  13  Pass 1  IDiag  1:
 Density matrix breaks symmetry, PCut= 1.00D-07
 Density has only Abelian symmetry.
 E= -86.4814126205849     Delta-E=       -0.000016929180 Rises=F Damp=F
 DIIS: error= 1.89D-03 at cycle  13 NSaved=  13.
 NSaved=13 IEnMin=13 EnMin= -86.4814126205849     IErMin=13 ErrMin= 1.89D-03
 ErrMax= 1.89D-03  0.00D+00 EMaxC= 1.00D-01 BMatC= 8.63D-05 BMatP= 1.04D-04
 IDIUse=3 WtCom= 9.81D-01 WtEn= 1.89D-02
 Large coefficients: NSaved= 13 BigCof=   12.20 CofMax=   10.00 Det=-1.14D-10
 Inversion failed.  Reducing to 12 matrices.
 Large coefficients: NSaved= 12 BigCof=   14.10 CofMax=   10.00 Det=-1.28D-10
 Inversion failed.  Reducing to 11 matrices.
 Large coefficients: NSaved= 11 BigCof=   14.16 CofMax=   10.00 Det=-1.29D-10
 Inversion failed.  Reducing to 10 matrices.
 Large coefficients: NSaved= 10 BigCof=   16.74 CofMax=   10.00 Det=-1.95D-10
 Inversion failed.  Reducing to  9 matrices.
 Large coefficients: NSaved=  9 BigCof=   16.78 CofMax=   10.00 Det=-2.17D-10
 Inversion failed.  Reducing to  8 matrices.
 Large coefficients: NSaved=  8 BigCof=   16.03 CofMax=   10.00 Det=-2.18D-10
 Inversion failed.  Reducing to  7 matrices.
 Large coefficients: NSaved=  7 BigCof=   16.00 CofMax=   10.00 Det=-2.19D-10
 Inversion failed.  Reducing to  6 matrices.
 Coeff-Com: -0.186D+01 0.804D+01-0.737D+01-0.446D+01-0.969D+00 0.762D+01
 Coeff-En:   0.000D+00 0.000D+00 0.000D+00 0.000D+00 0.000D+00 0.100D+01
 Coeff:     -0.183D+01 0.789D+01-0.723D+01-0.438D+01-0.951D+00 0.749D+01
 Gap=    -0.012 Goal=   None    Shift=    0.400
 RMSDP=2.29D-05 MaxDP=4.38D-03 DE=-1.69D-05 OVMax= 1.93D-03

 Cycle  14  Pass 1  IDiag  1:
 Density matrix breaks symmetry, PCut= 1.00D-07
 Density has only Abelian symmetry.
 E= -86.4814620028223     Delta-E=       -0.000049382237 Rises=F Damp=F
 DIIS: error= 8.62D-04 at cycle  14 NSaved=   7.
 NSaved= 7 IEnMin= 7 EnMin= -86.4814620028223     IErMin= 7 ErrMin= 8.62D-04
 ErrMax= 8.62D-04  0.00D+00 EMaxC= 1.00D-01 BMatC= 2.53D-05 BMatP= 8.63D-05
 IDIUse=3 WtCom= 9.91D-01 WtEn= 8.62D-03
 Coeff-Com: -0.241D+01 0.653D+01 0.529D+00-0.896D+01-0.588D+01 0.982D+01
 Coeff-Com:  0.137D+01
 Coeff-En:   0.000D+00 0.000D+00 0.000D+00 0.000D+00 0.000D+00 0.000D+00
 Coeff-En:   0.100D+01
 Coeff:     -0.239D+01 0.648D+01 0.525D+00-0.888D+01-0.583D+01 0.973D+01
 Coeff:      0.137D+01
 Gap=    -0.012 Goal=   None    Shift=    0.400
 RMSDP=1.03D-05 MaxDP=1.69D-03 DE=-4.94D-05 OVMax= 1.09D-03

 Cycle  15  Pass 1  IDiag  1:
 Density matrix breaks symmetry, PCut= 1.00D-07
 Density has only Abelian symmetry.
 E= -86.4814781915547     Delta-E=       -0.000016188732 Rises=F Damp=F
 DIIS: error= 5.25D-04 at cycle  15 NSaved=   8.
 NSaved= 8 IEnMin= 8 EnMin= -86.4814781915547     IErMin= 8 ErrMin= 5.25D-04
 ErrMax= 5.25D-04  0.00D+00 EMaxC= 1.00D-01 BMatC= 1.06D-05 BMatP= 2.53D-05
 IDIUse=3 WtCom= 9.95D-01 WtEn= 5.25D-03
 Large coefficients: NSaved=  8 BigCof=   17.37 CofMax=   10.00 Det=-4.12D-11
 Inversion failed.  Reducing to  7 matrices.
 Large coefficients: NSaved=  7 BigCof=   17.80 CofMax=   10.00 Det=-8.98D-11
 Inversion failed.  Reducing to  6 matrices.
 Large coefficients: NSaved=  6 BigCof=   17.08 CofMax=   10.00 Det=-5.32D-11
 Inversion failed.  Reducing to  5 matrices.
 Large coefficients: NSaved=  5 BigCof=   14.88 CofMax=   10.00 Det=-2.23D-10
 Inversion failed.  Reducing to  4 matrices.
 Coeff-Com: -0.804D+01 0.886D+01-0.497D+00 0.672D+00
 Coeff-En:   0.000D+00 0.000D+00 0.000D+00 0.100D+01
 Coeff:     -0.799D+01 0.881D+01-0.495D+00 0.674D+00
 Gap=    -0.012 Goal=   None    Shift=    0.400
 RMSDP=6.05D-06 MaxDP=3.85D-04 DE=-1.62D-05 OVMax= 7.25D-04

 Cycle  16  Pass 1  IDiag  1:
 Density matrix breaks symmetry, PCut= 1.00D-07
 Density has only Abelian symmetry.
 E= -86.4814851106396     Delta-E=       -0.000006919085 Rises=F Damp=F
 DIIS: error= 3.65D-04 at cycle  16 NSaved=   5.
 NSaved= 5 IEnMin= 5 EnMin= -86.4814851106396     IErMin= 5 ErrMin= 3.65D-04
 ErrMax= 3.65D-04  0.00D+00 EMaxC= 1.00D-01 BMatC= 5.30D-06 BMatP= 1.06D-05
 IDIUse=3 WtCom= 9.96D-01 WtEn= 3.65D-03
 Coeff-Com: -0.728D+01 0.801D+01-0.109D+00-0.452D+00 0.832D+00
 Coeff-En:   0.000D+00 0.000D+00 0.000D+00 0.000D+00 0.100D+01
 Coeff:     -0.726D+01 0.798D+01-0.108D+00-0.450D+00 0.833D+00
 Gap=    -0.012 Goal=   None    Shift=    0.400
 DSYEVD-2 returned Info=          91 IAlg= 4 N=    60 NDim=   248 NE2=    86069853 trying  DSYEV.
 RMSDP=3.70D-06 MaxDP=1.91D-04 DE=-6.92D-06 OVMax= 4.76D-04

 Cycle  17  Pass 1  IDiag  1:
 Density matrix breaks symmetry, PCut= 1.00D-07
 Density has only Abelian symmetry.
 E= -86.4814885399009     Delta-E=       -0.000003429261 Rises=F Damp=F
 DIIS: error= 2.67D-04 at cycle  17 NSaved=   6.
 NSaved= 6 IEnMin= 6 EnMin= -86.4814885399009     IErMin= 6 ErrMin= 2.67D-04
 ErrMax= 2.67D-04  0.00D+00 EMaxC= 1.00D-01 BMatC= 2.93D-06 BMatP= 5.30D-06
 IDIUse=3 WtCom= 9.97D-01 WtEn= 2.67D-03
 Coeff-Com: -0.328D+01 0.362D+01-0.499D+00 0.392D+01-0.937D+01 0.662D+01
 Coeff-En:   0.000D+00 0.000D+00 0.000D+00 0.000D+00 0.000D+00 0.100D+01
 Coeff:     -0.327D+01 0.361D+01-0.498D+00 0.391D+01-0.935D+01 0.660D+01
 Gap=    -0.012 Goal=   None    Shift=    0.400
 RMSDP=2.99D-06 MaxDP=1.72D-04 DE=-3.43D-06 OVMax= 3.67D-04

 Cycle  18  Pass 1  IDiag  1:
 Density matrix breaks symmetry, PCut= 1.00D-07
 Density has only Abelian symmetry.
 E= -86.4814904728414     Delta-E=       -0.000001932940 Rises=F Damp=F
 DIIS: error= 1.98D-04 at cycle  18 NSaved=   7.
 NSaved= 7 IEnMin= 7 EnMin= -86.4814904728414     IErMin= 7 ErrMin= 1.98D-04
 ErrMax= 1.98D-04  0.00D+00 EMaxC= 1.00D-01 BMatC= 1.66D-06 BMatP= 2.93D-06
 IDIUse=3 WtCom= 9.98D-01 WtEn= 1.98D-03
 Coeff-Com: -0.297D+01 0.328D+01-0.660D+00 0.434D+01-0.772D+01 0.206D+01
 Coeff-Com:  0.267D+01
 Coeff-En:   0.000D+00 0.000D+00 0.000D+00 0.000D+00 0.000D+00 0.000D+00
 Coeff-En:   0.100D+01
 Coeff:     -0.296D+01 0.327D+01-0.659D+00 0.433D+01-0.771D+01 0.206D+01
 Coeff:      0.267D+01
 Gap=    -0.012 Goal=   None    Shift=    0.400
 DSYEVD-2 returned Info=         121 IAlg= 4 N=    60 NDim=   248 NE2=    86069853 trying  DSYEV.
 RMSDP=2.17D-06 MaxDP=1.72D-04 DE=-1.93D-06 OVMax= 2.62D-04

 Cycle  19  Pass 1  IDiag  1:
 Density matrix breaks symmetry, PCut= 1.00D-07
 Density has only Abelian symmetry.
 E= -86.4814915078410     Delta-E=       -0.000001035000 Rises=F Damp=F
 DIIS: error= 1.52D-04 at cycle  19 NSaved=   8.
 NSaved= 8 IEnMin= 8 EnMin= -86.4814915078410     IErMin= 8 ErrMin= 1.52D-04
 ErrMax= 1.52D-04  0.00D+00 EMaxC= 1.00D-01 BMatC= 1.04D-06 BMatP= 1.66D-06
 IDIUse=3 WtCom= 9.98D-01 WtEn= 1.52D-03
 Coeff-Com: -0.311D+01 0.344D+01-0.684D+00 0.397D+01-0.728D+01 0.444D+01
 Coeff-Com: -0.227D+01 0.249D+01
 Coeff-En:   0.000D+00 0.000D+00 0.000D+00 0.000D+00 0.000D+00 0.000D+00
 Coeff-En:   0.000D+00 0.100D+01
 Coeff:     -0.310D+01 0.343D+01-0.683D+00 0.396D+01-0.727D+01 0.444D+01
 Coeff:     -0.226D+01 0.248D+01
 Gap=    -0.012 Goal=   None    Shift=    0.400
 RMSDP=1.58D-06 MaxDP=1.69D-04 DE=-1.03D-06 OVMax= 1.86D-04

 Cycle  20  Pass 1  IDiag  1:
 Density matrix breaks symmetry, PCut= 1.00D-07
 Density has only Abelian symmetry.
 E= -86.4814920840162     Delta-E=       -0.000000576175 Rises=F Damp=F
 DIIS: error= 1.19D-04 at cycle  20 NSaved=   9.
 NSaved= 9 IEnMin= 9 EnMin= -86.4814920840162     IErMin= 9 ErrMin= 1.19D-04
 ErrMax= 1.19D-04  0.00D+00 EMaxC= 1.00D-01 BMatC= 7.07D-07 BMatP= 1.04D-06
 IDIUse=3 WtCom= 9.99D-01 WtEn= 1.19D-03
 Coeff-Com: -0.308D+01 0.340D+01-0.591D+00 0.366D+01-0.712D+01 0.386D+01
 Coeff-Com:  0.207D+01-0.466D+01 0.345D+01
 Coeff-En:   0.000D+00 0.000D+00 0.000D+00 0.000D+00 0.000D+00 0.000D+00
 Coeff-En:   0.000D+00 0.000D+00 0.100D+01
 Coeff:     -0.307D+01 0.340D+01-0.590D+00 0.365D+01-0.711D+01 0.386D+01
 Coeff:      0.206D+01-0.465D+01 0.345D+01
 Gap=    -0.012 Goal=   None    Shift=    0.400
 RMSDP=1.11D-06 MaxDP=7.88D-05 DE=-5.76D-07 OVMax= 1.37D-04

 Cycle  21  Pass 1  IDiag  1:
 Density matrix breaks symmetry, PCut= 1.00D-07
 Density has only Abelian symmetry.
 E= -86.4814924336403     Delta-E=       -0.000000349624 Rises=F Damp=F
 DIIS: error= 9.69D-05 at cycle  21 NSaved=  10.
 NSaved=10 IEnMin=10 EnMin= -86.4814924336403     IErMin=10 ErrMin= 9.69D-05
 ErrMax= 9.69D-05  0.00D+00 EMaxC= 1.00D-01 BMatC= 5.21D-07 BMatP= 7.07D-07
 IDIUse=1 WtCom= 1.00D+00 WtEn= 0.00D+00
 Coeff-Com: -0.280D+01 0.309D+01-0.548D+00 0.347D+01-0.709D+01 0.388D+01
 Coeff-Com:  0.301D+01-0.229D+01-0.480D+01 0.507D+01
 Coeff:     -0.280D+01 0.309D+01-0.548D+00 0.347D+01-0.709D+01 0.388D+01
 Coeff:      0.301D+01-0.229D+01-0.480D+01 0.507D+01
 Gap=    -0.012 Goal=   None    Shift=    0.400
 RMSDP=9.13D-07 MaxDP=7.58D-05 DE=-3.50D-07 OVMax= 1.08D-04

 Cycle  22  Pass 1  IDiag  1:
 Density matrix breaks symmetry, PCut= 1.00D-07
 Density has only Abelian symmetry.
 E= -86.4814926584997     Delta-E=       -0.000000224859 Rises=F Damp=F
 DIIS: error= 8.08D-05 at cycle  22 NSaved=  11.
 NSaved=11 IEnMin=11 EnMin= -86.4814926584997     IErMin=11 ErrMin= 8.08D-05
 ErrMax= 8.08D-05  0.00D+00 EMaxC= 1.00D-01 BMatC= 4.10D-07 BMatP= 5.21D-07
 IDIUse=1 WtCom= 1.00D+00 WtEn= 0.00D+00
 Large coefficients: NSaved= 11 BigCof=   10.55 CofMax=   10.00 Det=-2.50D-12
 Inversion failed.  Reducing to 10 matrices.
 Large coefficients: NSaved= 10 BigCof=   25.64 CofMax=   10.00 Det=-2.62D-12
 Inversion failed.  Reducing to  9 matrices.
 Large coefficients: NSaved=  9 BigCof=   21.66 CofMax=   10.00 Det=-3.57D-12
 Inversion failed.  Reducing to  8 matrices.
 Large coefficients: NSaved=  8 BigCof=   28.04 CofMax=   10.00 Det=-7.16D-12
 Inversion failed.  Reducing to  7 matrices.
 Large coefficients: NSaved=  7 BigCof=   36.56 CofMax=   10.00 Det=-6.52D-12
 Inversion failed.  Reducing to  6 matrices.
 Large coefficients: NSaved=  6 BigCof=   30.92 CofMax=   10.00 Det=-1.35D-11
 Inversion failed.  Reducing to  5 matrices.
 Large coefficients: NSaved=  5 BigCof=   23.47 CofMax=   10.00 Det=-1.74D-11
 Inversion failed.  Reducing to  4 matrices.
 Large coefficients: NSaved=  4 BigCof=   41.01 CofMax=   10.00 Det=-3.64D-11
 Inversion failed.  Reducing to  3 matrices.
 Large coefficients: NSaved=  3 BigCof=   19.72 CofMax=   10.00 Det=-8.01D-11
 Inversion failed.  Reducing to  2 matrices.
 Coeff-Com: -0.409D+01 0.509D+01
 Coeff:     -0.409D+01 0.509D+01
 Gap=    -0.012 Goal=   None    Shift=    0.400
 RMSDP=3.49D-06 MaxDP=1.73D-04 DE=-2.25D-07 OVMax= 4.86D-04

 Cycle  23  Pass 1  IDiag  1:
 Density matrix breaks symmetry, PCut= 1.00D-07
 Density has only Abelian symmetry.
 E= -86.4814934414036     Delta-E=       -0.000000782904 Rises=F Damp=F
 DIIS: error= 5.31D-05 at cycle  23 NSaved=   3.
 NSaved= 3 IEnMin= 3 EnMin= -86.4814934414036     IErMin= 3 ErrMin= 5.31D-05
 ErrMax= 5.31D-05  0.00D+00 EMaxC= 1.00D-01 BMatC= 1.35D-07 BMatP= 4.10D-07
 IDIUse=1 WtCom= 1.00D+00 WtEn= 0.00D+00
 Coeff-Com: -0.283D+01 0.249D+01 0.134D+01
 Coeff:     -0.283D+01 0.249D+01 0.134D+01
 Gap=    -0.012 Goal=   None    Shift=    0.400
 RMSDP=1.05D-06 MaxDP=5.96D-05 DE=-7.83D-07 OVMax= 8.91D-05

 Cycle  24  Pass 1  IDiag  1:
 Density matrix breaks symmetry, PCut= 1.00D-07
 Density has only Abelian symmetry.
 E= -86.4814935321022     Delta-E=       -0.000000090699 Rises=F Damp=F
 DIIS: error= 4.49D-05 at cycle  24 NSaved=   4.
 NSaved= 4 IEnMin= 4 EnMin= -86.4814935321022     IErMin= 4 ErrMin= 4.49D-05
 ErrMax= 4.49D-05  0.00D+00 EMaxC= 1.00D-01 BMatC= 9.30D-08 BMatP= 1.35D-07
 IDIUse=1 WtCom= 1.00D+00 WtEn= 0.00D+00
 Coeff-Com: -0.215D+01 0.178D+01 0.368D+00 0.101D+01
 Coeff:     -0.215D+01 0.178D+01 0.368D+00 0.101D+01
 Gap=    -0.012 Goal=   None    Shift=    0.400
 RMSDP=5.83D-07 MaxDP=3.46D-05 DE=-9.07D-08 OVMax= 5.96D-05

 Cycle  25  Pass 1  IDiag  1:
 Density matrix breaks symmetry, PCut= 1.00D-07
 Density has only Abelian symmetry.
 E= -86.4814935805456     Delta-E=       -0.000000048443 Rises=F Damp=F
 DIIS: error= 3.58D-05 at cycle  25 NSaved=   5.
 NSaved= 5 IEnMin= 5 EnMin= -86.4814935805456     IErMin= 5 ErrMin= 3.58D-05
 ErrMax= 3.58D-05  0.00D+00 EMaxC= 1.00D-01 BMatC= 6.43D-08 BMatP= 9.30D-08
 IDIUse=1 WtCom= 1.00D+00 WtEn= 0.00D+00
 Coeff-Com: -0.390D+00-0.466D-01 0.144D+00-0.143D+01 0.273D+01
 Coeff:     -0.390D+00-0.466D-01 0.144D+00-0.143D+01 0.273D+01
 Gap=    -0.012 Goal=   None    Shift=    0.400
 RMSDP=3.41D-07 MaxDP=1.89D-05 DE=-4.84D-08 OVMax= 4.20D-05

 Cycle  26  Pass 1  IDiag  1:
 Density matrix breaks symmetry, PCut= 1.00D-07
 Density has only Abelian symmetry.
 E= -86.4814936118233     Delta-E=       -0.000000031278 Rises=F Damp=F
 DIIS: error= 2.87D-05 at cycle  26 NSaved=   6.
 NSaved= 6 IEnMin= 6 EnMin= -86.4814936118233     IErMin= 6 ErrMin= 2.87D-05
 ErrMax= 2.87D-05  0.00D+00 EMaxC= 1.00D-01 BMatC= 4.65D-08 BMatP= 6.43D-08
 IDIUse=1 WtCom= 1.00D+00 WtEn= 0.00D+00
 Coeff-Com: -0.152D-01-0.429D+00 0.266D-01-0.110D+01 0.159D+01 0.928D+00
 Coeff:     -0.152D-01-0.429D+00 0.266D-01-0.110D+01 0.159D+01 0.928D+00
 Gap=    -0.012 Goal=   None    Shift=    0.400
 RMSDP=2.84D-07 MaxDP=1.43D-05 DE=-3.13D-08 OVMax= 3.35D-05

 Cycle  27  Pass 1  IDiag  1:
 Density matrix breaks symmetry, PCut= 1.00D-07
 Density has only Abelian symmetry.
 E= -86.4814936322187     Delta-E=       -0.000000020395 Rises=F Damp=F
 DIIS: error= 2.37D-05 at cycle  27 NSaved=   7.
 NSaved= 7 IEnMin= 7 EnMin= -86.4814936322187     IErMin= 7 ErrMin= 2.37D-05
 ErrMax= 2.37D-05  0.00D+00 EMaxC= 1.00D-01 BMatC= 3.61D-08 BMatP= 4.65D-08
 IDIUse=1 WtCom= 1.00D+00 WtEn= 0.00D+00
 Coeff-Com:  0.848D+00-0.125D+01 0.152D+00-0.660D-01 0.132D+01-0.666D+01
 Coeff-Com:  0.666D+01
 Coeff:      0.848D+00-0.125D+01 0.152D+00-0.660D-01 0.132D+01-0.666D+01
 Coeff:      0.666D+01
 Gap=    -0.012 Goal=   None    Shift=    0.400
 RMSDP=1.97D-07 MaxDP=2.65D-05 DE=-2.04D-08 OVMax= 2.39D-05

 Cycle  28  Pass 1  IDiag  1:
 Density matrix breaks symmetry, PCut= 1.00D-07
 Density has only Abelian symmetry.
 E= -86.4814936461502     Delta-E=       -0.000000013931 Rises=F Damp=F
 DIIS: error= 2.01D-05 at cycle  28 NSaved=   8.
 NSaved= 8 IEnMin= 8 EnMin= -86.4814936461502     IErMin= 8 ErrMin= 2.01D-05
 ErrMax= 2.01D-05  0.00D+00 EMaxC= 1.00D-01 BMatC= 2.96D-08 BMatP= 3.61D-08
 IDIUse=1 WtCom= 1.00D+00 WtEn= 0.00D+00
 Coeff-Com:  0.809D+00-0.121D+01 0.184D+00-0.121D+00 0.156D+01-0.692D+01
 Coeff-Com:  0.641D+01 0.285D+00
 Coeff:      0.809D+00-0.121D+01 0.184D+00-0.121D+00 0.156D+01-0.692D+01
 Coeff:      0.641D+01 0.285D+00
 Gap=    -0.012 Goal=   None    Shift=    0.400
 RMSDP=1.29D-07 MaxDP=1.32D-05 DE=-1.39D-08 OVMax= 1.88D-05

 Cycle  29  Pass 1  IDiag  1:
 Density matrix breaks symmetry, PCut= 1.00D-07
 Density has only Abelian symmetry.
 E= -86.4814936565638     Delta-E=       -0.000000010414 Rises=F Damp=F
 DIIS: error= 1.73D-05 at cycle  29 NSaved=   9.
 NSaved= 9 IEnMin= 9 EnMin= -86.4814936565638     IErMin= 9 ErrMin= 1.73D-05
 ErrMax= 1.73D-05  0.00D+00 EMaxC= 1.00D-01 BMatC= 2.51D-08 BMatP= 2.96D-08
 IDIUse=1 WtCom= 1.00D+00 WtEn= 0.00D+00
 Coeff-Com:  0.820D+00-0.122D+01 0.190D+00-0.132D+00 0.158D+01-0.696D+01
 Coeff-Com:  0.656D+01-0.120D+00 0.278D+00
 Coeff:      0.820D+00-0.122D+01 0.190D+00-0.132D+00 0.158D+01-0.696D+01
 Coeff:      0.656D+01-0.120D+00 0.278D+00
 Gap=    -0.012 Goal=   None    Shift=    0.400
 RMSDP=8.93D-08 MaxDP=6.36D-06 DE=-1.04D-08 OVMax= 1.53D-05

 Cycle  30  Pass 1  IDiag  1:
 Density matrix breaks symmetry, PCut= 1.00D-07
 Density has only Abelian symmetry.
 E= -86.4814936648478     Delta-E=       -0.000000008284 Rises=F Damp=F
 DIIS: error= 1.52D-05 at cycle  30 NSaved=  10.
 NSaved=10 IEnMin=10 EnMin= -86.4814936648478     IErMin=10 ErrMin= 1.52D-05
 ErrMax= 1.52D-05  0.00D+00 EMaxC= 1.00D-01 BMatC= 2.17D-08 BMatP= 2.51D-08
 IDIUse=1 WtCom= 1.00D+00 WtEn= 0.00D+00
 Large coefficients: NSaved= 10 BigCof=   18.06 CofMax=   10.00 Det=-3.88D-15
 Inversion failed.  Reducing to  9 matrices.
 Large coefficients: NSaved=  9 BigCof=   39.57 CofMax=   10.00 Det=-4.40D-15
 Inversion failed.  Reducing to  8 matrices.
 Large coefficients: NSaved=  8 BigCof=  118.02 CofMax=   10.00 Det=-1.83D-14
 Inversion failed.  Reducing to  7 matrices.
 Large coefficients: NSaved=  7 BigCof=  137.87 CofMax=   10.00 Det=-6.30D-14
 Inversion failed.  Reducing to  6 matrices.
 Large coefficients: NSaved=  6 BigCof=  135.12 CofMax=   10.00 Det=-6.56D-14
 Inversion failed.  Reducing to  5 matrices.
 Large coefficients: NSaved=  5 BigCof=  135.37 CofMax=   10.00 Det=-6.57D-14
 Inversion failed.  Reducing to  4 matrices.
 Large coefficients: NSaved=  4 BigCof=  136.72 CofMax=   10.00 Det=-7.54D-14
 Inversion failed.  Reducing to  3 matrices.
 Large coefficients: NSaved=  3 BigCof=  110.14 CofMax=   10.00 Det=-9.28D-13
 Inversion failed.  Reducing to  2 matrices.
 Coeff-Com: -0.744D+01 0.844D+01
 Coeff:     -0.744D+01 0.844D+01
 Gap=    -0.012 Goal=   None    Shift=    0.400
 RMSDP=7.92D-07 MaxDP=3.94D-05 DE=-8.28D-09 OVMax= 9.52D-05

 Cycle  31  Pass 1  IDiag  1:
 Density matrix breaks symmetry, PCut= 1.00D-07
 Density has only Abelian symmetry.
 E= -86.4814937045432     Delta-E=       -0.000000039695 Rises=F Damp=F
 DIIS: error= 1.50D-05 at cycle  31 NSaved=   3.
 NSaved= 3 IEnMin= 3 EnMin= -86.4814937045432     IErMin= 3 ErrMin= 1.50D-05
 ErrMax= 1.50D-05  0.00D+00 EMaxC= 1.00D-01 BMatC= 1.05D-08 BMatP= 2.17D-08
 IDIUse=1 WtCom= 1.00D+00 WtEn= 0.00D+00
 Coeff-Com: -0.645D+01 0.613D+01 0.132D+01
 Coeff:     -0.645D+01 0.613D+01 0.132D+01
 Gap=    -0.012 Goal=   None    Shift=    0.400
 RMSDP=1.01D-07 MaxDP=3.93D-06 DE=-3.97D-08 OVMax= 1.06D-05

 Cycle  32  Pass 1  IDiag  1:
 Density matrix breaks symmetry, PCut= 1.00D-07
 Density has only Abelian symmetry.
 E= -86.4814937084010     Delta-E=       -0.000000003858 Rises=F Damp=F
 DIIS: error= 1.07D-05 at cycle  32 NSaved=   4.
 NSaved= 4 IEnMin= 4 EnMin= -86.4814937084010     IErMin= 4 ErrMin= 1.07D-05
 ErrMax= 1.07D-05  0.00D+00 EMaxC= 1.00D-01 BMatC= 6.94D-09 BMatP= 1.05D-08
 IDIUse=1 WtCom= 1.00D+00 WtEn= 0.00D+00
 Coeff-Com: -0.462D+01 0.417D+01 0.233D+00 0.122D+01
 Coeff:     -0.462D+01 0.417D+01 0.233D+00 0.122D+01
 Gap=    -0.012 Goal=   None    Shift=    0.400
 RMSDP=1.16D-07 MaxDP=5.59D-06 DE=-3.86D-09 OVMax= 1.25D-05

 Cycle  33  Pass 1  IDiag  1:
 Density matrix breaks symmetry, PCut= 1.00D-07
 Density has only Abelian symmetry.
 E= -86.4814937115044     Delta-E=       -0.000000003103 Rises=F Damp=F
 DIIS: error= 9.29D-06 at cycle  33 NSaved=   5.
 NSaved= 5 IEnMin= 5 EnMin= -86.4814937115044     IErMin= 5 ErrMin= 9.29D-06
 ErrMax= 9.29D-06  0.00D+00 EMaxC= 1.00D-01 BMatC= 5.56D-09 BMatP= 6.94D-09
 IDIUse=1 WtCom= 1.00D+00 WtEn= 0.00D+00
 Coeff-Com: -0.256D+01 0.199D+01-0.305D-01-0.239D+00 0.184D+01
 Coeff:     -0.256D+01 0.199D+01-0.305D-01-0.239D+00 0.184D+01
 Gap=    -0.012 Goal=   None    Shift=    0.400
 RMSDP=7.73D-08 MaxDP=3.82D-06 DE=-3.10D-09 OVMax= 9.61D-06

 Cycle  34  Pass 1  IDiag  1:
 Density matrix breaks symmetry, PCut= 1.00D-07
 Density has only Abelian symmetry.
 E= -86.4814937136811     Delta-E=       -0.000000002177 Rises=F Damp=F
 DIIS: error= 7.93D-06 at cycle  34 NSaved=   6.
 NSaved= 6 IEnMin= 6 EnMin= -86.4814937136811     IErMin= 6 ErrMin= 7.93D-06
 ErrMax= 7.93D-06  0.00D+00 EMaxC= 1.00D-01 BMatC= 4.56D-09 BMatP= 5.56D-09
 IDIUse=1 WtCom= 1.00D+00 WtEn= 0.00D+00
 Coeff-Com: -0.557D+00-0.995D-01-0.268D-01 0.157D+00-0.163D+01 0.316D+01
 Coeff:     -0.557D+00-0.995D-01-0.268D-01 0.157D+00-0.163D+01 0.316D+01
 Gap=    -0.012 Goal=   None    Shift=    0.400
 RMSDP=5.25D-08 MaxDP=2.62D-06 DE=-2.18D-09 OVMax= 7.50D-06

 Cycle  35  Pass 1  IDiag  1:
 Density matrix breaks symmetry, PCut= 1.00D-07
 Density has only Abelian symmetry.
 E= -86.4814937153033     Delta-E=       -0.000000001622 Rises=F Damp=F
 DIIS: error= 6.82D-06 at cycle  35 NSaved=   7.
 NSaved= 7 IEnMin= 7 EnMin= -86.4814937153033     IErMin= 7 ErrMin= 6.82D-06
 ErrMax= 6.82D-06  0.00D+00 EMaxC= 1.00D-01 BMatC= 3.85D-09 BMatP= 4.56D-09
 IDIUse=1 WtCom= 1.00D+00 WtEn= 0.00D+00
 Coeff-Com: -0.462D+00-0.194D+00-0.181D-01 0.143D+00-0.139D+01 0.243D+01
 Coeff-Com:  0.495D+00
 Coeff:     -0.462D+00-0.194D+00-0.181D-01 0.143D+00-0.139D+01 0.243D+01
 Coeff:      0.495D+00
 Gap=    -0.012 Goal=   None    Shift=    0.400
 RMSDP=3.83D-08 MaxDP=2.20D-06 DE=-1.62D-09 OVMax= 6.08D-06

 Cycle  36  Pass 1  IDiag  1:
 Density matrix breaks symmetry, PCut= 1.00D-07
 Density has only Abelian symmetry.
 E= -86.4814937165830     Delta-E=       -0.000000001280 Rises=F Damp=F
 DIIS: error= 5.97D-06 at cycle  36 NSaved=   8.
 NSaved= 8 IEnMin= 8 EnMin= -86.4814937165830     IErMin= 8 ErrMin= 5.97D-06
 ErrMax= 5.97D-06  0.00D+00 EMaxC= 1.00D-01 BMatC= 3.32D-09 BMatP= 3.85D-09
 IDIUse=1 WtCom= 1.00D+00 WtEn= 0.00D+00
 Coeff-Com:  0.656D+00-0.129D+01-0.187D-01 0.146D+00-0.952D+00 0.293D+01
 Coeff-Com: -0.549D+01 0.501D+01
 Coeff:      0.656D+00-0.129D+01-0.187D-01 0.146D+00-0.952D+00 0.293D+01
 Coeff:     -0.549D+01 0.501D+01
 Gap=    -0.012 Goal=   None    Shift=    0.400
 DSYEVD-2 returned Info=          75 IAlg= 4 N=    37 NDim=   248 NE2=    86069853 trying  DSYEV.
 RMSDP=2.67D-08 MaxDP=1.52D-06 DE=-1.28D-09 OVMax= 5.09D-06

 Cycle  37  Pass 1  IDiag  1:
 Density matrix breaks symmetry, PCut= 1.00D-07
 Density has only Abelian symmetry.
 E= -86.4814937176407     Delta-E=       -0.000000001058 Rises=F Damp=F
 DIIS: error= 5.31D-06 at cycle  37 NSaved=   9.
 NSaved= 9 IEnMin= 9 EnMin= -86.4814937176407     IErMin= 9 ErrMin= 5.31D-06
 ErrMax= 5.31D-06  0.00D+00 EMaxC= 1.00D-01 BMatC= 2.91D-09 BMatP= 3.32D-09
 IDIUse=1 WtCom= 1.00D+00 WtEn= 0.00D+00
 Coeff-Com:  0.947D+00-0.156D+01-0.260D-01 0.127D+00-0.963D+00 0.243D+01
 Coeff-Com: -0.252D+01-0.679D+00 0.324D+01
 Coeff:      0.947D+00-0.156D+01-0.260D-01 0.127D+00-0.963D+00 0.243D+01
 Coeff:     -0.252D+01-0.679D+00 0.324D+01
 Gap=    -0.012 Goal=   None    Shift=    0.400
 RMSDP=2.23D-08 MaxDP=1.37D-06 DE=-1.06D-09 OVMax= 4.44D-06

 Cycle  38  Pass 1  IDiag  1:
 Density matrix breaks symmetry, PCut= 1.00D-07
 Density has only Abelian symmetry.
 E= -86.4814937185448     Delta-E=       -0.000000000904 Rises=F Damp=F
 DIIS: error= 4.76D-06 at cycle  38 NSaved=  10.
 NSaved=10 IEnMin=10 EnMin= -86.4814937185448     IErMin=10 ErrMin= 4.76D-06
 ErrMax= 4.76D-06  0.00D+00 EMaxC= 1.00D-01 BMatC= 2.57D-09 BMatP= 2.91D-09
 IDIUse=1 WtCom= 1.00D+00 WtEn= 0.00D+00
 Large coefficients: NSaved= 10 BigCof=   10.91 CofMax=   10.00 Det=-5.74D-16
 Inversion failed.  Reducing to  9 matrices.
 Coeff-Com: -0.543D+00-0.109D-01 0.344D-01-0.859D+00 0.173D+01 0.374D+01
 Coeff-Com: -0.603D+01-0.220D+01 0.514D+01
 Coeff:     -0.543D+00-0.109D-01 0.344D-01-0.859D+00 0.173D+01 0.374D+01
 Coeff:     -0.603D+01-0.220D+01 0.514D+01
 Gap=    -0.012 Goal=   None    Shift=    0.400
 RMSDP=2.04D-08 MaxDP=1.61D-06 DE=-9.04D-10 OVMax= 4.00D-06

 Cycle  39  Pass 1  IDiag  1:
 Density matrix breaks symmetry, PCut= 1.00D-07
 Density has only Abelian symmetry.
 E= -86.4814937193333     Delta-E=       -0.000000000789 Rises=F Damp=F
 DIIS: error= 4.32D-06 at cycle  39 NSaved=  10.
 NSaved=10 IEnMin=10 EnMin= -86.4814937193333     IErMin=10 ErrMin= 4.32D-06
 ErrMax= 4.32D-06  0.00D+00 EMaxC= 1.00D-01 BMatC= 2.28D-09 BMatP= 2.57D-09
 IDIUse=1 WtCom= 1.00D+00 WtEn= 0.00D+00
 Coeff-Com: -0.561D+00-0.127D-01 0.383D-01-0.830D+00 0.189D+01 0.269D+01
 Coeff-Com: -0.509D+01-0.157D+01 0.499D+01-0.541D+00
 Coeff:     -0.561D+00-0.127D-01 0.383D-01-0.830D+00 0.189D+01 0.269D+01
 Coeff:     -0.509D+01-0.157D+01 0.499D+01-0.541D+00
 Gap=    -0.012 Goal=   None    Shift=    0.400
 RMSDP=1.85D-08 MaxDP=1.20D-06 DE=-7.89D-10 OVMax= 3.67D-06

 Cycle  40  Pass 1  IDiag  1:
 Density matrix breaks symmetry, PCut= 1.00D-07
 Density has only Abelian symmetry.
 E= -86.4814937200289     Delta-E=       -0.000000000696 Rises=F Damp=F
 DIIS: error= 3.96D-06 at cycle  40 NSaved=  11.
 NSaved=11 IEnMin=11 EnMin= -86.4814937200289     IErMin=11 ErrMin= 3.96D-06
 ErrMax= 3.96D-06  0.00D+00 EMaxC= 1.00D-01 BMatC= 2.04D-09 BMatP= 2.28D-09
 IDIUse=1 WtCom= 1.00D+00 WtEn= 0.00D+00
 Large coefficients: NSaved= 11 BigCof=   10.42 CofMax=   10.00 Det=-2.99D-16
 Inversion failed.  Reducing to 10 matrices.
 Large coefficients: NSaved= 10 BigCof=   35.63 CofMax=   10.00 Det=-3.07D-16
 Inversion failed.  Reducing to  9 matrices.
 Large coefficients: NSaved=  9 BigCof=   41.70 CofMax=   10.00 Det=-3.54D-16
 Inversion failed.  Reducing to  8 matrices.
 Large coefficients: NSaved=  8 BigCof=   45.68 CofMax=   10.00 Det=-6.74D-16
 Inversion failed.  Reducing to  7 matrices.
 Large coefficients: NSaved=  7 BigCof=   31.70 CofMax=   10.00 Det=-7.27D-16
 Inversion failed.  Reducing to  6 matrices.
 Large coefficients: NSaved=  6 BigCof=   22.49 CofMax=   10.00 Det=-1.09D-15
 Inversion failed.  Reducing to  5 matrices.
 Large coefficients: NSaved=  5 BigCof=   31.07 CofMax=   10.00 Det=-1.15D-15
 Inversion failed.  Reducing to  4 matrices.
 Large coefficients: NSaved=  4 BigCof=   82.14 CofMax=   10.00 Det=-4.46D-15
 Inversion failed.  Reducing to  3 matrices.
 Large coefficients: NSaved=  3 BigCof=  112.83 CofMax=   10.00 Det=-2.95D-14
 Inversion failed.  Reducing to  2 matrices.
 Large coefficients: NSaved=  2 BigCof=   15.35 CofMax=   10.00 Det=-8.39D-12
 Coeff-Com: -0.144D+02 0.154D+02
 Coeff:     -0.144D+02 0.154D+02
 Gap=    -0.012 Goal=   None    Shift=    0.400
 RMSDP=1.42D-07 MaxDP=6.36D-06 DE=-6.96D-10 OVMax= 1.45D-05

 Cycle  41  Pass 1  IDiag  1:
 Density matrix breaks symmetry, PCut= 1.00D-07
 Density has only Abelian symmetry.
 E= -86.4814937218704     Delta-E=       -0.000000001841 Rises=F Damp=F
 DIIS: error= 5.38D-06 at cycle  41 NSaved=   3.
 NSaved= 3 IEnMin= 3 EnMin= -86.4814937218704     IErMin= 2 ErrMin= 3.96D-06
 ErrMax= 5.38D-06  0.00D+00 EMaxC= 1.00D-01 BMatC= 1.73D-09 BMatP= 2.04D-09
 IDIUse=1 WtCom= 1.00D+00 WtEn= 0.00D+00
 Large coefficients: NSaved=  3 BigCof=   14.10 CofMax=   10.00 Det=-7.95D-12
 Inversion failed.  Reducing to  2 matrices.
 Coeff-Com: -0.120D+00 0.112D+01
 Coeff:     -0.120D+00 0.112D+01
 Gap=    -0.012 Goal=   None    Shift=    0.400
 RMSDP=2.04D-07 MaxDP=1.18D-05 DE=-1.84D-09 OVMax= 3.82D-05

 Cycle  42  Pass 1  IDiag  1:
 Density matrix breaks symmetry, PCut= 1.00D-07
 Density has only Abelian symmetry.
 E= -86.4814937255469     Delta-E=       -0.000000003676 Rises=F Damp=F
 DIIS: error= 2.84D-06 at cycle  42 NSaved=   3.
 NSaved= 3 IEnMin= 3 EnMin= -86.4814937255469     IErMin= 3 ErrMin= 2.84D-06
 ErrMax= 2.84D-06  0.00D+00 EMaxC= 1.00D-01 BMatC= 5.32D-10 BMatP= 1.73D-09
 IDIUse=1 WtCom= 1.00D+00 WtEn= 0.00D+00
 Coeff-Com: -0.103D+01 0.119D+01 0.841D+00
 Coeff:     -0.103D+01 0.119D+01 0.841D+00
 Gap=    -0.012 Goal=   None    Shift=    0.400
 RMSDP=6.99D-08 MaxDP=4.35D-06 DE=-3.68D-09 OVMax= 7.91D-06

 Cycle  43  Pass 1  IDiag  1:
 Density matrix breaks symmetry, PCut= 1.00D-07
 Density has only Abelian symmetry.
 E= -86.4814937257704     Delta-E=       -0.000000000223 Rises=F Damp=F
 DIIS: error= 9.46D-07 at cycle  43 NSaved=   4.
 NSaved= 4 IEnMin= 4 EnMin= -86.4814937257704     IErMin= 4 ErrMin= 9.46D-07
 ErrMax= 9.46D-07  0.00D+00 EMaxC= 1.00D-01 BMatC= 8.80D-11 BMatP= 5.32D-10
 IDIUse=1 WtCom= 1.00D+00 WtEn= 0.00D+00
 Coeff-Com: -0.583D+00 0.571D+00-0.182D-01 0.103D+01
 Coeff:     -0.583D+00 0.571D+00-0.182D-01 0.103D+01
 Gap=    -0.012 Goal=   None    Shift=    0.400
 RMSDP=2.64D-08 MaxDP=3.29D-06 DE=-2.23D-10 OVMax= 1.38D-06

 Cycle  44  Pass 1  IDiag  1:
 Density matrix breaks symmetry, PCut= 1.00D-07
 Density has only Abelian symmetry.
 E= -86.4814937258107     Delta-E=       -0.000000000040 Rises=F Damp=F
 DIIS: error= 5.52D-07 at cycle  44 NSaved=   5.
 NSaved= 5 IEnMin= 5 EnMin= -86.4814937258107     IErMin= 5 ErrMin= 5.52D-07
 ErrMax= 5.52D-07  0.00D+00 EMaxC= 1.00D-01 BMatC= 3.71D-11 BMatP= 8.80D-11
 IDIUse=1 WtCom= 1.00D+00 WtEn= 0.00D+00
 Coeff-Com: -0.375D+00 0.297D+00 0.147D+00-0.309D+00 0.124D+01
 Coeff:     -0.375D+00 0.297D+00 0.147D+00-0.309D+00 0.124D+01
 Gap=    -0.012 Goal=   None    Shift=    0.400
 RMSDP=1.14D-08 MaxDP=1.15D-06 DE=-4.04D-11 OVMax= 8.98D-07

 Cycle  45  Pass 1  IDiag  1:
 Density matrix breaks symmetry, PCut= 1.00D-07
 Density has only Abelian symmetry.
 E= -86.4814937258282     Delta-E=       -0.000000000017 Rises=F Damp=F
 DIIS: error= 4.82D-07 at cycle  45 NSaved=   6.
 NSaved= 6 IEnMin= 6 EnMin= -86.4814937258282     IErMin= 6 ErrMin= 4.82D-07
 ErrMax= 4.82D-07  0.00D+00 EMaxC= 1.00D-01 BMatC= 2.94D-11 BMatP= 3.71D-11
 IDIUse=1 WtCom= 1.00D+00 WtEn= 0.00D+00
 Coeff-Com: -0.289D+00 0.211D+00 0.426D-01 0.274D+00-0.143D+01 0.219D+01
 Coeff:     -0.289D+00 0.211D+00 0.426D-01 0.274D+00-0.143D+01 0.219D+01
 Gap=    -0.012 Goal=   None    Shift=    0.400
 RMSDP=9.28D-09 MaxDP=5.17D-07 DE=-1.75D-11 OVMax= 7.20D-07

 Density matrix breaks symmetry, PCut= 1.00D-07
 Density has only Abelian symmetry.
 SCF Done:  E(ROHF) =  -86.4814937258     A.U. after   45 cycles
            NFock= 45  Conv=0.93D-08     -V/T= 2.8317
 <Sx>= 0.0000 <Sy>= 0.0000 <Sz>= 3.0000 <S**2>=12.0000 S= 3.0000
 <L.S>=  0.00000000000    
 KE= 4.721276005399D+01 PE=-1.988934117778D+02 EE= 6.519915799794D+01
 Annihilation of the first spin contaminant:
 S**2 before annihilation    12.0000,   after    12.0000
 Leave Link  502 at Thu Apr  5 15:17:10 2018, MaxMem= 21474836480 cpu:            3951.2 elap:             128.5
 (Enter /home1/apps/gaussian/16rA.03/g16/l801.exe)
 Windowed orbitals will be sorted by symmetry type.
 Density matrix breaks symmetry, PCut= 1.00D-07
 Density has only Abelian symmetry.
 GenMOA:  NOpAll= 48 NOp2=8 NOpUse=  8 JSym2X=1
 FoFJK:  IHMeth= 1 ICntrl=       0 DoSepK=F KAlg= 0 I1Cent=           0 FoldK=F
 IRaf=         0 NMat=       1 IRICut=       1 DoRegI=T DoRafI=F ISym2E= 1 IDoP0=0 IntGTp=1.
 FoFCou: FMM=F IPFlag=           0 FMFlag=      100000 FMFlg1=           0
         NFxFlg=           0 DoJE=F BraDBF=F KetDBF=F FulRan=T
         wScrn=  0.000000 ICntrl=         0 IOpCl=  1 I1Cent=           0 NGrid=           0
         NMat0=    1 NMatS0=      1 NMatT0=    0 NMatD0=    1 NMtDS0=    0 NMtDT0=    0
 Petite list used in FoFCou.
 <Sx>= 0.0000 <Sy>= 0.0000 <Sz>= 3.0000 <S**2>=12.0000 S= 3.0000
 Range of M.O.s used for correlation:     1   248
 NBasis=   252 NAE=    10 NBE=     4 NFC=     0 NFV=     0
 NROrb=    248 NOA=    10 NOB=     4 NVA=   238 NVB=   244

 **** Warning!!: The largest alpha MO coefficient is  0.30349865D+03


 **** Warning!!: The largest beta MO coefficient is  0.30302371D+03

 Singles contribution to E2=   -0.3539502023D-03
 Leave Link  801 at Thu Apr  5 15:17:13 2018, MaxMem= 21474836480 cpu:              98.1 elap:               3.1
 (Enter /home1/apps/gaussian/16rA.03/g16/l804.exe)
 Open-shell transformation, MDV= 21474836480 ITran=4 ISComp=2.
 Unit  1 TFree=       1931476 TCopy=       1557321.
 Semi-Direct transformation.
 ModeAB=           2 MOrb=            10 LenV=   21472799039
 LASXX=      9445319 LTotXX=     9445319 LenRXX=     9445319
 LTotAB=     9606150 MaxLAS=   139574400 LenRXY=   139574400
 NonZer=   143398560 LenScr=   215942144 LnRSAI=           0
 LnScr1=           0 LExtra=     5334845 Total=    370296708
 MaxDsk= 13421772800 SrtSym=           F ITran=            4
 DoSDTr:  NPSUse= 32
 JobTyp=1 Pass  1:  I=   1 to  10.
 (rs|ai) integrals will be sorted in core.
 Complete sort for first half transformation.
 First half transformation complete.
 Begin second half transformation for I=  10.
 Begin second half transformation for I=  10.
 Complete sort for second half transformation.
 Second half transformation complete.
 ModeAB=           2 MOrb=             4 LenV=   21472799039
 LASXX=      3848534 LTotXX=     3848534 LenRXX=    55829760
 LTotAB=     3597473 MaxLAS=    55829760 LenRXY=     3597473
 NonZer=    57359424 LenScr=    86793216 LnRSAI=           0
 LnScr1=           0 LExtra=   154354564 Total=    300575013
 MaxDsk= 13421772800 SrtSym=           F ITran=            4
 DoSDTr:  NPSUse= 32
 JobTyp=2 Pass  1:  I=   1 to   4.
 (rs|ai) integrals will be sorted in core.
 Complete sort for first half transformation.
 First half transformation complete.
 Complete sort for second half transformation.
 Second half transformation complete.
 Spin components of T(2) and E(2):
     alpha-alpha T2 =       0.3678465991D-01 E2=     -0.1675642000D+00
     alpha-beta  T2 =       0.4059242221D-01 E2=     -0.3507834382D+00
     beta-beta   T2 =       0.6009930862D-02 E2=     -0.3718007080D-01
 ANorm=    0.1040900595D+01
 E2 =    -0.5558816592D+00 EUMP2 =    -0.87037375385068D+02
 (S**2,0)=  0.12000D+02           (S**2,1)=  0.12000D+02
 E(PUHF)=      -0.86481493726D+02        E(PMP2)=      -0.87037375385D+02
 Leave Link  804 at Thu Apr  5 15:18:26 2018, MaxMem= 21474836480 cpu:            2297.6 elap:              72.0
 (Enter /home1/apps/gaussian/16rA.03/g16/l913.exe)
 CIDS:  MDV= 21474836480.
 IFCWin=0 IBDFC=1 NFBD=     0     0 NFCmp=     0     0 NFFFC=     0     0
 Using original routines for 1st iteration.
 Using DD4UQ or CC4UQ for 2nd and later iterations.
 Keep R2 and R3 ints in memory in symmetry-blocked form, NReq=639966515.
 FoFCou: FMM=F IPFlag=           0 FMFlag=           0 FMFlg1=           0
         NFxFlg=           0 DoJE=F BraDBF=F KetDBF=F FulRan=T
         wScrn=  0.000000 ICntrl=       600 IOpCl=  0 I1Cent=           0 NGrid=           0
         NMat0=    1 NMatS0=  31878 NMatT0=    0 NMatD0=    1 NMtDS0=    0 NMtDT0=    0
 Petite list used in FoFCou.
 CIDS: In Core Option IDoMem=           1.
 CCSD(T)
 =======
 Iterations= 150 Convergence= 0.100D-06
 Produce multiple copies of IABC intergrals
 Iteration Nr.   1
 **********************
 DD1Dir will call FoFMem   1 times, MxPair=       132
 NAB=    40 NAA=    45 NBB=     6.
 DD1Dir will call FoFMem   1 times, MxPair=       132
 NAB=    40 NAA=    45 NBB=     6.
 MP4(R+Q)= -0.21584792D-02
 Maximum subspace dimension=  5
 A-vector RMS=  2.8021137D-05 Max=  9.5333809D-04 conv= 1.00D-05.
 RLE energy=       -0.5484076640
 E3=        0.97333365D-02        EROMP3=      -0.87027642049D+02
 E4(SDQ)=  -0.38057646D-02        ROMP4(SDQ)=  -0.87031447813D+02
 VARIATIONAL ENERGIES WITH THE FIRST-ORDER WAVEFUNCTION:
 DE(Corr)= -0.54830561     E(Corr)=     -87.029799331    
 NORM(A)=   0.10391493D+01
 Iteration Nr.   2
 **********************
 DD1Dir will call FoFMem   1 times, MxPair=       132
 NAB=    40 NAA=    45 NBB=     6.
 A-vector RMS=  1.5402126D-03 Max=  2.1564631D-02 conv= 1.00D-05.
 RLE energy=       -0.5458145775
 DE(Corr)= -0.53869044     E(CORR)=     -87.020184168     Delta= 9.62D-03
 NORM(A)=   0.10385164D+01
 Iteration Nr.   3
 **********************
 DD1Dir will call FoFMem   1 times, MxPair=       132
 NAB=    40 NAA=    45 NBB=     6.
 A-vector RMS=  1.1372566D-03 Max=  1.8603749D-02 conv= 1.00D-05.
 RLE energy=       -0.5480598883
 DE(Corr)= -0.54129966     E(CORR)=     -87.022793386     Delta=-2.61D-03
 NORM(A)=   0.10397963D+01
 Iteration Nr.   4
 **********************
 DD1Dir will call FoFMem   1 times, MxPair=       132
 NAB=    40 NAA=    45 NBB=     6.
 A-vector RMS=  8.5554733D-04 Max=  1.2626761D-02 conv= 1.00D-05.
 RLE energy=       -0.5488418627
 DE(Corr)= -0.54385317     E(CORR)=     -87.025346893     Delta=-2.55D-03
 NORM(A)=   0.10453897D+01
 Iteration Nr.   5
 **********************
 DD1Dir will call FoFMem   1 times, MxPair=       132
 NAB=    40 NAA=    45 NBB=     6.
 A-vector RMS=  3.9587827D-04 Max=  4.0774424D-03 conv= 1.00D-05.
 RLE energy=       -0.5488571700
 DE(Corr)= -0.55138281     E(CORR)=     -87.032876537     Delta=-7.53D-03
 NORM(A)=   0.10438509D+01
 Iteration Nr.   6
 **********************
 DD1Dir will call FoFMem   1 times, MxPair=       132
 NAB=    40 NAA=    45 NBB=     6.
 A-vector RMS=  4.2098689D-05 Max=  5.4281434D-04 conv= 1.00D-05.
 RLE energy=       -0.5488228825
 DE(Corr)= -0.54889724     E(CORR)=     -87.030390967     Delta= 2.49D-03
 NORM(A)=   0.10439279D+01
 Iteration Nr.   7
 **********************
 DD1Dir will call FoFMem   1 times, MxPair=       132
 NAB=    40 NAA=    45 NBB=     6.
 A-vector RMS=  6.6148598D-06 Max=  8.9056424D-05 conv= 1.00D-05.
 RLE energy=       -0.5488181159
 DE(Corr)= -0.54881693     E(CORR)=     -87.030310659     Delta= 8.03D-05
 NORM(A)=   0.10439517D+01
 Iteration Nr.   8
 **********************
 DD1Dir will call FoFMem   1 times, MxPair=       132
 NAB=    40 NAA=    45 NBB=     6.
 A-vector RMS=  5.9486615D-06 Max=  1.1068898D-04 conv= 1.00D-05.
 RLE energy=       -0.5488188883
 DE(Corr)= -0.54882148     E(CORR)=     -87.030315209     Delta=-4.55D-06
 NORM(A)=   0.10439561D+01
 Iteration Nr.   9
 **********************
 DD1Dir will call FoFMem   1 times, MxPair=       132
 NAB=    40 NAA=    45 NBB=     6.
 A-vector RMS=  1.9729578D-06 Max=  3.3828043D-05 conv= 1.00D-05.
 RLE energy=       -0.5488204183
 DE(Corr)= -0.54881906     E(CORR)=     -87.030312784     Delta= 2.42D-06
 NORM(A)=   0.10439600D+01
 Iteration Nr.  10
 **********************
 DD1Dir will call FoFMem   1 times, MxPair=       132
 NAB=    40 NAA=    45 NBB=     6.
 A-vector RMS=  9.7117076D-07 Max=  1.7447209D-05 conv= 1.00D-05.
 RLE energy=       -0.5488208329
 DE(Corr)= -0.54882004     E(CORR)=     -87.030313761     Delta=-9.77D-07
 NORM(A)=   0.10439581D+01
 Iteration Nr.  11
 **********************
 DD1Dir will call FoFMem   1 times, MxPair=       132
 NAB=    40 NAA=    45 NBB=     6.
 A-vector RMS=  2.5022657D-07 Max=  6.4560798D-06 conv= 1.00D-05.
 RLE energy=       -0.5488194257
 DE(Corr)= -0.54881947     E(CORR)=     -87.030313194     Delta= 5.67D-07
 NORM(A)=   0.10439567D+01
 Iteration Nr.  12
 **********************
 DD1Dir will call FoFMem   1 times, MxPair=       132
 NAB=    40 NAA=    45 NBB=     6.
 A-vector RMS=  5.9890245D-08 Max=  1.0084422D-06 conv= 1.00D-05.
 RLE energy=       -0.5488193022
 DE(Corr)= -0.54881933     E(CORR)=     -87.030313055     Delta= 1.39D-07
 NORM(A)=   0.10439565D+01
 Iteration Nr.  13
 **********************
 DD1Dir will call FoFMem   1 times, MxPair=       132
 NAB=    40 NAA=    45 NBB=     6.
 A-vector RMS=  2.5779941D-08 Max=  5.4181922D-07 conv= 1.00D-05.
 RLE energy=       -0.5488192749
 DE(Corr)= -0.54881928     E(CORR)=     -87.030313006     Delta= 4.91D-08
 NORM(A)=   0.10439564D+01
 CI/CC converged in   13 iterations to DelEn= 4.91D-08 Conv= 1.00D-07 ErrA1= 2.58D-08 Conv= 1.00D-05
 Wavefunction amplitudes converged. E(Corr)=     -87.030313006    
 Largest amplitude= 4.46D-02
 Time for triples=     5043.31 seconds.
 T4(CCSD)= -0.17793922D-01
 T5(CCSD)=  0.64499988D-03
 CCSD(T)= -0.87047461927D+02
 Discarding MO integrals.
 Leave Link  913 at Thu Apr  5 15:21:38 2018, MaxMem= 21474836480 cpu:            6090.9 elap:             192.0
 (Enter /home1/apps/gaussian/16rA.03/g16/l601.exe)
 Copying SCF densities to generalized density rwf, IOpCl= 0 IROHF=1.
 SCF density gives NOpUse=  8 NOpAll= 48.
 Marking SCF density as not fully symmetric.

 **********************************************************************

            Population analysis using the SCF density.

 **********************************************************************

 Orbital symmetries:
       Occupied  (A1G) (T1U) (T1U) (T1U) (A1G) (EG) (T2G) (T2G)
                 (T2G) (EG)
       Virtual   (T1U) (T1U) (T1U) (A1G) (EG) (T2G) (T2G) (T2G)
                 (EG) (T1U) (T1U) (T1U) (A1G) (EG) (T2G) (T2G)
                 (EG) (T2G) (T1U) (T1U) (T1U) (?A) (?A) (?A) (A2U)
                 (?A) (?A) (?A) (A1G) (T2G) (EG) (T2G) (T2G) (EG)
                 (T1U) (T1U) (T1U) (T2G) (?B) (?B) (?B) (T2G) (?B)
                 (?B) (?B) (T2G) (?A) (?A) (?A) (A2U) (?A) (?A)
                 (?A) (T2G) (EG) (T2G) (T2G) (EG) (A1G) (T1U) (T1U)
                 (T1U) (T2G) (EG) (T2G) (T2G) (EG) (?A) (?A) (?A)
                 (A2U) (?A) (?A) (?A) (T2G) (?B) (?B) (?B) (T2G)
                 (?B) (?B) (?B) (T2G) (?C) (?C) (?C) (EU) (?C)
                 (?C) (?C) (EU) (?C) (?C) (?C) (T1U) (T1U) (T1U)
                 (A1G) (T2G) (EG) (T2G) (T2G) (EG) (?A) (?A) (?A)
                 (?A) (A2U) (?A) (?A) (T1U) (T1U) (T1U) (T2G) (?B)
                 (?B) (?B) (T2G) (?B) (?B) (?B) (T2G) (?D) (?D)
                 (?D) (EU) (?D) (?D) (?D) (EU) (?D) (?D) (?D) (T2G)
                 (EG) (T2G) (T2G) (EG) (A1G) (T1U) (T1U) (T1U)
                 (?A) (?A) (?A) (A2U) (?A) (?A) (?A) (EG) (T2G)
                 (T2G) (EG) (T2G) (T2G) (?B) (?B) (?B) (T2G) (?B)
                 (?B) (T2G) (?B) (?E) (?E) (?E) (EU) (?E) (?E)
                 (?E) (EU) (?E) (?E) (?E) (A1G) (T1U) (T1U) (T1U)
                 (EG) (T2G) (T2G) (EG) (T2G) (EG) (T2G) (T2G) (EG)
                 (T2G) (T1U) (T1U) (T1U) (A1G) (T1U) (T1U) (T1U)
                 (EG) (T2G) (T2G) (EG) (T2G) (A1G) (A1G) (T1U)
                 (T1U) (T1U) (EG) (T2G) (T2G) (EG) (T2G) (A1G)
                 (T1U) (T1U) (T1U) (A1G) (T1U) (T1U) (T1U) (EG)
                 (T2G) (T2G) (EG) (T2G) (A1G) (T1U) (T1U) (T1U)
                 (A1G) (T1U) (T1U) (T1U) (A1G) (T1U) (T1U) (T1U)
                 (A1G) (A1G) (A1G)
 The electronic state is 7-A1G.
 Alpha  occ. eigenvalues --   -3.59186  -2.29268  -2.29268  -2.29268  -0.37403
 Alpha  occ. eigenvalues --   -0.37403  -0.37403  -0.37403  -0.37403  -0.22530
 Alpha virt. eigenvalues --    0.01741   0.01741   0.01741   0.02418   0.05522
 Alpha virt. eigenvalues --    0.05522   0.05522   0.05522   0.05522   0.06003
 Alpha virt. eigenvalues --    0.06003   0.06003   0.12725   0.17932   0.17932
 Alpha virt. eigenvalues --    0.17932   0.17932   0.17932   0.20115   0.20115
 Alpha virt. eigenvalues --    0.20115   0.40782   0.40782   0.40782   0.40782
 Alpha virt. eigenvalues --    0.40782   0.40782   0.40782   0.44369   0.49874
 Alpha virt. eigenvalues --    0.49874   0.49874   0.49874   0.49874   0.60368
 Alpha virt. eigenvalues --    0.60368   0.60368   1.18791   1.18791   1.18791
 Alpha virt. eigenvalues --    1.18791   1.18791   1.18791   1.18791   1.18791
 Alpha virt. eigenvalues --    1.18791   1.28128   1.28128   1.28128   1.28128
 Alpha virt. eigenvalues --    1.28128   1.28128   1.28128   1.28958   1.28958
 Alpha virt. eigenvalues --    1.28958   1.28958   1.28958   1.66508   1.70306
 Alpha virt. eigenvalues --    1.70306   1.70306   3.02942   3.02942   3.02942
 Alpha virt. eigenvalues --    3.02942   3.02942   3.47576   3.47576   3.47576
 Alpha virt. eigenvalues --    3.47576   3.47576   3.47576   3.47576   3.55127
 Alpha virt. eigenvalues --    3.55127   3.55127   3.55127   3.55127   3.55127
 Alpha virt. eigenvalues --    3.55127   3.55127   3.55127   3.59762   3.59762
 Alpha virt. eigenvalues --    3.59762   3.59762   3.59762   3.59762   3.59762
 Alpha virt. eigenvalues --    3.59762   3.59762   3.59762   3.59762   4.24594
 Alpha virt. eigenvalues --    4.24594   4.24594   5.13265   6.38826   6.38826
 Alpha virt. eigenvalues --    6.38826   6.38826   6.38826   8.63169   8.63169
 Alpha virt. eigenvalues --    8.63169   8.63169   8.63169   8.63169   8.63169
 Alpha virt. eigenvalues --    9.15651   9.15651   9.15651   9.49489   9.49489
 Alpha virt. eigenvalues --    9.49489   9.49489   9.49489   9.49489   9.49489
 Alpha virt. eigenvalues --    9.49489   9.49489  10.13037  10.13037  10.13037
 Alpha virt. eigenvalues --   10.13037  10.13037  10.13037  10.13037  10.13037
 Alpha virt. eigenvalues --   10.13037  10.13037  10.13037  12.17389  12.17389
 Alpha virt. eigenvalues --   12.17389  12.17389  12.17389  12.43206  17.96682
 Alpha virt. eigenvalues --   17.96682  17.96682  21.15142  21.15142  21.15142
 Alpha virt. eigenvalues --   21.15142  21.15142  21.15142  21.15142  21.58401
 Alpha virt. eigenvalues --   21.58401  21.58401  21.58401  21.58401  23.32376
 Alpha virt. eigenvalues --   23.32376  23.32376  23.32376  23.32376  23.32376
 Alpha virt. eigenvalues --   23.32376  23.32376  23.32376  26.53968  26.53968
 Alpha virt. eigenvalues --   26.53968  26.53968  26.53968  26.53968  26.53968
 Alpha virt. eigenvalues --   26.53968  26.53968  26.53968  26.53968  28.72123
 Alpha virt. eigenvalues --   34.55225  34.55225  34.55225  36.79842  36.79842
 Alpha virt. eigenvalues --   36.79842  36.79842  36.79842  64.35727  64.35727
 Alpha virt. eigenvalues --   64.35727  64.35727  64.35727  67.03671  67.03671
 Alpha virt. eigenvalues --   67.03671  67.09313 127.73614 127.73614 127.73614
 Alpha virt. eigenvalues --  131.07156 131.07156 131.07156 131.07156 131.07156
 Alpha virt. eigenvalues --  133.76641 238.30572 240.49384 240.49384 240.49384
 Alpha virt. eigenvalues --  340.12383 340.12383 340.12383 340.12383 340.12383
 Alpha virt. eigenvalues --  437.48621 458.05630 458.05630 458.05630 834.89314
 Alpha virt. eigenvalues --  900.11996 900.11996 900.119961145.922791145.92279
 Alpha virt. eigenvalues -- 1145.922791145.922791145.922791657.880681861.43001
 Alpha virt. eigenvalues -- 1861.430011861.430013441.723334146.569134146.56913
 Alpha virt. eigenvalues -- 4146.569137498.11953******************************
 Alpha virt. eigenvalues -- ******************************
     Molecular Orbital Coefficients:
                           1         2         3         4         5
                       (A1G)--O  (T1U)--O  (T1U)--O  (T1U)--O  (A1G)--O
     Eigenvalues --    -3.59186  -2.29268  -2.29268  -2.29268  -0.37403
   1 1   Cr 1S         -0.00000   0.00000   0.00000   0.00000   0.00000
   2        2S          0.00001   0.00000   0.00000   0.00000  -0.00000
   3        3S         -0.00003   0.00000   0.00000   0.00000   0.00001
   4        4S          0.00011   0.00000   0.00000   0.00000  -0.00002
   5        5S         -0.00034   0.00000   0.00000   0.00000   0.00008
   6        6S          0.00098   0.00000   0.00000   0.00000  -0.00022
   7        7S         -0.00271   0.00000   0.00000   0.00000   0.00060
   8        8S          0.00738   0.00000   0.00000   0.00000  -0.00164
   9        9S         -0.02253   0.00000   0.00000   0.00000   0.00512
  10       10S          0.10807   0.00000   0.00000   0.00000  -0.02572
  11       11S         -0.17778   0.00000   0.00000   0.00000   0.04509
  12       12S         -0.30895   0.00000   0.00000   0.00000   0.08379
  13       13S          0.41549   0.00000   0.00000   0.00000  -0.11693
  14       14S          0.80131   0.00000   0.00000   0.00000  -0.27691
  15       15S          0.27948   0.00000   0.00000   0.00000  -0.19004
  16       16S          0.01561   0.00000   0.00000   0.00000   0.29852
  17       17S         -0.00899   0.00000   0.00000   0.00000   0.58979
  18       18S          0.00423   0.00000   0.00000   0.00000   0.26296
  19       19S         -0.07759   0.00000   0.00000   0.00000   0.01120
  20       20S         -0.16957   0.00000   0.00000   0.00000   0.06140
  21       21S         -0.00112   0.00000   0.00000   0.00000   0.00016
  22       22PX         0.00000   0.00000   0.00000   0.00000   0.00000
  23       22PY         0.00000   0.00000   0.00000   0.00000   0.00000
  24       22PZ         0.00000   0.00000   0.00000   0.00000   0.00000
  25       23PX         0.00000   0.00000   0.00000  -0.00001   0.00000
  26       23PY         0.00000  -0.00001   0.00000   0.00000   0.00000
  27       23PZ         0.00000   0.00000  -0.00001   0.00000   0.00000
  28       24PX         0.00000   0.00000   0.00000   0.00003   0.00000
  29       24PY         0.00000   0.00003   0.00000   0.00000   0.00000
  30       24PZ         0.00000   0.00000   0.00003   0.00000   0.00000
  31       25PX         0.00000   0.00000   0.00000  -0.00011   0.00000
  32       25PY         0.00000  -0.00011   0.00000   0.00000   0.00000
  33       25PZ         0.00000   0.00000  -0.00011   0.00000   0.00000
  34       26PX         0.00000   0.00000   0.00000   0.00037   0.00000
  35       26PY         0.00000   0.00037   0.00000   0.00000   0.00000
  36       26PZ         0.00000   0.00000   0.00037   0.00000   0.00000
  37       27PX         0.00000   0.00000   0.00000  -0.00167   0.00000
  38       27PY         0.00000  -0.00167   0.00000   0.00000   0.00000
  39       27PZ         0.00000   0.00000  -0.00167   0.00000   0.00000
  40       28PX         0.00000   0.00000   0.00000   0.01502   0.00000
  41       28PY         0.00000   0.01502   0.00000   0.00000   0.00000
  42       28PZ         0.00000   0.00000   0.01502   0.00000   0.00000
  43       29PX         0.00000   0.00000   0.00000  -0.07052   0.00000
  44       29PY         0.00000  -0.07052   0.00000   0.00000   0.00000
  45       29PZ         0.00000   0.00000  -0.07052   0.00000   0.00000
  46       30PX         0.00000   0.00000   0.00000  -0.03458   0.00000
  47       30PY         0.00000  -0.03458   0.00000   0.00000   0.00000
  48       30PZ         0.00000   0.00000  -0.03458   0.00000   0.00000
  49       31PX         0.00000   0.00000   0.00000   0.20155   0.00000
  50       31PY         0.00000   0.20155   0.00000   0.00000   0.00000
  51       31PZ         0.00000   0.00000   0.20155   0.00000   0.00000
  52       32PX         0.00000   0.00000   0.00000   0.32903   0.00000
  53       32PY         0.00000   0.32903   0.00000   0.00000   0.00000
  54       32PZ         0.00000   0.00000   0.32903   0.00000   0.00000
  55       33PX         0.00000   0.00000   0.00000   0.37495   0.00000
  56       33PY         0.00000   0.37495   0.00000   0.00000   0.00000
  57       33PZ         0.00000   0.00000   0.37495   0.00000   0.00000
  58       34PX         0.00000   0.00000   0.00000   0.17544   0.00000
  59       34PY         0.00000   0.17544   0.00000   0.00000   0.00000
  60       34PZ         0.00000   0.00000   0.17544   0.00000   0.00000
  61       35PX         0.00000   0.00000   0.00000   0.02032   0.00000
  62       35PY         0.00000   0.02032   0.00000   0.00000   0.00000
  63       35PZ         0.00000   0.00000   0.02032   0.00000   0.00000
  64       36PX         0.00000   0.00000   0.00000  -0.00103   0.00000
  65       36PY         0.00000  -0.00103   0.00000   0.00000   0.00000
  66       36PZ         0.00000   0.00000  -0.00103   0.00000   0.00000
  67       37PX         0.00000   0.00000   0.00000   0.00073   0.00000
  68       37PY         0.00000   0.00073   0.00000   0.00000   0.00000
  69       37PZ         0.00000   0.00000   0.00073   0.00000   0.00000
  70       38PX         0.00000   0.00000   0.00000  -0.01756   0.00000
  71       38PY         0.00000  -0.01756   0.00000   0.00000   0.00000
  72       38PZ         0.00000   0.00000  -0.01756   0.00000   0.00000
[...]
  30       24PZ         0.00000   0.00000   0.00000  -0.00000
  31       25PX        -0.00000  -0.00000  -0.00000  -0.00000
  32       25PY        -0.00000  -0.00000  -0.00000   0.00000
  33       25PZ        -0.00000  -0.00000  -0.00000   0.00000
  34       26PX         0.00001   0.00001   0.00001   0.00000
  35       26PY         0.00001   0.00001   0.00001  -0.00000
  36       26PZ         0.00001   0.00001   0.00001  -0.00000
  37       27PX        -0.00014  -0.00007  -0.00007  -0.00000
  38       27PY        -0.00014  -0.00007  -0.00007   0.00000
  39       27PZ        -0.00014  -0.00007  -0.00007  -0.00000
  40       28PX         0.00325   0.00163   0.00163   0.00000
  41       28PY         0.00325   0.00163   0.00163  -0.00000
  42       28PZ         0.00325   0.00163   0.00163   0.00000
  43       29PX        -0.03483  -0.01742  -0.01742  -0.00000
  44       29PY        -0.03483  -0.01742  -0.01742   0.00000
  45       29PZ        -0.03483  -0.01742  -0.01742  -0.00000
  46       30PX        -0.03266  -0.01633  -0.01633  -0.00000
  47       30PY        -0.03266  -0.01633  -0.01633   0.00000
  48       30PZ        -0.03266  -0.01633  -0.01633  -0.00000
  49       31PX         0.30005   0.15003   0.15003   0.00000
  50       31PY         0.30005   0.15003   0.15003  -0.00000
  51       31PZ         0.30005   0.15003   0.15003   0.00000
  52       32PX         0.62500   0.31250   0.31250   0.00000
  53       32PY         0.62500   0.31250   0.31250  -0.00000
  54       32PZ         0.62500   0.31250   0.31250   0.00000
  55       33PX         0.72813   0.36406   0.36406   0.00000
  56       33PY         0.72813   0.36406   0.36406  -0.00000
  57       33PZ         0.72813   0.36406   0.36406   0.00000
  58       34PX         0.27734   0.13867   0.13867  -0.00000
  59       34PY         0.27734   0.13867   0.13867   0.00000
  60       34PZ         0.27734   0.13867   0.13867  -0.00000
  61       35PX         0.01844   0.00922   0.00922  -0.00000
  62       35PY         0.01844   0.00922   0.00922   0.00000
  63       35PZ         0.01844   0.00922   0.00922  -0.00000
  64       36PX        -0.00043  -0.00022  -0.00022   0.00000
  65       36PY        -0.00043  -0.00022  -0.00022  -0.00000
  66       36PZ        -0.00043  -0.00022  -0.00022   0.00000
  67       37PX         0.00012   0.00006   0.00006  -0.00000
  68       37PY         0.00012   0.00006   0.00006   0.00000
  69       37PZ         0.00012   0.00006   0.00006  -0.00000
  70       38PX        -0.01649  -0.00825  -0.00825   0.00000
  71       38PY        -0.01649  -0.00825  -0.00825  -0.00000
  72       38PZ        -0.01649  -0.00825  -0.00825   0.00000
  73       39PX         0.13222   0.06611   0.06611  -0.00000
  74       39PY         0.13222   0.06611   0.06611   0.00000
  75       39PZ         0.13222   0.06611   0.06611  -0.00000
  76       40PX        -0.00001  -0.00001  -0.00001   0.00000
  77       40PY        -0.00001  -0.00001  -0.00001  -0.00000
  78       40PZ        -0.00001  -0.00001  -0.00001   0.00000
  79       41D 0        0.00000   0.00000  -0.00000   0.00000
  80       41D+1        0.00000   0.00000  -0.00000   0.00000
  81       41D-1        0.00000   0.00000  -0.00000   0.00000
  82       41D+2        0.00000   0.00000  -0.00000   0.00000
  83       41D-2        0.00000   0.00000  -0.00000   0.00000
  84       42D 0       -0.00001  -0.00001  -0.00000  -0.00001
  85       42D+1       -0.00001  -0.00001  -0.00000  -0.00001
  86       42D-1       -0.00001  -0.00001  -0.00000  -0.00001
  87       42D+2       -0.00001  -0.00001  -0.00000  -0.00001
  88       42D-2       -0.00001  -0.00001  -0.00000  -0.00001
  89       43D 0        0.00175   0.00175  -0.00000   0.00175
  90       43D+1        0.00175   0.00175  -0.00000   0.00175
  91       43D-1        0.00175   0.00175  -0.00000   0.00175
  92       43D+2        0.00175   0.00175  -0.00000   0.00175
  93       43D-2        0.00175   0.00175  -0.00000   0.00175
  94       44D 0        0.01738   0.01738  -0.00000   0.01738
  95       44D+1        0.01738   0.01738  -0.00000   0.01738
  96       44D-1        0.01738   0.01738  -0.00000   0.01738
  97       44D+2        0.01738   0.01738  -0.00000   0.01738
  98       44D-2        0.01738   0.01738  -0.00000   0.01738
  99       45D 0        0.06162   0.06162  -0.00000   0.06162
 100       45D+1        0.06162   0.06162  -0.00000   0.06162
 101       45D-1        0.06162   0.06162  -0.00000   0.06162
 102       45D+2        0.06162   0.06162  -0.00000   0.06162
 103       45D-2        0.06162   0.06162  -0.00000   0.06162
 104       46D 0        0.13841   0.13841  -0.00000   0.13841
 105       46D+1        0.13841   0.13841  -0.00000   0.13841
 106       46D-1        0.13841   0.13841  -0.00000   0.13841
 107       46D+2        0.13841   0.13841  -0.00000   0.13841
 108       46D-2        0.13841   0.13841  -0.00000   0.13841
 109       47D 0        0.25255   0.25255  -0.00000   0.25255
 110       47D+1        0.25255   0.25255  -0.00000   0.25255
 111       47D-1        0.25255   0.25255  -0.00000   0.25255
 112       47D+2        0.25255   0.25255  -0.00000   0.25255
 113       47D-2        0.25255   0.25255  -0.00000   0.25255
 114       48D 0        0.26152   0.26152   0.00000   0.26152
 115       48D+1        0.26152   0.26152   0.00000   0.26152
 116       48D-1        0.26152   0.26152   0.00000   0.26152
 117       48D+2        0.26152   0.26152   0.00000   0.26152
 118       48D-2        0.26152   0.26152   0.00000   0.26152
 119       49D 0        0.16490   0.16490   0.00000   0.16490
 120       49D+1        0.16490   0.16490   0.00000   0.16490
 121       49D-1        0.16490   0.16490   0.00000   0.16490
 122       49D+2        0.16490   0.16490   0.00000   0.16490
 123       49D-2        0.16490   0.16490   0.00000   0.16490
 124       50D 0        0.05210   0.05210   0.00000   0.05210
 125       50D+1        0.05210   0.05210   0.00000   0.05210
 126       50D-1        0.05210   0.05210   0.00000   0.05210
 127       50D+2        0.05210   0.05210   0.00000   0.05210
 128       50D-2        0.05210   0.05210   0.00000   0.05210
 129       51D 0        0.00317   0.00317   0.00000   0.00317
 130       51D+1        0.00317   0.00317   0.00000   0.00317
 131       51D-1        0.00317   0.00317   0.00000   0.00317
 132       51D+2        0.00317   0.00317   0.00000   0.00317
 133       51D-2        0.00317   0.00317   0.00000   0.00317
 134       52D 0        0.02200   0.02200   0.00000   0.02200
 135       52D+1        0.02200   0.02200   0.00000   0.02200
 136       52D-1        0.02200   0.02200   0.00000   0.02200
 137       52D+2        0.02200   0.02200   0.00000   0.02200
 138       52D-2        0.02200   0.02200   0.00000   0.02200
 139       53D 0        0.02464   0.02464   0.00000   0.02464
 140       53D+1        0.02464   0.02464   0.00000   0.02464
 141       53D-1        0.02464   0.02464   0.00000   0.02464
 142       53D+2        0.02464   0.02464   0.00000   0.02464
 143       53D-2        0.02464   0.02464   0.00000   0.02464
 144       54D 0       -0.00003  -0.00003  -0.00000  -0.00003
 145       54D+1       -0.00003  -0.00003  -0.00000  -0.00003
 146       54D-1       -0.00003  -0.00003  -0.00000  -0.00003
 147       54D+2       -0.00003  -0.00003  -0.00000  -0.00003
 148       54D-2       -0.00003  -0.00003  -0.00000  -0.00003
 149       55F 0        0.00000   0.00000   0.00000  -0.00000
 150       55F+1        0.00000   0.00000   0.00000  -0.00000
 151       55F-1        0.00000   0.00000   0.00000  -0.00000
 152       55F+2        0.00000   0.00000   0.00000   0.00000
 153       55F-2        0.00000   0.00000   0.00000  -0.00000
 154       55F+3        0.00000   0.00000   0.00000   0.00000
 155       55F-3        0.00000   0.00000   0.00000   0.00000
 156       56F 0        0.00000   0.00000   0.00000  -0.00000
 157       56F+1        0.00000   0.00000   0.00000  -0.00000
 158       56F-1        0.00000   0.00000   0.00000  -0.00000
 159       56F+2        0.00000   0.00000   0.00000   0.00000
 160       56F-2        0.00000   0.00000   0.00000  -0.00000
 161       56F+3        0.00000   0.00000   0.00000   0.00000
 162       56F-3        0.00000   0.00000   0.00000   0.00000
 163       57F 0        0.00000   0.00000   0.00000  -0.00000
 164       57F+1        0.00000   0.00000   0.00000  -0.00000
 165       57F-1        0.00000   0.00000   0.00000  -0.00000
 166       57F+2        0.00000   0.00000   0.00000   0.00000
 167       57F-2        0.00000   0.00000   0.00000  -0.00000
 168       57F+3        0.00000   0.00000   0.00000   0.00000
 169       57F-3        0.00000   0.00000   0.00000   0.00000
 170       58F 0       -0.00000  -0.00000  -0.00000   0.00000
 171       58F+1       -0.00000   0.00000  -0.00000   0.00000
 172       58F-1       -0.00000  -0.00000  -0.00000   0.00000
 173       58F+2       -0.00000  -0.00000  -0.00000  -0.00000
 174       58F-2       -0.00000  -0.00000  -0.00000   0.00000
 175       58F+3       -0.00000  -0.00000  -0.00000  -0.00000
 176       58F-3       -0.00000  -0.00000  -0.00000  -0.00000
 177       59F 0        0.00000   0.00000   0.00000  -0.00000
 178       59F+1        0.00000  -0.00000   0.00000  -0.00000
 179       59F-1        0.00000   0.00000   0.00000  -0.00000
 180       59F+2        0.00000   0.00000   0.00000   0.00000
 181       59F-2        0.00000   0.00000   0.00000  -0.00000
 182       59F+3        0.00000   0.00000   0.00000   0.00000
 183       59F-3        0.00000   0.00000   0.00000   0.00000
 184       60G 0        0.00000   0.00000   0.00000   0.00000
 185       60G+1        0.00000   0.00000   0.00000   0.00000
 186       60G-1        0.00000   0.00000   0.00000   0.00000
 187       60G+2        0.00000   0.00000   0.00000   0.00000
 188       60G-2        0.00000   0.00000   0.00000   0.00000
 189       60G+3        0.00000   0.00000   0.00000   0.00000
 190       60G-3        0.00000   0.00000   0.00000   0.00000
 191       60G+4        0.00000   0.00000   0.00000   0.00000
 192       60G-4        0.00000   0.00000   0.00000   0.00000
 193       61G 0        0.00000   0.00000   0.00000   0.00000
 194       61G+1        0.00000   0.00000   0.00000   0.00000
 195       61G-1        0.00000   0.00000   0.00000   0.00000
 196       61G+2        0.00000   0.00000   0.00000   0.00000
 197       61G-2        0.00000   0.00000   0.00000   0.00000
 198       61G+3        0.00000   0.00000   0.00000   0.00000
 199       61G-3        0.00000   0.00000   0.00000   0.00000
 200       61G+4        0.00000   0.00000   0.00000   0.00000
 201       61G-4        0.00000   0.00000   0.00000   0.00000
 202       62G 0        0.00000   0.00000   0.00000   0.00000
 203       62G+1        0.00000   0.00000   0.00000   0.00000
 204       62G-1        0.00000   0.00000   0.00000   0.00000
 205       62G+2        0.00000   0.00000   0.00000   0.00000
 206       62G-2        0.00000   0.00000   0.00000   0.00000
 207       62G+3        0.00000   0.00000   0.00000   0.00000
 208       62G-3        0.00000   0.00000   0.00000   0.00000
 209       62G+4        0.00000   0.00000   0.00000   0.00000
 210       62G-4        0.00000   0.00000   0.00000   0.00000
 211       63G 0        0.00000   0.00000   0.00000   0.00000
 212       63G+1       -0.00000  -0.00000   0.00000  -0.00000
 213       63G-1        0.00000   0.00000   0.00000   0.00000
 214       63G+2        0.00000   0.00000   0.00000   0.00000
 215       63G-2        0.00000   0.00000   0.00000   0.00000
 216       63G+3        0.00000   0.00000   0.00000   0.00000
 217       63G-3        0.00000   0.00000   0.00000   0.00000
 218       63G+4        0.00000   0.00000   0.00000   0.00000
 219       63G-4        0.00000   0.00000   0.00000   0.00000
 220       64H 0        0.00000   0.00000   0.00000  -0.00000
 221       64H+1        0.00000   0.00000   0.00000  -0.00000
 222       64H-1        0.00000   0.00000   0.00000   0.00000
 223       64H+2        0.00000   0.00000   0.00000   0.00000
 224       64H-2        0.00000   0.00000   0.00000  -0.00000
 225       64H+3        0.00000   0.00000   0.00000   0.00000
 226       64H-3        0.00000   0.00000   0.00000   0.00000
 227       64H+4        0.00000  -0.00000   0.00000  -0.00000
 228       64H-4        0.00000   0.00000   0.00000  -0.00000
 229       64H+5        0.00000  -0.00000   0.00000  -0.00000
 230       64H-5        0.00000  -0.00000   0.00000  -0.00000
 231       65H 0        0.00000  -0.00000   0.00000  -0.00000
 232       65H+1        0.00000   0.00000   0.00000  -0.00000
 233       65H-1        0.00000   0.00000   0.00000  -0.00000
 234       65H+2        0.00000   0.00000   0.00000   0.00000
 235       65H-2        0.00000   0.00000   0.00000  -0.00000
 236       65H+3        0.00000   0.00000   0.00000   0.00000
 237       65H-3        0.00000   0.00000   0.00000   0.00000
 238       65H+4        0.00000   0.00000   0.00000  -0.00000
 239       65H-4        0.00000   0.00000   0.00000  -0.00000
 240       65H+5        0.00000   0.00000   0.00000  -0.00000
 241       65H-5        0.00000   0.00000   0.00000  -0.00000
 242       66H 0        0.00000   0.00000   0.00000  -0.00000
 243       66H+1        0.00000   0.00000   0.00000  -0.00000
 244       66H-1        0.00000   0.00000   0.00000  -0.00000
 245       66H+2        0.00000   0.00000   0.00000   0.00000
 246       66H-2        0.00000   0.00000   0.00000  -0.00000
 247       66H+3        0.00000   0.00000   0.00000   0.00000
 248       66H-3        0.00000   0.00000   0.00000   0.00000
 249       66H+4        0.00000   0.00000   0.00000  -0.00000
 250       66H-4        0.00000   0.00000   0.00000  -0.00000
 251       66H+5        0.00000   0.00000   0.00000  -0.00000
 252       66H-5        0.00000   0.00000   0.00000  -0.00000
          Condensed to atoms (all electrons):
               1
     1  Cr  14.000000
          Atomic-Atomic Spin Densities.
               1
     1  Cr   6.000000
 Mulliken charges and spin densities:
               1          2
     1  Cr  -0.000000   6.000000
 Sum of Mulliken charges =  -0.00000   6.00000
 Mulliken charges and spin densities with hydrogens summed into heavy atoms:
               1          2
     1  Cr  -0.000000   6.000000
 Electronic spatial extent (au):  <R**2>=             36.3173
 Charge=             -0.0000 electrons
 Dipole moment (field-independent basis, Debye):
    X=              0.0000    Y=              0.0000    Z=              0.0000  Tot=              0.0000
 Quadrupole moment (field-independent basis, Debye-Ang):
   XX=            -16.2827   YY=            -16.2827   ZZ=            -16.2827
   XY=              0.0000   XZ=             -0.0000   YZ=             -0.0000
 Traceless Quadrupole moment (field-independent basis, Debye-Ang):
   XX=              0.0000   YY=             -0.0000   ZZ=              0.0000
   XY=              0.0000   XZ=             -0.0000   YZ=             -0.0000
 Octapole moment (field-independent basis, Debye-Ang**2):
  XXX=              0.0000  YYY=              0.0000  ZZZ=              0.0000  XYY=              0.0000
  XXY=              0.0000  XXZ=              0.0000  XZZ=              0.0000  YZZ=              0.0000
  YYZ=              0.0000  XYZ=              0.0000
 Hexadecapole moment (field-independent basis, Debye-Ang**3):
 XXXX=            -38.4898 YYYY=            -38.4897 ZZZZ=            -38.4898 XXXY=             -0.0000
 XXXZ=              0.0000 YYYX=             -0.0000 YYYZ=              0.0000 ZZZX=              0.0000
 ZZZY=              0.0000 XXYY=            -12.8299 XXZZ=            -12.8299 YYZZ=            -12.8299
 XXYZ=              0.0000 YYXZ=              0.0000 ZZXY=             -0.0000
 N-N= 0.000000000000D+00 E-N=-1.988934155550D+02  KE= 4.721276005399D+01
 Symmetry AG   KE= 1.398226946790D+01
 Symmetry B1G  KE= 4.990646012543D+00
 Symmetry B2G  KE= 4.990646177708D+00
 Symmetry B3G  KE= 4.990645968177D+00
 Symmetry AU   KE= 5.381292256548D-50
 Symmetry B1U  KE= 6.086184144156D+00
 Symmetry B2U  KE= 6.086184137782D+00
 Symmetry B3U  KE= 6.086184146404D+00
 Symmetry AG   SP= 3.000000000000D+00
 Symmetry B1G  SP= 1.000000000000D+00
 Symmetry B2G  SP= 1.000000000000D+00
 Symmetry B3G  SP= 1.000000000000D+00
 Symmetry AU   SP=-2.981678613060D-51
 Symmetry B1U  SP=-1.413068884221D-14
 Symmetry B2U  SP= 9.112877918152D-15
 Symmetry B3U  SP= 2.827238964715D-15
 Orbital energies and kinetic energies (alpha):
                                 1                 2
   1         (A1G)--O         -3.591859          1.863543
   2         (T1U)--O         -2.292681          3.043092
   3         (T1U)--O         -2.292681          3.043092
   4         (T1U)--O         -2.292681          3.043092
   5         (A1G)--O         -0.374027          0.273892
   6         (EG)--O          -0.374027          4.990646
   7         (T2G)--O         -0.374027          4.990646
   8         (T2G)--O         -0.374027          4.990646
   9         (T2G)--O         -0.374027          4.990646
  10         (EG)--O          -0.225297          4.990646
  11         (T1U)--V          0.017408          0.035271
  12         (T1U)--V          0.017408          0.035271
  13         (T1U)--V          0.017408          0.035271
  14         (A1G)--V          0.024185          0.035936
  15         (EG)--V           0.055220          0.062648
 Total kinetic energy from orbitals= 7.243988232612D+01
                          Isotropic Fermi Contact Couplings
        Atom                 a.u.       MegaHertz       Gauss      10(-4) cm-1
     1  Cr(53)             0.00006      -0.00240      -0.00086      -0.00080
 --------------------------------------------------------
       Center         ----  Spin Dipole Couplings  ----
                      3XX-RR        3YY-RR        3ZZ-RR
 --------------------------------------------------------
     1   Atom        0.000000     -0.000001      0.000000
 --------------------------------------------------------
                        XY            XZ            YZ
 --------------------------------------------------------
     1   Atom        0.000000      0.000000      0.000000
 --------------------------------------------------------


 ---------------------------------------------------------------------------------
              Anisotropic Spin Dipole Couplings in Principal Axis System
 ---------------------------------------------------------------------------------

       Atom             a.u.   MegaHertz   Gauss  10(-4) cm-1        Axes

              Baa    -0.0000     0.000     0.000     0.000 -0.0000  1.0000  0.0000
     1 Cr(53) Bbb     0.0000    -0.000    -0.000    -0.000  0.0000  0.0000  1.0000
              Bcc     0.0000    -0.000    -0.000    -0.000  1.0000  0.0000  0.0000
 

 ---------------------------------------------------------------------------------

 No NMR shielding tensors so no spin-rotation constants.
 Leave Link  601 at Thu Apr  5 15:21:40 2018, MaxMem= 21474836480 cpu:              34.8 elap:               1.1
 (Enter /home1/apps/gaussian/16rA.03/g16/l9999.exe)

 Test job not archived.
 1\1\GINC-C506-074\SP\ROCCSD(T)-Full\Gen\Cr1(7)\AANNABE\05-Apr-2018\0\\
 #P ROCCSD(T)=(maxcyc=150, Full)/Gen 5d 7f SCF=(maxcycles=300, NoVarAcc
 , VShift=400) MaxDisk=100GB Pop=Regular Pseudo=Read Guess=Read IOp(5/1
 5=2)\\Cr\\0,7\Cr,0,0.,0.,0.\\Version=ES64L-G16RevA.03\State=7-A1G\HF=-
 86.4814937\MP2=-87.0373754\MP3=-87.027642\PUHF=-86.4814937\PMP2-0=-87.
 0373754\MP4SDQ=-87.0314478\CCSD=-87.030313\CCSD(T)=-87.0474619\RMSD=9.
 277e-09\PG=OH [O(Cr1)]\\@


 We find comfort among those who agree with us -- growth among those who don't.
 -- Frank A. Clark
 Job cpu time:       0 days  3 hours 28 minutes 42.0 seconds.
 Elapsed time:       0 days  0 hours  6 minutes 38.5 seconds.
 File lengths (MBytes):  RWF=   2830 Int=      0 D2E=      0 Chk=      8 Scr=      1
 Normal termination of Gaussian 16 at Thu Apr  5 15:21:40 2018.
