 Entering Gaussian System, Link 0=g16
 Initial command:
 /home1/apps/gaussian/16rA.03/g16/l1.exe "/tmp/Gau-243443.inp" -scrdir="/tmp/"
 Entering Link 1 = /home1/apps/gaussian/16rA.03/g16/l1.exe PID=    243444.
  
 Copyright (c) 1988,1990,1992,1993,1995,1998,2003,2009,2016,
            Gaussian, Inc.  All Rights Reserved.
  
 This is part of the Gaussian(R) 16 program.  It is based on
 the Gaussian(R) 09 system (copyright 2009, Gaussian, Inc.),
 the Gaussian(R) 03 system (copyright 2003, Gaussian, Inc.),
 the Gaussian(R) 98 system (copyright 1998, Gaussian, Inc.),
 the Gaussian(R) 94 system (copyright 1995, Gaussian, Inc.),
 the Gaussian 92(TM) system (copyright 1992, Gaussian, Inc.),
 the Gaussian 90(TM) system (copyright 1990, Gaussian, Inc.),
 the Gaussian 88(TM) system (copyright 1988, Gaussian, Inc.),
 the Gaussian 86(TM) system (copyright 1986, Carnegie Mellon
 University), and the Gaussian 82(TM) system (copyright 1983,
 Carnegie Mellon University). Gaussian is a federally registered
 trademark of Gaussian, Inc.
  
 This software contains proprietary and confidential information,
 including trade secrets, belonging to Gaussian, Inc.
  
 This software is provided under written license and may be
 used, copied, transmitted, or stored only in accord with that
 written license.
  
 The following legend is applicable only to US Government
 contracts under FAR:
  
                    RESTRICTED RIGHTS LEGEND
  
 Use, reproduction and disclosure by the US Government is
 subject to restrictions as set forth in subparagraphs (a)
 and (c) of the Commercial Computer Software - Restricted
 Rights clause in FAR 52.227-19.
  
 Gaussian, Inc.
 340 Quinnipiac St., Bldg. 40, Wallingford CT 06492
  
  
 ---------------------------------------------------------------
 Warning -- This program may not be used in any manner that
 competes with the business of Gaussian, Inc. or will provide
 assistance to any competitor of Gaussian, Inc.  The licensee
 of this program is prohibited from giving any competitor of
 Gaussian, Inc. access to this program.  By using this program,
 the user acknowledges that Gaussian, Inc. is engaged in the
 business of creating and licensing software in the field of
 computational chemistry and represents and warrants to the
 licensee that it is not a competitor of Gaussian, Inc. and that
 it will not use this program in any manner prohibited above.
 ---------------------------------------------------------------
  

 Cite this work as:
 Gaussian 16, Revision A.03,
 M. J. Frisch, G. W. Trucks, H. B. Schlegel, G. E. Scuseria, 
 M. A. Robb, J. R. Cheeseman, G. Scalmani, V. Barone, 
 G. A. Petersson, H. Nakatsuji, X. Li, M. Caricato, A. V. Marenich, 
 J. Bloino, B. G. Janesko, R. Gomperts, B. Mennucci, H. P. Hratchian, 
 J. V. Ortiz, A. F. Izmaylov, J. L. Sonnenberg, D. Williams-Young, 
 F. Ding, F. Lipparini, F. Egidi, J. Goings, B. Peng, A. Petrone, 
 T. Henderson, D. Ranasinghe, V. G. Zakrzewski, J. Gao, N. Rega, 
 G. Zheng, W. Liang, M. Hada, M. Ehara, K. Toyota, R. Fukuda, 
 J. Hasegawa, M. Ishida, T. Nakajima, Y. Honda, O. Kitao, H. Nakai, 
 T. Vreven, K. Throssell, J. A. Montgomery, Jr., J. E. Peralta, 
 F. Ogliaro, M. J. Bearpark, J. J. Heyd, E. N. Brothers, K. N. Kudin, 
 V. N. Staroverov, T. A. Keith, R. Kobayashi, J. Normand, 
 K. Raghavachari, A. P. Rendell, J. C. Burant, S. S. Iyengar, 
 J. Tomasi, M. Cossi, J. M. Millam, M. Klene, C. Adamo, R. Cammi, 
 J. W. Ochterski, R. L. Martin, K. Morokuma, O. Farkas, 
 J. B. Foresman, and D. J. Fox, Gaussian, Inc., Wallingford CT, 2016.
 
 ******************************************
 Gaussian 16:  ES64L-G16RevA.03 25-Dec-2016
                 9-Mar-2018 
 ******************************************
 %MEM=80GB
 %CPU=0-15
 SetSPE:  set environment variable "MP_BIND" = "yes"
 SetSPE:  set environment variable "MP_BLIST" = "0,1,2,3,4,5,6,7,8,9,10,11,12,13,14,15"
 Will use up to   16 processors via shared memory.
 %RWF=/scratch/04843/aannabe/gaussian/
 %Int=/scratch/04843/aannabe/gaussian/
 %D2E=/scratch/04843/aannabe/gaussian/
 %NoSave
 %CHK=TiO
 ----------------------------------------------------------------------
 #P ROCCSD(T)=(maxcyc=150, Full, SaveAmplitudes, ReadAmplitudes)/Gen 5d
  7f SCF=(maxcycles=300) Integral(NoXCTest) MaxDisk=500GB Pop=Regular P
 seudo=Read Guess=Read IOp(5/15=2)
 ----------------------------------------------------------------------
 1/38=1,172=1/1;
 2/12=2,17=6,18=5,40=1/2;
 3/5=7,8=11,11=2,16=1,17=8,25=1,30=1,47=8,116=101/1,2,3;
 4/5=1/1;
 5/5=2,7=300,15=2,38=6/2;
 8/5=-1,6=4,9=120000,10=90,24=1/1,4;
 9/5=7,6=150,14=2,77=1/13;
 6//1;
 99/5=1,9=1/99;
 Leave Link    1 at Fri Mar  9 15:21:32 2018, MaxMem= 10737418240 cpu:               4.7 elap:               0.3
 (Enter /home1/apps/gaussian/16rA.03/g16/l101.exe)
 ---
 TiO
 ---
 Symbolic Z-matrix:
 Charge =  0 Multiplicity = 3
 Ti                    0.        0.        0. 
 O                     0.        0.        1.2 
 
 ITRead=  0  0
 MicOpt= -1 -1
 NAtoms=      2 NQM=        2 NQMF=       0 NMMI=      0 NMMIF=      0
                NMic=       0 NMicF=      0.
                    Isotopes and Nuclear Properties:
 (Nuclear quadrupole moments (NQMom) in fm**2, nuclear magnetic moments (NMagM)
  in nuclear magnetons)

  Atom         1           2
 IAtWgt=          48          16
 AtmWgt=  47.9479467  15.9949146
 NucSpn=           0           0
 AtZEff=  -0.0000000  -0.0000000
 NQMom=    0.0000000   0.0000000
 NMagM=    0.0000000   0.0000000
 AtZNuc=  22.0000000   8.0000000
 Leave Link  101 at Fri Mar  9 15:21:33 2018, MaxMem= 10737418240 cpu:               1.7 elap:               0.1
 (Enter /home1/apps/gaussian/16rA.03/g16/l202.exe)
                          Input orientation:                          
 ---------------------------------------------------------------------
 Center     Atomic      Atomic             Coordinates (Angstroms)
 Number     Number       Type             X           Y           Z
 ---------------------------------------------------------------------
      1         22           0        0.000000    0.000000    0.000000
      2          8           0        0.000000    0.000000    1.200000
 ---------------------------------------------------------------------
 Stoichiometry    OTi(3)
 Framework group  C*V[C*(OTi)]
 Deg. of freedom     1
 Full point group                 C*V     NOp   4
 Largest Abelian subgroup         C2V     NOp   4
 Largest concise Abelian subgroup C1      NOp   1
                         Standard orientation:                         
 ---------------------------------------------------------------------
 Center     Atomic      Atomic             Coordinates (Angstroms)
 Number     Number       Type             X           Y           Z
 ---------------------------------------------------------------------
      1         22           0        0.000000    0.000000    0.320000
      2          8           0        0.000000    0.000000   -0.880000
 ---------------------------------------------------------------------
 Rotational constants (GHZ):           0.0000000          29.2613820          29.2613820
 Leave Link  202 at Fri Mar  9 15:21:34 2018, MaxMem= 10737418240 cpu:               0.4 elap:               0.1
 (Enter /home1/apps/gaussian/16rA.03/g16/l301.exe)
 General basis read from cards:  (5D, 7F)
 Centers:       1
 S 1 1.00
     Exponent=  3.0146430000D+06 Coefficients=  1.0000000000D+00
 S 1 1.00
     Exponent=  4.5143290000D+05 Coefficients=  1.0000000000D+00
 S 1 1.00
     Exponent=  1.0273380000D+05 Coefficients=  1.0000000000D+00
 S 1 1.00
     Exponent=  2.9098170000D+04 Coefficients=  1.0000000000D+00
 S 1 1.00
     Exponent=  9.4923300000D+03 Coefficients=  1.0000000000D+00
 S 1 1.00
     Exponent=  3.4263460000D+03 Coefficients=  1.0000000000D+00
 S 1 1.00
     Exponent=  1.3358960000D+03 Coefficients=  1.0000000000D+00
 S 1 1.00
     Exponent=  5.5350260000D+02 Coefficients=  1.0000000000D+00
 S 1 1.00
     Exponent=  2.4069250000D+02 Coefficients=  1.0000000000D+00
 S 1 1.00
     Exponent=  1.0872930000D+02 Coefficients=  1.0000000000D+00
 S 1 1.00
     Exponent=  5.0264570000D+01 Coefficients=  1.0000000000D+00
 S 1 1.00
     Exponent=  2.2580040000D+01 Coefficients=  1.0000000000D+00
 S 1 1.00
     Exponent=  1.0714320000D+01 Coefficients=  1.0000000000D+00
 S 1 1.00
     Exponent=  5.0935460000D+00 Coefficients=  1.0000000000D+00
 S 1 1.00
     Exponent=  2.2441830000D+00 Coefficients=  1.0000000000D+00
 S 1 1.00
     Exponent=  1.0595700000D+00 Coefficients=  1.0000000000D+00
 S 1 1.00
     Exponent=  4.6884900000D-01 Coefficients=  1.0000000000D+00
 S 1 1.00
     Exponent=  1.0614300000D-01 Coefficients=  1.0000000000D+00
 S 1 1.00
     Exponent=  5.5262000000D-02 Coefficients=  1.0000000000D+00
 S 1 1.00
     Exponent=  2.5465000000D-02 Coefficients=  1.0000000000D+00
 S 1 1.00
     Exponent=  2.9691000000D+00 Coefficients=  1.0000000000D+00
 S 1 1.00
     Exponent=  7.1050000000D-01 Coefficients=  1.0000000000D+00
 S 1 1.00
     Exponent=  1.1730000000D-02 Coefficients=  1.0000000000D+00
 P 1 1.00
     Exponent=  1.1912030000D+04 Coefficients=  1.0000000000D+00
 P 1 1.00
     Exponent=  2.8199470000D+03 Coefficients=  1.0000000000D+00
 P 1 1.00
     Exponent=  9.1594790000D+02 Coefficients=  1.0000000000D+00
 P 1 1.00
     Exponent=  3.5038420000D+02 Coefficients=  1.0000000000D+00
 P 1 1.00
     Exponent=  1.4848250000D+02 Coefficients=  1.0000000000D+00
 P 1 1.00
     Exponent=  6.7539440000D+01 Coefficients=  1.0000000000D+00
 P 1 1.00
     Exponent=  3.2303320000D+01 Coefficients=  1.0000000000D+00
 P 1 1.00
     Exponent=  1.5927860000D+01 Coefficients=  1.0000000000D+00
 P 1 1.00
     Exponent=  8.0380350000D+00 Coefficients=  1.0000000000D+00
 P 1 1.00
     Exponent=  4.0939160000D+00 Coefficients=  1.0000000000D+00
 P 1 1.00
     Exponent=  2.0223900000D+00 Coefficients=  1.0000000000D+00
 P 1 1.00
     Exponent=  9.7610200000D-01 Coefficients=  1.0000000000D+00
 P 1 1.00
     Exponent=  4.5959500000D-01 Coefficients=  1.0000000000D+00
 P 1 1.00
     Exponent=  1.7719500000D-01 Coefficients=  1.0000000000D+00
 P 1 1.00
     Exponent=  7.3442000000D-02 Coefficients=  1.0000000000D+00
 P 1 1.00
     Exponent=  2.9334000000D-02 Coefficients=  1.0000000000D+00
 P 1 1.00
     Exponent=  4.0234000000D+00 Coefficients=  1.0000000000D+00
 P 1 1.00
     Exponent=  9.4170000000D-01 Coefficients=  1.0000000000D+00
 P 1 1.00
     Exponent=  1.1720000000D-02 Coefficients=  1.0000000000D+00
 D 1 1.00
     Exponent=  6.4340200000D+01 Coefficients=  1.0000000000D+00
 D 1 1.00
     Exponent=  1.8841800000D+01 Coefficients=  1.0000000000D+00
 D 1 1.00
     Exponent=  6.7198300000D+00 Coefficients=  1.0000000000D+00
 D 1 1.00
     Exponent=  2.6561300000D+00 Coefficients=  1.0000000000D+00
 D 1 1.00
     Exponent=  1.0736800000D+00 Coefficients=  1.0000000000D+00
 D 1 1.00
     Exponent=  4.2055700000D-01 Coefficients=  1.0000000000D+00
 D 1 1.00
     Exponent=  1.5481700000D-01 Coefficients=  1.0000000000D+00
 D 1 1.00
     Exponent=  5.1490000000D-02 Coefficients=  1.0000000000D+00
 D 1 1.00
     Exponent=  2.3834000000D+00 Coefficients=  1.0000000000D+00
 D 1 1.00
     Exponent=  1.0775000000D+00 Coefficients=  1.0000000000D+00
 D 1 1.00
     Exponent=  1.7120000000D-02 Coefficients=  1.0000000000D+00
 F 1 1.00
     Exponent=  2.8376000000D+00 Coefficients=  1.0000000000D+00
 F 1 1.00
     Exponent=  9.6330000000D-01 Coefficients=  1.0000000000D+00
 F 1 1.00
     Exponent=  2.7880000000D-01 Coefficients=  1.0000000000D+00
 F 1 1.00
     Exponent=  8.0690000000D-02 Coefficients=  1.0000000000D+00
 G 1 1.00
     Exponent=  2.4639000000D+00 Coefficients=  1.0000000000D+00
 G 1 1.00
     Exponent=  7.0920000000D-01 Coefficients=  1.0000000000D+00
 G 1 1.00
     Exponent=  2.0413000000D-01 Coefficients=  1.0000000000D+00
 ****
 Centers:       2
 S 1 1.00
     Exponent=  1.5330000000D+04 Coefficients=  1.0000000000D+00
 S 1 1.00
     Exponent=  2.2990000000D+03 Coefficients=  1.0000000000D+00
 S 1 1.00
     Exponent=  5.2240000000D+02 Coefficients=  1.0000000000D+00
 S 1 1.00
     Exponent=  1.4730000000D+02 Coefficients=  1.0000000000D+00
 S 1 1.00
     Exponent=  4.7550000000D+01 Coefficients=  1.0000000000D+00
 S 1 1.00
     Exponent=  1.6760000000D+01 Coefficients=  1.0000000000D+00
 S 1 1.00
     Exponent=  6.2070000000D+00 Coefficients=  1.0000000000D+00
 S 1 1.00
     Exponent=  6.8820000000D-01 Coefficients=  1.0000000000D+00
 S 1 1.00
     Exponent=  1.7520000000D+00 Coefficients=  1.0000000000D+00
 S 1 1.00
     Exponent=  2.3840000000D-01 Coefficients=  1.0000000000D+00
 S 1 1.00
     Exponent=  7.8450000000D+00 Coefficients=  1.0000000000D+00
 S 1 1.00
     Exponent=  2.1032000000D+01 Coefficients=  1.0000000000D+00
 S 1 1.00
     Exponent=  7.3760000000D-02 Coefficients=  1.0000000000D+00
 P 1 1.00
     Exponent=  3.4460000000D+01 Coefficients=  1.0000000000D+00
 P 1 1.00
     Exponent=  7.7490000000D+00 Coefficients=  1.0000000000D+00
 P 1 1.00
     Exponent=  2.2800000000D+00 Coefficients=  1.0000000000D+00
 P 1 1.00
     Exponent=  7.1560000000D-01 Coefficients=  1.0000000000D+00
 P 1 1.00
     Exponent=  2.1400000000D-01 Coefficients=  1.0000000000D+00
 P 1 1.00
     Exponent=  1.5159000000D+01 Coefficients=  1.0000000000D+00
 P 1 1.00
     Exponent=  5.7437000000D+01 Coefficients=  1.0000000000D+00
 P 1 1.00
     Exponent=  5.9740000000D-02 Coefficients=  1.0000000000D+00
 D 1 1.00
     Exponent=  2.3140000000D+00 Coefficients=  1.0000000000D+00
 D 1 1.00
     Exponent=  6.4500000000D-01 Coefficients=  1.0000000000D+00
 D 1 1.00
     Exponent=  1.5858000000D+01 Coefficients=  1.0000000000D+00
 D 1 1.00
     Exponent=  2.1400000000D-01 Coefficients=  1.0000000000D+00
 F 1 1.00
     Exponent=  1.4280000000D+00 Coefficients=  1.0000000000D+00
 F 1 1.00
     Exponent=  5.0000000000D-01 Coefficients=  1.0000000000D+00
 ****
 ======================================================================================================
                                       Pseudopotential Parameters
 ======================================================================================================
  Center     Atomic      Valence      Angular      Power
  Number     Number     Electrons     Momentum     of R      Exponent        Coefficient   SO-Coeffient
 ======================================================================================================
    1         22           12
                                      D and up 
                                                     1       18.4136620       12.00000000    0.00000000
                                                     3       15.9229241      220.96394426    0.00000000
                                                     2       13.6500062      -94.29025825    0.00000000
                                                     2        5.0955521        0.09791142    0.00000000
                                      S - D
                                                     2       12.7058061      173.94657236    0.00000000
                                                     2        6.1117855       18.83768334    0.00000000
                                      P - D
                                                     2       12.6409193      111.45672882    0.00000000
                                                     2        5.3543742       11.17702683    0.00000000
    2          8            6
                                      P and up 
                                                     1       12.3099700        6.00000000    0.00000000
                                                     3       14.7696200       73.85984000    0.00000000
                                                     2       13.7141900      -47.87600000    0.00000000
                                      S - P
                                                     2       13.6551200       85.86406000    0.00000000
 ======================================================================================================
 Ernie: Thresh=  0.10000D-02 Tol=  0.10000D-05 Strict=F.
 There are   144 symmetry adapted cartesian basis functions of A1  symmetry.
 There are    30 symmetry adapted cartesian basis functions of A2  symmetry.
 There are    69 symmetry adapted cartesian basis functions of B1  symmetry.
 There are    69 symmetry adapted cartesian basis functions of B2  symmetry.
 There are   114 symmetry adapted basis functions of A1  symmetry.
 There are    27 symmetry adapted basis functions of A2  symmetry.
 There are    60 symmetry adapted basis functions of B1  symmetry.
 There are    60 symmetry adapted basis functions of B2  symmetry.
   261 basis functions,   312 primitive gaussians,   312 cartesian basis functions
    10 alpha electrons        8 beta electrons
       nuclear repulsion energy        31.7506326552 Hartrees.
 IExCor=    0 DFT=F Ex=HF Corr=None ExCW=0 ScaHFX=  1.000000
 ScaDFX=  1.000000  1.000000  1.000000  1.000000 ScalE2=  1.000000  1.000000
 IRadAn=      5 IRanWt=     -1 IRanGd=            0 ICorTp=0 IEmpDi=  4
 NAtoms=    2 NActive=    2 NUniq=    2 SFac= 1.00D+00 NAtFMM=   60 NAOKFM=F Big=F
 Integral buffers will be    131072 words long.
 Raffenetti 2 integral format.
 Two-electron integral symmetry is turned on.
 Leave Link  301 at Fri Mar  9 15:21:35 2018, MaxMem= 10737418240 cpu:               4.0 elap:               0.3
 (Enter /home1/apps/gaussian/16rA.03/g16/l302.exe)
 NPDir=0 NMtPBC=     1 NCelOv=     1 NCel=       1 NClECP=     1 NCelD=      1
         NCelK=      1 NCelE2=     1 NClLst=     1 CellRange=     0.0.
 One-electron integrals computed using PRISM.
 One-electron integral symmetry used in STVInt
   4 Symmetry operations used in ECPInt.
 ECPInt:  NShTT=    3828 NPrTT=    3828 LenC2=    3627 LenP2D=    3626.
 LDataN:  DoStor=T MaxTD1= 8 Len=  415
 NBasis=   261 RedAO= T EigKep=  1.37D-06  NBF=   114    27    60    60
 NBsUse=   253 1.00D-06 EigRej=  9.75D-08 NBFU=   111    26    58    58
 Leave Link  302 at Fri Mar  9 15:21:36 2018, MaxMem= 10737418240 cpu:              15.2 elap:               1.0
 (Enter /home1/apps/gaussian/16rA.03/g16/l303.exe)
 DipDrv:  MaxL=1.
 Leave Link  303 at Fri Mar  9 15:21:37 2018, MaxMem= 10737418240 cpu:               1.1 elap:               0.1
 (Enter /home1/apps/gaussian/16rA.03/g16/l401.exe)
 Initial guess from the checkpoint file:  "TiO.chk"
 B after Tr=     0.000000    0.000000    0.000000
         Rot=    1.000000    0.000000    0.000000    0.000000 Ang=   0.00 deg.
 Guess basis will be translated and rotated to current coordinates.
 JPrj=2 DoOrth=T DoCkMO=T.
 Initial guess orbital symmetries:
       Occupied  (SG) (SG) (PI) (PI) (SG) (SG) (PI) (PI) (SG) (?A)
       Virtual   (PI) (PI) (SG) (SG) (PI) (PI) (?A) (SG) (?A) (PI)
                 (PI) (SG) (?A) (SG) (SG) (PI) (PI) (?A) (PI) (PI)
                 (SG) (?A) (PI) (PI) (SG) (PI) (PI) (PHI) (PHI)
                 (SG) (DLTA) (DLTA) (SG) (PI) (PI) (SG) (SG) (?A)
                 (PI) (PI) (?A) (PI) (PI) (SG) (SG) (?A) (?A) (PI)
                 (PI) (SG) (?B) (?B) (PHI) (PHI) (?A) (?A) (?C)
                 (?C) (?C) (?C) (SG) (SG) (?A) (?A) (PI) (PI) (SG)
                 (PI) (PI) (SG) (PI) (PI) (?A) (SG) (?A) (PI) (PI)
                 (SG) (PHI) (PHI) (SG) (?A) (?A) (PI) (PI) (?A)
                 (?A) (SG) (SG) (?C) (?C) (?C) (?C) (DLTA) (DLTA)
                 (?B) (?B) (PHI) (PHI) (PI) (PI) (?A) (?A) (SG)
                 (SG) (PI) (PI) (SG) (PI) (PI) (PI) (PI) (SG) (DLTA)
                 (DLTA) (SG) (PI) (PI) (SG) (SG) (PHI) (PHI) (?A)
                 (?A) (PI) (PI) (DLTA) (DLTA) (SG) (PI) (PI) (SG)
                 (SG) (?C) (?C) (DLTA) (DLTA) (?C) (?C) (PI) (PI)
                 (SG) (SG) (PHI) (PHI) (?B) (?B) (DLTA) (DLTA)
                 (PI) (PI) (SG) (DLTA) (DLTA) (PI) (PI) (SG) (PI)
                 (PI) (SG) (SG) (SG) (PI) (PI) (SG) (DLTA) (DLTA)
                 (PI) (PI) (SG) (SG) (PI) (PI) (SG) (SG) (DLTA)
                 (DLTA) (PI) (PI) (SG) (PI) (PI) (SG) (SG) (DLTA)
                 (DLTA) (PI) (PI) (SG) (SG) (PI) (PI) (SG) (SG)
                 (PI) (PI) (SG) (SG) (PI) (PI) (SG) (SG) (DLTA)
                 (DLTA) (PI) (PI) (SG) (SG) (PI) (PI) (SG) (PI)
                 (PI) (SG) (SG) (SG) (PI) (PI) (SG) (SG) (PI) (PI)
                 (SG) (SG) (SG) (PI) (PI) (SG) (SG) (SG) (PI) (PI)
                 (SG) (SG) (SG) (SG) (PI) (PI) (SG) (SG) (SG) (SG)
                 (SG)
 Leave Link  401 at Fri Mar  9 15:21:39 2018, MaxMem= 10737418240 cpu:               6.7 elap:               0.5
 (Enter /home1/apps/gaussian/16rA.03/g16/l502.exe)
 Keep R1 and R2 ints in memory in symmetry-blocked form, NReq=734602573.
 FoFCou: FMM=F IPFlag=           8 FMFlag=           0 FMFlg1=           0
         NFxFlg=           0 DoJE=F BraDBF=F KetDBF=F FulRan=T
         wScrn=  0.000000 ICntrl=       600 IOpCl=  0 I1Cent=           0 NGrid=           0
         NMat0=    1 NMatS0=  34191 NMatT0=    0 NMatD0=    1 NMtDS0=    0 NMtDT0=    0
 Petite list used in FoFCou.
 Restricted open shell SCF:
 Using DIIS extrapolation, IDIIS=  1040.
 NGot= 10737418240 LenX= 10437151885 LenY= 10437054100
 Requested convergence on RMS density matrix=1.00D-08 within 300 cycles.
 Requested convergence on MAX density matrix=1.00D-06.
 Requested convergence on             energy=1.00D-06.
 No special actions if energy rises.

 Cycle   1  Pass 1  IDiag  1:
 E= -72.4420381539334    
 DIIS: error= 6.37D-01 at cycle   1 NSaved=   1.
 NSaved= 1 IEnMin= 1 EnMin= -72.4420381539334     IErMin= 1 ErrMin= 6.37D-01
 ErrMax= 6.37D-01  0.00D+00 EMaxC= 1.00D-01 BMatC= 1.91D+01 BMatP= 1.91D+01
 IDIUse=3 WtCom= 0.00D+00 WtEn= 1.00D+00
 Coeff-Com:  0.100D+01
 Coeff-En:   0.100D+01
 Coeff:      0.100D+01
 Gap=     0.096 Goal=   None    Shift=    0.000
 GapD=    0.096 DampG=0.500 DampE=0.125 DampFc=0.1250 IDamp=-1.
 Damping current iteration by 1.25D-01
 RMSDP=8.68D-03 MaxDP=5.15D-01              OVMax= 1.28D-01

 Cycle   2  Pass 1  IDiag  1:
 E= -72.5186048925444     Delta-E=       -0.076566738611 Rises=F Damp=T
 DIIS: error= 5.58D-01 at cycle   2 NSaved=   2.
 NSaved= 2 IEnMin= 2 EnMin= -72.5186048925444     IErMin= 2 ErrMin= 5.58D-01
 ErrMax= 5.58D-01  0.00D+00 EMaxC= 1.00D-01 BMatC= 1.47D+01 BMatP= 1.91D+01
 IDIUse=3 WtCom= 0.00D+00 WtEn= 1.00D+00
 Coeff-Com: -0.709D+01 0.809D+01
 Coeff-En:   0.000D+00 0.100D+01
 Coeff:      0.000D+00 0.100D+01
 Gap=     0.059 Goal=   None    Shift=    0.000
 RMSDP=7.66D-03 MaxDP=4.45D-01 DE=-7.66D-02 OVMax= 6.05D-02

 Cycle   3  Pass 1  IDiag  1:
 E= -73.0888134232199     Delta-E=       -0.570208530676 Rises=F Damp=F
 DIIS: error= 1.76D-02 at cycle   3 NSaved=   3.
 NSaved= 3 IEnMin= 3 EnMin= -73.0888134232199     IErMin= 3 ErrMin= 1.76D-02
 ErrMax= 1.76D-02  0.00D+00 EMaxC= 1.00D-01 BMatC= 1.95D-02 BMatP= 1.47D+01
 IDIUse=3 WtCom= 8.24D-01 WtEn= 1.76D-01
 Coeff-Com: -0.147D+01 0.166D+01 0.806D+00
 Coeff-En:   0.000D+00 0.000D+00 0.100D+01
 Coeff:     -0.121D+01 0.137D+01 0.840D+00
 Gap=     0.007 Goal=   None    Shift=    0.000
 RMSDP=1.38D-03 MaxDP=2.05D-01 DE=-5.70D-01 OVMax= 1.21D-01

 Cycle   4  Pass 1  IDiag  1:
 E= -73.1102427837969     Delta-E=       -0.021429360577 Rises=F Damp=F
 DIIS: error= 9.99D-03 at cycle   4 NSaved=   4.
 NSaved= 4 IEnMin= 4 EnMin= -73.1102427837969     IErMin= 4 ErrMin= 9.99D-03
 ErrMax= 9.99D-03  0.00D+00 EMaxC= 1.00D-01 BMatC= 4.90D-03 BMatP= 1.95D-02
 IDIUse=3 WtCom= 9.00D-01 WtEn= 9.99D-02
 Coeff-Com: -0.109D+01 0.124D+01 0.616D-01 0.787D+00
 Coeff-En:   0.000D+00 0.000D+00 0.000D+00 0.100D+01
 Coeff:     -0.980D+00 0.112D+01 0.554D-01 0.808D+00
 Gap=     0.032 Goal=   None    Shift=    0.000
 RMSDP=7.16D-04 MaxDP=1.05D-01 DE=-2.14D-02 OVMax= 2.54D-01

 Cycle   5  Pass 1  IDiag  1:
 E= -73.1062115630258     Delta-E=        0.004031220771 Rises=F Damp=F
 DIIS: error= 1.09D-02 at cycle   5 NSaved=   5.
 NSaved= 5 IEnMin= 4 EnMin= -73.1102427837969     IErMin= 4 ErrMin= 9.99D-03
 ErrMax= 1.09D-02  0.00D+00 EMaxC= 1.00D-01 BMatC= 3.97D-03 BMatP= 4.90D-03
 IDIUse=3 WtCom= 8.91D-01 WtEn= 1.09D-01
 Coeff-Com: -0.125D+01 0.142D+01-0.225D+00 0.416D+00 0.631D+00
 Coeff-En:   0.000D+00 0.000D+00 0.000D+00 0.577D+00 0.423D+00
 Coeff:     -0.111D+01 0.127D+01-0.200D+00 0.433D+00 0.608D+00
 Gap=     0.033 Goal=   None    Shift=    0.000
 RMSDP=8.61D-04 MaxDP=1.37D-01 DE= 4.03D-03 OVMax= 3.14D-01

 Cycle   6  Pass 1  IDiag  1:
 E= -73.1130473565582     Delta-E=       -0.006835793532 Rises=F Damp=F
 DIIS: error= 7.88D-03 at cycle   6 NSaved=   6.
 NSaved= 6 IEnMin= 6 EnMin= -73.1130473565582     IErMin= 6 ErrMin= 7.88D-03
 ErrMax= 7.88D-03  0.00D+00 EMaxC= 1.00D-01 BMatC= 2.29D-03 BMatP= 3.97D-03
 IDIUse=3 WtCom= 9.21D-01 WtEn= 7.88D-02
 Coeff-Com: -0.991D+00 0.114D+01-0.338D+00-0.558D-01 0.568D+00 0.681D+00
 Coeff-En:   0.000D+00 0.000D+00 0.000D+00 0.000D+00 0.414D+00 0.586D+00
 Coeff:     -0.913D+00 0.105D+01-0.311D+00-0.514D-01 0.556D+00 0.674D+00
 Gap=     0.038 Goal=   None    Shift=    0.000
 RMSDP=5.88D-04 MaxDP=6.64D-02 DE=-6.84D-03 OVMax= 1.46D-01

 Cycle   7  Pass 1  IDiag  1:
 E= -73.1196722754863     Delta-E=       -0.006624918928 Rises=F Damp=F
 DIIS: error= 5.26D-03 at cycle   7 NSaved=   7.
 NSaved= 7 IEnMin= 7 EnMin= -73.1196722754863     IErMin= 7 ErrMin= 5.26D-03
 ErrMax= 5.26D-03  0.00D+00 EMaxC= 1.00D-01 BMatC= 4.12D-04 BMatP= 2.29D-03
 IDIUse=3 WtCom= 9.47D-01 WtEn= 5.26D-02
 Rare condition: small coef for last iteration:  0.000D+00
 Coeff-Com: -0.752D+00 0.860D+00-0.172D+00 0.959D-02 0.489D-01 0.881D-01
 Coeff-Com:  0.917D+00
 Coeff-En:   0.000D+00 0.000D+00 0.000D+00 0.000D+00 0.142D-02 0.122D+00
 Coeff-En:   0.877D+00
 Coeff:     -0.752D+00 0.860D+00-0.172D+00 0.959D-02 0.489D-01 0.881D-01
 Coeff:      0.917D+00
 Gap=     0.027 Goal=   None    Shift=    0.000
 RMSDP=4.23D-04 MaxDP=1.02D-01 DE=-6.62D-03 OVMax= 1.56D-02

 Cycle   8  Pass 1  IDiag  1:
 E= -73.1201873050297     Delta-E=       -0.000515029543 Rises=F Damp=F
 DIIS: error= 4.64D-03 at cycle   8 NSaved=   8.
 NSaved= 8 IEnMin= 8 EnMin= -73.1201873050297     IErMin= 8 ErrMin= 4.64D-03
 ErrMax= 4.64D-03  0.00D+00 EMaxC= 1.00D-01 BMatC= 2.72D-04 BMatP= 4.12D-04
 IDIUse=3 WtCom= 9.54D-01 WtEn= 4.64D-02
 Coeff-Com: -0.611D+00 0.698D+00-0.821D-01 0.980D-02-0.719D-01-0.679D-01
 Coeff-Com: -0.102D+00 0.123D+01
 Coeff-En:   0.000D+00 0.000D+00 0.000D+00 0.000D+00 0.000D+00 0.441D-01
 Coeff-En:   0.000D+00 0.956D+00
 Coeff:     -0.583D+00 0.666D+00-0.783D-01 0.934D-02-0.685D-01-0.628D-01
 Coeff:     -0.975D-01 0.121D+01
 Gap=     0.025 Goal=   None    Shift=    0.000
 RMSDP=5.29D-04 MaxDP=5.41D-02 DE=-5.15D-04 OVMax= 5.37D-02

 Cycle   9  Pass 1  IDiag  1:
 E= -73.1201602211736     Delta-E=        0.000027083856 Rises=F Damp=F
 DIIS: error= 3.66D-03 at cycle   9 NSaved=   9.
 NSaved= 9 IEnMin= 8 EnMin= -73.1201873050297     IErMin= 9 ErrMin= 3.66D-03
 ErrMax= 3.66D-03  0.00D+00 EMaxC= 1.00D-01 BMatC= 2.90D-04 BMatP= 2.72D-04
 IDIUse=3 WtCom= 9.63D-01 WtEn= 3.66D-02
 Coeff-Com: -0.577D+00 0.659D+00-0.744D-01 0.225D-02-0.634D-01-0.640D-01
 Coeff-Com: -0.195D+00 0.114D+01 0.171D+00
 Coeff-En:   0.000D+00 0.000D+00 0.000D+00 0.000D+00 0.000D+00 0.000D+00
 Coeff-En:   0.000D+00 0.511D+00 0.489D+00
 Coeff:     -0.556D+00 0.635D+00-0.717D-01 0.217D-02-0.611D-01-0.616D-01
 Coeff:     -0.188D+00 0.112D+01 0.183D+00
 Gap=     0.026 Goal=   None    Shift=    0.000
 RMSDP=6.61D-04 MaxDP=7.26D-02 DE= 2.71D-05 OVMax= 6.98D-02

 Cycle  10  Pass 1  IDiag  1:
 E= -73.1206460749116     Delta-E=       -0.000485853738 Rises=F Damp=F
 DIIS: error= 3.58D-03 at cycle  10 NSaved=  10.
 NSaved=10 IEnMin=10 EnMin= -73.1206460749116     IErMin=10 ErrMin= 3.58D-03
 ErrMax= 3.58D-03  0.00D+00 EMaxC= 1.00D-01 BMatC= 1.64D-04 BMatP= 2.72D-04
 IDIUse=3 WtCom= 9.64D-01 WtEn= 3.58D-02
 Coeff-Com: -0.492D+00 0.562D+00-0.782D-01-0.192D-01 0.997D-02 0.110D-02
 Coeff-Com: -0.119D+00 0.299D+00 0.292D+00 0.543D+00
 Coeff-En:   0.000D+00 0.000D+00 0.000D+00 0.000D+00 0.000D+00 0.000D+00
 Coeff-En:   0.000D+00 0.000D+00 0.389D+00 0.611D+00
 Coeff:     -0.474D+00 0.542D+00-0.754D-01-0.185D-01 0.961D-02 0.107D-02
 Coeff:     -0.115D+00 0.289D+00 0.296D+00 0.546D+00
 Gap=     0.029 Goal=   None    Shift=    0.000
 RMSDP=2.38D-04 MaxDP=2.39D-02 DE=-4.86D-04 OVMax= 2.37D-02

 Cycle  11  Pass 1  IDiag  1:
 E= -73.1208905030060     Delta-E=       -0.000244428094 Rises=F Damp=F
 DIIS: error= 3.25D-03 at cycle  11 NSaved=  11.
 NSaved=11 IEnMin=11 EnMin= -73.1208905030060     IErMin=11 ErrMin= 3.25D-03
 ErrMax= 3.25D-03  0.00D+00 EMaxC= 1.00D-01 BMatC= 1.02D-04 BMatP= 1.64D-04
 IDIUse=3 WtCom= 9.68D-01 WtEn= 3.25D-02
 Rare condition: small coef for last iteration:  0.000D+00
 Coeff-Com: -0.386D+00 0.441D+00-0.676D-01 0.141D-01 0.552D-02-0.652D-02
 Coeff-Com: -0.691D-02-0.591D-01-0.125D+00-0.201D+00 0.139D+01
 Coeff-En:   0.000D+00 0.000D+00 0.000D+00 0.000D+00 0.000D+00 0.000D+00
 Coeff-En:   0.000D+00 0.000D+00 0.122D+00 0.735D-02 0.871D+00
 Coeff:     -0.386D+00 0.441D+00-0.676D-01 0.141D-01 0.552D-02-0.652D-02
 Coeff:     -0.691D-02-0.591D-01-0.125D+00-0.201D+00 0.139D+01
 Gap=     0.029 Goal=   None    Shift=    0.000
 RMSDP=1.10D-04 MaxDP=1.59D-02 DE=-2.44D-04 OVMax= 7.66D-03

 Cycle  12  Pass 1  IDiag  1:
 E= -73.1210206220077     Delta-E=       -0.000130119002 Rises=F Damp=F
 DIIS: error= 2.56D-03 at cycle  12 NSaved=  12.
 NSaved=12 IEnMin=12 EnMin= -73.1210206220077     IErMin=12 ErrMin= 2.56D-03
 ErrMax= 2.56D-03  0.00D+00 EMaxC= 1.00D-01 BMatC= 6.67D-05 BMatP= 1.02D-04
 IDIUse=3 WtCom= 9.74D-01 WtEn= 2.56D-02
 Coeff-Com: -0.308D+00 0.352D+00-0.594D-01 0.211D-01 0.126D-01 0.865D-02
 Coeff-Com:  0.396D-01-0.182D+00-0.250D+00-0.451D+00 0.115D+01 0.664D+00
 Coeff-En:   0.000D+00 0.000D+00 0.000D+00 0.000D+00 0.000D+00 0.000D+00
 Coeff-En:   0.000D+00 0.000D+00 0.673D-01 0.000D+00 0.000D+00 0.933D+00
 Coeff:     -0.300D+00 0.343D+00-0.579D-01 0.206D-01 0.122D-01 0.843D-02
 Coeff:      0.386D-01-0.178D+00-0.242D+00-0.440D+00 0.112D+01 0.671D+00
 Gap=     0.029 Goal=   None    Shift=    0.000
 RMSDP=2.02D-04 MaxDP=2.01D-02 DE=-1.30D-04 OVMax= 1.53D-02

 Cycle  13  Pass 1  IDiag  1:
 E= -73.1210994456686     Delta-E=       -0.000078823661 Rises=F Damp=F
 DIIS: error= 1.98D-03 at cycle  13 NSaved=  13.
 NSaved=13 IEnMin=13 EnMin= -73.1210994456686     IErMin=13 ErrMin= 1.98D-03
 ErrMax= 1.98D-03  0.00D+00 EMaxC= 1.00D-01 BMatC= 4.74D-05 BMatP= 6.67D-05
 IDIUse=3 WtCom= 9.80D-01 WtEn= 1.98D-02
 EnCoef did     1 forward-backward iterations
 Coeff-Com: -0.222D+00 0.254D+00-0.482D-01 0.223D-01 0.190D-01 0.225D-01
 Coeff-Com:  0.703D-01-0.242D+00-0.309D+00-0.593D+00 0.707D+00 0.985D+00
 Coeff-Com:  0.335D+00
 Coeff-En:   0.000D+00 0.000D+00 0.000D+00 0.000D+00 0.000D+00 0.000D+00
 Coeff-En:   0.000D+00 0.000D+00 0.481D-01 0.000D+00 0.000D+00 0.671D-01
 Coeff-En:   0.885D+00
 Coeff:     -0.218D+00 0.249D+00-0.473D-01 0.218D-01 0.186D-01 0.220D-01
 Coeff:      0.689D-01-0.238D+00-0.302D+00-0.581D+00 0.693D+00 0.967D+00
 Coeff:      0.346D+00
 Gap=     0.030 Goal=   None    Shift=    0.000
 RMSDP=1.87D-04 MaxDP=1.84D-02 DE=-7.88D-05 OVMax= 1.39D-02

 Cycle  14  Pass 1  IDiag  1:
 E= -73.1212022173735     Delta-E=       -0.000102771705 Rises=F Damp=F
 DIIS: error= 1.45D-03 at cycle  14 NSaved=  14.
 NSaved=14 IEnMin=14 EnMin= -73.1212022173735     IErMin=14 ErrMin= 1.45D-03
 ErrMax= 1.45D-03  0.00D+00 EMaxC= 1.00D-01 BMatC= 2.09D-05 BMatP= 4.74D-05
 IDIUse=3 WtCom= 9.86D-01 WtEn= 1.45D-02
 Coeff-Com: -0.226D-01 0.259D-01-0.347D-02-0.554D-02 0.371D-02 0.478D-02
 Coeff-Com:  0.409D-02 0.837D-01 0.159D-01-0.565D-01-0.526D+00-0.638D+00
 Coeff-Com:  0.242D+00 0.187D+01
 Coeff-En:   0.000D+00 0.000D+00 0.000D+00 0.000D+00 0.000D+00 0.000D+00
 Coeff-En:   0.000D+00 0.000D+00 0.000D+00 0.000D+00 0.000D+00 0.000D+00
 Coeff-En:   0.000D+00 0.100D+01
 Coeff:     -0.223D-01 0.255D-01-0.342D-02-0.546D-02 0.366D-02 0.471D-02
 Coeff:      0.403D-02 0.825D-01 0.157D-01-0.557D-01-0.518D+00-0.629D+00
 Coeff:      0.238D+00 0.186D+01
 Gap=     0.032 Goal=   None    Shift=    0.000
 RMSDP=1.40D-04 MaxDP=3.05D-02 DE=-1.03D-04 OVMax= 1.31D-02

 Cycle  15  Pass 1  IDiag  1:
 E= -73.1212801412753     Delta-E=       -0.000077923902 Rises=F Damp=F
 DIIS: error= 1.58D-04 at cycle  15 NSaved=  15.
 NSaved=15 IEnMin=15 EnMin= -73.1212801412753     IErMin=15 ErrMin= 1.58D-04
 ErrMax= 1.58D-04  0.00D+00 EMaxC= 1.00D-01 BMatC= 3.31D-07 BMatP= 2.09D-05
 IDIUse=3 WtCom= 9.98D-01 WtEn= 1.58D-03
 Coeff-Com: -0.813D-02 0.928D-02-0.818D-03-0.252D-02 0.313D-03 0.546D-03
 Coeff-Com: -0.419D-02 0.401D-01 0.224D-01 0.216D-01-0.169D+00-0.239D+00
 Coeff-Com:  0.295D-01 0.480D+00 0.820D+00
 Coeff-En:   0.000D+00 0.000D+00 0.000D+00 0.000D+00 0.000D+00 0.000D+00
 Coeff-En:   0.000D+00 0.000D+00 0.000D+00 0.000D+00 0.000D+00 0.000D+00
 Coeff-En:   0.000D+00 0.000D+00 0.100D+01
 Coeff:     -0.812D-02 0.927D-02-0.817D-03-0.252D-02 0.313D-03 0.545D-03
 Coeff:     -0.418D-02 0.400D-01 0.224D-01 0.216D-01-0.169D+00-0.239D+00
 Coeff:      0.295D-01 0.479D+00 0.821D+00
 Gap=     0.032 Goal=   None    Shift=    0.000
 RMSDP=4.05D-05 MaxDP=5.38D-03 DE=-7.79D-05 OVMax= 1.78D-03

 Cycle  16  Pass 1  IDiag  1:
 E= -73.1212810753561     Delta-E=       -0.000000934081 Rises=F Damp=F
 DIIS: error= 5.18D-05 at cycle  16 NSaved=  16.
 NSaved=16 IEnMin=16 EnMin= -73.1212810753561     IErMin=16 ErrMin= 5.18D-05
 ErrMax= 5.18D-05  0.00D+00 EMaxC= 1.00D-01 BMatC= 1.03D-07 BMatP= 3.31D-07
 IDIUse=1 WtCom= 1.00D+00 WtEn= 0.00D+00
 Coeff-Com: -0.467D-02 0.534D-02-0.692D-03-0.856D-03 0.311D-03 0.456D-03
 Coeff-Com: -0.367D-02 0.107D-01 0.139D-01 0.294D-01-0.318D-01-0.643D-01
 Coeff-Com: -0.219D-01 0.208D-01 0.591D+00 0.456D+00
 Coeff:     -0.467D-02 0.534D-02-0.692D-03-0.856D-03 0.311D-03 0.456D-03
 Coeff:     -0.367D-02 0.107D-01 0.139D-01 0.294D-01-0.318D-01-0.643D-01
 Coeff:     -0.219D-01 0.208D-01 0.591D+00 0.456D+00
 Gap=     0.032 Goal=   None    Shift=    0.000
 RMSDP=3.06D-05 MaxDP=3.25D-03 DE=-9.34D-07 OVMax= 1.36D-03

 Cycle  17  Pass 1  IDiag  1:
 E= -73.1212813090276     Delta-E=       -0.000000233672 Rises=F Damp=F
 DIIS: error= 2.83D-05 at cycle  17 NSaved=  17.
 NSaved=17 IEnMin=17 EnMin= -73.1212813090276     IErMin=17 ErrMin= 2.83D-05
 ErrMax= 2.83D-05  0.00D+00 EMaxC= 1.00D-01 BMatC= 3.73D-08 BMatP= 1.03D-07
 IDIUse=1 WtCom= 1.00D+00 WtEn= 0.00D+00
 Coeff-Com: -0.202D-02 0.232D-02-0.593D-03 0.116D-03 0.620D-03 0.698D-03
 Coeff-Com: -0.213D-02-0.649D-02 0.554D-02 0.217D-01 0.288D-01 0.227D-01
 Coeff-Com: -0.309D-01-0.148D+00 0.234D+00 0.400D+00 0.474D+00
 Coeff:     -0.202D-02 0.232D-02-0.593D-03 0.116D-03 0.620D-03 0.698D-03
 Coeff:     -0.213D-02-0.649D-02 0.554D-02 0.217D-01 0.288D-01 0.227D-01
 Coeff:     -0.309D-01-0.148D+00 0.234D+00 0.400D+00 0.474D+00
 Gap=     0.032 Goal=   None    Shift=    0.000
 RMSDP=1.94D-05 MaxDP=2.07D-03 DE=-2.34D-07 OVMax= 6.93D-04

 Cycle  18  Pass 1  IDiag  1:
 E= -73.1212814237869     Delta-E=       -0.000000114759 Rises=F Damp=F
 DIIS: error= 1.17D-05 at cycle  18 NSaved=  18.
 NSaved=18 IEnMin=18 EnMin= -73.1212814237869     IErMin=18 ErrMin= 1.17D-05
 ErrMax= 1.17D-05  0.00D+00 EMaxC= 1.00D-01 BMatC= 5.18D-09 BMatP= 3.73D-08
 IDIUse=1 WtCom= 1.00D+00 WtEn= 0.00D+00
 Coeff-Com: -0.565D-03 0.649D-03-0.345D-03 0.365D-03 0.503D-03 0.473D-03
 Coeff-Com: -0.116D-02-0.738D-02 0.122D-02 0.874D-02 0.260D-01 0.286D-01
 Coeff-Com: -0.157D-01-0.104D+00 0.169D-01 0.154D+00 0.306D+00 0.587D+00
 Coeff:     -0.565D-03 0.649D-03-0.345D-03 0.365D-03 0.503D-03 0.473D-03
 Coeff:     -0.116D-02-0.738D-02 0.122D-02 0.874D-02 0.260D-01 0.286D-01
 Coeff:     -0.157D-01-0.104D+00 0.169D-01 0.154D+00 0.306D+00 0.587D+00
 Gap=     0.032 Goal=   None    Shift=    0.000
 RMSDP=5.53D-06 MaxDP=7.96D-04 DE=-1.15D-07 OVMax= 2.40D-04

 Cycle  19  Pass 1  IDiag  1:
 E= -73.1212814383562     Delta-E=       -0.000000014569 Rises=F Damp=F
 DIIS: error= 3.41D-06 at cycle  19 NSaved=  19.
 NSaved=19 IEnMin=19 EnMin= -73.1212814383562     IErMin=19 ErrMin= 3.41D-06
 ErrMax= 3.41D-06  0.00D+00 EMaxC= 1.00D-01 BMatC= 6.37D-10 BMatP= 5.18D-09
 IDIUse=1 WtCom= 1.00D+00 WtEn= 0.00D+00
 Coeff-Com:  0.899D-05-0.927D-05-0.728D-04 0.237D-03 0.119D-03 0.401D-04
 Coeff-Com: -0.506D-03-0.181D-02-0.740D-03-0.687D-03 0.451D-02 0.852D-02
 Coeff-Com: -0.233D-04-0.121D-01-0.547D-01-0.339D-01 0.146D-01 0.265D+00
 Coeff-Com:  0.812D+00
 Coeff:      0.899D-05-0.927D-05-0.728D-04 0.237D-03 0.119D-03 0.401D-04
 Coeff:     -0.506D-03-0.181D-02-0.740D-03-0.687D-03 0.451D-02 0.852D-02
 Coeff:     -0.233D-04-0.121D-01-0.547D-01-0.339D-01 0.146D-01 0.265D+00
 Coeff:      0.812D+00
 Gap=     0.032 Goal=   None    Shift=    0.000
 RMSDP=2.06D-06 MaxDP=2.75D-04 DE=-1.46D-08 OVMax= 7.78D-05

 Cycle  20  Pass 1  IDiag  1:
 E= -73.1212814402753     Delta-E=       -0.000000001919 Rises=F Damp=F
 DIIS: error= 4.11D-07 at cycle  20 NSaved=  20.
 NSaved=20 IEnMin=20 EnMin= -73.1212814402753     IErMin=20 ErrMin= 4.11D-07
 ErrMax= 4.11D-07  0.00D+00 EMaxC= 1.00D-01 BMatC= 1.65D-11 BMatP= 6.37D-10
 IDIUse=1 WtCom= 1.00D+00 WtEn= 0.00D+00
 Coeff-Com:  0.229D-04-0.262D-04 0.399D-05-0.437D-05 0.174D-04 0.146D-04
 Coeff-Com: -0.109D-03 0.294D-03 0.121D-03-0.217D-03-0.214D-02-0.128D-02
 Coeff-Com:  0.977D-03 0.672D-02-0.958D-02-0.159D-01-0.193D-01-0.530D-03
 Coeff-Com:  0.151D+00 0.890D+00
 Coeff:      0.229D-04-0.262D-04 0.399D-05-0.437D-05 0.174D-04 0.146D-04
 Coeff:     -0.109D-03 0.294D-03 0.121D-03-0.217D-03-0.214D-02-0.128D-02
 Coeff:      0.977D-03 0.672D-02-0.958D-02-0.159D-01-0.193D-01-0.530D-03
 Coeff:      0.151D+00 0.890D+00
 Gap=     0.032 Goal=   None    Shift=    0.000
 RMSDP=7.77D-07 MaxDP=1.40D-04 DE=-1.92D-09 OVMax= 2.43D-05

 Cycle  21  Pass 1  IDiag  1:
 E= -73.1212814403309     Delta-E=       -0.000000000056 Rises=F Damp=F
 DIIS: error= 1.70D-07 at cycle  21 NSaved=  20.
 NSaved=20 IEnMin=20 EnMin= -73.1212814403309     IErMin=20 ErrMin= 1.70D-07
 ErrMax= 1.70D-07  0.00D+00 EMaxC= 1.00D-01 BMatC= 3.26D-12 BMatP= 1.65D-11
 IDIUse=1 WtCom= 1.00D+00 WtEn= 0.00D+00
 Coeff-Com: -0.121D-06 0.873D-05-0.297D-04-0.656D-05 0.512D-05 0.599D-05
 Coeff-Com:  0.299D-03 0.118D-03-0.936D-05-0.124D-02-0.142D-02 0.428D-03
 Coeff-Com:  0.381D-02 0.292D-02-0.143D-02-0.851D-02-0.326D-01-0.463D-01
 Coeff-Com:  0.337D+00 0.746D+00
 Coeff:     -0.121D-06 0.873D-05-0.297D-04-0.656D-05 0.512D-05 0.599D-05
 Coeff:      0.299D-03 0.118D-03-0.936D-05-0.124D-02-0.142D-02 0.428D-03
 Coeff:      0.381D-02 0.292D-02-0.143D-02-0.851D-02-0.326D-01-0.463D-01
 Coeff:      0.337D+00 0.746D+00
 Gap=     0.032 Goal=   None    Shift=    0.000
 RMSDP=3.67D-07 MaxDP=6.85D-05 DE=-5.56D-11 OVMax= 7.39D-06

 Cycle  22  Pass 1  IDiag  1:
 E= -73.1212814403444     Delta-E=       -0.000000000014 Rises=F Damp=F
 DIIS: error= 3.80D-08 at cycle  22 NSaved=  20.
 NSaved=20 IEnMin=20 EnMin= -73.1212814403444     IErMin=20 ErrMin= 3.80D-08
 ErrMax= 3.80D-08  0.00D+00 EMaxC= 1.00D-01 BMatC= 1.21D-13 BMatP= 3.26D-12
 IDIUse=1 WtCom= 1.00D+00 WtEn= 0.00D+00
 Coeff-Com:  0.752D-06-0.387D-05-0.807D-06 0.214D-05 0.134D-04 0.503D-05
 Coeff-Com: -0.125D-04-0.329D-04-0.114D-04-0.745D-04 0.193D-04 0.164D-03
 Coeff-Com:  0.896D-03 0.665D-03-0.181D-03-0.545D-02-0.169D-01 0.134D-01
 Coeff-Com:  0.148D+00 0.860D+00
 Coeff:      0.752D-06-0.387D-05-0.807D-06 0.214D-05 0.134D-04 0.503D-05
 Coeff:     -0.125D-04-0.329D-04-0.114D-04-0.745D-04 0.193D-04 0.164D-03
 Coeff:      0.896D-03 0.665D-03-0.181D-03-0.545D-02-0.169D-01 0.134D-01
 Coeff:      0.148D+00 0.860D+00
 Gap=     0.032 Goal=   None    Shift=    0.000
 RMSDP=6.85D-08 MaxDP=8.07D-06 DE=-1.35D-11 OVMax= 1.24D-06

 Cycle  23  Pass 1  IDiag  1:
 E= -73.1212814403448     Delta-E=       -0.000000000000 Rises=F Damp=F
 DIIS: error= 1.86D-08 at cycle  23 NSaved=  20.
 NSaved=20 IEnMin=20 EnMin= -73.1212814403448     IErMin=20 ErrMin= 1.86D-08
 ErrMax= 1.86D-08  0.00D+00 EMaxC= 1.00D-01 BMatC= 3.57D-14 BMatP= 1.21D-13
 IDIUse=1 WtCom= 1.00D+00 WtEn= 0.00D+00
 Coeff-Com:  0.150D-05-0.108D-05-0.158D-05 0.497D-05-0.241D-04-0.175D-04
 Coeff-Com: -0.859D-05 0.152D-03 0.109D-03-0.463D-04-0.396D-03 0.148D-03
 Coeff-Com:  0.536D-03 0.939D-03 0.138D-02-0.260D-02-0.398D-01-0.326D-01
 Coeff-Com:  0.379D+00 0.694D+00
 Coeff:      0.150D-05-0.108D-05-0.158D-05 0.497D-05-0.241D-04-0.175D-04
 Coeff:     -0.859D-05 0.152D-03 0.109D-03-0.463D-04-0.396D-03 0.148D-03
 Coeff:      0.536D-03 0.939D-03 0.138D-02-0.260D-02-0.398D-01-0.326D-01
 Coeff:      0.379D+00 0.694D+00
 Gap=     0.032 Goal=   None    Shift=    0.000
 RMSDP=3.16D-08 MaxDP=4.74D-06 DE=-3.98D-13 OVMax= 7.14D-07

 Cycle  24  Pass 1  IDiag  1:
 E= -73.1212814403450     Delta-E=       -0.000000000000 Rises=F Damp=F
 DIIS: error= 4.29D-09 at cycle  24 NSaved=  20.
 NSaved=20 IEnMin=20 EnMin= -73.1212814403450     IErMin=20 ErrMin= 4.29D-09
 ErrMax= 4.29D-09  0.00D+00 EMaxC= 1.00D-01 BMatC= 1.70D-15 BMatP= 3.57D-14
 IDIUse=1 WtCom= 1.00D+00 WtEn= 0.00D+00
 Large coefficients: NSaved= 20 BigCof=    0.00 CofMax=   10.00 Det=-8.86D-15
 Inversion failed.  Reducing to 19 matrices.
 Large coefficients: NSaved= 19 BigCof=    0.00 CofMax=   10.00 Det=-9.39D-15
 Inversion failed.  Reducing to 18 matrices.
 Large coefficients: NSaved= 18 BigCof=    0.00 CofMax=   10.00 Det=-9.39D-15
 Inversion failed.  Reducing to 17 matrices.
 Large coefficients: NSaved= 17 BigCof=    0.00 CofMax=   10.00 Det=-9.67D-15
 Inversion failed.  Reducing to 16 matrices.
 Coeff-Com:  0.352D-05-0.578D-06 0.515D-05-0.718D-05-0.718D-05-0.221D-05
 Coeff-Com:  0.145D-04-0.302D-04-0.495D-04 0.121D-03 0.927D-03 0.739D-03
 Coeff-Com: -0.745D-02-0.741D-01-0.359D-01 0.112D+01
 Coeff:      0.352D-05-0.578D-06 0.515D-05-0.718D-05-0.718D-05-0.221D-05
 Coeff:      0.145D-04-0.302D-04-0.495D-04 0.121D-03 0.927D-03 0.739D-03
 Coeff:     -0.745D-02-0.741D-01-0.359D-01 0.112D+01
 Gap=     0.032 Goal=   None    Shift=    0.000
 RMSDP=3.00D-09 MaxDP=2.25D-07 DE=-1.71D-13 OVMax= 1.30D-07

 SCF Done:  E(ROHF) =  -73.1212814403     A.U. after   24 cycles
            NFock= 24  Conv=0.30D-08     -V/T= 2.8127
 <Sx>= 0.0000 <Sy>= 0.0000 <Sz>= 1.0000 <S**2>= 2.0000 S= 1.0000
 <L.S>=  0.00000000000    
 KE= 4.033818685366D+01 PE=-2.267702062116D+02 EE= 8.156010526239D+01
 Annihilation of the first spin contaminant:
 S**2 before annihilation     2.0000,   after     2.0000
 Leave Link  502 at Fri Mar  9 15:22:11 2018, MaxMem= 10737418240 cpu:             430.7 elap:              31.6
 (Enter /home1/apps/gaussian/16rA.03/g16/l801.exe)
 Windowed orbitals will be sorted by symmetry type.
 GenMOA:  NOpAll=  4 NOp2=4 NOpUse=  4 JSym2X=1
 FoFJK:  IHMeth= 1 ICntrl=       0 DoSepK=F KAlg= 0 I1Cent=           0 FoldK=F
 IRaf=         0 NMat=       1 IRICut=       1 DoRegI=T DoRafI=F ISym2E= 1 IDoP0=0 IntGTp=1.
 FoFCou: FMM=F IPFlag=           8 FMFlag=      100000 FMFlg1=           0
         NFxFlg=           0 DoJE=F BraDBF=F KetDBF=F FulRan=T
         wScrn=  0.000000 ICntrl=         0 IOpCl=  1 I1Cent=           0 NGrid=           0
         NMat0=    1 NMatS0=      1 NMatT0=    0 NMatD0=    1 NMtDS0=    0 NMtDT0=    0
 Petite list used in FoFCou.
 <Sx>= 0.0000 <Sy>= 0.0000 <Sz>= 1.0000 <S**2>= 2.0000 S= 1.0000
 Range of M.O.s used for correlation:     1   253
 NBasis=   261 NAE=    10 NBE=     8 NFC=     0 NFV=     0
 NROrb=    253 NOA=    10 NOB=     8 NVA=   243 NVB=   245

 **** Warning!!: The largest alpha MO coefficient is  0.27395004D+03


 **** Warning!!: The largest beta MO coefficient is  0.27381405D+03

 Singles contribution to E2=   -0.2300163006D-02
 Leave Link  801 at Fri Mar  9 15:22:18 2018, MaxMem= 10737418240 cpu:             104.1 elap:               6.6
 (Enter /home1/apps/gaussian/16rA.03/g16/l804.exe)
 Open-shell transformation, MDV= 10737418240 ITran=4 ISComp=2.
 Unit  1 TFree=       2061274 TCopy=        902168.
 Semi-Direct transformation.
 ModeAB=           4 MOrb=            10 LenV=   10735399272
 LASXX=     20543512 LTotXX=    20543512 LenRXX=    41437941
 LTotAB=    20894429 MaxLAS=   123365330 LenRXY=           0
 NonZer=    61981453 LenScr=    93733376 LnRSAI=   123365330
 LnScr1=   185794560 LExtra=     8565552 Total=    452896759
 MaxDsk= 67108864000 SrtSym=           T ITran=            4
 DoSDTr:  NPSUse= 16
 JobTyp=1 Pass  1:  I=   1 to  10.
 (rs|ai) integrals will be sorted in core.
 Complete sort for first half transformation.
 First half transformation complete.
 Begin second half transformation for I=  10.
 Complete sort for second half transformation.
 Second half transformation complete.
 ModeAB=           4 MOrb=             8 LenV=   10735399272
 LASXX=     16400518 LTotXX=    16400518 LenRXX=    31738830
 LTotAB=    15338312 MaxLAS=    98692264 LenRXY=           0
 NonZer=    48139348 LenScr=    72962048 LnRSAI=    98692264
 LnScr1=   148793344 LExtra=    50003493 Total=    402189979
 MaxDsk= 67108864000 SrtSym=           T ITran=            4
 DoSDTr:  NPSUse= 16
 JobTyp=2 Pass  1:  I=   1 to   8.
 (rs|ai) integrals will be sorted in core.
 Complete sort for first half transformation.
 First half transformation complete.
 Complete sort for second half transformation.
 Second half transformation complete.
 Spin components of T(2) and E(2):
     alpha-alpha T2 =       0.2762544245D-01 E2=     -0.1133565618D+00
     alpha-beta  T2 =       0.1013822943D+00 E2=     -0.5175974483D+00
     beta-beta   T2 =       0.1931970152D-01 E2=     -0.8822482589D-01
 ANorm=    0.1071938924D+01
 E2 =    -0.7214789991D+00 EUMP2 =    -0.73842760439406D+02
 (S**2,0)=  0.20000D+01           (S**2,1)=  0.20000D+01
 E(PUHF)=      -0.73121281440D+02        E(PMP2)=      -0.73842760439D+02
 Leave Link  804 at Fri Mar  9 15:24:22 2018, MaxMem= 10737418240 cpu:            1970.7 elap:             123.4
 (Enter /home1/apps/gaussian/16rA.03/g16/l913.exe)
 CIDS:  MDV= 10737418240.
 IFCWin=0 IBDFC=1 NFBD=     0     0 NFCmp=     0     0 NFFFC=     0     0
 Using original routines for 1st iteration.
 Using DD4UQ or CC4UQ for 2nd and later iterations.
 Keep R2 and R3 ints in memory in symmetry-blocked form, NReq=734616043.
 FoFCou: FMM=F IPFlag=           8 FMFlag=           0 FMFlg1=           0
         NFxFlg=           0 DoJE=F BraDBF=F KetDBF=F FulRan=T
         wScrn=  0.000000 ICntrl=       600 IOpCl=  0 I1Cent=           0 NGrid=           0
         NMat0=    1 NMatS0=  34191 NMatT0=    0 NMatD0=    1 NMtDS0=    0 NMtDT0=    0
 Petite list used in FoFCou.
 CIDS: In Core Option IDoMem=           1.
 CCSD(T)
 =======
 Iterations= 150 Convergence= 0.100D-06
 Produce multiple copies of IABC intergrals
 Iteration Nr.   1
 **********************
 DD1Dir will call FoFMem   1 times, MxPair=       234
 NAB=    80 NAA=    45 NBB=    28.
 DD1Dir will call FoFMem   1 times, MxPair=       234
 NAB=    80 NAA=    45 NBB=    28.
 MP4(R+Q)=  0.44175910D-03
 Maximum subspace dimension=  5
 A-vector RMS=  9.4105466D-05 Max=  1.1413011D-03 conv= 1.00D-05.
 RLE energy=       -0.7068228239
 E3=        0.14471483D-01        EROMP3=      -0.73828288956D+02
 E4(SDQ)=  -0.14701882D-01        ROMP4(SDQ)=  -0.73842990838D+02
 VARIATIONAL ENERGIES WITH THE FIRST-ORDER WAVEFUNCTION:
 DE(Corr)= -0.70651766     E(Corr)=     -73.827799105    
 NORM(A)=   0.10681667D+01
 Iteration Nr.   2
 **********************
 DD1Dir will call FoFMem   1 times, MxPair=       234
 NAB=    80 NAA=    45 NBB=    28.
 A-vector RMS=  3.0163115D-03 Max=  2.9160121D-02 conv= 1.00D-05.
 RLE energy=       -0.7027483247
 DE(Corr)= -0.69186301     E(CORR)=     -73.813144452     Delta= 1.47D-02
 NORM(A)=   0.10667135D+01
 Iteration Nr.   3
 **********************
 DD1Dir will call FoFMem   1 times, MxPair=       234
 NAB=    80 NAA=    45 NBB=    28.
 A-vector RMS=  2.0858885D-03 Max=  2.3859459D-02 conv= 1.00D-05.
 RLE energy=       -0.7105851878
 DE(Corr)= -0.69907401     E(CORR)=     -73.820355453     Delta=-7.21D-03
 NORM(A)=   0.10697123D+01
 Iteration Nr.   4
 **********************
 DD1Dir will call FoFMem   1 times, MxPair=       234
 NAB=    80 NAA=    45 NBB=    28.
 A-vector RMS=  1.6409742D-03 Max=  1.7572309D-02 conv= 1.00D-05.
 RLE energy=       -0.7165477111
 DE(Corr)= -0.70411871     E(CORR)=     -73.825400153     Delta=-5.04D-03
 NORM(A)=   0.10794046D+01
 Iteration Nr.   5
 **********************
 DD1Dir will call FoFMem   1 times, MxPair=       234
 NAB=    80 NAA=    45 NBB=    28.
 A-vector RMS=  3.6720124D-04 Max=  3.0887118D-03 conv= 1.00D-05.
 RLE energy=       -0.7172793055
 DE(Corr)= -0.71842796     E(CORR)=     -73.839709398     Delta=-1.43D-02
 NORM(A)=   0.10818129D+01
 Iteration Nr.   6
 **********************
 DD1Dir will call FoFMem   1 times, MxPair=       234
 NAB=    80 NAA=    45 NBB=    28.
 A-vector RMS=  2.1606861D-04 Max=  1.8486970D-03 conv= 1.00D-05.
 RLE energy=       -0.7164324421
 DE(Corr)= -0.71842559     E(CORR)=     -73.839707032     Delta= 2.37D-06
 NORM(A)=   0.10804979D+01
 Iteration Nr.   7
 **********************
 DD1Dir will call FoFMem   1 times, MxPair=       234
 NAB=    80 NAA=    45 NBB=    28.
 A-vector RMS=  3.5271575D-05 Max=  5.4600584D-04 conv= 1.00D-05.
 RLE energy=       -0.7163509330
 DE(Corr)= -0.71633856     E(CORR)=     -73.837620001     Delta= 2.09D-03
 NORM(A)=   0.10806468D+01
 Iteration Nr.   8
 **********************
 DD1Dir will call FoFMem   1 times, MxPair=       234
 NAB=    80 NAA=    45 NBB=    28.
 A-vector RMS=  1.4355379D-05 Max=  1.8214831D-04 conv= 1.00D-05.
 RLE energy=       -0.7163758964
 DE(Corr)= -0.71639522     E(CORR)=     -73.837676656     Delta=-5.67D-05
 NORM(A)=   0.10806886D+01
 Iteration Nr.   9
 **********************
 DD1Dir will call FoFMem   1 times, MxPair=       234
 NAB=    80 NAA=    45 NBB=    28.
 A-vector RMS=  6.2521072D-06 Max=  7.1636570D-05 conv= 1.00D-05.
 RLE energy=       -0.7163801659
 DE(Corr)= -0.71636913     E(CORR)=     -73.837650571     Delta= 2.61D-05
 NORM(A)=   0.10807124D+01
 Iteration Nr.  10
 **********************
 DD1Dir will call FoFMem   1 times, MxPair=       234
 NAB=    80 NAA=    45 NBB=    28.
 A-vector RMS=  1.8924871D-06 Max=  2.2170137D-05 conv= 1.00D-05.
 RLE energy=       -0.7163773112
 DE(Corr)= -0.71637680     E(CORR)=     -73.837658237     Delta=-7.67D-06
 NORM(A)=   0.10807097D+01
 Iteration Nr.  11
 **********************
 DD1Dir will call FoFMem   1 times, MxPair=       234
 NAB=    80 NAA=    45 NBB=    28.
 A-vector RMS=  8.3611572D-07 Max=  1.2636158D-05 conv= 1.00D-05.
 RLE energy=       -0.7163780513
 DE(Corr)= -0.71637743     E(CORR)=     -73.837658874     Delta=-6.37D-07
 NORM(A)=   0.10807106D+01
 Iteration Nr.  12
 **********************
 DD1Dir will call FoFMem   1 times, MxPair=       234
 NAB=    80 NAA=    45 NBB=    28.
 A-vector RMS=  3.1507846D-07 Max=  4.9780173D-06 conv= 1.00D-05.
 RLE energy=       -0.7163772454
 DE(Corr)= -0.71637730     E(CORR)=     -73.837658736     Delta= 1.39D-07
 NORM(A)=   0.10807106D+01
 Iteration Nr.  13
 **********************
 DD1Dir will call FoFMem   1 times, MxPair=       234
 NAB=    80 NAA=    45 NBB=    28.
 A-vector RMS=  1.7463915D-07 Max=  2.5376028D-06 conv= 1.00D-05.
 RLE energy=       -0.7163775811
 DE(Corr)= -0.71637752     E(CORR)=     -73.837658965     Delta=-2.29D-07
 NORM(A)=   0.10807112D+01
 Iteration Nr.  14
 **********************
 DD1Dir will call FoFMem   1 times, MxPair=       234
 NAB=    80 NAA=    45 NBB=    28.
 A-vector RMS=  7.3336034D-08 Max=  9.8020151D-07 conv= 1.00D-05.
 RLE energy=       -0.7163775416
 DE(Corr)= -0.71637752     E(CORR)=     -73.837658965     Delta=-4.18D-10
 NORM(A)=   0.10807115D+01
 CI/CC converged in   14 iterations to DelEn=-4.18D-10 Conv= 1.00D-07 ErrA1= 7.33D-08 Conv= 1.00D-05
 Wavefunction amplitudes converged. E(Corr)=     -73.837658965    
 Largest amplitude= 6.36D-02
 Time for triples=    11620.45 seconds.
 T4(CCSD)= -0.33797052D-01
 T5(CCSD)=  0.24750839D-02
 CCSD(T)= -0.73868980934D+02
 Discarding MO integrals.
 Leave Link  913 at Fri Mar  9 15:40:38 2018, MaxMem= 10737418240 cpu:           15590.6 elap:             975.5
 (Enter /home1/apps/gaussian/16rA.03/g16/l601.exe)
 Copying SCF densities to generalized density rwf, IOpCl= 0 IROHF=1.

 **********************************************************************

            Population analysis using the SCF density.

 **********************************************************************

 Orbital symmetries:
       Occupied  (SG) (SG) (PI) (PI) (SG) (PI) (PI) (SG) (SG) (?A)
       Virtual   (PI) (PI) (SG) (SG) (SG) (?A) (PI) (PI) (?A) (PI)
                 (PI) (SG) (SG) (?A) (SG) (PI) (PI) (?A) (PI) (PI)
                 (SG) (PI) (PI) (SG) (?A) (?A) (?A) (PHI) (PHI)
                 (SG) (PI) (PI) (SG) (SG) (PI) (PI) (PI) (PI) (SG)
                 (?A) (PI) (PI) (?A) (SG) (DLTA) (DLTA) (SG) (PI)
                 (PI) (?B) (PHI) (PHI) (?B) (?B) (DLTA) (DLTA)
                 (PI) (PI) (PHI) (PHI) (SG) (SG) (PI) (PI) (DLTA)
                 (DLTA) (SG) (PI) (PI) (SG) (PI) (PI) (?A) (?A)
                 (SG) (PI) (PI) (SG) (DLTA) (DLTA) (PHI) (PHI)
                 (SG) (SG) (PI) (PI) (DLTA) (DLTA) (PI) (PI) (PHI)
                 (PHI) (DLTA) (DLTA) (?C) (?C) (?C) (PHI) (PHI)
                 (SG) (PI) (PI) (PI) (PI) (DLTA) (DLTA) (SG) (PI)
                 (PI) (SG) (SG) (SG) (DLTA) (DLTA) (PI) (PI) (PI)
                 (PI) (SG) (SG) (PHI) (PHI) (DLTA) (DLTA) (DLTA)
                 (DLTA) (SG) (PI) (PI) (PI) (PI) (SG) (?D) (?D)
                 (SG) (DLTA) (DLTA) (?D) (?D) (SG) (PI) (PI) (SG)
                 (?E) (?E) (PHI) (PHI) (DLTA) (DLTA) (PI) (PI)
                 (DLTA) (DLTA) (SG) (PI) (PI) (SG) (PI) (PI) (SG)
                 (SG) (SG) (PI) (PI) (SG) (DLTA) (DLTA) (PI) (PI)
                 (SG) (SG) (SG) (PI) (PI) (SG) (DLTA) (DLTA) (PI)
                 (PI) (SG) (PI) (PI) (SG) (DLTA) (DLTA) (PI) (PI)
                 (SG) (SG) (SG) (PI) (PI) (SG) (PI) (PI) (SG) (SG)
                 (SG) (PI) (PI) (SG) (DLTA) (DLTA) (PI) (PI) (SG)
                 (SG) (SG) (PI) (PI) (SG) (PI) (PI) (SG) (SG) (SG)
                 (PI) (PI) (SG) (SG) (SG) (PI) (PI) (SG) (SG) (PI)
                 (PI) (SG) (SG) (SG) (PI) (PI) (SG) (SG) (SG) (SG)
                 (PI) (PI) (SG) (SG) (SG) (SG) (SG)
 Unable to determine electronic state:  an orbital has unidentified symmetry.
 Alpha  occ. eigenvalues --   -2.95382  -2.01716  -1.80774  -1.80774  -1.12179
 Alpha  occ. eigenvalues --   -0.65738  -0.65738  -0.54588  -0.32905  -0.19942
 Alpha virt. eigenvalues --    0.01266   0.01266   0.02088   0.02818   0.04913
 Alpha virt. eigenvalues --    0.04913   0.05028   0.05198   0.05361   0.05753
 Alpha virt. eigenvalues --    0.05753   0.08496   0.12400   0.14295   0.14841
 Alpha virt. eigenvalues --    0.16104   0.16104   0.19112   0.20170   0.20170
 Alpha virt. eigenvalues --    0.21112   0.24565   0.24565   0.26239   0.27607
 Alpha virt. eigenvalues --    0.30849   0.30970   0.31650   0.31650   0.33503
 Alpha virt. eigenvalues --    0.34371   0.34371   0.39200   0.44936   0.47168
 Alpha virt. eigenvalues --    0.47168   0.59318   0.59318   0.63052   0.64572
 Alpha virt. eigenvalues --    0.66796   0.66796   0.70434   0.71984   0.80083
 Alpha virt. eigenvalues --    0.80589   0.84022   0.90769   0.90769   0.96822
 Alpha virt. eigenvalues --    0.99717   0.99717   0.99977   0.99985   1.01527
 Alpha virt. eigenvalues --    1.01783   1.05403   1.05403   1.07239   1.07239
 Alpha virt. eigenvalues --    1.10299   1.22823   1.30895   1.30895   1.33177
 Alpha virt. eigenvalues --    1.34108   1.48588   1.57101   1.57101   1.67037
 Alpha virt. eigenvalues --    1.83694   1.83694   1.90956   1.96413   1.96631
 Alpha virt. eigenvalues --    2.14338   2.14338   2.14968   2.24804   2.25094
 Alpha virt. eigenvalues --    2.29390   2.29390   2.39021   2.60500   2.62577
 Alpha virt. eigenvalues --    2.62577   2.72505   2.72940   2.87225   2.87225
 Alpha virt. eigenvalues --    3.26949   3.26949   3.37265   3.39451   3.44192
 Alpha virt. eigenvalues --    3.45109   3.45117   3.50502   3.50502   3.67062
 Alpha virt. eigenvalues --    3.72691   3.72691   3.95588   3.95588   4.07818
 Alpha virt. eigenvalues --    4.08424   4.12065   4.48819   4.48819   4.67849
 Alpha virt. eigenvalues --    4.91346   5.07252   5.12408   5.15248   5.26872
 Alpha virt. eigenvalues --    5.26872   5.34471   5.34471   5.89229   6.51092
 Alpha virt. eigenvalues --    6.55638   6.55638   6.85467   6.85514   7.10625
 Alpha virt. eigenvalues --    7.10659   7.19806   7.49340   7.49340   7.55868
 Alpha virt. eigenvalues --    7.55868   8.88996   9.36417   9.36417   9.42911
 Alpha virt. eigenvalues --    9.53223   9.54687   9.54687   9.54908  10.16193
 Alpha virt. eigenvalues --   10.35069  10.35069  10.81996  11.10660  11.10664
 Alpha virt. eigenvalues --   11.11291  11.11291  11.24253  11.24625  11.40926
 Alpha virt. eigenvalues --   11.40926  11.65577  11.66110  11.92995  12.04088
 Alpha virt. eigenvalues --   12.04088  13.75549  15.24279  15.24279  15.74889
 Alpha virt. eigenvalues --   16.92077  19.40661  19.69384  19.69384  20.32426
 Alpha virt. eigenvalues --   24.35034  24.35469  24.55275  24.55275  25.51989
 Alpha virt. eigenvalues --   38.52845  39.87906  41.76705  41.76705  42.22280
 Alpha virt. eigenvalues --   43.66889  43.66893  43.82302  43.82302  44.67683
 Alpha virt. eigenvalues --   45.81236  45.81236  46.78397  61.05707  61.06165
 Alpha virt. eigenvalues --   61.21887  61.21887  61.98672  74.75000  81.19052
 Alpha virt. eigenvalues --   86.39041  86.39041  86.84796 119.14770 119.14770
 Alpha virt. eigenvalues --  119.96898 136.98465 145.85177 171.40368 171.40368
 Alpha virt. eigenvalues --  171.82605 225.78894 225.79062 225.89453 225.89453
 Alpha virt. eigenvalues --  226.38002 257.74249 259.27381 286.41462 286.41462
 Alpha virt. eigenvalues --  287.17681 341.30310 341.30310 341.71567 489.84584
 Alpha virt. eigenvalues --  555.24262 705.21805 705.21805 705.60739 981.69144
 Alpha virt. eigenvalues -- 1529.756101554.944921554.944921555.300162090.04717
 Alpha virt. eigenvalues -- 3771.297133771.297133771.607904733.143895659.89133
 Alpha virt. eigenvalues -- **************************************************
 Alpha virt. eigenvalues -- **************************************************
 Alpha virt. eigenvalues -- ******************************
     Molecular Orbital Coefficients:
                           4         5         6         7         8
                           O         O         O         O         O
     Eigenvalues --    -1.80774  -1.12179  -0.65738  -0.65738  -0.54588
   1 1   Ti 1S          0.00000   0.00000   0.00000   0.00000   0.00000
   2        2S          0.00000  -0.00000   0.00000   0.00000  -0.00000
   3        3S          0.00000   0.00000   0.00000   0.00000   0.00000
   4        4S          0.00000  -0.00000   0.00000   0.00000  -0.00000
   5        5S          0.00000   0.00000   0.00000   0.00000   0.00000
   6        6S          0.00000  -0.00001   0.00000   0.00000  -0.00001
   7        7S          0.00000   0.00002   0.00000   0.00000   0.00002
   8        8S          0.00000  -0.00008   0.00000   0.00000  -0.00007
   9        9S          0.00000   0.00024   0.00000   0.00000   0.00020
  10       10S          0.00000  -0.00071   0.00000   0.00000  -0.00057
  11       11S          0.00000   0.00207   0.00000   0.00000   0.00170
  12       12S          0.00000  -0.00627   0.00000   0.00000  -0.00522
  13       13S          0.00000  -0.00676   0.00000   0.00000  -0.00513
  14       14S          0.00000   0.09897   0.00000   0.00000   0.07931
  15       15S          0.00000   0.04870   0.00000   0.00000  -0.00063
  16       16S          0.00000  -0.19704   0.00000   0.00000  -0.14826
  17       17S          0.00000  -0.16554   0.00000   0.00000  -0.22229
  18       18S          0.00000  -0.01718   0.00000   0.00000  -0.06257
  19       19S          0.00000   0.05182   0.00000   0.00000   0.11162
  20       20S          0.00000  -0.01368   0.00000   0.00000  -0.02102
  21       21S          0.00000  -0.06731   0.00000   0.00000  -0.02855
  22       22S          0.00000   0.06919   0.00000   0.00000   0.08835
  23       23S          0.00000   0.00295   0.00000   0.00000   0.00684
  24       24PX         0.00000   0.00000  -0.00000   0.00000   0.00000
  25       24PY         0.00000   0.00000   0.00000  -0.00000   0.00000
  26       24PZ         0.00000   0.00000   0.00000   0.00000   0.00000
  27       25PX         0.00000   0.00000   0.00000   0.00000   0.00000
  28       25PY        -0.00000   0.00000   0.00000   0.00000   0.00000
  29       25PZ         0.00000  -0.00000   0.00000   0.00000  -0.00000
  30       26PX         0.00000   0.00000  -0.00000   0.00000   0.00000
  31       26PY         0.00002   0.00000   0.00000  -0.00000   0.00000
  32       26PZ         0.00000   0.00001   0.00000   0.00000   0.00001
  33       27PX         0.00000   0.00000   0.00002   0.00000   0.00000
  34       27PY        -0.00007   0.00000   0.00000   0.00002   0.00000
  35       27PZ         0.00000  -0.00003   0.00000   0.00000  -0.00003
  36       28PX         0.00000   0.00000  -0.00007   0.00000   0.00000
  37       28PY         0.00025   0.00000   0.00000  -0.00007   0.00000
  38       28PZ         0.00000   0.00013   0.00000   0.00000   0.00011
  39       29PX         0.00000   0.00000   0.00024   0.00000   0.00000
  40       29PY        -0.00092   0.00000   0.00000   0.00024   0.00000
  41       29PZ         0.00000  -0.00046   0.00000   0.00000  -0.00038
  42       30PX         0.00000   0.00000  -0.00084   0.00000   0.00000
  43       30PY         0.00327   0.00000   0.00000  -0.00084   0.00000
  44       30PZ         0.00000   0.00164   0.00000   0.00000   0.00131
  45       31PX         0.00000   0.00000  -0.00003   0.00000   0.00000
  46       31PY         0.00092   0.00000   0.00000  -0.00003   0.00000
  47       31PZ         0.00000   0.00040   0.00000   0.00000  -0.00077
  48       32PX         0.00000   0.00000   0.02194   0.00000   0.00000
  49       32PY        -0.09071   0.00000   0.00000   0.02194   0.00000
  50       32PZ         0.00000  -0.04590   0.00000   0.00000  -0.02457
  51       33PX         0.00000   0.00000  -0.03764   0.00000   0.00000
  52       33PY         0.10425   0.00000   0.00000  -0.03764   0.00000
  53       33PZ         0.00000   0.06785   0.00000   0.00000  -0.09954
  54       34PX         0.00000   0.00000  -0.08066   0.00000   0.00000
  55       34PY         0.30491   0.00000   0.00000  -0.08066   0.00000
  56       34PZ         0.00000   0.15738   0.00000   0.00000   0.11327
  57       35PX         0.00000   0.00000  -0.18677   0.00000   0.00000
  58       35PY         0.58443   0.00000   0.00000  -0.18677   0.00000
  59       35PZ         0.00000   0.31354   0.00000   0.00000  -0.26085
  60       36PX         0.00000   0.00000  -0.10159   0.00000   0.00000
  61       36PY         0.29189   0.00000   0.00000  -0.10159   0.00000
  62       36PZ         0.00000   0.17561   0.00000   0.00000   0.12316
  63       37PX         0.00000   0.00000  -0.05997   0.00000   0.00000
  64       37PY         0.03121   0.00000   0.00000  -0.05997   0.00000
  65       37PZ         0.00000   0.04232   0.00000   0.00000   0.07210
  66       38PX         0.00000   0.00000  -0.01726   0.00000   0.00000
  67       38PY        -0.01291   0.00000   0.00000  -0.01726   0.00000
  68       38PZ         0.00000  -0.02394   0.00000   0.00000  -0.03515
  69       39PX         0.00000   0.00000  -0.01130   0.00000   0.00000
  70       39PY        -0.00034   0.00000   0.00000  -0.01130   0.00000
  71       39PZ         0.00000   0.00191   0.00000   0.00000  -0.00556
  72       40PX         0.00000   0.00000   0.03127   0.00000   0.00000
  73       40PY        -0.07797   0.00000   0.00000   0.03127   0.00000
  74       40PZ         0.00000  -0.05335   0.00000   0.00000   0.10639
  75       41PX         0.00000   0.00000   0.07792   0.00000   0.00000
  76       41PY        -0.12677   0.00000   0.00000   0.07792   0.00000
  77       41PZ         0.00000  -0.07584   0.00000   0.00000   0.40507
  78       42PX         0.00000   0.00000   0.00189   0.00000   0.00000
  79       42PY        -0.00018   0.00000   0.00000   0.00189   0.00000
  80       42PZ         0.00000  -0.00034   0.00000   0.00000   0.00089
  81       43D 0        0.00000  -0.00000   0.00000   0.00000   0.00002
  82       43D+1        0.00000   0.00000   0.00000   0.00000   0.00000
  83       43D-1        0.00000   0.00000   0.00000   0.00000   0.00000
  84       43D+2        0.00000   0.00000   0.00000   0.00000   0.00000
  85       43D-2        0.00000   0.00000   0.00000   0.00000   0.00000
  86       44D 0        0.00000   0.00363   0.00000   0.00000   0.01373
  87       44D+1        0.00000   0.00000  -0.00616   0.00000   0.00000
  88       44D-1       -0.00102   0.00000   0.00000  -0.00616   0.00000
  89       44D+2        0.00000  -0.00000   0.00000   0.00000  -0.00000
  90       44D-2        0.00000   0.00000   0.00000   0.00000   0.00000
  91       45D 0        0.00000   0.01881   0.00000   0.00000   0.07363
  92       45D+1        0.00000   0.00000  -0.03188   0.00000   0.00000
  93       45D-1       -0.00509   0.00000   0.00000  -0.03188   0.00000
  94       45D+2        0.00000  -0.00000   0.00000   0.00000  -0.00000
  95       45D-2        0.00000   0.00000   0.00000   0.00000   0.00000
  96       46D 0        0.00000   0.03559   0.00000   0.00000   0.10713
  97       46D+1        0.00000   0.00000  -0.06421   0.00000   0.00000
  98       46D-1       -0.01391   0.00000   0.00000  -0.06421   0.00000
  99       46D+2        0.00000  -0.00000   0.00000   0.00000  -0.00000
 100       46D-2        0.00000   0.00000   0.00000   0.00000   0.00000
 101       47D 0        0.00000   0.01249   0.00000   0.00000   0.14452
 102       47D+1        0.00000   0.00000  -0.05824   0.00000   0.00000
 103       47D-1       -0.01389   0.00000   0.00000  -0.05824   0.00000
 104       47D+2        0.00000  -0.00000   0.00000   0.00000  -0.00000
 105       47D-2        0.00000   0.00000   0.00000   0.00000   0.00000
 106       48D 0        0.00000   0.05878   0.00000   0.00000   0.23640
 107       48D+1        0.00000   0.00000  -0.10568   0.00000   0.00000
 108       48D-1       -0.00319   0.00000   0.00000  -0.10568   0.00000
 109       48D+2        0.00000  -0.00000   0.00000   0.00000  -0.00000
 110       48D-2        0.00000   0.00000   0.00000   0.00000   0.00000
 111       49D 0        0.00000   0.01643   0.00000   0.00000   0.10698
 112       49D+1        0.00000   0.00000  -0.01303   0.00000   0.00000
 113       49D-1        0.01102   0.00000   0.00000  -0.01303   0.00000
 114       49D+2        0.00000  -0.00000   0.00000   0.00000  -0.00000
 115       49D-2        0.00000   0.00000   0.00000   0.00000   0.00000
 116       50D 0        0.00000   0.00397   0.00000   0.00000   0.01636
 117       50D+1        0.00000   0.00000   0.01057   0.00000   0.00000
 118       50D-1        0.00406   0.00000   0.00000   0.01057   0.00000
 119       50D+2        0.00000  -0.00000   0.00000   0.00000  -0.00000
 120       50D-2        0.00000   0.00000   0.00000   0.00000   0.00000
 121       51D 0        0.00000   0.00626   0.00000   0.00000   0.05766
 122       51D+1        0.00000   0.00000  -0.00542   0.00000   0.00000
 123       51D-1        0.00116   0.00000   0.00000  -0.00542   0.00000
 124       51D+2        0.00000  -0.00000   0.00000   0.00000  -0.00000
 125       51D-2        0.00000   0.00000   0.00000   0.00000   0.00000
 126       52D 0        0.00000   0.04778   0.00000   0.00000   0.09700
 127       52D+1        0.00000   0.00000  -0.05866   0.00000   0.00000
 128       52D-1       -0.00971   0.00000   0.00000  -0.05866   0.00000
 129       52D+2        0.00000  -0.00000   0.00000   0.00000  -0.00000
 130       52D-2        0.00000   0.00000   0.00000   0.00000   0.00000
 131       53D 0        0.00000  -0.00059   0.00000   0.00000   0.00007
 132       53D+1        0.00000   0.00000   0.00029   0.00000   0.00000
 133       53D-1       -0.00002   0.00000   0.00000   0.00029   0.00000
 134       53D+2        0.00000   0.00000   0.00000   0.00000   0.00000
 135       53D-2        0.00000   0.00000   0.00000   0.00000   0.00000
 136       54F 0        0.00000  -0.00172   0.00000   0.00000  -0.01023
 137       54F+1        0.00000   0.00000   0.00701   0.00000   0.00000
 138       54F-1        0.00023   0.00000   0.00000   0.00701   0.00000
 139       54F+2        0.00000   0.00000   0.00000   0.00000   0.00000
 140       54F-2        0.00000   0.00000   0.00000   0.00000   0.00000
 141       54F+3        0.00000   0.00000  -0.00034   0.00000   0.00000
 142       54F-3       -0.00187   0.00000   0.00000   0.00034   0.00000
 143       55F 0        0.00000  -0.00367   0.00000   0.00000  -0.02895
 144       55F+1        0.00000   0.00000   0.02434   0.00000   0.00000
 145       55F-1        0.00183   0.00000   0.00000   0.02434   0.00000
 146       55F+2        0.00000  -0.00000   0.00000   0.00000  -0.00000
 147       55F-2        0.00000   0.00000   0.00000   0.00000   0.00000
 148       55F+3        0.00000   0.00000  -0.00061   0.00000   0.00000
 149       55F-3       -0.00427   0.00000   0.00000   0.00061   0.00000
 150       56F 0        0.00000  -0.00840   0.00000   0.00000  -0.02443
 151       56F+1        0.00000   0.00000   0.01572   0.00000   0.00000
 152       56F-1       -0.00671   0.00000   0.00000   0.01572   0.00000
 153       56F+2        0.00000   0.00000   0.00000   0.00000   0.00000
 154       56F-2        0.00000   0.00000   0.00000   0.00000   0.00000
 155       56F+3        0.00000   0.00000  -0.00045   0.00000   0.00000
 156       56F-3       -0.00342   0.00000   0.00000   0.00045   0.00000
 157       57F 0        0.00000  -0.00092   0.00000   0.00000  -0.00852
 158       57F+1        0.00000   0.00000  -0.00893   0.00000   0.00000
 159       57F-1       -0.00340   0.00000   0.00000  -0.00893   0.00000
 160       57F+2        0.00000  -0.00000   0.00000   0.00000  -0.00000
 161       57F-2        0.00000   0.00000   0.00000   0.00000   0.00000
 162       57F+3        0.00000   0.00000   0.00009   0.00000   0.00000
 163       57F-3       -0.00001   0.00000   0.00000  -0.00009   0.00000
 164       58G 0        0.00000   0.00004   0.00000   0.00000   0.00474
 165       58G+1        0.00000   0.00000  -0.00339   0.00000   0.00000
 166       58G-1       -0.00137   0.00000   0.00000  -0.00339   0.00000
 167       58G+2        0.00000   0.00000   0.00000   0.00000  -0.00000
 168       58G-2        0.00000   0.00000   0.00000   0.00000   0.00000
 169       58G+3        0.00000   0.00000  -0.00007   0.00000   0.00000
 170       58G-3        0.00005   0.00000   0.00000   0.00007   0.00000
 171       58G+4        0.00000  -0.00004   0.00000   0.00000  -0.00016
 172       58G-4        0.00000   0.00000   0.00000   0.00000   0.00000
 173       59G 0        0.00000  -0.00078   0.00000   0.00000   0.00690
 174       59G+1        0.00000   0.00000  -0.00445   0.00000   0.00000
 175       59G-1       -0.00158   0.00000   0.00000  -0.00445   0.00000
 176       59G+2        0.00000  -0.00000   0.00000   0.00000  -0.00000
 177       59G-2        0.00000   0.00000   0.00000   0.00000   0.00000
 178       59G+3        0.00000   0.00000  -0.00018   0.00000   0.00000
 179       59G-3        0.00014   0.00000   0.00000   0.00018   0.00000
 180       59G+4        0.00000  -0.00018   0.00000   0.00000  -0.00053
 181       59G-4        0.00000   0.00000   0.00000   0.00000   0.00000
 182       60G 0        0.00000   0.00267   0.00000   0.00000   0.00133
 183       60G+1        0.00000   0.00000  -0.00335   0.00000   0.00000
 184       60G-1        0.00233   0.00000   0.00000  -0.00335   0.00000
 185       60G+2        0.00000   0.00000   0.00000   0.00000   0.00000
 186       60G-2        0.00000   0.00000   0.00000   0.00000   0.00000
 187       60G+3        0.00000   0.00000  -0.00021   0.00000   0.00000
 188       60G-3        0.00004   0.00000   0.00000   0.00021   0.00000
 189       60G+4        0.00000  -0.00007   0.00000   0.00000  -0.00050
 190       60G-4        0.00000   0.00000   0.00000   0.00000   0.00000
 191 2   O  1S          0.00000  -0.00000   0.00000   0.00000  -0.00000
 192        2S          0.00000   0.00001   0.00000   0.00000   0.00000
 193        3S          0.00000  -0.00004   0.00000   0.00000  -0.00001
 194        4S          0.00000   0.00028   0.00000   0.00000   0.00008
 195        5S          0.00000  -0.00292   0.00000   0.00000  -0.00077
 196        6S          0.00000  -0.04313   0.00000   0.00000  -0.01564
 197        7S          0.00000  -0.14364   0.00000   0.00000  -0.03305
 198        8S          0.00000   0.53393   0.00000   0.00000   0.01853
 199        9S          0.00000   0.13238   0.00000   0.00000   0.02082
 200       10S          0.00000   0.42054   0.00000   0.00000  -0.11381
 201       11S          0.00000  -0.00813   0.00000   0.00000   0.02226
 202       12S          0.00000   0.04234   0.00000   0.00000   0.01137
 203       13S          0.00000  -0.01450   0.00000   0.00000  -0.13394
 204       14PX         0.00000   0.00000   0.00780   0.00000   0.00000
 205       14PY         0.00085   0.00000   0.00000   0.00780   0.00000
 206       14PZ         0.00000  -0.00165   0.00000   0.00000   0.00622
 207       15PX         0.00000   0.00000   0.08194   0.00000   0.00000
 208       15PY         0.00988   0.00000   0.00000   0.08194   0.00000
 209       15PZ         0.00000  -0.01865   0.00000   0.00000   0.06961
 210       16PX         0.00000   0.00000   0.26536   0.00000   0.00000
 211       16PY         0.03444   0.00000   0.00000   0.26536   0.00000
 212       16PZ         0.00000  -0.06664   0.00000   0.00000   0.23887
 213       17PX         0.00000   0.00000   0.43302   0.00000   0.00000
 214       17PY         0.05021   0.00000   0.00000   0.43302   0.00000
 215       17PZ         0.00000  -0.07053   0.00000   0.00000   0.35594
 216       18PX         0.00000   0.00000   0.32323   0.00000   0.00000
 217       18PY         0.03088   0.00000   0.00000   0.32323   0.00000
 218       18PZ         0.00000  -0.00209   0.00000   0.00000   0.23111
 219       19PX         0.00000   0.00000   0.00498   0.00000   0.00000
 220       19PY         0.00103   0.00000   0.00000   0.00498   0.00000
 221       19PZ         0.00000  -0.00167   0.00000   0.00000   0.00583
 222       20PX         0.00000   0.00000  -0.00204   0.00000   0.00000
 223       20PY        -0.00021   0.00000   0.00000  -0.00204   0.00000
 224       20PZ         0.00000   0.00041   0.00000   0.00000  -0.00157
 225       21PX         0.00000   0.00000   0.04705   0.00000   0.00000
 226       21PY         0.00964   0.00000   0.00000   0.04705   0.00000
 227       21PZ         0.00000  -0.00405   0.00000   0.00000   0.02205
 228       22D 0        0.00000  -0.00592   0.00000   0.00000   0.01309
 229       22D+1        0.00000   0.00000   0.01234   0.00000   0.00000
 230       22D-1        0.00685   0.00000   0.00000   0.01234   0.00000
 231       22D+2        0.00000   0.00000   0.00000   0.00000  -0.00000
 232       22D-2        0.00000   0.00000   0.00000   0.00000   0.00000
 233       23D 0        0.00000  -0.00204   0.00000   0.00000   0.03038
 234       23D+1        0.00000   0.00000   0.04034   0.00000   0.00000
 235       23D-1        0.01201   0.00000   0.00000   0.04034   0.00000
 236       23D+2        0.00000  -0.00000   0.00000   0.00000  -0.00000
 237       23D-2        0.00000   0.00000   0.00000   0.00000   0.00000
 238       24D 0        0.00000  -0.00037   0.00000   0.00000   0.00048
 239       24D+1        0.00000   0.00000   0.00045   0.00000   0.00000
 240       24D-1        0.00028   0.00000   0.00000   0.00045   0.00000
 241       24D+2        0.00000   0.00000   0.00000   0.00000  -0.00000
 242       24D-2        0.00000   0.00000   0.00000   0.00000   0.00000
 243       25D 0        0.00000   0.00265   0.00000   0.00000   0.01586
 244       25D+1        0.00000   0.00000   0.03274   0.00000   0.00000
 245       25D-1        0.00381   0.00000   0.00000   0.03274   0.00000
 246       25D+2        0.00000  -0.00000   0.00000   0.00000  -0.00000
 247       25D-2        0.00000   0.00000   0.00000   0.00000   0.00000
 248       26F 0        0.00000  -0.00154   0.00000   0.00000   0.00689
 249       26F+1        0.00000   0.00000   0.00808   0.00000   0.00000
 250       26F-1        0.00418   0.00000   0.00000   0.00808   0.00000
 251       26F+2        0.00000  -0.00000   0.00000   0.00000  -0.00000
 252       26F-2        0.00000   0.00000   0.00000   0.00000   0.00000
 253       26F+3        0.00000   0.00000   0.00001   0.00000   0.00000
 254       26F-3       -0.00005   0.00000   0.00000  -0.00001   0.00000
 255       27F 0        0.00000  -0.00002   0.00000   0.00000   0.00694
 256       27F+1        0.00000   0.00000   0.00753   0.00000   0.00000
 257       27F-1        0.00054   0.00000   0.00000   0.00753   0.00000
 258       27F+2        0.00000  -0.00000   0.00000   0.00000  -0.00000
 259       27F-2        0.00000   0.00000   0.00000   0.00000   0.00000
 260       27F+3        0.00000   0.00000  -0.00000   0.00000   0.00000
 261       27F-3       -0.00002   0.00000   0.00000   0.00000   0.00000
                           9        10        11        12        13
                           O         O         V         V         V
     Eigenvalues --    -0.32905  -0.19942   0.01266   0.01266   0.02088
   1 1   Ti 1S          0.00000  -0.00000   0.00000   0.00000   0.00000
   2        2S         -0.00000   0.00000   0.00000   0.00000  -0.00000
   3        3S          0.00000  -0.00000   0.00000   0.00000   0.00000
   4        4S         -0.00000   0.00000   0.00000   0.00000  -0.00000
   5        5S          0.00000  -0.00000   0.00000   0.00000   0.00000
   6        6S         -0.00001   0.00000   0.00000   0.00000  -0.00000
   7        7S          0.00003  -0.00000   0.00000   0.00000   0.00000
   8        8S         -0.00010   0.00000   0.00000   0.00000  -0.00001
   9        9S          0.00031  -0.00000   0.00000   0.00000   0.00003
  10       10S         -0.00089   0.00000   0.00000   0.00000  -0.00009
  11       11S          0.00263  -0.00000   0.00000   0.00000   0.00025
  12       12S         -0.00803   0.00000   0.00000   0.00000  -0.00076
  13       13S         -0.00853   0.00000   0.00000   0.00000  -0.00046
  14       14S          0.12854  -0.00000   0.00000   0.00000   0.00938
  15       15S          0.06573  -0.00000   0.00000   0.00000  -0.00482
  16       16S         -0.27295   0.00000   0.00000   0.00000   0.01227
  17       17S         -0.29544  -0.00000   0.00000   0.00000   0.11628
  18       18S          0.19037  -0.00000   0.00000   0.00000   0.89091
  19       19S          0.68448   0.00000   0.00000   0.00000  -1.16929
  20       20S          0.33702  -0.00000   0.00000   0.00000   2.40445
  21       21S         -0.08976   0.00000   0.00000   0.00000  -0.00014
  22       22S          0.10262   0.00000   0.00000   0.00000  -0.11310
  23       23S          0.01833   0.00000   0.00000   0.00000  -1.96778
  24       24PX         0.00000   0.00000   0.00000  -0.00000   0.00000
  25       24PY         0.00000   0.00000  -0.00000   0.00000   0.00000
  26       24PZ        -0.00000   0.00000   0.00000   0.00000  -0.00000
  27       25PX         0.00000   0.00000   0.00000   0.00000   0.00000
  28       25PY         0.00000   0.00000   0.00000   0.00000   0.00000
  29       25PZ         0.00000  -0.00000   0.00000   0.00000   0.00000
  30       26PX         0.00000   0.00000   0.00000  -0.00000   0.00000
  31       26PY         0.00000   0.00000  -0.00000   0.00000   0.00000
  32       26PZ        -0.00000   0.00000   0.00000   0.00000  -0.00000
  33       27PX         0.00000   0.00000   0.00000   0.00001   0.00000
  34       27PY         0.00000   0.00000   0.00001   0.00000   0.00000
  35       27PZ         0.00000  -0.00000   0.00000   0.00000   0.00001
  36       28PX         0.00000   0.00000   0.00000  -0.00005   0.00000
[...]
  41       29PZ        -0.00003  -0.00001  -0.00001  -0.00000
  42       30PX         0.00032   0.00016   0.00016   0.00000
  43       30PY         0.00032   0.00016   0.00016   0.00000
  44       30PZ         0.00030   0.00015   0.00015   0.00000
  45       31PX         0.00023   0.00012   0.00012   0.00000
  46       31PY         0.00023   0.00012   0.00012   0.00000
  47       31PZ         0.00031   0.00015   0.00015   0.00000
  48       32PX        -0.05637  -0.02819  -0.02819   0.00000
  49       32PY        -0.05637  -0.02819  -0.02819   0.00000
  50       32PZ        -0.05488  -0.02752  -0.02736  -0.00016
  51       33PX         0.12480   0.06240   0.06240   0.00000
  52       33PY         0.12480   0.06240   0.06240   0.00000
  53       33PZ         0.17399   0.08784   0.08615   0.00168
  54       34PX         0.53674   0.26837   0.26837   0.00000
  55       34PY         0.53674   0.26837   0.26837   0.00000
  56       34PZ         0.50650   0.25381   0.25269   0.00112
  57       35PX         1.19535   0.59768   0.59768   0.00000
  58       35PY         1.19535   0.59768   0.59768   0.00000
  59       35PZ         1.47589   0.74022   0.73567   0.00455
  60       36PX         0.51637   0.25818   0.25818   0.00000
  61       36PY         0.51637   0.25818   0.25818   0.00000
  62       36PZ         0.45551   0.22591   0.22960  -0.00370
  63       37PX         0.01382   0.00691   0.00691   0.00000
  64       37PY         0.01382   0.00691   0.00691   0.00000
  65       37PZ         0.05365   0.02958   0.02407   0.00550
  66       38PX        -0.01325  -0.00662  -0.00662   0.00000
  67       38PY        -0.01325  -0.00662  -0.00662   0.00000
  68       38PZ         0.04495   0.05162  -0.00668   0.05830
  69       39PX        -0.00245  -0.00122  -0.00122   0.00000
  70       39PY        -0.00245  -0.00122  -0.00122   0.00000
  71       39PZ         0.03936   0.04079  -0.00142   0.04221
  72       40PX        -0.09534  -0.04767  -0.04767   0.00000
  73       40PY        -0.09534  -0.04767  -0.04767   0.00000
  74       40PZ        -0.14559  -0.07360  -0.07199  -0.00160
  75       41PX        -0.26871  -0.13436  -0.13436   0.00000
  76       41PY        -0.26871  -0.13436  -0.13436   0.00000
  77       41PZ        -0.59457  -0.29901  -0.29556  -0.00345
  78       42PX         0.00016   0.00008   0.00008   0.00000
  79       42PY         0.00016   0.00008   0.00008   0.00000
  80       42PZ         0.00092   0.00081   0.00010   0.00071
  81       43D 0        0.00000   0.00000   0.00000  -0.00000
  82       43D+1       -0.00000  -0.00000  -0.00000   0.00000
  83       43D-1       -0.00000  -0.00000  -0.00000   0.00000
  84       43D+2       -0.00000  -0.00000   0.00000  -0.00000
  85       43D-2       -0.00000  -0.00000  -0.00000  -0.00000
  86       44D 0        0.00355   0.00178   0.00177   0.00001
  87       44D+1        0.00067   0.00033   0.00033   0.00000
  88       44D-1        0.00067   0.00033   0.00033   0.00000
  89       44D+2        0.00322   0.00322   0.00000   0.00322
  90       44D-2        0.00000   0.00000  -0.00000   0.00000
  91       45D 0        0.04699   0.02357   0.02342   0.00015
  92       45D+1        0.00874   0.00437   0.00437   0.00000
  93       45D-1        0.00874   0.00437   0.00437   0.00000
  94       45D+2        0.04045   0.04045  -0.00000   0.04045
  95       45D-2        0.00000   0.00000   0.00000   0.00000
  96       46D 0        0.12021   0.06037   0.05984   0.00052
  97       46D+1        0.03340   0.01670   0.01670   0.00000
  98       46D-1        0.03340   0.01670   0.01670   0.00000
  99       46D+2        0.13501   0.13501  -0.00000   0.13501
 100       46D-2        0.00000   0.00000  -0.00000   0.00000
 101       47D 0        0.23906   0.11966   0.11940   0.00026
 102       47D+1        0.05130   0.02565   0.02565   0.00000
 103       47D-1        0.05130   0.02565   0.02565   0.00000
 104       47D+2        0.15063   0.15063  -0.00000   0.15063
 105       47D-2        0.00000   0.00000  -0.00000   0.00000
 106       48D 0        0.34456   0.17370   0.17086   0.00284
 107       48D+1        0.13112   0.06556   0.06556   0.00000
 108       48D-1        0.13112   0.06556   0.06556   0.00000
 109       48D+2        0.32308   0.32308  -0.00000   0.32308
 110       48D-2        0.00000   0.00000   0.00000   0.00000
 111       49D 0        0.05161   0.02871   0.02290   0.00581
 112       49D+1        0.01298   0.00649   0.00649   0.00000
 113       49D-1        0.01298   0.00649   0.00649   0.00000
 114       49D+2        0.15984   0.15984  -0.00000   0.15984
 115       49D-2        0.00000   0.00000  -0.00000   0.00000
 116       50D 0        0.00167   0.00150   0.00017   0.00134
 117       50D+1       -0.00489  -0.00244  -0.00244   0.00000
 118       50D-1       -0.00489  -0.00244  -0.00244   0.00000
 119       50D+2        0.01654   0.01654   0.00000   0.01654
 120       50D-2        0.00000   0.00000   0.00000   0.00000
 121       51D 0        0.07215   0.03610   0.03605   0.00005
 122       51D+1        0.00282   0.00141   0.00141   0.00000
 123       51D-1        0.00282   0.00141   0.00141   0.00000
 124       51D+2        0.01798   0.01798  -0.00000   0.01798
 125       51D-2        0.00000   0.00000  -0.00000   0.00000
 126       52D 0        0.15738   0.07925   0.07812   0.00113
 127       52D+1        0.05109   0.02554   0.02554   0.00000
 128       52D-1        0.05109   0.02554   0.02554   0.00000
 129       52D+2        0.14579   0.14579   0.00000   0.14579
 130       52D-2        0.00000   0.00000  -0.00000   0.00000
 131       53D 0        0.00004   0.00007  -0.00003   0.00010
 132       53D+1       -0.00003  -0.00002  -0.00002   0.00000
 133       53D-1       -0.00003  -0.00002  -0.00002   0.00000
 134       53D+2       -0.00029  -0.00029   0.00000  -0.00029
 135       53D-2       -0.00000  -0.00000   0.00000  -0.00000
 136       54F 0        0.00185   0.00092   0.00092   0.00000
 137       54F+1        0.00075   0.00037   0.00037   0.00000
 138       54F-1        0.00075   0.00037   0.00037   0.00000
 139       54F+2        0.00004   0.00004  -0.00000   0.00004
 140       54F-2        0.00000   0.00000  -0.00000   0.00000
 141       54F+3        0.00002   0.00001   0.00001   0.00000
 142       54F-3        0.00002   0.00001   0.00001   0.00000
 143       55F 0        0.01441   0.00721   0.00720   0.00000
 144       55F+1        0.01172   0.00586   0.00586   0.00000
 145       55F-1        0.01172   0.00586   0.00586   0.00000
 146       55F+2        0.00023   0.00023  -0.00000   0.00023
 147       55F-2        0.00000   0.00000  -0.00000   0.00000
 148       55F+3        0.00006   0.00003   0.00003   0.00000
 149       55F-3        0.00006   0.00003   0.00003   0.00000
 150       56F 0        0.00250   0.00118   0.00132  -0.00014
 151       56F+1        0.01283   0.00642   0.00642   0.00000
 152       56F-1        0.01283   0.00642   0.00642   0.00000
 153       56F+2        0.00012   0.00012  -0.00000   0.00012
 154       56F-2        0.00000   0.00000  -0.00000   0.00000
 155       56F+3        0.00004   0.00002   0.00002   0.00000
 156       56F-3        0.00004   0.00002   0.00002   0.00000
 157       57F 0       -0.00203  -0.00111  -0.00092  -0.00020
 158       57F+1       -0.00319  -0.00160  -0.00160   0.00000
 159       57F-1       -0.00319  -0.00160  -0.00160   0.00000
 160       57F+2       -0.00001  -0.00001   0.00000  -0.00001
 161       57F-2       -0.00000  -0.00000   0.00000  -0.00000
 162       57F+3        0.00000   0.00000   0.00000   0.00000
 163       57F-3        0.00000   0.00000   0.00000   0.00000
 164       58G 0        0.00055   0.00027   0.00027   0.00000
 165       58G+1        0.00028   0.00014   0.00014   0.00000
 166       58G-1        0.00028   0.00014   0.00014   0.00000
 167       58G+2       -0.00000  -0.00000   0.00000  -0.00000
 168       58G-2       -0.00000  -0.00000   0.00000  -0.00000
 169       58G+3        0.00000   0.00000   0.00000   0.00000
 170       58G-3        0.00000   0.00000   0.00000   0.00000
 171       58G+4        0.00000   0.00000   0.00000   0.00000
 172       58G-4        0.00000   0.00000   0.00000   0.00000
 173       59G 0        0.00132   0.00066   0.00066  -0.00000
 174       59G+1        0.00255   0.00127   0.00127   0.00000
 175       59G-1        0.00255   0.00127   0.00127   0.00000
 176       59G+2       -0.00001  -0.00001   0.00000  -0.00001
 177       59G-2       -0.00000  -0.00000   0.00000  -0.00000
 178       59G+3        0.00000   0.00000   0.00000   0.00000
 179       59G-3        0.00000   0.00000   0.00000   0.00000
 180       59G+4        0.00001   0.00001   0.00000   0.00000
 181       59G-4        0.00000   0.00000   0.00000   0.00000
 182       60G 0        0.00062   0.00030   0.00032  -0.00002
 183       60G+1        0.00157   0.00078   0.00078   0.00000
 184       60G-1        0.00157   0.00078   0.00078   0.00000
 185       60G+2       -0.00002  -0.00002   0.00000  -0.00002
 186       60G-2       -0.00000  -0.00000   0.00000  -0.00000
 187       60G+3        0.00000   0.00000   0.00000   0.00000
 188       60G-3        0.00000   0.00000   0.00000   0.00000
 189       60G+4        0.00001   0.00001   0.00000   0.00001
 190       60G-4        0.00000   0.00000   0.00000   0.00000
 191 2   O  1S         -0.00000  -0.00000  -0.00000  -0.00000
 192        2S          0.00000   0.00000   0.00000   0.00000
 193        3S         -0.00000  -0.00000  -0.00000  -0.00000
 194        4S          0.00001   0.00000   0.00000   0.00000
 195        5S         -0.00026  -0.00013  -0.00013  -0.00000
 196        6S         -0.01263  -0.00633  -0.00630  -0.00003
 197        7S         -0.11063  -0.05545  -0.05518  -0.00027
 198        8S          1.07986   0.54066   0.53920   0.00147
 199        9S          0.23420   0.11737   0.11683   0.00054
 200       10S          0.73109   0.36132   0.36977  -0.00845
 201       11S          0.00276   0.00139   0.00137   0.00003
 202       12S          0.00924   0.00463   0.00461   0.00002
 203       13S          0.00310  -0.03672   0.03981  -0.07653
 204       14PX         0.00188   0.00094   0.00094   0.00000
 205       14PY         0.00188   0.00094   0.00094   0.00000
 206       14PZ         0.00153   0.00077   0.00076   0.00001
 207       15PX         0.06431   0.03215   0.03215   0.00000
 208       15PY         0.06431   0.03215   0.03215   0.00000
 209       15PZ         0.05677   0.02856   0.02821   0.00035
 210       16PX         0.38582   0.19291   0.19291   0.00000
 211       16PY         0.38582   0.19291   0.19291   0.00000
 212       16PZ         0.36566   0.18384   0.18182   0.00203
 213       17PX         0.78968   0.39484   0.39484   0.00000
 214       17PY         0.78968   0.39484   0.39484   0.00000
 215       17PZ         0.57031   0.28722   0.28309   0.00413
 216       18PX         0.44511   0.22255   0.22255   0.00000
 217       18PY         0.44511   0.22255   0.22255   0.00000
 218       18PZ         0.13489   0.07078   0.06411   0.00667
 219       19PX         0.00246   0.00123   0.00123   0.00000
 220       19PY         0.00246   0.00123   0.00123   0.00000
 221       19PZ         0.00317   0.00159   0.00158   0.00001
 222       20PX        -0.00030  -0.00015  -0.00015   0.00000
 223       20PY        -0.00030  -0.00015  -0.00015   0.00000
 224       20PZ        -0.00023  -0.00012  -0.00012  -0.00000
 225       21PX         0.02878   0.01439   0.01439   0.00000
 226       21PY         0.02878   0.01439   0.01439   0.00000
 227       21PZ         0.00633   0.00345   0.00288   0.00058
 228       22D 0        0.00600   0.00303   0.00297   0.00006
 229       22D+1        0.00234   0.00117   0.00117   0.00000
 230       22D-1        0.00234   0.00117   0.00117   0.00000
 231       22D+2        0.00032   0.00032  -0.00000   0.00032
 232       22D-2        0.00000   0.00000   0.00000   0.00000
 233       23D 0        0.01313   0.00691   0.00622   0.00069
 234       23D+1        0.01371   0.00685   0.00685   0.00000
 235       23D-1        0.01371   0.00685   0.00685   0.00000
 236       23D+2        0.00394   0.00394   0.00000   0.00394
 237       23D-2        0.00000   0.00000   0.00000   0.00000
 238       24D 0        0.00002   0.00001   0.00001   0.00000
 239       24D+1        0.00001   0.00000   0.00000   0.00000
 240       24D-1        0.00001   0.00000   0.00000   0.00000
 241       24D+2        0.00000   0.00000   0.00000   0.00000
 242       24D-2        0.00000   0.00000  -0.00000   0.00000
 243       25D 0       -0.00295  -0.00124  -0.00171   0.00046
 244       25D+1       -0.00052  -0.00026  -0.00026   0.00000
 245       25D-1       -0.00052  -0.00026  -0.00026   0.00000
 246       25D+2        0.00200   0.00200   0.00000   0.00200
 247       25D-2        0.00000   0.00000  -0.00000   0.00000
 248       26F 0        0.00278   0.00140   0.00137   0.00003
 249       26F+1        0.00175   0.00087   0.00087   0.00000
 250       26F-1        0.00175   0.00087   0.00087   0.00000
 251       26F+2        0.00045   0.00045   0.00000   0.00045
 252       26F-2        0.00000   0.00000  -0.00000   0.00000
 253       26F+3        0.00000   0.00000   0.00000   0.00000
 254       26F-3        0.00000   0.00000   0.00000   0.00000
 255       27F 0        0.00070   0.00039   0.00031   0.00008
 256       27F+1       -0.00048  -0.00024  -0.00024   0.00000
 257       27F-1       -0.00048  -0.00024  -0.00024   0.00000
 258       27F+2        0.00069   0.00069  -0.00000   0.00069
 259       27F-2        0.00000   0.00000   0.00000   0.00000
 260       27F+3        0.00000   0.00000   0.00000   0.00000
 261       27F-3        0.00000   0.00000   0.00000   0.00000
          Condensed to atoms (all electrons):
               1          2
     1  Ti  11.703052  -0.274366
     2  O   -0.274366   6.845680
          Atomic-Atomic Spin Densities.
               1          2
     1  Ti   2.212602  -0.151873
     2  O   -0.151873   0.091143
 Mulliken charges and spin densities:
               1          2
     1  Ti   0.571314   2.060729
     2  O   -0.571314  -0.060729
 Sum of Mulliken charges =  -0.00000   2.00000
 Mulliken charges and spin densities with hydrogens summed into heavy atoms:
               1          2
     1  Ti   0.571314   2.060729
     2  O   -0.571314  -0.060729
 Electronic spatial extent (au):  <R**2>=             74.2629
 Charge=             -0.0000 electrons
 Dipole moment (field-independent basis, Debye):
    X=              0.0000    Y=              0.0000    Z=             -0.7362  Tot=              0.7362
 Quadrupole moment (field-independent basis, Debye-Ang):
   XX=            -22.5601   YY=            -22.5601   ZZ=            -26.5462
   XY=              0.0000   XZ=              0.0000   YZ=              0.0000
 Traceless Quadrupole moment (field-independent basis, Debye-Ang):
   XX=              1.3287   YY=              1.3287   ZZ=             -2.6574
   XY=              0.0000   XZ=              0.0000   YZ=              0.0000
 Octapole moment (field-independent basis, Debye-Ang**2):
  XXX=              0.0000  YYY=              0.0000  ZZZ=            -18.9893  XYY=              0.0000
  XXY=              0.0000  XXZ=             -6.2717  XZZ=              0.0000  YZZ=              0.0000
  YYZ=             -6.2717  XYZ=              0.0000
 Hexadecapole moment (field-independent basis, Debye-Ang**3):
 XXXX=            -59.4529 YYYY=            -59.4529 ZZZZ=           -119.2856 XXXY=              0.0000
 XXXZ=              0.0000 YYYX=              0.0000 YYYZ=              0.0000 ZZZX=              0.0000
 ZZZY=              0.0000 XXYY=            -18.9812 XXZZ=            -29.6370 YYZZ=            -29.6370
 XXYZ=              0.0000 YYXZ=              0.0000 ZZXY=              0.0000
 N-N= 3.175063265520D+01 E-N=-2.267702065401D+02  KE= 4.033818685366D+01
 Symmetry A1   KE= 2.078645512816D+01
 Symmetry A2   KE= 1.017661994197D-31
 Symmetry B1   KE= 9.775865862320D+00
 Symmetry B2   KE= 9.775865862514D+00
 Symmetry A1   SP= 2.000000000000D+00
 Symmetry A2   SP= 2.999671437359D-32
 Symmetry B1   SP= 0.000000000000D+00
 Symmetry B2   SP= 0.000000000000D+00
 Orbital energies and kinetic energies (alpha):
                                 1                 2
   4         O                -1.807742          2.363647
   5         O                -1.121785          1.629560
   6         O                -0.657384          2.524286
   7         O                -0.657384          2.524286
   8         O                -0.545882          3.471514
   9         O                -0.329051          0.266462
  10         O                -0.199419          3.392582
  11         V                 0.012657          0.050207
  12         V                 0.012657          0.050207
  13         V                 0.020880          0.033602
  14         V                 0.028179          0.045520
  15         V                 0.049130          0.058132
 Total kinetic energy from orbitals= 4.399723081581D+01
                          Isotropic Fermi Contact Couplings
        Atom                 a.u.       MegaHertz       Gauss      10(-4) cm-1
     1  Ti(47)             0.00003      -0.00319      -0.00114      -0.00107
     2  O(17)              0.00006      -0.01795      -0.00641      -0.00599
 --------------------------------------------------------
       Center         ----  Spin Dipole Couplings  ----
                      3XX-RR        3YY-RR        3ZZ-RR
 --------------------------------------------------------
     1   Atom        0.440081      0.440081     -0.880163
     2   Atom       -0.054269     -0.054269      0.108539
 --------------------------------------------------------
                        XY            XZ            YZ
 --------------------------------------------------------
     1   Atom        0.000000      0.000000      0.000000
     2   Atom        0.000000      0.000000      0.000000
 --------------------------------------------------------


 ---------------------------------------------------------------------------------
              Anisotropic Spin Dipole Couplings in Principal Axis System
 ---------------------------------------------------------------------------------

       Atom             a.u.   MegaHertz   Gauss  10(-4) cm-1        Axes

              Baa    -0.8802    26.516     9.462     8.845  0.0000  0.0000  1.0000
     1 Ti(47) Bbb     0.4401   -13.258    -4.731    -4.422  1.0000  0.0000  0.0000
              Bcc     0.4401   -13.258    -4.731    -4.422 -0.0000  1.0000  0.0000
 
              Baa    -0.0543     3.927     1.401     1.310  1.0000  0.0000  0.0000
     2 O(17)  Bbb    -0.0543     3.927     1.401     1.310 -0.0000  1.0000  0.0000
              Bcc     0.1085    -7.854    -2.802    -2.620  0.0000  0.0000  1.0000
 

 ---------------------------------------------------------------------------------

 No NMR shielding tensors so no spin-rotation constants.
 Leave Link  601 at Fri Mar  9 15:40:42 2018, MaxMem= 10737418240 cpu:              53.2 elap:               3.5
 (Enter /home1/apps/gaussian/16rA.03/g16/l9999.exe)

 Test job not archived.
 1\1\GINC-C408-004\SP\ROCCSD(T)-Full\Gen\O1Ti1(3)\AANNABE\09-Mar-2018\0
 \\#P ROCCSD(T)=(maxcyc=150, Full, SaveAmplitudes, ReadAmplitudes)/Gen 
 5d 7f SCF=(maxcycles=300) Integral(NoXCTest) MaxDisk=500GB Pop=Regular
  Pseudo=Read Guess=Read IOp(5/15=2)\\TiO\\0,3\Ti,0,0.,0.,0.\O,0,0.,0.,
 1.2\\Version=ES64L-G16RevA.03\HF=-73.1212814\MP2=-73.8427604\MP3=-73.8
 28289\PUHF=-73.1212814\PMP2-0=-73.8427604\MP4SDQ=-73.8429908\CCSD=-73.
 837659\CCSD(T)=-73.8689809\RMSD=3.001e-09\PG=C*V [C*(O1Ti1)]\\@


 SACRED COWS MAKE GREAT HAMBURGERS -- ROBERT REISNER
 Job cpu time:       0 days  5 hours  3 minutes  8.1 seconds.
 Elapsed time:       0 days  0 hours 19 minutes  3.3 seconds.
 File lengths (MBytes):  RWF=   3532 Int=      0 D2E=      0 Chk=     22 Scr=      1
 Normal termination of Gaussian 16 at Fri Mar  9 15:40:43 2018.
