 Entering Gaussian System, Link 0=g16
 Initial command:
 /home1/apps/gaussian/16rA.03/g16/l1.exe "/tmp/Gau-30196.inp" -scrdir="/tmp/"
 Entering Link 1 = /home1/apps/gaussian/16rA.03/g16/l1.exe PID=     30197.
  
 Copyright (c) 1988,1990,1992,1993,1995,1998,2003,2009,2016,
            Gaussian, Inc.  All Rights Reserved.
  
 This is part of the Gaussian(R) 16 program.  It is based on
 the Gaussian(R) 09 system (copyright 2009, Gaussian, Inc.),
 the Gaussian(R) 03 system (copyright 2003, Gaussian, Inc.),
 the Gaussian(R) 98 system (copyright 1998, Gaussian, Inc.),
 the Gaussian(R) 94 system (copyright 1995, Gaussian, Inc.),
 the Gaussian 92(TM) system (copyright 1992, Gaussian, Inc.),
 the Gaussian 90(TM) system (copyright 1990, Gaussian, Inc.),
 the Gaussian 88(TM) system (copyright 1988, Gaussian, Inc.),
 the Gaussian 86(TM) system (copyright 1986, Carnegie Mellon
 University), and the Gaussian 82(TM) system (copyright 1983,
 Carnegie Mellon University). Gaussian is a federally registered
 trademark of Gaussian, Inc.
  
 This software contains proprietary and confidential information,
 including trade secrets, belonging to Gaussian, Inc.
  
 This software is provided under written license and may be
 used, copied, transmitted, or stored only in accord with that
 written license.
  
 The following legend is applicable only to US Government
 contracts under FAR:
  
                    RESTRICTED RIGHTS LEGEND
  
 Use, reproduction and disclosure by the US Government is
 subject to restrictions as set forth in subparagraphs (a)
 and (c) of the Commercial Computer Software - Restricted
 Rights clause in FAR 52.227-19.
  
 Gaussian, Inc.
 340 Quinnipiac St., Bldg. 40, Wallingford CT 06492
  
  
 ---------------------------------------------------------------
 Warning -- This program may not be used in any manner that
 competes with the business of Gaussian, Inc. or will provide
 assistance to any competitor of Gaussian, Inc.  The licensee
 of this program is prohibited from giving any competitor of
 Gaussian, Inc. access to this program.  By using this program,
 the user acknowledges that Gaussian, Inc. is engaged in the
 business of creating and licensing software in the field of
 computational chemistry and represents and warrants to the
 licensee that it is not a competitor of Gaussian, Inc. and that
 it will not use this program in any manner prohibited above.
 ---------------------------------------------------------------
  

 Cite this work as:
 Gaussian 16, Revision A.03,
 M. J. Frisch, G. W. Trucks, H. B. Schlegel, G. E. Scuseria, 
 M. A. Robb, J. R. Cheeseman, G. Scalmani, V. Barone, 
 G. A. Petersson, H. Nakatsuji, X. Li, M. Caricato, A. V. Marenich, 
 J. Bloino, B. G. Janesko, R. Gomperts, B. Mennucci, H. P. Hratchian, 
 J. V. Ortiz, A. F. Izmaylov, J. L. Sonnenberg, D. Williams-Young, 
 F. Ding, F. Lipparini, F. Egidi, J. Goings, B. Peng, A. Petrone, 
 T. Henderson, D. Ranasinghe, V. G. Zakrzewski, J. Gao, N. Rega, 
 G. Zheng, W. Liang, M. Hada, M. Ehara, K. Toyota, R. Fukuda, 
 J. Hasegawa, M. Ishida, T. Nakajima, Y. Honda, O. Kitao, H. Nakai, 
 T. Vreven, K. Throssell, J. A. Montgomery, Jr., J. E. Peralta, 
 F. Ogliaro, M. J. Bearpark, J. J. Heyd, E. N. Brothers, K. N. Kudin, 
 V. N. Staroverov, T. A. Keith, R. Kobayashi, J. Normand, 
 K. Raghavachari, A. P. Rendell, J. C. Burant, S. S. Iyengar, 
 J. Tomasi, M. Cossi, J. M. Millam, M. Klene, C. Adamo, R. Cammi, 
 J. W. Ochterski, R. L. Martin, K. Morokuma, O. Farkas, 
 J. B. Foresman, and D. J. Fox, Gaussian, Inc., Wallingford CT, 2016.
 
 ******************************************
 Gaussian 16:  ES64L-G16RevA.03 25-Dec-2016
                10-Mar-2018 
 ******************************************
 %MEM=80GB
 %CPU=0-15
 SetSPE:  set environment variable "MP_BIND" = "yes"
 SetSPE:  set environment variable "MP_BLIST" = "0,1,2,3,4,5,6,7,8,9,10,11,12,13,14,15"
 Will use up to   16 processors via shared memory.
 %RWF=/scratch/04843/aannabe/gaussian/
 %Int=/scratch/04843/aannabe/gaussian/
 %D2E=/scratch/04843/aannabe/gaussian/
 %NoSave
 %CHK=TiO
 ----------------------------------------------------------------------
 #P ROCCSD(T)=(maxcyc=150, Full, SaveAmplitudes, ReadAmplitudes)/Gen 5d
  7f SCF=(maxcycles=300) Integral(NoXCTest) MaxDisk=500GB Pop=Regular P
 seudo=Read Guess=Read IOp(5/15=2)
 ----------------------------------------------------------------------
 1/38=1,172=1/1;
 2/12=2,17=6,18=5,40=1/2;
 3/5=7,8=11,11=2,16=1,17=8,25=1,30=1,47=8,116=101/1,2,3;
 4/5=1/1;
 5/5=2,7=300,15=2,38=6/2;
 8/5=-1,6=4,9=120000,10=90,24=1/1,4;
 9/5=7,6=150,14=2,77=1/13;
 6//1;
 99/5=1,9=1/99;
 Leave Link    1 at Sat Mar 10 00:27:50 2018, MaxMem= 10737418240 cpu:               5.5 elap:               0.4
 (Enter /home1/apps/gaussian/16rA.03/g16/l101.exe)
 ---
 TiO
 ---
 Symbolic Z-matrix:
 Charge =  0 Multiplicity = 3
 Ti                    0.        0.        0. 
 O                     0.        0.        1.3 
 
 ITRead=  0  0
 MicOpt= -1 -1
 NAtoms=      2 NQM=        2 NQMF=       0 NMMI=      0 NMMIF=      0
                NMic=       0 NMicF=      0.
                    Isotopes and Nuclear Properties:
 (Nuclear quadrupole moments (NQMom) in fm**2, nuclear magnetic moments (NMagM)
  in nuclear magnetons)

  Atom         1           2
 IAtWgt=          48          16
 AtmWgt=  47.9479467  15.9949146
 NucSpn=           0           0
 AtZEff=  -0.0000000  -0.0000000
 NQMom=    0.0000000   0.0000000
 NMagM=    0.0000000   0.0000000
 AtZNuc=  22.0000000   8.0000000
 Leave Link  101 at Sat Mar 10 00:27:50 2018, MaxMem= 10737418240 cpu:               1.5 elap:               0.1
 (Enter /home1/apps/gaussian/16rA.03/g16/l202.exe)
                          Input orientation:                          
 ---------------------------------------------------------------------
 Center     Atomic      Atomic             Coordinates (Angstroms)
 Number     Number       Type             X           Y           Z
 ---------------------------------------------------------------------
      1         22           0        0.000000    0.000000    0.000000
      2          8           0        0.000000    0.000000    1.300000
 ---------------------------------------------------------------------
 Stoichiometry    OTi(3)
 Framework group  C*V[C*(OTi)]
 Deg. of freedom     1
 Full point group                 C*V     NOp   4
 Largest Abelian subgroup         C2V     NOp   4
 Largest concise Abelian subgroup C1      NOp   1
                         Standard orientation:                         
 ---------------------------------------------------------------------
 Center     Atomic      Atomic             Coordinates (Angstroms)
 Number     Number       Type             X           Y           Z
 ---------------------------------------------------------------------
      1         22           0        0.000000    0.000000    0.346667
      2          8           0        0.000000    0.000000   -0.953333
 ---------------------------------------------------------------------
 Rotational constants (GHZ):           0.0000000          24.9327752          24.9327752
 Leave Link  202 at Sat Mar 10 00:27:51 2018, MaxMem= 10737418240 cpu:               0.4 elap:               0.1
 (Enter /home1/apps/gaussian/16rA.03/g16/l301.exe)
 General basis read from cards:  (5D, 7F)
 Centers:       1
 S 1 1.00
     Exponent=  3.0146430000D+06 Coefficients=  1.0000000000D+00
 S 1 1.00
     Exponent=  4.5143290000D+05 Coefficients=  1.0000000000D+00
 S 1 1.00
     Exponent=  1.0273380000D+05 Coefficients=  1.0000000000D+00
 S 1 1.00
     Exponent=  2.9098170000D+04 Coefficients=  1.0000000000D+00
 S 1 1.00
     Exponent=  9.4923300000D+03 Coefficients=  1.0000000000D+00
 S 1 1.00
     Exponent=  3.4263460000D+03 Coefficients=  1.0000000000D+00
 S 1 1.00
     Exponent=  1.3358960000D+03 Coefficients=  1.0000000000D+00
 S 1 1.00
     Exponent=  5.5350260000D+02 Coefficients=  1.0000000000D+00
 S 1 1.00
     Exponent=  2.4069250000D+02 Coefficients=  1.0000000000D+00
 S 1 1.00
     Exponent=  1.0872930000D+02 Coefficients=  1.0000000000D+00
 S 1 1.00
     Exponent=  5.0264570000D+01 Coefficients=  1.0000000000D+00
 S 1 1.00
     Exponent=  2.2580040000D+01 Coefficients=  1.0000000000D+00
 S 1 1.00
     Exponent=  1.0714320000D+01 Coefficients=  1.0000000000D+00
 S 1 1.00
     Exponent=  5.0935460000D+00 Coefficients=  1.0000000000D+00
 S 1 1.00
     Exponent=  2.2441830000D+00 Coefficients=  1.0000000000D+00
 S 1 1.00
     Exponent=  1.0595700000D+00 Coefficients=  1.0000000000D+00
 S 1 1.00
     Exponent=  4.6884900000D-01 Coefficients=  1.0000000000D+00
 S 1 1.00
     Exponent=  1.0614300000D-01 Coefficients=  1.0000000000D+00
 S 1 1.00
     Exponent=  5.5262000000D-02 Coefficients=  1.0000000000D+00
 S 1 1.00
     Exponent=  2.5465000000D-02 Coefficients=  1.0000000000D+00
 S 1 1.00
     Exponent=  2.9691000000D+00 Coefficients=  1.0000000000D+00
 S 1 1.00
     Exponent=  7.1050000000D-01 Coefficients=  1.0000000000D+00
 S 1 1.00
     Exponent=  1.1730000000D-02 Coefficients=  1.0000000000D+00
 P 1 1.00
     Exponent=  1.1912030000D+04 Coefficients=  1.0000000000D+00
 P 1 1.00
     Exponent=  2.8199470000D+03 Coefficients=  1.0000000000D+00
 P 1 1.00
     Exponent=  9.1594790000D+02 Coefficients=  1.0000000000D+00
 P 1 1.00
     Exponent=  3.5038420000D+02 Coefficients=  1.0000000000D+00
 P 1 1.00
     Exponent=  1.4848250000D+02 Coefficients=  1.0000000000D+00
 P 1 1.00
     Exponent=  6.7539440000D+01 Coefficients=  1.0000000000D+00
 P 1 1.00
     Exponent=  3.2303320000D+01 Coefficients=  1.0000000000D+00
 P 1 1.00
     Exponent=  1.5927860000D+01 Coefficients=  1.0000000000D+00
 P 1 1.00
     Exponent=  8.0380350000D+00 Coefficients=  1.0000000000D+00
 P 1 1.00
     Exponent=  4.0939160000D+00 Coefficients=  1.0000000000D+00
 P 1 1.00
     Exponent=  2.0223900000D+00 Coefficients=  1.0000000000D+00
 P 1 1.00
     Exponent=  9.7610200000D-01 Coefficients=  1.0000000000D+00
 P 1 1.00
     Exponent=  4.5959500000D-01 Coefficients=  1.0000000000D+00
 P 1 1.00
     Exponent=  1.7719500000D-01 Coefficients=  1.0000000000D+00
 P 1 1.00
     Exponent=  7.3442000000D-02 Coefficients=  1.0000000000D+00
 P 1 1.00
     Exponent=  2.9334000000D-02 Coefficients=  1.0000000000D+00
 P 1 1.00
     Exponent=  4.0234000000D+00 Coefficients=  1.0000000000D+00
 P 1 1.00
     Exponent=  9.4170000000D-01 Coefficients=  1.0000000000D+00
 P 1 1.00
     Exponent=  1.1720000000D-02 Coefficients=  1.0000000000D+00
 D 1 1.00
     Exponent=  6.4340200000D+01 Coefficients=  1.0000000000D+00
 D 1 1.00
     Exponent=  1.8841800000D+01 Coefficients=  1.0000000000D+00
 D 1 1.00
     Exponent=  6.7198300000D+00 Coefficients=  1.0000000000D+00
 D 1 1.00
     Exponent=  2.6561300000D+00 Coefficients=  1.0000000000D+00
 D 1 1.00
     Exponent=  1.0736800000D+00 Coefficients=  1.0000000000D+00
 D 1 1.00
     Exponent=  4.2055700000D-01 Coefficients=  1.0000000000D+00
 D 1 1.00
     Exponent=  1.5481700000D-01 Coefficients=  1.0000000000D+00
 D 1 1.00
     Exponent=  5.1490000000D-02 Coefficients=  1.0000000000D+00
 D 1 1.00
     Exponent=  2.3834000000D+00 Coefficients=  1.0000000000D+00
 D 1 1.00
     Exponent=  1.0775000000D+00 Coefficients=  1.0000000000D+00
 D 1 1.00
     Exponent=  1.7120000000D-02 Coefficients=  1.0000000000D+00
 F 1 1.00
     Exponent=  2.8376000000D+00 Coefficients=  1.0000000000D+00
 F 1 1.00
     Exponent=  9.6330000000D-01 Coefficients=  1.0000000000D+00
 F 1 1.00
     Exponent=  2.7880000000D-01 Coefficients=  1.0000000000D+00
 F 1 1.00
     Exponent=  8.0690000000D-02 Coefficients=  1.0000000000D+00
 G 1 1.00
     Exponent=  2.4639000000D+00 Coefficients=  1.0000000000D+00
 G 1 1.00
     Exponent=  7.0920000000D-01 Coefficients=  1.0000000000D+00
 G 1 1.00
     Exponent=  2.0413000000D-01 Coefficients=  1.0000000000D+00
 ****
 Centers:       2
 S 1 1.00
     Exponent=  1.5330000000D+04 Coefficients=  1.0000000000D+00
 S 1 1.00
     Exponent=  2.2990000000D+03 Coefficients=  1.0000000000D+00
 S 1 1.00
     Exponent=  5.2240000000D+02 Coefficients=  1.0000000000D+00
 S 1 1.00
     Exponent=  1.4730000000D+02 Coefficients=  1.0000000000D+00
 S 1 1.00
     Exponent=  4.7550000000D+01 Coefficients=  1.0000000000D+00
 S 1 1.00
     Exponent=  1.6760000000D+01 Coefficients=  1.0000000000D+00
 S 1 1.00
     Exponent=  6.2070000000D+00 Coefficients=  1.0000000000D+00
 S 1 1.00
     Exponent=  6.8820000000D-01 Coefficients=  1.0000000000D+00
 S 1 1.00
     Exponent=  1.7520000000D+00 Coefficients=  1.0000000000D+00
 S 1 1.00
     Exponent=  2.3840000000D-01 Coefficients=  1.0000000000D+00
 S 1 1.00
     Exponent=  7.8450000000D+00 Coefficients=  1.0000000000D+00
 S 1 1.00
     Exponent=  2.1032000000D+01 Coefficients=  1.0000000000D+00
 S 1 1.00
     Exponent=  7.3760000000D-02 Coefficients=  1.0000000000D+00
 P 1 1.00
     Exponent=  3.4460000000D+01 Coefficients=  1.0000000000D+00
 P 1 1.00
     Exponent=  7.7490000000D+00 Coefficients=  1.0000000000D+00
 P 1 1.00
     Exponent=  2.2800000000D+00 Coefficients=  1.0000000000D+00
 P 1 1.00
     Exponent=  7.1560000000D-01 Coefficients=  1.0000000000D+00
 P 1 1.00
     Exponent=  2.1400000000D-01 Coefficients=  1.0000000000D+00
 P 1 1.00
     Exponent=  1.5159000000D+01 Coefficients=  1.0000000000D+00
 P 1 1.00
     Exponent=  5.7437000000D+01 Coefficients=  1.0000000000D+00
 P 1 1.00
     Exponent=  5.9740000000D-02 Coefficients=  1.0000000000D+00
 D 1 1.00
     Exponent=  2.3140000000D+00 Coefficients=  1.0000000000D+00
 D 1 1.00
     Exponent=  6.4500000000D-01 Coefficients=  1.0000000000D+00
 D 1 1.00
     Exponent=  1.5858000000D+01 Coefficients=  1.0000000000D+00
 D 1 1.00
     Exponent=  2.1400000000D-01 Coefficients=  1.0000000000D+00
 F 1 1.00
     Exponent=  1.4280000000D+00 Coefficients=  1.0000000000D+00
 F 1 1.00
     Exponent=  5.0000000000D-01 Coefficients=  1.0000000000D+00
 ****
 ======================================================================================================
                                       Pseudopotential Parameters
 ======================================================================================================
  Center     Atomic      Valence      Angular      Power
  Number     Number     Electrons     Momentum     of R      Exponent        Coefficient   SO-Coeffient
 ======================================================================================================
    1         22           12
                                      F and up 
                                                     1        8.5249928       12.00000000    0.00000000
                                                     2       15.2433413     2048.39512837    0.00000000
                                                     2        9.8260552     -812.71625987    0.00000000
                                                     2       13.7363863    -6663.62886396    0.00000000
                                                     2       12.6545051     5396.93874773    0.00000000
                                                     3        7.5479069      102.29991323    0.00000000
                                      S - F
                                                     2        6.0785437    -5355.67455847    0.00000000
                                                     2        6.6087036     4802.76911085    0.00000000
                                                     2        5.4080383     1304.66429039    0.00000000
                                                     2       10.4303760    -1133.61681175    0.00000000
                                                     2       18.4079625     -258.77562194    0.00000000
                                                     2       15.3842880      672.53886697    0.00000000
                                      P - F
                                                     2        9.6031986    56981.17339652    0.00000000
                                                     2        9.6627051    **************    0.00000000
                                                     2       15.0651591     1335.72576887    0.00000000
                                                     2       16.3659998     -813.49634683    0.00000000
                                                     2        7.8642018     -720.45341501    0.00000000
                                                     2       10.2545265      239.69852194    0.00000000
                                      D - F
                                                     2       10.5665082    -4262.72074057    0.00000000
                                                     2        2.7136838       -1.34753473    0.00000000
                                                     2        9.3378092     1569.82864567    0.00000000
                                                     2       31.6056069       -0.45387550    0.00000000
                                                     2       12.2803014     5034.44351544    0.00000000
                                                     2       13.3677017    -2350.67846378    0.00000000
    2          8            6
                                      P and up 
                                                     1       12.3099700        6.00000000    0.00000000
                                                     3       14.7696200       73.85984000    0.00000000
                                                     2       13.7141900      -47.87600000    0.00000000
                                      S - P
                                                     2       13.6551200       85.86406000    0.00000000
 ======================================================================================================
 Ernie: Thresh=  0.10000D-02 Tol=  0.10000D-05 Strict=F.
 There are   144 symmetry adapted cartesian basis functions of A1  symmetry.
 There are    30 symmetry adapted cartesian basis functions of A2  symmetry.
 There are    69 symmetry adapted cartesian basis functions of B1  symmetry.
 There are    69 symmetry adapted cartesian basis functions of B2  symmetry.
 There are   114 symmetry adapted basis functions of A1  symmetry.
 There are    27 symmetry adapted basis functions of A2  symmetry.
 There are    60 symmetry adapted basis functions of B1  symmetry.
 There are    60 symmetry adapted basis functions of B2  symmetry.
   261 basis functions,   312 primitive gaussians,   312 cartesian basis functions
    10 alpha electrons        8 beta electrons
       nuclear repulsion energy        29.3082762971 Hartrees.
 IExCor=    0 DFT=F Ex=HF Corr=None ExCW=0 ScaHFX=  1.000000
 ScaDFX=  1.000000  1.000000  1.000000  1.000000 ScalE2=  1.000000  1.000000
 IRadAn=      5 IRanWt=     -1 IRanGd=            0 ICorTp=0 IEmpDi=  4
 NAtoms=    2 NActive=    2 NUniq=    2 SFac= 1.00D+00 NAtFMM=   60 NAOKFM=F Big=F
 Integral buffers will be    131072 words long.
 Raffenetti 2 integral format.
 Two-electron integral symmetry is turned on.
 Leave Link  301 at Sat Mar 10 00:27:52 2018, MaxMem= 10737418240 cpu:               4.4 elap:               0.3
 (Enter /home1/apps/gaussian/16rA.03/g16/l302.exe)
 NPDir=0 NMtPBC=     1 NCelOv=     1 NCel=       1 NClECP=     1 NCelD=      1
         NCelK=      1 NCelE2=     1 NClLst=     1 CellRange=     0.0.
 One-electron integrals computed using PRISM.
 One-electron integral symmetry used in STVInt
   4 Symmetry operations used in ECPInt.
 ECPInt:  NShTT=    3828 NPrTT=    3828 LenC2=    3610 LenP2D=    3609.
 LDataN:  DoStor=T MaxTD1= 8 Len=  415
 NBasis=   261 RedAO= T EigKep=  1.52D-06  NBF=   114    27    60    60
 NBsUse=   253 1.00D-06 EigRej=  9.77D-08 NBFU=   111    26    58    58
 Leave Link  302 at Sat Mar 10 00:27:54 2018, MaxMem= 10737418240 cpu:              17.6 elap:               1.1
 (Enter /home1/apps/gaussian/16rA.03/g16/l303.exe)
 DipDrv:  MaxL=1.
 Leave Link  303 at Sat Mar 10 00:27:54 2018, MaxMem= 10737418240 cpu:               1.1 elap:               0.1
 (Enter /home1/apps/gaussian/16rA.03/g16/l401.exe)
 Initial guess from the checkpoint file:  "TiO.chk"
 B after Tr=     0.000000    0.000000    0.000000
         Rot=    1.000000    0.000000    0.000000    0.000000 Ang=   0.00 deg.
 Guess basis will be translated and rotated to current coordinates.
 JPrj=2 DoOrth=T DoCkMO=T.
 Initial guess orbital symmetries:
       Occupied  (SG) (SG) (PI) (PI) (SG) (SG) (PI) (PI) (SG) (?A)
       Virtual   (PI) (PI) (SG) (SG) (PI) (PI) (?A) (SG) (?A) (PI)
                 (PI) (SG) (?A) (SG) (SG) (PI) (PI) (?A) (PI) (PI)
                 (SG) (?A) (PI) (PI) (SG) (PI) (PI) (PHI) (PHI)
                 (SG) (DLTA) (DLTA) (SG) (PI) (PI) (SG) (SG) (?A)
                 (PI) (PI) (?A) (PI) (PI) (SG) (SG) (?A) (?A) (PI)
                 (PI) (SG) (?B) (?B) (PHI) (PHI) (DLTA) (DLTA)
                 (?C) (?C) (?C) (?C) (SG) (SG) (?A) (?A) (PI) (PI)
                 (SG) (PI) (PI) (SG) (PI) (PI) (?A) (SG) (?A) (PI)
                 (PI) (SG) (PHI) (PHI) (SG) (?A) (?A) (PI) (PI)
                 (?A) (?A) (SG) (SG) (?C) (?C) (?C) (?C) (DLTA)
                 (DLTA) (?B) (?B) (PHI) (PHI) (PI) (PI) (?A) (?A)
                 (SG) (SG) (PI) (PI) (SG) (PI) (PI) (PI) (PI) (SG)
                 (DLTA) (DLTA) (SG) (PI) (PI) (SG) (SG) (PHI) (PHI)
                 (?A) (?A) (PI) (PI) (DLTA) (DLTA) (SG) (PI) (PI)
                 (SG) (SG) (?C) (?C) (DLTA) (DLTA) (?C) (?C) (PI)
                 (PI) (SG) (SG) (PHI) (PHI) (?B) (?B) (DLTA) (DLTA)
                 (PI) (PI) (SG) (DLTA) (DLTA) (PI) (PI) (SG) (PI)
                 (PI) (SG) (SG) (SG) (PI) (PI) (SG) (DLTA) (DLTA)
                 (PI) (PI) (SG) (SG) (PI) (PI) (SG) (SG) (DLTA)
                 (DLTA) (PI) (PI) (SG) (PI) (PI) (SG) (SG) (DLTA)
                 (DLTA) (PI) (PI) (SG) (SG) (PI) (PI) (SG) (SG)
                 (PI) (PI) (SG) (SG) (PI) (PI) (SG) (SG) (DLTA)
                 (DLTA) (PI) (PI) (SG) (SG) (PI) (PI) (SG) (PI)
                 (PI) (SG) (SG) (SG) (PI) (PI) (SG) (SG) (PI) (PI)
                 (SG) (SG) (SG) (PI) (PI) (SG) (SG) (SG) (PI) (PI)
                 (SG) (SG) (SG) (SG) (PI) (PI) (SG) (SG) (SG) (SG)
                 (SG)
 Leave Link  401 at Sat Mar 10 00:27:56 2018, MaxMem= 10737418240 cpu:               6.8 elap:               0.5
 (Enter /home1/apps/gaussian/16rA.03/g16/l502.exe)
 Keep R1 and R2 ints in memory in symmetry-blocked form, NReq=734602573.
 FoFCou: FMM=F IPFlag=           8 FMFlag=           0 FMFlg1=           0
         NFxFlg=           0 DoJE=F BraDBF=F KetDBF=F FulRan=T
         wScrn=  0.000000 ICntrl=       600 IOpCl=  0 I1Cent=           0 NGrid=           0
         NMat0=    1 NMatS0=  34191 NMatT0=    0 NMatD0=    1 NMtDS0=    0 NMtDT0=    0
 Petite list used in FoFCou.
 Restricted open shell SCF:
 Using DIIS extrapolation, IDIIS=  1040.
 NGot= 10737418240 LenX= 10437151885 LenY= 10437054100
 Requested convergence on RMS density matrix=1.00D-08 within 300 cycles.
 Requested convergence on MAX density matrix=1.00D-06.
 Requested convergence on             energy=1.00D-06.
 No special actions if energy rises.

 Cycle   1  Pass 1  IDiag  1:
 E= -73.0851710772129    
 DIIS: error= 4.44D-02 at cycle   1 NSaved=   1.
 NSaved= 1 IEnMin= 1 EnMin= -73.0851710772129     IErMin= 1 ErrMin= 4.44D-02
 ErrMax= 4.44D-02  0.00D+00 EMaxC= 1.00D-01 BMatC= 1.75D-01 BMatP= 1.75D-01
 IDIUse=3 WtCom= 5.56D-01 WtEn= 4.44D-01
 Coeff-Com:  0.100D+01
 Coeff-En:   0.100D+01
 Coeff:      0.100D+01
 Gap=     0.098 Goal=   None    Shift=    0.000
 GapD=    0.098 DampG=0.500 DampE=0.250 DampFc=0.1250 IDamp=-1.
 Damping current iteration by 1.25D-01
 RMSDP=3.04D-03 MaxDP=1.99D-01              OVMax= 8.24D-02

 Cycle   2  Pass 1  IDiag  1:
 E= -73.0935438246577     Delta-E=       -0.008372747445 Rises=F Damp=T
 DIIS: error= 3.89D-02 at cycle   2 NSaved=   2.
 NSaved= 2 IEnMin= 2 EnMin= -73.0935438246577     IErMin= 2 ErrMin= 3.89D-02
 ErrMax= 3.89D-02  0.00D+00 EMaxC= 1.00D-01 BMatC= 1.35D-01 BMatP= 1.75D-01
 IDIUse=3 WtCom= 6.11D-01 WtEn= 3.89D-01
 Coeff-Com: -0.656D+01 0.756D+01
 Coeff-En:   0.000D+00 0.100D+01
 Coeff:     -0.401D+01 0.501D+01
 Gap=     0.059 Goal=   None    Shift=    0.000
 RMSDP=3.28D-03 MaxDP=2.78D-01 DE=-8.37D-03 OVMax= 2.35D-01

 Cycle   3  Pass 1  IDiag  1:
 E= -73.1407147880113     Delta-E=       -0.047170963354 Rises=F Damp=F
 DIIS: error= 2.77D-02 at cycle   3 NSaved=   3.
 NSaved= 3 IEnMin= 3 EnMin= -73.1407147880113     IErMin= 3 ErrMin= 2.77D-02
 ErrMax= 2.77D-02  0.00D+00 EMaxC= 1.00D-01 BMatC= 1.05D-02 BMatP= 1.35D-01
 IDIUse=3 WtCom= 7.23D-01 WtEn= 2.77D-01
 Coeff-Com: -0.315D+01 0.357D+01 0.583D+00
 Coeff-En:   0.000D+00 0.000D+00 0.100D+01
 Coeff:     -0.228D+01 0.258D+01 0.699D+00
 Gap=     0.038 Goal=   None    Shift=    0.000
 RMSDP=2.14D-03 MaxDP=2.65D-01 DE=-4.72D-02 OVMax= 3.63D-01

 Cycle   4  Pass 1  IDiag  1:
 E= -73.1635151742030     Delta-E=       -0.022800386192 Rises=F Damp=F
 DIIS: error= 1.36D-02 at cycle   4 NSaved=   4.
 NSaved= 4 IEnMin= 4 EnMin= -73.1635151742030     IErMin= 4 ErrMin= 1.36D-02
 ErrMax= 1.36D-02  0.00D+00 EMaxC= 1.00D-01 BMatC= 4.90D-03 BMatP= 1.05D-02
 IDIUse=3 WtCom= 8.64D-01 WtEn= 1.36D-01
 Coeff-Com: -0.196D+01 0.221D+01 0.356D+00 0.399D+00
 Coeff-En:   0.000D+00 0.000D+00 0.294D+00 0.706D+00
 Coeff:     -0.170D+01 0.191D+01 0.347D+00 0.441D+00
 Gap=     0.050 Goal=   None    Shift=    0.000
 RMSDP=1.43D-03 MaxDP=3.02D-01 DE=-2.28D-02 OVMax= 2.62D-01

 Cycle   5  Pass 1  IDiag  1:
 E= -73.1716068523937     Delta-E=       -0.008091678191 Rises=F Damp=F
 DIIS: error= 1.04D-02 at cycle   5 NSaved=   5.
 NSaved= 5 IEnMin= 5 EnMin= -73.1716068523937     IErMin= 5 ErrMin= 1.04D-02
 ErrMax= 1.04D-02  0.00D+00 EMaxC= 1.00D-01 BMatC= 1.96D-03 BMatP= 4.90D-03
 IDIUse=3 WtCom= 8.96D-01 WtEn= 1.04D-01
 Coeff-Com: -0.605D+00 0.677D+00-0.241D+00 0.224D+00 0.945D+00
 Coeff-En:   0.000D+00 0.000D+00 0.000D+00 0.371D+00 0.629D+00
 Coeff:     -0.542D+00 0.607D+00-0.216D+00 0.239D+00 0.912D+00
 Gap=     0.046 Goal=   None    Shift=    0.000
 RMSDP=1.03D-03 MaxDP=2.07D-01 DE=-8.09D-03 OVMax= 1.20D-01

 Cycle   6  Pass 1  IDiag  1:
 E= -73.1773911421228     Delta-E=       -0.005784289729 Rises=F Damp=F
 DIIS: error= 3.98D-03 at cycle   6 NSaved=   6.
 NSaved= 6 IEnMin= 6 EnMin= -73.1773911421228     IErMin= 6 ErrMin= 3.98D-03
 ErrMax= 3.98D-03  0.00D+00 EMaxC= 1.00D-01 BMatC= 4.28D-04 BMatP= 1.96D-03
 IDIUse=3 WtCom= 9.60D-01 WtEn= 3.98D-02
 Coeff-Com:  0.324D-02-0.239D-02-0.253D+00-0.103D+00 0.380D+00 0.974D+00
 Coeff-En:   0.000D+00 0.000D+00 0.000D+00 0.000D+00 0.860D-02 0.991D+00
 Coeff:      0.311D-02-0.229D-02-0.243D+00-0.986D-01 0.365D+00 0.975D+00
 Gap=     0.037 Goal=   None    Shift=    0.000
 RMSDP=9.88D-04 MaxDP=2.03D-01 DE=-5.78D-03 OVMax= 5.47D-02

 Cycle   7  Pass 1  IDiag  1:
 E= -73.1786845566297     Delta-E=       -0.001293414507 Rises=F Damp=F
 DIIS: error= 1.62D-03 at cycle   7 NSaved=   7.
 NSaved= 7 IEnMin= 7 EnMin= -73.1786845566297     IErMin= 7 ErrMin= 1.62D-03
 ErrMax= 1.62D-03  0.00D+00 EMaxC= 1.00D-01 BMatC= 1.24D-04 BMatP= 4.28D-04
 IDIUse=3 WtCom= 9.84D-01 WtEn= 1.62D-02
 Coeff-Com:  0.506D-01-0.569D-01-0.557D-01-0.686D-01-0.814D-01 0.510D+00
 Coeff-Com:  0.702D+00
 Coeff-En:   0.000D+00 0.000D+00 0.000D+00 0.000D+00 0.000D+00 0.000D+00
 Coeff-En:   0.100D+01
 Coeff:      0.498D-01-0.559D-01-0.548D-01-0.675D-01-0.801D-01 0.501D+00
 Coeff:      0.707D+00
 Gap=     0.042 Goal=   None    Shift=    0.000
 RMSDP=1.44D-04 MaxDP=1.45D-02 DE=-1.29D-03 OVMax= 2.83D-02

 Cycle   8  Pass 1  IDiag  1:
 E= -73.1789846592377     Delta-E=       -0.000300102608 Rises=F Damp=F
 DIIS: error= 4.27D-04 at cycle   8 NSaved=   8.
 NSaved= 8 IEnMin= 8 EnMin= -73.1789846592377     IErMin= 8 ErrMin= 4.27D-04
 ErrMax= 4.27D-04  0.00D+00 EMaxC= 1.00D-01 BMatC= 1.33D-05 BMatP= 1.24D-04
 IDIUse=3 WtCom= 9.96D-01 WtEn= 4.27D-03
 Coeff-Com:  0.368D-01-0.426D-01 0.435D-01-0.196D-01-0.106D+00-0.389D-01
 Coeff-Com:  0.906D-01 0.104D+01
 Coeff-En:   0.000D+00 0.000D+00 0.000D+00 0.000D+00 0.000D+00 0.000D+00
 Coeff-En:   0.903D-02 0.991D+00
 Coeff:      0.366D-01-0.424D-01 0.433D-01-0.195D-01-0.105D+00-0.387D-01
 Coeff:      0.902D-01 0.104D+01
 Gap=     0.045 Goal=   None    Shift=    0.000
 RMSDP=2.58D-04 MaxDP=5.76D-02 DE=-3.00D-04 OVMax= 1.00D-02

 Cycle   9  Pass 1  IDiag  1:
 E= -73.1790066780598     Delta-E=       -0.000022018822 Rises=F Damp=F
 DIIS: error= 3.01D-04 at cycle   9 NSaved=   9.
 NSaved= 9 IEnMin= 9 EnMin= -73.1790066780598     IErMin= 9 ErrMin= 3.01D-04
 ErrMax= 3.01D-04  0.00D+00 EMaxC= 1.00D-01 BMatC= 7.46D-06 BMatP= 1.33D-05
 IDIUse=3 WtCom= 9.97D-01 WtEn= 3.01D-03
 Coeff-Com:  0.482D-01-0.547D-01 0.238D-01-0.329D-02-0.408D-01-0.595D-01
 Coeff-Com: -0.340D-01 0.532D+00 0.588D+00
 Coeff-En:   0.000D+00 0.000D+00 0.000D+00 0.000D+00 0.000D+00 0.000D+00
 Coeff-En:   0.000D+00 0.123D+00 0.877D+00
 Coeff:      0.480D-01-0.546D-01 0.237D-01-0.328D-02-0.407D-01-0.593D-01
 Coeff:     -0.339D-01 0.531D+00 0.589D+00
 Gap=     0.045 Goal=   None    Shift=    0.000
 RMSDP=2.21D-04 MaxDP=2.47D-02 DE=-2.20D-05 OVMax= 2.32D-02

 Cycle  10  Pass 1  IDiag  1:
 E= -73.1789521531405     Delta-E=        0.000054524919 Rises=F Damp=F
 DIIS: error= 6.48D-04 at cycle  10 NSaved=  10.
 NSaved=10 IEnMin= 9 EnMin= -73.1790066780598     IErMin= 9 ErrMin= 3.01D-04
 ErrMax= 6.48D-04  0.00D+00 EMaxC= 1.00D-01 BMatC= 2.26D-05 BMatP= 7.46D-06
 IDIUse=3 WtCom= 9.97D-01 WtEn= 3.01D-03
 Coeff-Com:  0.485D-01-0.546D-01 0.626D-02 0.589D-02 0.555D-02-0.439D-01
 Coeff-Com: -0.817D-01 0.108D+00 0.684D+00 0.322D+00
 Coeff-En:   0.000D+00 0.000D+00 0.000D+00 0.000D+00 0.000D+00 0.000D+00
 Coeff-En:   0.000D+00 0.000D+00 0.607D+00 0.393D+00
 Coeff:      0.483D-01-0.545D-01 0.624D-02 0.587D-02 0.554D-02-0.438D-01
 Coeff:     -0.815D-01 0.108D+00 0.684D+00 0.323D+00
 Gap=     0.045 Goal=   None    Shift=    0.000
 RMSDP=1.66D-04 MaxDP=1.85D-02 DE= 5.45D-05 OVMax= 1.71D-02

 Cycle  11  Pass 1  IDiag  1:
 E= -73.1790249303979     Delta-E=       -0.000072777257 Rises=F Damp=F
 DIIS: error= 2.91D-04 at cycle  11 NSaved=  11.
 NSaved=11 IEnMin=11 EnMin= -73.1790249303979     IErMin=11 ErrMin= 2.91D-04
 ErrMax= 2.91D-04  0.00D+00 EMaxC= 1.00D-01 BMatC= 1.06D-06 BMatP= 7.46D-06
 IDIUse=3 WtCom= 9.97D-01 WtEn= 2.91D-03
 Rare condition: small coef for last iteration:  0.000D+00
 Coeff-Com:  0.163D-01-0.186D-01 0.237D-02 0.705D-02 0.159D-01-0.110D-01
 Coeff-Com: -0.313D-01-0.114D+00 0.771D-01 0.122D+00 0.934D+00
 Coeff-En:   0.000D+00 0.000D+00 0.000D+00 0.000D+00 0.000D+00 0.000D+00
 Coeff-En:   0.000D+00 0.000D+00 0.226D+00 0.185D+00 0.589D+00
 Coeff:      0.163D-01-0.186D-01 0.237D-02 0.705D-02 0.159D-01-0.110D-01
 Coeff:     -0.313D-01-0.114D+00 0.771D-01 0.122D+00 0.934D+00
 Gap=     0.045 Goal=   None    Shift=    0.000
 RMSDP=2.69D-05 MaxDP=2.48D-03 DE=-7.28D-05 OVMax= 2.10D-03

 Cycle  12  Pass 1  IDiag  1:
 E= -73.1790281859459     Delta-E=       -0.000003255548 Rises=F Damp=F
 DIIS: error= 1.24D-04 at cycle  12 NSaved=  12.
 NSaved=12 IEnMin=12 EnMin= -73.1790281859459     IErMin=12 ErrMin= 1.24D-04
 ErrMax= 1.24D-04  0.00D+00 EMaxC= 1.00D-01 BMatC= 2.28D-07 BMatP= 1.06D-06
 IDIUse=3 WtCom= 9.99D-01 WtEn= 1.24D-03
 EnCoef did   100 forward-backward iterations
 Rare condition: small coef for last iteration:  0.000D+00
 Coeff-Com:  0.118D-01-0.135D-01 0.179D-02 0.355D-02 0.759D-02-0.639D-02
 Coeff-Com: -0.885D-02-0.479D-01 0.611D-02 0.353D-01 0.356D+00 0.655D+00
 Coeff-En:   0.000D+00 0.000D+00 0.000D+00 0.000D+00 0.000D+00 0.000D+00
 Coeff-En:   0.000D+00 0.000D+00 0.229D+00 0.138D+00 0.000D+00 0.633D+00
 Coeff:      0.118D-01-0.135D-01 0.179D-02 0.355D-02 0.759D-02-0.639D-02
 Coeff:     -0.885D-02-0.479D-01 0.611D-02 0.353D-01 0.356D+00 0.655D+00
 Gap=     0.044 Goal=   None    Shift=    0.000
 RMSDP=2.97D-05 MaxDP=2.97D-03 DE=-3.26D-06 OVMax= 2.89D-03

 Cycle  13  Pass 1  IDiag  1:
 E= -73.1790275218772     Delta-E=        0.000000664069 Rises=F Damp=F
 DIIS: error= 9.58D-05 at cycle  13 NSaved=  13.
 NSaved=13 IEnMin=12 EnMin= -73.1790281859459     IErMin=13 ErrMin= 9.58D-05
 ErrMax= 9.58D-05  0.00D+00 EMaxC= 1.00D-01 BMatC= 4.38D-07 BMatP= 2.28D-07
 IDIUse=1 WtCom= 1.00D+00 WtEn= 0.00D+00
 Coeff-Com:  0.650D-02-0.740D-02 0.998D-03-0.761D-03-0.311D-02-0.168D-02
 Coeff-Com:  0.148D-01 0.408D-01-0.483D-01-0.581D-01-0.382D+00 0.988D+00
 Coeff-Com:  0.451D+00
 Coeff:      0.650D-02-0.740D-02 0.998D-03-0.761D-03-0.311D-02-0.168D-02
 Coeff:      0.148D-01 0.408D-01-0.483D-01-0.581D-01-0.382D+00 0.988D+00
 Coeff:      0.451D+00
 Gap=     0.044 Goal=   None    Shift=    0.000
 RMSDP=2.43D-05 MaxDP=2.32D-03 DE= 6.64D-07 OVMax= 2.21D-03

 Cycle  14  Pass 1  IDiag  1:
 E= -73.1790289504613     Delta-E=       -0.000001428584 Rises=F Damp=F
 DIIS: error= 4.22D-05 at cycle  14 NSaved=  14.
 NSaved=14 IEnMin=14 EnMin= -73.1790289504613     IErMin=14 ErrMin= 4.22D-05
 ErrMax= 4.22D-05  0.00D+00 EMaxC= 1.00D-01 BMatC= 1.95D-08 BMatP= 2.28D-07
 IDIUse=1 WtCom= 1.00D+00 WtEn= 0.00D+00
 Coeff-Com:  0.307D-02-0.349D-02 0.452D-03 0.405D-03-0.114D-02-0.178D-02
 Coeff-Com:  0.535D-03 0.155D-01 0.761D-02-0.114D-01-0.169D+00 0.123D+00
 Coeff-Com:  0.122D+00 0.914D+00
 Coeff:      0.307D-02-0.349D-02 0.452D-03 0.405D-03-0.114D-02-0.178D-02
 Coeff:      0.535D-03 0.155D-01 0.761D-02-0.114D-01-0.169D+00 0.123D+00
 Coeff:      0.122D+00 0.914D+00
 Gap=     0.044 Goal=   None    Shift=    0.000
 RMSDP=1.19D-05 MaxDP=1.31D-03 DE=-1.43D-06 OVMax= 5.04D-04

 Cycle  15  Pass 1  IDiag  1:
 E= -73.1790289688333     Delta-E=       -0.000000018372 Rises=F Damp=F
 DIIS: error= 1.86D-05 at cycle  15 NSaved=  15.
 NSaved=15 IEnMin=15 EnMin= -73.1790289688333     IErMin=15 ErrMin= 1.86D-05
 ErrMax= 1.86D-05  0.00D+00 EMaxC= 1.00D-01 BMatC= 1.44D-08 BMatP= 1.95D-08
 IDIUse=1 WtCom= 1.00D+00 WtEn= 0.00D+00
 Coeff-Com:  0.182D-02-0.207D-02 0.225D-03 0.648D-03-0.138D-03-0.139D-02
 Coeff-Com: -0.272D-02 0.359D-02 0.182D-01 0.338D-02-0.656D-01-0.976D-01
 Coeff-Com:  0.107D-01 0.751D+00 0.380D+00
 Coeff:      0.182D-02-0.207D-02 0.225D-03 0.648D-03-0.138D-03-0.139D-02
 Coeff:     -0.272D-02 0.359D-02 0.182D-01 0.338D-02-0.656D-01-0.976D-01
 Coeff:      0.107D-01 0.751D+00 0.380D+00
 Gap=     0.044 Goal=   None    Shift=    0.000
 RMSDP=9.42D-06 MaxDP=1.10D-03 DE=-1.84D-08 OVMax= 4.14D-04

 Cycle  16  Pass 1  IDiag  1:
 E= -73.1790290086869     Delta-E=       -0.000000039854 Rises=F Damp=F
 DIIS: error= 1.08D-05 at cycle  16 NSaved=  16.
 NSaved=16 IEnMin=16 EnMin= -73.1790290086869     IErMin=16 ErrMin= 1.08D-05
 ErrMax= 1.08D-05  0.00D+00 EMaxC= 1.00D-01 BMatC= 1.88D-09 BMatP= 1.44D-08
 IDIUse=1 WtCom= 1.00D+00 WtEn= 0.00D+00
 Coeff-Com:  0.661D-03-0.752D-03-0.853D-05 0.321D-03 0.467D-03-0.307D-03
 Coeff-Com: -0.118D-02-0.423D-02 0.885D-02 0.591D-02 0.131D-01-0.980D-01
 Coeff-Com: -0.360D-01 0.100D+00 0.223D+00 0.788D+00
 Coeff:      0.661D-03-0.752D-03-0.853D-05 0.321D-03 0.467D-03-0.307D-03
 Coeff:     -0.118D-02-0.423D-02 0.885D-02 0.591D-02 0.131D-01-0.980D-01
 Coeff:     -0.360D-01 0.100D+00 0.223D+00 0.788D+00
 Gap=     0.044 Goal=   None    Shift=    0.000
 RMSDP=2.56D-06 MaxDP=2.58D-04 DE=-3.99D-08 OVMax= 1.01D-04

 Cycle  17  Pass 1  IDiag  1:
 E= -73.1790290141956     Delta-E=       -0.000000005509 Rises=F Damp=F
 DIIS: error= 4.02D-06 at cycle  17 NSaved=  17.
 NSaved=17 IEnMin=17 EnMin= -73.1790290141956     IErMin=17 ErrMin= 4.02D-06
 ErrMax= 4.02D-06  0.00D+00 EMaxC= 1.00D-01 BMatC= 2.47D-10 BMatP= 1.88D-09
 IDIUse=1 WtCom= 1.00D+00 WtEn= 0.00D+00
 Coeff-Com:  0.345D-03-0.392D-03-0.208D-04 0.939D-04 0.249D-03-0.412D-04
 Coeff-Com: -0.838D-04-0.228D-02 0.287D-02 0.230D-02 0.975D-02-0.375D-01
 Coeff-Com: -0.181D-01-0.250D-01 0.585D-01 0.321D+00 0.688D+00
 Coeff:      0.345D-03-0.392D-03-0.208D-04 0.939D-04 0.249D-03-0.412D-04
 Coeff:     -0.838D-04-0.228D-02 0.287D-02 0.230D-02 0.975D-02-0.375D-01
 Coeff:     -0.181D-01-0.250D-01 0.585D-01 0.321D+00 0.688D+00
 Gap=     0.044 Goal=   None    Shift=    0.000
 RMSDP=7.56D-07 MaxDP=6.30D-05 DE=-5.51D-09 OVMax= 3.85D-05

 Cycle  18  Pass 1  IDiag  1:
 E= -73.1790290149448     Delta-E=       -0.000000000749 Rises=F Damp=F
 DIIS: error= 2.09D-06 at cycle  18 NSaved=  18.
 NSaved=18 IEnMin=18 EnMin= -73.1790290149448     IErMin=18 ErrMin= 2.09D-06
 ErrMax= 2.09D-06  0.00D+00 EMaxC= 1.00D-01 BMatC= 5.22D-11 BMatP= 2.47D-10
 IDIUse=1 WtCom= 1.00D+00 WtEn= 0.00D+00
 Coeff-Com:  0.113D-03-0.128D-03 0.244D-05 0.110D-05 0.405D-04-0.441D-05
 Coeff-Com:  0.178D-03-0.276D-03 0.126D-03 0.148D-03 0.643D-03-0.125D-02
 Coeff-Com: -0.198D-02-0.267D-01-0.176D-01-0.209D-01 0.265D+00 0.803D+00
 Coeff:      0.113D-03-0.128D-03 0.244D-05 0.110D-05 0.405D-04-0.441D-05
 Coeff:      0.178D-03-0.276D-03 0.126D-03 0.148D-03 0.643D-03-0.125D-02
 Coeff:     -0.198D-02-0.267D-01-0.176D-01-0.209D-01 0.265D+00 0.803D+00
 Gap=     0.044 Goal=   None    Shift=    0.000
 RMSDP=2.38D-07 MaxDP=1.99D-05 DE=-7.49D-10 OVMax= 1.85D-05

 Cycle  19  Pass 1  IDiag  1:
 E= -73.1790290151038     Delta-E=       -0.000000000159 Rises=F Damp=F
 DIIS: error= 6.63D-07 at cycle  19 NSaved=  19.
 NSaved=19 IEnMin=19 EnMin= -73.1790290151038     IErMin=19 ErrMin= 6.63D-07
 ErrMax= 6.63D-07  0.00D+00 EMaxC= 1.00D-01 BMatC= 7.52D-12 BMatP= 5.22D-11
 IDIUse=1 WtCom= 1.00D+00 WtEn= 0.00D+00
 Coeff-Com:  0.140D-05-0.164D-05 0.932D-05-0.137D-04-0.297D-04-0.402D-05
 Coeff-Com:  0.104D-03 0.341D-03-0.398D-03-0.422D-03-0.232D-02 0.737D-02
 Coeff-Com:  0.282D-02-0.873D-02-0.239D-01-0.898D-01-0.165D-01 0.459D+00
 Coeff-Com:  0.673D+00
 Coeff:      0.140D-05-0.164D-05 0.932D-05-0.137D-04-0.297D-04-0.402D-05
 Coeff:      0.104D-03 0.341D-03-0.398D-03-0.422D-03-0.232D-02 0.737D-02
 Coeff:      0.282D-02-0.873D-02-0.239D-01-0.898D-01-0.165D-01 0.459D+00
 Coeff:      0.673D+00
 Gap=     0.044 Goal=   None    Shift=    0.000
 RMSDP=1.57D-07 MaxDP=2.05D-05 DE=-1.59D-10 OVMax= 7.62D-06

 Cycle  20  Pass 1  IDiag  1:
 E= -73.1790290151291     Delta-E=       -0.000000000025 Rises=F Damp=F
 DIIS: error= 4.67D-08 at cycle  20 NSaved=  20.
 NSaved=20 IEnMin=20 EnMin= -73.1790290151291     IErMin=20 ErrMin= 4.67D-08
 ErrMax= 4.67D-08  0.00D+00 EMaxC= 1.00D-01 BMatC= 1.16D-13 BMatP= 7.52D-12
 IDIUse=1 WtCom= 1.00D+00 WtEn= 0.00D+00
 Coeff-Com: -0.878D-05 0.100D-04-0.520D-06-0.242D-05-0.751D-05 0.677D-05
 Coeff-Com: -0.275D-05 0.596D-04-0.390D-04-0.677D-04-0.539D-03 0.150D-02
 Coeff-Com:  0.703D-03 0.196D-03-0.248D-02-0.117D-01-0.207D-01-0.182D-02
 Coeff-Com:  0.930D-01 0.942D+00
 Coeff:     -0.878D-05 0.100D-04-0.520D-06-0.242D-05-0.751D-05 0.677D-05
 Coeff:     -0.275D-05 0.596D-04-0.390D-04-0.677D-04-0.539D-03 0.150D-02
 Coeff:      0.703D-03 0.196D-03-0.248D-02-0.117D-01-0.207D-01-0.182D-02
 Coeff:      0.930D-01 0.942D+00
 Gap=     0.044 Goal=   None    Shift=    0.000
 RMSDP=3.89D-08 MaxDP=7.34D-06 DE=-2.54D-11 OVMax= 1.48D-06

 Cycle  21  Pass 1  IDiag  1:
 E= -73.1790290151294     Delta-E=       -0.000000000000 Rises=F Damp=F
 DIIS: error= 5.57D-08 at cycle  21 NSaved=  20.
 NSaved=20 IEnMin=20 EnMin= -73.1790290151294     IErMin=19 ErrMin= 4.67D-08
 ErrMax= 5.57D-08  0.00D+00 EMaxC= 1.00D-01 BMatC= 3.78D-14 BMatP= 1.16D-13
 IDIUse=1 WtCom= 1.00D+00 WtEn= 0.00D+00
 Coeff-Com:  0.476D-07-0.170D-05 0.208D-06 0.121D-05 0.347D-05-0.775D-05
 Coeff-Com: -0.186D-04 0.312D-04 0.208D-04 0.443D-04-0.125D-03-0.374D-04
 Coeff-Com:  0.486D-03 0.122D-02 0.476D-02 0.102D-02-0.297D-01-0.302D-01
 Coeff-Com:  0.226D+00 0.826D+00
 Coeff:      0.476D-07-0.170D-05 0.208D-06 0.121D-05 0.347D-05-0.775D-05
 Coeff:     -0.186D-04 0.312D-04 0.208D-04 0.443D-04-0.125D-03-0.374D-04
 Coeff:      0.486D-03 0.122D-02 0.476D-02 0.102D-02-0.297D-01-0.302D-01
 Coeff:      0.226D+00 0.826D+00
 Gap=     0.044 Goal=   None    Shift=    0.000
 RMSDP=1.83D-08 MaxDP=4.09D-06 DE=-3.13D-13 OVMax= 5.83D-07

 Cycle  22  Pass 1  IDiag  1:
 E= -73.1790290151295     Delta-E=       -0.000000000000 Rises=F Damp=F
 DIIS: error= 2.73D-09 at cycle  22 NSaved=  20.
 NSaved=20 IEnMin=20 EnMin= -73.1790290151295     IErMin=20 ErrMin= 2.73D-09
 ErrMax= 2.73D-09  0.00D+00 EMaxC= 1.00D-01 BMatC= 1.80D-15 BMatP= 3.78D-14
 IDIUse=1 WtCom= 1.00D+00 WtEn= 0.00D+00
 Large coefficients: NSaved= 20 BigCof=    0.00 CofMax=   10.00 Det=-8.93D-15
 Inversion failed.  Reducing to 19 matrices.
 Coeff-Com: -0.747D-07 0.594D-06-0.298D-06-0.257D-06-0.545D-05-0.968D-06
 Coeff-Com:  0.281D-05 0.396D-04-0.445D-04-0.244D-04-0.720D-04 0.232D-03
 Coeff-Com:  0.128D-02 0.291D-02-0.286D-02-0.160D-01-0.773D-01 0.177D+00
 Coeff-Com:  0.915D+00
 Coeff:     -0.747D-07 0.594D-06-0.298D-06-0.257D-06-0.545D-05-0.968D-06
 Coeff:      0.281D-05 0.396D-04-0.445D-04-0.244D-04-0.720D-04 0.232D-03
 Coeff:      0.128D-02 0.291D-02-0.286D-02-0.160D-01-0.773D-01 0.177D+00
 Coeff:      0.915D+00
 Gap=     0.044 Goal=   None    Shift=    0.000
 RMSDP=4.13D-09 MaxDP=4.55D-07 DE=-5.68D-14 OVMax= 1.30D-07

 SCF Done:  E(ROHF) =  -73.1790290151     A.U. after   22 cycles
            NFock= 22  Conv=0.41D-08     -V/T= 2.9027
 <Sx>= 0.0000 <Sy>= 0.0000 <Sz>= 1.0000 <S**2>= 2.0000 S= 1.0000
 <L.S>=  0.00000000000    
 KE= 3.846103335778D+01 PE=-2.203962020007D+02 EE= 7.944786333069D+01
 Annihilation of the first spin contaminant:
 S**2 before annihilation     2.0000,   after     2.0000
 Leave Link  502 at Sat Mar 10 00:28:27 2018, MaxMem= 10737418240 cpu:             427.9 elap:              31.0
 (Enter /home1/apps/gaussian/16rA.03/g16/l801.exe)
 Windowed orbitals will be sorted by symmetry type.
 GenMOA:  NOpAll=  4 NOp2=4 NOpUse=  4 JSym2X=1
 FoFJK:  IHMeth= 1 ICntrl=       0 DoSepK=F KAlg= 0 I1Cent=           0 FoldK=F
 IRaf=         0 NMat=       1 IRICut=       1 DoRegI=T DoRafI=F ISym2E= 1 IDoP0=0 IntGTp=1.
 FoFCou: FMM=F IPFlag=           8 FMFlag=      100000 FMFlg1=           0
         NFxFlg=           0 DoJE=F BraDBF=F KetDBF=F FulRan=T
         wScrn=  0.000000 ICntrl=         0 IOpCl=  1 I1Cent=           0 NGrid=           0
         NMat0=    1 NMatS0=      1 NMatT0=    0 NMatD0=    1 NMtDS0=    0 NMtDT0=    0
 Petite list used in FoFCou.
 <Sx>= 0.0000 <Sy>= 0.0000 <Sz>= 1.0000 <S**2>= 2.0000 S= 1.0000
 Range of M.O.s used for correlation:     1   253
 NBasis=   261 NAE=    10 NBE=     8 NFC=     0 NFV=     0
 NROrb=    253 NOA=    10 NOB=     8 NVA=   243 NVB=   245

 **** Warning!!: The largest alpha MO coefficient is  0.27348627D+03


 **** Warning!!: The largest beta MO coefficient is  0.27346928D+03

 Singles contribution to E2=   -0.2476628272D-02
 Leave Link  801 at Sat Mar 10 00:28:34 2018, MaxMem= 10737418240 cpu:             103.3 elap:               6.5
 (Enter /home1/apps/gaussian/16rA.03/g16/l804.exe)
 Open-shell transformation, MDV= 10737418240 ITran=4 ISComp=2.
 Unit  1 TFree=       2061300 TCopy=       1530661.
 Semi-Direct transformation.
 ModeAB=           4 MOrb=            10 LenV=   10735400053
 LASXX=     20543512 LTotXX=    20543512 LenRXX=    41437941
 LTotAB=    20894429 MaxLAS=   123221120 LenRXY=           0
 NonZer=    61981453 LenScr=    93733376 LnRSAI=   123221120
 LnScr1=   185586688 LExtra=     8565616 Total=    452544741
 MaxDsk= 67108864000 SrtSym=           T ITran=            4
 DoSDTr:  NPSUse= 16
 JobTyp=1 Pass  1:  I=   1 to  10.
 (rs|ai) integrals will be sorted in core.
 Complete sort for first half transformation.
 First half transformation complete.
 Begin second half transformation for I=  10.
 Complete sort for second half transformation.
 Second half transformation complete.
 ModeAB=           4 MOrb=             8 LenV=   10735400053
 LASXX=     16400518 LTotXX=    16400518 LenRXX=    31738830
 LTotAB=    15338312 MaxLAS=    98576896 LenRXY=           0
 NonZer=    48139348 LenScr=    72962048 LnRSAI=    98576896
 LnScr1=   148643840 LExtra=    50003557 Total=    401925171
 MaxDsk= 67108864000 SrtSym=           T ITran=            4
 DoSDTr:  NPSUse= 16
 JobTyp=2 Pass  1:  I=   1 to   8.
 (rs|ai) integrals will be sorted in core.
 Complete sort for first half transformation.
 First half transformation complete.
 Complete sort for second half transformation.
 Second half transformation complete.
 Spin components of T(2) and E(2):
     alpha-alpha T2 =       0.2963758643D-01 E2=     -0.1148416098D+00
     alpha-beta  T2 =       0.1098317657D+00 E2=     -0.5243389771D+00
     beta-beta   T2 =       0.2133044627D-01 E2=     -0.8997006267D-01
 ANorm=    0.1077799679D+01
 E2 =    -0.7316272778D+00 EUMP2 =    -0.73910656292977D+02
 (S**2,0)=  0.20000D+01           (S**2,1)=  0.20000D+01
 E(PUHF)=      -0.73179029015D+02        E(PMP2)=      -0.73910656293D+02
 Leave Link  804 at Sat Mar 10 00:30:38 2018, MaxMem= 10737418240 cpu:            1971.3 elap:             123.4
 (Enter /home1/apps/gaussian/16rA.03/g16/l913.exe)
 CIDS:  MDV= 10737418240.
 IFCWin=0 IBDFC=1 NFBD=     0     0 NFCmp=     0     0 NFFFC=     0     0
 Using original routines for 1st iteration.
 Using DD4UQ or CC4UQ for 2nd and later iterations.
 Keep R2 and R3 ints in memory in symmetry-blocked form, NReq=734616043.
 FoFCou: FMM=F IPFlag=           8 FMFlag=           0 FMFlg1=           0
         NFxFlg=           0 DoJE=F BraDBF=F KetDBF=F FulRan=T
         wScrn=  0.000000 ICntrl=       600 IOpCl=  0 I1Cent=           0 NGrid=           0
         NMat0=    1 NMatS0=  34191 NMatT0=    0 NMatD0=    1 NMtDS0=    0 NMtDT0=    0
 Petite list used in FoFCou.
 CIDS: In Core Option IDoMem=           1.
 CCSD(T)
 =======
 Iterations= 150 Convergence= 0.100D-06
 Produce multiple copies of IABC intergrals
 Iteration Nr.   1
 **********************
 DD1Dir will call FoFMem   1 times, MxPair=       234
 NAB=    80 NAA=    45 NBB=    28.
 DD1Dir will call FoFMem   1 times, MxPair=       234
 NAB=    80 NAA=    45 NBB=    28.
 MP4(R+Q)= -0.51194596D-02
 Maximum subspace dimension=  5
 A-vector RMS=  1.2482086D-04 Max=  1.4614979D-03 conv= 1.00D-05.
 RLE energy=       -0.7156542532
 E3=        0.21386684D-01        EROMP3=      -0.73889269609D+02
 E4(SDQ)=  -0.20442000D-01        ROMP4(SDQ)=  -0.73909711609D+02
 VARIATIONAL ENERGIES WITH THE FIRST-ORDER WAVEFUNCTION:
 DE(Corr)= -0.71529613     E(Corr)=     -73.894325142    
 NORM(A)=   0.10733866D+01
 Iteration Nr.   2
 **********************
 DD1Dir will call FoFMem   1 times, MxPair=       234
 NAB=    80 NAA=    45 NBB=    28.
 A-vector RMS=  3.6024456D-03 Max=  3.8254927D-02 conv= 1.00D-05.
 RLE energy=       -0.7085092568
 DE(Corr)= -0.69335500     E(CORR)=     -73.872384015     Delta= 2.19D-02
 NORM(A)=   0.10708627D+01
 Iteration Nr.   3
 **********************
 DD1Dir will call FoFMem   1 times, MxPair=       234
 NAB=    80 NAA=    45 NBB=    28.
 A-vector RMS=  2.1389613D-03 Max=  2.1901411D-02 conv= 1.00D-05.
 RLE energy=       -0.7172404271
 DE(Corr)= -0.70406379     E(CORR)=     -73.883092804     Delta=-1.07D-02
 NORM(A)=   0.10740163D+01
 Iteration Nr.   4
 **********************
 DD1Dir will call FoFMem   1 times, MxPair=       234
 NAB=    80 NAA=    45 NBB=    28.
 A-vector RMS=  2.0538633D-03 Max=  2.2226822D-02 conv= 1.00D-05.
 RLE energy=       -0.7212570970
 DE(Corr)= -0.70678157     E(CORR)=     -73.885810581     Delta=-2.72D-03
 NORM(A)=   0.10838559D+01
 Iteration Nr.   5
 **********************
 DD1Dir will call FoFMem   1 times, MxPair=       234
 NAB=    80 NAA=    45 NBB=    28.
 A-vector RMS=  4.0915785D-04 Max=  4.7125154D-03 conv= 1.00D-05.
 RLE energy=       -0.7223935510
 DE(Corr)= -0.72353031     E(CORR)=     -73.902559322     Delta=-1.67D-02
 NORM(A)=   0.10871310D+01
 Iteration Nr.   6
 **********************
 DD1Dir will call FoFMem   1 times, MxPair=       234
 NAB=    80 NAA=    45 NBB=    28.
 A-vector RMS=  2.3260565D-04 Max=  2.1735223D-03 conv= 1.00D-05.
 RLE energy=       -0.7219610200
 DE(Corr)= -0.72398793     E(CORR)=     -73.903016950     Delta=-4.58D-04
 NORM(A)=   0.10861811D+01
 Iteration Nr.   7
 **********************
 DD1Dir will call FoFMem   1 times, MxPair=       234
 NAB=    80 NAA=    45 NBB=    28.
 A-vector RMS=  4.2263468D-05 Max=  7.5710968D-04 conv= 1.00D-05.
 RLE energy=       -0.7218423126
 DE(Corr)= -0.72181333     E(CORR)=     -73.900842343     Delta= 2.17D-03
 NORM(A)=   0.10863782D+01
 Iteration Nr.   8
 **********************
 DD1Dir will call FoFMem   1 times, MxPair=       234
 NAB=    80 NAA=    45 NBB=    28.
 A-vector RMS=  1.8285954D-05 Max=  2.5257613D-04 conv= 1.00D-05.
 RLE energy=       -0.7218801668
 DE(Corr)= -0.72190143     E(CORR)=     -73.900930450     Delta=-8.81D-05
 NORM(A)=   0.10864440D+01
 Iteration Nr.   9
 **********************
 DD1Dir will call FoFMem   1 times, MxPair=       234
 NAB=    80 NAA=    45 NBB=    28.
 A-vector RMS=  8.8954524D-06 Max=  9.9485362D-05 conv= 1.00D-05.
 RLE energy=       -0.7218867472
 DE(Corr)= -0.72186853     E(CORR)=     -73.900897549     Delta= 3.29D-05
 NORM(A)=   0.10864760D+01
 Iteration Nr.  10
 **********************
 DD1Dir will call FoFMem   1 times, MxPair=       234
 NAB=    80 NAA=    45 NBB=    28.
 A-vector RMS=  2.6572924D-06 Max=  3.7932489D-05 conv= 1.00D-05.
 RLE energy=       -0.7218806741
 DE(Corr)= -0.72187929     E(CORR)=     -73.900908310     Delta=-1.08D-05
 NORM(A)=   0.10864733D+01
 Iteration Nr.  11
 **********************
 DD1Dir will call FoFMem   1 times, MxPair=       234
 NAB=    80 NAA=    45 NBB=    28.
 A-vector RMS=  1.5400019D-06 Max=  2.1289026D-05 conv= 1.00D-05.
 RLE energy=       -0.7218830431
 DE(Corr)= -0.72188251     E(CORR)=     -73.900911523     Delta=-3.21D-06
 NORM(A)=   0.10864741D+01
 Iteration Nr.  12
 **********************
 DD1Dir will call FoFMem   1 times, MxPair=       234
 NAB=    80 NAA=    45 NBB=    28.
 A-vector RMS=  4.8967063D-07 Max=  5.5066223D-06 conv= 1.00D-05.
 RLE energy=       -0.7218808329
 DE(Corr)= -0.72188066     E(CORR)=     -73.900909674     Delta= 1.85D-06
 NORM(A)=   0.10864748D+01
 Iteration Nr.  13
 **********************
 DD1Dir will call FoFMem   1 times, MxPair=       234
 NAB=    80 NAA=    45 NBB=    28.
 A-vector RMS=  2.8861767D-07 Max=  4.0812099D-06 conv= 1.00D-05.
 RLE energy=       -0.7218819359
 DE(Corr)= -0.72188193     E(CORR)=     -73.900910944     Delta=-1.27D-06
 NORM(A)=   0.10864759D+01
 Iteration Nr.  14
 **********************
 DD1Dir will call FoFMem   1 times, MxPair=       234
 NAB=    80 NAA=    45 NBB=    28.
 A-vector RMS=  1.4875892D-07 Max=  1.4732008D-06 conv= 1.00D-05.
 RLE energy=       -0.7218815984
 DE(Corr)= -0.72188143     E(CORR)=     -73.900910449     Delta= 4.95D-07
 NORM(A)=   0.10864765D+01
 Iteration Nr.  15
 **********************
 DD1Dir will call FoFMem   1 times, MxPair=       234
 NAB=    80 NAA=    45 NBB=    28.
 A-vector RMS=  7.1387836D-08 Max=  9.2976669D-07 conv= 1.00D-05.
 RLE energy=       -0.7218818823
 DE(Corr)= -0.72188188     E(CORR)=     -73.900910891     Delta=-4.42D-07
 NORM(A)=   0.10864769D+01
 Iteration Nr.  16
 **********************
 DD1Dir will call FoFMem   1 times, MxPair=       234
 NAB=    80 NAA=    45 NBB=    28.
 A-vector RMS=  4.0008963D-08 Max=  4.9041321D-07 conv= 1.00D-05.
 RLE energy=       -0.7218818983
 DE(Corr)= -0.72188184     E(CORR)=     -73.900910850     Delta= 4.11D-08
 NORM(A)=   0.10864771D+01
 CI/CC converged in   16 iterations to DelEn= 4.11D-08 Conv= 1.00D-07 ErrA1= 4.00D-08 Conv= 1.00D-05
 Wavefunction amplitudes converged. E(Corr)=     -73.900910850    
 Largest amplitude= 5.28D-02
 Time for triples=    11748.35 seconds.
 T4(CCSD)= -0.38139933D-01
 T5(CCSD)=  0.37473575D-02
 CCSD(T)= -0.73935303426D+02
 Discarding MO integrals.
 Leave Link  913 at Sat Mar 10 00:47:33 2018, MaxMem= 10737418240 cpu:           16222.8 elap:            1014.9
 (Enter /home1/apps/gaussian/16rA.03/g16/l601.exe)
 Copying SCF densities to generalized density rwf, IOpCl= 0 IROHF=1.

 **********************************************************************

            Population analysis using the SCF density.

 **********************************************************************

 Orbital symmetries:
       Occupied  (SG) (SG) (PI) (PI) (SG) (PI) (PI) (SG) (SG) (?A)
       Virtual   (PI) (PI) (SG) (SG) (SG) (?A) (PI) (PI) (?A) (PI)
                 (PI) (SG) (SG) (?A) (SG) (PI) (PI) (?A) (PI) (PI)
                 (SG) (PI) (PI) (SG) (?A) (?A) (?A) (?B) (?B) (?B)
                 (?B) (SG) (SG) (PI) (PI) (SG) (SG) (PI) (PI) (?A)
                 (PI) (PI) (?A) (SG) (DLTA) (DLTA) (SG) (PI) (PI)
                 (?C) (?C) (?C) (PHI) (PHI) (DLTA) (DLTA) (PI)
                 (PI) (PHI) (PHI) (SG) (SG) (DLTA) (DLTA) (PI)
                 (PI) (SG) (PI) (PI) (SG) (PI) (PI) (?A) (SG) (?A)
                 (SG) (PI) (PI) (DLTA) (DLTA) (PHI) (PHI) (SG)
                 (SG) (PI) (PI) (DLTA) (DLTA) (PI) (PI) (PHI) (PHI)
                 (DLTA) (DLTA) (SG) (?D) (?D) (PHI) (PHI) (SG)
                 (PI) (PI) (PI) (PI) (DLTA) (DLTA) (SG) (SG) (PI)
                 (PI) (SG) (PI) (PI) (SG) (DLTA) (DLTA) (PI) (PI)
                 (SG) (SG) (PHI) (PHI) (DLTA) (DLTA) (DLTA) (DLTA)
                 (PI) (PI) (SG) (PI) (PI) (SG) (SG) (?B) (?B) (?B)
                 (?B) (DLTA) (DLTA) (SG) (PI) (PI) (SG) (PHI) (PHI)
                 (?D) (?D) (DLTA) (DLTA) (PI) (PI) (SG) (DLTA)
                 (DLTA) (PI) (PI) (SG) (PI) (PI) (SG) (SG) (SG)
                 (PI) (PI) (SG) (DLTA) (DLTA) (PI) (PI) (SG) (SG)
                 (PI) (PI) (SG) (SG) (DLTA) (DLTA) (PI) (PI) (SG)
                 (PI) (PI) (SG) (SG) (DLTA) (DLTA) (PI) (PI) (SG)
                 (SG) (PI) (PI) (SG) (SG) (PI) (PI) (SG) (SG) (PI)
                 (PI) (SG) (SG) (DLTA) (DLTA) (PI) (PI) (SG) (SG)
                 (PI) (PI) (SG) (PI) (PI) (SG) (SG) (SG) (PI) (PI)
                 (SG) (SG) (PI) (PI) (SG) (SG) (SG) (PI) (PI) (SG)
                 (SG) (SG) (PI) (PI) (SG) (SG) (SG) (SG) (PI) (PI)
                 (SG) (SG) (SG) (SG) (SG)
 Unable to determine electronic state:  an orbital has unidentified symmetry.
 Alpha  occ. eigenvalues --   -2.93655  -1.96384  -1.82725  -1.82725  -1.14654
 Alpha  occ. eigenvalues --   -0.59297  -0.59297  -0.52588  -0.35621  -0.21611
 Alpha virt. eigenvalues --    0.01193   0.01193   0.02319   0.02551   0.04819
 Alpha virt. eigenvalues --    0.04819   0.05012   0.05165   0.05329   0.05795
 Alpha virt. eigenvalues --    0.05795   0.08533   0.11829   0.13698   0.14646
 Alpha virt. eigenvalues --    0.15847   0.15847   0.18865   0.20850   0.20850
 Alpha virt. eigenvalues --    0.21841   0.24399   0.24399   0.25084   0.26461
 Alpha virt. eigenvalues --    0.31011   0.31107   0.31513   0.31513   0.31743
 Alpha virt. eigenvalues --    0.31743   0.32476   0.38641   0.44704   0.44704
 Alpha virt. eigenvalues --    0.45147   0.60235   0.61454   0.61454   0.62063
 Alpha virt. eigenvalues --    0.65095   0.65095   0.69235   0.70536   0.81272
 Alpha virt. eigenvalues --    0.81687   0.82813   0.89983   0.89983   0.95413
 Alpha virt. eigenvalues --    0.99526   0.99531   0.99618   0.99618   1.00885
 Alpha virt. eigenvalues --    1.01195   1.04418   1.04418   1.06364   1.06364
 Alpha virt. eigenvalues --    1.09985   1.17808   1.31121   1.31964   1.33475
 Alpha virt. eigenvalues --    1.33475   1.47782   1.54402   1.54402   1.67025
 Alpha virt. eigenvalues --    1.81550   1.81550   1.89900   1.94699   1.95483
 Alpha virt. eigenvalues --    2.07676   2.08913   2.08913   2.26858   2.27089
 Alpha virt. eigenvalues --    2.28587   2.28587   2.43644   2.57380   2.58794
 Alpha virt. eigenvalues --    2.58794   2.71585   2.71830   2.90257   2.90257
 Alpha virt. eigenvalues --    3.23985   3.23985   3.31479   3.34125   3.35949
 Alpha virt. eigenvalues --    3.43188   3.43196   3.46771   3.46771   3.64605
 Alpha virt. eigenvalues --    3.68650   3.68650   3.89783   3.89783   3.93966
 Alpha virt. eigenvalues --    3.94430   4.05891   4.44233   4.45252   4.45252
 Alpha virt. eigenvalues --    4.81986   5.06250   5.06250   5.11438   5.11812
 Alpha virt. eigenvalues --    5.14693   5.27449   5.27449   5.75816   6.41079
 Alpha virt. eigenvalues --    6.58369   6.58369   6.82668   6.82695   7.12963
 Alpha virt. eigenvalues --    7.12988   7.31298   7.31298   7.42667   7.57855
 Alpha virt. eigenvalues --    7.57855   8.55079   9.09016   9.29262   9.29262
 Alpha virt. eigenvalues --    9.38424   9.38424   9.39933   9.41734   9.82539
 Alpha virt. eigenvalues --   10.16487  10.16487  10.70471  11.03223  11.03226
 Alpha virt. eigenvalues --   11.03712  11.03712  11.15494  11.15873  11.24574
 Alpha virt. eigenvalues --   11.24574  11.65086  11.84314  11.84759  12.09236
 Alpha virt. eigenvalues --   12.09236  13.67177  15.14367  15.14367  15.74072
 Alpha virt. eigenvalues --   17.00793  17.26063  18.63362  18.63362  19.01868
 Alpha virt. eigenvalues --   25.52346  25.52893  25.68155  25.68155  26.51599
 Alpha virt. eigenvalues --   30.02763  37.23056  37.23056  37.55900  38.50997
 Alpha virt. eigenvalues --   43.69884  43.69887  43.85760  43.85760  44.26165
 Alpha virt. eigenvalues --   45.74419  45.74419  46.77746  54.46326  69.03106
 Alpha virt. eigenvalues --   69.03564  69.14852  69.14852  69.76775  74.68137
 Alpha virt. eigenvalues --   75.28971  75.28971  75.67677 103.26875 119.08850
 Alpha virt. eigenvalues --  119.08850 119.98440 136.92877 152.85585 152.85585
 Alpha virt. eigenvalues --  153.19920 203.76534 253.34375 253.34540 253.41836
 Alpha virt. eigenvalues --  253.41836 253.81892 257.69367 286.36437 286.36437
 Alpha virt. eigenvalues --  287.19113 315.20578 315.20578 315.53524 420.15386
 Alpha virt. eigenvalues --  555.18678 672.83085 672.83085 673.13749 900.13228
 Alpha virt. eigenvalues -- 1518.516331518.516331518.793711529.706582000.61583
 Alpha virt. eigenvalues -- 3732.790943732.790943733.033924639.275895659.84988
 Alpha virt. eigenvalues -- **************************************************
 Alpha virt. eigenvalues -- **************************************************
 Alpha virt. eigenvalues -- ******************************
     Molecular Orbital Coefficients:
                           4         5         6         7         8
                           O         O         O         O         O
     Eigenvalues --    -1.82725  -1.14654  -0.59297  -0.59297  -0.52588
   1 1   Ti 1S          0.00000  -0.00000   0.00000   0.00000  -0.00000
   2        2S          0.00000   0.00000   0.00000   0.00000   0.00000
   3        3S          0.00000  -0.00000   0.00000   0.00000  -0.00000
   4        4S          0.00000   0.00000   0.00000   0.00000   0.00000
   5        5S          0.00000  -0.00000   0.00000   0.00000  -0.00000
   6        6S          0.00000   0.00001   0.00000   0.00000   0.00000
   7        7S          0.00000  -0.00002   0.00000   0.00000  -0.00001
   8        8S          0.00000   0.00007   0.00000   0.00000   0.00004
   9        9S          0.00000  -0.00020   0.00000   0.00000  -0.00014
  10       10S          0.00000   0.00061   0.00000   0.00000   0.00042
  11       11S          0.00000  -0.00188   0.00000   0.00000  -0.00133
  12       12S          0.00000   0.00825   0.00000   0.00000   0.00615
  13       13S          0.00000  -0.03920   0.00000   0.00000  -0.03056
  14       14S          0.00000   0.11698   0.00000   0.00000   0.09168
  15       15S          0.00000   0.01090   0.00000   0.00000  -0.01123
  16       16S          0.00000  -0.15314   0.00000   0.00000  -0.15854
  17       17S          0.00000  -0.13386   0.00000   0.00000  -0.21840
  18       18S          0.00000  -0.00693   0.00000   0.00000  -0.05226
  19       19S          0.00000   0.05034   0.00000   0.00000   0.08302
  20       20S          0.00000  -0.01126   0.00000   0.00000  -0.01538
  21       21S          0.00000  -0.04824   0.00000   0.00000  -0.01988
  22       22S          0.00000   0.01617   0.00000   0.00000   0.10140
  23       23S          0.00000   0.00243   0.00000   0.00000   0.00598
  24       24PX         0.00000   0.00000   0.00000   0.00000   0.00000
  25       24PY        -0.00000   0.00000   0.00000   0.00000   0.00000
  26       24PZ         0.00000  -0.00000   0.00000   0.00000  -0.00000
  27       25PX         0.00000   0.00000  -0.00000   0.00000   0.00000
  28       25PY         0.00001   0.00000   0.00000  -0.00000   0.00000
  29       25PZ         0.00000   0.00000   0.00000   0.00000   0.00000
  30       26PX         0.00000   0.00000   0.00001   0.00000   0.00000
  31       26PY        -0.00005   0.00000   0.00000   0.00001   0.00000
  32       26PZ         0.00000  -0.00002   0.00000   0.00000  -0.00001
  33       27PX         0.00000   0.00000  -0.00004   0.00000   0.00000
  34       27PY         0.00021   0.00000   0.00000  -0.00004   0.00000
  35       27PZ         0.00000   0.00010   0.00000   0.00000   0.00004
  36       28PX         0.00000   0.00000   0.00014   0.00000   0.00000
  37       28PY        -0.00079   0.00000   0.00000   0.00014   0.00000
  38       28PZ         0.00000  -0.00036   0.00000   0.00000  -0.00014
  39       29PX         0.00000   0.00000  -0.00049   0.00000   0.00000
  40       29PY         0.00269   0.00000   0.00000  -0.00049   0.00000
  41       29PZ         0.00000   0.00124   0.00000   0.00000   0.00050
  42       30PX         0.00000   0.00000   0.00165   0.00000   0.00000
  43       30PY        -0.00898   0.00000   0.00000   0.00165   0.00000
  44       30PZ         0.00000  -0.00418   0.00000   0.00000  -0.00177
  45       31PX         0.00000   0.00000  -0.00555   0.00000   0.00000
  46       31PY         0.02962   0.00000   0.00000  -0.00555   0.00000
  47       31PZ         0.00000   0.01402   0.00000   0.00000   0.00625
  48       32PX         0.00000   0.00000   0.01343   0.00000   0.00000
  49       32PY        -0.06835   0.00000   0.00000   0.01343   0.00000
  50       32PZ         0.00000  -0.03292   0.00000   0.00000  -0.01452
  51       33PX         0.00000   0.00000   0.00804   0.00000   0.00000
  52       33PY        -0.14970   0.00000   0.00000   0.00804   0.00000
  53       33PZ         0.00000  -0.10457   0.00000   0.00000  -0.12463
  54       34PX         0.00000   0.00000  -0.07347   0.00000   0.00000
  55       34PY         0.36815   0.00000   0.00000  -0.07347   0.00000
  56       34PZ         0.00000   0.18538   0.00000   0.00000   0.11685
  57       35PX         0.00000   0.00000  -0.02635   0.00000   0.00000
  58       35PY        -0.25487   0.00000   0.00000  -0.02635   0.00000
  59       35PZ         0.00000  -0.20771   0.00000   0.00000  -0.33801
  60       36PX         0.00000   0.00000  -0.06884   0.00000   0.00000
  61       36PY         0.26639   0.00000   0.00000  -0.06884   0.00000
  62       36PZ         0.00000   0.14855   0.00000   0.00000   0.10323
  63       37PX         0.00000   0.00000  -0.02480   0.00000   0.00000
  64       37PY         0.04381   0.00000   0.00000  -0.02480   0.00000
  65       37PZ         0.00000   0.03549   0.00000   0.00000   0.06104
  66       38PX         0.00000   0.00000  -0.00180   0.00000   0.00000
  67       38PY        -0.01583   0.00000   0.00000  -0.00180   0.00000
  68       38PZ         0.00000  -0.03038   0.00000   0.00000  -0.02642
  69       39PX         0.00000   0.00000  -0.00920   0.00000   0.00000
  70       39PY         0.00151   0.00000   0.00000  -0.00920   0.00000
  71       39PZ         0.00000   0.00244   0.00000   0.00000  -0.00398
  72       40PX         0.00000   0.00000  -0.00354   0.00000   0.00000
  73       40PY         0.11962   0.00000   0.00000  -0.00354   0.00000
  74       40PZ         0.00000   0.09201   0.00000   0.00000   0.11401
  75       41PX         0.00000   0.00000  -0.06158   0.00000   0.00000
  76       41PY         0.70859   0.00000   0.00000  -0.06158   0.00000
  77       41PZ         0.00000   0.43752   0.00000   0.00000   0.45427
  78       42PX         0.00000   0.00000   0.00150   0.00000   0.00000
  79       42PY        -0.00078   0.00000   0.00000   0.00150   0.00000
  80       42PZ         0.00000  -0.00055   0.00000   0.00000   0.00021
  81       43D 0        0.00000  -0.00007   0.00000   0.00000  -0.00022
  82       43D+1        0.00000   0.00000   0.00011   0.00000   0.00000
  83       43D-1        0.00002   0.00000   0.00000   0.00011   0.00000
  84       43D+2        0.00000  -0.00000   0.00000   0.00000   0.00000
  85       43D-2        0.00000   0.00000   0.00000   0.00000   0.00000
  86       44D 0        0.00000   0.00013   0.00000   0.00000   0.00046
  87       44D+1        0.00000   0.00000  -0.00029   0.00000   0.00000
  88       44D-1       -0.00005   0.00000   0.00000  -0.00029   0.00000
  89       44D+2        0.00000   0.00000   0.00000   0.00000  -0.00000
  90       44D-2        0.00000   0.00000   0.00000   0.00000   0.00000
  91       45D 0        0.00000   0.02342   0.00000   0.00000   0.07496
  92       45D+1        0.00000   0.00000  -0.03552   0.00000   0.00000
  93       45D-1       -0.00373   0.00000   0.00000  -0.03552   0.00000
  94       45D+2        0.00000   0.00000   0.00000   0.00000  -0.00000
  95       45D-2        0.00000   0.00000   0.00000   0.00000   0.00000
  96       46D 0        0.00000   0.01146   0.00000   0.00000   0.04653
  97       46D+1        0.00000   0.00000  -0.03593   0.00000   0.00000
  98       46D-1       -0.00715   0.00000   0.00000  -0.03593   0.00000
  99       46D+2        0.00000  -0.00000   0.00000   0.00000  -0.00000
 100       46D-2        0.00000   0.00000   0.00000   0.00000   0.00000
 101       47D 0        0.00000   0.04745   0.00000   0.00000   0.12517
 102       47D+1        0.00000   0.00000  -0.05404   0.00000   0.00000
 103       47D-1       -0.00538   0.00000   0.00000  -0.05404   0.00000
 104       47D+2        0.00000  -0.00000   0.00000   0.00000  -0.00000
 105       47D-2        0.00000   0.00000   0.00000   0.00000   0.00000
 106       48D 0        0.00000   0.06466   0.00000   0.00000   0.21277
 107       48D+1        0.00000   0.00000  -0.11443   0.00000   0.00000
 108       48D-1       -0.00003   0.00000   0.00000  -0.11443   0.00000
 109       48D+2        0.00000   0.00000   0.00000   0.00000  -0.00000
 110       48D-2        0.00000   0.00000   0.00000   0.00000   0.00000
 111       49D 0        0.00000   0.02123   0.00000   0.00000   0.09783
 112       49D+1        0.00000   0.00000  -0.03429   0.00000   0.00000
 113       49D-1        0.00786   0.00000   0.00000  -0.03429   0.00000
 114       49D+2        0.00000   0.00000   0.00000   0.00000  -0.00000
 115       49D-2        0.00000   0.00000   0.00000   0.00000   0.00000
 116       50D 0        0.00000   0.00558   0.00000   0.00000   0.01509
 117       50D+1        0.00000   0.00000   0.00501   0.00000   0.00000
 118       50D-1        0.00414   0.00000   0.00000   0.00501   0.00000
 119       50D+2        0.00000  -0.00000   0.00000   0.00000  -0.00000
 120       50D-2        0.00000   0.00000   0.00000   0.00000   0.00000
 121       51D 0        0.00000   0.03134   0.00000   0.00000   0.08964
 122       51D+1        0.00000   0.00000  -0.02725   0.00000   0.00000
 123       51D-1       -0.00084   0.00000   0.00000  -0.02725   0.00000
 124       51D+2        0.00000   0.00000   0.00000   0.00000  -0.00000
 125       51D-2        0.00000   0.00000   0.00000   0.00000   0.00000
 126       52D 0        0.00000   0.01562   0.00000   0.00000   0.08432
 127       52D+1        0.00000   0.00000  -0.05399   0.00000   0.00000
 128       52D-1       -0.00853   0.00000   0.00000  -0.05399   0.00000
 129       52D+2        0.00000   0.00000   0.00000   0.00000  -0.00000
 130       52D-2        0.00000   0.00000   0.00000   0.00000   0.00000
 131       53D 0        0.00000  -0.00079   0.00000   0.00000   0.00042
 132       53D+1        0.00000   0.00000   0.00075   0.00000   0.00000
 133       53D-1       -0.00002   0.00000   0.00000   0.00075   0.00000
 134       53D+2        0.00000   0.00000   0.00000   0.00000  -0.00000
 135       53D-2        0.00000   0.00000   0.00000   0.00000   0.00000
 136       54F 0        0.00000  -0.00232   0.00000   0.00000  -0.00709
 137       54F+1        0.00000   0.00000   0.00479   0.00000   0.00000
 138       54F-1       -0.00020   0.00000   0.00000   0.00479   0.00000
 139       54F+2        0.00000   0.00000   0.00000   0.00000   0.00000
 140       54F-2        0.00000   0.00000   0.00000   0.00000   0.00000
 141       54F+3        0.00000   0.00000  -0.00026   0.00000   0.00000
 142       54F-3       -0.00197   0.00000   0.00000   0.00026   0.00000
 143       55F 0        0.00000  -0.00623   0.00000   0.00000  -0.02268
 144       55F+1        0.00000   0.00000   0.02127   0.00000   0.00000
 145       55F-1        0.00024   0.00000   0.00000   0.02127   0.00000
 146       55F+2        0.00000   0.00000   0.00000   0.00000   0.00000
 147       55F-2        0.00000   0.00000   0.00000   0.00000   0.00000
 148       55F+3        0.00000   0.00000  -0.00043   0.00000   0.00000
 149       55F-3       -0.00441   0.00000   0.00000   0.00043   0.00000
 150       56F 0        0.00000  -0.01135   0.00000   0.00000  -0.02267
 151       56F+1        0.00000   0.00000   0.02052   0.00000   0.00000
 152       56F-1       -0.00514   0.00000   0.00000   0.02052   0.00000
 153       56F+2        0.00000   0.00000   0.00000   0.00000   0.00000
 154       56F-2        0.00000   0.00000   0.00000   0.00000   0.00000
 155       56F+3        0.00000   0.00000  -0.00026   0.00000   0.00000
 156       56F-3       -0.00339   0.00000   0.00000   0.00026   0.00000
 157       57F 0        0.00000  -0.00218   0.00000   0.00000  -0.00867
 158       57F+1        0.00000   0.00000  -0.00568   0.00000   0.00000
 159       57F-1       -0.00284   0.00000   0.00000  -0.00568   0.00000
 160       57F+2        0.00000  -0.00000   0.00000   0.00000  -0.00000
 161       57F-2        0.00000   0.00000   0.00000   0.00000   0.00000
 162       57F+3        0.00000   0.00000   0.00010   0.00000   0.00000
 163       57F-3        0.00004   0.00000   0.00000  -0.00010   0.00000
 164       58G 0        0.00000   0.00055   0.00000   0.00000   0.00340
 165       58G+1        0.00000   0.00000  -0.00229   0.00000   0.00000
 166       58G-1       -0.00077   0.00000   0.00000  -0.00229   0.00000
 167       58G+2        0.00000   0.00000   0.00000   0.00000   0.00000
 168       58G-2        0.00000   0.00000   0.00000   0.00000   0.00000
 169       58G+3        0.00000   0.00000  -0.00007   0.00000   0.00000
 170       58G-3        0.00003   0.00000   0.00000   0.00007   0.00000
 171       58G+4        0.00000  -0.00004   0.00000   0.00000  -0.00014
 172       58G-4        0.00000   0.00000   0.00000   0.00000   0.00000
 173       59G 0        0.00000   0.00031   0.00000   0.00000   0.00591
 174       59G+1        0.00000   0.00000  -0.00487   0.00000   0.00000
 175       59G-1       -0.00116   0.00000   0.00000  -0.00487   0.00000
 176       59G+2        0.00000   0.00000   0.00000   0.00000   0.00000
 177       59G-2        0.00000   0.00000   0.00000   0.00000   0.00000
 178       59G+3        0.00000   0.00000  -0.00017   0.00000   0.00000
 179       59G-3        0.00006   0.00000   0.00000   0.00017   0.00000
 180       59G+4        0.00000  -0.00019   0.00000   0.00000  -0.00047
 181       59G-4        0.00000   0.00000   0.00000   0.00000   0.00000
 182       60G 0        0.00000   0.00319   0.00000   0.00000   0.00200
 183       60G+1        0.00000   0.00000  -0.00438   0.00000   0.00000
 184       60G-1        0.00176   0.00000   0.00000  -0.00438   0.00000
 185       60G+2        0.00000   0.00000   0.00000   0.00000   0.00000
 186       60G-2        0.00000   0.00000   0.00000   0.00000   0.00000
 187       60G+3        0.00000   0.00000  -0.00017   0.00000   0.00000
 188       60G-3        0.00000   0.00000   0.00000   0.00017   0.00000
 189       60G+4        0.00000  -0.00008   0.00000   0.00000  -0.00040
 190       60G-4        0.00000   0.00000   0.00000   0.00000   0.00000
 191 2   O  1S          0.00000  -0.00000   0.00000   0.00000  -0.00000
 192        2S          0.00000   0.00001   0.00000   0.00000   0.00000
 193        3S          0.00000  -0.00004   0.00000   0.00000  -0.00000
 194        4S          0.00000   0.00029   0.00000   0.00000   0.00003
 195        5S          0.00000  -0.00305   0.00000   0.00000  -0.00024
 196        6S          0.00000  -0.04534   0.00000   0.00000  -0.00547
 197        7S          0.00000  -0.15049   0.00000   0.00000  -0.00791
 198        8S          0.00000   0.53344   0.00000   0.00000  -0.01580
 199        9S          0.00000   0.14018   0.00000   0.00000  -0.00022
 200       10S          0.00000   0.39723   0.00000   0.00000  -0.11669
 201       11S          0.00000  -0.00608   0.00000   0.00000   0.01060
 202       12S          0.00000   0.04424   0.00000   0.00000   0.00348
 203       13S          0.00000  -0.01570   0.00000   0.00000  -0.10476
 204       14PX         0.00000   0.00000   0.00776   0.00000   0.00000
 205       14PY         0.00058   0.00000   0.00000   0.00776   0.00000
 206       14PZ         0.00000  -0.00067   0.00000   0.00000   0.00694
 207       15PX         0.00000   0.00000   0.08068   0.00000   0.00000
 208       15PY         0.00647   0.00000   0.00000   0.08068   0.00000
 209       15PZ         0.00000  -0.00809   0.00000   0.00000   0.07516
 210       16PX         0.00000   0.00000   0.25901   0.00000   0.00000
 211       16PY         0.02183   0.00000   0.00000   0.25901   0.00000
 212       16PZ         0.00000  -0.03127   0.00000   0.00000   0.25000
 213       17PX         0.00000   0.00000   0.42292   0.00000   0.00000
 214       17PY         0.03370   0.00000   0.00000   0.42292   0.00000
 215       17PZ         0.00000  -0.02495   0.00000   0.00000   0.38946
 216       18PX         0.00000   0.00000   0.31552   0.00000   0.00000
 217       18PY         0.02099   0.00000   0.00000   0.31552   0.00000
 218       18PZ         0.00000   0.01914   0.00000   0.00000   0.27417
 219       19PX         0.00000   0.00000   0.00460   0.00000   0.00000
 220       19PY         0.00059   0.00000   0.00000   0.00460   0.00000
 221       19PZ         0.00000  -0.00091   0.00000   0.00000   0.00537
 222       20PX         0.00000   0.00000  -0.00204   0.00000   0.00000
 223       20PY        -0.00014   0.00000   0.00000  -0.00204   0.00000
 224       20PZ         0.00000   0.00016   0.00000   0.00000  -0.00179
 225       21PX         0.00000   0.00000   0.04176   0.00000   0.00000
 226       21PY         0.00893   0.00000   0.00000   0.04176   0.00000
 227       21PZ         0.00000  -0.00301   0.00000   0.00000   0.03038
 228       22D 0        0.00000  -0.00257   0.00000   0.00000   0.01069
 229       22D+1        0.00000   0.00000   0.00969   0.00000   0.00000
 230       22D-1        0.00417   0.00000   0.00000   0.00969   0.00000
 231       22D+2        0.00000   0.00000   0.00000   0.00000  -0.00000
 232       22D-2        0.00000   0.00000   0.00000   0.00000   0.00000
 233       23D 0        0.00000   0.00492   0.00000   0.00000   0.03237
 234       23D+1        0.00000   0.00000   0.03592   0.00000   0.00000
 235       23D-1        0.00873   0.00000   0.00000   0.03592   0.00000
 236       23D+2        0.00000   0.00000   0.00000   0.00000  -0.00000
 237       23D-2        0.00000   0.00000   0.00000   0.00000   0.00000
 238       24D 0        0.00000  -0.00018   0.00000   0.00000   0.00039
 239       24D+1        0.00000   0.00000   0.00039   0.00000   0.00000
 240       24D-1        0.00017   0.00000   0.00000   0.00039   0.00000
 241       24D+2        0.00000   0.00000   0.00000   0.00000  -0.00000
 242       24D-2        0.00000   0.00000   0.00000   0.00000   0.00000
 243       25D 0        0.00000   0.00697   0.00000   0.00000   0.02134
 244       25D+1        0.00000   0.00000   0.02688   0.00000   0.00000
 245       25D-1        0.00308   0.00000   0.00000   0.02688   0.00000
 246       25D+2        0.00000   0.00000   0.00000   0.00000  -0.00000
 247       25D-2        0.00000   0.00000   0.00000   0.00000   0.00000
 248       26F 0        0.00000  -0.00021   0.00000   0.00000   0.00642
 249       26F+1        0.00000   0.00000   0.00666   0.00000   0.00000
 250       26F-1        0.00277   0.00000   0.00000   0.00666   0.00000
 251       26F+2        0.00000   0.00000   0.00000   0.00000   0.00000
 252       26F-2        0.00000   0.00000   0.00000   0.00000   0.00000
 253       26F+3        0.00000   0.00000   0.00001   0.00000   0.00000
 254       26F-3       -0.00003   0.00000   0.00000  -0.00001   0.00000
 255       27F 0        0.00000   0.00196   0.00000   0.00000   0.00821
 256       27F+1        0.00000   0.00000   0.00727   0.00000   0.00000
 257       27F-1        0.00061   0.00000   0.00000   0.00727   0.00000
 258       27F+2        0.00000   0.00000   0.00000   0.00000  -0.00000
 259       27F-2        0.00000   0.00000   0.00000   0.00000   0.00000
 260       27F+3        0.00000   0.00000  -0.00001   0.00000   0.00000
 261       27F-3        0.00001   0.00000   0.00000   0.00001   0.00000
                           9        10        11        12        13
                           O         O         V         V         V
     Eigenvalues --    -0.35621  -0.21611   0.01193   0.01193   0.02319
   1 1   Ti 1S         -0.00000   0.00000   0.00000   0.00000  -0.00000
   2        2S          0.00000  -0.00000   0.00000   0.00000   0.00000
   3        3S         -0.00000   0.00000   0.00000   0.00000  -0.00000
   4        4S          0.00000  -0.00000   0.00000   0.00000   0.00000
   5        5S         -0.00000   0.00000   0.00000   0.00000  -0.00000
   6        6S          0.00001  -0.00000   0.00000   0.00000   0.00000
   7        7S         -0.00003   0.00000   0.00000   0.00000  -0.00001
   8        8S          0.00009  -0.00000   0.00000   0.00000   0.00002
   9        9S         -0.00026   0.00000   0.00000   0.00000  -0.00006
  10       10S          0.00078  -0.00000   0.00000   0.00000   0.00017
  11       11S         -0.00243   0.00000   0.00000   0.00000  -0.00047
  12       12S          0.01071  -0.00000   0.00000   0.00000   0.00178
  13       13S         -0.05164  -0.00000   0.00000   0.00000  -0.00768
  14       14S          0.16023  -0.00000   0.00000   0.00000   0.02663
  15       15S          0.05434  -0.00000   0.00000   0.00000   0.04958
  16       16S         -0.25800   0.00000   0.00000   0.00000  -0.05947
  17       17S         -0.28453   0.00000   0.00000   0.00000   0.04228
  18       18S          0.22920  -0.00000   0.00000   0.00000   1.04087
  19       19S          0.65389   0.00000   0.00000   0.00000  -1.61873
  20       20S          0.28632  -0.00000   0.00000   0.00000   2.90410
  21       21S         -0.09508   0.00000   0.00000   0.00000  -0.04661
  22       22S          0.07040  -0.00000   0.00000   0.00000  -0.02145
  23       23S          0.00710   0.00000   0.00000   0.00000  -2.37963
  24       24PX         0.00000   0.00000  -0.00000   0.00000   0.00000
  25       24PY         0.00000   0.00000   0.00000  -0.00000   0.00000
  26       24PZ         0.00000  -0.00000   0.00000   0.00000  -0.00000
  27       25PX         0.00000   0.00000   0.00000   0.00000   0.00000
  28       25PY         0.00000   0.00000   0.00000   0.00000   0.00000
  29       25PZ        -0.00000   0.00000   0.00000   0.00000   0.00000
  30       26PX         0.00000   0.00000  -0.00000   0.00000   0.00000
  31       26PY         0.00000   0.00000   0.00000  -0.00000   0.00000
  32       26PZ         0.00000  -0.00000   0.00000   0.00000  -0.00000
  33       27PX         0.00000   0.00000   0.00000   0.00000   0.00000
  34       27PY         0.00000   0.00000   0.00000   0.00000   0.00000
  35       27PZ        -0.00002   0.00000   0.00000   0.00000   0.00000
  36       28PX         0.00000   0.00000  -0.00001   0.00000   0.00000
  37       28PY         0.00000   0.00000   0.00000  -0.00001   0.00000
  38       28PZ         0.00007  -0.00000   0.00000   0.00000  -0.00000
  39       29PX         0.00000   0.00000   0.00002   0.00000   0.00000
  40       29PY         0.00000   0.00000   0.00000   0.00002   0.00000
  41       29PZ        -0.00024   0.00000   0.00000   0.00000  -0.00000
[...]
  43       30PY        -0.00113  -0.00057  -0.00057  -0.00000
  44       30PZ        -0.00111  -0.00056  -0.00055  -0.00000
  45       31PX         0.00882   0.00441   0.00441   0.00000
  46       31PY         0.00882   0.00441   0.00441   0.00000
  47       31PZ         0.00869   0.00436   0.00433   0.00003
  48       32PX        -0.04358  -0.02179  -0.02179  -0.00000
  49       32PY        -0.04358  -0.02179  -0.02179  -0.00000
  50       32PZ        -0.04276  -0.02147  -0.02130  -0.00017
  51       33PX        -0.16990  -0.08495  -0.08495  -0.00000
  52       33PY        -0.16990  -0.08495  -0.08495  -0.00000
  53       33PZ        -0.23712  -0.11816  -0.11896   0.00081
  54       34PX         0.63964   0.31982   0.31982   0.00000
  55       34PY         0.63964   0.31982   0.31982   0.00000
  56       34PZ         0.63019   0.31597   0.31421   0.00176
  57       35PX        -0.49735  -0.24868  -0.24868  -0.00000
  58       35PY        -0.49735  -0.24868  -0.24868  -0.00000
  59       35PZ        -0.69274  -0.34499  -0.34775   0.00276
  60       36PX         0.46741   0.23371   0.23371   0.00000
  61       36PY         0.46741   0.23371   0.23371   0.00000
  62       36PZ         0.38795   0.19204   0.19592  -0.00388
  63       37PX         0.03794   0.01897   0.01897   0.00000
  64       37PY         0.03794   0.01897   0.01897   0.00000
  65       37PZ         0.04496   0.02739   0.01757   0.00983
  66       38PX        -0.00929  -0.00464  -0.00464  -0.00000
  67       38PY        -0.00929  -0.00464  -0.00464  -0.00000
  68       38PZ         0.05919   0.06744  -0.00825   0.07568
  69       39PX        -0.00204  -0.00102  -0.00102  -0.00000
  70       39PY        -0.00204  -0.00102  -0.00102   0.00000
  71       39PZ         0.03717   0.03830  -0.00113   0.03943
  72       40PX         0.13696   0.06848   0.06848   0.00000
  73       40PY         0.13696   0.06848   0.06848   0.00000
  74       40PZ         0.20608   0.10261   0.10347  -0.00087
  75       41PX         1.40924   0.70462   0.70462   0.00000
  76       41PY         1.40924   0.70462   0.70462   0.00000
  77       41PZ         1.59978   0.79913   0.80065  -0.00152
  78       42PX         0.00011   0.00005   0.00005   0.00000
  79       42PY         0.00011   0.00005   0.00005   0.00000
  80       42PZ         0.00027   0.00022   0.00005   0.00016
  81       43D 0       -0.00001  -0.00000  -0.00000  -0.00000
  82       43D+1       -0.00000  -0.00000  -0.00000  -0.00000
  83       43D-1       -0.00000  -0.00000  -0.00000  -0.00000
  84       43D+2       -0.00001  -0.00001  -0.00000  -0.00001
  85       43D-2       -0.00000  -0.00000   0.00000  -0.00000
  86       44D 0        0.00010   0.00005   0.00005   0.00000
  87       44D+1        0.00003   0.00001   0.00001   0.00000
  88       44D-1        0.00003   0.00001   0.00001   0.00000
  89       44D+2        0.00018   0.00018   0.00000   0.00018
  90       44D-2        0.00000   0.00000   0.00000   0.00000
  91       45D 0        0.04204   0.02128   0.02076   0.00052
  92       45D+1        0.00884   0.00442   0.00442   0.00000
  93       45D-1        0.00884   0.00442   0.00442   0.00000
  94       45D+2        0.04961   0.04961   0.00000   0.04961
  95       45D-2        0.00000   0.00000  -0.00000   0.00000
  96       46D 0        0.04613   0.02340   0.02272   0.00068
  97       46D+1        0.01688   0.00844   0.00844   0.00000
  98       46D-1        0.01688   0.00844   0.00844   0.00000
  99       46D+2        0.07380   0.07380   0.00000   0.07380
 100       46D-2        0.00000   0.00000   0.00000   0.00000
 101       47D 0        0.18487   0.09333   0.09154   0.00179
 102       47D+1        0.04198   0.02099   0.02099   0.00000
 103       47D-1        0.04198   0.02099   0.02099   0.00000
 104       47D+2        0.14977   0.14977  -0.00000   0.14977
 105       47D-2        0.00000   0.00000  -0.00000   0.00000
 106       48D 0        0.30783   0.15684   0.15099   0.00585
 107       48D+1        0.13325   0.06662   0.06662   0.00000
 108       48D-1        0.13325   0.06662   0.06662   0.00000
 109       48D+2        0.32961   0.32961  -0.00000   0.32961
 110       48D-2        0.00000   0.00000  -0.00000   0.00000
 111       49D 0        0.04533   0.02610   0.01923   0.00687
 112       49D+1        0.03720   0.01860   0.01860   0.00000
 113       49D-1        0.03720   0.01860   0.01860   0.00000
 114       49D+2        0.14560   0.14560  -0.00000   0.14560
 115       49D-2        0.00000   0.00000   0.00000   0.00000
 116       50D 0        0.00033   0.00049  -0.00016   0.00065
 117       50D+1       -0.00258  -0.00129  -0.00129  -0.00000
 118       50D-1       -0.00258  -0.00129  -0.00129   0.00000
 119       50D+2        0.01260   0.01260   0.00000   0.01260
 120       50D-2        0.00000   0.00000  -0.00000   0.00000
 121       51D 0        0.09702   0.04904   0.04798   0.00106
 122       51D+1        0.01342   0.00671   0.00671   0.00000
 123       51D-1        0.01342   0.00671   0.00671   0.00000
 124       51D+2        0.08528   0.08528   0.00000   0.08528
 125       51D-2        0.00000   0.00000  -0.00000   0.00000
 126       52D 0        0.13019   0.06601   0.06417   0.00184
 127       52D+1        0.04206   0.02103   0.02103   0.00000
 128       52D-1        0.04206   0.02103   0.02103   0.00000
 129       52D+2        0.14942   0.14942   0.00000   0.14942
 130       52D-2        0.00000   0.00000  -0.00000   0.00000
 131       53D 0       -0.00008  -0.00003  -0.00005   0.00002
 132       53D+1       -0.00010  -0.00005  -0.00005  -0.00000
 133       53D-1       -0.00010  -0.00005  -0.00005  -0.00000
 134       53D+2       -0.00025  -0.00025   0.00000  -0.00025
 135       53D-2       -0.00000  -0.00000   0.00000  -0.00000
 136       54F 0        0.00102   0.00051   0.00051   0.00000
 137       54F+1        0.00038   0.00019   0.00019   0.00000
 138       54F-1        0.00038   0.00019   0.00019   0.00000
 139       54F+2        0.00002   0.00002  -0.00000   0.00002
 140       54F-2        0.00000   0.00000  -0.00000   0.00000
 141       54F+3        0.00002   0.00001   0.00001   0.00000
 142       54F-3        0.00002   0.00001   0.00001   0.00000
 143       55F 0        0.01104   0.00552   0.00552   0.00000
 144       55F+1        0.00829   0.00415   0.00415   0.00000
 145       55F-1        0.00829   0.00415   0.00415   0.00000
 146       55F+2        0.00006   0.00006  -0.00000   0.00006
 147       55F-2        0.00000   0.00000   0.00000   0.00000
 148       55F+3        0.00006   0.00003   0.00003   0.00000
 149       55F-3        0.00006   0.00003   0.00003   0.00000
 150       56F 0        0.00403   0.00194   0.00209  -0.00016
 151       56F+1        0.01718   0.00859   0.00859   0.00000
 152       56F-1        0.01718   0.00859   0.00859   0.00000
 153       56F+2       -0.00002  -0.00002  -0.00000  -0.00002
 154       56F-2       -0.00000  -0.00000  -0.00000  -0.00000
 155       56F+3        0.00004   0.00002   0.00002   0.00000
 156       56F-3        0.00004   0.00002   0.00002   0.00000
 157       57F 0       -0.00234  -0.00128  -0.00107  -0.00021
 158       57F+1       -0.00230  -0.00115  -0.00115  -0.00000
 159       57F-1       -0.00230  -0.00115  -0.00115  -0.00000
 160       57F+2        0.00000   0.00000   0.00000   0.00000
 161       57F-2        0.00000   0.00000   0.00000   0.00000
 162       57F+3       -0.00000  -0.00000  -0.00000  -0.00000
 163       57F-3       -0.00000  -0.00000  -0.00000  -0.00000
 164       58G 0        0.00030   0.00015   0.00015   0.00000
 165       58G+1        0.00013   0.00007   0.00007   0.00000
 166       58G-1        0.00013   0.00007   0.00007   0.00000
 167       58G+2        0.00000   0.00000   0.00000   0.00000
 168       58G-2        0.00000   0.00000  -0.00000   0.00000
 169       58G+3        0.00000   0.00000   0.00000   0.00000
 170       58G-3        0.00000   0.00000   0.00000   0.00000
 171       58G+4        0.00000   0.00000   0.00000   0.00000
 172       58G-4        0.00000   0.00000   0.00000   0.00000
 173       59G 0        0.00154   0.00077   0.00077  -0.00000
 174       59G+1        0.00241   0.00120   0.00120   0.00000
 175       59G-1        0.00241   0.00120   0.00120   0.00000
 176       59G+2       -0.00001  -0.00001   0.00000  -0.00001
 177       59G-2       -0.00000  -0.00000  -0.00000  -0.00000
 178       59G+3        0.00000   0.00000   0.00000   0.00000
 179       59G-3        0.00000   0.00000   0.00000   0.00000
 180       59G+4        0.00001   0.00001   0.00000   0.00000
 181       59G-4        0.00000   0.00000   0.00000   0.00000
 182       60G 0        0.00054   0.00026   0.00028  -0.00003
 183       60G+1        0.00239   0.00120   0.00120   0.00000
 184       60G-1        0.00239   0.00120   0.00120   0.00000
 185       60G+2       -0.00001  -0.00001  -0.00000  -0.00001
 186       60G-2       -0.00000  -0.00000   0.00000  -0.00000
 187       60G+3        0.00000   0.00000   0.00000   0.00000
 188       60G-3        0.00000   0.00000   0.00000   0.00000
 189       60G+4        0.00001   0.00001   0.00000   0.00001
 190       60G-4        0.00000   0.00000   0.00000   0.00000
 191 2   O  1S         -0.00000  -0.00000  -0.00000  -0.00000
 192        2S          0.00000   0.00000   0.00000   0.00000
 193        3S         -0.00000  -0.00000  -0.00000  -0.00000
 194        4S          0.00001   0.00000   0.00000   0.00000
 195        5S         -0.00025  -0.00012  -0.00012  -0.00000
 196        6S         -0.01170  -0.00587  -0.00583  -0.00004
 197        7S         -0.10494  -0.05261  -0.05233  -0.00028
 198        8S          1.08112   0.54132   0.53980   0.00152
 199        9S          0.22883   0.11469   0.11414   0.00055
 200       10S          0.74669   0.37020   0.37649  -0.00630
 201       11S         -0.00022  -0.00010  -0.00012   0.00003
 202       12S          0.00871   0.00437   0.00434   0.00003
 203       13S          0.03570  -0.00740   0.04310  -0.05050
 204       14PX         0.00181   0.00091   0.00091   0.00000
 205       14PY         0.00181   0.00091   0.00091   0.00000
 206       14PZ         0.00165   0.00083   0.00082   0.00001
 207       15PX         0.06147   0.03073   0.03073   0.00000
 208       15PY         0.06147   0.03073   0.03073   0.00000
 209       15PZ         0.05876   0.02947   0.02929   0.00019
 210       16PX         0.36606   0.18303   0.18303   0.00000
 211       16PY         0.36606   0.18303   0.18303   0.00000
 212       16PZ         0.36377   0.18242   0.18135   0.00107
 213       17PX         0.76579   0.38290   0.38290   0.00000
 214       17PY         0.76579   0.38290   0.38290   0.00000
 215       17PZ         0.64485   0.32362   0.32123   0.00239
 216       18PX         0.46013   0.23007   0.23007   0.00000
 217       18PY         0.46013   0.23007   0.23007   0.00000
 218       18PZ         0.21858   0.11141   0.10718   0.00423
 219       19PX         0.00219   0.00109   0.00109   0.00000
 220       19PY         0.00219   0.00109   0.00109   0.00000
 221       19PZ         0.00273   0.00137   0.00136   0.00001
 222       20PX        -0.00029  -0.00014  -0.00014  -0.00000
 223       20PY        -0.00029  -0.00014  -0.00014  -0.00000
 224       20PZ        -0.00026  -0.00013  -0.00013  -0.00000
 225       21PX         0.02920   0.01460   0.01460   0.00000
 226       21PY         0.02920   0.01460   0.01460   0.00000
 227       21PZ         0.01150   0.00562   0.00588  -0.00026
 228       22D 0        0.00342   0.00174   0.00169   0.00005
 229       22D+1        0.00138   0.00069   0.00069   0.00000
 230       22D-1        0.00138   0.00069   0.00069   0.00000
 231       22D+2        0.00015   0.00015  -0.00000   0.00015
 232       22D-2        0.00000   0.00000  -0.00000   0.00000
 233       23D 0        0.01106   0.00584   0.00522   0.00061
 234       23D+1        0.01178   0.00589   0.00589   0.00000
 235       23D-1        0.01178   0.00589   0.00589   0.00000
 236       23D+2        0.00222   0.00222   0.00000   0.00222
 237       23D-2        0.00000   0.00000   0.00000   0.00000
 238       24D 0        0.00001   0.00001   0.00001   0.00000
 239       24D+1        0.00000   0.00000   0.00000   0.00000
 240       24D-1        0.00000   0.00000   0.00000   0.00000
 241       24D+2        0.00000   0.00000  -0.00000   0.00000
 242       24D-2        0.00000   0.00000   0.00000   0.00000
 243       25D 0       -0.00367  -0.00167  -0.00201   0.00034
 244       25D+1        0.00254   0.00127   0.00127   0.00000
 245       25D-1        0.00254   0.00127   0.00127   0.00000
 246       25D+2        0.00128   0.00128   0.00000   0.00128
 247       25D-2        0.00000   0.00000   0.00000   0.00000
 248       26F 0        0.00197   0.00100   0.00097   0.00004
 249       26F+1        0.00107   0.00053   0.00053   0.00000
 250       26F-1        0.00107   0.00053   0.00053   0.00000
 251       26F+2        0.00024   0.00024   0.00000   0.00024
 252       26F-2        0.00000   0.00000   0.00000   0.00000
 253       26F+3        0.00000   0.00000   0.00000   0.00000
 254       26F-3        0.00000   0.00000   0.00000   0.00000
 255       27F 0       -0.00013   0.00001  -0.00014   0.00015
 256       27F+1        0.00033   0.00017   0.00017   0.00000
 257       27F-1        0.00033   0.00017   0.00017   0.00000
 258       27F+2        0.00045   0.00045  -0.00000   0.00045
 259       27F-2        0.00000   0.00000  -0.00000   0.00000
 260       27F+3       -0.00000  -0.00000  -0.00000  -0.00000
 261       27F-3       -0.00000  -0.00000  -0.00000  -0.00000
          Condensed to atoms (all electrons):
               1          2
     1  Ti  11.336507  -0.045997
     2  O   -0.045997   6.755488
          Atomic-Atomic Spin Densities.
               1          2
     1  Ti   2.136199  -0.094379
     2  O   -0.094379   0.052560
 Mulliken charges and spin densities:
               1          2
     1  Ti   0.709490   2.041820
     2  O   -0.709490  -0.041820
 Sum of Mulliken charges =  -0.00000   2.00000
 Mulliken charges and spin densities with hydrogens summed into heavy atoms:
               1          2
     1  Ti   0.709490   2.041820
     2  O   -0.709490  -0.041820
 Electronic spatial extent (au):  <R**2>=             77.5898
 Charge=             -0.0000 electrons
 Dipole moment (field-independent basis, Debye):
    X=              0.0000    Y=              0.0000    Z=              0.6172  Tot=              0.6172
 Quadrupole moment (field-independent basis, Debye-Ang):
   XX=            -22.0734   YY=            -22.0734   ZZ=            -27.0951
   XY=              0.0000   XZ=              0.0000   YZ=              0.0000
 Traceless Quadrupole moment (field-independent basis, Debye-Ang):
   XX=              1.6739   YY=              1.6739   ZZ=             -3.3478
   XY=              0.0000   XZ=              0.0000   YZ=              0.0000
 Octapole moment (field-independent basis, Debye-Ang**2):
  XXX=              0.0000  YYY=              0.0000  ZZZ=            -15.1453  XYY=              0.0000
  XXY=              0.0000  XXZ=             -5.1281  XZZ=              0.0000  YZZ=              0.0000
  YYZ=             -5.1281  XYZ=              0.0000
 Hexadecapole moment (field-independent basis, Debye-Ang**3):
 XXXX=            -51.5573 YYYY=            -51.5573 ZZZZ=           -122.9921 XXXY=              0.0000
 XXXZ=              0.0000 YYYX=              0.0000 YYYZ=              0.0000 ZZZX=              0.0000
 ZZZY=              0.0000 XXYY=            -16.4582 XXZZ=            -28.9000 YYZZ=            -28.9000
 XXYZ=              0.0000 YYXZ=              0.0000 ZZXY=              0.0000
 N-N= 2.930827629711D+01 E-N=-2.203962020635D+02  KE= 3.846103335778D+01
 Symmetry A1   KE= 1.971511757073D+01
 Symmetry A2   KE= 1.034316379700D-31
 Symmetry B1   KE= 9.372957892758D+00
 Symmetry B2   KE= 9.372957892612D+00
 Symmetry A1   SP= 2.000000000000D+00
 Symmetry A2   SP= 2.999674554180D-32
 Symmetry B1   SP= 5.346179652114D-16
 Symmetry B2   SP= 5.724036168076D-16
 Orbital energies and kinetic energies (alpha):
                                 1                 2
   4         O                -1.827245          2.338693
   5         O                -1.146545          1.553323
   6         O                -0.592972          2.347786
   7         O                -0.592972          2.347786
   8         O                -0.525884          3.175408
   9         O                -0.356214          0.290379
  10         O                -0.216111          3.448097
  11         V                 0.011932          0.055862
  12         V                 0.011932          0.055862
  13         V                 0.023188          0.034323
  14         V                 0.025511          0.045449
  15         V                 0.048191          0.061128
 Total kinetic energy from orbitals= 4.219950862833D+01
                          Isotropic Fermi Contact Couplings
        Atom                 a.u.       MegaHertz       Gauss      10(-4) cm-1
     1  Ti(47)             0.00139      -0.17592      -0.06277      -0.05868
     2  O(17)              0.00006      -0.01852      -0.00661      -0.00618
 --------------------------------------------------------
       Center         ----  Spin Dipole Couplings  ----
                      3XX-RR        3YY-RR        3ZZ-RR
 --------------------------------------------------------
     1   Atom        0.399416      0.399416     -0.798831
     2   Atom       -0.044334     -0.044334      0.088668
 --------------------------------------------------------
                        XY            XZ            YZ
 --------------------------------------------------------
     1   Atom        0.000000      0.000000      0.000000
     2   Atom        0.000000      0.000000      0.000000
 --------------------------------------------------------


 ---------------------------------------------------------------------------------
              Anisotropic Spin Dipole Couplings in Principal Axis System
 ---------------------------------------------------------------------------------

       Atom             a.u.   MegaHertz   Gauss  10(-4) cm-1        Axes

              Baa    -0.7988    24.066     8.587     8.028  0.0000  0.0000  1.0000
     1 Ti(47) Bbb     0.3994   -12.033    -4.294    -4.014  1.0000  0.0000  0.0000
              Bcc     0.3994   -12.033    -4.294    -4.014 -0.0000  1.0000  0.0000
 
              Baa    -0.0443     3.208     1.145     1.070 -0.0000  1.0000  0.0000
     2 O(17)  Bbb    -0.0443     3.208     1.145     1.070  1.0000  0.0000  0.0000
              Bcc     0.0887    -6.416    -2.289    -2.140  0.0000  0.0000  1.0000
 

 ---------------------------------------------------------------------------------

 No NMR shielding tensors so no spin-rotation constants.
 Leave Link  601 at Sat Mar 10 00:47:37 2018, MaxMem= 10737418240 cpu:              53.3 elap:               3.5
 (Enter /home1/apps/gaussian/16rA.03/g16/l9999.exe)

 Test job not archived.
 1\1\GINC-C406-024\SP\ROCCSD(T)-Full\Gen\O1Ti1(3)\AANNABE\10-Mar-2018\0
 \\#P ROCCSD(T)=(maxcyc=150, Full, SaveAmplitudes, ReadAmplitudes)/Gen 
 5d 7f SCF=(maxcycles=300) Integral(NoXCTest) MaxDisk=500GB Pop=Regular
  Pseudo=Read Guess=Read IOp(5/15=2)\\TiO\\0,3\Ti,0,0.,0.,0.\O,0,0.,0.,
 1.3\\Version=ES64L-G16RevA.03\HF=-73.179029\MP2=-73.9106563\MP3=-73.88
 92696\PUHF=-73.179029\PMP2-0=-73.9106563\MP4SDQ=-73.9097116\CCSD=-73.9
 009109\CCSD(T)=-73.9353034\RMSD=4.133e-09\PG=C*V [C*(O1Ti1)]\\@


 ACCORDING TO HEN3RY, LIFE IS MUCH LIKE A SEWER........
 YOU GET OUT OF IT JUST WHAT YOU PUT INTO IT...........
                         TOM LEHRER - (THE 3 IS SILENT)
 Job cpu time:       0 days  5 hours 13 minutes 40.5 seconds.
 Elapsed time:       0 days  0 hours 19 minutes 42.3 seconds.
 File lengths (MBytes):  RWF=   3532 Int=      0 D2E=      0 Chk=     22 Scr=      1
 Normal termination of Gaussian 16 at Sat Mar 10 00:47:37 2018.
