 Entering Gaussian System, Link 0=g16
 Initial command:
 /home1/apps/gaussian/16rA.03/g16/l1.exe "/tmp/Gau-228365.inp" -scrdir="/tmp/"
 Entering Link 1 = /home1/apps/gaussian/16rA.03/g16/l1.exe PID=    228366.
  
 Copyright (c) 1988,1990,1992,1993,1995,1998,2003,2009,2016,
            Gaussian, Inc.  All Rights Reserved.
  
 This is part of the Gaussian(R) 16 program.  It is based on
 the Gaussian(R) 09 system (copyright 2009, Gaussian, Inc.),
 the Gaussian(R) 03 system (copyright 2003, Gaussian, Inc.),
 the Gaussian(R) 98 system (copyright 1998, Gaussian, Inc.),
 the Gaussian(R) 94 system (copyright 1995, Gaussian, Inc.),
 the Gaussian 92(TM) system (copyright 1992, Gaussian, Inc.),
 the Gaussian 90(TM) system (copyright 1990, Gaussian, Inc.),
 the Gaussian 88(TM) system (copyright 1988, Gaussian, Inc.),
 the Gaussian 86(TM) system (copyright 1986, Carnegie Mellon
 University), and the Gaussian 82(TM) system (copyright 1983,
 Carnegie Mellon University). Gaussian is a federally registered
 trademark of Gaussian, Inc.
  
 This software contains proprietary and confidential information,
 including trade secrets, belonging to Gaussian, Inc.
  
 This software is provided under written license and may be
 used, copied, transmitted, or stored only in accord with that
 written license.
  
 The following legend is applicable only to US Government
 contracts under FAR:
  
                    RESTRICTED RIGHTS LEGEND
  
 Use, reproduction and disclosure by the US Government is
 subject to restrictions as set forth in subparagraphs (a)
 and (c) of the Commercial Computer Software - Restricted
 Rights clause in FAR 52.227-19.
  
 Gaussian, Inc.
 340 Quinnipiac St., Bldg. 40, Wallingford CT 06492
  
  
 ---------------------------------------------------------------
 Warning -- This program may not be used in any manner that
 competes with the business of Gaussian, Inc. or will provide
 assistance to any competitor of Gaussian, Inc.  The licensee
 of this program is prohibited from giving any competitor of
 Gaussian, Inc. access to this program.  By using this program,
 the user acknowledges that Gaussian, Inc. is engaged in the
 business of creating and licensing software in the field of
 computational chemistry and represents and warrants to the
 licensee that it is not a competitor of Gaussian, Inc. and that
 it will not use this program in any manner prohibited above.
 ---------------------------------------------------------------
  

 Cite this work as:
 Gaussian 16, Revision A.03,
 M. J. Frisch, G. W. Trucks, H. B. Schlegel, G. E. Scuseria, 
 M. A. Robb, J. R. Cheeseman, G. Scalmani, V. Barone, 
 G. A. Petersson, H. Nakatsuji, X. Li, M. Caricato, A. V. Marenich, 
 J. Bloino, B. G. Janesko, R. Gomperts, B. Mennucci, H. P. Hratchian, 
 J. V. Ortiz, A. F. Izmaylov, J. L. Sonnenberg, D. Williams-Young, 
 F. Ding, F. Lipparini, F. Egidi, J. Goings, B. Peng, A. Petrone, 
 T. Henderson, D. Ranasinghe, V. G. Zakrzewski, J. Gao, N. Rega, 
 G. Zheng, W. Liang, M. Hada, M. Ehara, K. Toyota, R. Fukuda, 
 J. Hasegawa, M. Ishida, T. Nakajima, Y. Honda, O. Kitao, H. Nakai, 
 T. Vreven, K. Throssell, J. A. Montgomery, Jr., J. E. Peralta, 
 F. Ogliaro, M. J. Bearpark, J. J. Heyd, E. N. Brothers, K. N. Kudin, 
 V. N. Staroverov, T. A. Keith, R. Kobayashi, J. Normand, 
 K. Raghavachari, A. P. Rendell, J. C. Burant, S. S. Iyengar, 
 J. Tomasi, M. Cossi, J. M. Millam, M. Klene, C. Adamo, R. Cammi, 
 J. W. Ochterski, R. L. Martin, K. Morokuma, O. Farkas, 
 J. B. Foresman, and D. J. Fox, Gaussian, Inc., Wallingford CT, 2016.
 
 ******************************************
 Gaussian 16:  ES64L-G16RevA.03 25-Dec-2016
                12-Feb-2018 
 ******************************************
 %mem=64GB
 %cpu=0-31
 SetSPE:  set environment variable "MP_BIND" = "yes"
 SetSPE:  set environment variable "MP_BLIST" = "0,1,2,3,4,5,6,7,8,9,10,11,12,13,14,15,16,17,18,19,20,21,22,23,24,25,26,27,28,29,30,31"
 Will use up to   32 processors via shared memory.
 %chk=ScH
 ----------------------------------------------------------------------
 #P ROCCSD(T)=(maxcyc=150, Full)/Gen 5d 7f SCF=(maxcycles=300) Integral
 (NoXCTest) MaxDisk=500GB Pop=Regular Pseudo=Read
 ----------------------------------------------------------------------
 1/38=1,172=1/1;
 2/12=2,17=6,18=5,40=1/2;
 3/5=7,8=11,11=2,16=1,17=8,25=1,30=1,47=8,116=101/1,2,3;
 4//1;
 5/5=2,7=300,38=5/2;
 8/5=-1,6=4,9=120000,10=90/1,4;
 9/5=7,6=150,14=2/13;
 6//1;
 99/5=1,9=1/99;
 Leave Link    1 at Mon Feb 12 18:15:30 2018, MaxMem=  8589934592 cpu:               6.8 elap:               0.2
 (Enter /home1/apps/gaussian/16rA.03/g16/l101.exe)
 ---
 ScH
 ---
 Symbolic Z-matrix:
 Charge =  0 Multiplicity = 1
 Sc                    0.        0.        0. 
 H                     0.        0.        1.2 
 
 ITRead=  0  0
 MicOpt= -1 -1
 NAtoms=      2 NQM=        2 NQMF=       0 NMMI=      0 NMMIF=      0
                NMic=       0 NMicF=      0.
                    Isotopes and Nuclear Properties:
 (Nuclear quadrupole moments (NQMom) in fm**2, nuclear magnetic moments (NMagM)
  in nuclear magnetons)

  Atom         1           2
 IAtWgt=          45           1
 AtmWgt=  44.9559136   1.0078250
 NucSpn=           7           1
 AtZEff=  -0.0000000  -0.0000000
 NQMom=  -22.0000000   0.0000000
 NMagM=    4.7564830   2.7928460
 AtZNuc=  21.0000000   1.0000000
 Leave Link  101 at Mon Feb 12 18:15:31 2018, MaxMem=  8589934592 cpu:               2.9 elap:               0.2
 (Enter /home1/apps/gaussian/16rA.03/g16/l202.exe)
                          Input orientation:                          
 ---------------------------------------------------------------------
 Center     Atomic      Atomic             Coordinates (Angstroms)
 Number     Number       Type             X           Y           Z
 ---------------------------------------------------------------------
      1         21           0        0.000000    0.000000    0.000000
      2          1           0        0.000000    0.000000    1.200000
 ---------------------------------------------------------------------
 Stoichiometry    HSc
 Framework group  C*V[C*(HSc)]
 Deg. of freedom     1
 Full point group                 C*V     NOp   4
 Largest Abelian subgroup         C2V     NOp   4
 Largest concise Abelian subgroup C1      NOp   1
                         Standard orientation:                         
 ---------------------------------------------------------------------
 Center     Atomic      Atomic             Coordinates (Angstroms)
 Number     Number       Type             X           Y           Z
 ---------------------------------------------------------------------
      1         21           0        0.000000    0.000000    0.054545
      2          1           0        0.000000    0.000000   -1.145455
 ---------------------------------------------------------------------
 Rotational constants (GHZ):           0.0000000         356.0394184         356.0394184
 Leave Link  202 at Mon Feb 12 18:15:31 2018, MaxMem=  8589934592 cpu:               0.7 elap:               0.1
 (Enter /home1/apps/gaussian/16rA.03/g16/l301.exe)
 General basis read from cards:  (5D, 7F)
 Centers:       1
 S 1 1.00
     Exponent=  2.7152780000D+06 Coefficients=  1.0000000000D+00
 S 1 1.00
     Exponent=  4.0659840000D+05 Coefficients=  1.0000000000D+00
 S 1 1.00
     Exponent=  9.2530040000D+04 Coefficients=  1.0000000000D+00
 S 1 1.00
     Exponent=  2.6207920000D+04 Coefficients=  1.0000000000D+00
 S 1 1.00
     Exponent=  8.5494290000D+03 Coefficients=  1.0000000000D+00
 S 1 1.00
     Exponent=  3.0859750000D+03 Coefficients=  1.0000000000D+00
 S 1 1.00
     Exponent=  1.2031720000D+03 Coefficients=  1.0000000000D+00
 S 1 1.00
     Exponent=  4.9848690000D+02 Coefficients=  1.0000000000D+00
 S 1 1.00
     Exponent=  2.1673600000D+02 Coefficients=  1.0000000000D+00
 S 1 1.00
     Exponent=  9.7874760000D+01 Coefficients=  1.0000000000D+00
 S 1 1.00
     Exponent=  4.5204330000D+01 Coefficients=  1.0000000000D+00
 S 1 1.00
     Exponent=  2.0211870000D+01 Coefficients=  1.0000000000D+00
 S 1 1.00
     Exponent=  9.5747510000D+00 Coefficients=  1.0000000000D+00
 S 1 1.00
     Exponent=  4.5403460000D+00 Coefficients=  1.0000000000D+00
 S 1 1.00
     Exponent=  1.9956870000D+00 Coefficients=  1.0000000000D+00
 S 1 1.00
     Exponent=  9.4221500000D-01 Coefficients=  1.0000000000D+00
 S 1 1.00
     Exponent=  4.1784500000D-01 Coefficients=  1.0000000000D+00
 S 1 1.00
     Exponent=  9.5761000000D-02 Coefficients=  1.0000000000D+00
 S 1 1.00
     Exponent=  5.1351000000D-02 Coefficients=  1.0000000000D+00
 S 1 1.00
     Exponent=  2.3878000000D-02 Coefficients=  1.0000000000D+00
 S 1 1.00
     Exponent=  2.6472000000D+00 Coefficients=  1.0000000000D+00
 S 1 1.00
     Exponent=  6.2170000000D-01 Coefficients=  1.0000000000D+00
 S 1 1.00
     Exponent=  1.1100000000D-02 Coefficients=  1.0000000000D+00
 P 1 1.00
     Exponent=  1.0592190000D+04 Coefficients=  1.0000000000D+00
 P 1 1.00
     Exponent=  2.5075330000D+03 Coefficients=  1.0000000000D+00
 P 1 1.00
     Exponent=  8.1445710000D+02 Coefficients=  1.0000000000D+00
 P 1 1.00
     Exponent=  3.1151950000D+02 Coefficients=  1.0000000000D+00
 P 1 1.00
     Exponent=  1.3196170000D+02 Coefficients=  1.0000000000D+00
 P 1 1.00
     Exponent=  5.9987180000D+01 Coefficients=  1.0000000000D+00
 P 1 1.00
     Exponent=  2.8662500000D+01 Coefficients=  1.0000000000D+00
 P 1 1.00
     Exponent=  1.4108510000D+01 Coefficients=  1.0000000000D+00
 P 1 1.00
     Exponent=  7.1037060000D+00 Coefficients=  1.0000000000D+00
 P 1 1.00
     Exponent=  3.6092000000D+00 Coefficients=  1.0000000000D+00
 P 1 1.00
     Exponent=  1.7760700000D+00 Coefficients=  1.0000000000D+00
 P 1 1.00
     Exponent=  8.5476000000D-01 Coefficients=  1.0000000000D+00
 P 1 1.00
     Exponent=  4.0223900000D-01 Coefficients=  1.0000000000D+00
 P 1 1.00
     Exponent=  1.5468000000D-01 Coefficients=  1.0000000000D+00
 P 1 1.00
     Exponent=  6.4888000000D-02 Coefficients=  1.0000000000D+00
 P 1 1.00
     Exponent=  2.6301000000D-02 Coefficients=  1.0000000000D+00
 P 1 1.00
     Exponent=  3.4418000000D+00 Coefficients=  1.0000000000D+00
 P 1 1.00
     Exponent=  8.0840000000D-01 Coefficients=  1.0000000000D+00
 P 1 1.00
     Exponent=  1.0660000000D-02 Coefficients=  1.0000000000D+00
 D 1 1.00
     Exponent=  5.0654200000D+01 Coefficients=  1.0000000000D+00
 D 1 1.00
     Exponent=  1.4732500000D+01 Coefficients=  1.0000000000D+00
 D 1 1.00
     Exponent=  5.1804600000D+00 Coefficients=  1.0000000000D+00
 D 1 1.00
     Exponent=  2.0195900000D+00 Coefficients=  1.0000000000D+00
 D 1 1.00
     Exponent=  7.9921900000D-01 Coefficients=  1.0000000000D+00
 D 1 1.00
     Exponent=  3.0531600000D-01 Coefficients=  1.0000000000D+00
 D 1 1.00
     Exponent=  1.1044400000D-01 Coefficients=  1.0000000000D+00
 D 1 1.00
     Exponent=  3.7065000000D-02 Coefficients=  1.0000000000D+00
 D 1 1.00
     Exponent=  1.8520000000D+00 Coefficients=  1.0000000000D+00
 D 1 1.00
     Exponent=  7.8750000000D-01 Coefficients=  1.0000000000D+00
 D 1 1.00
     Exponent=  1.2440000000D-02 Coefficients=  1.0000000000D+00
 F 1 1.00
     Exponent=  2.1048000000D+00 Coefficients=  1.0000000000D+00
 F 1 1.00
     Exponent=  6.5870000000D-01 Coefficients=  1.0000000000D+00
 F 1 1.00
     Exponent=  1.6360000000D-01 Coefficients=  1.0000000000D+00
 F 1 1.00
     Exponent=  4.0630000000D-02 Coefficients=  1.0000000000D+00
 G 1 1.00
     Exponent=  1.7850000000D+00 Coefficients=  1.0000000000D+00
 G 1 1.00
     Exponent=  4.1120000000D-01 Coefficients=  1.0000000000D+00
 G 1 1.00
     Exponent=  9.4730000000D-02 Coefficients=  1.0000000000D+00
 ****
 Centers:       2
 S 1 1.00
     Exponent=  3.3870000000D+01 Coefficients=  1.0000000000D+00
 S 1 1.00
     Exponent=  5.0950000000D+00 Coefficients=  1.0000000000D+00
 S 1 1.00
     Exponent=  1.1590000000D+00 Coefficients=  1.0000000000D+00
 S 1 1.00
     Exponent=  3.2580000000D-01 Coefficients=  1.0000000000D+00
 S 1 1.00
     Exponent=  1.0270000000D-01 Coefficients=  1.0000000000D+00
 S 1 1.00
     Exponent=  2.5260000000D-02 Coefficients=  1.0000000000D+00
 P 1 1.00
     Exponent=  1.4070000000D+00 Coefficients=  1.0000000000D+00
 P 1 1.00
     Exponent=  3.8800000000D-01 Coefficients=  1.0000000000D+00
 P 1 1.00
     Exponent=  1.0200000000D-01 Coefficients=  1.0000000000D+00
 D 1 1.00
     Exponent=  1.0570000000D+00 Coefficients=  1.0000000000D+00
 D 1 1.00
     Exponent=  2.4700000000D-01 Coefficients=  1.0000000000D+00
 ****
 ======================================================================================================
                                       Pseudopotential Parameters
 ======================================================================================================
  Center     Atomic      Valence      Angular      Power
  Number     Number     Electrons     Momentum     of R      Exponent        Coefficient   SO-Coeffient
 ======================================================================================================
    1         21           11
                                      D and up 
                                                     1       16.0239439       11.00000000    0.00000000
                                                     3       14.0864740      176.26338272    0.00000000
                                                     2       11.9398512      -83.68149600    0.00000000
                                                     2        3.6944011        0.43282765    0.00000000
                                      S - D
                                                     2       11.4946654      153.96530176    0.00000000
                                                     2        5.0103139       14.93675658    0.00000000
                                      P - D
                                                     2       11.4512673       97.21725690    0.00000000
                                                     2        4.7679845       10.81704018    0.00000000
    2          1            1
                                      P and up 
                                                     2       21.7769666      -10.85192405    0.00000000
                                                     1       21.2435951        1.00000000    0.00000000
                                                     3       21.2435951       21.24359508    0.00000000
                                      S - P
                                                     2        1.0000000        0.00000000    0.00000000
 ======================================================================================================
 Ernie: Thresh=  0.10000D-02 Tol=  0.10000D-05 Strict=F.
 There are   120 symmetry adapted cartesian basis functions of A1  symmetry.
 There are    26 symmetry adapted cartesian basis functions of A2  symmetry.
 There are    56 symmetry adapted cartesian basis functions of B1  symmetry.
 There are    56 symmetry adapted cartesian basis functions of B2  symmetry.
 There are    94 symmetry adapted basis functions of A1  symmetry.
 There are    23 symmetry adapted basis functions of A2  symmetry.
 There are    49 symmetry adapted basis functions of B1  symmetry.
 There are    49 symmetry adapted basis functions of B2  symmetry.
   215 basis functions,   258 primitive gaussians,   258 cartesian basis functions
     6 alpha electrons        6 beta electrons
       nuclear repulsion energy         4.8507911001 Hartrees.
 IExCor=    0 DFT=F Ex=HF Corr=None ExCW=0 ScaHFX=  1.000000
 ScaDFX=  1.000000  1.000000  1.000000  1.000000 ScalE2=  1.000000  1.000000
 IRadAn=      5 IRanWt=     -1 IRanGd=            0 ICorTp=0 IEmpDi=  4
 NAtoms=    2 NActive=    2 NUniq=    2 SFac= 1.00D+00 NAtFMM=   60 NAOKFM=F Big=F
 Integral buffers will be    131072 words long.
 Raffenetti 2 integral format.
 Two-electron integral symmetry is turned on.
 Leave Link  301 at Mon Feb 12 18:15:32 2018, MaxMem=  8589934592 cpu:               6.9 elap:               0.2
 (Enter /home1/apps/gaussian/16rA.03/g16/l302.exe)
 NPDir=0 NMtPBC=     1 NCelOv=     1 NCel=       1 NClECP=     1 NCelD=      1
         NCelK=      1 NCelE2=     1 NClLst=     1 CellRange=     0.0.
 One-electron integrals computed using PRISM.
 One-electron integral symmetry used in STVInt
   4 Symmetry operations used in ECPInt.
 ECPInt:  NShTT=    2556 NPrTT=    2556 LenC2=    2538 LenP2D=    2537.
 LDataN:  DoStor=T MaxTD1= 8 Len=  415
 NBasis=   215 RedAO= T EigKep=  1.09D-06  NBF=    94    23    49    49
 NBsUse=   212 1.00D-06 EigRej=  6.56D-07 NBFU=    93    23    48    48
 Leave Link  302 at Mon Feb 12 18:15:33 2018, MaxMem=  8589934592 cpu:              28.3 elap:               0.9
 (Enter /home1/apps/gaussian/16rA.03/g16/l303.exe)
 DipDrv:  MaxL=1.
 Leave Link  303 at Mon Feb 12 18:15:34 2018, MaxMem=  8589934592 cpu:               1.8 elap:               0.1
 (Enter /home1/apps/gaussian/16rA.03/g16/l401.exe)
 ExpMin= 1.07D-02 ExpMax= 2.72D+06 ExpMxC= 2.72D+06 IAcc=4 IRadAn=    199590 AccDes= 0.00D+00
 Harris functional with IExCor=  205 and IRadAn=  199590 diagonalized for initial guess.
 HarFok:  IExCor=  205 AccDes= 0.00D+00 IRadAn=    199590 IDoV= 1 UseB2=F ITyADJ=14
 ICtDFT=  3500011 ScaDFX=  1.000000  1.000000  1.000000  1.000000
 Spurious integrated density or basis function:
 NE=   12 NElCor=    0 El error=4.20D-09 rel=1.91D-10 Tolerance=1.00D-03
 Shell     1     absolute error=1.52D-02              Tolerance=1.20D-02
 Shell    44       signed error=4.04D-08              Tolerance=1.00D-01
 FoFCou: FMM=F IPFlag=           8 FMFlag=      100000 FMFlg1=           0
         NFxFlg=           0 DoJE=T BraDBF=F KetDBF=T FulRan=T
         wScrn=  0.000000 ICntrl=       500 IOpCl=  0 I1Cent=   200000004 NGrid=           0
         NMat0=    1 NMatS0=      1 NMatT0=    0 NMatD0=    1 NMtDS0=    0 NMtDT0=    0
 Petite list used in FoFCou.
 Harris En= -47.1172985884046    
 JPrj=0 DoOrth=F DoCkMO=F.
 Initial guess orbital symmetries:
       Occupied  (SG) (SG) (PI) (PI) (SG) (SG)
       Virtual   (PI) (PI) (DLTA) (DLTA) (SG) (PI) (PI) (SG) (SG)
                 (SG) (PI) (PI) (DLTA) (DLTA) (PI) (PI) (SG) (SG)
                 (PI) (PI) (DLTA) (DLTA) (SG) (SG) (PI) (PI) (PI)
                 (PI) (DLTA) (DLTA) (PHI) (PHI) (SG) (SG) (PI)
                 (PI) (SG) (DLTA) (DLTA) (SG) (PI) (PI) (SG) (DLTA)
                 (DLTA) (PI) (PI) (PHI) (PHI) (?A) (?A) (SG) (PI)
                 (PI) (DLTA) (DLTA) (PHI) (PHI) (SG) (PI) (PI)
                 (SG) (SG) (PI) (PI) (DLTA) (DLTA) (SG) (SG) (DLTA)
                 (DLTA) (PI) (PI) (SG) (PI) (PI) (PI) (PI) (SG)
                 (SG) (PHI) (PHI) (?A) (?A) (DLTA) (DLTA) (PHI)
                 (PHI) (PI) (PI) (DLTA) (DLTA) (SG) (SG) (PI) (PI)
                 (DLTA) (DLTA) (PI) (PI) (SG) (SG) (SG) (DLTA)
                 (DLTA) (PI) (PI) (PI) (PI) (SG) (PI) (PI) (SG)
                 (SG) (DLTA) (DLTA) (PI) (PI) (SG) (PHI) (PHI)
                 (DLTA) (DLTA) (PI) (PI) (SG) (PHI) (PHI) (?A)
                 (?A) (DLTA) (DLTA) (PI) (PI) (SG) (SG) (PI) (PI)
                 (SG) (DLTA) (DLTA) (SG) (PI) (PI) (SG) (SG) (PI)
                 (PI) (SG) (DLTA) (DLTA) (PI) (PI) (SG) (SG) (PI)
                 (PI) (SG) (DLTA) (DLTA) (PI) (PI) (SG) (SG) (SG)
                 (PI) (PI) (SG) (SG) (PI) (PI) (SG) (DLTA) (DLTA)
                 (PI) (PI) (SG) (SG) (PI) (PI) (SG) (SG) (PI) (PI)
                 (SG) (SG) (PI) (PI) (SG) (SG) (PI) (PI) (SG) (SG)
                 (PI) (PI) (SG) (SG) (SG) (PI) (PI) (SG) (SG) (SG)
                 (SG) (SG)
 The electronic state of the initial guess is 1-SG.
 Leave Link  401 at Mon Feb 12 18:15:35 2018, MaxMem=  8589934592 cpu:              39.0 elap:               1.3
 (Enter /home1/apps/gaussian/16rA.03/g16/l502.exe)
 Keep R1 and R2 ints in memory in symmetry-blocked form, NReq=338797193.
 FoFCou: FMM=F IPFlag=           8 FMFlag=           0 FMFlg1=           0
         NFxFlg=           0 DoJE=F BraDBF=F KetDBF=F FulRan=T
         wScrn=  0.000000 ICntrl=       600 IOpCl=  0 I1Cent=           0 NGrid=           0
         NMat0=    1 NMatS0=  23220 NMatT0=    0 NMatD0=    1 NMtDS0=    0 NMtDT0=    0
 Petite list used in FoFCou.
 Restricted open shell SCF:
 Using DIIS extrapolation, IDIIS=  1040.
 NGot=  8589934592 LenX=  8451446295 LenY=  8451379290
 Requested convergence on RMS density matrix=1.00D-08 within 300 cycles.
 Requested convergence on MAX density matrix=1.00D-06.
 Requested convergence on             energy=1.00D-06.
 No special actions if energy rises.

 Cycle   1  Pass 1  IDiag  1:
 E= -46.4980031103556    
 DIIS: error= 2.38D-02 at cycle   1 NSaved=   1.
 NSaved= 1 IEnMin= 1 EnMin= -46.4980031103556     IErMin= 1 ErrMin= 2.38D-02
 ErrMax= 2.38D-02  0.00D+00 EMaxC= 1.00D-01 BMatC= 4.33D-02 BMatP= 4.33D-02
 IDIUse=3 WtCom= 7.62D-01 WtEn= 2.38D-01
 Coeff-Com:  0.100D+01
 Coeff-En:   0.100D+01
 Coeff:      0.100D+01
 Gap=     0.382 Goal=   None    Shift=    0.000
 GapD=    0.382 DampG=1.000 DampE=0.250 DampFc=0.2500 IDamp=-1.
 Damping current iteration by 2.50D-01
 RMSDP=2.35D-03 MaxDP=9.89D-02              OVMax= 1.27D-01

 Cycle   2  Pass 1  IDiag  1:
 E= -46.5091965769341     Delta-E=       -0.011193466579 Rises=F Damp=T
 DIIS: error= 1.52D-02 at cycle   2 NSaved=   2.
 NSaved= 2 IEnMin= 2 EnMin= -46.5091965769341     IErMin= 2 ErrMin= 1.52D-02
 ErrMax= 1.52D-02  0.00D+00 EMaxC= 1.00D-01 BMatC= 2.22D-02 BMatP= 4.33D-02
 IDIUse=3 WtCom= 8.48D-01 WtEn= 1.52D-01
 Coeff-Com: -0.227D+01 0.327D+01
 Coeff-En:   0.000D+00 0.100D+01
 Coeff:     -0.193D+01 0.293D+01
 Gap=     0.219 Goal=   None    Shift=    0.000
 RMSDP=1.70D-03 MaxDP=8.03D-02 DE=-1.12D-02 OVMax= 2.64D-02

 Cycle   3  Pass 1  IDiag  1:
 E= -46.5431056850989     Delta-E=       -0.033909108165 Rises=F Damp=F
 DIIS: error= 1.86D-03 at cycle   3 NSaved=   3.
 NSaved= 3 IEnMin= 3 EnMin= -46.5431056850989     IErMin= 3 ErrMin= 1.86D-03
 ErrMax= 1.86D-03  0.00D+00 EMaxC= 1.00D-01 BMatC= 2.52D-04 BMatP= 2.22D-02
 IDIUse=3 WtCom= 9.81D-01 WtEn= 1.86D-02
 Coeff-Com:  0.289D+00-0.434D+00 0.114D+01
 Coeff-En:   0.000D+00 0.000D+00 0.100D+01
 Coeff:      0.284D+00-0.426D+00 0.114D+01
 Gap=     0.225 Goal=   None    Shift=    0.000
 RMSDP=3.54D-04 MaxDP=1.91D-02 DE=-3.39D-02 OVMax= 3.13D-02

 Cycle   4  Pass 1  IDiag  1:
 E= -46.5441773444075     Delta-E=       -0.001071659309 Rises=F Damp=F
 DIIS: error= 9.62D-04 at cycle   4 NSaved=   4.
 NSaved= 4 IEnMin= 4 EnMin= -46.5441773444075     IErMin= 4 ErrMin= 9.62D-04
 ErrMax= 9.62D-04  0.00D+00 EMaxC= 1.00D-01 BMatC= 5.58D-05 BMatP= 2.52D-04
 IDIUse=3 WtCom= 9.90D-01 WtEn= 9.62D-03
 Coeff-Com:  0.427D-01-0.440D-01-0.515D+00 0.152D+01
 Coeff-En:   0.000D+00 0.000D+00 0.000D+00 0.100D+01
 Coeff:      0.422D-01-0.436D-01-0.510D+00 0.151D+01
 Gap=     0.227 Goal=   None    Shift=    0.000
 RMSDP=2.28D-04 MaxDP=9.44D-03 DE=-1.07D-03 OVMax= 2.55D-02

 Cycle   5  Pass 1  IDiag  1:
 E= -46.5446156879950     Delta-E=       -0.000438343587 Rises=F Damp=F
 DIIS: error= 4.25D-04 at cycle   5 NSaved=   5.
 NSaved= 5 IEnMin= 5 EnMin= -46.5446156879950     IErMin= 5 ErrMin= 4.25D-04
 ErrMax= 4.25D-04  0.00D+00 EMaxC= 1.00D-01 BMatC= 1.19D-05 BMatP= 5.58D-05
 IDIUse=3 WtCom= 9.96D-01 WtEn= 4.25D-03
 Coeff-Com: -0.415D-01 0.539D-01 0.188D+00-0.111D+01 0.191D+01
 Coeff-En:   0.000D+00 0.000D+00 0.000D+00 0.000D+00 0.100D+01
 Coeff:     -0.414D-01 0.537D-01 0.187D+00-0.111D+01 0.191D+01
 Gap=     0.228 Goal=   None    Shift=    0.000
 RMSDP=1.48D-04 MaxDP=5.28D-03 DE=-4.38D-04 OVMax= 1.88D-02

 Cycle   6  Pass 1  IDiag  1:
 E= -46.5447453333444     Delta-E=       -0.000129645349 Rises=F Damp=F
 DIIS: error= 1.79D-04 at cycle   6 NSaved=   6.
 NSaved= 6 IEnMin= 6 EnMin= -46.5447453333444     IErMin= 6 ErrMin= 1.79D-04
 ErrMax= 1.79D-04  0.00D+00 EMaxC= 1.00D-01 BMatC= 9.78D-07 BMatP= 1.19D-05
 IDIUse=3 WtCom= 9.98D-01 WtEn= 1.79D-03
 Coeff-Com:  0.498D-03-0.462D-03-0.288D-01 0.282D+00-0.700D+00 0.145D+01
 Coeff-En:   0.000D+00 0.000D+00 0.000D+00 0.000D+00 0.000D+00 0.100D+01
 Coeff:      0.497D-03-0.461D-03-0.288D-01 0.281D+00-0.699D+00 0.145D+01
 Gap=     0.228 Goal=   None    Shift=    0.000
 RMSDP=3.80D-05 MaxDP=3.02D-03 DE=-1.30D-04 OVMax= 3.95D-03

 Cycle   7  Pass 1  IDiag  1:
 E= -46.5447542096829     Delta-E=       -0.000008876339 Rises=F Damp=F
 DIIS: error= 5.97D-05 at cycle   7 NSaved=   7.
 NSaved= 7 IEnMin= 7 EnMin= -46.5447542096829     IErMin= 7 ErrMin= 5.97D-05
 ErrMax= 5.97D-05  0.00D+00 EMaxC= 1.00D-01 BMatC= 1.96D-07 BMatP= 9.78D-07
 IDIUse=1 WtCom= 1.00D+00 WtEn= 0.00D+00
 Coeff-Com:  0.558D-02-0.751D-02-0.389D-01 0.195D+00-0.361D+00 0.414D-01
 Coeff-Com:  0.117D+01
 Coeff:      0.558D-02-0.751D-02-0.389D-01 0.195D+00-0.361D+00 0.414D-01
 Coeff:      0.117D+01
 Gap=     0.228 Goal=   None    Shift=    0.000
 RMSDP=1.63D-05 MaxDP=8.07D-04 DE=-8.88D-06 OVMax= 1.90D-03

 Cycle   8  Pass 1  IDiag  1:
 E= -46.5447554181882     Delta-E=       -0.000001208505 Rises=F Damp=F
 DIIS: error= 1.12D-05 at cycle   8 NSaved=   8.
 NSaved= 8 IEnMin= 8 EnMin= -46.5447554181882     IErMin= 8 ErrMin= 1.12D-05
 ErrMax= 1.12D-05  0.00D+00 EMaxC= 1.00D-01 BMatC= 7.63D-09 BMatP= 1.96D-07
 IDIUse=1 WtCom= 1.00D+00 WtEn= 0.00D+00
 Coeff-Com: -0.229D-02 0.315D-02 0.102D-01-0.633D-01 0.145D+00-0.154D+00
 Coeff-Com: -0.222D+00 0.128D+01
 Coeff:     -0.229D-02 0.315D-02 0.102D-01-0.633D-01 0.145D+00-0.154D+00
 Coeff:     -0.222D+00 0.128D+01
 Gap=     0.228 Goal=   None    Shift=    0.000
 RMSDP=4.25D-06 MaxDP=1.88D-04 DE=-1.21D-06 OVMax= 1.66D-04

 Cycle   9  Pass 1  IDiag  1:
 E= -46.5447554533590     Delta-E=       -0.000000035171 Rises=F Damp=F
 DIIS: error= 2.09D-06 at cycle   9 NSaved=   9.
 NSaved= 9 IEnMin= 9 EnMin= -46.5447554533590     IErMin= 9 ErrMin= 2.09D-06
 ErrMax= 2.09D-06  0.00D+00 EMaxC= 1.00D-01 BMatC= 1.37D-10 BMatP= 7.63D-09
 IDIUse=1 WtCom= 1.00D+00 WtEn= 0.00D+00
 Coeff-Com:  0.415D-03-0.585D-03-0.211D-02 0.136D-01-0.333D-01 0.433D-01
 Coeff-Com:  0.317D-01-0.366D+00 0.131D+01
 Coeff:      0.415D-03-0.585D-03-0.211D-02 0.136D-01-0.333D-01 0.433D-01
 Coeff:      0.317D-01-0.366D+00 0.131D+01
 Gap=     0.228 Goal=   None    Shift=    0.000
 RMSDP=4.57D-07 MaxDP=3.58D-05 DE=-3.52D-08 OVMax= 2.63D-05

 Cycle  10  Pass 1  IDiag  1:
 E= -46.5447554541080     Delta-E=       -0.000000000749 Rises=F Damp=F
 DIIS: error= 3.46D-07 at cycle  10 NSaved=  10.
 NSaved=10 IEnMin=10 EnMin= -46.5447554541080     IErMin=10 ErrMin= 3.46D-07
 ErrMax= 3.46D-07  0.00D+00 EMaxC= 1.00D-01 BMatC= 5.00D-12 BMatP= 1.37D-10
 IDIUse=1 WtCom= 1.00D+00 WtEn= 0.00D+00
 Coeff-Com: -0.112D-03 0.154D-03 0.536D-03-0.333D-02 0.822D-02-0.118D-01
 Coeff-Com: -0.262D-02 0.885D-01-0.460D+00 0.138D+01
 Coeff:     -0.112D-03 0.154D-03 0.536D-03-0.333D-02 0.822D-02-0.118D-01
 Coeff:     -0.262D-02 0.885D-01-0.460D+00 0.138D+01
 Gap=     0.228 Goal=   None    Shift=    0.000
 RMSDP=1.14D-07 MaxDP=6.98D-06 DE=-7.49D-10 OVMax= 4.77D-06

 Cycle  11  Pass 1  IDiag  1:
 E= -46.5447554541272     Delta-E=       -0.000000000019 Rises=F Damp=F
 DIIS: error= 2.80D-08 at cycle  11 NSaved=  11.
 NSaved=11 IEnMin=11 EnMin= -46.5447554541272     IErMin=11 ErrMin= 2.80D-08
 ErrMax= 2.80D-08  0.00D+00 EMaxC= 1.00D-01 BMatC= 4.75D-14 BMatP= 5.00D-12
 IDIUse=1 WtCom= 1.00D+00 WtEn= 0.00D+00
 Coeff-Com:  0.166D-04-0.229D-04-0.565D-04 0.361D-03-0.938D-03 0.132D-02
 Coeff-Com:  0.108D-03-0.994D-02 0.607D-01-0.252D+00 0.120D+01
 Coeff:      0.166D-04-0.229D-04-0.565D-04 0.361D-03-0.938D-03 0.132D-02
 Coeff:      0.108D-03-0.994D-02 0.607D-01-0.252D+00 0.120D+01
 Gap=     0.228 Goal=   None    Shift=    0.000
 RMSDP=8.68D-09 MaxDP=3.93D-07 DE=-1.92D-11 OVMax= 9.48D-07

 SCF Done:  E(ROHF) =  -46.5447554541     A.U. after   11 cycles
            NFock= 11  Conv=0.87D-08     -V/T= 3.3749
 <Sx>= 0.0000 <Sy>= 0.0000 <Sz>= 0.0000 <S**2>=-0.0000 S=-0.0000
 <L.S>=  0.00000000000    
 KE= 1.959822856460D+01 PE=-1.061602068469D+02 EE= 3.516643172805D+01
 Annihilation of the first spin contaminant:
 S**2 before annihilation    -0.0000,   after     0.0000
 Leave Link  502 at Mon Feb 12 18:15:45 2018, MaxMem=  8589934592 cpu:             268.2 elap:               8.9
 (Enter /home1/apps/gaussian/16rA.03/g16/l801.exe)
 Windowed orbitals will be sorted by symmetry type.
 GenMOA:  NOpAll=  4 NOp2=4 NOpUse=  4 JSym2X=1
 FoFJK:  IHMeth= 1 ICntrl=       0 DoSepK=F KAlg= 0 I1Cent=           0 FoldK=F
 IRaf=         0 NMat=       1 IRICut=       1 DoRegI=T DoRafI=F ISym2E= 1 IDoP0=0 IntGTp=1.
 FoFCou: FMM=F IPFlag=           8 FMFlag=      100000 FMFlg1=           0
         NFxFlg=           0 DoJE=F BraDBF=F KetDBF=F FulRan=T
         wScrn=  0.000000 ICntrl=         0 IOpCl=  1 I1Cent=           0 NGrid=           0
         NMat0=    1 NMatS0=      1 NMatT0=    0 NMatD0=    1 NMtDS0=    0 NMtDT0=    0
 Petite list used in FoFCou.
 <Sx>= 0.0000 <Sy>= 0.0000 <Sz>= 0.0000 <S**2>=-0.0000 S=-0.0000
 Range of M.O.s used for correlation:     1   212
 NBasis=   215 NAE=     6 NBE=     6 NFC=     0 NFV=     0
 NROrb=    212 NOA=     6 NOB=     6 NVA=   206 NVB=   206

 **** Warning!!: The largest alpha MO coefficient is  0.34875210D+03


 **** Warning!!: The largest beta MO coefficient is  0.34875210D+03

 Singles contribution to E2=   -0.5079988224D-14
 Leave Link  801 at Mon Feb 12 18:15:48 2018, MaxMem=  8589934592 cpu:              95.0 elap:               3.0
 (Enter /home1/apps/gaussian/16rA.03/g16/l804.exe)
 Open-shell transformation, MDV=  8589934592 ITran=4 ISComp=2.
 Unit  1 TFree=       1394682 TCopy=       1088833.
 Semi-Direct transformation.
 ModeAB=           2 MOrb=             6 LenV=    8588447087
 LASXX=      7305744 LTotXX=     7305744 LenRXX=     7305744
 LTotAB=     7449723 MaxLAS=    42498792 LenRXY=    42498792
 NonZer=    43399368 LenScr=    65845760 LnRSAI=           0
 LnScr1=           0 LExtra=     3358255 Total=    119008551
 MaxDsk= 67108864000 SrtSym=           F ITran=            4
 DoSDTr:  NPSUse= 32
 JobTyp=1 Pass  1:  I=   1 to   6.
 (rs|ai) integrals will be sorted in core.
 Complete sort for first half transformation.
 First half transformation complete.
 Complete sort for second half transformation.
 Second half transformation complete.
 ModeAB=           2 MOrb=             6 LenV=    8588447087
 LASXX=      7305744 LTotXX=     7305744 LenRXX=    42498792
 LTotAB=     7016478 MaxLAS=    42498792 LenRXY=     7016478
 NonZer=    43399368 LenScr=    65845760 LnRSAI=           0
 LnScr1=           0 LExtra=    53162791 Total=    168523821
 MaxDsk= 67108864000 SrtSym=           F ITran=            4
 DoSDTr:  NPSUse= 32
 JobTyp=2 Pass  1:  I=   1 to   6.
 (rs|ai) integrals will be sorted in core.
 Complete sort for first half transformation.
 First half transformation complete.
 Complete sort for second half transformation.
 Second half transformation complete.
 Spin components of T(2) and E(2):
     alpha-alpha T2 =       0.1258921570D-01 E2=     -0.5044657263D-01
     alpha-beta  T2 =       0.9335652474D-01 E2=     -0.3167458060D+00
     beta-beta   T2 =       0.1258921570D-01 E2=     -0.5044657263D-01
 ANorm=    0.1057608130D+01
 E2 =    -0.4176389512D+00 EUMP2 =    -0.46962394405363D+02
 (S**2,0)=  0.00000D+00           (S**2,1)=  0.00000D+00
 E(PUHF)=      -0.46544755454D+02        E(PMP2)=      -0.46962394405D+02
 Leave Link  804 at Mon Feb 12 18:17:02 2018, MaxMem=  8589934592 cpu:            2345.2 elap:              73.3
 (Enter /home1/apps/gaussian/16rA.03/g16/l913.exe)
 CIDS:  MDV=  8589934592.
 IFCWin=0 IBDFC=1 NFBD=     0     0 NFCmp=     0     0 NFFFC=     0     0
 Using original routines for 1st iteration.
 Using DD4UQ or CC4UQ for 2nd and later iterations.
 Keep R2 and R3 ints in memory in symmetry-blocked form, NReq=338806075.
 FoFCou: FMM=F IPFlag=           8 FMFlag=           0 FMFlg1=           0
         NFxFlg=           0 DoJE=F BraDBF=F KetDBF=F FulRan=T
         wScrn=  0.000000 ICntrl=       600 IOpCl=  0 I1Cent=           0 NGrid=           0
         NMat0=    1 NMatS0=  23220 NMatT0=    0 NMatD0=    1 NMtDS0=    0 NMtDT0=    0
 Petite list used in FoFCou.
 CIDS: In Core Option IDoMem=           1.
 CCSD(T)
 =======
 Iterations= 150 Convergence= 0.100D-06
 Produce multiple copies of IABC intergrals
 Iteration Nr.   1
 **********************
 DD1Dir will call FoFMem   1 times, MxPair=       102
 NAB=    36 NAA=    15 NBB=    15.
 DD1Dir will call FoFMem   1 times, MxPair=       102
 NAB=    36 NAA=    15 NBB=    15.
 MP4(R+Q)=  0.34363115D-01
 Maximum subspace dimension=  5
 A-vector RMS=  3.4692068D-05 Max=  5.6781058D-03 conv= 1.00D-05.
 RLE energy=       -0.4063975485
 E3=       -0.22810762D-01        EROMP3=      -0.46985205168D+02
 E4(SDQ)=   0.23760297D-03        ROMP4(SDQ)=  -0.46984967565D+02
 VARIATIONAL ENERGIES WITH THE FIRST-ORDER WAVEFUNCTION:
 DE(Corr)= -0.40608660     E(Corr)=     -46.950842053    
 NORM(A)=   0.10519030D+01
 Iteration Nr.   2
 **********************
 DD1Dir will call FoFMem   1 times, MxPair=       102
 NAB=    36 NAA=    15 NBB=    15.
 A-vector RMS=  2.7789132D-03 Max=  2.6624647D-02 conv= 1.00D-05.
 RLE energy=       -0.4139591325
 DE(Corr)= -0.42844485     E(CORR)=     -46.973200303     Delta=-2.24D-02
 NORM(A)=   0.10554227D+01
 Iteration Nr.   3
 **********************
 DD1Dir will call FoFMem   1 times, MxPair=       102
 NAB=    36 NAA=    15 NBB=    15.
 A-vector RMS=  1.9537368D-03 Max=  1.8843692D-02 conv= 1.00D-05.
 RLE energy=       -0.4255276823
 DE(Corr)= -0.43145001     E(CORR)=     -46.976205467     Delta=-3.01D-03
 NORM(A)=   0.10625364D+01
 Iteration Nr.   4
 **********************
 DD1Dir will call FoFMem   1 times, MxPair=       102
 NAB=    36 NAA=    15 NBB=    15.
 A-vector RMS=  1.3930615D-03 Max=  1.3273305D-02 conv= 1.00D-05.
 RLE energy=       -0.4369347874
 DE(Corr)= -0.43453431     E(CORR)=     -46.979289764     Delta=-3.08D-03
 NORM(A)=   0.10734730D+01
 Iteration Nr.   5
 **********************
 DD1Dir will call FoFMem   1 times, MxPair=       102
 NAB=    36 NAA=    15 NBB=    15.
 A-vector RMS=  2.6455555D-04 Max=  2.2530390D-03 conv= 1.00D-05.
 RLE energy=       -0.4413222676
 DE(Corr)= -0.43874971     E(CORR)=     -46.983505167     Delta=-4.22D-03
 NORM(A)=   0.10786608D+01
 Iteration Nr.   6
 **********************
 DD1Dir will call FoFMem   1 times, MxPair=       102
 NAB=    36 NAA=    15 NBB=    15.
 A-vector RMS=  1.3171316D-04 Max=  1.2632795D-03 conv= 1.00D-05.
 RLE energy=       -0.4396890873
 DE(Corr)= -0.44024727     E(CORR)=     -46.985002722     Delta=-1.50D-03
 NORM(A)=   0.10770635D+01
 Iteration Nr.   7
 **********************
 DD1Dir will call FoFMem   1 times, MxPair=       102
 NAB=    36 NAA=    15 NBB=    15.
 A-vector RMS=  3.4446946D-05 Max=  3.7918313D-04 conv= 1.00D-05.
 RLE energy=       -0.4396988592
 DE(Corr)= -0.43968864     E(CORR)=     -46.984444090     Delta= 5.59D-04
 NORM(A)=   0.10771752D+01
 Iteration Nr.   8
 **********************
 DD1Dir will call FoFMem   1 times, MxPair=       102
 NAB=    36 NAA=    15 NBB=    15.
 A-vector RMS=  1.8439420D-05 Max=  1.9351068D-04 conv= 1.00D-05.
 RLE energy=       -0.4397046046
 DE(Corr)= -0.43970881     E(CORR)=     -46.984464269     Delta=-2.02D-05
 NORM(A)=   0.10771544D+01
 Iteration Nr.   9
 **********************
 DD1Dir will call FoFMem   1 times, MxPair=       102
 NAB=    36 NAA=    15 NBB=    15.
 A-vector RMS=  5.4366931D-06 Max=  5.2167349D-05 conv= 1.00D-05.
 RLE energy=       -0.4396998026
 DE(Corr)= -0.43969849     E(CORR)=     -46.984453943     Delta= 1.03D-05
 NORM(A)=   0.10771428D+01
 Iteration Nr.  10
 **********************
 DD1Dir will call FoFMem   1 times, MxPair=       102
 NAB=    36 NAA=    15 NBB=    15.
 A-vector RMS=  1.8709871D-06 Max=  1.8607334D-05 conv= 1.00D-05.
 RLE energy=       -0.4396992207
 DE(Corr)= -0.43969908     E(CORR)=     -46.984454530     Delta=-5.87D-07
 NORM(A)=   0.10771421D+01
 Iteration Nr.  11
 **********************
 DD1Dir will call FoFMem   1 times, MxPair=       102
 NAB=    36 NAA=    15 NBB=    15.
 A-vector RMS=  7.9328082D-07 Max=  6.5525290D-06 conv= 1.00D-05.
 RLE energy=       -0.4396997339
 DE(Corr)= -0.43969866     E(CORR)=     -46.984454115     Delta= 4.15D-07
 NORM(A)=   0.10771476D+01
 Iteration Nr.  12
 **********************
 DD1Dir will call FoFMem   1 times, MxPair=       102
 NAB=    36 NAA=    15 NBB=    15.
 A-vector RMS=  2.7222810D-07 Max=  2.6306665D-06 conv= 1.00D-05.
 RLE energy=       -0.4396992723
 DE(Corr)= -0.43969929     E(CORR)=     -46.984454741     Delta=-6.26D-07
 NORM(A)=   0.10771483D+01
 Iteration Nr.  13
 **********************
 DD1Dir will call FoFMem   1 times, MxPair=       102
 NAB=    36 NAA=    15 NBB=    15.
 A-vector RMS=  1.1134846D-07 Max=  1.0532702D-06 conv= 1.00D-05.
 RLE energy=       -0.4396993574
 DE(Corr)= -0.43969929     E(CORR)=     -46.984454745     Delta=-4.02D-09
 NORM(A)=   0.10771487D+01
 CI/CC converged in   13 iterations to DelEn=-4.02D-09 Conv= 1.00D-07 ErrA1= 1.11D-07 Conv= 1.00D-05
 Wavefunction amplitudes converged. E(Corr)=     -46.984454745    
 Largest amplitude= 5.61D-02
 Time for triples=     6594.70 seconds.
 T4(CCSD)= -0.18131369D-01
 T5(CCSD)=  0.60844796D-03
 CCSD(T)= -0.47001977666D+02
 Discarding MO integrals.
 Leave Link  913 at Mon Feb 12 18:21:39 2018, MaxMem=  8589934592 cpu:            8844.1 elap:             276.9
 (Enter /home1/apps/gaussian/16rA.03/g16/l601.exe)
 Copying SCF densities to generalized density rwf, IOpCl= 0 IROHF=1.

 **********************************************************************

            Population analysis using the SCF density.

 **********************************************************************

 Orbital symmetries:
       Occupied  (SG) (SG) (PI) (PI) (SG) (SG)
       Virtual   (PI) (PI) (SG) (SG) (SG) (PI) (PI) (DLTA) (DLTA)
                 (SG) (PI) (PI) (SG) (DLTA) (DLTA) (PI) (PI) (SG)
                 (SG) (PI) (PI) (SG) (DLTA) (DLTA) (PHI) (PHI)
                 (PI) (PI) (PI) (PI) (DLTA) (DLTA) (SG) (SG) (PI)
                 (PI) (SG) (SG) (DLTA) (DLTA) (PI) (PI) (SG) (DLTA)
                 (DLTA) (PHI) (PHI) (?A) (?A) (SG) (PI) (PI) (PI)
                 (PI) (DLTA) (DLTA) (PHI) (PHI) (SG) (PI) (PI)
                 (SG) (SG) (PI) (PI) (SG) (DLTA) (DLTA) (SG) (DLTA)
                 (DLTA) (PI) (PI) (SG) (PI) (PI) (PI) (PI) (SG)
                 (SG) (PHI) (PHI) (?A) (?A) (PI) (PI) (DLTA) (DLTA)
                 (PHI) (PHI) (DLTA) (DLTA) (SG) (SG) (PI) (PI)
                 (DLTA) (DLTA) (PI) (PI) (SG) (SG) (SG) (PI) (PI)
                 (DLTA) (DLTA) (SG) (PI) (PI) (PI) (PI) (SG) (SG)
                 (DLTA) (DLTA) (PI) (PI) (SG) (PHI) (PHI) (DLTA)
                 (DLTA) (PI) (PI) (SG) (?A) (?A) (PHI) (PHI) (DLTA)
                 (DLTA) (SG) (PI) (PI) (SG) (PI) (PI) (SG) (DLTA)
                 (DLTA) (PI) (PI) (SG) (SG) (SG) (PI) (PI) (SG)
                 (DLTA) (DLTA) (PI) (PI) (SG) (SG) (PI) (PI) (SG)
                 (DLTA) (DLTA) (PI) (PI) (SG) (SG) (SG) (PI) (PI)
                 (SG) (SG) (PI) (PI) (SG) (DLTA) (DLTA) (PI) (PI)
                 (SG) (SG) (PI) (PI) (SG) (SG) (PI) (PI) (SG) (SG)
                 (PI) (PI) (SG) (SG) (PI) (PI) (SG) (SG) (PI) (PI)
                 (SG) (SG) (SG) (PI) (PI) (SG) (SG) (SG) (SG) (SG)
 The electronic state is 1-SG.
 Alpha  occ. eigenvalues --   -2.61432  -1.63617  -1.59015  -1.59015  -0.46926
 Alpha  occ. eigenvalues --   -0.21451
 Alpha virt. eigenvalues --    0.01379   0.01379   0.01460   0.02238   0.03470
 Alpha virt. eigenvalues --    0.03912   0.03912   0.03948   0.03948   0.04887
 Alpha virt. eigenvalues --    0.04944   0.04944   0.09326   0.10635   0.10635
 Alpha virt. eigenvalues --    0.10653   0.10653   0.11458   0.15137   0.15844
 Alpha virt. eigenvalues --    0.15844   0.15869   0.17227   0.17227   0.17295
 Alpha virt. eigenvalues --    0.17295   0.17439   0.17439   0.19075   0.19075
 Alpha virt. eigenvalues --    0.19168   0.19168   0.21044   0.32633   0.39378
 Alpha virt. eigenvalues --    0.39378   0.40490   0.42856   0.47439   0.47439
 Alpha virt. eigenvalues --    0.47480   0.47480   0.48203   0.48912   0.48912
 Alpha virt. eigenvalues --    0.49039   0.49039   0.49149   0.49149   0.49802
 Alpha virt. eigenvalues --    0.50959   0.50959   0.55289   0.55289   0.63882
 Alpha virt. eigenvalues --    0.63882   0.64339   0.64339   0.67937   0.79733
 Alpha virt. eigenvalues --    0.79733   0.87132   1.08254   1.15202   1.15202
 Alpha virt. eigenvalues --    1.16931   1.18492   1.18492   1.21569   1.32330
 Alpha virt. eigenvalues --    1.32330   1.35266   1.35266   1.48306   1.56659
 Alpha virt. eigenvalues --    1.56659   1.65427   1.65427   1.85838   1.97178
 Alpha virt. eigenvalues --    1.97361   1.97361   1.97571   1.97571   2.10278
 Alpha virt. eigenvalues --    2.10278   2.12349   2.12349   2.18529   2.18529
 Alpha virt. eigenvalues --    2.23495   2.23495   2.34834   2.73401   2.82243
 Alpha virt. eigenvalues --    2.82243   2.97557   2.97557   3.00482   3.00482
 Alpha virt. eigenvalues --    3.03596   3.48009   3.69930   4.07388   4.07388
 Alpha virt. eigenvalues --    4.17033   4.17033   4.47952   4.58561   4.58561
 Alpha virt. eigenvalues --    4.97642   4.97642   5.14471   5.44927   5.96969
 Alpha virt. eigenvalues --    5.96969   6.00689   6.00689   6.48714   6.71576
 Alpha virt. eigenvalues --    6.71576   6.75994   6.75994   7.16281   7.16281
 Alpha virt. eigenvalues --    7.67158   7.76899   7.76899   7.77107   7.77107
 Alpha virt. eigenvalues --    7.84408   7.84408   8.14009   8.20892   8.20892
 Alpha virt. eigenvalues --    8.73648   8.84929   8.84929   9.64176  11.22142
 Alpha virt. eigenvalues --   11.22142  11.25601  11.25601  11.43612  11.65058
 Alpha virt. eigenvalues --   16.89550  18.02825  18.02825  19.02054  20.80571
 Alpha virt. eigenvalues --   20.80571  20.84106  20.84106  21.15891  34.77334
 Alpha virt. eigenvalues --   37.44468  37.44468  38.51861  47.87095  47.87095
 Alpha virt. eigenvalues --   47.89962  47.89962  48.13273  64.55237  70.80895
 Alpha virt. eigenvalues --   76.62302  76.62302  77.64590 128.04331 151.79837
 Alpha virt. eigenvalues --  151.79837 152.77730 173.81628 173.81628 173.83264
 Alpha virt. eigenvalues --  173.83264 173.97788 229.49804 302.51599 302.51599
 Alpha virt. eigenvalues --  303.46880 436.48385 625.81299 625.81299 626.71097
 Alpha virt. eigenvalues --  878.949651381.184051381.184051382.000351876.88001
 Alpha virt. eigenvalues -- 3351.891563351.891563352.604334257.250589408.12612
 Alpha virt. eigenvalues -- 9408.126129408.71297******************************
 Alpha virt. eigenvalues -- **************************************************
 Alpha virt. eigenvalues -- **********
     Molecular Orbital Coefficients:
                           2         3         4         5         6
                           O         O         O         O         O
     Eigenvalues --    -1.63617  -1.59015  -1.59015  -0.46926  -0.21451
   1 1   Sc 1S         -0.00000   0.00000   0.00000   0.00000   0.00000
   2        2S          0.00000   0.00000   0.00000  -0.00000  -0.00000
   3        3S         -0.00000   0.00000   0.00000   0.00000   0.00000
   4        4S          0.00000   0.00000   0.00000  -0.00000  -0.00000
   5        5S         -0.00000   0.00000   0.00000   0.00000   0.00000
   6        6S          0.00000   0.00000   0.00000  -0.00001  -0.00001
   7        7S         -0.00001   0.00000   0.00000   0.00002   0.00003
   8        8S          0.00002   0.00000   0.00000  -0.00008  -0.00011
   9        9S         -0.00005   0.00000   0.00000   0.00024   0.00033
  10       10S          0.00016   0.00000   0.00000  -0.00070  -0.00095
  11       11S         -0.00049   0.00000   0.00000   0.00209   0.00283
  12       12S          0.00161   0.00000   0.00000  -0.00692  -0.00938
  13       13S          0.00202   0.00000   0.00000  -0.00357  -0.00419
  14       14S         -0.02968   0.00000   0.00000   0.09580   0.12480
  15       15S         -0.03622   0.00000   0.00000   0.03950   0.03658
  16       16S          0.09222   0.00000   0.00000  -0.22393  -0.26357
  17       17S          0.11222   0.00000   0.00000  -0.21702  -0.30744
  18       18S          0.03241   0.00000   0.00000  -0.09804   0.31782
  19       19S         -0.01491   0.00000   0.00000   0.03085   0.52463
  20       20S         -0.00195   0.00000   0.00000  -0.03430   0.17949
  21       21S          0.03370   0.00000   0.00000  -0.05519  -0.06089
  22       22S         -0.10531   0.00000   0.00000   0.08777   0.05359
  23       23S         -0.00186   0.00000   0.00000  -0.00118  -0.00199
  24       24PX         0.00000   0.00000   0.00000   0.00000   0.00000
  25       24PY         0.00000   0.00000   0.00000   0.00000   0.00000
  26       24PZ         0.00000   0.00000   0.00000   0.00000  -0.00000
  27       25PX         0.00000  -0.00000   0.00000   0.00000   0.00000
  28       25PY         0.00000   0.00000  -0.00000   0.00000   0.00000
  29       25PZ        -0.00000   0.00000   0.00000  -0.00000   0.00000
  30       26PX         0.00000   0.00001   0.00000   0.00000   0.00000
  31       26PY         0.00000   0.00000   0.00001   0.00000   0.00000
  32       26PZ         0.00001   0.00000   0.00000   0.00000  -0.00000
  33       27PX         0.00000  -0.00006   0.00000   0.00000   0.00000
  34       27PY         0.00000   0.00000  -0.00006   0.00000   0.00000
  35       27PZ        -0.00006   0.00000   0.00000  -0.00002   0.00000
  36       28PX         0.00000   0.00023   0.00000   0.00000   0.00000
  37       28PY         0.00000   0.00000   0.00023   0.00000   0.00000
  38       28PZ         0.00023   0.00000   0.00000   0.00006  -0.00002
  39       29PX         0.00000  -0.00086   0.00000   0.00000   0.00000
  40       29PY         0.00000   0.00000  -0.00086   0.00000   0.00000
  41       29PZ        -0.00085   0.00000   0.00000  -0.00023   0.00006
  42       30PX         0.00000   0.00328   0.00000   0.00000   0.00000
  43       30PY         0.00000   0.00000   0.00328   0.00000   0.00000
  44       30PZ         0.00325   0.00000   0.00000   0.00092  -0.00021
  45       31PX         0.00000  -0.00116   0.00000   0.00000   0.00000
  46       31PY         0.00000   0.00000  -0.00116   0.00000   0.00000
  47       31PZ        -0.00135   0.00000   0.00000  -0.00036   0.00041
  48       32PX         0.00000  -0.08533   0.00000   0.00000   0.00000
  49       32PY         0.00000   0.00000  -0.08533   0.00000   0.00000
  50       32PZ        -0.08176   0.00000   0.00000  -0.02533   0.00124
  51       33PX         0.00000   0.12578   0.00000   0.00000   0.00000
  52       33PY         0.00000   0.00000   0.12578   0.00000   0.00000
  53       33PZ         0.10614   0.00000   0.00000   0.04674   0.02315
  54       34PX         0.00000   0.32016   0.00000   0.00000   0.00000
  55       34PY         0.00000   0.00000   0.32016   0.00000   0.00000
  56       34PZ         0.30681   0.00000   0.00000   0.10032  -0.00713
  57       35PX         0.00000   0.47741   0.00000   0.00000   0.00000
  58       35PY         0.00000   0.00000   0.47741   0.00000   0.00000
  59       35PZ         0.41321   0.00000   0.00000   0.18600  -0.00636
  60       36PX         0.00000   0.29357   0.00000   0.00000   0.00000
  61       36PY         0.00000   0.00000   0.29357   0.00000   0.00000
  62       36PZ         0.26079   0.00000   0.00000   0.12305  -0.00963
  63       37PX         0.00000   0.04288   0.00000   0.00000   0.00000
  64       37PY         0.00000   0.00000   0.04288   0.00000   0.00000
  65       37PZ         0.02119   0.00000   0.00000   0.04135   0.01490
  66       38PX         0.00000  -0.00388   0.00000   0.00000   0.00000
  67       38PY         0.00000   0.00000  -0.00388   0.00000   0.00000
  68       38PZ        -0.00536   0.00000   0.00000  -0.00179   0.05545
  69       39PX         0.00000   0.00243   0.00000   0.00000   0.00000
  70       39PY         0.00000   0.00000   0.00243   0.00000   0.00000
  71       39PZ         0.00430   0.00000   0.00000   0.00377   0.05023
  72       40PX         0.00000  -0.10692   0.00000   0.00000   0.00000
  73       40PY         0.00000   0.00000  -0.10692   0.00000   0.00000
  74       40PZ        -0.08713   0.00000   0.00000  -0.03924  -0.02498
  75       41PX         0.00000  -0.00858   0.00000   0.00000   0.00000
  76       41PY         0.00000   0.00000  -0.00858   0.00000   0.00000
  77       41PZ         0.04645   0.00000   0.00000  -0.04571  -0.01020
  78       42PX         0.00000  -0.00068   0.00000   0.00000   0.00000
  79       42PY         0.00000   0.00000  -0.00068   0.00000   0.00000
  80       42PZ        -0.00016   0.00000   0.00000   0.00273   0.00093
  81       43D 0       -0.00000   0.00000   0.00000   0.00012  -0.00007
  82       43D+1        0.00000  -0.00000   0.00000   0.00000   0.00000
  83       43D-1        0.00000   0.00000  -0.00000   0.00000   0.00000
  84       43D+2       -0.00000   0.00000   0.00000   0.00000  -0.00000
  85       43D-2        0.00000   0.00000   0.00000   0.00000   0.00000
  86       44D 0       -0.00006   0.00000   0.00000   0.01542  -0.00910
  87       44D+1        0.00000  -0.00058   0.00000   0.00000   0.00000
  88       44D-1        0.00000   0.00000  -0.00058   0.00000   0.00000
  89       44D+2        0.00000   0.00000   0.00000   0.00000   0.00000
  90       44D-2        0.00000   0.00000   0.00000   0.00000   0.00000
  91       45D 0       -0.00010   0.00000   0.00000   0.06914  -0.04059
  92       45D+1        0.00000  -0.00257   0.00000   0.00000   0.00000
  93       45D-1        0.00000   0.00000  -0.00257   0.00000   0.00000
  94       45D+2       -0.00000   0.00000   0.00000   0.00000   0.00000
  95       45D-2        0.00000   0.00000   0.00000   0.00000   0.00000
  96       46D 0       -0.00112   0.00000   0.00000   0.06940  -0.05196
  97       46D+1        0.00000  -0.00695   0.00000   0.00000   0.00000
  98       46D-1        0.00000   0.00000  -0.00695   0.00000   0.00000
  99       46D+2        0.00000   0.00000   0.00000   0.00000   0.00000
 100       46D-2        0.00000   0.00000   0.00000   0.00000   0.00000
 101       47D 0       -0.08779   0.00000   0.00000  -0.42026   0.05412
 102       47D+1        0.00000  -0.06156   0.00000   0.00000   0.00000
 103       47D-1        0.00000   0.00000  -0.06156   0.00000   0.00000
 104       47D+2        0.00000   0.00000   0.00000   0.00000   0.00000
 105       47D-2        0.00000   0.00000   0.00000   0.00000   0.00000
 106       48D 0        0.00996   0.00000   0.00000   0.18227  -0.14497
 107       48D+1        0.00000  -0.00065   0.00000   0.00000   0.00000
 108       48D-1        0.00000   0.00000  -0.00065   0.00000   0.00000
 109       48D+2       -0.00000   0.00000   0.00000   0.00000   0.00000
 110       48D-2        0.00000   0.00000   0.00000   0.00000   0.00000
 111       49D 0        0.00328   0.00000   0.00000   0.06771  -0.09898
 112       49D+1        0.00000   0.00149   0.00000   0.00000   0.00000
 113       49D-1        0.00000   0.00000   0.00149   0.00000   0.00000
 114       49D+2       -0.00000   0.00000   0.00000   0.00000   0.00000
 115       49D-2        0.00000   0.00000   0.00000   0.00000   0.00000
 116       50D 0       -0.00093   0.00000   0.00000  -0.00006  -0.02934
 117       50D+1        0.00000  -0.00001   0.00000   0.00000   0.00000
 118       50D-1        0.00000   0.00000  -0.00001   0.00000   0.00000
 119       50D+2        0.00000   0.00000   0.00000   0.00000   0.00000
 120       50D-2        0.00000   0.00000   0.00000   0.00000   0.00000
 121       51D 0       -0.00027   0.00000   0.00000   0.08376  -0.03553
 122       51D+1        0.00000   0.00084   0.00000   0.00000   0.00000
 123       51D-1        0.00000   0.00000   0.00084   0.00000   0.00000
 124       51D+2       -0.00000   0.00000   0.00000  -0.00000  -0.00000
 125       51D-2        0.00000   0.00000   0.00000   0.00000   0.00000
 126       52D 0        0.08488   0.00000   0.00000   0.63738  -0.17985
 127       52D+1        0.00000   0.05454   0.00000   0.00000   0.00000
 128       52D-1        0.00000   0.00000   0.05454   0.00000   0.00000
 129       52D+2       -0.00000   0.00000   0.00000  -0.00000  -0.00000
 130       52D-2        0.00000   0.00000   0.00000   0.00000   0.00000
 131       53D 0       -0.00009   0.00000   0.00000  -0.00032  -0.00093
 132       53D+1        0.00000   0.00002   0.00000   0.00000   0.00000
 133       53D-1        0.00000   0.00000   0.00002   0.00000   0.00000
 134       53D+2       -0.00000   0.00000   0.00000  -0.00000  -0.00000
 135       53D-2        0.00000   0.00000   0.00000   0.00000   0.00000
 136       54F 0        0.00283   0.00000   0.00000  -0.00691   0.00118
 137       54F+1        0.00000  -0.00286   0.00000   0.00000   0.00000
 138       54F-1        0.00000   0.00000  -0.00286   0.00000   0.00000
 139       54F+2        0.00000   0.00000   0.00000  -0.00000  -0.00000
 140       54F-2        0.00000   0.00000   0.00000   0.00000   0.00000
 141       54F+3        0.00000   0.00000   0.00000   0.00000   0.00000
 142       54F-3        0.00000   0.00000   0.00000   0.00000   0.00000
 143       55F 0        0.00608   0.00000   0.00000  -0.01971   0.00118
 144       55F+1        0.00000  -0.00455   0.00000   0.00000   0.00000
 145       55F-1        0.00000   0.00000  -0.00455   0.00000   0.00000
 146       55F+2        0.00000   0.00000   0.00000   0.00000   0.00000
 147       55F-2        0.00000   0.00000   0.00000   0.00000   0.00000
 148       55F+3        0.00000   0.00000   0.00000   0.00000   0.00000
 149       55F-3        0.00000   0.00000   0.00000   0.00000   0.00000
 150       56F 0       -0.00021   0.00000   0.00000  -0.00810  -0.00248
 151       56F+1        0.00000  -0.00213   0.00000   0.00000   0.00000
 152       56F-1        0.00000   0.00000  -0.00213   0.00000   0.00000
 153       56F+2        0.00000   0.00000   0.00000  -0.00000  -0.00000
 154       56F-2        0.00000   0.00000   0.00000   0.00000   0.00000
 155       56F+3        0.00000  -0.00000   0.00000   0.00000   0.00000
 156       56F-3        0.00000   0.00000  -0.00000   0.00000   0.00000
 157       57F 0       -0.00007   0.00000   0.00000  -0.00177   0.00032
 158       57F+1        0.00000  -0.00002   0.00000   0.00000   0.00000
 159       57F-1        0.00000   0.00000  -0.00002   0.00000   0.00000
 160       57F+2       -0.00000   0.00000   0.00000   0.00000   0.00000
 161       57F-2        0.00000   0.00000   0.00000   0.00000   0.00000
 162       57F+3        0.00000   0.00000   0.00000   0.00000   0.00000
 163       57F-3        0.00000   0.00000   0.00000   0.00000   0.00000
 164       58G 0       -0.00116   0.00000   0.00000   0.00098   0.00045
 165       58G+1        0.00000  -0.00040   0.00000   0.00000   0.00000
 166       58G-1        0.00000   0.00000  -0.00040   0.00000   0.00000
 167       58G+2       -0.00000   0.00000   0.00000   0.00000   0.00000
 168       58G-2        0.00000   0.00000   0.00000   0.00000   0.00000
 169       58G+3        0.00000  -0.00000   0.00000   0.00000   0.00000
 170       58G-3        0.00000   0.00000  -0.00000   0.00000   0.00000
 171       58G+4       -0.00000   0.00000   0.00000  -0.00000  -0.00000
 172       58G-4        0.00000   0.00000   0.00000   0.00000   0.00000
 173       59G 0       -0.00034   0.00000   0.00000   0.00320  -0.00001
 174       59G+1        0.00000   0.00016   0.00000   0.00000   0.00000
 175       59G-1        0.00000   0.00000   0.00016   0.00000   0.00000
 176       59G+2       -0.00000   0.00000   0.00000  -0.00000  -0.00000
 177       59G-2        0.00000   0.00000   0.00000   0.00000   0.00000
 178       59G+3        0.00000  -0.00000   0.00000   0.00000   0.00000
 179       59G-3        0.00000   0.00000  -0.00000   0.00000   0.00000
 180       59G+4        0.00000   0.00000   0.00000   0.00000   0.00000
 181       59G-4        0.00000   0.00000   0.00000   0.00000   0.00000
 182       60G 0        0.00054   0.00000   0.00000   0.00104  -0.00047
 183       60G+1        0.00000   0.00024   0.00000   0.00000   0.00000
 184       60G-1        0.00000   0.00000   0.00024   0.00000   0.00000
 185       60G+2        0.00000   0.00000   0.00000   0.00000   0.00000
 186       60G-2        0.00000   0.00000   0.00000   0.00000   0.00000
 187       60G+3        0.00000   0.00000   0.00000   0.00000   0.00000
 188       60G-3        0.00000   0.00000   0.00000   0.00000   0.00000
 189       60G+4       -0.00000   0.00000   0.00000  -0.00000  -0.00000
 190       60G-4        0.00000   0.00000   0.00000   0.00000   0.00000
 191 2   H  1S         -0.00130   0.00000   0.00000   0.00404  -0.00021
 192        2S         -0.01293   0.00000   0.00000   0.04311  -0.00228
 193        3S         -0.04953   0.00000   0.00000   0.17299  -0.00953
 194        4S         -0.08233   0.00000   0.00000   0.41416   0.00006
 195        5S         -0.01351   0.00000   0.00000   0.33899  -0.00586
 196        6S          0.00888   0.00000   0.00000   0.04259   0.07849
 197        7PX         0.00000   0.00254   0.00000   0.00000   0.00000
 198        7PY         0.00000   0.00000   0.00254   0.00000   0.00000
 199        7PZ        -0.01188   0.00000   0.00000   0.01052  -0.00603
 200        8PX         0.00000   0.00092   0.00000   0.00000   0.00000
 201        8PY         0.00000   0.00000   0.00092   0.00000   0.00000
 202        8PZ        -0.02044   0.00000   0.00000   0.03995  -0.00345
 203        9PX         0.00000   0.00065   0.00000   0.00000   0.00000
 204        9PY         0.00000   0.00000   0.00065   0.00000   0.00000
 205        9PZ        -0.00142   0.00000   0.00000   0.04416  -0.00891
 206       10D 0       -0.00391   0.00000   0.00000   0.00294  -0.00208
 207       10D+1        0.00000   0.00119   0.00000   0.00000   0.00000
 208       10D-1        0.00000   0.00000   0.00119   0.00000   0.00000
 209       10D+2        0.00000   0.00000   0.00000   0.00000   0.00000
 210       10D-2        0.00000   0.00000   0.00000   0.00000   0.00000
 211       11D 0       -0.00184   0.00000   0.00000   0.00202   0.00136
 212       11D+1        0.00000  -0.00071   0.00000   0.00000   0.00000
 213       11D-1        0.00000   0.00000  -0.00071   0.00000   0.00000
 214       11D+2        0.00000   0.00000   0.00000   0.00000  -0.00000
 215       11D-2        0.00000   0.00000   0.00000   0.00000   0.00000
                           7         8         9        10        11
                           V         V         V         V         V
     Eigenvalues --     0.01379   0.01379   0.01460   0.02238   0.03470
   1 1   Sc 1S          0.00000   0.00000  -0.00000  -0.00000   0.00000
   2        2S          0.00000   0.00000   0.00000   0.00000  -0.00000
   3        3S          0.00000   0.00000  -0.00000  -0.00000   0.00000
   4        4S          0.00000   0.00000   0.00000   0.00000  -0.00000
   5        5S          0.00000   0.00000  -0.00000  -0.00000   0.00000
   6        6S          0.00000   0.00000   0.00000   0.00000  -0.00000
   7        7S          0.00000   0.00000  -0.00000  -0.00001   0.00000
   8        8S          0.00000   0.00000   0.00001   0.00002  -0.00002
   9        9S          0.00000   0.00000  -0.00003  -0.00006   0.00004
  10       10S          0.00000   0.00000   0.00008   0.00014  -0.00012
  11       11S          0.00000   0.00000  -0.00017  -0.00025   0.00029
  12       12S          0.00000   0.00000   0.00044   0.00048  -0.00080
  13       13S          0.00000   0.00000  -0.00332  -0.00949   0.00376
  14       14S          0.00000   0.00000   0.02182   0.06964  -0.02172
  15       15S          0.00000   0.00000   0.08916   0.23746  -0.10180
  16       16S          0.00000   0.00000  -0.13641  -0.36922   0.15932
  17       17S          0.00000   0.00000  -0.13707  -0.31400   0.22212
  18       18S          0.00000   0.00000   0.84752   0.44922   0.96996
  19       19S          0.00000   0.00000  -0.11957  -1.62969   0.66837
  20       20S          0.00000   0.00000   2.83605  -1.89299 -18.98458
  21       21S          0.00000   0.00000  -0.07085  -0.19447   0.08023
  22       22S          0.00000   0.00000   0.17781   0.45191  -0.26232
  23       23S          0.00000   0.00000  -0.49364  -2.72215   0.01097
  24       24PX        -0.00000   0.00000   0.00000   0.00000   0.00000
  25       24PY         0.00000  -0.00000   0.00000   0.00000   0.00000
  26       24PZ         0.00000   0.00000  -0.00000   0.00000  -0.00000
  27       25PX         0.00000   0.00000   0.00000   0.00000   0.00000
  28       25PY         0.00000   0.00000   0.00000   0.00000   0.00000
  29       25PZ         0.00000   0.00000   0.00000  -0.00000   0.00000
  30       26PX        -0.00001   0.00000   0.00000   0.00000   0.00000
  31       26PY         0.00000  -0.00001   0.00000   0.00000   0.00000
  32       26PZ         0.00000   0.00000  -0.00000   0.00000  -0.00000
  33       27PX         0.00002   0.00000   0.00000   0.00000   0.00000
  34       27PY         0.00000   0.00002   0.00000   0.00000   0.00000
  35       27PZ         0.00000   0.00000   0.00000  -0.00001   0.00002
  36       28PX        -0.00008   0.00000   0.00000   0.00000   0.00000
  37       28PY         0.00000  -0.00008   0.00000   0.00000   0.00000
  38       28PZ         0.00000   0.00000  -0.00001   0.00005  -0.00008
  39       29PX         0.00027   0.00000   0.00000   0.00000   0.00000
  40       29PY         0.00000   0.00027   0.00000   0.00000   0.00000
  41       29PZ         0.00000   0.00000   0.00003  -0.00016   0.00025
  42       30PX        -0.00087   0.00000   0.00000   0.00000   0.00000
  43       30PY         0.00000  -0.00087   0.00000   0.00000   0.00000
  44       30PZ         0.00000   0.00000  -0.00003   0.00047  -0.00072
  45       31PX         0.00181   0.00000   0.00000   0.00000   0.00000
  46       31PY         0.00000   0.00181   0.00000   0.00000   0.00000
  47       31PZ         0.00000   0.00000   0.00065  -0.00140   0.00236
  48       32PX         0.00243   0.00000   0.00000   0.00000   0.00000
  49       32PY         0.00000   0.00243   0.00000   0.00000   0.00000
  50       32PZ         0.00000   0.00000  -0.00828   0.00487  -0.01044
  51       33PX         0.09381   0.00000   0.00000   0.00000   0.00000
  52       33PY         0.00000   0.09381   0.00000   0.00000   0.00000
  53       33PZ         0.00000   0.00000   0.07243  -0.08924   0.19173
  54       34PX        -0.02719   0.00000   0.00000   0.00000   0.00000
  55       34PY         0.00000  -0.02719   0.00000   0.00000   0.00000
  56       34PZ         0.00000   0.00000   0.02852  -0.00393   0.02721
  57       35PX         0.14693   0.00000   0.00000   0.00000   0.00000
  58       35PY         0.00000   0.14693   0.00000   0.00000   0.00000
  59       35PZ         0.00000   0.00000   0.06661  -0.18996   0.07860
  60       36PX         0.00205   0.00000   0.00000   0.00000   0.00000
  61       36PY         0.00000   0.00205   0.00000   0.00000   0.00000
  62       36PZ         0.00000   0.00000   0.03120  -0.06912   0.03218
  63       37PX        -0.00261   0.00000   0.00000   0.00000   0.00000
  64       37PY         0.00000  -0.00261   0.00000   0.00000   0.00000
  65       37PZ         0.00000   0.00000  -0.23257   0.13277  -0.19002
  66       38PX         0.34377   0.00000   0.00000   0.00000   0.00000
  67       38PY         0.00000   0.34377   0.00000   0.00000   0.00000
  68       38PZ         0.00000   0.00000  -0.58132   0.32141  -0.48737
  69       39PX        -0.14555   0.00000   0.00000   0.00000   0.00000
  70       39PY         0.00000  -0.14555   0.00000   0.00000   0.00000
  71       39PZ         0.00000   0.00000  -0.49330   1.50014   6.23438
  72       40PX        -0.09730   0.00000   0.00000   0.00000   0.00000
  73       40PY         0.00000  -0.09730   0.00000   0.00000   0.00000
  74       40PZ         0.00000   0.00000  -0.07303   0.08992  -0.19683
  75       41PX        -0.21567   0.00000   0.00000   0.00000   0.00000
  76       41PY         0.00000  -0.21567   0.00000   0.00000   0.00000
  77       41PZ         0.00000   0.00000  -0.03788   0.21205  -0.08571
  78       42PX         0.96917   0.00000   0.00000   0.00000   0.00000
  79       42PY         0.00000   0.96917   0.00000   0.00000   0.00000
  80       42PZ         0.00000   0.00000  -1.11354   0.48899   0.79503
  81       43D 0        0.00000   0.00000  -0.00003  -0.00001   0.00001
  82       43D+1        0.00000   0.00000   0.00000   0.00000   0.00000
  83       43D-1        0.00000   0.00000   0.00000   0.00000   0.00000
  84       43D+2        0.00000   0.00000  -0.00000  -0.00000   0.00000
  85       43D-2        0.00000   0.00000   0.00000   0.00000   0.00000
  86       44D 0        0.00000   0.00000  -0.00368  -0.00099  -0.00032
  87       44D+1        0.00036   0.00000   0.00000   0.00000   0.00000
  88       44D-1        0.00000   0.00036   0.00000   0.00000   0.00000
  89       44D+2        0.00000   0.00000   0.00000  -0.00000   0.00000
  90       44D-2        0.00000   0.00000   0.00000   0.00000   0.00000
  91       45D 0        0.00000   0.00000  -0.01709  -0.00446   0.00014
  92       45D+1        0.00144   0.00000   0.00000   0.00000   0.00000
  93       45D-1        0.00000   0.00144   0.00000   0.00000   0.00000
  94       45D+2        0.00000   0.00000   0.00000  -0.00000   0.00000
  95       45D-2        0.00000   0.00000   0.00000   0.00000   0.00000
  96       46D 0        0.00000   0.00000   0.00190  -0.00574  -0.05095
  97       46D+1        0.00673   0.00000   0.00000   0.00000   0.00000
  98       46D-1        0.00000   0.00673   0.00000   0.00000   0.00000
  99       46D+2        0.00000   0.00000   0.00000   0.00000  -0.00000
 100       46D-2        0.00000   0.00000   0.00000   0.00000   0.00000
 101       47D 0        0.00000   0.00000   0.36819  -0.13682  -0.97590
 102       47D+1        0.07609   0.00000   0.00000   0.00000   0.00000
 103       47D-1        0.00000   0.07609   0.00000   0.00000   0.00000
 104       47D+2        0.00000   0.00000   0.00000   0.00000  -0.00000
 105       47D-2        0.00000   0.00000   0.00000   0.00000   0.00000
 106       48D 0        0.00000   0.00000  -0.01623  -0.02125  -0.03317
 107       48D+1        0.00383   0.00000   0.00000   0.00000   0.00000
 108       48D-1        0.00000   0.00383   0.00000   0.00000   0.00000
 109       48D+2        0.00000   0.00000   0.00000   0.00000  -0.00000
 110       48D-2        0.00000   0.00000   0.00000   0.00000   0.00000
 111       49D 0        0.00000   0.00000   0.08490  -0.13380   0.04012
 112       49D+1       -0.01622   0.00000   0.00000   0.00000   0.00000
 113       49D-1        0.00000  -0.01622   0.00000   0.00000   0.00000
 114       49D+2        0.00000   0.00000  -0.00000  -0.00000   0.00000
 115       49D-2        0.00000   0.00000   0.00000   0.00000   0.00000
 116       50D 0        0.00000   0.00000   0.09915  -0.28961  -0.79326
 117       50D+1        0.00619   0.00000   0.00000   0.00000   0.00000
 118       50D-1        0.00000   0.00619   0.00000   0.00000   0.00000
 119       50D+2        0.00000   0.00000   0.00000   0.00000  -0.00000
 120       50D-2        0.00000   0.00000   0.00000   0.00000   0.00000
 121       51D 0        0.00000   0.00000  -0.04302  -0.00344   0.05977
 122       51D+1       -0.00428   0.00000   0.00000   0.00000   0.00000
 123       51D-1        0.00000  -0.00428   0.00000   0.00000   0.00000
 124       51D+2        0.00000   0.00000  -0.00000  -0.00000   0.00000
 125       51D-2        0.00000   0.00000   0.00000   0.00000   0.00000
 126       52D 0        0.00000   0.00000  -0.41847   0.12798   0.97754
 127       52D+1       -0.07124   0.00000   0.00000   0.00000   0.00000
 128       52D-1        0.00000  -0.07124   0.00000   0.00000   0.00000
 129       52D+2        0.00000   0.00000  -0.00000  -0.00000   0.00000
 130       52D-2        0.00000   0.00000   0.00000   0.00000   0.00000
 131       53D 0        0.00000   0.00000  -0.00048  -0.21145  -1.59564
 132       53D+1        0.05536   0.00000   0.00000   0.00000   0.00000
 133       53D-1        0.00000   0.05536   0.00000   0.00000   0.00000
 134       53D+2        0.00000   0.00000  -0.00000  -0.00000   0.00000
 135       53D-2        0.00000   0.00000   0.00000   0.00000   0.00000
 136       54F 0        0.00000   0.00000   0.00094   0.00015  -0.00004
 137       54F+1        0.00007   0.00000   0.00000   0.00000   0.00000
 138       54F-1        0.00000   0.00007   0.00000   0.00000   0.00000
 139       54F+2        0.00000   0.00000  -0.00000  -0.00000  -0.00000
 140       54F-2        0.00000   0.00000   0.00000   0.00000   0.00000
 141       54F+3       -0.00000   0.00000   0.00000   0.00000   0.00000
 142       54F-3        0.00000  -0.00000   0.00000   0.00000   0.00000
 143       55F 0        0.00000   0.00000  -0.00400  -0.00296  -0.00071
 144       55F+1       -0.00073   0.00000   0.00000   0.00000   0.00000
 145       55F-1        0.00000  -0.00073   0.00000   0.00000   0.00000
 146       55F+2        0.00000   0.00000   0.00000   0.00000  -0.00000
 147       55F-2        0.00000   0.00000   0.00000   0.00000   0.00000
 148       55F+3       -0.00000   0.00000   0.00000   0.00000   0.00000
 149       55F-3        0.00000  -0.00000   0.00000   0.00000   0.00000
 150       56F 0        0.00000   0.00000  -0.03688   0.03242   0.02918
 151       56F+1        0.00611   0.00000   0.00000   0.00000   0.00000
 152       56F-1        0.00000   0.00611   0.00000   0.00000   0.00000
 153       56F+2        0.00000   0.00000  -0.00000  -0.00000  -0.00000
 154       56F-2        0.00000   0.00000   0.00000   0.00000   0.00000
 155       56F+3        0.00000   0.00000   0.00000   0.00000   0.00000
 156       56F-3        0.00000   0.00000   0.00000   0.00000   0.00000
 157       57F 0        0.00000   0.00000  -0.03927   0.07502   0.20217
 158       57F+1        0.00932   0.00000   0.00000   0.00000   0.00000
 159       57F-1        0.00000   0.00932   0.00000   0.00000   0.00000
 160       57F+2        0.00000   0.00000   0.00000  -0.00000   0.00000
 161       57F-2        0.00000   0.00000   0.00000   0.00000   0.00000
 162       57F+3        0.00000   0.00000   0.00000   0.00000   0.00000
 163       57F-3        0.00000   0.00000   0.00000   0.00000   0.00000
 164       58G 0        0.00000   0.00000   0.00023   0.00040   0.00010
 165       58G+1        0.00001   0.00000   0.00000   0.00000   0.00000
 166       58G-1        0.00000   0.00001   0.00000   0.00000   0.00000
 167       58G+2        0.00000   0.00000   0.00000   0.00000  -0.00000
 168       58G-2        0.00000   0.00000   0.00000   0.00000   0.00000
 169       58G+3       -0.00000   0.00000   0.00000   0.00000   0.00000
 170       58G-3        0.00000  -0.00000   0.00000   0.00000   0.00000
 171       58G+4        0.00000   0.00000  -0.00000  -0.00000   0.00000
 172       58G-4        0.00000   0.00000   0.00000   0.00000   0.00000
 173       59G 0        0.00000   0.00000   0.00421  -0.00177  -0.00107
 174       59G+1       -0.00132   0.00000   0.00000   0.00000   0.00000
 175       59G-1        0.00000  -0.00132   0.00000   0.00000   0.00000
 176       59G+2        0.00000   0.00000  -0.00000  -0.00000   0.00000
 177       59G-2        0.00000   0.00000   0.00000   0.00000   0.00000
 178       59G+3        0.00000   0.00000   0.00000   0.00000   0.00000
 179       59G-3        0.00000   0.00000   0.00000   0.00000   0.00000
 180       59G+4        0.00000   0.00000  -0.00000   0.00000  -0.00000
 181       59G-4        0.00000   0.00000   0.00000   0.00000   0.00000
 182       60G 0        0.00000   0.00000   0.00730  -0.01628  -0.03811
 183       60G+1       -0.00379   0.00000   0.00000   0.00000   0.00000
 184       60G-1        0.00000  -0.00379   0.00000   0.00000   0.00000
 185       60G+2        0.00000   0.00000  -0.00000   0.00000   0.00000
 186       60G-2        0.00000   0.00000   0.00000   0.00000   0.00000
 187       60G+3       -0.00000   0.00000   0.00000   0.00000   0.00000
 188       60G-3        0.00000  -0.00000   0.00000   0.00000   0.00000
 189       60G+4        0.00000   0.00000   0.00000  -0.00000   0.00000
 190       60G-4        0.00000   0.00000   0.00000   0.00000   0.00000
 191 2   H  1S          0.00000   0.00000  -0.00004   0.00011   0.00004
 192        2S          0.00000   0.00000  -0.00044   0.00085   0.00080
 193        3S          0.00000   0.00000   0.00042   0.00632   0.00108
 194        4S          0.00000   0.00000  -0.11126   0.02850   0.05470
 195        5S          0.00000   0.00000  -0.89050   0.61724  -0.94629
 196        6S          0.00000   0.00000  -2.48822   5.21941  19.55386
 197        7PX         0.00102   0.00000   0.00000   0.00000   0.00000
 198        7PY         0.00000   0.00102   0.00000   0.00000   0.00000
 199        7PZ         0.00000   0.00000  -0.00444  -0.00101   0.00018
 200        8PX        -0.00251   0.00000   0.00000   0.00000   0.00000
 201        8PY         0.00000  -0.00251   0.00000   0.00000   0.00000
 202        8PZ         0.00000   0.00000  -0.03691  -0.01176  -0.01567
 203        9PX        -0.05968   0.00000   0.00000   0.00000   0.00000
 204        9PY         0.00000  -0.05968   0.00000   0.00000   0.00000
 205        9PZ         0.00000   0.00000  -0.11895  -0.06394  -0.60905
 206       10D 0        0.00000   0.00000  -0.00358  -0.00208  -0.00059
 207       10D+1       -0.00042   0.00000   0.00000   0.00000   0.00000
 208       10D-1        0.00000  -0.00042   0.00000   0.00000   0.00000
 209       10D+2        0.00000   0.00000   0.00000  -0.00000   0.00000
 210       10D-2        0.00000   0.00000   0.00000   0.00000   0.00000
 211       11D 0        0.00000   0.00000   0.00570  -0.01581  -0.02719
 212       11D+1       -0.00358   0.00000   0.00000   0.00000   0.00000
 213       11D-1        0.00000  -0.00358   0.00000   0.00000   0.00000
 214       11D+2        0.00000   0.00000   0.00000   0.00000  -0.00000
 215       11D-2        0.00000   0.00000   0.00000   0.00000   0.00000
     Alpha Density Matrix:
                           1         2         3         4         5
   1 1   Sc 1S          0.00000
   2        2S         -0.00000   0.00000
   3        3S          0.00000  -0.00000   0.00000
   4        4S         -0.00000   0.00000  -0.00000   0.00000
   5        5S          0.00000  -0.00000   0.00000  -0.00000   0.00000
   6        6S         -0.00000   0.00000  -0.00000   0.00000  -0.00000
   7        7S          0.00000  -0.00000   0.00000  -0.00000   0.00000
   8        8S         -0.00000   0.00000  -0.00000   0.00000  -0.00000
   9        9S          0.00000  -0.00000   0.00000  -0.00000   0.00000
  10       10S         -0.00000   0.00000  -0.00000   0.00000  -0.00000
  11       11S          0.00000  -0.00000   0.00000  -0.00000   0.00000
  12       12S         -0.00000   0.00000  -0.00000   0.00000  -0.00000
  13       13S         -0.00000   0.00000  -0.00000   0.00000  -0.00000
  14       14S          0.00000  -0.00000   0.00000  -0.00000   0.00001
  15       15S          0.00000  -0.00000   0.00000  -0.00000   0.00000
  16       16S         -0.00000   0.00000  -0.00000   0.00000  -0.00001
  17       17S         -0.00000   0.00000  -0.00000   0.00000  -0.00001
  18       18S          0.00000  -0.00000   0.00000  -0.00000   0.00000
  19       19S          0.00000  -0.00000   0.00000  -0.00000   0.00000
  20       20S          0.00000  -0.00000   0.00000  -0.00000   0.00000
  21       21S         -0.00000   0.00000  -0.00000   0.00000  -0.00000
  22       22S          0.00000  -0.00000   0.00000  -0.00000   0.00000
  23       23S         -0.00000   0.00000  -0.00000   0.00000  -0.00000
  24       24PX         0.00000   0.00000   0.00000   0.00000   0.00000
  25       24PY         0.00000   0.00000   0.00000   0.00000   0.00000
  26       24PZ        -0.00000   0.00000  -0.00000   0.00000  -0.00000
  27       25PX         0.00000   0.00000   0.00000   0.00000   0.00000
  28       25PY         0.00000   0.00000   0.00000   0.00000   0.00000
  29       25PZ         0.00000  -0.00000   0.00000  -0.00000   0.00000
  30       26PX         0.00000   0.00000   0.00000   0.00000   0.00000
  31       26PY         0.00000   0.00000   0.00000   0.00000   0.00000
  32       26PZ        -0.00000   0.00000  -0.00000   0.00000  -0.00000
  33       27PX         0.00000   0.00000   0.00000   0.00000   0.00000
  34       27PY         0.00000   0.00000   0.00000   0.00000   0.00000
  35       27PZ         0.00000  -0.00000   0.00000  -0.00000   0.00000
  36       28PX         0.00000   0.00000   0.00000   0.00000   0.00000
  37       28PY         0.00000   0.00000   0.00000   0.00000   0.00000
  38       28PZ        -0.00000   0.00000  -0.00000   0.00000  -0.00000
  39       29PX         0.00000   0.00000   0.00000   0.00000   0.00000
  40       29PY         0.00000   0.00000   0.00000   0.00000   0.00000
  41       29PZ         0.00000  -0.00000   0.00000  -0.00000   0.00000
  42       30PX         0.00000   0.00000   0.00000   0.00000   0.00000
  43       30PY         0.00000   0.00000   0.00000   0.00000   0.00000
  44       30PZ        -0.00000   0.00000  -0.00000   0.00000  -0.00000
  45       31PX         0.00000   0.00000   0.00000   0.00000   0.00000
  46       31PY         0.00000   0.00000   0.00000   0.00000   0.00000
  47       31PZ         0.00000  -0.00000   0.00000  -0.00000   0.00000
  48       32PX         0.00000   0.00000   0.00000   0.00000   0.00000
  49       32PY         0.00000   0.00000   0.00000   0.00000   0.00000
  50       32PZ        -0.00000   0.00000  -0.00000   0.00000  -0.00000
  51       33PX         0.00000   0.00000   0.00000   0.00000   0.00000
  52       33PY         0.00000   0.00000   0.00000   0.00000   0.00000
  53       33PZ         0.00000  -0.00000   0.00000  -0.00000   0.00000
  54       34PX         0.00000   0.00000   0.00000   0.00000   0.00000
  55       34PY         0.00000   0.00000   0.00000   0.00000   0.00000
  56       34PZ         0.00000  -0.00000   0.00000  -0.00000   0.00000
  57       35PX         0.00000   0.00000   0.00000   0.00000   0.00000
  58       35PY         0.00000   0.00000   0.00000   0.00000   0.00000
  59       35PZ         0.00000  -0.00000   0.00000  -0.00000   0.00000
  60       36PX         0.00000   0.00000   0.00000   0.00000   0.00000
  61       36PY         0.00000   0.00000   0.00000   0.00000   0.00000
  62       36PZ         0.00000  -0.00000   0.00000  -0.00000   0.00000
  63       37PX         0.00000   0.00000   0.00000   0.00000   0.00000
  64       37PY         0.00000   0.00000   0.00000   0.00000   0.00000
  65       37PZ         0.00000  -0.00000   0.00000  -0.00000   0.00000
  66       38PX         0.00000   0.00000   0.00000   0.00000   0.00000
  67       38PY         0.00000   0.00000   0.00000   0.00000   0.00000
  68       38PZ         0.00000  -0.00000   0.00000  -0.00000   0.00000
  69       39PX         0.00000   0.00000   0.00000   0.00000   0.00000
  70       39PY         0.00000   0.00000   0.00000   0.00000   0.00000
  71       39PZ         0.00000  -0.00000   0.00000  -0.00000   0.00000
  72       40PX         0.00000   0.00000   0.00000   0.00000   0.00000
  73       40PY         0.00000   0.00000   0.00000   0.00000   0.00000
  74       40PZ        -0.00000   0.00000  -0.00000   0.00000  -0.00000
  75       41PX         0.00000   0.00000   0.00000   0.00000   0.00000
  76       41PY         0.00000   0.00000   0.00000   0.00000   0.00000
  77       41PZ        -0.00000   0.00000  -0.00000   0.00000  -0.00000
  78       42PX         0.00000   0.00000   0.00000   0.00000   0.00000
  79       42PY         0.00000   0.00000   0.00000   0.00000   0.00000
  80       42PZ         0.00000  -0.00000   0.00000  -0.00000   0.00000
  81       43D 0        0.00000  -0.00000   0.00000  -0.00000   0.00000
  82       43D+1        0.00000   0.00000   0.00000   0.00000   0.00000
[...]
 212       11D+1        0.00000   0.00000
 213       11D-1        0.00000   0.00000   0.00000
 214       11D+2        0.00000   0.00000   0.00000  -0.00000
 215       11D-2        0.00000   0.00000   0.00000   0.00000  -0.00000
     Gross orbital populations:
                         Total     Alpha     Beta      Spin
   1 1   Sc 1S         -0.00000  -0.00000  -0.00000   0.00000
   2        2S          0.00000   0.00000   0.00000   0.00000
   3        3S         -0.00000  -0.00000  -0.00000   0.00000
   4        4S          0.00000   0.00000   0.00000   0.00000
   5        5S         -0.00000  -0.00000  -0.00000   0.00000
   6        6S          0.00000   0.00000   0.00000   0.00000
   7        7S         -0.00000  -0.00000  -0.00000   0.00000
   8        8S          0.00000   0.00000   0.00000   0.00000
   9        9S         -0.00001  -0.00000  -0.00000   0.00000
  10       10S          0.00004   0.00002   0.00002   0.00000
  11       11S         -0.00033  -0.00016  -0.00016   0.00000
  12       12S          0.00352   0.00176   0.00176   0.00000
  13       13S          0.00569   0.00285   0.00285   0.00000
  14       14S         -0.34535  -0.17267  -0.17267   0.00000
  15       15S         -0.12305  -0.06152  -0.06152   0.00000
  16       16S          1.51995   0.75997   0.75997   0.00000
  17       17S          0.75064   0.37532   0.37532   0.00000
  18       18S          0.38845   0.19423   0.19423   0.00000
  19       19S          0.89048   0.44524   0.44524   0.00000
  20       20S          0.28113   0.14057   0.14057   0.00000
  21       21S          0.21201   0.10601   0.10601   0.00000
  22       22S         -0.08212  -0.04106  -0.04106   0.00000
  23       23S         -0.00316  -0.00158  -0.00158   0.00000
  24       24PX         0.00000   0.00000   0.00000   0.00000
  25       24PY         0.00000   0.00000   0.00000   0.00000
  26       24PZ         0.00000   0.00000   0.00000   0.00000
  27       25PX        -0.00000  -0.00000  -0.00000   0.00000
  28       25PY        -0.00000  -0.00000  -0.00000   0.00000
  29       25PZ        -0.00000  -0.00000  -0.00000   0.00000
  30       26PX         0.00000   0.00000   0.00000   0.00000
  31       26PY         0.00000   0.00000   0.00000   0.00000
  32       26PZ         0.00000   0.00000   0.00000   0.00000
  33       27PX        -0.00000  -0.00000  -0.00000   0.00000
  34       27PY        -0.00000  -0.00000  -0.00000   0.00000
  35       27PZ        -0.00000  -0.00000  -0.00000   0.00000
  36       28PX         0.00000   0.00000   0.00000   0.00000
  37       28PY         0.00000   0.00000   0.00000   0.00000
  38       28PZ         0.00000   0.00000   0.00000   0.00000
  39       29PX        -0.00003  -0.00001  -0.00001   0.00000
  40       29PY        -0.00003  -0.00001  -0.00001   0.00000
  41       29PZ        -0.00003  -0.00001  -0.00001   0.00000
  42       30PX         0.00031   0.00016   0.00016   0.00000
  43       30PY         0.00031   0.00016   0.00016   0.00000
  44       30PZ         0.00032   0.00016   0.00016   0.00000
  45       31PX        -0.00030  -0.00015  -0.00015   0.00000
  46       31PY        -0.00030  -0.00015  -0.00015   0.00000
  47       31PZ        -0.00036  -0.00018  -0.00018   0.00000
  48       32PX        -0.05125  -0.02562  -0.02562   0.00000
  49       32PY        -0.05125  -0.02562  -0.02562   0.00000
  50       32PZ        -0.05182  -0.02591  -0.02591   0.00000
  51       33PX         0.14177   0.07089   0.07089   0.00000
  52       33PY         0.14177   0.07089   0.07089   0.00000
  53       33PZ         0.13000   0.06500   0.06500   0.00000
  54       34PX         0.54361   0.27180   0.27180   0.00000
  55       34PY         0.54361   0.27180   0.27180   0.00000
  56       34PZ         0.54689   0.27344   0.27344   0.00000
  57       35PX         0.94400   0.47200   0.47200   0.00000
  58       35PY         0.94400   0.47200   0.47200   0.00000
  59       35PZ         0.85649   0.42824   0.42824   0.00000
  60       36PX         0.51770   0.25885   0.25885   0.00000
  61       36PY         0.51770   0.25885   0.25885   0.00000
  62       36PZ         0.44923   0.22462   0.22462   0.00000
  63       37PX         0.04614   0.02307   0.02307   0.00000
  64       37PY         0.04614   0.02307   0.02307   0.00000
  65       37PZ         0.00153   0.00076   0.00076   0.00000
  66       38PX        -0.00204  -0.00102  -0.00102   0.00000
  67       38PY        -0.00204  -0.00102  -0.00102   0.00000
  68       38PZ         0.00695   0.00347   0.00347   0.00000
  69       39PX         0.00051   0.00025   0.00025   0.00000
  70       39PY         0.00051   0.00025   0.00025   0.00000
  71       39PZ         0.00669   0.00334   0.00334   0.00000
  72       40PX        -0.12488  -0.06244  -0.06244   0.00000
  73       40PY        -0.12488  -0.06244  -0.06244   0.00000
  74       40PZ        -0.11081  -0.05541  -0.05541   0.00000
  75       41PX        -0.01697  -0.00849  -0.00849   0.00000
  76       41PY        -0.01697  -0.00849  -0.00849   0.00000
  77       41PZ         0.08070   0.04035   0.04035   0.00000
  78       42PX        -0.00005  -0.00003  -0.00003   0.00000
  79       42PY        -0.00005  -0.00003  -0.00003   0.00000
  80       42PZ        -0.00038  -0.00019  -0.00019   0.00000
  81       43D 0        0.00001   0.00000   0.00000   0.00000
  82       43D+1        0.00000   0.00000   0.00000   0.00000
  83       43D-1        0.00000   0.00000   0.00000   0.00000
  84       43D+2       -0.00000  -0.00000  -0.00000   0.00000
  85       43D-2        0.00000   0.00000   0.00000   0.00000
  86       44D 0        0.00443   0.00222   0.00222   0.00000
  87       44D+1        0.00000   0.00000   0.00000   0.00000
  88       44D-1        0.00000   0.00000   0.00000   0.00000
  89       44D+2       -0.00000  -0.00000  -0.00000   0.00000
  90       44D-2        0.00000   0.00000   0.00000   0.00000
  91       45D 0        0.04742   0.02371   0.02371   0.00000
  92       45D+1        0.00005   0.00002   0.00002   0.00000
  93       45D-1        0.00005   0.00002   0.00002   0.00000
  94       45D+2       -0.00000  -0.00000  -0.00000   0.00000
  95       45D-2        0.00000   0.00000   0.00000   0.00000
  96       46D 0        0.08767   0.04383   0.04383   0.00000
  97       46D+1        0.00019   0.00010   0.00010   0.00000
  98       46D-1        0.00019   0.00010   0.00010   0.00000
  99       46D+2        0.00000   0.00000   0.00000   0.00000
 100       46D-2       -0.00000  -0.00000  -0.00000   0.00000
 101       47D 0       -0.57019  -0.28509  -0.28509   0.00000
 102       47D+1        0.00161   0.00080   0.00080   0.00000
 103       47D-1        0.00161   0.00080   0.00080   0.00000
 104       47D+2        0.00000   0.00000   0.00000   0.00000
 105       47D-2        0.00000   0.00000   0.00000   0.00000
 106       48D 0        0.35954   0.17977   0.17977   0.00000
 107       48D+1        0.00001   0.00000   0.00000   0.00000
 108       48D-1        0.00001   0.00000   0.00000   0.00000
 109       48D+2        0.00000   0.00000   0.00000   0.00000
 110       48D-2        0.00000   0.00000   0.00000   0.00000
 111       49D 0        0.11642   0.05821   0.05821   0.00000
 112       49D+1       -0.00001  -0.00000  -0.00000   0.00000
 113       49D-1       -0.00001  -0.00000  -0.00000   0.00000
 114       49D+2        0.00000   0.00000   0.00000   0.00000
 115       49D-2       -0.00000  -0.00000  -0.00000   0.00000
 116       50D 0        0.00683   0.00342   0.00342   0.00000
 117       50D+1        0.00000   0.00000   0.00000   0.00000
 118       50D-1        0.00000   0.00000   0.00000   0.00000
 119       50D+2        0.00000   0.00000   0.00000   0.00000
 120       50D-2        0.00000   0.00000   0.00000   0.00000
 121       51D 0        0.09610   0.04805   0.04805   0.00000
 122       51D+1       -0.00002  -0.00001  -0.00001   0.00000
 123       51D-1       -0.00002  -0.00001  -0.00001   0.00000
 124       51D+2       -0.00000  -0.00000  -0.00000   0.00000
 125       51D-2        0.00000   0.00000   0.00000   0.00000
 126       52D 0        0.93631   0.46815   0.46815   0.00000
 127       52D+1       -0.00142  -0.00071  -0.00071   0.00000
 128       52D-1       -0.00142  -0.00071  -0.00071   0.00000
 129       52D+2        0.00000   0.00000   0.00000   0.00000
 130       52D-2        0.00000   0.00000   0.00000   0.00000
 131       53D 0        0.00004   0.00002   0.00002   0.00000
 132       53D+1        0.00000   0.00000   0.00000   0.00000
 133       53D-1        0.00000   0.00000   0.00000   0.00000
 134       53D+2        0.00000   0.00000   0.00000   0.00000
 135       53D-2        0.00000   0.00000   0.00000   0.00000
 136       54F 0        0.00065   0.00032   0.00032   0.00000
 137       54F+1        0.00003   0.00001   0.00001   0.00000
 138       54F-1        0.00003   0.00001   0.00001   0.00000
 139       54F+2       -0.00000  -0.00000  -0.00000   0.00000
 140       54F-2        0.00000   0.00000   0.00000   0.00000
 141       54F+3       -0.00000  -0.00000  -0.00000   0.00000
 142       54F-3        0.00000   0.00000   0.00000   0.00000
 143       55F 0        0.00676   0.00338   0.00338   0.00000
 144       55F+1        0.00005   0.00002   0.00002   0.00000
 145       55F-1        0.00005   0.00002   0.00002   0.00000
 146       55F+2       -0.00000  -0.00000  -0.00000   0.00000
 147       55F-2        0.00000   0.00000   0.00000   0.00000
 148       55F+3        0.00000   0.00000   0.00000   0.00000
 149       55F-3       -0.00000  -0.00000  -0.00000   0.00000
 150       56F 0        0.00275   0.00137   0.00137   0.00000
 151       56F+1        0.00001   0.00001   0.00001   0.00000
 152       56F-1        0.00001   0.00001   0.00001   0.00000
 153       56F+2        0.00000   0.00000   0.00000   0.00000
 154       56F-2        0.00000   0.00000   0.00000   0.00000
 155       56F+3       -0.00000  -0.00000  -0.00000   0.00000
 156       56F-3        0.00000   0.00000   0.00000   0.00000
 157       57F 0        0.00014   0.00007   0.00007   0.00000
 158       57F+1        0.00000   0.00000   0.00000   0.00000
 159       57F-1        0.00000   0.00000   0.00000   0.00000
 160       57F+2       -0.00000  -0.00000  -0.00000   0.00000
 161       57F-2       -0.00000  -0.00000  -0.00000   0.00000
 162       57F+3        0.00000   0.00000   0.00000   0.00000
 163       57F-3        0.00000   0.00000   0.00000   0.00000
 164       58G 0        0.00007   0.00004   0.00004   0.00000
 165       58G+1        0.00000   0.00000   0.00000   0.00000
 166       58G-1        0.00000   0.00000   0.00000   0.00000
 167       58G+2        0.00000   0.00000   0.00000   0.00000
 168       58G-2       -0.00000  -0.00000  -0.00000   0.00000
 169       58G+3        0.00000   0.00000   0.00000   0.00000
 170       58G-3        0.00000   0.00000   0.00000   0.00000
 171       58G+4        0.00000   0.00000   0.00000   0.00000
 172       58G-4        0.00000   0.00000   0.00000   0.00000
 173       59G 0        0.00077   0.00038   0.00038   0.00000
 174       59G+1       -0.00000  -0.00000  -0.00000   0.00000
 175       59G-1       -0.00000  -0.00000  -0.00000   0.00000
 176       59G+2       -0.00000  -0.00000  -0.00000   0.00000
 177       59G-2       -0.00000  -0.00000  -0.00000   0.00000
 178       59G+3        0.00000   0.00000   0.00000   0.00000
 179       59G-3       -0.00000  -0.00000  -0.00000   0.00000
 180       59G+4        0.00000   0.00000   0.00000   0.00000
 181       59G-4        0.00000   0.00000   0.00000   0.00000
 182       60G 0        0.00008   0.00004   0.00004   0.00000
 183       60G+1       -0.00000  -0.00000  -0.00000   0.00000
 184       60G-1       -0.00000  -0.00000  -0.00000   0.00000
 185       60G+2        0.00000   0.00000   0.00000   0.00000
 186       60G-2        0.00000   0.00000   0.00000   0.00000
 187       60G+3       -0.00000  -0.00000  -0.00000   0.00000
 188       60G-3       -0.00000  -0.00000  -0.00000   0.00000
 189       60G+4       -0.00000  -0.00000  -0.00000   0.00000
 190       60G-4       -0.00000  -0.00000  -0.00000   0.00000
 191 2   H  1S          0.00111   0.00056   0.00056   0.00000
 192        2S          0.03719   0.01860   0.01860   0.00000
 193        3S          0.27678   0.13839   0.13839   0.00000
 194        4S          0.67391   0.33696   0.33696   0.00000
 195        5S          0.37214   0.18607   0.18607   0.00000
 196        6S          0.13869   0.06934   0.06934   0.00000
 197        7PX         0.00040   0.00020   0.00020   0.00000
 198        7PY         0.00040   0.00020   0.00020   0.00000
 199        7PZ         0.00929   0.00464   0.00464   0.00000
 200        8PX         0.00047   0.00023   0.00023   0.00000
 201        8PY         0.00047   0.00023   0.00023   0.00000
 202        8PZ         0.00153   0.00077   0.00077   0.00000
 203        9PX         0.00033   0.00016   0.00016   0.00000
 204        9PY         0.00033   0.00016   0.00016   0.00000
 205        9PZ        -0.02194  -0.01097  -0.01097   0.00000
 206       10D 0        0.00294   0.00147   0.00147   0.00000
 207       10D+1        0.00044   0.00022   0.00022   0.00000
 208       10D-1        0.00044   0.00022   0.00022   0.00000
 209       10D+2        0.00000   0.00000   0.00000   0.00000
 210       10D-2        0.00000   0.00000   0.00000   0.00000
 211       11D 0       -0.00074  -0.00037  -0.00037   0.00000
 212       11D+1       -0.00065  -0.00033  -0.00033   0.00000
 213       11D-1       -0.00065  -0.00033  -0.00033   0.00000
 214       11D+2       -0.00000  -0.00000  -0.00000   0.00000
 215       11D-2        0.00000   0.00000   0.00000   0.00000
          Condensed to atoms (all electrons):
               1          2
     1  Sc  10.601534  -0.094383
     2  H   -0.094383   1.587232
          Atomic-Atomic Spin Densities.
               1          2
     1  Sc   0.000000   0.000000
     2  H    0.000000   0.000000
 Mulliken charges and spin densities:
               1          2
     1  Sc   0.492849   0.000000
     2  H   -0.492849   0.000000
 Sum of Mulliken charges =  -0.00000   0.00000
 Mulliken charges and spin densities with hydrogens summed into heavy atoms:
               1          2
     1  Sc  -0.000000   0.000000
 Electronic spatial extent (au):  <R**2>=             56.7660
 Charge=             -0.0000 electrons
 Dipole moment (field-independent basis, Debye):
    X=              0.0000    Y=              0.0000    Z=              0.7747  Tot=              0.7747
 Quadrupole moment (field-independent basis, Debye-Ang):
   XX=            -23.6663   YY=            -23.6663   ZZ=            -22.5603
   XY=              0.0000   XZ=              0.0000   YZ=              0.0000
 Traceless Quadrupole moment (field-independent basis, Debye-Ang):
   XX=             -0.3687   YY=             -0.3687   ZZ=              0.7373
   XY=              0.0000   XZ=              0.0000   YZ=              0.0000
 Octapole moment (field-independent basis, Debye-Ang**2):
  XXX=              0.0000  YYY=              0.0000  ZZZ=              0.2596  XYY=              0.0000
  XXY=              0.0000  XXZ=             -1.9215  XZZ=              0.0000  YZZ=              0.0000
  YYZ=             -1.9215  XYZ=              0.0000
 Hexadecapole moment (field-independent basis, Debye-Ang**3):
 XXXX=            -84.9968 YYYY=            -84.9968 ZZZZ=            -76.0381 XXXY=              0.0000
 XXXZ=              0.0000 YYYX=              0.0000 YYYZ=              0.0000 ZZZX=              0.0000
 ZZZY=              0.0000 XXYY=            -28.3323 XXZZ=            -25.7386 YYZZ=            -25.7386
 XXYZ=              0.0000 YYXZ=              0.0000 ZZXY=              0.0000
 N-N= 4.850791100100D+00 E-N=-1.061602053691D+02  KE= 1.959822856460D+01
 Symmetry A1   KE= 1.115819083903D+01
 Symmetry A2   KE= 8.134081650214D-49
 Symmetry B1   KE= 4.220018862728D+00
 Symmetry B2   KE= 4.220018862919D+00
 Symmetry A1   SP= 0.000000000000D+00
 Symmetry A2   SP= 0.000000000000D+00
 Symmetry B1   SP= 0.000000000000D+00
 Symmetry B2   SP= 0.000000000000D+00
 Orbital energies and kinetic energies (alpha):
                                 1                 2
   2         O                -1.636170          2.006358
   3         O                -1.590152          2.110009
   4         O                -1.590152          2.110009
   5         O                -0.469256          1.712938
   6         O                -0.214508          0.572757
   7         V                 0.013793          0.055305
   8         V                 0.013793          0.055305
   9         V                 0.014597          0.103312
  10         V                 0.022375          0.037188
  11         V                 0.034703          0.038973
 Total kinetic energy from orbitals= 1.959822856460D+01
                          Isotropic Fermi Contact Couplings
        Atom                 a.u.       MegaHertz       Gauss      10(-4) cm-1
     1  Sc(45)             0.00000       0.00000       0.00000       0.00000
     2  H(1)               0.00000       0.00000       0.00000       0.00000
 --------------------------------------------------------
       Center         ----  Spin Dipole Couplings  ----
                      3XX-RR        3YY-RR        3ZZ-RR
 --------------------------------------------------------
     1   Atom        0.000000      0.000000      0.000000
     2   Atom        0.000000      0.000000      0.000000
 --------------------------------------------------------
                        XY            XZ            YZ
 --------------------------------------------------------
     1   Atom        0.000000      0.000000      0.000000
     2   Atom        0.000000      0.000000      0.000000
 --------------------------------------------------------


 ---------------------------------------------------------------------------------
              Anisotropic Spin Dipole Couplings in Principal Axis System
 ---------------------------------------------------------------------------------

       Atom             a.u.   MegaHertz   Gauss  10(-4) cm-1        Axes

              Baa     0.0000     0.000     0.000     0.000  1.0000  0.0000  0.0000
     1 Sc(45) Bbb     0.0000     0.000     0.000     0.000 -0.0000  1.0000  0.0000
              Bcc     0.0000     0.000     0.000     0.000  0.0000  0.0000  1.0000
 
              Baa     0.0000     0.000     0.000     0.000  1.0000  0.0000  0.0000
     2 H(1)   Bbb     0.0000     0.000     0.000     0.000 -0.0000  1.0000  0.0000
              Bcc     0.0000     0.000     0.000     0.000  0.0000  0.0000  1.0000
 

 ---------------------------------------------------------------------------------

 No NMR shielding tensors so no spin-rotation constants.
 Leave Link  601 at Mon Feb 12 18:21:41 2018, MaxMem=  8589934592 cpu:              66.5 elap:               2.2
 (Enter /home1/apps/gaussian/16rA.03/g16/l9999.exe)
 1\1\GINC-C417-071\SP\ROCCSD(T)-Full\Gen\H1Sc1\AANNABE\12-Feb-2018\0\\#
 P ROCCSD(T)=(maxcyc=150, Full)/Gen 5d 7f SCF=(maxcycles=300) Integral(
 NoXCTest) MaxDisk=500GB Pop=Regular Pseudo=Read\\ScH\\0,1\Sc,0,0.,0.,0
 .\H,0,0.,0.,1.2\\Version=ES64L-G16RevA.03\State=1-SG\HF=-46.5447555\MP
 2=-46.9623944\MP3=-46.9852052\PUHF=-46.5447555\PMP2-0=-46.9623944\MP4S
 DQ=-46.9849676\CCSD=-46.9844547\CCSD(T)=-47.0019777\RMSD=8.676e-09\PG=
 C*V [C*(H1Sc1)]\\@


 THE TRULY SUCCESSFUL PERFORMANCE OF RESEARCHES IN
 INORGANIC CHEMISTRY IS POSSIBLE ONLY TO ONE WHO IS NOT
 ONLY A THEORETICAL CHEMIST, BUT ALSO AN ACCOMPLISHED
 ANALYST AND, MOREOVER, NOT MERELY A PRACTICALLY TRAINED,
 MECHANICAL WORKER, BUT A THINKING CREATIVE ARTIST.
   --  CLEMENS WINKLER, BER. 33, 1697(1900)
 Job cpu time:       0 days  3 hours 15 minutes 10.2 seconds.
 Elapsed time:       0 days  0 hours  6 minutes  7.5 seconds.
 File lengths (MBytes):  RWF=   1913 Int=      0 D2E=      0 Chk=      6 Scr=      1
 Normal termination of Gaussian 16 at Mon Feb 12 18:21:42 2018.
