 Entering Gaussian System, Link 0=g16
 Initial command:
 /home1/apps/gaussian/16rA.03/g16/l1.exe "/tmp/Gau-118206.inp" -scrdir="/tmp/"
 Entering Link 1 = /home1/apps/gaussian/16rA.03/g16/l1.exe PID=    118207.
  
 Copyright (c) 1988,1990,1992,1993,1995,1998,2003,2009,2016,
            Gaussian, Inc.  All Rights Reserved.
  
 This is part of the Gaussian(R) 16 program.  It is based on
 the Gaussian(R) 09 system (copyright 2009, Gaussian, Inc.),
 the Gaussian(R) 03 system (copyright 2003, Gaussian, Inc.),
 the Gaussian(R) 98 system (copyright 1998, Gaussian, Inc.),
 the Gaussian(R) 94 system (copyright 1995, Gaussian, Inc.),
 the Gaussian 92(TM) system (copyright 1992, Gaussian, Inc.),
 the Gaussian 90(TM) system (copyright 1990, Gaussian, Inc.),
 the Gaussian 88(TM) system (copyright 1988, Gaussian, Inc.),
 the Gaussian 86(TM) system (copyright 1986, Carnegie Mellon
 University), and the Gaussian 82(TM) system (copyright 1983,
 Carnegie Mellon University). Gaussian is a federally registered
 trademark of Gaussian, Inc.
  
 This software contains proprietary and confidential information,
 including trade secrets, belonging to Gaussian, Inc.
  
 This software is provided under written license and may be
 used, copied, transmitted, or stored only in accord with that
 written license.
  
 The following legend is applicable only to US Government
 contracts under FAR:
  
                    RESTRICTED RIGHTS LEGEND
  
 Use, reproduction and disclosure by the US Government is
 subject to restrictions as set forth in subparagraphs (a)
 and (c) of the Commercial Computer Software - Restricted
 Rights clause in FAR 52.227-19.
  
 Gaussian, Inc.
 340 Quinnipiac St., Bldg. 40, Wallingford CT 06492
  
  
 ---------------------------------------------------------------
 Warning -- This program may not be used in any manner that
 competes with the business of Gaussian, Inc. or will provide
 assistance to any competitor of Gaussian, Inc.  The licensee
 of this program is prohibited from giving any competitor of
 Gaussian, Inc. access to this program.  By using this program,
 the user acknowledges that Gaussian, Inc. is engaged in the
 business of creating and licensing software in the field of
 computational chemistry and represents and warrants to the
 licensee that it is not a competitor of Gaussian, Inc. and that
 it will not use this program in any manner prohibited above.
 ---------------------------------------------------------------
  

 Cite this work as:
 Gaussian 16, Revision A.03,
 M. J. Frisch, G. W. Trucks, H. B. Schlegel, G. E. Scuseria, 
 M. A. Robb, J. R. Cheeseman, G. Scalmani, V. Barone, 
 G. A. Petersson, H. Nakatsuji, X. Li, M. Caricato, A. V. Marenich, 
 J. Bloino, B. G. Janesko, R. Gomperts, B. Mennucci, H. P. Hratchian, 
 J. V. Ortiz, A. F. Izmaylov, J. L. Sonnenberg, D. Williams-Young, 
 F. Ding, F. Lipparini, F. Egidi, J. Goings, B. Peng, A. Petrone, 
 T. Henderson, D. Ranasinghe, V. G. Zakrzewski, J. Gao, N. Rega, 
 G. Zheng, W. Liang, M. Hada, M. Ehara, K. Toyota, R. Fukuda, 
 J. Hasegawa, M. Ishida, T. Nakajima, Y. Honda, O. Kitao, H. Nakai, 
 T. Vreven, K. Throssell, J. A. Montgomery, Jr., J. E. Peralta, 
 F. Ogliaro, M. J. Bearpark, J. J. Heyd, E. N. Brothers, K. N. Kudin, 
 V. N. Staroverov, T. A. Keith, R. Kobayashi, J. Normand, 
 K. Raghavachari, A. P. Rendell, J. C. Burant, S. S. Iyengar, 
 J. Tomasi, M. Cossi, J. M. Millam, M. Klene, C. Adamo, R. Cammi, 
 J. W. Ochterski, R. L. Martin, K. Morokuma, O. Farkas, 
 J. B. Foresman, and D. J. Fox, Gaussian, Inc., Wallingford CT, 2016.
 
 ******************************************
 Gaussian 16:  ES64L-G16RevA.03 25-Dec-2016
                 4-Apr-2018 
 ******************************************
 %mem=80GB
 %cpu=0-31
 SetSPE:  set environment variable "MP_BIND" = "yes"
 SetSPE:  set environment variable "MP_BLIST" = "0,1,2,3,4,5,6,7,8,9,10,11,12,13,14,15,16,17,18,19,20,21,22,23,24,25,26,27,28,29,30,31"
 Will use up to   32 processors via shared memory.
 %chk=qz.chk
 %rwf=/scratch/04843/gwang18/cuh/
 ----------------------------------------------------------------------
 #P ROCCSD(T)=(MaxCyc=150, Full)/Gen SCF=(maxcycle=400, vshift=200) Int
 egral(DKHSO, NoXCTest) Pop=Regular MaxDisk=500GB Guess=Read IOp(5/15=2
 )
 ----------------------------------------------------------------------
 1/38=1,172=1/1;
 2/12=2,17=6,18=5,40=1/2;
 3/5=7,11=2,25=1,30=1,47=8,91=5,116=101/1,2,3;
 4/5=1/1;
 5/5=2,7=400,10=200,15=2,38=6/2;
 8/5=-1,6=4,9=120000,10=90/1,4;
 9/5=7,6=150,14=2/13;
 6//1;
 99/5=1,9=1/99;
 Leave Link    1 at Wed Apr  4 19:22:26 2018, MaxMem= 10737418240 cpu:               7.0 elap:               0.2
 (Enter /home1/apps/gaussian/16rA.03/g16/l101.exe)
 ---
 CuH
 ---
 Symbolic Z-matrix:
 Charge =  0 Multiplicity = 1
 Cu                    0.        0.        0. 
 H                     0.        0.        1.6 
 
 ITRead=  0  0
 MicOpt= -1 -1
 NAtoms=      2 NQM=        2 NQMF=       0 NMMI=      0 NMMIF=      0
                NMic=       0 NMicF=      0.
                    Isotopes and Nuclear Properties:
 (Nuclear quadrupole moments (NQMom) in fm**2, nuclear magnetic moments (NMagM)
  in nuclear magnetons)

  Atom         1           2
 IAtWgt=          63           1
 AtmWgt=  62.9295992   1.0078250
 NucSpn=           3           1
 AtZEff=  -0.0000000  -0.0000000
 NQMom=  -22.0000000   0.0000000
 NMagM=    2.2233000   2.7928460
 AtZNuc=  29.0000000   1.0000000
 Leave Link  101 at Wed Apr  4 19:22:26 2018, MaxMem= 10737418240 cpu:               3.0 elap:               0.1
 (Enter /home1/apps/gaussian/16rA.03/g16/l202.exe)
                          Input orientation:                          
 ---------------------------------------------------------------------
 Center     Atomic      Atomic             Coordinates (Angstroms)
 Number     Number       Type             X           Y           Z
 ---------------------------------------------------------------------
      1         29           0        0.000000    0.000000    0.000000
      2          1           0        0.000000    0.000000    1.600000
 ---------------------------------------------------------------------
 Stoichiometry    CuH
 Framework group  C*V[C*(HCu)]
 Deg. of freedom     1
 Full point group                 C*V     NOp   4
 Largest Abelian subgroup         C2V     NOp   4
 Largest concise Abelian subgroup C1      NOp   1
                         Standard orientation:                         
 ---------------------------------------------------------------------
 Center     Atomic      Atomic             Coordinates (Angstroms)
 Number     Number       Type             X           Y           Z
 ---------------------------------------------------------------------
      1         29           0        0.000000    0.000000    0.053333
      2          1           0        0.000000    0.000000   -1.546667
 ---------------------------------------------------------------------
 Rotational constants (GHZ):           0.0000000         199.0179562         199.0179562
 Leave Link  202 at Wed Apr  4 19:22:26 2018, MaxMem= 10737418240 cpu:               0.8 elap:               0.1
 (Enter /home1/apps/gaussian/16rA.03/g16/l301.exe)
 General basis read from cards:  (5D, 7F)
 Centers:       1
 S 1 1.00
     Exponent=  1.6665490000D+07 Coefficients=  1.0000000000D+00
 S 1 1.00
     Exponent=  2.4952130000D+06 Coefficients=  1.0000000000D+00
 S 1 1.00
     Exponent=  5.6785070000D+05 Coefficients=  1.0000000000D+00
 S 1 1.00
     Exponent=  1.6085310000D+05 Coefficients=  1.0000000000D+00
 S 1 1.00
     Exponent=  5.2481860000D+04 Coefficients=  1.0000000000D+00
 S 1 1.00
     Exponent=  1.8948850000D+04 Coefficients=  1.0000000000D+00
 S 1 1.00
     Exponent=  7.3916550000D+03 Coefficients=  1.0000000000D+00
 S 1 1.00
     Exponent=  3.0665170000D+03 Coefficients=  1.0000000000D+00
 S 1 1.00
     Exponent=  1.3379940000D+03 Coefficients=  1.0000000000D+00
 S 1 1.00
     Exponent=  6.0878300000D+02 Coefficients=  1.0000000000D+00
 S 1 1.00
     Exponent=  2.8689800000D+02 Coefficients=  1.0000000000D+00
 S 1 1.00
     Exponent=  1.3915300000D+02 Coefficients=  1.0000000000D+00
 S 1 1.00
     Exponent=  6.8494550000D+01 Coefficients=  1.0000000000D+00
 S 1 1.00
     Exponent=  3.1601080000D+01 Coefficients=  1.0000000000D+00
 S 1 1.00
     Exponent=  1.5991580000D+01 Coefficients=  1.0000000000D+00
 S 1 1.00
     Exponent=  8.0565100000D+00 Coefficients=  1.0000000000D+00
 S 1 1.00
     Exponent=  3.6903290000D+00 Coefficients=  1.0000000000D+00
 S 1 1.00
     Exponent=  1.7629020000D+00 Coefficients=  1.0000000000D+00
 S 1 1.00
     Exponent=  8.0126900000D-01 Coefficients=  1.0000000000D+00
 S 1 1.00
     Exponent=  1.8424300000D-01 Coefficients=  1.0000000000D+00
 S 1 1.00
     Exponent=  8.1793000000D-02 Coefficients=  1.0000000000D+00
 S 1 1.00
     Exponent=  3.5303000000D-02 Coefficients=  1.0000000000D+00
 S 1 1.00
     Exponent=  7.2310000000D+00 Coefficients=  1.0000000000D+00
 S 1 1.00
     Exponent=  1.9080000000D+00 Coefficients=  1.0000000000D+00
 S 1 1.00
     Exponent=  1.5240000000D-02 Coefficients=  1.0000000000D+00
 P 1 1.00
     Exponent=  4.8218410000D+04 Coefficients=  1.0000000000D+00
 P 1 1.00
     Exponent=  1.1420550000D+04 Coefficients=  1.0000000000D+00
 P 1 1.00
     Exponent=  3.7135690000D+03 Coefficients=  1.0000000000D+00
 P 1 1.00
     Exponent=  1.4237620000D+03 Coefficients=  1.0000000000D+00
 P 1 1.00
     Exponent=  6.0660410000D+02 Coefficients=  1.0000000000D+00
 P 1 1.00
     Exponent=  2.7825640000D+02 Coefficients=  1.0000000000D+00
 P 1 1.00
     Exponent=  1.3484490000D+02 Coefficients=  1.0000000000D+00
 P 1 1.00
     Exponent=  6.8122540000D+01 Coefficients=  1.0000000000D+00
 P 1 1.00
     Exponent=  3.5400880000D+01 Coefficients=  1.0000000000D+00
 P 1 1.00
     Exponent=  1.8790290000D+01 Coefficients=  1.0000000000D+00
 P 1 1.00
     Exponent=  1.0083560000D+01 Coefficients=  1.0000000000D+00
 P 1 1.00
     Exponent=  5.3461200000D+00 Coefficients=  1.0000000000D+00
 P 1 1.00
     Exponent=  2.7752280000D+00 Coefficients=  1.0000000000D+00
 P 1 1.00
     Exponent=  1.4075640000D+00 Coefficients=  1.0000000000D+00
 P 1 1.00
     Exponent=  6.8721300000D-01 Coefficients=  1.0000000000D+00
 P 1 1.00
     Exponent=  2.4682200000D-01 Coefficients=  1.0000000000D+00
 P 1 1.00
     Exponent=  9.6220000000D-02 Coefficients=  1.0000000000D+00
 P 1 1.00
     Exponent=  3.7037000000D-02 Coefficients=  1.0000000000D+00
 P 1 1.00
     Exponent=  1.1921800000D+01 Coefficients=  1.0000000000D+00
 P 1 1.00
     Exponent=  3.2325000000D+00 Coefficients=  1.0000000000D+00
 P 1 1.00
     Exponent=  1.4260000000D-02 Coefficients=  1.0000000000D+00
 D 1 1.00
     Exponent=  5.2788600000D+02 Coefficients=  1.0000000000D+00
 D 1 1.00
     Exponent=  1.5873300000D+02 Coefficients=  1.0000000000D+00
 D 1 1.00
     Exponent=  6.1555600000D+01 Coefficients=  1.0000000000D+00
 D 1 1.00
     Exponent=  2.6883400000D+01 Coefficients=  1.0000000000D+00
 D 1 1.00
     Exponent=  1.2517500000D+01 Coefficients=  1.0000000000D+00
 D 1 1.00
     Exponent=  6.0697700000D+00 Coefficients=  1.0000000000D+00
 D 1 1.00
     Exponent=  2.9583190000D+00 Coefficients=  1.0000000000D+00
 D 1 1.00
     Exponent=  1.4141220000D+00 Coefficients=  1.0000000000D+00
 D 1 1.00
     Exponent=  6.5332900000D-01 Coefficients=  1.0000000000D+00
 D 1 1.00
     Exponent=  2.8669200000D-01 Coefficients=  1.0000000000D+00
 D 1 1.00
     Exponent=  1.1501400000D-01 Coefficients=  1.0000000000D+00
 D 1 1.00
     Exponent=  8.4804000000D+00 Coefficients=  1.0000000000D+00
 D 1 1.00
     Exponent=  4.4553000000D+00 Coefficients=  1.0000000000D+00
 D 1 1.00
     Exponent=  4.6140000000D-02 Coefficients=  1.0000000000D+00
 F 1 1.00
     Exponent=  1.1946300000D+01 Coefficients=  1.0000000000D+00
 F 1 1.00
     Exponent=  5.0345000000D+00 Coefficients=  1.0000000000D+00
 F 1 1.00
     Exponent=  2.1217000000D+00 Coefficients=  1.0000000000D+00
 F 1 1.00
     Exponent=  7.3910000000D-01 Coefficients=  1.0000000000D+00
 F 1 1.00
     Exponent=  2.5747000000D-01 Coefficients=  1.0000000000D+00
 G 1 1.00
     Exponent=  9.5934000000D+00 Coefficients=  1.0000000000D+00
 G 1 1.00
     Exponent=  4.3083000000D+00 Coefficients=  1.0000000000D+00
 G 1 1.00
     Exponent=  1.7760000000D+00 Coefficients=  1.0000000000D+00
 G 1 1.00
     Exponent=  7.3212000000D-01 Coefficients=  1.0000000000D+00
 H 1 1.00
     Exponent=  8.5704000000D+00 Coefficients=  1.0000000000D+00
 H 1 1.00
     Exponent=  3.7909000000D+00 Coefficients=  1.0000000000D+00
 H 1 1.00
     Exponent=  1.6768100000D+00 Coefficients=  1.0000000000D+00
 ****
 Centers:       2
 S 1 1.00
     Exponent=  8.2640000000D+01 Coefficients=  1.0000000000D+00
 S 1 1.00
     Exponent=  1.2410000000D+01 Coefficients=  1.0000000000D+00
 S 1 1.00
     Exponent=  2.8240000000D+00 Coefficients=  1.0000000000D+00
 S 1 1.00
     Exponent=  7.9770000000D-01 Coefficients=  1.0000000000D+00
 S 1 1.00
     Exponent=  2.5810000000D-01 Coefficients=  1.0000000000D+00
 S 1 1.00
     Exponent=  8.9890000000D-02 Coefficients=  1.0000000000D+00
 S 1 1.00
     Exponent=  2.3630000000D-02 Coefficients=  1.0000000000D+00
 P 1 1.00
     Exponent=  2.2920000000D+00 Coefficients=  1.0000000000D+00
 P 1 1.00
     Exponent=  8.3800000000D-01 Coefficients=  1.0000000000D+00
 P 1 1.00
     Exponent=  2.9200000000D-01 Coefficients=  1.0000000000D+00
 P 1 1.00
     Exponent=  8.4800000000D-02 Coefficients=  1.0000000000D+00
 D 1 1.00
     Exponent=  2.0620000000D+00 Coefficients=  1.0000000000D+00
 D 1 1.00
     Exponent=  6.6200000000D-01 Coefficients=  1.0000000000D+00
 D 1 1.00
     Exponent=  1.9000000000D-01 Coefficients=  1.0000000000D+00
 F 1 1.00
     Exponent=  1.3970000000D+00 Coefficients=  1.0000000000D+00
 F 1 1.00
     Exponent=  3.6000000000D-01 Coefficients=  1.0000000000D+00
 ****
 Ernie: Thresh=  0.10000D-02 Tol=  0.10000D-05 Strict=F.
 There are   171 symmetry adapted cartesian basis functions of A1  symmetry.
 There are    45 symmetry adapted cartesian basis functions of A2  symmetry.
 There are    93 symmetry adapted cartesian basis functions of B1  symmetry.
 There are    93 symmetry adapted cartesian basis functions of B2  symmetry.
 There are   126 symmetry adapted basis functions of A1  symmetry.
 There are    38 symmetry adapted basis functions of A2  symmetry.
 There are    73 symmetry adapted basis functions of B1  symmetry.
 There are    73 symmetry adapted basis functions of B2  symmetry.
   310 basis functions,   402 primitive gaussians,   402 cartesian basis functions
    15 alpha electrons       15 beta electrons
       nuclear repulsion energy         9.5913369479 Hartrees.
 IExCor=    0 DFT=F Ex=HF Corr=None ExCW=0 ScaHFX=  1.000000
 ScaDFX=  1.000000  1.000000  1.000000  1.000000 ScalE2=  1.000000  1.000000
 IRadAn=      5 IRanWt=     -1 IRanGd=            0 ICorTp=0 IEmpDi=  4
 NAtoms=    2 NActive=    2 NUniq=    2 SFac= 1.00D+00 NAtFMM=   60 NAOKFM=F Big=F
 Integral buffers will be    131072 words long.
 Raffenetti 2 integral format.
 Two-electron integral symmetry is turned on.
 FoFCou: FMM=F IPFlag=           8 FMFlag=           0 FMFlg1=           0
         NFxFlg=           0 DoJE=F BraDBF=T KetDBF=T FulRan=T
         wScrn=  0.000000 ICntrl=       600 IOpCl=  3 I1Cent=           6 NGrid=           0
         NMat0=    1 NMatS0=      2 NMatT0=    0 NMatD0=    1 NMtDS0=    0 NMtDT0=    0
 Symmetry not used in FoFCou.
 Finite nuclear repulsion energy         9.5913369479.
 Leave Link  301 at Wed Apr  4 19:22:27 2018, MaxMem= 10737418240 cpu:              14.9 elap:               0.5
 (Enter /home1/apps/gaussian/16rA.03/g16/l302.exe)
 Using DK4 one-electron Hamiltonian with SO, DoBoet=T.
 NPDir=0 NMtPBC=     1 NCelOv=     1 NCel=       1 NClECP=     1 NCelD=      1
         NCelK=      1 NCelE2=     1 NClLst=     1 CellRange=     0.0.
 One-electron integrals computed using PRISM.
 One-electron integral symmetry used in STVInt
 FoFCou: FMM=F IPFlag=           8 FMFlag=      100000 FMFlg1=           0
         NFxFlg=           0 DoJE=T BraDBF=F KetDBF=T FulRan=T
         wScrn=  0.000000 ICntrl=       500 IOpCl=  0 I1Cent=           4 NGrid=           0
         NMat0=    1 NMatS0=      1 NMatT0=    0 NMatD0=    1 NMtDS0=    0 NMtDT0=    0
 Symmetry not used in FoFCou.
 UnConB:  Uncontracting AO basis from    310 functions to    310 functions (excluding duplicates).
 RelInt: Using uncontracted basis, NUnBas=   310 NBsUse=   310 0.100E-13 EigKep=  5.23D-07 EigRej= -1.00D+00
 NBasis=   310 RedAO= T EigKep=  1.50D-06  NBF=   126    38    73    73
 NBsUse=   309 1.00D-06 EigRej=  5.23D-07 NBFU=   125    38    73    73
 Leave Link  302 at Wed Apr  4 19:22:38 2018, MaxMem= 10737418240 cpu:             296.5 elap:              11.3
 (Enter /home1/apps/gaussian/16rA.03/g16/l303.exe)
 DipDrv:  MaxL=1.
 Leave Link  303 at Wed Apr  4 19:22:38 2018, MaxMem= 10737418240 cpu:               2.9 elap:               0.2
 (Enter /home1/apps/gaussian/16rA.03/g16/l401.exe)
 Initial guess from the checkpoint file:  "qz.chk"
 B after Tr=     0.000000    0.000000    0.000000
         Rot=    1.000000    0.000000    0.000000    0.000000 Ang=   0.00 deg.
 Guess basis will be translated and rotated to current coordinates.
 JPrj=2 DoOrth=T DoCkMO=T.
 Initial guess orbital symmetries:
       Occupied  (SG) (SG) (PI) (PI) (SG) (SG) (SG) (PI) (PI) (SG)
                 (PI) (PI) (DLTA) (DLTA) (SG)
       Virtual   (SG) (PI) (PI) (SG) (SG) (SG) (PI) (PI) (SG) (PI)
                 (PI) (DLTA) (DLTA) (SG) (SG) (PI) (PI) (SG) (PI)
                 (PI) (SG) (SG) (SG) (PI) (PI) (DLTA) (DLTA) (SG)
                 (DLTA) (DLTA) (PI) (PI) (SG) (PI) (PI) (PI) (PI)
                 (SG) (PHI) (PHI) (SG) (DLTA) (DLTA) (PI) (PI)
                 (SG) (DLTA) (DLTA) (PI) (PI) (SG) (SG) (SG) (PI)
                 (PI) (SG) (DLTA) (DLTA) (PI) (PI) (PI) (PI) (SG)
                 (PHI) (PHI) (SG) (DLTA) (DLTA) (PI) (PI) (SG)
                 (DLTA) (DLTA) (PI) (PI) (PHI) (PHI) (?A) (?A)
                 (DLTA) (DLTA) (SG) (PI) (PI) (SG) (SG) (PI) (PI)
                 (SG) (SG) (PHI) (PHI) (DLTA) (DLTA) (PI) (PI)
                 (SG) (DLTA) (DLTA) (PI) (PI) (SG) (PHI) (PHI)
                 (?A) (?A) (DLTA) (DLTA) (PI) (PI) (SG) (SG) (PI)
                 (PI) (SG) (PHI) (PHI) (DLTA) (DLTA) (PI) (PI)
                 (SG) (PI) (PI) (SG) (DLTA) (DLTA) (PI) (PI) (SG)
                 (SG) (?A) (?A) (PHI) (PHI) (DLTA) (DLTA) (PI)
                 (PI) (SG) (SG) (PI) (PI) (SG) (DLTA) (DLTA) (PI)
                 (PI) (SG) (SG) (PI) (PI) (SG) (SG) (DLTA) (DLTA)
                 (PI) (PI) (SG) (PI) (PI) (SG) (SG) (PI) (PI) (SG)
                 (DLTA) (DLTA) (PI) (PI) (SG) (PI) (PI) (SG) (SG)
                 (PI) (PI) (SG) (SG) (PI) (PI) (SG) (SG) (SG) (PI)
                 (PI) (SG) (SG) (PI) (PI) (SG) (SG) (SG) (SG) (SG)
                 (DLTA) (SG) (SG) (SG) (SG) (DLTA) (SG) (SG) (DLTA)
                 (SG) (SG) (DLTA) (?A) (SG) (SG) (DLTA) (?A) (SG)
                 (DLTA) (SG) (DLTA) (SG) (DLTA) (SG) (DLTA) (DLTA)
                 (SG) (SG) (SG) (?A) (DLTA) (DLTA) (?A) (DLTA)
                 (DLTA) (DLTA) (DLTA) (?A) (DLTA) (?A) (DLTA) (DLTA)
                 (DLTA) (DLTA) (DLTA) (?A) (DLTA) (DLTA) (?A) (PI)
                 (PI) (PI) (PI) (PI) (PHI) (PI) (PHI) (PI) (PI)
                 (PHI) (?B) (PI) (PI) (PI) (PHI) (PHI) (PI) (PI)
                 (?B) (PHI) (PI) (PI) (?B) (PHI) (PI) (PI) (PI)
                 (PI) (PI) (PHI) (PI) (PHI) (PI) (PI) (PHI) (?B)
                 (PI) (PI) (PI) (PHI) (PHI) (PI) (PI) (?B) (PHI)
                 (PI) (PI) (?B) (PHI)
 The electronic state of the initial guess is 1-SG.
 Leave Link  401 at Wed Apr  4 19:22:39 2018, MaxMem= 10737418240 cpu:              16.9 elap:               0.6
 (Enter /home1/apps/gaussian/16rA.03/g16/l502.exe)
 Keep R1 and R2 ints in memory in symmetry-blocked form, NReq=1456552531.
 FoFCou: FMM=F IPFlag=           8 FMFlag=           0 FMFlg1=           0
         NFxFlg=           0 DoJE=F BraDBF=F KetDBF=F FulRan=T
         wScrn=  0.000000 ICntrl=       600 IOpCl=  0 I1Cent=           0 NGrid=           0
         NMat0=    1 NMatS0=  48205 NMatT0=    0 NMatD0=    1 NMtDS0=    0 NMtDT0=    0
 Petite list used in FoFCou.
 Restricted open shell SCF:
 Using DIIS extrapolation, IDIIS=  1040.
 NGot= 10737418240 LenX= 10147857266 LenY= 10147695221
 Requested convergence on RMS density matrix=1.00D-08 within 400 cycles.
 Requested convergence on MAX density matrix=1.00D-06.
 Requested convergence on             energy=1.00D-06.
 Virtual orbitals will be shifted by   0.200 hartree.
 No special actions if energy rises.

 Cycle   1  Pass 1  IDiag  1:
 E= -1653.71471101402    
 DIIS: error= 1.30D+00 at cycle   1 NSaved=   1.
 NSaved= 1 IEnMin= 1 EnMin= -1653.71471101402     IErMin= 1 ErrMin= 1.30D+00
 ErrMax= 1.30D+00  0.00D+00 EMaxC= 1.00D-01 BMatC= 2.14D+02 BMatP= 2.14D+02
 IDIUse=3 WtCom= 0.00D+00 WtEn= 1.00D+00
 Coeff-Com:  0.100D+01
 Coeff-En:   0.100D+01
 Coeff:      0.100D+01
 Gap=     0.337 Goal=   None    Shift=    0.200
 GapD=    0.337 DampG=1.000 DampE=0.125 DampFc=0.1250 IDamp=-1.
 Damping current iteration by 1.25D-01
 RMSDP=8.52D-04 MaxDP=4.61D-02              OVMax= 2.03D-03

 Cycle   2  Pass 1  IDiag  1:
 E= -1653.71481714923     Delta-E=       -0.000106135210 Rises=F Damp=T
 DIIS: error= 1.14D+00 at cycle   2 NSaved=   2.
 NSaved= 2 IEnMin= 2 EnMin= -1653.71481714923     IErMin= 2 ErrMin= 1.14D+00
 ErrMax= 1.14D+00  0.00D+00 EMaxC= 1.00D-01 BMatC= 1.64D+02 BMatP= 2.14D+02
 IDIUse=3 WtCom= 0.00D+00 WtEn= 1.00D+00
 Coeff-Com: -0.700D+01 0.800D+01
 Coeff-En:   0.000D+00 0.100D+01
 Coeff:      0.000D+00 0.100D+01
 Gap=     0.337 Goal=   None    Shift=    0.200
 RMSDP=7.59D-04 MaxDP=4.10D-02 DE=-1.06D-04 OVMax= 2.78D-04

 Cycle   3  Pass 1  IDiag  1:
 E= -1653.71557375985     Delta-E=       -0.000756610623 Rises=F Damp=F
 DIIS: error= 1.40D-04 at cycle   3 NSaved=   3.
 NSaved= 3 IEnMin= 3 EnMin= -1653.71557375985     IErMin= 3 ErrMin= 1.40D-04
 ErrMax= 1.40D-04  0.00D+00 EMaxC= 1.00D-01 BMatC= 2.40D-06 BMatP= 1.64D+02
 IDIUse=3 WtCom= 9.99D-01 WtEn= 1.40D-03
 Large coefficients: NSaved=  3 BigCof=   13.04 CofMax=   10.00 Det=-1.16D-08
 Inversion failed.  Reducing to  2 matrices.
 Coeff-Com: -0.332D-04 0.100D+01
 Coeff-En:   0.000D+00 0.100D+01
 Coeff:     -0.332D-04 0.100D+01
 Gap=     0.337 Goal=   None    Shift=    0.200
 RMSDP=2.29D-05 MaxDP=9.68D-04 DE=-7.57D-04 OVMax= 3.18D-04

 Cycle   4  Pass 1  IDiag  1:
 E= -1653.71557573800     Delta-E=       -0.000001978146 Rises=F Damp=F
 DIIS: error= 2.75D-05 at cycle   4 NSaved=   3.
 NSaved= 3 IEnMin= 3 EnMin= -1653.71557573800     IErMin= 3 ErrMin= 2.75D-05
 ErrMax= 2.75D-05  0.00D+00 EMaxC= 1.00D-01 BMatC= 9.68D-08 BMatP= 2.40D-06
 IDIUse=1 WtCom= 1.00D+00 WtEn= 0.00D+00
 Coeff-Com:  0.620D-05-0.187D+00 0.119D+01
 Coeff:      0.620D-05-0.187D+00 0.119D+01
 Gap=     0.337 Goal=   None    Shift=    0.200
 RMSDP=4.71D-06 MaxDP=2.24D-04 DE=-1.98D-06 OVMax= 1.04D-04

 Cycle   5  Pass 1  IDiag  1:
 E= -1653.71557589667     Delta-E=       -0.000000158671 Rises=F Damp=F
 DIIS: error= 5.38D-06 at cycle   5 NSaved=   4.
 NSaved= 4 IEnMin= 4 EnMin= -1653.71557589667     IErMin= 4 ErrMin= 5.38D-06
 ErrMax= 5.38D-06  0.00D+00 EMaxC= 1.00D-01 BMatC= 5.60D-09 BMatP= 9.68D-08
 IDIUse=1 WtCom= 1.00D+00 WtEn= 0.00D+00
 Coeff-Com: -0.543D-06 0.165D-01-0.303D+00 0.129D+01
 Coeff:     -0.543D-06 0.165D-01-0.303D+00 0.129D+01
 Gap=     0.337 Goal=   None    Shift=    0.200
 RMSDP=1.28D-06 MaxDP=8.26D-05 DE=-1.59D-07 OVMax= 3.58D-05

 Cycle   6  Pass 1  IDiag  1:
 E= -1653.71557591041     Delta-E=       -0.000000013742 Rises=F Damp=F
 DIIS: error= 2.57D-06 at cycle   6 NSaved=   5.
 NSaved= 5 IEnMin= 5 EnMin= -1653.71557591041     IErMin= 5 ErrMin= 2.57D-06
 ErrMax= 2.57D-06  0.00D+00 EMaxC= 1.00D-01 BMatC= 6.70D-10 BMatP= 5.60D-09
 IDIUse=1 WtCom= 1.00D+00 WtEn= 0.00D+00
 Coeff-Com: -0.161D-06 0.485D-02-0.215D-01-0.210D+00 0.123D+01
 Coeff:     -0.161D-06 0.485D-02-0.215D-01-0.210D+00 0.123D+01
 Gap=     0.337 Goal=   None    Shift=    0.200
 RMSDP=4.10D-07 MaxDP=2.96D-05 DE=-1.37D-08 OVMax= 2.18D-05

 Cycle   7  Pass 1  IDiag  1:
 E= -1653.71557591249     Delta-E=       -0.000000002084 Rises=F Damp=F
 DIIS: error= 2.39D-06 at cycle   7 NSaved=   6.
 NSaved= 6 IEnMin= 6 EnMin= -1653.71557591249     IErMin= 6 ErrMin= 2.39D-06
 ErrMax= 2.39D-06  0.00D+00 EMaxC= 1.00D-01 BMatC= 3.76D-10 BMatP= 6.70D-10
 IDIUse=1 WtCom= 1.00D+00 WtEn= 0.00D+00
 Coeff-Com:  0.108D-08-0.462D-04 0.403D-01-0.348D+00 0.629D+00 0.679D+00
 Coeff:      0.108D-08-0.462D-04 0.403D-01-0.348D+00 0.629D+00 0.679D+00
 Gap=     0.337 Goal=   None    Shift=    0.200
 RMSDP=1.48D-07 MaxDP=1.09D-05 DE=-2.08D-09 OVMax= 1.11D-05

 Cycle   8  Pass 1  IDiag  1:
 E= -1653.71557591305     Delta-E=       -0.000000000553 Rises=F Damp=F
 DIIS: error= 1.20D-06 at cycle   8 NSaved=   7.
 NSaved= 7 IEnMin= 7 EnMin= -1653.71557591305     IErMin= 7 ErrMin= 1.20D-06
 ErrMax= 1.20D-06  0.00D+00 EMaxC= 1.00D-01 BMatC= 5.66D-11 BMatP= 3.76D-10
 IDIUse=1 WtCom= 1.00D+00 WtEn= 0.00D+00
 Coeff-Com:  0.875D-07-0.265D-02 0.304D-01-0.768D-01-0.223D+00 0.255D-01
 Coeff-Com:  0.125D+01
 Coeff:      0.875D-07-0.265D-02 0.304D-01-0.768D-01-0.223D+00 0.255D-01
 Coeff:      0.125D+01
 Gap=     0.337 Goal=   None    Shift=    0.200
 RMSDP=7.44D-08 MaxDP=5.13D-06 DE=-5.53D-10 OVMax= 1.09D-05

 Cycle   9  Pass 1  IDiag  1:
 E= -1653.71557591329     Delta-E=       -0.000000000242 Rises=F Damp=F
 DIIS: error= 6.60D-07 at cycle   9 NSaved=   8.
 NSaved= 8 IEnMin= 8 EnMin= -1653.71557591329     IErMin= 8 ErrMin= 6.60D-07
 ErrMax= 6.60D-07  0.00D+00 EMaxC= 1.00D-01 BMatC= 1.32D-11 BMatP= 5.66D-11
 IDIUse=1 WtCom= 1.00D+00 WtEn= 0.00D+00
 Coeff-Com: -0.376D-07 0.114D-02-0.202D-01 0.101D+00-0.759D-01-0.200D+00
 Coeff-Com: -0.457D+00 0.165D+01
 Coeff:     -0.376D-07 0.114D-02-0.202D-01 0.101D+00-0.759D-01-0.200D+00
 Coeff:     -0.457D+00 0.165D+01
 Gap=     0.337 Goal=   None    Shift=    0.200
 RMSDP=2.81D-08 MaxDP=1.60D-06 DE=-2.42D-10 OVMax= 7.22D-06

 Cycle  10  Pass 1  IDiag  1:
 E= -1653.71557591337     Delta-E=       -0.000000000083 Rises=F Damp=F
 DIIS: error= 3.47D-07 at cycle  10 NSaved=   9.
 NSaved= 9 IEnMin= 9 EnMin= -1653.71557591337     IErMin= 9 ErrMin= 3.47D-07
 ErrMax= 3.47D-07  0.00D+00 EMaxC= 1.00D-01 BMatC= 3.60D-12 BMatP= 1.32D-11
 IDIUse=1 WtCom= 1.00D+00 WtEn= 0.00D+00
 Coeff-Com:  0.145D-07-0.440D-03 0.974D-02-0.567D-01 0.829D-01 0.843D-01
 Coeff-Com:  0.138D+00-0.156D+01 0.230D+01
 Coeff:      0.145D-07-0.440D-03 0.974D-02-0.567D-01 0.829D-01 0.843D-01
 Coeff:      0.138D+00-0.156D+01 0.230D+01
 Gap=     0.337 Goal=   None    Shift=    0.200
 RMSDP=1.58D-08 MaxDP=1.10D-06 DE=-8.32D-11 OVMax= 4.91D-06

 Cycle  11  Pass 1  IDiag  1:
 E= -1653.71557591340     Delta-E=       -0.000000000032 Rises=F Damp=F
 DIIS: error= 1.58D-07 at cycle  11 NSaved=  10.
 NSaved=10 IEnMin=10 EnMin= -1653.71557591340     IErMin=10 ErrMin= 1.58D-07
 ErrMax= 1.58D-07  0.00D+00 EMaxC= 1.00D-01 BMatC= 8.18D-13 BMatP= 3.60D-12
 IDIUse=1 WtCom= 1.00D+00 WtEn= 0.00D+00
 Coeff-Com: -0.243D-08 0.737D-04-0.241D-02 0.182D-01-0.505D-01 0.166D-01
 Coeff-Com: -0.572D-02 0.600D+00-0.184D+01 0.227D+01
 Coeff:     -0.243D-08 0.737D-04-0.241D-02 0.182D-01-0.505D-01 0.166D-01
 Coeff:     -0.572D-02 0.600D+00-0.184D+01 0.227D+01
 Gap=     0.337 Goal=   None    Shift=    0.200
 RMSDP=7.21D-09 MaxDP=5.45D-07 DE=-3.23D-11 OVMax= 2.40D-06

 SCF Done:  E(ROHF) =  -1653.71557591     A.U. after   11 cycles
            NFock= 11  Conv=0.72D-08     -V/T= 1.9508
 <Sx>= 0.0000 <Sy>= 0.0000 <Sz>= 0.0000 <S**2>=-0.0000 S=-0.0000
 <L.S>=  0.00000000000    
 KE= 1.739227703034D+03 PE=-4.066327680656D+03 EE= 6.637930647606D+02
 Annihilation of the first spin contaminant:
 S**2 before annihilation    -0.0000,   after     0.0000
 Leave Link  502 at Wed Apr  4 19:23:15 2018, MaxMem= 10737418240 cpu:            1083.1 elap:              35.9
 (Enter /home1/apps/gaussian/16rA.03/g16/l801.exe)
 Windowed orbitals will be sorted by symmetry type.
 GenMOA:  NOpAll=  4 NOp2=4 NOpUse=  4 JSym2X=1
 FoFJK:  IHMeth= 1 ICntrl=       0 DoSepK=F KAlg= 0 I1Cent=           0 FoldK=F
 IRaf=         0 NMat=       1 IRICut=       1 DoRegI=T DoRafI=F ISym2E= 1 IDoP0=0 IntGTp=1.
 FoFCou: FMM=F IPFlag=           8 FMFlag=      100000 FMFlg1=           0
         NFxFlg=           0 DoJE=F BraDBF=F KetDBF=F FulRan=T
         wScrn=  0.000000 ICntrl=         0 IOpCl=  1 I1Cent=           0 NGrid=           0
         NMat0=    1 NMatS0=      1 NMatT0=    0 NMatD0=    1 NMtDS0=    0 NMtDT0=    0
 Petite list used in FoFCou.
 <Sx>= 0.0000 <Sy>= 0.0000 <Sz>= 0.0000 <S**2>= 0.0000 S= 0.0000
 Range of M.O.s used for correlation:     1   309
 NBasis=   310 NAE=    15 NBE=    15 NFC=     0 NFV=     0
 NROrb=    309 NOA=    15 NOB=    15 NVA=   294 NVB=   294

 **** Warning!!: The largest alpha MO coefficient is  0.25622254D+03


 **** Warning!!: The largest beta MO coefficient is  0.25622254D+03

 Singles contribution to E2=   -0.7208069571D-12
 Leave Link  801 at Wed Apr  4 19:23:28 2018, MaxMem= 10737418240 cpu:             422.4 elap:              13.2
 (Enter /home1/apps/gaussian/16rA.03/g16/l804.exe)
 Open-shell transformation, MDV= 10737418240 ITran=4 ISComp=2.
 Unit  1 TFree=       2908054 TCopy=       2395759.
 Semi-Direct transformation.
 ModeAB=           2 MOrb=            15 LenV=   10734491066
 LASXX=     54637965 LTotXX=    54637965 LenRXX=    54637965
 LTotAB=    55411068 MaxLAS=   375448905 LenRXY=   375448905
 NonZer=   382229910 LenScr=   575593472 LnRSAI=           0
 LnScr1=           0 LExtra=    30907350 Total=   1036587692
 MaxDsk= 67108864000 SrtSym=           F ITran=            4
 DoSDTr:  NPSUse= 32
 JobTyp=1 Pass  1:  I=   1 to  15.
 (rs|ai) integrals will be sorted in core.
 Complete sort for first half transformation.
 First half transformation complete.
 Begin second half transformation for I=  10.
 Begin second half transformation for I=  10.
 Complete sort for second half transformation.
 Second half transformation complete.
 ModeAB=           2 MOrb=            15 LenV=   10734491066
 LASXX=     54637965 LTotXX=    54637965 LenRXX=   375448905
 LTotAB=    50104882 MaxLAS=   375448905 LenRXY=    50104882
 NonZer=   382229910 LenScr=   575593472 LnRSAI=           0
 LnScr1=           0 LExtra=   460994220 Total=   1462141479
 MaxDsk= 67108864000 SrtSym=           F ITran=            4
 DoSDTr:  NPSUse= 32
 JobTyp=2 Pass  1:  I=   1 to  15.
 (rs|ai) integrals will be sorted in core.
 Complete sort for first half transformation.
 First half transformation complete.
 Begin second half transformation for I=  10.
 Begin second half transformation for I=  10.
 Complete sort for second half transformation.
 Second half transformation complete.
 Spin components of T(2) and E(2):
     alpha-alpha T2 =       0.2488783035D-01 E2=     -0.2494594685D+00
     alpha-beta  T2 =       0.1053207035D+00 E2=     -0.1081990144D+01
     beta-beta   T2 =       0.2488783035D-01 E2=     -0.2494594685D+00
 ANorm=    0.1074754095D+01
 E2 =    -0.1580909081D+01 EUMP2 =    -0.16552964849947D+04
 (S**2,0)=  0.00000D+00           (S**2,1)=  0.00000D+00
 E(PUHF)=      -0.16537155759D+04        E(PMP2)=      -0.16552964850D+04
 Leave Link  804 at Wed Apr  4 19:35:51 2018, MaxMem= 10737418240 cpu:           23581.8 elap:             737.7
 (Enter /home1/apps/gaussian/16rA.03/g16/l913.exe)
 CIDS:  MDV= 10737418240.
 IFCWin=0 IBDFC=1 NFBD=     0     0 NFCmp=     0     0 NFFFC=     0     0
 Using original routines for 1st iteration.
 Using DD4UQ or CC4UQ for 2nd and later iterations.
 Keep R2 and R3 ints in memory in symmetry-blocked form, NReq=1456576257.
 FoFCou: FMM=F IPFlag=           8 FMFlag=           0 FMFlg1=           0
         NFxFlg=           0 DoJE=F BraDBF=F KetDBF=F FulRan=T
         wScrn=  0.000000 ICntrl=       600 IOpCl=  0 I1Cent=           0 NGrid=           0
         NMat0=    1 NMatS0=  48205 NMatT0=    0 NMatD0=    1 NMtDS0=    0 NMtDT0=    0
 Petite list used in FoFCou.
 CIDS: In Core Option IDoMem=           1.
 CCSD(T)
 =======
 Iterations= 150 Convergence= 0.100D-06
 Produce multiple copies of IABC intergrals
 Iteration Nr.   1
 **********************
 DD1Dir will call FoFMem   1 times, MxPair=       660
 NAB=   225 NAA=   105 NBB=   105.
 DD1Dir will call FoFMem   1 times, MxPair=       660
 NAB=   225 NAA=   105 NBB=   105.
 MP4(R+Q)= -0.25558557D+00
 Maximum subspace dimension=  5
 A-vector RMS=  1.6572661D-05 Max=  2.2262400D-03 conv= 1.00D-05.
 RLE energy=       -1.5991628453
 E3=        0.23754017D+00        EROMP3=      -0.16550589448D+04
 E4(SDQ)=  -0.17588844D+00        ROMP4(SDQ)=  -0.16552348333D+04
 VARIATIONAL ENERGIES WITH THE FIRST-ORDER WAVEFUNCTION:
 DE(Corr)=  -1.5989545     E(Corr)=     -1655.3145304    
 NORM(A)=   0.10775528D+01
 Iteration Nr.   2
 **********************
 DD1Dir will call FoFMem   1 times, MxPair=       660
 NAB=   225 NAA=   105 NBB=   105.
 A-vector RMS=  3.8579883D-03 Max=  3.6089983D-02 conv= 1.00D-05.
 RLE energy=       -1.5589681163
 DE(Corr)=  -1.3464403     E(CORR)=     -1655.0620162     Delta= 2.53D-01
 NORM(A)=   0.10706928D+01
 Iteration Nr.   3
 **********************
 DD1Dir will call FoFMem   1 times, MxPair=       660
 NAB=   225 NAA=   105 NBB=   105.
 A-vector RMS=  2.8285092D-03 Max=  2.5628649D-02 conv= 1.00D-05.
 RLE energy=       -1.5002267622
 DE(Corr)=  -1.3656861     E(CORR)=     -1655.0812620     Delta=-1.92D-02
 NORM(A)=   0.10652613D+01
 Iteration Nr.   4
 **********************
 DD1Dir will call FoFMem   1 times, MxPair=       660
 NAB=   225 NAA=   105 NBB=   105.
 A-vector RMS=  2.0713851D-03 Max=  1.8687369D-02 conv= 1.00D-05.
 RLE energy=       -1.3700066810
 DE(Corr)=  -1.3950210     E(CORR)=     -1655.1105969     Delta=-2.93D-02
 NORM(A)=   0.10730154D+01
 Iteration Nr.   5
 **********************
 DD1Dir will call FoFMem   1 times, MxPair=       660
 NAB=   225 NAA=   105 NBB=   105.
 A-vector RMS=  1.5776784D-03 Max=  1.5613874D-02 conv= 1.00D-05.
 RLE energy=       -1.3968012692
 DE(Corr)=  -1.4763192     E(CORR)=     -1655.1918951     Delta=-8.13D-02
 NORM(A)=   0.10849516D+01
 Iteration Nr.   6
 **********************
 DD1Dir will call FoFMem   1 times, MxPair=       660
 NAB=   225 NAA=   105 NBB=   105.
 A-vector RMS=  8.5659653D-04 Max=  9.0548418D-03 conv= 1.00D-05.
 RLE energy=       -1.4410846919
 DE(Corr)=  -1.4629741     E(CORR)=     -1655.1785500     Delta= 1.33D-02
 NORM(A)=   0.10782825D+01
 Iteration Nr.   7
 **********************
 DD1Dir will call FoFMem   1 times, MxPair=       660
 NAB=   225 NAA=   105 NBB=   105.
 A-vector RMS=  1.9541838D-04 Max=  2.7398318D-03 conv= 1.00D-05.
 RLE energy=       -1.4371236206
 DE(Corr)=  -1.4354674     E(CORR)=     -1655.1510433     Delta= 2.75D-02
 NORM(A)=   0.10792477D+01
 Iteration Nr.   8
 **********************
 DD1Dir will call FoFMem   1 times, MxPair=       660
 NAB=   225 NAA=   105 NBB=   105.
 A-vector RMS=  1.8758910D-04 Max=  3.9695631D-03 conv= 1.00D-05.
 RLE energy=       -1.4370828553
 DE(Corr)=  -1.4377156     E(CORR)=     -1655.1532915     Delta=-2.25D-03
 NORM(A)=   0.10810588D+01
 Iteration Nr.   9
 **********************
 DD1Dir will call FoFMem   1 times, MxPair=       660
 NAB=   225 NAA=   105 NBB=   105.
 A-vector RMS=  1.0283253D-04 Max=  2.3180409D-03 conv= 1.00D-05.
 RLE energy=       -1.4374853392
 DE(Corr)=  -1.4374590     E(CORR)=     -1655.1530349     Delta= 2.57D-04
 NORM(A)=   0.10831317D+01
 Iteration Nr.  10
 **********************
 DD1Dir will call FoFMem   1 times, MxPair=       660
 NAB=   225 NAA=   105 NBB=   105.
 A-vector RMS=  6.6699317D-05 Max=  1.3657408D-03 conv= 1.00D-05.
 RLE energy=       -1.4375739714
 DE(Corr)=  -1.4375186     E(CORR)=     -1655.1530945     Delta=-5.96D-05
 NORM(A)=   0.10837378D+01
 Iteration Nr.  11
 **********************
 DD1Dir will call FoFMem   1 times, MxPair=       660
 NAB=   225 NAA=   105 NBB=   105.
 A-vector RMS=  5.3586892D-05 Max=  1.2169124D-03 conv= 1.00D-05.
 RLE energy=       -1.4373319151
 DE(Corr)=  -1.4374409     E(CORR)=     -1655.1530168     Delta= 7.77D-05
 NORM(A)=   0.10840315D+01
 Iteration Nr.  12
 **********************
 DD1Dir will call FoFMem   1 times, MxPair=       660
 NAB=   225 NAA=   105 NBB=   105.
 A-vector RMS=  2.7526456D-05 Max=  3.8034716D-04 conv= 1.00D-05.
 RLE energy=       -1.4376589204
 DE(Corr)=  -1.4376325     E(CORR)=     -1655.1532084     Delta=-1.92D-04
 NORM(A)=   0.10839565D+01
 Iteration Nr.  13
 **********************
 DD1Dir will call FoFMem   1 times, MxPair=       660
 NAB=   225 NAA=   105 NBB=   105.
 A-vector RMS=  1.5128996D-05 Max=  2.2349805D-04 conv= 1.00D-05.
 RLE energy=       -1.4374511001
 DE(Corr)=  -1.4373847     E(CORR)=     -1655.1529606     Delta= 2.48D-04
 NORM(A)=   0.10839527D+01
 Iteration Nr.  14
 **********************
 DD1Dir will call FoFMem   1 times, MxPair=       660
 NAB=   225 NAA=   105 NBB=   105.
 A-vector RMS=  8.9036048D-06 Max=  1.1006632D-04 conv= 1.00D-05.
 RLE energy=       -1.4374900887
 DE(Corr)=  -1.4375343     E(CORR)=     -1655.1531102     Delta=-1.50D-04
 NORM(A)=   0.10839202D+01
 Iteration Nr.  15
 **********************
 DD1Dir will call FoFMem   1 times, MxPair=       660
 NAB=   225 NAA=   105 NBB=   105.
 A-vector RMS=  4.9585194D-06 Max=  8.5538874D-05 conv= 1.00D-05.
 RLE energy=       -1.4374809990
 DE(Corr)=  -1.4374801     E(CORR)=     -1655.1530560     Delta= 5.42D-05
 NORM(A)=   0.10839020D+01
 Iteration Nr.  16
 **********************
 DD1Dir will call FoFMem   1 times, MxPair=       660
 NAB=   225 NAA=   105 NBB=   105.
 A-vector RMS=  2.9062457D-06 Max=  4.9048268D-05 conv= 1.00D-05.
 RLE energy=       -1.4374828458
 DE(Corr)=  -1.4374850     E(CORR)=     -1655.1530609     Delta=-4.92D-06
 NORM(A)=   0.10838865D+01
 Iteration Nr.  17
 **********************
 DD1Dir will call FoFMem   1 times, MxPair=       660
 NAB=   225 NAA=   105 NBB=   105.
 A-vector RMS=  1.9364380D-06 Max=  3.3841476D-05 conv= 1.00D-05.
 RLE energy=       -1.4374767795
 DE(Corr)=  -1.4374799     E(CORR)=     -1655.1530559     Delta= 5.05D-06
 NORM(A)=   0.10838707D+01
 Iteration Nr.  18
 **********************
 DD1Dir will call FoFMem   1 times, MxPair=       660
 NAB=   225 NAA=   105 NBB=   105.
 A-vector RMS=  1.5315559D-06 Max=  2.9764905D-05 conv= 1.00D-05.
 RLE energy=       -1.4374816243
 DE(Corr)=  -1.4374817     E(CORR)=     -1655.1530576     Delta=-1.71D-06
 NORM(A)=   0.10838496D+01
 Iteration Nr.  19
 **********************
 DD1Dir will call FoFMem   1 times, MxPair=       660
 NAB=   225 NAA=   105 NBB=   105.
 A-vector RMS=  1.0809746D-06 Max=  1.4803029D-05 conv= 1.00D-05.
 RLE energy=       -1.4374732929
 DE(Corr)=  -1.4374738     E(CORR)=     -1655.1530497     Delta= 7.84D-06
 NORM(A)=   0.10838398D+01
 Iteration Nr.  20
 **********************
 DD1Dir will call FoFMem   1 times, MxPair=       660
 NAB=   225 NAA=   105 NBB=   105.
 A-vector RMS=  1.0122314D-06 Max=  2.0077846D-05 conv= 1.00D-05.
 RLE energy=       -1.4374792637
 DE(Corr)=  -1.4374812     E(CORR)=     -1655.1530571     Delta=-7.41D-06
 NORM(A)=   0.10838291D+01
 Iteration Nr.  21
 **********************
 DD1Dir will call FoFMem   1 times, MxPair=       660
 NAB=   225 NAA=   105 NBB=   105.
 A-vector RMS=  6.0066720D-07 Max=  9.2913950D-06 conv= 1.00D-05.
 RLE energy=       -1.4374761386
 DE(Corr)=  -1.4374746     E(CORR)=     -1655.1530505     Delta= 6.66D-06
 NORM(A)=   0.10838235D+01
 Iteration Nr.  22
 **********************
 DD1Dir will call FoFMem   1 times, MxPair=       660
 NAB=   225 NAA=   105 NBB=   105.
 A-vector RMS=  5.8021927D-07 Max=  1.1216134D-05 conv= 1.00D-05.
 RLE energy=       -1.4374767678
 DE(Corr)=  -1.4374771     E(CORR)=     -1655.1530531     Delta=-2.58D-06
 NORM(A)=   0.10838193D+01
 Iteration Nr.  23
 **********************
 DD1Dir will call FoFMem   1 times, MxPair=       660
 NAB=   225 NAA=   105 NBB=   105.
 A-vector RMS=  4.2095406D-07 Max=  7.4573022D-06 conv= 1.00D-05.
 RLE energy=       -1.4374764328
 DE(Corr)=  -1.4374765     E(CORR)=     -1655.1530525     Delta= 6.00D-07
 NORM(A)=   0.10838170D+01
 Iteration Nr.  24
 **********************
 DD1Dir will call FoFMem   1 times, MxPair=       660
 NAB=   225 NAA=   105 NBB=   105.
 A-vector RMS=  2.3051912D-07 Max=  3.4254143D-06 conv= 1.00D-05.
 RLE energy=       -1.4374769576
 DE(Corr)=  -1.4374768     E(CORR)=     -1655.1530527     Delta=-2.47D-07
 NORM(A)=   0.10838157D+01
 Iteration Nr.  25
 **********************
 DD1Dir will call FoFMem   1 times, MxPair=       660
 NAB=   225 NAA=   105 NBB=   105.
 A-vector RMS=  1.4888681D-07 Max=  1.5872071D-06 conv= 1.00D-05.
 RLE energy=       -1.4374761376
 DE(Corr)=  -1.4374762     E(CORR)=     -1655.1530521     Delta= 5.54D-07
 NORM(A)=   0.10838155D+01
 Iteration Nr.  26
 **********************
 DD1Dir will call FoFMem   1 times, MxPair=       660
 NAB=   225 NAA=   105 NBB=   105.
 A-vector RMS=  1.2813888D-07 Max=  1.8679316D-06 conv= 1.00D-05.
 RLE energy=       -1.4374769408
 DE(Corr)=  -1.4374771     E(CORR)=     -1655.1530530     Delta=-8.93D-07
 NORM(A)=   0.10838153D+01
 Iteration Nr.  27
 **********************
 DD1Dir will call FoFMem   1 times, MxPair=       660
 NAB=   225 NAA=   105 NBB=   105.
 A-vector RMS=  8.0468156D-08 Max=  9.5465541D-07 conv= 1.00D-05.
 RLE energy=       -1.4374765874
 DE(Corr)=  -1.4374764     E(CORR)=     -1655.1530523     Delta= 7.27D-07
 NORM(A)=   0.10838154D+01
 Iteration Nr.  28
 **********************
 DD1Dir will call FoFMem   1 times, MxPair=       660
 NAB=   225 NAA=   105 NBB=   105.
 A-vector RMS=  6.2322022D-08 Max=  1.2265381D-06 conv= 1.00D-05.
 RLE energy=       -1.4374766646
 DE(Corr)=  -1.4374767     E(CORR)=     -1655.1530527     Delta=-3.39D-07
 NORM(A)=   0.10838156D+01
 Iteration Nr.  29
 **********************
 DD1Dir will call FoFMem   1 times, MxPair=       660
 NAB=   225 NAA=   105 NBB=   105.
 A-vector RMS=  5.0719093D-08 Max=  1.0633756D-06 conv= 1.00D-05.
 RLE energy=       -1.4374766834
 DE(Corr)=  -1.4374767     E(CORR)=     -1655.1530526     Delta= 2.76D-08
 NORM(A)=   0.10838157D+01
 CI/CC converged in   29 iterations to DelEn= 2.76D-08 Conv= 1.00D-07 ErrA1= 5.07D-08 Conv= 1.00D-05
 Wavefunction amplitudes converged. E(Corr)=     -1655.1530526    
 Largest amplitude= 7.33D-02
 Time for triples=   114978.80 seconds.
 T4(CCSD)= -0.48507795D-01
 T5(CCSD)=  0.81684444D-02
 CCSD(T)= -0.16551933920D+04
 Discarding MO integrals.
 Leave Link  913 at Wed Apr  4 21:01:56 2018, MaxMem= 10737418240 cpu:          164619.9 elap:            5165.0
 (Enter /home1/apps/gaussian/16rA.03/g16/l601.exe)
 Copying SCF densities to generalized density rwf, IOpCl= 0 IROHF=1.

 **********************************************************************

            Population analysis using the SCF density.

 **********************************************************************

 Orbital symmetries:
       Occupied  (SG) (SG) (PI) (PI) (SG) (SG) (SG) (PI) (PI) (SG)
                 (PI) (PI) (DLTA) (DLTA) (SG)
       Virtual   (SG) (PI) (PI) (SG) (SG) (SG) (PI) (PI) (SG) (PI)
                 (PI) (DLTA) (DLTA) (SG) (SG) (PI) (PI) (SG) (PI)
                 (PI) (SG) (PI) (PI) (DLTA) (DLTA) (SG) (SG) (SG)
                 (DLTA) (DLTA) (SG) (PI) (PI) (PI) (PI) (SG) (PI)
                 (PI) (PHI) (PHI) (DLTA) (DLTA) (PI) (PI) (DLTA)
                 (DLTA) (SG) (SG) (PI) (PI) (PHI) (PHI) (SG) (SG)
                 (DLTA) (DLTA) (SG) (PI) (PI) (PI) (PI) (SG) (DLTA)
                 (DLTA) (PI) (PI) (SG) (PHI) (PHI) (DLTA) (DLTA)
                 (SG) (PI) (PI) (DLTA) (DLTA) (PI) (PI) (SG) (?A)
                 (?A) (PI) (PI) (SG) (PHI) (PHI) (DLTA) (DLTA)
                 (SG) (PI) (PI) (SG) (SG) (PI) (PI) (SG) (PI) (PI)
                 (DLTA) (DLTA) (PHI) (PHI) (DLTA) (DLTA) (PI) (PI)
                 (SG) (SG) (PHI) (PHI) (DLTA) (DLTA) (PI) (PI)
                 (SG) (PI) (PI) (DLTA) (DLTA) (SG) (PI) (PI) (?A)
                 (?A) (PHI) (PHI) (SG) (DLTA) (DLTA) (?A) (?A)
                 (?B) (?B) (PHI) (PHI) (PI) (PI) (SG) (DLTA) (DLTA)
                 (PI) (PI) (SG) (SG) (DLTA) (DLTA) (PI) (PI) (SG)
                 (PI) (PI) (SG) (PHI) (PHI) (DLTA) (DLTA) (PI)
                 (PI) (SG) (?A) (?A) (PHI) (PHI) (DLTA) (DLTA)
                 (PI) (PI) (SG) (SG) (?A) (?A) (?B) (?B) (PHI)
                 (PHI) (DLTA) (DLTA) (PI) (PI) (SG) (DLTA) (DLTA)
                 (PI) (PI) (SG) (SG) (PI) (PI) (SG) (PHI) (PHI)
                 (DLTA) (DLTA) (PI) (PI) (DLTA) (DLTA) (SG) (PI)
                 (PI) (SG) (SG) (PI) (PI) (?A) (?A) (PHI) (PHI)
                 (DLTA) (DLTA) (PI) (PI) (SG) (SG) (?B) (?B) (?A)
                 (?A) (PHI) (PHI) (DLTA) (DLTA) (PI) (PI) (SG)
                 (DLTA) (DLTA) (PI) (PI) (SG) (PI) (PI) (SG) (SG)
                 (DLTA) (DLTA) (PI) (PI) (SG) (PI) (PI) (SG) (SG)
                 (DLTA) (DLTA) (PI) (PI) (SG) (SG) (PI) (PI) (SG)
                 (PI) (PI) (SG) (DLTA) (DLTA) (PI) (PI) (SG) (SG)
                 (PI) (PI) (SG) (SG) (DLTA) (DLTA) (PI) (PI) (SG)
                 (PI) (PI) (SG) (SG) (PI) (PI) (SG) (SG) (PI) (PI)
                 (SG) (SG) (PI) (PI) (SG) (SG) (PI) (PI) (SG) (SG)
                 (SG) (SG) (SG) (SG)
 The electronic state is 1-SG.
 Alpha  occ. eigenvalues -- -332.50419 -41.67737 -35.81781 -35.81781 -35.81608
 Alpha  occ. eigenvalues --   -5.17196  -3.37910  -3.37661  -3.37661  -0.49839
 Alpha  occ. eigenvalues --   -0.49601  -0.49601  -0.49570  -0.49570  -0.33760
 Alpha virt. eigenvalues --   -0.00059   0.02618   0.02618   0.03326   0.04836
 Alpha virt. eigenvalues --    0.08889   0.08931   0.08931   0.13436   0.13524
 Alpha virt. eigenvalues --    0.13524   0.13826   0.13826   0.19657   0.22016
 Alpha virt. eigenvalues --    0.26346   0.26346   0.27732   0.31929   0.31929
 Alpha virt. eigenvalues --    0.39249   0.43955   0.43955   0.44704   0.44704
 Alpha virt. eigenvalues --    0.53535   0.63957   0.66297   0.71503   0.71503
 Alpha virt. eigenvalues --    0.76119   0.78612   0.78612   0.82329   0.82329
 Alpha virt. eigenvalues --    0.92790   0.98430   0.98430   0.98950   0.98950
 Alpha virt. eigenvalues --    1.11736   1.11736   1.16576   1.16576   1.21817
 Alpha virt. eigenvalues --    1.21817   1.22670   1.36176   1.50972   1.50972
 Alpha virt. eigenvalues --    1.66755   1.66755   1.68883   1.93468   1.94864
 Alpha virt. eigenvalues --    1.94864   2.02336   2.03953   2.03953   2.46304
 Alpha virt. eigenvalues --    2.46304   2.47152   2.53921   2.53921   2.56629
 Alpha virt. eigenvalues --    2.56629   2.74125   2.96562   2.96562   2.98775
 Alpha virt. eigenvalues --    2.98775   2.99164   2.99703   2.99703   3.03789
 Alpha virt. eigenvalues --    3.03789   3.09544   3.09544   3.34235   3.42691
 Alpha virt. eigenvalues --    3.42691   3.43301   3.43301   3.48545   3.48724
 Alpha virt. eigenvalues --    3.48724   3.81262   3.81262   4.26869   4.37770
 Alpha virt. eigenvalues --    4.37770   4.72402   6.38030   6.38848   6.38848
 Alpha virt. eigenvalues --    6.54208   6.66701   6.66701   6.67268   6.67268
 Alpha virt. eigenvalues --    6.67815   6.67815   6.80872   6.80872   7.07408
 Alpha virt. eigenvalues --    7.07408   7.09346   7.14298   7.54790   7.54790
 Alpha virt. eigenvalues --    7.60132   7.60132   7.84798   7.84798   8.11526
 Alpha virt. eigenvalues --    8.35721   8.35721   8.55399   8.55399   8.84628
 Alpha virt. eigenvalues --    8.98478   8.98478   9.15850   9.15850   9.18533
 Alpha virt. eigenvalues --    9.18533   9.28420   9.30020   9.30020   9.34882
 Alpha virt. eigenvalues --    9.34882   9.34946   9.34946   9.35296   9.35296
 Alpha virt. eigenvalues --    9.40311   9.40311   9.45368   9.49683   9.49683
 Alpha virt. eigenvalues --   10.19079  10.19079  10.37270  11.35433  13.84621
 Alpha virt. eigenvalues --   13.84621  13.88779  13.88779  13.90731  14.08353
 Alpha virt. eigenvalues --   14.08353  14.63567  18.40022  18.40022  18.43049
 Alpha virt. eigenvalues --   18.43049  18.62226  18.62226  19.10991  21.63508
 Alpha virt. eigenvalues --   21.63508  21.65200  21.65200  21.75222  21.75222
 Alpha virt. eigenvalues --   21.89016  21.89016  21.91387  23.04130  23.48589
 Alpha virt. eigenvalues --   23.48589  23.48601  23.48601  23.48798  23.48798
 Alpha virt. eigenvalues --   23.51285  23.51285  23.67079  23.67079  23.79512
 Alpha virt. eigenvalues --   25.95595  25.95595  26.01277  26.01277  26.10783
 Alpha virt. eigenvalues --   26.62338  27.19344  27.19344  27.74816  45.14263
 Alpha virt. eigenvalues --   45.14263  45.16503  45.16503  45.27915  45.27915
 Alpha virt. eigenvalues --   45.47022  45.47022  45.47660  45.53775  45.53775
 Alpha virt. eigenvalues --   45.80977  49.05827  49.20893  49.20893  49.63094
 Alpha virt. eigenvalues --   49.63094  49.64402  49.64402  49.71077  49.71077
 Alpha virt. eigenvalues --   49.81111  49.81111  49.84991  51.17241  54.22321
 Alpha virt. eigenvalues --   54.22321  54.22585  54.22585  54.22834  54.22834
 Alpha virt. eigenvalues --   54.24077  54.24077  54.31504  54.31504  54.42974
 Alpha virt. eigenvalues --   76.45355  76.45355  76.50576  76.50576  76.64443
 Alpha virt. eigenvalues --   85.90453  85.90453  86.14359 115.26767 130.81516
 Alpha virt. eigenvalues --  130.81516 130.86362 130.86362 130.99832 148.26707
 Alpha virt. eigenvalues --  148.26707 148.51253 156.69609 252.57500 252.57500
 Alpha virt. eigenvalues --  252.61534 252.61534 252.72398 264.44020 264.44858
 Alpha virt. eigenvalues --  264.44858 277.07703 502.53062 502.53062 502.66379
 Alpha virt. eigenvalues --  591.42341 591.42341 591.45346 591.45346 591.54117
 Alpha virt. eigenvalues --  665.861711013.052691013.052691013.175701545.06387
 Alpha virt. eigenvalues -- 1774.061631774.061631774.080281774.080281774.13551
 Alpha virt. eigenvalues -- 2129.535712129.535712129.638233440.477224600.30729
 Alpha virt. eigenvalues -- 4600.307294600.383357337.41829********************
 Alpha virt. eigenvalues -- **************************************************
 Alpha virt. eigenvalues -- **************************************************
 Alpha virt. eigenvalues -- ****************************************
     Molecular Orbital Coefficients:
                          11        12        13        14        15
                           O         O         O         O         O
     Eigenvalues --    -0.49601  -0.49601  -0.49570  -0.49570  -0.33760
   1 1   Cu 1S          0.00000   0.00000   0.00000   0.00000  -0.00000
   2        2S          0.00000   0.00000   0.00000   0.00000  -0.00000
   3        3S          0.00000   0.00000   0.00000   0.00000  -0.00001
   4        4S          0.00000   0.00000   0.00000   0.00000  -0.00002
   5        5S          0.00000   0.00000   0.00000   0.00000  -0.00005
   6        6S          0.00000   0.00000   0.00000   0.00000  -0.00011
   7        7S          0.00000   0.00000   0.00000   0.00000  -0.00027
   8        8S          0.00000   0.00000   0.00000   0.00000  -0.00065
   9        9S          0.00000   0.00000   0.00000   0.00000  -0.00152
  10       10S          0.00000   0.00000   0.00000   0.00000  -0.00335
  11       11S          0.00000   0.00000   0.00000   0.00000  -0.00643
  12       12S          0.00000   0.00000   0.00000   0.00000  -0.00977
  13       13S          0.00000   0.00000   0.00000   0.00000  -0.00696
  14       14S          0.00000   0.00000   0.00000  -0.00000   0.01518
  15       15S          0.00000   0.00000   0.00000  -0.00000   0.05393
  16       16S          0.00000   0.00000   0.00000  -0.00000   0.06910
  17       17S          0.00000   0.00000   0.00000  -0.00000  -0.04788
  18       18S          0.00000   0.00000   0.00000   0.00000  -0.11525
  19       19S          0.00000   0.00000   0.00000  -0.00000  -0.11524
  20       20S          0.00000   0.00000   0.00000   0.00000   0.15295
  21       21S          0.00000   0.00000   0.00000  -0.00000   0.23496
  22       22S          0.00000   0.00000   0.00000  -0.00000   0.08006
  23       23S          0.00000   0.00000   0.00000   0.00000  -0.02245
  24       24S          0.00000   0.00000   0.00000  -0.00000  -0.02320
  25       25S          0.00000   0.00000   0.00000  -0.00000  -0.01113
  26       26PX         0.00000   0.00000   0.00000   0.00000   0.00000
  27       26PY         0.00000   0.00000   0.00000   0.00000   0.00000
  28       26PZ         0.00000   0.00000   0.00000  -0.00000  -0.00000
  29       27PX         0.00000   0.00000   0.00000   0.00000   0.00000
  30       27PY         0.00000   0.00000   0.00000   0.00000   0.00000
  31       27PZ         0.00000   0.00000   0.00000  -0.00000  -0.00001
  32       28PX         0.00000   0.00000   0.00000   0.00000   0.00000
  33       28PY         0.00000   0.00000   0.00000   0.00000   0.00000
  34       28PZ         0.00000   0.00000   0.00000  -0.00000  -0.00002
  35       29PX         0.00000   0.00001   0.00000   0.00000   0.00000
  36       29PY         0.00001   0.00000   0.00000   0.00000   0.00000
  37       29PZ         0.00000   0.00000   0.00000  -0.00000  -0.00009
  38       30PX         0.00000   0.00005   0.00000   0.00000   0.00000
  39       30PY         0.00005   0.00000   0.00000   0.00000   0.00000
  40       30PZ         0.00000   0.00000   0.00000  -0.00000  -0.00031
  41       31PX         0.00000   0.00015   0.00000   0.00000   0.00000
  42       31PY         0.00015   0.00000   0.00000   0.00000   0.00000
  43       31PZ         0.00000   0.00000   0.00000  -0.00000  -0.00093
  44       32PX         0.00000   0.00039   0.00000   0.00000   0.00000
  45       32PY         0.00039   0.00000   0.00000   0.00000   0.00000
  46       32PZ         0.00000   0.00000   0.00000  -0.00000  -0.00250
  47       33PX         0.00000   0.00085   0.00000   0.00000   0.00000
  48       33PY         0.00085   0.00000   0.00000   0.00000   0.00000
  49       33PZ         0.00000   0.00000   0.00000  -0.00000  -0.00545
  50       34PX         0.00000   0.00148   0.00000   0.00000   0.00000
  51       34PY         0.00148   0.00000   0.00000   0.00000   0.00000
  52       34PZ         0.00000   0.00000   0.00000  -0.00000  -0.00947
  53       35PX         0.00000   0.00162   0.00000   0.00000   0.00000
  54       35PY         0.00162   0.00000   0.00000   0.00000   0.00000
  55       35PZ         0.00000   0.00000   0.00000  -0.00000  -0.01035
  56       36PX         0.00000  -0.00035   0.00000   0.00000   0.00000
  57       36PY        -0.00035   0.00000   0.00000   0.00000   0.00000
  58       36PZ         0.00000   0.00000   0.00000   0.00000   0.00210
  59       37PX         0.00000  -0.00236   0.00000   0.00000   0.00000
  60       37PY        -0.00236   0.00000   0.00000   0.00000   0.00000
  61       37PZ         0.00000   0.00000   0.00000  -0.00000   0.01487
  62       38PX         0.00000  -0.00337   0.00000   0.00000   0.00000
  63       38PY        -0.00337   0.00000   0.00000   0.00000   0.00000
  64       38PZ         0.00000   0.00000   0.00000  -0.00000   0.02140
  65       39PX         0.00000  -0.00646   0.00000   0.00000   0.00000
  66       39PY        -0.00646   0.00000   0.00000   0.00000   0.00000
  67       39PZ         0.00000   0.00000   0.00000   0.00000   0.03985
  68       40PX         0.00000   0.00180   0.00000   0.00000   0.00000
  69       40PY         0.00180   0.00000   0.00000   0.00000   0.00000
  70       40PZ         0.00000   0.00000   0.00000  -0.00000   0.00591
  71       41PX         0.00000   0.01525   0.00000   0.00000   0.00000
  72       41PY         0.01525   0.00000   0.00000   0.00000   0.00000
  73       41PZ         0.00000   0.00000   0.00000  -0.00000  -0.05463
  74       42PX         0.00000   0.00618   0.00000   0.00000   0.00000
  75       42PY         0.00618   0.00000   0.00000   0.00000   0.00000
  76       42PZ         0.00000   0.00000   0.00000   0.00000  -0.05912
  77       43PX         0.00000  -0.00135   0.00000   0.00000   0.00000
  78       43PY        -0.00135   0.00000   0.00000   0.00000   0.00000
  79       43PZ         0.00000   0.00000   0.00000  -0.00000  -0.01737
  80       44PX         0.00000   0.00061   0.00000   0.00000   0.00000
  81       44PY         0.00061   0.00000   0.00000   0.00000   0.00000
  82       44PZ         0.00000   0.00000   0.00000  -0.00000  -0.00384
  83       45PX         0.00000  -0.00236   0.00000   0.00000   0.00000
  84       45PY        -0.00236   0.00000   0.00000   0.00000   0.00000
  85       45PZ         0.00000   0.00000   0.00000   0.00000   0.01438
  86       46PX         0.00000   0.00037   0.00000   0.00000   0.00000
  87       46PY         0.00037   0.00000   0.00000   0.00000   0.00000
  88       46PZ         0.00000   0.00000   0.00000   0.00000   0.00375
  89       47D 0        0.00000   0.00000   0.00000  -0.00000  -0.00009
  90       47D+1        0.00000   0.00028   0.00000   0.00000   0.00000
  91       47D-1        0.00028   0.00000   0.00000   0.00000   0.00000
  92       47D+2        0.00000   0.00000   0.00000   0.00028   0.00000
  93       47D-2        0.00000   0.00000   0.00028   0.00000   0.00000
  94       48D 0        0.00000   0.00000   0.00000  -0.00000  -0.00076
  95       48D+1        0.00000   0.00241   0.00000   0.00000   0.00000
  96       48D-1        0.00241   0.00000   0.00000   0.00000   0.00000
  97       48D+2        0.00000   0.00000   0.00000   0.00242   0.00000
  98       48D-2        0.00000   0.00000   0.00242   0.00000   0.00000
  99       49D 0        0.00000   0.00000   0.00000  -0.00000  -0.00396
 100       49D+1        0.00000   0.01255   0.00000   0.00000   0.00000
 101       49D-1        0.01255   0.00000   0.00000   0.00000   0.00000
 102       49D+2        0.00000   0.00000   0.00000   0.01258   0.00000
 103       49D-2        0.00000   0.00000   0.01258   0.00000   0.00000
 104       50D 0        0.00000   0.00000   0.00000  -0.00000  -0.01391
 105       50D+1        0.00000   0.04394   0.00000   0.00000   0.00000
 106       50D-1        0.04394   0.00000   0.00000   0.00000   0.00000
 107       50D+2        0.00000   0.00000   0.00000   0.04407   0.00000
 108       50D-2        0.00000   0.00000   0.04407   0.00000   0.00000
 109       51D 0        0.00000   0.00000   0.00000  -0.00000  -0.03581
 110       51D+1        0.00000   0.11393   0.00000   0.00000   0.00000
 111       51D-1        0.11393   0.00000   0.00000   0.00000   0.00000
 112       51D+2        0.00000   0.00000   0.00000   0.11415   0.00000
 113       51D-2        0.00000   0.00000   0.11415   0.00000   0.00000
 114       52D 0        0.00000   0.00000   0.00000  -0.00000  -0.06512
 115       52D+1        0.00000   0.21204   0.00000   0.00000   0.00000
 116       52D-1        0.21204   0.00000   0.00000   0.00000   0.00000
 117       52D+2        0.00000   0.00000   0.00000   0.21171   0.00000
 118       52D-2        0.00000   0.00000   0.21171   0.00000   0.00000
 119       53D 0        0.00000   0.00000   0.00000  -0.00000  -0.08853
 120       53D+1        0.00000   0.28411   0.00000   0.00000   0.00000
 121       53D-1        0.28411   0.00000   0.00000   0.00000   0.00000
 122       53D+2        0.00000   0.00000   0.00000   0.28421   0.00000
 123       53D-2        0.00000   0.00000   0.28421   0.00000   0.00000
 124       54D 0        0.00000   0.00000   0.00000  -0.00000  -0.09283
 125       54D+1        0.00000   0.29180   0.00000   0.00000   0.00000
 126       54D-1        0.29180   0.00000   0.00000   0.00000   0.00000
 127       54D+2        0.00000   0.00000   0.00000   0.29275   0.00000
 128       54D-2        0.00000   0.00000   0.29275   0.00000   0.00000
 129       55D 0        0.00000   0.00000   0.00000  -0.00000  -0.07206
 130       55D+1        0.00000   0.24006   0.00000   0.00000   0.00000
 131       55D-1        0.24006   0.00000   0.00000   0.00000   0.00000
 132       55D+2        0.00000   0.00000   0.00000   0.24008   0.00000
 133       55D-2        0.00000   0.00000   0.24008   0.00000   0.00000
 134       56D 0        0.00000   0.00000   0.00000   0.00000  -0.04413
 135       56D+1        0.00000   0.14919   0.00000   0.00000   0.00000
 136       56D-1        0.14919   0.00000   0.00000   0.00000   0.00000
 137       56D+2        0.00000   0.00000   0.00000   0.14957  -0.00000
 138       56D-2        0.00000   0.00000   0.14957   0.00000   0.00000
 139       57D 0        0.00000   0.00000   0.00000  -0.00000  -0.01675
 140       57D+1        0.00000   0.04796   0.00000   0.00000   0.00000
 141       57D-1        0.04796   0.00000   0.00000   0.00000   0.00000
 142       57D+2        0.00000   0.00000   0.00000   0.04638  -0.00000
 143       57D-2        0.00000   0.00000   0.04638   0.00000   0.00000
 144       58D 0        0.00000   0.00000   0.00000   0.00000  -0.00104
 145       58D+1        0.00000   0.00036   0.00000   0.00000   0.00000
 146       58D-1        0.00036   0.00000   0.00000   0.00000   0.00000
 147       58D+2        0.00000   0.00000   0.00000   0.00080  -0.00000
 148       58D-2        0.00000   0.00000   0.00080   0.00000   0.00000
 149       59D 0        0.00000   0.00000   0.00000   0.00000  -0.00207
 150       59D+1        0.00000   0.00039   0.00000   0.00000   0.00000
 151       59D-1        0.00039   0.00000   0.00000   0.00000   0.00000
 152       59D+2        0.00000   0.00000   0.00000   0.00140  -0.00000
 153       59D-2        0.00000   0.00000   0.00140   0.00000   0.00000
 154       60D 0        0.00000   0.00000   0.00000   0.00000  -0.00110
 155       60D+1        0.00000   0.00224   0.00000   0.00000   0.00000
 156       60D-1        0.00224   0.00000   0.00000   0.00000   0.00000
 157       60D+2        0.00000   0.00000   0.00000   0.00100  -0.00000
 158       60D-2        0.00000   0.00000   0.00100   0.00000   0.00000
 159       61F 0        0.00000   0.00000   0.00000  -0.00000  -0.00011
 160       61F+1        0.00000   0.00019   0.00000   0.00000   0.00000
 161       61F-1        0.00019   0.00000   0.00000   0.00000   0.00000
 162       61F+2        0.00000   0.00000   0.00000   0.00015   0.00000
 163       61F-2        0.00000   0.00000   0.00015   0.00000   0.00000
 164       61F+3        0.00000  -0.00000   0.00000   0.00000   0.00000
 165       61F-3       -0.00000   0.00000   0.00000   0.00000   0.00000
 166       62F 0        0.00000   0.00000   0.00000  -0.00000  -0.00038
 167       62F+1        0.00000   0.00049   0.00000   0.00000   0.00000
 168       62F-1        0.00049   0.00000   0.00000   0.00000   0.00000
 169       62F+2        0.00000   0.00000   0.00000   0.00041   0.00000
 170       62F-2        0.00000   0.00000   0.00041   0.00000   0.00000
 171       62F+3        0.00000  -0.00000   0.00000   0.00000   0.00000
 172       62F-3       -0.00000   0.00000   0.00000   0.00000   0.00000
 173       63F 0        0.00000   0.00000   0.00000  -0.00000  -0.00118
 174       63F+1        0.00000   0.00158   0.00000   0.00000   0.00000
 175       63F-1        0.00158   0.00000   0.00000   0.00000   0.00000
 176       63F+2        0.00000   0.00000   0.00000   0.00123   0.00000
 177       63F-2        0.00000   0.00000   0.00123   0.00000   0.00000
 178       63F+3        0.00000  -0.00000   0.00000   0.00000   0.00000
 179       63F-3       -0.00000   0.00000   0.00000   0.00000   0.00000
 180       64F 0        0.00000   0.00000   0.00000  -0.00000  -0.00517
 181       64F+1        0.00000   0.00455   0.00000   0.00000   0.00000
 182       64F-1        0.00455   0.00000   0.00000   0.00000   0.00000
 183       64F+2        0.00000   0.00000   0.00000   0.00392   0.00000
 184       64F-2        0.00000   0.00000   0.00392   0.00000   0.00000
 185       64F+3        0.00000  -0.00000   0.00000   0.00000   0.00000
 186       64F-3       -0.00000   0.00000   0.00000   0.00000   0.00000
 187       65F 0        0.00000   0.00000   0.00000  -0.00000  -0.00539
 188       65F+1        0.00000   0.00665   0.00000   0.00000   0.00000
 189       65F-1        0.00665   0.00000   0.00000   0.00000   0.00000
 190       65F+2        0.00000   0.00000   0.00000   0.00580   0.00000
 191       65F-2        0.00000   0.00000   0.00580   0.00000   0.00000
 192       65F+3        0.00000  -0.00000   0.00000   0.00000   0.00000
 193       65F-3       -0.00000   0.00000   0.00000   0.00000   0.00000
 194       66G 0        0.00000   0.00000   0.00000  -0.00000   0.00001
 195       66G+1        0.00000  -0.00002   0.00000   0.00000   0.00000
 196       66G-1       -0.00002   0.00000   0.00000   0.00000   0.00000
 197       66G+2        0.00000   0.00000   0.00000  -0.00001  -0.00000
 198       66G-2        0.00000   0.00000  -0.00001   0.00000   0.00000
 199       66G+3        0.00000  -0.00000   0.00000   0.00000   0.00000
 200       66G-3       -0.00000   0.00000   0.00000   0.00000   0.00000
 201       66G+4        0.00000   0.00000   0.00000  -0.00000  -0.00000
 202       66G-4        0.00000   0.00000  -0.00000   0.00000   0.00000
 203       67G 0        0.00000   0.00000   0.00000  -0.00000   0.00002
 204       67G+1        0.00000  -0.00001   0.00000   0.00000   0.00000
 205       67G-1       -0.00001   0.00000   0.00000   0.00000   0.00000
 206       67G+2        0.00000   0.00000   0.00000  -0.00000  -0.00000
 207       67G-2        0.00000   0.00000  -0.00000   0.00000   0.00000
 208       67G+3        0.00000  -0.00000   0.00000   0.00000   0.00000
 209       67G-3       -0.00000   0.00000   0.00000   0.00000   0.00000
 210       67G+4        0.00000   0.00000   0.00000  -0.00000   0.00000
 211       67G-4        0.00000   0.00000  -0.00000   0.00000   0.00000
 212       68G 0        0.00000   0.00000   0.00000   0.00000   0.00011
 213       68G+1        0.00000   0.00011   0.00000   0.00000   0.00000
 214       68G-1        0.00011   0.00000   0.00000   0.00000   0.00000
 215       68G+2        0.00000   0.00000   0.00000   0.00010  -0.00000
 216       68G-2        0.00000   0.00000   0.00010   0.00000   0.00000
 217       68G+3        0.00000   0.00000   0.00000   0.00000   0.00000
 218       68G-3        0.00000   0.00000   0.00000   0.00000   0.00000
 219       68G+4        0.00000   0.00000   0.00000   0.00000  -0.00000
 220       68G-4        0.00000   0.00000   0.00000   0.00000   0.00000
 221       69G 0        0.00000   0.00000   0.00000  -0.00000   0.00064
 222       69G+1        0.00000   0.00040   0.00000   0.00000   0.00000
 223       69G-1        0.00040   0.00000   0.00000   0.00000   0.00000
 224       69G+2        0.00000   0.00000   0.00000   0.00008  -0.00000
 225       69G-2        0.00000   0.00000   0.00008   0.00000   0.00000
 226       69G+3        0.00000   0.00000   0.00000   0.00000   0.00000
 227       69G-3        0.00000   0.00000   0.00000   0.00000   0.00000
 228       69G+4        0.00000   0.00000   0.00000   0.00000   0.00000
 229       69G-4        0.00000   0.00000   0.00000   0.00000   0.00000
 230       70H 0        0.00000   0.00000   0.00000  -0.00000   0.00001
 231       70H+1        0.00000  -0.00001   0.00000   0.00000   0.00000
 232       70H-1       -0.00001   0.00000   0.00000   0.00000   0.00000
 233       70H+2        0.00000   0.00000   0.00000  -0.00000   0.00000
 234       70H-2        0.00000   0.00000  -0.00000   0.00000   0.00000
 235       70H+3        0.00000  -0.00000   0.00000   0.00000   0.00000
 236       70H-3       -0.00000   0.00000   0.00000   0.00000   0.00000
 237       70H+4        0.00000   0.00000   0.00000  -0.00000  -0.00000
 238       70H-4        0.00000   0.00000  -0.00000   0.00000   0.00000
 239       70H+5        0.00000  -0.00000   0.00000   0.00000   0.00000
 240       70H-5       -0.00000   0.00000   0.00000   0.00000   0.00000
 241       71H 0        0.00000   0.00000   0.00000   0.00000  -0.00001
 242       71H+1        0.00000   0.00002   0.00000   0.00000   0.00000
 243       71H-1        0.00002   0.00000   0.00000   0.00000   0.00000
 244       71H+2        0.00000   0.00000   0.00000   0.00000   0.00000
 245       71H-2        0.00000   0.00000   0.00000   0.00000   0.00000
 246       71H+3        0.00000  -0.00000   0.00000   0.00000   0.00000
 247       71H-3       -0.00000   0.00000   0.00000   0.00000   0.00000
 248       71H+4        0.00000   0.00000   0.00000  -0.00000   0.00000
 249       71H-4        0.00000   0.00000  -0.00000   0.00000   0.00000
 250       71H+5        0.00000   0.00000   0.00000   0.00000   0.00000
 251       71H-5        0.00000   0.00000   0.00000   0.00000   0.00000
 252       72H 0        0.00000   0.00000   0.00000  -0.00000  -0.00003
 253       72H+1        0.00000  -0.00006   0.00000   0.00000   0.00000
 254       72H-1       -0.00006   0.00000   0.00000   0.00000   0.00000
 255       72H+2        0.00000   0.00000   0.00000   0.00001   0.00000
 256       72H-2        0.00000   0.00000   0.00001   0.00000   0.00000
 257       72H+3        0.00000   0.00000   0.00000   0.00000   0.00000
 258       72H-3        0.00000   0.00000   0.00000   0.00000   0.00000
 259       72H+4        0.00000   0.00000   0.00000   0.00000  -0.00000
 260       72H-4        0.00000   0.00000   0.00000   0.00000   0.00000
 261       72H+5        0.00000  -0.00000   0.00000   0.00000   0.00000
 262       72H-5       -0.00000   0.00000   0.00000   0.00000   0.00000
 263 2   H  1S          0.00000   0.00000   0.00000  -0.00000   0.00134
 264        2S          0.00000   0.00000   0.00000   0.00000   0.01022
 265        3S          0.00000   0.00000   0.00000  -0.00000   0.04828
 266        4S          0.00000   0.00000   0.00000   0.00000   0.14843
 267        5S          0.00000   0.00000   0.00000  -0.00000   0.28485
 268        6S          0.00000   0.00000   0.00000   0.00000   0.24272
 269        7S          0.00000   0.00000   0.00000   0.00000   0.03007
 270        8PX         0.00000  -0.00063   0.00000   0.00000   0.00000
 271        8PY        -0.00063   0.00000   0.00000   0.00000   0.00000
 272        8PZ         0.00000   0.00000   0.00000   0.00000   0.00056
 273        9PX         0.00000  -0.00303   0.00000   0.00000   0.00000
 274        9PY        -0.00303   0.00000   0.00000   0.00000   0.00000
 275        9PZ         0.00000   0.00000   0.00000   0.00000   0.00486
 276       10PX         0.00000  -0.00568   0.00000   0.00000   0.00000
 277       10PY        -0.00568   0.00000   0.00000   0.00000   0.00000
 278       10PZ         0.00000   0.00000   0.00000  -0.00000   0.01525
 279       11PX         0.00000   0.00141   0.00000   0.00000   0.00000
 280       11PY         0.00141   0.00000   0.00000   0.00000   0.00000
 281       11PZ         0.00000   0.00000   0.00000   0.00000   0.00582
 282       12D 0        0.00000   0.00000   0.00000  -0.00000   0.00010
 283       12D+1        0.00000  -0.00032   0.00000   0.00000   0.00000
 284       12D-1       -0.00032   0.00000   0.00000   0.00000   0.00000
 285       12D+2        0.00000   0.00000   0.00000   0.00002  -0.00000
 286       12D-2        0.00000   0.00000   0.00002   0.00000   0.00000
 287       13D 0        0.00000   0.00000   0.00000   0.00000   0.00148
 288       13D+1        0.00000  -0.00162   0.00000   0.00000   0.00000
 289       13D-1       -0.00162   0.00000   0.00000   0.00000   0.00000
 290       13D+2        0.00000   0.00000   0.00000   0.00063  -0.00000
 291       13D-2        0.00000   0.00000   0.00063   0.00000   0.00000
 292       14D 0        0.00000   0.00000   0.00000  -0.00000  -0.00116
 293       14D+1        0.00000  -0.00046   0.00000   0.00000   0.00000
 294       14D-1       -0.00046   0.00000   0.00000   0.00000   0.00000
 295       14D+2        0.00000   0.00000   0.00000  -0.00022  -0.00000
 296       14D-2        0.00000   0.00000  -0.00022   0.00000   0.00000
 297       15F 0        0.00000   0.00000   0.00000  -0.00000   0.00007
 298       15F+1        0.00000  -0.00035   0.00000   0.00000   0.00000
 299       15F-1       -0.00035   0.00000   0.00000   0.00000   0.00000
 300       15F+2        0.00000   0.00000   0.00000   0.00013  -0.00000
 301       15F-2        0.00000   0.00000   0.00013   0.00000   0.00000
 302       15F+3        0.00000   0.00000   0.00000   0.00000   0.00000
 303       15F-3        0.00000   0.00000   0.00000   0.00000   0.00000
 304       16F 0        0.00000   0.00000   0.00000  -0.00000  -0.00050
 305       16F+1        0.00000  -0.00006   0.00000   0.00000   0.00000
 306       16F-1       -0.00006   0.00000   0.00000   0.00000   0.00000
 307       16F+2        0.00000   0.00000   0.00000   0.00014  -0.00000
 308       16F-2        0.00000   0.00000   0.00014   0.00000   0.00000
 309       16F+3        0.00000  -0.00000   0.00000   0.00000   0.00000
 310       16F-3       -0.00000   0.00000   0.00000   0.00000   0.00000
                          16        17        18        19        20
                           V         V         V         V         V
     Eigenvalues --    -0.00059   0.02618   0.02618   0.03326   0.04836
   1 1   Cu 1S         -0.00000   0.00000   0.00000  -0.00000  -0.00000
   2        2S         -0.00000   0.00000   0.00000  -0.00000  -0.00000
   3        3S         -0.00000   0.00000   0.00000  -0.00000  -0.00000
   4        4S         -0.00001   0.00000   0.00000  -0.00000  -0.00001
   5        5S         -0.00002   0.00000   0.00000  -0.00000  -0.00003
   6        6S         -0.00004   0.00000   0.00000  -0.00001  -0.00006
   7        7S         -0.00010   0.00000   0.00000  -0.00002  -0.00014
   8        8S         -0.00023   0.00000   0.00000  -0.00006  -0.00037
   9        9S         -0.00055   0.00000   0.00000  -0.00014  -0.00078
  10       10S         -0.00116   0.00000   0.00000  -0.00030  -0.00199
  11       11S         -0.00236   0.00000   0.00000  -0.00060  -0.00315
  12       12S         -0.00328   0.00000   0.00000  -0.00084  -0.00635
  13       13S         -0.00288   0.00000   0.00000  -0.00074  -0.00164
  14       14S          0.00653   0.00000   0.00000   0.00170   0.00220
  15       15S          0.01547   0.00000   0.00000   0.00376   0.04896
  16       16S          0.05990   0.00000   0.00000   0.02077  -0.15396
  17       17S         -0.01096   0.00000   0.00000   0.00049  -0.05944
  18       18S         -0.09198   0.00000   0.00000  -0.03149   0.22300
  19       19S         -0.02646   0.00000   0.00000   0.00882  -0.14107
  20       20S         -0.06393   0.00000   0.00000  -0.08252   0.35037
  21       21S          0.27205   0.00000   0.00000  -0.94912  -0.77426
  22       22S         -0.40380   0.00000   0.00000  -1.02887   2.67513
  23       23S         -0.04534   0.00000   0.00000  -0.01824   0.19095
  24       24S          0.03493   0.00000   0.00000   0.00994  -0.24909
  25       25S          0.81245   0.00000   0.00000  -3.94625  -1.33124
  26       26PX         0.00000   0.00000   0.00000   0.00000   0.00000
  27       26PY         0.00000   0.00000   0.00000   0.00000   0.00000
  28       26PZ         0.00000   0.00000   0.00000  -0.00000   0.00000
  29       27PX         0.00000   0.00000   0.00000   0.00000   0.00000
  30       27PY         0.00000   0.00000   0.00000   0.00000   0.00000
  31       27PZ         0.00000   0.00000   0.00000  -0.00000   0.00001
  32       28PX         0.00000   0.00000   0.00001   0.00000   0.00000
  33       28PY         0.00000   0.00001   0.00000   0.00000   0.00000
  34       28PZ         0.00002   0.00000   0.00000  -0.00000   0.00002
  35       29PX         0.00000   0.00000   0.00003   0.00000   0.00000
  36       29PY         0.00000   0.00003   0.00000   0.00000   0.00000
  37       29PZ         0.00006   0.00000   0.00000  -0.00001   0.00008
  38       30PX         0.00000   0.00000   0.00012   0.00000   0.00000
  39       30PY         0.00000   0.00012   0.00000   0.00000   0.00000
  40       30PZ         0.00023   0.00000   0.00000  -0.00003   0.00021
  41       31PX         0.00000   0.00000   0.00026   0.00000   0.00000
  42       31PY         0.00000   0.00026   0.00000   0.00000   0.00000
  43       31PZ         0.00067   0.00000   0.00000  -0.00010   0.00085
  44       32PX         0.00000   0.00000   0.00100   0.00000   0.00000
  45       32PY         0.00000   0.00100   0.00000   0.00000   0.00000
  46       32PZ         0.00192   0.00000   0.00000  -0.00020   0.00166
  47       33PX         0.00000   0.00000   0.00134   0.00000   0.00000
  48       33PY         0.00000   0.00134   0.00000   0.00000   0.00000
  49       33PZ         0.00386   0.00000   0.00000  -0.00061   0.00542
  50       34PX         0.00000   0.00000   0.00488   0.00000   0.00000
  51       34PY         0.00000   0.00488   0.00000   0.00000   0.00000
  52       34PZ         0.00769   0.00000   0.00000  -0.00050   0.00384
  53       35PX         0.00000   0.00000  -0.00559   0.00000   0.00000
  54       35PY         0.00000  -0.00559   0.00000   0.00000   0.00000
  55       35PZ         0.00427   0.00000   0.00000  -0.00296   0.02800
  56       36PX         0.00000   0.00000  -0.06241   0.00000   0.00000
  57       36PY         0.00000  -0.06241   0.00000   0.00000   0.00000
  58       36PZ        -0.02457   0.00000   0.00000  -0.01333   0.13154
  59       37PX         0.00000   0.00000   0.04422   0.00000   0.00000
  60       37PY         0.00000   0.04422   0.00000   0.00000   0.00000
  61       37PZ         0.00709   0.00000   0.00000   0.01198  -0.11756
  62       38PX         0.00000   0.00000   0.15881   0.00000   0.00000
  63       38PY         0.00000   0.15881   0.00000   0.00000   0.00000
  64       38PZ         0.04500   0.00000   0.00000   0.03583  -0.37496
  65       39PX         0.00000   0.00000  -0.05466   0.00000   0.00000
  66       39PY         0.00000  -0.05466   0.00000   0.00000   0.00000
  67       39PZ        -0.04434   0.00000   0.00000  -0.00273   0.06069
  68       40PX         0.00000   0.00000   0.02941   0.00000   0.00000
  69       40PY         0.00000   0.02941   0.00000   0.00000   0.00000
  70       40PZ         0.00483   0.00000   0.00000  -0.00357  -0.08161
  71       41PX         0.00000   0.00000  -0.03734   0.00000   0.00000
  72       41PY         0.00000  -0.03734   0.00000   0.00000   0.00000
  73       41PZ         0.03135   0.00000   0.00000   0.09175   0.11930
  74       42PX         0.00000   0.00000   0.18688   0.00000   0.00000
  75       42PY         0.00000   0.18688   0.00000   0.00000   0.00000
  76       42PZ         0.14370   0.00000   0.00000   0.49808  -0.02916
  77       43PX         0.00000   0.00000  -0.37652   0.00000   0.00000
  78       43PY         0.00000  -0.37652   0.00000   0.00000   0.00000
  79       43PZ         0.14778   0.00000   0.00000   0.57611   0.71795
  80       44PX         0.00000   0.00000   0.05472   0.00000   0.00000
  81       44PY         0.00000   0.05472   0.00000   0.00000   0.00000
  82       44PZ         0.02287   0.00000   0.00000   0.01139  -0.11248
  83       45PX         0.00000   0.00000  -0.17964   0.00000   0.00000
  84       45PY         0.00000  -0.17964   0.00000   0.00000   0.00000
  85       45PZ        -0.07483   0.00000   0.00000  -0.03498   0.36439
  86       46PX         0.00000   0.00000   1.19009   0.00000   0.00000
  87       46PY         0.00000   1.19009   0.00000   0.00000   0.00000
  88       46PZ         0.49106   0.00000   0.00000   2.10378  -1.03761
  89       47D 0        0.00002   0.00000   0.00000  -0.00001   0.00002
  90       47D+1        0.00000   0.00000  -0.00000   0.00000   0.00000
  91       47D-1        0.00000  -0.00000   0.00000   0.00000   0.00000
  92       47D+2        0.00000   0.00000   0.00000  -0.00000   0.00000
  93       47D-2        0.00000   0.00000   0.00000   0.00000   0.00000
  94       48D 0        0.00018   0.00000   0.00000  -0.00008   0.00015
  95       48D+1        0.00000   0.00000  -0.00002   0.00000   0.00000
  96       48D-1        0.00000  -0.00002   0.00000   0.00000   0.00000
  97       48D+2        0.00000   0.00000   0.00000  -0.00000   0.00000
[...]
  95       48D+1        0.00022   0.00011   0.00011  -0.00000
  96       48D-1        0.00022   0.00011   0.00011  -0.00000
  97       48D+2        0.00023   0.00011   0.00011  -0.00000
  98       48D-2        0.00023   0.00011   0.00011  -0.00000
  99       49D 0        0.00329   0.00165   0.00165  -0.00000
 100       49D+1        0.00345   0.00172   0.00172  -0.00000
 101       49D-1        0.00345   0.00172   0.00172  -0.00000
 102       49D+2        0.00347   0.00173   0.00173  -0.00000
 103       49D-2        0.00347   0.00173   0.00173  -0.00000
 104       50D 0        0.02497   0.01249   0.01249  -0.00000
 105       50D+1        0.02613   0.01306   0.01306  -0.00000
 106       50D-1        0.02613   0.01306   0.01306  -0.00000
 107       50D+2        0.02628   0.01314   0.01314  -0.00000
 108       50D-2        0.02628   0.01314   0.01314  -0.00000
 109       51D 0        0.11134   0.05567   0.05567  -0.00000
 110       51D+1        0.11638   0.05819   0.05819  -0.00000
 111       51D-1        0.11638   0.05819   0.05819  -0.00000
 112       51D+2        0.11690   0.05845   0.05845  -0.00000
 113       51D-2        0.11690   0.05845   0.05845  -0.00000
 114       52D 0        0.29348   0.14674   0.14674  -0.00000
 115       52D+1        0.30583   0.15291   0.15291  -0.00000
 116       52D-1        0.30583   0.15291   0.15291  -0.00000
 117       52D+2        0.30607   0.15303   0.15303  -0.00000
 118       52D-2        0.30607   0.15303   0.15303  -0.00000
 119       53D 0        0.47075   0.23538   0.23538  -0.00000
 120       53D+1        0.48939   0.24470   0.24470  -0.00000
 121       53D-1        0.48939   0.24470   0.24470  -0.00000
 122       53D+2        0.49054   0.24527   0.24527  -0.00000
 123       53D-2        0.49054   0.24527   0.24527  -0.00000
 124       54D 0        0.49384   0.24692   0.24692  -0.00000
 125       54D+1        0.51089   0.25544   0.25544  -0.00000
 126       54D-1        0.51089   0.25544   0.25544  -0.00000
 127       54D+2        0.51312   0.25656   0.25656  -0.00000
 128       54D-2        0.51312   0.25656   0.25656  -0.00000
 129       55D 0        0.35828   0.17914   0.17914  -0.00000
 130       55D+1        0.35987   0.17994   0.17994  -0.00000
 131       55D-1        0.35987   0.17994   0.17994  -0.00000
 132       55D+2        0.35936   0.17968   0.17968  -0.00000
 133       55D-2        0.35936   0.17968   0.17968  -0.00000
 134       56D 0        0.16176   0.08088   0.08088  -0.00000
 135       56D+1        0.15627   0.07813   0.07813  -0.00000
 136       56D-1        0.15627   0.07813   0.07813  -0.00000
 137       56D+2        0.15541   0.07770   0.07770  -0.00000
 138       56D-2        0.15541   0.07770   0.07770  -0.00000
 139       57D 0        0.03124   0.01562   0.01562  -0.00000
 140       57D+1        0.02634   0.01317   0.01317  -0.00000
 141       57D-1        0.02634   0.01317   0.01317  -0.00000
 142       57D+2        0.02497   0.01249   0.01249  -0.00000
 143       57D-2        0.02497   0.01249   0.01249  -0.00000
 144       58D 0        0.00018   0.00009   0.00009  -0.00000
 145       58D+1        0.00046   0.00023   0.00023  -0.00000
 146       58D-1        0.00046   0.00023   0.00023  -0.00000
 147       58D+2        0.00101   0.00050   0.00050  -0.00000
 148       58D-2        0.00101   0.00050   0.00050  -0.00000
 149       59D 0       -0.00024  -0.00012  -0.00012   0.00000
 150       59D+1        0.00063   0.00031   0.00031  -0.00000
 151       59D-1        0.00063   0.00031   0.00031  -0.00000
 152       59D+2        0.00223   0.00112   0.00112  -0.00000
 153       59D-2        0.00223   0.00112   0.00112  -0.00000
 154       60D 0        0.00056   0.00028   0.00028  -0.00000
 155       60D+1        0.00049   0.00024   0.00024  -0.00000
 156       60D-1        0.00049   0.00024   0.00024  -0.00000
 157       60D+2        0.00021   0.00011   0.00011  -0.00000
 158       60D-2        0.00021   0.00011   0.00011  -0.00000
 159       61F 0        0.00000   0.00000   0.00000  -0.00000
 160       61F+1        0.00000   0.00000   0.00000  -0.00000
 161       61F-1        0.00000   0.00000   0.00000  -0.00000
 162       61F+2        0.00000   0.00000   0.00000  -0.00000
 163       61F-2        0.00000   0.00000   0.00000  -0.00000
 164       61F+3        0.00000   0.00000   0.00000  -0.00000
 165       61F-3       -0.00000  -0.00000  -0.00000   0.00000
 166       62F 0        0.00000   0.00000   0.00000  -0.00000
 167       62F+1        0.00000   0.00000   0.00000  -0.00000
 168       62F-1        0.00000   0.00000   0.00000  -0.00000
 169       62F+2        0.00000   0.00000   0.00000  -0.00000
 170       62F-2        0.00000   0.00000   0.00000  -0.00000
 171       62F+3       -0.00000  -0.00000  -0.00000   0.00000
 172       62F-3        0.00000   0.00000   0.00000  -0.00000
 173       63F 0        0.00003   0.00001   0.00001  -0.00000
 174       63F+1        0.00002   0.00001   0.00001  -0.00000
 175       63F-1        0.00002   0.00001   0.00001  -0.00000
 176       63F+2        0.00001   0.00001   0.00001  -0.00000
 177       63F-2        0.00001   0.00001   0.00001  -0.00000
 178       63F+3       -0.00000  -0.00000  -0.00000   0.00000
 179       63F-3       -0.00000  -0.00000  -0.00000   0.00000
 180       64F 0        0.00056   0.00028   0.00028  -0.00000
 181       64F+1        0.00007   0.00003   0.00003  -0.00000
 182       64F-1        0.00007   0.00003   0.00003   0.00000
 183       64F+2        0.00006   0.00003   0.00003  -0.00000
 184       64F-2        0.00006   0.00003   0.00003  -0.00000
 185       64F+3        0.00000   0.00000   0.00000  -0.00000
 186       64F-3       -0.00000  -0.00000  -0.00000   0.00000
 187       65F 0        0.00118   0.00059   0.00059  -0.00000
 188       65F+1        0.00007   0.00003   0.00003  -0.00000
 189       65F-1        0.00007   0.00003   0.00003  -0.00000
 190       65F+2        0.00009   0.00005   0.00005  -0.00000
 191       65F-2        0.00009   0.00005   0.00005  -0.00000
 192       65F+3        0.00000   0.00000   0.00000  -0.00000
 193       65F-3       -0.00000  -0.00000  -0.00000   0.00000
 194       66G 0        0.00000   0.00000   0.00000  -0.00000
 195       66G+1       -0.00000  -0.00000  -0.00000   0.00000
 196       66G-1       -0.00000  -0.00000  -0.00000   0.00000
 197       66G+2       -0.00000  -0.00000  -0.00000   0.00000
 198       66G-2       -0.00000  -0.00000  -0.00000   0.00000
 199       66G+3        0.00000   0.00000   0.00000  -0.00000
 200       66G-3        0.00000   0.00000   0.00000  -0.00000
 201       66G+4        0.00000   0.00000   0.00000  -0.00000
 202       66G-4        0.00000   0.00000   0.00000  -0.00000
 203       67G 0        0.00000   0.00000   0.00000  -0.00000
 204       67G+1       -0.00000  -0.00000  -0.00000   0.00000
 205       67G-1       -0.00000  -0.00000  -0.00000   0.00000
 206       67G+2       -0.00000  -0.00000  -0.00000   0.00000
 207       67G-2       -0.00000  -0.00000  -0.00000   0.00000
 208       67G+3        0.00000   0.00000   0.00000  -0.00000
 209       67G-3        0.00000   0.00000   0.00000   0.00000
 210       67G+4        0.00000   0.00000   0.00000  -0.00000
 211       67G-4       -0.00000  -0.00000  -0.00000   0.00000
 212       68G 0        0.00000   0.00000   0.00000  -0.00000
 213       68G+1        0.00000   0.00000   0.00000  -0.00000
 214       68G-1        0.00000   0.00000   0.00000  -0.00000
 215       68G+2        0.00000   0.00000   0.00000  -0.00000
 216       68G-2        0.00000   0.00000   0.00000  -0.00000
 217       68G+3       -0.00000  -0.00000  -0.00000   0.00000
 218       68G-3       -0.00000  -0.00000  -0.00000   0.00000
 219       68G+4       -0.00000  -0.00000  -0.00000   0.00000
 220       68G-4        0.00000   0.00000   0.00000  -0.00000
 221       69G 0        0.00009   0.00005   0.00005  -0.00000
 222       69G+1        0.00000   0.00000   0.00000  -0.00000
 223       69G-1        0.00000   0.00000   0.00000  -0.00000
 224       69G+2        0.00000   0.00000   0.00000  -0.00000
 225       69G-2        0.00000   0.00000   0.00000  -0.00000
 226       69G+3        0.00000   0.00000   0.00000  -0.00000
 227       69G-3        0.00000   0.00000   0.00000  -0.00000
 228       69G+4        0.00000   0.00000   0.00000  -0.00000
 229       69G-4        0.00000   0.00000   0.00000  -0.00000
 230       70H 0        0.00000   0.00000   0.00000  -0.00000
 231       70H+1        0.00000   0.00000   0.00000  -0.00000
 232       70H-1        0.00000   0.00000   0.00000  -0.00000
 233       70H+2        0.00000   0.00000   0.00000  -0.00000
 234       70H-2        0.00000   0.00000   0.00000  -0.00000
 235       70H+3        0.00000   0.00000   0.00000  -0.00000
 236       70H-3        0.00000   0.00000   0.00000  -0.00000
 237       70H+4        0.00000   0.00000   0.00000  -0.00000
 238       70H-4        0.00000   0.00000   0.00000  -0.00000
 239       70H+5       -0.00000  -0.00000  -0.00000   0.00000
 240       70H-5        0.00000   0.00000   0.00000  -0.00000
 241       71H 0       -0.00000  -0.00000  -0.00000   0.00000
 242       71H+1       -0.00000  -0.00000  -0.00000   0.00000
 243       71H-1       -0.00000  -0.00000  -0.00000   0.00000
 244       71H+2        0.00000   0.00000   0.00000  -0.00000
 245       71H-2        0.00000   0.00000   0.00000  -0.00000
 246       71H+3        0.00000   0.00000   0.00000  -0.00000
 247       71H-3        0.00000   0.00000   0.00000   0.00000
 248       71H+4       -0.00000  -0.00000  -0.00000   0.00000
 249       71H-4        0.00000   0.00000   0.00000   0.00000
 250       71H+5        0.00000   0.00000   0.00000   0.00000
 251       71H-5       -0.00000  -0.00000  -0.00000   0.00000
 252       72H 0        0.00000   0.00000   0.00000  -0.00000
 253       72H+1        0.00000   0.00000   0.00000  -0.00000
 254       72H-1        0.00000   0.00000   0.00000  -0.00000
 255       72H+2       -0.00000  -0.00000  -0.00000   0.00000
 256       72H-2       -0.00000  -0.00000  -0.00000   0.00000
 257       72H+3        0.00000   0.00000   0.00000  -0.00000
 258       72H-3        0.00000   0.00000   0.00000  -0.00000
 259       72H+4        0.00000   0.00000   0.00000  -0.00000
 260       72H-4        0.00000   0.00000   0.00000  -0.00000
 261       72H+5       -0.00000  -0.00000  -0.00000   0.00000
 262       72H-5       -0.00000  -0.00000  -0.00000   0.00000
 263 2   H  1S          0.00016   0.00008   0.00008  -0.00000
 264        2S          0.00434   0.00217   0.00217  -0.00000
 265        3S          0.04625   0.02312   0.02312  -0.00000
 266        4S          0.23947   0.11973   0.11973  -0.00000
 267        5S          0.56177   0.28089   0.28089  -0.00000
 268        6S          0.44361   0.22180   0.22180  -0.00000
 269        7S          0.03792   0.01896   0.01896  -0.00000
 270        8PX         0.00003   0.00002   0.00002  -0.00000
 271        8PY         0.00003   0.00002   0.00002  -0.00000
 272        8PZ         0.00020   0.00010   0.00010  -0.00000
 273        9PX         0.00049   0.00024   0.00024  -0.00000
 274        9PY         0.00049   0.00024   0.00024  -0.00000
 275        9PZ         0.00247   0.00124   0.00124  -0.00000
 276       10PX         0.00183   0.00092   0.00092  -0.00000
 277       10PY         0.00183   0.00092   0.00092  -0.00000
 278       10PZ         0.00607   0.00304   0.00304  -0.00000
 279       11PX        -0.00027  -0.00013  -0.00013   0.00000
 280       11PY        -0.00027  -0.00013  -0.00013   0.00000
 281       11PZ         0.00296   0.00148   0.00148  -0.00000
 282       12D 0        0.00004   0.00002   0.00002  -0.00000
 283       12D+1        0.00002   0.00001   0.00001  -0.00000
 284       12D-1        0.00002   0.00001   0.00001  -0.00000
 285       12D+2        0.00000   0.00000   0.00000  -0.00000
 286       12D-2        0.00000   0.00000   0.00000  -0.00000
 287       13D 0        0.00065   0.00033   0.00033  -0.00000
 288       13D+1        0.00048   0.00024   0.00024  -0.00000
 289       13D-1        0.00048   0.00024   0.00024  -0.00000
 290       13D+2        0.00005   0.00002   0.00002  -0.00000
 291       13D-2        0.00005   0.00002   0.00002  -0.00000
 292       14D 0        0.00008   0.00004   0.00004  -0.00000
 293       14D+1        0.00006   0.00003   0.00003  -0.00000
 294       14D-1        0.00006   0.00003   0.00003  -0.00000
 295       14D+2       -0.00005  -0.00003  -0.00003   0.00000
 296       14D-2       -0.00005  -0.00003  -0.00003   0.00000
 297       15F 0        0.00004   0.00002   0.00002  -0.00000
 298       15F+1        0.00004   0.00002   0.00002  -0.00000
 299       15F-1        0.00004   0.00002   0.00002  -0.00000
 300       15F+2        0.00000   0.00000   0.00000  -0.00000
 301       15F-2        0.00000   0.00000   0.00000  -0.00000
 302       15F+3       -0.00000  -0.00000  -0.00000   0.00000
 303       15F-3        0.00000   0.00000   0.00000  -0.00000
 304       16F 0        0.00024   0.00012   0.00012  -0.00000
 305       16F+1        0.00003   0.00001   0.00001  -0.00000
 306       16F-1        0.00003   0.00001   0.00001  -0.00000
 307       16F+2        0.00005   0.00002   0.00002  -0.00000
 308       16F-2        0.00005   0.00002   0.00002  -0.00000
 309       16F+3        0.00000   0.00000   0.00000  -0.00000
 310       16F-3        0.00000   0.00000   0.00000  -0.00000
          Condensed to atoms (all electrons):
               1          2
     1  Cu  28.273337   0.374896
     2  H    0.374896   0.976872
          Atomic-Atomic Spin Densities.
               1          2
     1  Cu  -0.000000  -0.000000
     2  H   -0.000000  -0.000000
 Mulliken charges and spin densities:
               1          2
     1  Cu   0.351767  -0.000000
     2  H   -0.351767  -0.000000
 Sum of Mulliken charges =  -0.00000  -0.00000
 Mulliken charges and spin densities with hydrogens summed into heavy atoms:
               1          2
     1  Cu  -0.000000  -0.000000
 Electronic spatial extent (au):  <R**2>=             41.9058
 Charge=              0.0000 electrons
 Dipole moment (field-independent basis, Debye):
    X=              0.0000    Y=              0.0000    Z=              4.1593  Tot=              4.1593
 Quadrupole moment (field-independent basis, Debye-Ang):
   XX=            -13.8400   YY=            -13.8400   ZZ=            -16.7984
   XY=              0.0000   XZ=              0.0000   YZ=              0.0000
 Traceless Quadrupole moment (field-independent basis, Debye-Ang):
   XX=              0.9861   YY=              0.9861   ZZ=             -1.9722
   XY=              0.0000   XZ=              0.0000   YZ=              0.0000
 Octapole moment (field-independent basis, Debye-Ang**2):
  XXX=              0.0000  YYY=              0.0000  ZZZ=             16.2317  XYY=              0.0000
  XXY=              0.0000  XXZ=              4.2965  XZZ=              0.0000  YZZ=              0.0000
  YYZ=              4.2965  XYZ=              0.0000
 Hexadecapole moment (field-independent basis, Debye-Ang**3):
 XXXX=            -16.4586 YYYY=            -16.4586 ZZZZ=            -51.2350 XXXY=              0.0000
 XXXZ=              0.0000 YYYX=              0.0000 YYYZ=              0.0000 ZZZX=              0.0000
 ZZZY=              0.0000 XXYY=             -5.4862 XXZZ=            -10.9014 YYZZ=            -10.9014
 XXYZ=              0.0000 YYXZ=              0.0000 ZZXY=              0.0000
 N-N= 9.591336947925D+00 E-N=-4.066327674157D+03  KE= 1.739227703034D+03
 Symmetry A1   KE= 1.312979139643D+03
 Symmetry A2   KE= 1.881512433432D+01
 Symmetry B1   KE= 2.037167195251D+02
 Symmetry B2   KE= 2.037167195344D+02
 Symmetry A1   SP=-3.411112300264D-15
 Symmetry A2   SP=-5.110214480801D-16
 Symmetry B1   SP=-1.379337724474D-15
 Symmetry B2   SP=-1.261431416404D-15
 Orbital energies and kinetic energies (alpha):
                                 1                 2
  11         O                -0.496009          9.365052
  12         O                -0.496009          9.365052
  13         O                -0.495696          9.407562
  14         O                -0.495696          9.407562
  15         O                -0.337602          1.625972
  16         V                -0.000586          0.206147
  17         V                 0.026176          0.045440
  18         V                 0.026176          0.045440
  19         V                 0.033264          0.044066
  20         V                 0.048359          0.319983
 Total kinetic energy from orbitals= 1.739227703034D+03
 FoFCou: FMM=F IPFlag=           8 FMFlag=           0 FMFlg1=           0
         NFxFlg=           0 DoJE=F BraDBF=T KetDBF=F FulRan=T
         wScrn=  0.000000 ICntrl=   2000500 IOpCl=  0 I1Cent=           5 NGrid=           0
         NMat0=    1 NMatS0=      1 NMatT0=    0 NMatD0=    1 NMtDS0=    0 NMtDT0=    0
 Symmetry not used in FoFCou.
                          Isotropic Fermi Contact Couplings
        Atom                 a.u.       MegaHertz       Gauss      10(-4) cm-1
     1  Cu(63)             0.00000       0.00000       0.00000       0.00000
     2  H(1)               0.00000       0.00000       0.00000       0.00000
 --------------------------------------------------------
       Center         ----  Spin Dipole Couplings  ----
                      3XX-RR        3YY-RR        3ZZ-RR
 --------------------------------------------------------
     1   Atom        0.000000      0.000000      0.000000
     2   Atom        0.000000      0.000000      0.000000
 --------------------------------------------------------
                        XY            XZ            YZ
 --------------------------------------------------------
     1   Atom        0.000000      0.000000      0.000000
     2   Atom        0.000000      0.000000      0.000000
 --------------------------------------------------------


 ---------------------------------------------------------------------------------
              Anisotropic Spin Dipole Couplings in Principal Axis System
 ---------------------------------------------------------------------------------

       Atom             a.u.   MegaHertz   Gauss  10(-4) cm-1        Axes

              Baa     0.0000     0.000     0.000     0.000  1.0000  0.0000  0.0000
     1 Cu(63) Bbb     0.0000     0.000     0.000     0.000 -0.0000  1.0000  0.0000
              Bcc     0.0000     0.000     0.000     0.000  0.0000  0.0000  1.0000
 
              Baa     0.0000     0.000     0.000     0.000  1.0000  0.0000  0.0000
     2 H(1)   Bbb     0.0000     0.000     0.000     0.000 -0.0000  1.0000  0.0000
              Bcc     0.0000     0.000     0.000     0.000  0.0000  0.0000  1.0000
 

 ---------------------------------------------------------------------------------

 No NMR shielding tensors so no spin-rotation constants.
 Leave Link  601 at Wed Apr  4 21:02:02 2018, MaxMem= 10737418240 cpu:             142.3 elap:               4.7
 (Enter /home1/apps/gaussian/16rA.03/g16/l9999.exe)

 Test job not archived.
 1\1\GINC-C427-073\SP\ROCCSD(T)-Full\Gen\Cu1H1\GWANG18\04-Apr-2018\0\\#
 P ROCCSD(T)=(MaxCyc=150, Full)/Gen SCF=(maxcycle=400, vshift=200) Inte
 gral(DKHSO, NoXCTest) Pop=Regular MaxDisk=500GB Guess=Read IOp(5/15=2)
 \\CuH\\0,1\Cu,0,0.,0.,0.\H,0,0.,0.,1.6\\Version=ES64L-G16RevA.03\State
 =1-SG\HF=-1653.7155759\MP2=-1655.296485\MP3=-1655.0589448\PUHF=-1653.7
 155759\PMP2-0=-1655.296485\MP4SDQ=-1655.2348333\CCSD=-1655.1530526\CCS
 D(T)=-1655.193392\RMSD=7.206e-09\PG=C*V [C*(H1Cu1)]\\@


 WORK FAITHFULLY FOR EIGHT HOURS A DAY AND DON'T WORRY.
 IN TIME YOU MAY BECOME BOSS AND WORK TWELVE HOURS A DAY
 AND HAVE ALL THE WORRY.
 Job cpu time:       2 days  4 hours 49 minutes 55.9 seconds.
 Elapsed time:       0 days  1 hours 39 minutes 29.7 seconds.
 File lengths (MBytes):  RWF=  15245 Int=      0 D2E=      0 Chk=     13 Scr=      1
 Normal termination of Gaussian 16 at Wed Apr  4 21:02:02 2018.
