 Entering Gaussian System, Link 0=g16
 Initial command:
 /home1/apps/gaussian/16rA.03/g16/l1.exe "/tmp/Gau-128178.inp" -scrdir="/tmp/"
 Entering Link 1 = /home1/apps/gaussian/16rA.03/g16/l1.exe PID=    128179.
  
 Copyright (c) 1988,1990,1992,1993,1995,1998,2003,2009,2016,
            Gaussian, Inc.  All Rights Reserved.
  
 This is part of the Gaussian(R) 16 program.  It is based on
 the Gaussian(R) 09 system (copyright 2009, Gaussian, Inc.),
 the Gaussian(R) 03 system (copyright 2003, Gaussian, Inc.),
 the Gaussian(R) 98 system (copyright 1998, Gaussian, Inc.),
 the Gaussian(R) 94 system (copyright 1995, Gaussian, Inc.),
 the Gaussian 92(TM) system (copyright 1992, Gaussian, Inc.),
 the Gaussian 90(TM) system (copyright 1990, Gaussian, Inc.),
 the Gaussian 88(TM) system (copyright 1988, Gaussian, Inc.),
 the Gaussian 86(TM) system (copyright 1986, Carnegie Mellon
 University), and the Gaussian 82(TM) system (copyright 1983,
 Carnegie Mellon University). Gaussian is a federally registered
 trademark of Gaussian, Inc.
  
 This software contains proprietary and confidential information,
 including trade secrets, belonging to Gaussian, Inc.
  
 This software is provided under written license and may be
 used, copied, transmitted, or stored only in accord with that
 written license.
  
 The following legend is applicable only to US Government
 contracts under FAR:
  
                    RESTRICTED RIGHTS LEGEND
  
 Use, reproduction and disclosure by the US Government is
 subject to restrictions as set forth in subparagraphs (a)
 and (c) of the Commercial Computer Software - Restricted
 Rights clause in FAR 52.227-19.
  
 Gaussian, Inc.
 340 Quinnipiac St., Bldg. 40, Wallingford CT 06492
  
  
 ---------------------------------------------------------------
 Warning -- This program may not be used in any manner that
 competes with the business of Gaussian, Inc. or will provide
 assistance to any competitor of Gaussian, Inc.  The licensee
 of this program is prohibited from giving any competitor of
 Gaussian, Inc. access to this program.  By using this program,
 the user acknowledges that Gaussian, Inc. is engaged in the
 business of creating and licensing software in the field of
 computational chemistry and represents and warrants to the
 licensee that it is not a competitor of Gaussian, Inc. and that
 it will not use this program in any manner prohibited above.
 ---------------------------------------------------------------
  

 Cite this work as:
 Gaussian 16, Revision A.03,
 M. J. Frisch, G. W. Trucks, H. B. Schlegel, G. E. Scuseria, 
 M. A. Robb, J. R. Cheeseman, G. Scalmani, V. Barone, 
 G. A. Petersson, H. Nakatsuji, X. Li, M. Caricato, A. V. Marenich, 
 J. Bloino, B. G. Janesko, R. Gomperts, B. Mennucci, H. P. Hratchian, 
 J. V. Ortiz, A. F. Izmaylov, J. L. Sonnenberg, D. Williams-Young, 
 F. Ding, F. Lipparini, F. Egidi, J. Goings, B. Peng, A. Petrone, 
 T. Henderson, D. Ranasinghe, V. G. Zakrzewski, J. Gao, N. Rega, 
 G. Zheng, W. Liang, M. Hada, M. Ehara, K. Toyota, R. Fukuda, 
 J. Hasegawa, M. Ishida, T. Nakajima, Y. Honda, O. Kitao, H. Nakai, 
 T. Vreven, K. Throssell, J. A. Montgomery, Jr., J. E. Peralta, 
 F. Ogliaro, M. J. Bearpark, J. J. Heyd, E. N. Brothers, K. N. Kudin, 
 V. N. Staroverov, T. A. Keith, R. Kobayashi, J. Normand, 
 K. Raghavachari, A. P. Rendell, J. C. Burant, S. S. Iyengar, 
 J. Tomasi, M. Cossi, J. M. Millam, M. Klene, C. Adamo, R. Cammi, 
 J. W. Ochterski, R. L. Martin, K. Morokuma, O. Farkas, 
 J. B. Foresman, and D. J. Fox, Gaussian, Inc., Wallingford CT, 2016.
 
 ******************************************
 Gaussian 16:  ES64L-G16RevA.03 25-Dec-2016
                26-Feb-2018 
 ******************************************
 %MEM=64GB
 %CPU=0-15
 SetSPE:  set environment variable "MP_BIND" = "yes"
 SetSPE:  set environment variable "MP_BLIST" = "0,1,2,3,4,5,6,7,8,9,10,11,12,13,14,15"
 Will use up to   16 processors via shared memory.
 %RWF=/scratch/04843/aannabe/gaussian/
 %Int=/scratch/04843/aannabe/gaussian/
 %D2E=/scratch/04843/aannabe/gaussian/
 %NoSave
 %CHK=CrH
 ----------------------------------------------------------------------
 #P ROCCSD(T)=(maxcyc=150, Full, SaveAmplitudes, ReadAmplitudes)/Gen 5d
  7f SCF=(maxcycles=300) Integral(NoXCTest) MaxDisk=500GB Pop=Regular P
 seudo=Read Guess=Read
 ----------------------------------------------------------------------
 1/38=1,172=1/1;
 2/12=2,17=6,18=5,40=1/2;
 3/5=7,8=11,11=2,16=1,17=8,25=1,30=1,47=8,116=101/1,2,3;
 4/5=1/1;
 5/5=2,7=300,38=6/2;
 8/5=-1,6=4,9=120000,10=90,24=1/1,4;
 9/5=7,6=150,14=2,77=1/13;
 6//1;
 99/5=1,9=1/99;
 Leave Link    1 at Mon Feb 26 08:02:37 2018, MaxMem=  8589934592 cpu:               3.5 elap:               0.2
 (Enter /home1/apps/gaussian/16rA.03/g16/l101.exe)
 ---
 CrH
 ---
 Symbolic Z-matrix:
 Charge =  0 Multiplicity = 6
 Cr                    0.        0.        0. 
 H                     0.        0.        1.6 
 
 ITRead=  0  0
 MicOpt= -1 -1
 NAtoms=      2 NQM=        2 NQMF=       0 NMMI=      0 NMMIF=      0
                NMic=       0 NMicF=      0.
                    Isotopes and Nuclear Properties:
 (Nuclear quadrupole moments (NQMom) in fm**2, nuclear magnetic moments (NMagM)
  in nuclear magnetons)

  Atom         1           2
 IAtWgt=          52           1
 AtmWgt=  51.9405097   1.0078250
 NucSpn=           0           1
 AtZEff=  -0.0000000  -0.0000000
 NQMom=    0.0000000   0.0000000
 NMagM=    0.0000000   2.7928460
 AtZNuc=  24.0000000   1.0000000
 Leave Link  101 at Mon Feb 26 08:02:37 2018, MaxMem=  8589934592 cpu:               1.5 elap:               0.1
 (Enter /home1/apps/gaussian/16rA.03/g16/l202.exe)
                          Input orientation:                          
 ---------------------------------------------------------------------
 Center     Atomic      Atomic             Coordinates (Angstroms)
 Number     Number       Type             X           Y           Z
 ---------------------------------------------------------------------
      1         24           0        0.000000    0.000000    0.000000
      2          1           0        0.000000    0.000000    1.600000
 ---------------------------------------------------------------------
 Stoichiometry    CrH(6)
 Framework group  C*V[C*(HCr)]
 Deg. of freedom     1
 Full point group                 C*V     NOp   4
 Largest Abelian subgroup         C2V     NOp   4
 Largest concise Abelian subgroup C1      NOp   1
                         Standard orientation:                         
 ---------------------------------------------------------------------
 Center     Atomic      Atomic             Coordinates (Angstroms)
 Number     Number       Type             X           Y           Z
 ---------------------------------------------------------------------
      1         24           0        0.000000    0.000000    0.064000
      2          1           0        0.000000    0.000000   -1.536000
 ---------------------------------------------------------------------
 Rotational constants (GHZ):           0.0000000         199.6816653         199.6816653
 Leave Link  202 at Mon Feb 26 08:02:37 2018, MaxMem=  8589934592 cpu:               0.3 elap:               0.1
 (Enter /home1/apps/gaussian/16rA.03/g16/l301.exe)
 General basis read from cards:  (5D, 7F)
 Centers:       1
 S 1 1.00
     Exponent=  1.1016640000D+07 Coefficients=  1.0000000000D+00
 S 1 1.00
     Exponent=  1.6494230000D+06 Coefficients=  1.0000000000D+00
 S 1 1.00
     Exponent=  3.7535890000D+05 Coefficients=  1.0000000000D+00
 S 1 1.00
     Exponent=  1.0632360000D+05 Coefficients=  1.0000000000D+00
 S 1 1.00
     Exponent=  3.4689760000D+04 Coefficients=  1.0000000000D+00
 S 1 1.00
     Exponent=  1.2524830000D+04 Coefficients=  1.0000000000D+00
 S 1 1.00
     Exponent=  4.8857520000D+03 Coefficients=  1.0000000000D+00
 S 1 1.00
     Exponent=  2.0269180000D+03 Coefficients=  1.0000000000D+00
 S 1 1.00
     Exponent=  8.8436450000D+02 Coefficients=  1.0000000000D+00
 S 1 1.00
     Exponent=  4.0231700000D+02 Coefficients=  1.0000000000D+00
 S 1 1.00
     Exponent=  1.8952710000D+02 Coefficients=  1.0000000000D+00
 S 1 1.00
     Exponent=  9.1860950000D+01 Coefficients=  1.0000000000D+00
 S 1 1.00
     Exponent=  4.5124760000D+01 Coefficients=  1.0000000000D+00
 S 1 1.00
     Exponent=  2.0625120000D+01 Coefficients=  1.0000000000D+00
 S 1 1.00
     Exponent=  1.0319730000D+01 Coefficients=  1.0000000000D+00
 S 1 1.00
     Exponent=  5.1577230000D+00 Coefficients=  1.0000000000D+00
 S 1 1.00
     Exponent=  2.3126280000D+00 Coefficients=  1.0000000000D+00
 S 1 1.00
     Exponent=  1.1030790000D+00 Coefficients=  1.0000000000D+00
 S 1 1.00
     Exponent=  4.9804200000D-01 Coefficients=  1.0000000000D+00
 S 1 1.00
     Exponent=  1.1824700000D-01 Coefficients=  1.0000000000D+00
 S 1 1.00
     Exponent=  5.7356000000D-02 Coefficients=  1.0000000000D+00
 S 1 1.00
     Exponent=  2.5760000000D-02 Coefficients=  1.0000000000D+00
 S 1 1.00
     Exponent=  4.7991000000D+00 Coefficients=  1.0000000000D+00
 S 1 1.00
     Exponent=  1.4287000000D+00 Coefficients=  1.0000000000D+00
 S 1 1.00
     Exponent=  1.1570000000D-02 Coefficients=  1.0000000000D+00
 P 1 1.00
     Exponent=  3.1539890000D+04 Coefficients=  1.0000000000D+00
 P 1 1.00
     Exponent=  7.4602340000D+03 Coefficients=  1.0000000000D+00
 P 1 1.00
     Exponent=  2.4226220000D+03 Coefficients=  1.0000000000D+00
 P 1 1.00
     Exponent=  9.2775470000D+02 Coefficients=  1.0000000000D+00
 P 1 1.00
     Exponent=  3.9480410000D+02 Coefficients=  1.0000000000D+00
 P 1 1.00
     Exponent=  1.8080270000D+02 Coefficients=  1.0000000000D+00
 P 1 1.00
     Exponent=  8.7423930000D+01 Coefficients=  1.0000000000D+00
 P 1 1.00
     Exponent=  4.4034270000D+01 Coefficients=  1.0000000000D+00
 P 1 1.00
     Exponent=  2.2777040000D+01 Coefficients=  1.0000000000D+00
 P 1 1.00
     Exponent=  1.2015470000D+01 Coefficients=  1.0000000000D+00
 P 1 1.00
     Exponent=  6.4117510000D+00 Coefficients=  1.0000000000D+00
 P 1 1.00
     Exponent=  3.3811360000D+00 Coefficients=  1.0000000000D+00
 P 1 1.00
     Exponent=  1.7470540000D+00 Coefficients=  1.0000000000D+00
 P 1 1.00
     Exponent=  8.8500400000D-01 Coefficients=  1.0000000000D+00
 P 1 1.00
     Exponent=  4.3302800000D-01 Coefficients=  1.0000000000D+00
 P 1 1.00
     Exponent=  1.7396200000D-01 Coefficients=  1.0000000000D+00
 P 1 1.00
     Exponent=  7.2823000000D-02 Coefficients=  1.0000000000D+00
 P 1 1.00
     Exponent=  2.9952000000D-02 Coefficients=  1.0000000000D+00
 P 1 1.00
     Exponent=  6.4552000000D+00 Coefficients=  1.0000000000D+00
 P 1 1.00
     Exponent=  1.6531000000D+00 Coefficients=  1.0000000000D+00
 P 1 1.00
     Exponent=  1.2320000000D-02 Coefficients=  1.0000000000D+00
 D 1 1.00
     Exponent=  2.8131200000D+02 Coefficients=  1.0000000000D+00
 D 1 1.00
     Exponent=  8.3188500000D+01 Coefficients=  1.0000000000D+00
 D 1 1.00
     Exponent=  3.1839600000D+01 Coefficients=  1.0000000000D+00
 D 1 1.00
     Exponent=  1.3602600000D+01 Coefficients=  1.0000000000D+00
 D 1 1.00
     Exponent=  6.1829800000D+00 Coefficients=  1.0000000000D+00
 D 1 1.00
     Exponent=  2.9227000000D+00 Coefficients=  1.0000000000D+00
 D 1 1.00
     Exponent=  1.3821600000D+00 Coefficients=  1.0000000000D+00
 D 1 1.00
     Exponent=  6.3946000000D-01 Coefficients=  1.0000000000D+00
 D 1 1.00
     Exponent=  2.8489800000D-01 Coefficients=  1.0000000000D+00
 D 1 1.00
     Exponent=  1.2004500000D-01 Coefficients=  1.0000000000D+00
 D 1 1.00
     Exponent=  4.6229000000D-02 Coefficients=  1.0000000000D+00
 D 1 1.00
     Exponent=  4.0848000000D+00 Coefficients=  1.0000000000D+00
 D 1 1.00
     Exponent=  2.1405000000D+00 Coefficients=  1.0000000000D+00
 D 1 1.00
     Exponent=  1.7800000000D-02 Coefficients=  1.0000000000D+00
 F 1 1.00
     Exponent=  5.6633000000D+00 Coefficients=  1.0000000000D+00
 F 1 1.00
     Exponent=  2.3365000000D+00 Coefficients=  1.0000000000D+00
 F 1 1.00
     Exponent=  9.6390000000D-01 Coefficients=  1.0000000000D+00
 F 1 1.00
     Exponent=  3.1420000000D-01 Coefficients=  1.0000000000D+00
 F 1 1.00
     Exponent=  1.0242000000D-01 Coefficients=  1.0000000000D+00
 G 1 1.00
     Exponent=  4.6690000000D+00 Coefficients=  1.0000000000D+00
 G 1 1.00
     Exponent=  1.9538000000D+00 Coefficients=  1.0000000000D+00
 G 1 1.00
     Exponent=  6.8480000000D-01 Coefficients=  1.0000000000D+00
 G 1 1.00
     Exponent=  2.4002000000D-01 Coefficients=  1.0000000000D+00
 H 1 1.00
     Exponent=  4.4133000000D+00 Coefficients=  1.0000000000D+00
 H 1 1.00
     Exponent=  1.6472000000D+00 Coefficients=  1.0000000000D+00
 H 1 1.00
     Exponent=  6.1479000000D-01 Coefficients=  1.0000000000D+00
 ****
 Centers:       2
 S 1 1.00
     Exponent=  8.2640000000D+01 Coefficients=  1.0000000000D+00
 S 1 1.00
     Exponent=  1.2410000000D+01 Coefficients=  1.0000000000D+00
 S 1 1.00
     Exponent=  2.8240000000D+00 Coefficients=  1.0000000000D+00
 S 1 1.00
     Exponent=  7.9770000000D-01 Coefficients=  1.0000000000D+00
 S 1 1.00
     Exponent=  2.5810000000D-01 Coefficients=  1.0000000000D+00
 S 1 1.00
     Exponent=  8.9890000000D-02 Coefficients=  1.0000000000D+00
 S 1 1.00
     Exponent=  2.3630000000D-02 Coefficients=  1.0000000000D+00
 P 1 1.00
     Exponent=  2.2920000000D+00 Coefficients=  1.0000000000D+00
 P 1 1.00
     Exponent=  8.3800000000D-01 Coefficients=  1.0000000000D+00
 P 1 1.00
     Exponent=  2.9200000000D-01 Coefficients=  1.0000000000D+00
 P 1 1.00
     Exponent=  8.4800000000D-02 Coefficients=  1.0000000000D+00
 D 1 1.00
     Exponent=  2.0620000000D+00 Coefficients=  1.0000000000D+00
 D 1 1.00
     Exponent=  6.6200000000D-01 Coefficients=  1.0000000000D+00
 D 1 1.00
     Exponent=  1.9000000000D-01 Coefficients=  1.0000000000D+00
 F 1 1.00
     Exponent=  1.3970000000D+00 Coefficients=  1.0000000000D+00
 F 1 1.00
     Exponent=  3.6000000000D-01 Coefficients=  1.0000000000D+00
 ****
 ======================================================================================================
                                       Pseudopotential Parameters
 ======================================================================================================
  Center     Atomic      Valence      Angular      Power
  Number     Number     Electrons     Momentum     of R      Exponent        Coefficient   SO-Coeffient
 ======================================================================================================
    1         24           14
                                      D and up 
                                                     1       13.0767520       14.00000000    0.00000000
                                                     2       15.1580758     1258.15550380    0.00000000
                                                     2        4.6278569      -98.60998187    0.00000000
                                                     2       15.4113660    -6552.46055066    0.00000000
                                                     2       15.3869064     5353.09061557    0.00000000
                                                     3        5.2489731      183.07452839    0.00000000
                                      S - D
                                                     2        9.7768084    **************    0.00000000
                                                     2        9.9598011    96320.14803227    0.00000000
                                                     2        8.6227521     3928.31359170    0.00000000
                                                     2       12.2928814    **************    0.00000000
                                                     2       18.4131659    -1741.60409682    0.00000000
                                                     2       16.3854196     4413.26493033    0.00000000
                                      P - D
                                                     2       12.0010000    **************    0.00000000
                                                     2       11.4652444    21551.07876111    0.00000000
                                                     2       16.2385223     3703.78784703    0.00000000
                                                     2       18.4386111    -1424.18632323    0.00000000
                                                     2        8.8887794    -1964.93568469    0.00000000
                                                     2        7.5264478      317.50498882    0.00000000
    2          1
                                   No pseudopotential on this center.
 ======================================================================================================
 Ernie: Thresh=  0.10000D-02 Tol=  0.10000D-05 Strict=F.
 There are   171 symmetry adapted cartesian basis functions of A1  symmetry.
 There are    45 symmetry adapted cartesian basis functions of A2  symmetry.
 There are    93 symmetry adapted cartesian basis functions of B1  symmetry.
 There are    93 symmetry adapted cartesian basis functions of B2  symmetry.
 There are   126 symmetry adapted basis functions of A1  symmetry.
 There are    38 symmetry adapted basis functions of A2  symmetry.
 There are    73 symmetry adapted basis functions of B1  symmetry.
 There are    73 symmetry adapted basis functions of B2  symmetry.
   310 basis functions,   402 primitive gaussians,   402 cartesian basis functions
    10 alpha electrons        5 beta electrons
       nuclear repulsion energy         4.6303005955 Hartrees.
 IExCor=    0 DFT=F Ex=HF Corr=None ExCW=0 ScaHFX=  1.000000
 ScaDFX=  1.000000  1.000000  1.000000  1.000000 ScalE2=  1.000000  1.000000
 IRadAn=      5 IRanWt=     -1 IRanGd=            0 ICorTp=0 IEmpDi=  4
 NAtoms=    2 NActive=    2 NUniq=    2 SFac= 1.00D+00 NAtFMM=   60 NAOKFM=F Big=F
 Integral buffers will be    131072 words long.
 Raffenetti 2 integral format.
 Two-electron integral symmetry is turned on.
 Leave Link  301 at Mon Feb 26 08:02:37 2018, MaxMem=  8589934592 cpu:               4.0 elap:               0.3
 (Enter /home1/apps/gaussian/16rA.03/g16/l302.exe)
 NPDir=0 NMtPBC=     1 NCelOv=     1 NCel=       1 NClECP=     1 NCelD=      1
         NCelK=      1 NCelE2=     1 NClLst=     1 CellRange=     0.0.
 One-electron integrals computed using PRISM.
 One-electron integral symmetry used in STVInt
   4 Symmetry operations used in ECPInt.
 ECPInt:  NShTT=    3916 NPrTT=    3916 LenC2=    3864 LenP2D=    3863.
 LDataN:  DoStor=T MaxTD1=10 Len=  848
 NBasis=   310 RedAO= T EigKep=  1.49D-06  NBF=   126    38    73    73
 NBsUse=   306 1.00D-06 EigRej=  3.59D-07 NBFU=   124    38    72    72
 Leave Link  302 at Mon Feb 26 08:02:39 2018, MaxMem=  8589934592 cpu:              29.5 elap:               1.9
 (Enter /home1/apps/gaussian/16rA.03/g16/l303.exe)
 DipDrv:  MaxL=1.
 Leave Link  303 at Mon Feb 26 08:02:40 2018, MaxMem=  8589934592 cpu:               1.4 elap:               0.2
 (Enter /home1/apps/gaussian/16rA.03/g16/l401.exe)
 Initial guess from the checkpoint file:  "CrH.chk"
 B after Tr=     0.000000    0.000000    0.000000
         Rot=    1.000000    0.000000    0.000000    0.000000 Ang=   0.00 deg.
 Guess basis will be translated and rotated to current coordinates.
 JPrj=2 DoOrth=T DoCkMO=T.
 Initial guess orbital symmetries:
       Occupied  (SG) (SG) (PI) (PI) (SG) (SG) (PI) (PI) (DLTA)
                 (DLTA)
       Virtual   (PI) (PI) (SG) (SG) (PI) (PI) (SG) (DLTA) (DLTA)
                 (PI) (PI) (SG) (SG) (SG) (PI) (PI) (SG) (SG) (PI)
                 (PI) (DLTA) (DLTA) (PI) (PI) (SG) (SG) (PHI) (PHI)
                 (DLTA) (DLTA) (SG) (PI) (PI) (SG) (PI) (PI) (SG)
                 (PI) (PI) (DLTA) (DLTA) (DLTA) (DLTA) (SG) (PI)
                 (PI) (SG) (PI) (PI) (SG) (SG) (PHI) (PHI) (DLTA)
                 (DLTA) (PI) (PI) (SG) (PI) (PI) (?A) (?A) (PHI)
                 (PHI) (SG) (DLTA) (DLTA) (SG) (PI) (PI) (SG) (DLTA)
                 (DLTA) (PI) (PI) (SG) (DLTA) (DLTA) (PI) (PI)
                 (PI) (PI) (SG) (SG) (PHI) (PHI) (DLTA) (DLTA)
                 (PI) (PI) (SG) (SG) (PI) (PI) (PHI) (PHI) (?A)
                 (?A) (DLTA) (DLTA) (SG) (PI) (PI) (SG) (DLTA)
                 (DLTA) (PI) (PI) (SG) (SG) (DLTA) (DLTA) (PHI)
                 (PHI) (PI) (PI) (SG) (PI) (PI) (SG) (SG) (DLTA)
                 (DLTA) (PI) (PI) (PHI) (PHI) (?A) (?A) (DLTA)
                 (DLTA) (SG) (PI) (PI) (SG) (SG) (PI) (PI) (SG)
                 (DLTA) (DLTA) (PI) (PI) (SG) (SG) (PI) (PI) (SG)
                 (SG) (PI) (PI) (SG) (SG) (DLTA) (DLTA) (PI) (PI)
                 (SG) (PI) (PI) (SG) (SG) (DLTA) (DLTA) (PI) (PI)
                 (SG) (PI) (PI) (SG) (SG) (PI) (PI) (SG) (SG) (PI)
                 (PI) (SG) (SG) (SG) (PI) (PI) (SG) (SG) (PI) (PI)
                 (SG) (SG) (PI) (PI) (SG) (SG) (SG) (SG) (SG) (SG)
                 (DLTA) (SG) (DLTA) (SG) (SG) (SG) (SG) (DLTA)
                 (SG) (SG) (DLTA) (SG) (DLTA) (SG) (?A) (SG) (DLTA)
                 (SG) (DLTA) (?A) (SG) (DLTA) (SG) (SG) (DLTA)
                 (DLTA) (SG) (SG) (DLTA) (SG) (DLTA) (SG) (?A)
                 (?A) (DLTA) (DLTA) (DLTA) (DLTA) (DLTA) (?A) (DLTA)
                 (DLTA) (?A) (DLTA) (DLTA) (DLTA) (DLTA) (DLTA)
                 (?A) (?A) (PI) (PI) (PI) (PI) (PI) (PHI) (PI)
                 (PI) (PHI) (PI) (PI) (PHI) (?B) (PI) (PHI) (PI)
                 (PI) (PHI) (PI) (PI) (PHI) (?B) (PHI) (PI) (?B)
                 (PI) (PI) (PI) (PI) (PI) (PHI) (PI) (PI) (PHI)
                 (PI) (PI) (PHI) (?B) (PI) (PHI) (PI) (PI) (PHI)
                 (PI) (PI) (PHI) (?B) (PHI) (PI) (?B)
 The electronic state of the initial guess is 6-SG.
 Leave Link  401 at Mon Feb 26 08:02:40 2018, MaxMem=  8589934592 cpu:               8.3 elap:               0.6
 (Enter /home1/apps/gaussian/16rA.03/g16/l502.exe)
 Keep R1 and R2 ints in memory in symmetry-blocked form, NReq=1456552531.
 FoFCou: FMM=F IPFlag=           8 FMFlag=           0 FMFlg1=           0
         NFxFlg=           0 DoJE=F BraDBF=F KetDBF=F FulRan=T
         wScrn=  0.000000 ICntrl=       600 IOpCl=  0 I1Cent=           0 NGrid=           0
         NMat0=    1 NMatS0=  48205 NMatT0=    0 NMatD0=    1 NMtDS0=    0 NMtDT0=    0
 Petite list used in FoFCou.
 Restricted open shell SCF:
 Using DIIS extrapolation, IDIIS=  1040.
 NGot=  8589934592 LenX=  8000380050 LenY=  8000218005
 Requested convergence on RMS density matrix=1.00D-08 within 300 cycles.
 Requested convergence on MAX density matrix=1.00D-06.
 Requested convergence on             energy=1.00D-06.
 No special actions if energy rises.

 Cycle   1  Pass 1  IDiag  1:
 E= -86.3661964194765    
 DIIS: error= 4.60D+00 at cycle   1 NSaved=   1.
 NSaved= 1 IEnMin= 1 EnMin= -86.3661964194765     IErMin= 1 ErrMin= 4.60D+00
 ErrMax= 4.60D+00  0.00D+00 EMaxC= 1.00D-01 BMatC= 3.35D+03 BMatP= 3.35D+03
 IDIUse=3 WtCom= 0.00D+00 WtEn= 1.00D+00
 Coeff-Com:  0.100D+01
 Coeff-En:   0.100D+01
 Coeff:      0.100D+01
 Gap=     0.058 Goal=   None    Shift=    0.000
 GapD=    0.058 DampG=0.500 DampE=0.125 DampFc=0.1250 IDamp=-1.
 Damping current iteration by 1.25D-01
 RMSDP=1.01D-02 MaxDP=9.08D-01              OVMax= 5.74D-03

 Cycle   2  Pass 1  IDiag  1:
 E= -86.3671228422693     Delta-E=       -0.000926422793 Rises=F Damp=T
 DIIS: error= 4.02D+00 at cycle   2 NSaved=   2.
 NSaved= 2 IEnMin= 2 EnMin= -86.3671228422693     IErMin= 2 ErrMin= 4.02D+00
 ErrMax= 4.02D+00  0.00D+00 EMaxC= 1.00D-01 BMatC= 2.56D+03 BMatP= 3.35D+03
 IDIUse=3 WtCom= 0.00D+00 WtEn= 1.00D+00
 Coeff-Com: -0.700D+01 0.800D+01
 Coeff-En:   0.000D+00 0.100D+01
 Coeff:      0.000D+00 0.100D+01
 Gap=     0.057 Goal=   None    Shift=    0.000
 RMSDP=8.77D-03 MaxDP=7.92D-01 DE=-9.26D-04 OVMax= 1.36D-02

 Cycle   3  Pass 1  IDiag  1:
 E= -86.3735132787500     Delta-E=       -0.006390436481 Rises=F Damp=F
 DIIS: error= 9.56D-04 at cycle   3 NSaved=   3.
 NSaved= 3 IEnMin= 3 EnMin= -86.3735132787500     IErMin= 3 ErrMin= 9.56D-04
 ErrMax= 9.56D-04  0.00D+00 EMaxC= 1.00D-01 BMatC= 1.06D-04 BMatP= 2.56D+03
 IDIUse=3 WtCom= 9.90D-01 WtEn= 9.56D-03
 Coeff-Com: -0.153D+01 0.175D+01 0.781D+00
 Coeff-En:   0.000D+00 0.000D+00 0.100D+01
 Coeff:     -0.152D+01 0.174D+01 0.783D+00
 Gap=     0.056 Goal=   None    Shift=    0.000
 RMSDP=2.90D-04 MaxDP=2.78D-02 DE=-6.39D-03 OVMax= 1.82D-02

 Cycle   4  Pass 1  IDiag  1:
 E= -86.3735826757843     Delta-E=       -0.000069397034 Rises=F Damp=F
 DIIS: error= 8.54D-04 at cycle   4 NSaved=   4.
 NSaved= 4 IEnMin= 4 EnMin= -86.3735826757843     IErMin= 4 ErrMin= 8.54D-04
 ErrMax= 8.54D-04  0.00D+00 EMaxC= 1.00D-01 BMatC= 7.60D-05 BMatP= 1.06D-04
 IDIUse=3 WtCom= 9.91D-01 WtEn= 8.54D-03
 Coeff-Com: -0.121D+01 0.138D+01 0.521D+00 0.306D+00
 Coeff-En:   0.000D+00 0.000D+00 0.441D+00 0.559D+00
 Coeff:     -0.120D+01 0.137D+01 0.521D+00 0.308D+00
 Gap=     0.056 Goal=   None    Shift=    0.000
 RMSDP=1.54D-04 MaxDP=1.39D-02 DE=-6.94D-05 OVMax= 1.35D-02

 Cycle   5  Pass 1  IDiag  1:
 E= -86.3736373456419     Delta-E=       -0.000054669858 Rises=F Damp=F
 DIIS: error= 6.78D-04 at cycle   5 NSaved=   5.
 NSaved= 5 IEnMin= 5 EnMin= -86.3736373456419     IErMin= 5 ErrMin= 6.78D-04
 ErrMax= 6.78D-04  0.00D+00 EMaxC= 1.00D-01 BMatC= 3.88D-05 BMatP= 7.60D-05
 IDIUse=3 WtCom= 9.93D-01 WtEn= 6.78D-03
 Rare condition: small coef for last iteration:  0.000D+00
 Coeff-Com: -0.102D+01 0.116D+01 0.212D-01 0.115D+00 0.718D+00
 Coeff-En:   0.000D+00 0.000D+00 0.899D-01 0.370D+00 0.541D+00
 Coeff:     -0.102D+01 0.116D+01 0.212D-01 0.115D+00 0.718D+00
 Gap=     0.056 Goal=   None    Shift=    0.000
 RMSDP=5.38D-05 MaxDP=6.14D-03 DE=-5.47D-05 OVMax= 3.47D-03

 Cycle   6  Pass 1  IDiag  1:
 E= -86.3736469093139     Delta-E=       -0.000009563672 Rises=F Damp=F
 DIIS: error= 5.72D-04 at cycle   6 NSaved=   6.
 NSaved= 6 IEnMin= 6 EnMin= -86.3736469093139     IErMin= 6 ErrMin= 5.72D-04
 ErrMax= 5.72D-04  0.00D+00 EMaxC= 1.00D-01 BMatC= 3.14D-05 BMatP= 3.88D-05
 IDIUse=3 WtCom= 9.94D-01 WtEn= 5.72D-03
 EnCoef did   100 forward-backward iterations
 Rare condition: small coef for last iteration:  0.000D+00
 Coeff-Com: -0.941D+00 0.108D+01-0.119D+00 0.107D-01 0.545D+00 0.429D+00
 Coeff-En:   0.000D+00 0.000D+00 0.118D+00 0.316D+00 0.156D+00 0.409D+00
 Coeff:     -0.941D+00 0.108D+01-0.119D+00 0.107D-01 0.545D+00 0.429D+00
 Gap=     0.056 Goal=   None    Shift=    0.000
 RMSDP=2.62D-05 MaxDP=2.64D-03 DE=-9.56D-06 OVMax= 3.26D-03

 Cycle   7  Pass 1  IDiag  1:
 E= -86.3736601732743     Delta-E=       -0.000013263960 Rises=F Damp=F
 DIIS: error= 5.30D-04 at cycle   7 NSaved=   7.
 NSaved= 7 IEnMin= 7 EnMin= -86.3736601732743     IErMin= 7 ErrMin= 5.30D-04
 ErrMax= 5.30D-04  0.00D+00 EMaxC= 1.00D-01 BMatC= 2.31D-05 BMatP= 3.14D-05
 IDIUse=3 WtCom= 9.95D-01 WtEn= 5.30D-03
 EnCoef did   100 forward-backward iterations
 Coeff-Com: -0.840D+00 0.960D+00-0.145D+00-0.613D-01 0.161D+00 0.385D+00
 Coeff-Com:  0.540D+00
 Coeff-En:   0.000D+00 0.000D+00 0.422D+00 0.545D+00 0.122D-01 0.265D-02
 Coeff-En:   0.178D-01
 Coeff:     -0.836D+00 0.955D+00-0.142D+00-0.581D-01 0.160D+00 0.383D+00
 Coeff:      0.537D+00
 Gap=     0.056 Goal=   None    Shift=    0.000
 RMSDP=2.99D-05 MaxDP=3.83D-03 DE=-1.33D-05 OVMax= 1.43D-03

 Cycle   8  Pass 1  IDiag  1:
 E= -86.3736705150451     Delta-E=       -0.000010341771 Rises=F Damp=F
 DIIS: error= 4.69D-04 at cycle   8 NSaved=   8.
 NSaved= 8 IEnMin= 8 EnMin= -86.3736705150451     IErMin= 8 ErrMin= 4.69D-04
 ErrMax= 4.69D-04  0.00D+00 EMaxC= 1.00D-01 BMatC= 1.60D-05 BMatP= 2.31D-05
 IDIUse=3 WtCom= 9.95D-01 WtEn= 4.69D-03
 EnCoef did   100 forward-backward iterations
 Rare condition: small coef for last iteration:  0.538D-15
 Coeff-Com: -0.696D+00 0.795D+00-0.119D+00-0.960D-01-0.132D+00 0.200D+00
 Coeff-Com:  0.451D+00 0.596D+00
 Coeff-En:   0.000D+00 0.000D+00 0.118D+00 0.224D+00 0.000D+00 0.000D+00
 Coeff-En:   0.000D+00 0.658D+00
 Coeff:     -0.696D+00 0.795D+00-0.119D+00-0.960D-01-0.132D+00 0.200D+00
 Coeff:      0.451D+00 0.596D+00
 Gap=     0.056 Goal=   None    Shift=    0.000
 RMSDP=3.61D-05 MaxDP=4.64D-03 DE=-1.03D-05 OVMax= 8.25D-04

 Cycle   9  Pass 1  IDiag  1:
 E= -86.3736759645587     Delta-E=       -0.000005449514 Rises=F Damp=F
 DIIS: error= 3.90D-04 at cycle   9 NSaved=   9.
 NSaved= 9 IEnMin= 9 EnMin= -86.3736759645587     IErMin= 9 ErrMin= 3.90D-04
 ErrMax= 3.90D-04  0.00D+00 EMaxC= 1.00D-01 BMatC= 1.12D-05 BMatP= 1.60D-05
 IDIUse=3 WtCom= 9.96D-01 WtEn= 3.90D-03
 EnCoef did   100 forward-backward iterations
 Coeff-Com: -0.579D+00 0.662D+00-0.963D-01-0.107D+00-0.274D+00 0.832D-01
 Coeff-Com:  0.349D+00 0.643D+00 0.319D+00
 Coeff-En:   0.000D+00 0.000D+00 0.412D+00 0.536D+00 0.202D-01 0.000D+00
 Coeff-En:   0.000D+00 0.000D+00 0.312D-01
 Coeff:     -0.577D+00 0.660D+00-0.944D-01-0.104D+00-0.272D+00 0.829D-01
 Coeff:      0.347D+00 0.641D+00 0.318D+00
 Gap=     0.056 Goal=   None    Shift=    0.000
 RMSDP=3.15D-05 MaxDP=3.96D-03 DE=-5.45D-06 OVMax= 6.71D-04

 Cycle  10  Pass 1  IDiag  1:
 E= -86.3736802006555     Delta-E=       -0.000004236097 Rises=F Damp=F
 DIIS: error= 3.24D-04 at cycle  10 NSaved=  10.
 NSaved=10 IEnMin=10 EnMin= -86.3736802006555     IErMin=10 ErrMin= 3.24D-04
 ErrMax= 3.24D-04  0.00D+00 EMaxC= 1.00D-01 BMatC= 7.55D-06 BMatP= 1.12D-05
 IDIUse=3 WtCom= 9.97D-01 WtEn= 3.24D-03
 EnCoef did   100 forward-backward iterations
 Coeff-Com: -0.448D+00 0.512D+00-0.717D-01-0.102D+00-0.340D+00 0.206D-02
 Coeff-Com:  0.249D+00 0.475D+00 0.314D+00 0.410D+00
 Coeff-En:   0.000D+00 0.000D+00 0.412D+00 0.532D+00 0.110D-01 0.000D+00
 Coeff-En:   0.000D+00 0.000D+00 0.170D-01 0.277D-01
 Coeff:     -0.446D+00 0.510D+00-0.702D-01-0.998D-01-0.339D+00 0.205D-02
 Coeff:      0.248D+00 0.473D+00 0.313D+00 0.409D+00
 Gap=     0.056 Goal=   None    Shift=    0.000
 RMSDP=3.39D-05 MaxDP=4.35D-03 DE=-4.24D-06 OVMax= 4.72D-04

 Cycle  11  Pass 1  IDiag  1:
 E= -86.3736835982412     Delta-E=       -0.000003397586 Rises=F Damp=F
 DIIS: error= 2.51D-04 at cycle  11 NSaved=  11.
 NSaved=11 IEnMin=11 EnMin= -86.3736835982412     IErMin=11 ErrMin= 2.51D-04
 ErrMax= 2.51D-04  0.00D+00 EMaxC= 1.00D-01 BMatC= 4.53D-06 BMatP= 7.55D-06
 IDIUse=3 WtCom= 9.97D-01 WtEn= 2.51D-03
 EnCoef did   100 forward-backward iterations
 Coeff-Com:  0.503D-02-0.575D-02 0.822D-02-0.237D-01-0.204D+00-0.882D-01
 Coeff-Com: -0.287D-01-0.410D+00-0.183D+00-0.296D-01 0.196D+01
 Coeff-En:   0.000D+00 0.000D+00 0.349D+00 0.457D+00 0.446D-02 0.000D+00
 Coeff-En:   0.000D+00 0.000D+00 0.688D-02 0.113D-01 0.172D+00
 Coeff:      0.501D-02-0.573D-02 0.908D-02-0.225D-01-0.203D+00-0.880D-01
 Coeff:     -0.286D-01-0.409D+00-0.183D+00-0.295D-01 0.195D+01
 Gap=     0.056 Goal=   None    Shift=    0.000
 RMSDP=1.18D-04 MaxDP=1.57D-02 DE=-3.40D-06 OVMax= 1.62D-03

 Cycle  12  Pass 1  IDiag  1:
 E= -86.3736887005367     Delta-E=       -0.000005102295 Rises=F Damp=F
 DIIS: error= 2.70D-06 at cycle  12 NSaved=  12.
 NSaved=12 IEnMin=12 EnMin= -86.3736887005367     IErMin=12 ErrMin= 2.70D-06
 ErrMax= 2.70D-06  0.00D+00 EMaxC= 1.00D-01 BMatC= 1.78D-09 BMatP= 4.53D-06
 IDIUse=1 WtCom= 1.00D+00 WtEn= 0.00D+00
 Coeff-Com: -0.458D-01 0.523D-01-0.757D-02 0.373D-02 0.528D-01 0.454D-01
 Coeff-Com:  0.323D-01-0.695D-01-0.763D-01-0.251D+00 0.375D+00 0.889D+00
 Coeff:     -0.458D-01 0.523D-01-0.757D-02 0.373D-02 0.528D-01 0.454D-01
 Coeff:      0.323D-01-0.695D-01-0.763D-01-0.251D+00 0.375D+00 0.889D+00
 Gap=     0.056 Goal=   None    Shift=    0.000
 RMSDP=1.37D-05 MaxDP=1.60D-03 DE=-5.10D-06 OVMax= 2.32D-04

 Cycle  13  Pass 1  IDiag  1:
 E= -86.3736886455988     Delta-E=        0.000000054938 Rises=F Damp=F
 DIIS: error= 2.57D-05 at cycle  13 NSaved=  13.
 NSaved=13 IEnMin=12 EnMin= -86.3736887005367     IErMin=12 ErrMin= 2.70D-06
 ErrMax= 2.57D-05  0.00D+00 EMaxC= 1.00D-01 BMatC= 4.99D-08 BMatP= 1.78D-09
 IDIUse=1 WtCom= 1.00D+00 WtEn= 0.00D+00
 Coeff-Com: -0.428D-01 0.490D-01-0.752D-02 0.324D-02 0.515D-01 0.420D-01
 Coeff-Com:  0.302D-01-0.288D-01-0.504D-01-0.208D+00 0.186D+00 0.731D+00
 Coeff-Com:  0.245D+00
 Coeff:     -0.428D-01 0.490D-01-0.752D-02 0.324D-02 0.515D-01 0.420D-01
 Coeff:      0.302D-01-0.288D-01-0.504D-01-0.208D+00 0.186D+00 0.731D+00
 Coeff:      0.245D+00
 Gap=     0.056 Goal=   None    Shift=    0.000
 RMSDP=3.37D-06 MaxDP=3.78D-04 DE= 5.49D-08 OVMax= 1.83D-04

 Cycle  14  Pass 1  IDiag  1:
 E= -86.3736886572155     Delta-E=       -0.000000011617 Rises=F Damp=F
 DIIS: error= 2.40D-05 at cycle  14 NSaved=  14.
 NSaved=14 IEnMin=12 EnMin= -86.3736887005367     IErMin=12 ErrMin= 2.70D-06
 ErrMax= 2.40D-05  0.00D+00 EMaxC= 1.00D-01 BMatC= 4.19D-08 BMatP= 1.78D-09
 IDIUse=1 WtCom= 1.00D+00 WtEn= 0.00D+00
 Coeff-Com: -0.223D-01 0.255D-01-0.430D-02 0.983D-03 0.261D-01 0.198D-01
 Coeff-Com:  0.149D-01 0.141D-01-0.111D-01-0.944D-01-0.521D-01 0.296D+00
 Coeff-Com:  0.306D+00 0.481D+00
 Coeff:     -0.223D-01 0.255D-01-0.430D-02 0.983D-03 0.261D-01 0.198D-01
 Coeff:      0.149D-01 0.141D-01-0.111D-01-0.944D-01-0.521D-01 0.296D+00
 Coeff:      0.306D+00 0.481D+00
 Gap=     0.056 Goal=   None    Shift=    0.000
 RMSDP=5.47D-06 MaxDP=6.00D-04 DE=-1.16D-08 OVMax= 1.00D-04

 Cycle  15  Pass 1  IDiag  1:
 E= -86.3736886924279     Delta-E=       -0.000000035212 Rises=F Damp=F
 DIIS: error= 1.25D-05 at cycle  15 NSaved=  15.
 NSaved=15 IEnMin=12 EnMin= -86.3736887005367     IErMin=12 ErrMin= 2.70D-06
 ErrMax= 1.25D-05  0.00D+00 EMaxC= 1.00D-01 BMatC= 1.12D-08 BMatP= 1.78D-09
 IDIUse=1 WtCom= 1.00D+00 WtEn= 0.00D+00
 Coeff-Com: -0.271D-02 0.309D-02-0.723D-03 0.165D-03 0.455D-02 0.297D-02
 Coeff-Com:  0.276D-02 0.646D-02-0.315D-02-0.258D-01-0.624D-01 0.319D-01
 Coeff-Com:  0.127D+00 0.275D+00 0.641D+00
 Coeff:     -0.271D-02 0.309D-02-0.723D-03 0.165D-03 0.455D-02 0.297D-02
 Coeff:      0.276D-02 0.646D-02-0.315D-02-0.258D-01-0.624D-01 0.319D-01
 Coeff:      0.127D+00 0.275D+00 0.641D+00
 Gap=     0.056 Goal=   None    Shift=    0.000
 RMSDP=5.32D-06 MaxDP=7.40D-04 DE=-3.52D-08 OVMax= 8.22D-05

 Cycle  16  Pass 1  IDiag  1:
 E= -86.3736887046405     Delta-E=       -0.000000012213 Rises=F Damp=F
 DIIS: error= 1.91D-06 at cycle  16 NSaved=  16.
 NSaved=16 IEnMin=16 EnMin= -86.3736887046405     IErMin=16 ErrMin= 1.91D-06
 ErrMax= 1.91D-06  0.00D+00 EMaxC= 1.00D-01 BMatC= 3.39D-10 BMatP= 1.78D-09
 IDIUse=1 WtCom= 1.00D+00 WtEn= 0.00D+00
 Coeff-Com:  0.488D-02-0.558D-02 0.731D-03-0.219D-03-0.480D-02-0.377D-02
 Coeff-Com: -0.186D-02 0.111D-02-0.296D-03 0.554D-02-0.465D-01-0.768D-01
 Coeff-Com:  0.218D-01 0.116D+00 0.719D+00 0.271D+00
 Coeff:      0.488D-02-0.558D-02 0.731D-03-0.219D-03-0.480D-02-0.377D-02
 Coeff:     -0.186D-02 0.111D-02-0.296D-03 0.554D-02-0.465D-01-0.768D-01
 Coeff:      0.218D-01 0.116D+00 0.719D+00 0.271D+00
 Gap=     0.056 Goal=   None    Shift=    0.000
 RMSDP=2.07D-06 MaxDP=2.88D-04 DE=-1.22D-08 OVMax= 4.68D-05

 Cycle  17  Pass 1  IDiag  1:
 E= -86.3736887046605     Delta-E=       -0.000000000020 Rises=F Damp=F
 DIIS: error= 2.73D-06 at cycle  17 NSaved=  17.
 NSaved=17 IEnMin=17 EnMin= -86.3736887046605     IErMin=16 ErrMin= 1.91D-06
 ErrMax= 2.73D-06  0.00D+00 EMaxC= 1.00D-01 BMatC= 5.45D-10 BMatP= 3.39D-10
 IDIUse=1 WtCom= 1.00D+00 WtEn= 0.00D+00
 Coeff-Com: -0.102D-02 0.116D-02-0.475D-04-0.542D-03-0.426D-02-0.776D-03
 Coeff-Com:  0.170D-02-0.210D-02 0.345D-03 0.158D-01 0.311D-01-0.523D-01
 Coeff-Com: -0.821D-01-0.144D+00-0.441D-01 0.201D+00 0.108D+01
 Coeff:     -0.102D-02 0.116D-02-0.475D-04-0.542D-03-0.426D-02-0.776D-03
 Coeff:      0.170D-02-0.210D-02 0.345D-03 0.158D-01 0.311D-01-0.523D-01
 Coeff:     -0.821D-01-0.144D+00-0.441D-01 0.201D+00 0.108D+01
 Gap=     0.056 Goal=   None    Shift=    0.000
 RMSDP=1.72D-06 MaxDP=2.39D-04 DE=-2.00D-11 OVMax= 2.41D-05

 Cycle  18  Pass 1  IDiag  1:
 E= -86.3736887053000     Delta-E=       -0.000000000639 Rises=F Damp=F
 DIIS: error= 5.70D-07 at cycle  18 NSaved=  18.
 NSaved=18 IEnMin=18 EnMin= -86.3736887053000     IErMin=18 ErrMin= 5.70D-07
 ErrMax= 5.70D-07  0.00D+00 EMaxC= 1.00D-01 BMatC= 2.81D-11 BMatP= 3.39D-10
 IDIUse=1 WtCom= 1.00D+00 WtEn= 0.00D+00
 Coeff-Com: -0.334D-02 0.381D-02-0.492D-03-0.207D-03 0.752D-04 0.188D-02
 Coeff-Com:  0.271D-02-0.335D-02-0.308D-02-0.607D-03 0.398D-01 0.849D-02
 Coeff-Com: -0.413D-01-0.986D-01-0.236D+00 0.136D-01 0.493D+00 0.823D+00
 Coeff:     -0.334D-02 0.381D-02-0.492D-03-0.207D-03 0.752D-04 0.188D-02
 Coeff:      0.271D-02-0.335D-02-0.308D-02-0.607D-03 0.398D-01 0.849D-02
 Coeff:     -0.413D-01-0.986D-01-0.236D+00 0.136D-01 0.493D+00 0.823D+00
 Gap=     0.056 Goal=   None    Shift=    0.000
 RMSDP=5.36D-07 MaxDP=6.97D-05 DE=-6.39D-10 OVMax= 1.13D-05

 Cycle  19  Pass 1  IDiag  1:
 E= -86.3736887050558     Delta-E=        0.000000000244 Rises=F Damp=F
 DIIS: error= 1.87D-06 at cycle  19 NSaved=  19.
 NSaved=19 IEnMin=18 EnMin= -86.3736887053000     IErMin=18 ErrMin= 5.70D-07
 ErrMax= 1.87D-06  0.00D+00 EMaxC= 1.00D-01 BMatC= 2.57D-10 BMatP= 2.81D-11
 IDIUse=1 WtCom= 1.00D+00 WtEn= 0.00D+00
 Coeff-Com: -0.339D-02 0.387D-02-0.557D-03 0.814D-04 0.249D-02 0.280D-02
 Coeff-Com:  0.247D-02-0.418D-02-0.506D-02-0.114D-01 0.333D-01 0.410D-01
 Coeff-Com: -0.378D-02-0.386D-01-0.258D+00-0.931D-01-0.567D-03 0.901D+00
 Coeff-Com:  0.431D+00
 Coeff:     -0.339D-02 0.387D-02-0.557D-03 0.814D-04 0.249D-02 0.280D-02
 Coeff:      0.247D-02-0.418D-02-0.506D-02-0.114D-01 0.333D-01 0.410D-01
 Coeff:     -0.378D-02-0.386D-01-0.258D+00-0.931D-01-0.567D-03 0.901D+00
 Coeff:      0.431D+00
 Gap=     0.056 Goal=   None    Shift=    0.000
 RMSDP=2.04D-07 MaxDP=1.89D-05 DE= 2.44D-10 OVMax= 7.69D-06

 Cycle  20  Pass 1  IDiag  1:
 E= -86.3736887050706     Delta-E=       -0.000000000015 Rises=F Damp=F
 DIIS: error= 1.90D-06 at cycle  20 NSaved=  20.
 NSaved=20 IEnMin=18 EnMin= -86.3736887053000     IErMin=18 ErrMin= 5.70D-07
 ErrMax= 1.90D-06  0.00D+00 EMaxC= 1.00D-01 BMatC= 2.57D-10 BMatP= 2.81D-11
 IDIUse=1 WtCom= 1.00D+00 WtEn= 0.00D+00
 Coeff-Com: -0.834D-03 0.953D-03-0.171D-03 0.256D-03 0.225D-02 0.152D-02
 Coeff-Com:  0.779D-03-0.404D-02-0.435D-02-0.125D-01 0.105D-01 0.346D-01
 Coeff-Com:  0.201D-01 0.202D-01-0.996D-01-0.899D-01-0.274D+00 0.272D+00
 Coeff-Com:  0.363D+00 0.758D+00
 Coeff:     -0.834D-03 0.953D-03-0.171D-03 0.256D-03 0.225D-02 0.152D-02
 Coeff:      0.779D-03-0.404D-02-0.435D-02-0.125D-01 0.105D-01 0.346D-01
 Coeff:      0.201D-01 0.202D-01-0.996D-01-0.899D-01-0.274D+00 0.272D+00
 Coeff:      0.363D+00 0.758D+00
 Gap=     0.056 Goal=   None    Shift=    0.000
 RMSDP=5.92D-07 MaxDP=8.22D-05 DE=-1.48D-11 OVMax= 9.30D-06

 Cycle  21  Pass 1  IDiag  1:
 E= -86.3736887053435     Delta-E=       -0.000000000273 Rises=F Damp=F
 DIIS: error= 4.68D-07 at cycle  21 NSaved=  20.
 NSaved=20 IEnMin=20 EnMin= -86.3736887053435     IErMin=20 ErrMin= 4.68D-07
 ErrMax= 4.68D-07  0.00D+00 EMaxC= 1.00D-01 BMatC= 1.56D-11 BMatP= 2.81D-11
 IDIUse=1 WtCom= 1.00D+00 WtEn= 0.00D+00
 Coeff-Com:  0.161D-10-0.203D-04 0.786D-04 0.564D-03 0.342D-03 0.248D-03
 Coeff-Com: -0.127D-02-0.118D-02-0.412D-02-0.212D-02 0.823D-02 0.992D-02
 Coeff-Com:  0.171D-01 0.133D-01-0.175D-01-0.114D+00-0.114D+00 0.483D-01
 Coeff-Com:  0.353D+00 0.803D+00
 Coeff:      0.161D-10-0.203D-04 0.786D-04 0.564D-03 0.342D-03 0.248D-03
 Coeff:     -0.127D-02-0.118D-02-0.412D-02-0.212D-02 0.823D-02 0.992D-02
 Coeff:      0.171D-01 0.133D-01-0.175D-01-0.114D+00-0.114D+00 0.483D-01
 Coeff:      0.353D+00 0.803D+00
 Gap=     0.056 Goal=   None    Shift=    0.000
 RMSDP=2.49D-07 MaxDP=3.00D-05 DE=-2.73D-10 OVMax= 3.79D-06

 Cycle  22  Pass 1  IDiag  1:
 E= -86.3736887053618     Delta-E=       -0.000000000018 Rises=F Damp=F
 DIIS: error= 4.16D-08 at cycle  22 NSaved=  20.
 NSaved=20 IEnMin=20 EnMin= -86.3736887053618     IErMin=20 ErrMin= 4.16D-08
 ErrMax= 4.16D-08  0.00D+00 EMaxC= 1.00D-01 BMatC= 1.96D-13 BMatP= 1.56D-11
 IDIUse=1 WtCom= 1.00D+00 WtEn= 0.00D+00
 Coeff-Com: -0.967D-05 0.246D-05 0.535D-04 0.684D-04 0.168D-03-0.216D-03
 Coeff-Com: -0.127D-03-0.109D-02-0.314D-02 0.786D-03 0.403D-02 0.906D-02
 Coeff-Com:  0.252D-01 0.196D-02-0.372D-01-0.132D+00-0.301D-01 0.125D+00
 Coeff-Com:  0.622D+00 0.417D+00
 Coeff:     -0.967D-05 0.246D-05 0.535D-04 0.684D-04 0.168D-03-0.216D-03
 Coeff:     -0.127D-03-0.109D-02-0.314D-02 0.786D-03 0.403D-02 0.906D-02
 Coeff:      0.252D-01 0.196D-02-0.372D-01-0.132D+00-0.301D-01 0.125D+00
 Coeff:      0.622D+00 0.417D+00
 Gap=     0.056 Goal=   None    Shift=    0.000
 RMSDP=1.04D-08 MaxDP=6.82D-07 DE=-1.83D-11 OVMax= 1.46D-06

 Cycle  23  Pass 1  IDiag  1:
 E= -86.3736887053616     Delta-E=        0.000000000000 Rises=F Damp=F
 DIIS: error= 4.59D-08 at cycle  23 NSaved=  20.
 NSaved=20 IEnMin=19 EnMin= -86.3736887053618     IErMin=19 ErrMin= 4.16D-08
 ErrMax= 4.59D-08  0.00D+00 EMaxC= 1.00D-01 BMatC= 2.16D-13 BMatP= 1.96D-13
 IDIUse=1 WtCom= 1.00D+00 WtEn= 0.00D+00
 Coeff-Com: -0.504D-04-0.312D-03-0.139D-03 0.515D-04 0.546D-03 0.627D-03
 Coeff-Com:  0.136D-02-0.242D-02-0.441D-02-0.145D-02 0.119D-03 0.223D-01
 Coeff-Com:  0.136D-01 0.278D-01-0.890D-01-0.705D-01-0.836D-01 0.239D+00
 Coeff-Com:  0.534D+00 0.413D+00
 Coeff:     -0.504D-04-0.312D-03-0.139D-03 0.515D-04 0.546D-03 0.627D-03
 Coeff:      0.136D-02-0.242D-02-0.441D-02-0.145D-02 0.119D-03 0.223D-01
 Coeff:      0.136D-01 0.278D-01-0.890D-01-0.705D-01-0.836D-01 0.239D+00
 Coeff:      0.534D+00 0.413D+00
 Gap=     0.056 Goal=   None    Shift=    0.000
 RMSDP=1.12D-08 MaxDP=9.91D-07 DE= 2.70D-13 OVMax= 8.17D-07

 Cycle  24  Pass 1  IDiag  1:
 E= -86.3736887053624     Delta-E=       -0.000000000001 Rises=F Damp=F
 DIIS: error= 7.23D-09 at cycle  24 NSaved=  20.
 NSaved=20 IEnMin=20 EnMin= -86.3736887053624     IErMin=20 ErrMin= 7.23D-09
 ErrMax= 7.23D-09  0.00D+00 EMaxC= 1.00D-01 BMatC= 4.95D-15 BMatP= 1.96D-13
 IDIUse=1 WtCom= 1.00D+00 WtEn= 0.00D+00
 Coeff-Com: -0.577D-06-0.103D-05 0.108D-04 0.103D-03 0.153D-03 0.269D-03
 Coeff-Com: -0.636D-03-0.812D-03-0.196D-03 0.300D-03 0.594D-02 0.371D-02
 Coeff-Com:  0.808D-02-0.250D-01-0.241D-01-0.383D-01 0.614D-01 0.215D+00
 Coeff-Com:  0.197D+00 0.597D+00
 Coeff:     -0.577D-06-0.103D-05 0.108D-04 0.103D-03 0.153D-03 0.269D-03
 Coeff:     -0.636D-03-0.812D-03-0.196D-03 0.300D-03 0.594D-02 0.371D-02
 Coeff:      0.808D-02-0.250D-01-0.241D-01-0.383D-01 0.614D-01 0.215D+00
 Coeff:      0.197D+00 0.597D+00
 Gap=     0.056 Goal=   None    Shift=    0.000
 RMSDP=7.72D-09 MaxDP=8.62D-07 DE=-8.38D-13 OVMax= 2.76D-07

 SCF Done:  E(ROHF) =  -86.3736887054     A.U. after   24 cycles
            NFock= 24  Conv=0.77D-08     -V/T= 3.0936
 <Sx>= 0.0000 <Sy>= 0.0000 <Sz>= 2.5000 <S**2>= 8.7500 S= 2.5000
 <L.S>=  0.00000000000    
 KE= 4.125552449762D+01 PE=-1.987747703276D+02 EE= 6.651525652902D+01
 Annihilation of the first spin contaminant:
 S**2 before annihilation     8.7500,   after     8.7500
 Leave Link  502 at Mon Feb 26 08:03:51 2018, MaxMem=  8589934592 cpu:             994.0 elap:              70.5
 (Enter /home1/apps/gaussian/16rA.03/g16/l801.exe)
 Windowed orbitals will be sorted by symmetry type.
 GenMOA:  NOpAll=  4 NOp2=4 NOpUse=  4 JSym2X=1
 FoFJK:  IHMeth= 1 ICntrl=       0 DoSepK=F KAlg= 0 I1Cent=           0 FoldK=F
 IRaf=         0 NMat=       1 IRICut=       1 DoRegI=T DoRafI=F ISym2E= 1 IDoP0=0 IntGTp=1.
 FoFCou: FMM=F IPFlag=           8 FMFlag=      100000 FMFlg1=           0
         NFxFlg=           0 DoJE=F BraDBF=F KetDBF=F FulRan=T
         wScrn=  0.000000 ICntrl=         0 IOpCl=  1 I1Cent=           0 NGrid=           0
         NMat0=    1 NMatS0=      1 NMatT0=    0 NMatD0=    1 NMtDS0=    0 NMtDT0=    0
 Petite list used in FoFCou.
 <Sx>= 0.0000 <Sy>= 0.0000 <Sz>= 2.5000 <S**2>= 8.7500 S= 2.5000
 Range of M.O.s used for correlation:     1   306
 NBasis=   310 NAE=    10 NBE=     5 NFC=     0 NFV=     0
 NROrb=    306 NOA=    10 NOB=     5 NVA=   296 NVB=   301

 **** Warning!!: The largest alpha MO coefficient is  0.31197594D+03


 **** Warning!!: The largest beta MO coefficient is  0.31161466D+03

 Singles contribution to E2=   -0.2986490943D-02
 Leave Link  801 at Mon Feb 26 08:04:10 2018, MaxMem=  8589934592 cpu:             305.0 elap:              19.1
 (Enter /home1/apps/gaussian/16rA.03/g16/l804.exe)
 Open-shell transformation, MDV=  8589934592 ITran=4 ISComp=2.
 Unit  1 TFree=       2913596 TCopy=       2235884.
 Semi-Direct transformation.
 ModeAB=           2 MOrb=            10 LenV=    8587015069
 LASXX=     35609842 LTotXX=    35609842 LenRXX=    35609842
 LTotAB=    36064058 MaxLAS=   247869180 LenRXY=   247869180
 NonZer=   252596880 LenScr=   380382208 LnRSAI=           0
 LnScr1=           0 LExtra=     9116750 Total=    672977980
 MaxDsk= 67108864000 SrtSym=           F ITran=            4
 DoSDTr:  NPSUse= 16
 JobTyp=1 Pass  1:  I=   1 to  10.
 (rs|ai) integrals will be sorted in core.
 Complete sort for first half transformation.
 First half transformation complete.
 Begin second half transformation for I=  10.
 Begin second half transformation for I=  10.
 Complete sort for second half transformation.
 Second half transformation complete.
 ModeAB=           2 MOrb=             5 LenV=    8587015069
 LASXX=     18115288 LTotXX=    18115288 LenRXX=   123934590
 LTotAB=    17153940 MaxLAS=   123934590 LenRXY=    17153940
 NonZer=   126298440 LenScr=   190210048 LnRSAI=           0
 LnScr1=           0 LExtra=   292595772 Total=    623894350
 MaxDsk= 67108864000 SrtSym=           F ITran=            4
 DoSDTr:  NPSUse= 16
 JobTyp=2 Pass  1:  I=   1 to   5.
 (rs|ai) integrals will be sorted in core.
 Complete sort for first half transformation.
 First half transformation complete.
 Complete sort for second half transformation.
 Second half transformation complete.
 Spin components of T(2) and E(2):
     alpha-alpha T2 =       0.2826643150D-01 E2=     -0.1334658557D+00
     alpha-beta  T2 =       0.5583770401D-01 E2=     -0.3750344142D+00
     beta-beta   T2 =       0.6149796478D-02 E2=     -0.3973350461D-01
 ANorm=    0.1044877757D+01
 E2 =    -0.5512202654D+00 EUMP2 =    -0.86924908970811D+02
 (S**2,0)=  0.87500D+01           (S**2,1)=  0.87500D+01
 E(PUHF)=      -0.86373688705D+02        E(PMP2)=      -0.86924908971D+02
 Recovering and transforming amplitudes from chk file.
 B after Tr=     0.000000    0.000000    0.000000
         Rot=    1.000000    0.000000    0.000000    0.000000 Ang=   0.00 deg.
 Alpha occ  Sing. vals= 9.999985D-01 9.999981D-01 9.999981D-01 9.999926D-01 9.999890D-01 9.999870D-01 9.999870D-01 9.999846D-01 9.999846D-01 9.999612D-01
 Alpha occ  NOrbO=    10 NOrbN=    10 NSVal=    10 ThrEig=  0.900000.
 TrMax= 1.000000D+00 PrMax= 1.000000D+00 Trace(Pr)= 1.000000D+01
 B after Tr=     0.000000    0.000000    0.000000
         Rot=    1.000000    0.000000    0.000000    0.000000 Ang=   0.00 deg.
 Alpha virt Sing. vals= 1.000000D+00 1.000000D+00 1.000000D+00 1.000000D+00 1.000000D+00 1.000000D+00 1.000000D+00 1.000000D+00 1.000000D+00 1.000000D+00
 Alpha virt Sing. vals= 1.000000D+00 1.000000D+00 1.000000D+00 1.000000D+00 1.000000D+00 1.000000D+00 1.000000D+00 1.000000D+00 1.000000D+00 1.000000D+00
 Alpha virt Sing. vals= 1.000000D+00 9.999999D-01 9.999999D-01 9.999999D-01 9.999999D-01 9.999999D-01 9.999999D-01 9.999999D-01 9.999996D-01 9.999996D-01
 Alpha virt Sing. vals= 9.999996D-01 9.999995D-01 9.999994D-01 9.999991D-01 9.999991D-01 9.999990D-01 9.999990D-01 9.999989D-01 9.999989D-01 9.999989D-01
 Alpha virt Sing. vals= 9.999985D-01 9.999978D-01 9.999978D-01 9.999978D-01 9.999978D-01 9.999960D-01 9.999949D-01 9.999947D-01 9.999947D-01 9.999893D-01
 Alpha virt Sing. vals= 9.999855D-01 9.999752D-01 9.999752D-01 9.999750D-01 9.999750D-01 9.999744D-01 9.999627D-01 9.999535D-01 9.999491D-01 9.999491D-01
 Alpha virt Sing. vals= 9.999396D-01 9.999331D-01 9.999331D-01 9.999206D-01 9.999206D-01 9.998675D-01 9.998675D-01 9.998623D-01 9.998581D-01 9.998568D-01
 Alpha virt Sing. vals= 9.998568D-01 9.998249D-01 9.998246D-01 9.998246D-01 9.998195D-01 9.997953D-01 9.997943D-01 9.997943D-01 9.997925D-01 9.997925D-01
 Alpha virt Sing. vals= 9.997921D-01 9.997802D-01 9.997802D-01 9.997560D-01 9.997560D-01 9.997547D-01 9.997543D-01 9.997543D-01 9.995831D-01 9.995540D-01
 Alpha virt Sing. vals= 9.995540D-01 9.994928D-01 9.994039D-01 9.994039D-01 9.993816D-01 9.993717D-01 9.993717D-01 9.993710D-01 9.993710D-01 9.993500D-01
 Alpha virt Sing. vals= 9.993274D-01 9.993274D-01 9.990829D-01 9.990137D-01 9.990137D-01 9.985942D-01 9.985942D-01 9.985850D-01 9.985850D-01 9.984796D-01
 Alpha virt Sing. vals= 9.981691D-01 9.981691D-01 9.981672D-01 9.979914D-01 9.979914D-01 9.977245D-01 9.976980D-01 9.976980D-01 9.973497D-01 9.973349D-01
 Alpha virt Sing. vals= 9.973349D-01 9.968237D-01 9.967630D-01 9.967630D-01 9.967095D-01 9.967095D-01 9.963864D-01 9.963864D-01 9.963792D-01 9.963792D-01
 Alpha virt Sing. vals= 9.962524D-01 9.956852D-01 9.956850D-01 9.956850D-01 9.954292D-01 9.948612D-01 9.948612D-01 9.942286D-01 9.942286D-01 9.940014D-01
 Alpha virt Sing. vals= 9.940014D-01 9.939795D-01 9.939795D-01 9.935735D-01 9.926659D-01 9.916508D-01 9.909891D-01 9.909891D-01 9.859422D-01 9.859422D-01
 Alpha virt Sing. vals= 9.856991D-01 9.831480D-01 9.826801D-01 9.826801D-01 9.809201D-01 9.809201D-01 9.802927D-01 9.802927D-01 9.779980D-01 9.771984D-01
 Alpha virt Sing. vals= 9.756253D-01 9.756253D-01 9.726000D-01 9.704718D-01 9.704718D-01 9.641777D-01 9.636026D-01 9.636026D-01 9.603762D-01 9.603762D-01
 Alpha virt Sing. vals= 9.520338D-01 9.520338D-01 9.452136D-01 9.413605D-01 9.399977D-01 9.399977D-01 9.399974D-01 9.242626D-01 9.232805D-01 9.232805D-01
 Alpha virt Sing. vals= 9.203079D-01 9.203079D-01 9.199208D-01 9.199208D-01 9.196642D-01 9.196642D-01 8.953311D-01 8.755809D-01 8.512846D-01 8.512846D-01
 Alpha virt Sing. vals= 8.498537D-01 8.498537D-01 8.496727D-01 8.496727D-01 8.187815D-01 7.542808D-01
 Alpha virt NOrbO=   196 NOrbN=   296 NSVal=   186 ThrEig=  0.900000.
 TrMax= 9.984887D-01 PrMax= 9.995263D-01 Trace(Pr)= 1.860000D+02
 B after Tr=     0.000000    0.000000    0.000000
         Rot=    1.000000    0.000000    0.000000    0.000000 Ang=   0.00 deg.
 Beta  occ  Sing. vals= 9.999984D-01 9.999981D-01 9.999981D-01 9.999923D-01 9.999723D-01
 Beta  occ  NOrbO=     5 NOrbN=     5 NSVal=     5 ThrEig=  0.900000.
 TrMax= 1.000000D+00 PrMax= 1.000000D+00 Trace(Pr)= 5.000000D+00
 B after Tr=     0.000000    0.000000    0.000000
         Rot=    1.000000    0.000000    0.000000    0.000000 Ang=   0.00 deg.
 Beta  virt Sing. vals= 1.000000D+00 1.000000D+00 1.000000D+00 1.000000D+00 1.000000D+00 1.000000D+00 1.000000D+00 1.000000D+00 1.000000D+00 1.000000D+00
 Beta  virt Sing. vals= 1.000000D+00 1.000000D+00 1.000000D+00 1.000000D+00 1.000000D+00 1.000000D+00 1.000000D+00 1.000000D+00 1.000000D+00 1.000000D+00
 Beta  virt Sing. vals= 1.000000D+00 1.000000D+00 1.000000D+00 1.000000D+00 1.000000D+00 1.000000D+00 9.999999D-01 9.999999D-01 9.999999D-01 9.999999D-01
 Beta  virt Sing. vals= 9.999999D-01 9.999999D-01 9.999998D-01 9.999996D-01 9.999996D-01 9.999996D-01 9.999996D-01 9.999994D-01 9.999994D-01 9.999994D-01
 Beta  virt Sing. vals= 9.999994D-01 9.999994D-01 9.999989D-01 9.999989D-01 9.999989D-01 9.999986D-01 9.999978D-01 9.999978D-01 9.999978D-01 9.999978D-01
 Beta  virt Sing. vals= 9.999965D-01 9.999955D-01 9.999947D-01 9.999947D-01 9.999893D-01 9.999856D-01 9.999750D-01 9.999750D-01 9.999748D-01 9.999748D-01
 Beta  virt Sing. vals= 9.999744D-01 9.999620D-01 9.999535D-01 9.999487D-01 9.999487D-01 9.999395D-01 9.999330D-01 9.999330D-01 9.999194D-01 9.999194D-01
 Beta  virt Sing. vals= 9.998672D-01 9.998672D-01 9.998625D-01 9.998583D-01 9.998568D-01 9.998568D-01 9.998249D-01 9.998246D-01 9.998246D-01 9.998195D-01
 Beta  virt Sing. vals= 9.997953D-01 9.997943D-01 9.997943D-01 9.997926D-01 9.997926D-01 9.997921D-01 9.997802D-01 9.997802D-01 9.997560D-01 9.997560D-01
 Beta  virt Sing. vals= 9.997553D-01 9.997543D-01 9.997543D-01 9.995830D-01 9.995537D-01 9.995537D-01 9.994921D-01 9.994039D-01 9.994039D-01 9.993816D-01
 Beta  virt Sing. vals= 9.993717D-01 9.993717D-01 9.993710D-01 9.993710D-01 9.993500D-01 9.993267D-01 9.993267D-01 9.990830D-01 9.990136D-01 9.990136D-01
 Beta  virt Sing. vals= 9.985923D-01 9.985923D-01 9.985811D-01 9.985811D-01 9.984797D-01 9.981691D-01 9.981691D-01 9.981672D-01 9.979912D-01 9.979912D-01
 Beta  virt Sing. vals= 9.977245D-01 9.976980D-01 9.976980D-01 9.973495D-01 9.973349D-01 9.973349D-01 9.968239D-01 9.967629D-01 9.967629D-01 9.967094D-01
 Beta  virt Sing. vals= 9.967094D-01 9.963873D-01 9.963873D-01 9.963803D-01 9.963803D-01 9.962524D-01 9.956852D-01 9.956850D-01 9.956850D-01 9.954293D-01
 Beta  virt Sing. vals= 9.948611D-01 9.948611D-01 9.942286D-01 9.942286D-01 9.940014D-01 9.940014D-01 9.939795D-01 9.939795D-01 9.935735D-01 9.926658D-01
 Beta  virt Sing. vals= 9.916506D-01 9.909889D-01 9.909889D-01 9.859422D-01 9.859422D-01 9.856985D-01 9.831480D-01 9.826801D-01 9.826801D-01 9.809201D-01
 Beta  virt Sing. vals= 9.809201D-01 9.802924D-01 9.802924D-01 9.779980D-01 9.771985D-01 9.756253D-01 9.756253D-01 9.726003D-01 9.704718D-01 9.704718D-01
 Beta  virt Sing. vals= 9.641778D-01 9.636024D-01 9.636024D-01 9.603761D-01 9.603761D-01 9.520338D-01 9.520338D-01 9.452143D-01 9.413604D-01 9.399977D-01
 Beta  virt Sing. vals= 9.399977D-01 9.399974D-01 9.242626D-01 9.232804D-01 9.232804D-01 9.203079D-01 9.203079D-01 9.199208D-01 9.199208D-01 9.196642D-01
 Beta  virt Sing. vals= 9.196642D-01 8.953310D-01 8.755821D-01 8.512844D-01 8.512844D-01 8.498533D-01 8.498533D-01 8.496727D-01 8.496727D-01 8.187805D-01
 Beta  virt Sing. vals= 7.542805D-01
 Beta  virt NOrbO=   201 NOrbN=   301 NSVal=   191 ThrEig=  0.900000.
 TrMax= 9.971391D-01 PrMax= 9.990019D-01 Trace(Pr)= 1.910000D+02
 Leave Link  804 at Mon Feb 26 08:11:59 2018, MaxMem=  8589934592 cpu:            7490.8 elap:             468.7
 (Enter /home1/apps/gaussian/16rA.03/g16/l913.exe)
 CIDS:  MDV=  8589934592.
 IFCWin=0 IBDFC=1 NFBD=     0     0 NFCmp=     0     0 NFFFC=     0     0
 Amplitudes recovered.
 Using DD4UQ or CC4UQ for all iterations.
 Keep R2 and R3 ints in memory in symmetry-blocked form, NReq=1456566172.
 FoFCou: FMM=F IPFlag=           8 FMFlag=           0 FMFlg1=           0
         NFxFlg=           0 DoJE=F BraDBF=F KetDBF=F FulRan=T
         wScrn=  0.000000 ICntrl=       600 IOpCl=  0 I1Cent=           0 NGrid=           0
         NMat0=    1 NMatS0=  48205 NMatT0=    0 NMatD0=    1 NMtDS0=    0 NMtDT0=    0
 Petite list used in FoFCou.
 CIDS: In Core Option IDoMem=           1.
 CCSD(T)
 =======
 Iterations= 150 Convergence= 0.100D-06
 Produce multiple copies of IABC intergrals
 Iteration Nr.   1
 **********************
 DD1Dir will call FoFMem   1 times, MxPair=       156
 NAB=    50 NAA=    45 NBB=    10.
 Maximum subspace dimension=  5
 A-vector RMS=  1.6241275D-04 Max=  1.3073679D-03 conv= 1.00D-05.
 RLE energy=       -0.5559041765
 DE(Corr)= -0.57071444     E(Corr)=     -86.944403142    
 NORM(A)=   0.10550089D+01
 Iteration Nr.   2
 **********************
 DD1Dir will call FoFMem   1 times, MxPair=       156
 NAB=    50 NAA=    45 NBB=    10.
 A-vector RMS=  1.9080926D-03 Max=  3.0043432D-02 conv= 1.00D-05.
 RLE energy=       -0.5545217867
 DE(Corr)= -0.55437110     E(CORR)=     -86.928059801     Delta= 1.63D-02
 NORM(A)=   0.10662140D+01
 Iteration Nr.   3
 **********************
 DD1Dir will call FoFMem   1 times, MxPair=       156
 NAB=    50 NAA=    45 NBB=    10.
 A-vector RMS=  6.3678697D-04 Max=  1.6516299D-02 conv= 1.00D-05.
 RLE energy=       -0.5646403861
 DE(Corr)= -0.56303271     E(CORR)=     -86.936721418     Delta=-8.66D-03
 NORM(A)=   0.10779356D+01
 Iteration Nr.   4
 **********************
 DD1Dir will call FoFMem   1 times, MxPair=       156
 NAB=    50 NAA=    45 NBB=    10.
 A-vector RMS=  8.0092724D-04 Max=  1.8282157D-02 conv= 1.00D-05.
 RLE energy=       -0.5677054065
 DE(Corr)= -0.56425952     E(CORR)=     -86.937948228     Delta=-1.23D-03
 NORM(A)=   0.11010855D+01
 Iteration Nr.   5
 **********************
 DD1Dir will call FoFMem   1 times, MxPair=       156
 NAB=    50 NAA=    45 NBB=    10.
 A-vector RMS=  4.4494617D-04 Max=  1.1571363D-02 conv= 1.00D-05.
 RLE energy=       -0.5701365511
 DE(Corr)= -0.56769726     E(CORR)=     -86.941385969     Delta=-3.44D-03
 NORM(A)=   0.11353347D+01
 Iteration Nr.   6
 **********************
 DD1Dir will call FoFMem   1 times, MxPair=       156
 NAB=    50 NAA=    45 NBB=    10.
 A-vector RMS=  2.9044650D-04 Max=  6.5551889D-03 conv= 1.00D-05.
 RLE energy=       -0.5710816696
 DE(Corr)= -0.57014577     E(CORR)=     -86.943834471     Delta=-2.45D-03
 NORM(A)=   0.11551345D+01
 Iteration Nr.   7
 **********************
 DD1Dir will call FoFMem   1 times, MxPair=       156
 NAB=    50 NAA=    45 NBB=    10.
 A-vector RMS=  1.9107903D-04 Max=  2.7429540D-03 conv= 1.00D-05.
 RLE energy=       -0.5709318591
 DE(Corr)= -0.57103448     E(CORR)=     -86.944723187     Delta=-8.89D-04
 NORM(A)=   0.11614527D+01
 Iteration Nr.   8
 **********************
 DD1Dir will call FoFMem   1 times, MxPair=       156
 NAB=    50 NAA=    45 NBB=    10.
 A-vector RMS=  8.4082378D-05 Max=  1.2629607D-03 conv= 1.00D-05.
 RLE energy=       -0.5713431806
 DE(Corr)= -0.57117388     E(CORR)=     -86.944862580     Delta=-1.39D-04
 NORM(A)=   0.11658339D+01
 Iteration Nr.   9
 **********************
 DD1Dir will call FoFMem   1 times, MxPair=       156
 NAB=    50 NAA=    45 NBB=    10.
 A-vector RMS=  5.1359987D-05 Max=  7.7922092D-04 conv= 1.00D-05.
 RLE energy=       -0.5712597364
 DE(Corr)= -0.57127859     E(CORR)=     -86.944967299     Delta=-1.05D-04
 NORM(A)=   0.11665191D+01
 Iteration Nr.  10
 **********************
 DD1Dir will call FoFMem   1 times, MxPair=       156
 NAB=    50 NAA=    45 NBB=    10.
 A-vector RMS=  2.3209833D-05 Max=  2.8170307D-04 conv= 1.00D-05.
 RLE energy=       -0.5713370669
 DE(Corr)= -0.57132229     E(CORR)=     -86.945010998     Delta=-4.37D-05
 NORM(A)=   0.11667991D+01
 Iteration Nr.  11
 **********************
 DD1Dir will call FoFMem   1 times, MxPair=       156
 NAB=    50 NAA=    45 NBB=    10.
 A-vector RMS=  1.4806676D-05 Max=  1.6209884D-04 conv= 1.00D-05.
 RLE energy=       -0.5713094863
 DE(Corr)= -0.57130827     E(CORR)=     -86.944996979     Delta= 1.40D-05
 NORM(A)=   0.11668730D+01
 Iteration Nr.  12
 **********************
 DD1Dir will call FoFMem   1 times, MxPair=       156
 NAB=    50 NAA=    45 NBB=    10.
 A-vector RMS=  7.5767041D-06 Max=  9.5299589D-05 conv= 1.00D-05.
 RLE energy=       -0.5713239510
 DE(Corr)= -0.57132309     E(CORR)=     -86.945011797     Delta=-1.48D-05
 NORM(A)=   0.11669754D+01
 Iteration Nr.  13
 **********************
 DD1Dir will call FoFMem   1 times, MxPair=       156
 NAB=    50 NAA=    45 NBB=    10.
 A-vector RMS=  4.3916784D-06 Max=  6.0693359D-05 conv= 1.00D-05.
 RLE energy=       -0.5713286192
 DE(Corr)= -0.57132496     E(CORR)=     -86.945013661     Delta=-1.86D-06
 NORM(A)=   0.11670596D+01
 Iteration Nr.  14
 **********************
 DD1Dir will call FoFMem   1 times, MxPair=       156
 NAB=    50 NAA=    45 NBB=    10.
 A-vector RMS=  2.1732876D-06 Max=  4.5841254D-05 conv= 1.00D-05.
 RLE energy=       -0.5713323689
 DE(Corr)= -0.57133120     E(CORR)=     -86.945019901     Delta=-6.24D-06
 NORM(A)=   0.11671200D+01
 Iteration Nr.  15
 **********************
 DD1Dir will call FoFMem   1 times, MxPair=       156
 NAB=    50 NAA=    45 NBB=    10.
 A-vector RMS=  1.7950233D-06 Max=  3.9960085D-05 conv= 1.00D-05.
 RLE energy=       -0.5713374822
 DE(Corr)= -0.57133406     E(CORR)=     -86.945022768     Delta=-2.87D-06
 NORM(A)=   0.11671900D+01
 Iteration Nr.  16
 **********************
 DD1Dir will call FoFMem   1 times, MxPair=       156
 NAB=    50 NAA=    45 NBB=    10.
 A-vector RMS=  1.1996688D-06 Max=  2.5741162D-05 conv= 1.00D-05.
 RLE energy=       -0.5713382935
 DE(Corr)= -0.57133689     E(CORR)=     -86.945025593     Delta=-2.82D-06
 NORM(A)=   0.11672508D+01
 Iteration Nr.  17
 **********************
 DD1Dir will call FoFMem   1 times, MxPair=       156
 NAB=    50 NAA=    45 NBB=    10.
 A-vector RMS=  8.8576801D-07 Max=  1.3926558D-05 conv= 1.00D-05.
 RLE energy=       -0.5713418535
 DE(Corr)= -0.57134002     E(CORR)=     -86.945028723     Delta=-3.13D-06
 NORM(A)=   0.11672929D+01
 Iteration Nr.  18
 **********************
 DD1Dir will call FoFMem   1 times, MxPair=       156
 NAB=    50 NAA=    45 NBB=    10.
 A-vector RMS=  4.2865197D-07 Max=  7.4035281D-06 conv= 1.00D-05.
 RLE energy=       -0.5713418554
 DE(Corr)= -0.57134108     E(CORR)=     -86.945029781     Delta=-1.06D-06
 NORM(A)=   0.11673153D+01
 Iteration Nr.  19
 **********************
 DD1Dir will call FoFMem   1 times, MxPair=       156
 NAB=    50 NAA=    45 NBB=    10.
 A-vector RMS=  3.5645767D-07 Max=  4.1278780D-06 conv= 1.00D-05.
 RLE energy=       -0.5713426501
 DE(Corr)= -0.57134237     E(CORR)=     -86.945031071     Delta=-1.29D-06
 NORM(A)=   0.11673239D+01
 Iteration Nr.  20
 **********************
 DD1Dir will call FoFMem   1 times, MxPair=       156
 NAB=    50 NAA=    45 NBB=    10.
 A-vector RMS=  1.9799328D-07 Max=  2.7452285D-06 conv= 1.00D-05.
 RLE energy=       -0.5713428139
 DE(Corr)= -0.57134263     E(CORR)=     -86.945031337     Delta=-2.66D-07
 NORM(A)=   0.11673291D+01
 Iteration Nr.  21
 **********************
 DD1Dir will call FoFMem   1 times, MxPair=       156
 NAB=    50 NAA=    45 NBB=    10.
 A-vector RMS=  1.3853101D-07 Max=  1.9463477D-06 conv= 1.00D-05.
 RLE energy=       -0.5713429461
 DE(Corr)= -0.57134293     E(CORR)=     -86.945031635     Delta=-2.98D-07
 NORM(A)=   0.11673307D+01
 Iteration Nr.  22
 **********************
 DD1Dir will call FoFMem   1 times, MxPair=       156
 NAB=    50 NAA=    45 NBB=    10.
 A-vector RMS=  6.7379382D-08 Max=  8.3395249D-07 conv= 1.00D-05.
 RLE energy=       -0.5713430649
 DE(Corr)= -0.57134300     E(CORR)=     -86.945031710     Delta=-7.51D-08
 NORM(A)=   0.11673317D+01
 CI/CC converged in   22 iterations to DelEn=-7.51D-08 Conv= 1.00D-07 ErrA1= 6.74D-08 Conv= 1.00D-05
 Wavefunction amplitudes converged. E(Corr)=     -86.945031710    
 Dominant configurations:
 ***********************
 Spin Case        I    J    A    B          Value
    AA           10        14           -0.141241D+00
    AA           10        15            0.160364D+00
    AA           10        22            0.290808D+00
    AA           10        23           -0.127417D+00
    AA           10        29            0.207906D+00
 Largest amplitude= 2.91D-01
 Time for triples=    17191.05 seconds.
 T4(CCSD)= -0.21934723D-01
 T5(CCSD)=  0.40968538D-02
 CCSD(T)= -0.86962869580D+02
 Discarding MO integrals.
 Leave Link  913 at Mon Feb 26 08:37:44 2018, MaxMem=  8589934592 cpu:           24661.9 elap:            1544.6
 (Enter /home1/apps/gaussian/16rA.03/g16/l601.exe)
 Copying SCF densities to generalized density rwf, IOpCl= 0 IROHF=1.

 **********************************************************************

            Population analysis using the SCF density.

 **********************************************************************

 Orbital symmetries:
       Occupied  (SG) (SG) (PI) (PI) (SG) (SG) (PI) (PI) (DLTA)
                 (DLTA)
       Virtual   (PI) (PI) (SG) (SG) (SG) (DLTA) (DLTA) (PI) (PI)
                 (PI) (PI) (SG) (SG) (SG) (PI) (PI) (DLTA) (DLTA)
                 (SG) (PI) (PI) (SG) (SG) (PI) (PI) (SG) (DLTA)
                 (DLTA) (PHI) (PHI) (SG) (SG) (PI) (PI) (DLTA)
                 (DLTA) (PI) (PI) (SG) (PI) (PI) (SG) (SG) (PI)
                 (PI) (DLTA) (DLTA) (SG) (PI) (PI) (SG) (?A) (?A)
                 (PHI) (PHI) (DLTA) (DLTA) (PHI) (PHI) (PI) (PI)
                 (DLTA) (DLTA) (PI) (PI) (SG) (DLTA) (DLTA) (SG)
                 (SG) (PI) (PI) (PI) (PI) (PHI) (PHI) (SG) (SG)
                 (PI) (PI) (SG) (DLTA) (DLTA) (SG) (DLTA) (DLTA)
                 (PI) (PI) (SG) (DLTA) (DLTA) (PI) (PI) (SG) (PI)
                 (PI) (SG) (PHI) (PHI) (DLTA) (DLTA) (?A) (?A)
                 (PHI) (PHI) (?B) (?B) (?A) (?A) (PI) (PI) (DLTA)
                 (DLTA) (PHI) (PHI) (SG) (PI) (PI) (DLTA) (DLTA)
                 (PI) (PI) (SG) (SG) (PI) (PI) (SG) (SG) (SG) (DLTA)
                 (DLTA) (PI) (PI) (PHI) (PHI) (DLTA) (DLTA) (SG)
                 (PI) (PI) (SG) (PI) (PI) (PHI) (PHI) (DLTA) (DLTA)
                 (SG) (DLTA) (DLTA) (PI) (PI) (SG) (PI) (PI) (PI)
                 (PI) (?A) (?A) (PHI) (PHI) (SG) (DLTA) (DLTA)
                 (SG) (?B) (?B) (?A) (?A) (PI) (PI) (PHI) (PHI)
                 (DLTA) (DLTA) (PI) (PI) (SG) (SG) (SG) (DLTA)
                 (DLTA) (PI) (PI) (SG) (PI) (PI) (SG) (PHI) (PHI)
                 (DLTA) (DLTA) (PI) (PI) (SG) (PHI) (PHI) (?A)
                 (?A) (DLTA) (DLTA) (PI) (PI) (SG) (DLTA) (DLTA)
                 (PI) (PI) (SG) (SG) (?A) (?A) (?B) (?B) (PHI)
                 (PHI) (DLTA) (DLTA) (PI) (PI) (SG) (SG) (PI) (PI)
                 (SG) (DLTA) (DLTA) (PI) (PI) (SG) (SG) (PI) (PI)
                 (SG) (DLTA) (DLTA) (PI) (PI) (SG) (SG) (PI) (PI)
                 (SG) (DLTA) (DLTA) (PI) (PI) (SG) (SG) (SG) (PI)
                 (PI) (SG) (SG) (DLTA) (DLTA) (PI) (PI) (SG) (PI)
                 (PI) (SG) (SG) (PI) (PI) (SG) (DLTA) (DLTA) (PI)
                 (PI) (SG) (SG) (PI) (PI) (SG) (SG) (PI) (PI) (SG)
                 (SG) (PI) (PI) (SG) (SG) (PI) (PI) (SG) (SG) (PI)
                 (PI) (SG) (SG) (SG) (SG) (SG) (SG)
 The electronic state is 6-SG.
 Alpha  occ. eigenvalues --   -3.83961  -2.55947  -2.55947  -2.51636  -0.48954
 Alpha  occ. eigenvalues --   -0.48954  -0.46185  -0.46185  -0.42727  -0.26687
 Alpha virt. eigenvalues --    0.01285   0.01285   0.01995   0.02342   0.04639
 Alpha virt. eigenvalues --    0.04987   0.04987   0.05384   0.05384   0.05645
 Alpha virt. eigenvalues --    0.05645   0.06812   0.09487   0.12369   0.16961
 Alpha virt. eigenvalues --    0.16961   0.17377   0.17377   0.17391   0.18151
 Alpha virt. eigenvalues --    0.18151   0.19204   0.28105   0.28598   0.28598
 Alpha virt. eigenvalues --    0.33020   0.39371   0.39371   0.39523   0.39523
 Alpha virt. eigenvalues --    0.41876   0.44796   0.44796   0.45060   0.48163
 Alpha virt. eigenvalues --    0.48163   0.51234   0.51234   0.56074   0.56074
 Alpha virt. eigenvalues --    0.56735   0.66683   0.71124   0.78831   0.78831
 Alpha virt. eigenvalues --    0.80830   0.80830   0.94729   1.08220   1.08220
 Alpha virt. eigenvalues --    1.13889   1.15721   1.15721   1.16380   1.16380
 Alpha virt. eigenvalues --    1.18213   1.18213   1.21541   1.21541   1.23466
 Alpha virt. eigenvalues --    1.23466   1.26400   1.26400   1.31560   1.31560
 Alpha virt. eigenvalues --    1.34887   1.36973   1.36973   1.41484   1.53931
 Alpha virt. eigenvalues --    1.60951   1.60951   1.74067   1.74067   1.78518
 Alpha virt. eigenvalues --    1.78518   1.79677   2.02460   2.06535   2.06535
 Alpha virt. eigenvalues --    2.12358   2.15540   2.15540   2.30682   2.64057
 Alpha virt. eigenvalues --    2.64057   2.81547   2.81547   3.05400   3.05400
 Alpha virt. eigenvalues --    3.06692   3.08029   3.08029   3.29121   3.30878
 Alpha virt. eigenvalues --    3.30878   3.31110   3.31110   3.32431   3.33327
 Alpha virt. eigenvalues --    3.33327   3.44511   3.44511   3.45302   3.45302
 Alpha virt. eigenvalues --    3.52055   3.52055   3.52675   3.52675   3.52886
 Alpha virt. eigenvalues --    3.52886   3.55308   3.55308   3.65945   3.65945
 Alpha virt. eigenvalues --    3.81933   3.88618   3.88618   4.12244   4.12244
 Alpha virt. eigenvalues --    4.12935   4.12935   4.18589   4.31962   4.76521
 Alpha virt. eigenvalues --    4.76521   4.81767   5.73447   6.56593   6.61528
 Alpha virt. eigenvalues --    6.61528   6.63965   6.63965   6.71368   6.71368
 Alpha virt. eigenvalues --    6.96291   6.96291   7.07444   7.34548   7.34548
 Alpha virt. eigenvalues --    7.35660   8.30070   8.30070   8.31219   8.31219
 Alpha virt. eigenvalues --    8.34240   8.34240   8.66681   8.68272   8.68272
 Alpha virt. eigenvalues --    8.79832   8.79832   8.92021   8.98604   8.98604
 Alpha virt. eigenvalues --    9.25215   9.25215   9.27218   9.27218   9.27379
 Alpha virt. eigenvalues --    9.27379   9.36831   9.36831   9.38578   9.77061
 Alpha virt. eigenvalues --    9.94764   9.94764   9.94779   9.94779   9.96551
 Alpha virt. eigenvalues --    9.96551   9.99428   9.99428  10.15503  10.15503
 Alpha virt. eigenvalues --   10.23425  10.23425  10.54330  11.12444  12.51303
 Alpha virt. eigenvalues --   12.92397  12.92397  12.97116  12.97116  13.28964
 Alpha virt. eigenvalues --   17.38829  17.38829  17.58248  20.98836  20.98836
 Alpha virt. eigenvalues --   21.01596  21.01596  21.13280  21.13280  21.70216
 Alpha virt. eigenvalues --   22.72231  22.72231  22.72972  22.72972  22.76015
 Alpha virt. eigenvalues --   22.76015  22.97097  22.97097  23.05899  23.50253
 Alpha virt. eigenvalues --   23.50253  23.54388  23.54388  23.79027  24.98817
 Alpha virt. eigenvalues --   26.09406  26.09406  26.09890  26.09890  26.10742
 Alpha virt. eigenvalues --   26.10742  26.16832  26.16832  26.19311  26.19311
 Alpha virt. eigenvalues --   26.25609  27.00729  32.22948  32.22948  32.39008
 Alpha virt. eigenvalues --   40.55539  40.55539  40.58486  40.58486  40.79492
 Alpha virt. eigenvalues --   47.30653  60.64025  60.64025  60.77687  73.45055
 Alpha virt. eigenvalues --   73.45055  73.47629  73.47629  73.66128  92.47236
 Alpha virt. eigenvalues --  115.54260 115.54260 115.67031 156.68352 156.68352
 Alpha virt. eigenvalues --  156.70683 156.70683 156.86226 157.73712 183.04017
 Alpha virt. eigenvalues --  221.61077 221.61077 221.73424 367.50659 392.83217
 Alpha virt. eigenvalues --  392.83217 392.85255 392.85255 392.97623 431.97044
 Alpha virt. eigenvalues --  431.97044 432.08920 749.93595 867.13980 867.13980
 Alpha virt. eigenvalues --  867.251951223.000861223.000861223.015791223.01579
 Alpha virt. eigenvalues -- 1223.099531560.773691818.845311818.845311818.94884
 Alpha virt. eigenvalues -- 3334.872314059.534694059.534694059.627887374.66132
 Alpha virt. eigenvalues -- 9915.803069915.803069915.88416********************
 Alpha virt. eigenvalues -- **************************************************
 Alpha virt. eigenvalues -- **************************************************
 Alpha virt. eigenvalues -- **********
     Molecular Orbital Coefficients:
                           1         2         3         4         5
                           O         O         O         O         O
     Eigenvalues --    -3.83961  -2.55947  -2.55947  -2.51636  -0.48954
   1 1   Cr 1S         -0.00000   0.00000   0.00000   0.00000  -0.00000
   2        2S          0.00000  -0.00000   0.00000   0.00000   0.00000
   3        3S         -0.00000   0.00000   0.00000   0.00000  -0.00000
   4        4S          0.00000  -0.00000   0.00000   0.00000   0.00000
   5        5S         -0.00001   0.00000   0.00000   0.00000  -0.00000
   6        6S          0.00003  -0.00000   0.00000   0.00000   0.00000
   7        7S         -0.00009   0.00000   0.00000   0.00000  -0.00001
   8        8S          0.00031  -0.00000   0.00000   0.00000   0.00005
   9        9S         -0.00092   0.00001   0.00000   0.00000  -0.00014
  10       10S          0.00261  -0.00003   0.00000   0.00000   0.00039
  11       11S         -0.00681   0.00009   0.00000   0.00000  -0.00102
  12       12S          0.01613  -0.00022   0.00000   0.00000   0.00245
  13       13S         -0.03281   0.00047   0.00000   0.00000  -0.00511
  14       14S          0.05396  -0.00113   0.00000   0.00000   0.00935
  15       15S          0.09915   0.00224   0.00000   0.00000   0.01118
  16       16S         -0.72411  -0.03498   0.00000   0.00000  -0.11904
  17       17S          0.93307  -0.01159   0.00000   0.00000   0.16121
  18       18S          1.51076  -0.00606   0.00000   0.00000   0.34379
  19       19S          0.14693   0.00271   0.00000   0.00000   0.06674
  20       20S         -0.01653  -0.00201   0.00000   0.00000  -0.20477
  21       21S          0.02183   0.00790   0.00000   0.00000  -0.10633
  22       22S         -0.00944  -0.00095   0.00000   0.00000  -0.00325
  23       23S         -0.02955   0.04049   0.00000   0.00000   0.00421
  24       24S         -1.10838   0.00555   0.00000   0.00000  -0.22956
  25       25S         -0.00164   0.00074   0.00000   0.00000   0.00639
  26       26PX         0.00000   0.00000   0.00000   0.00000   0.00000
  27       26PY         0.00000   0.00000   0.00000   0.00000   0.00000
  28       26PZ        -0.00000   0.00000   0.00000   0.00000  -0.00000
  29       27PX         0.00000   0.00000   0.00000  -0.00000   0.00000
  30       27PY         0.00000   0.00000  -0.00000   0.00000   0.00000
  31       27PZ         0.00000  -0.00000   0.00000   0.00000   0.00000
  32       28PX         0.00000   0.00000   0.00000   0.00002   0.00000
  33       28PY         0.00000   0.00000   0.00002   0.00000   0.00000
  34       28PZ        -0.00000   0.00002   0.00000   0.00000  -0.00000
  35       29PX         0.00000   0.00000   0.00000  -0.00008   0.00000
  36       29PY         0.00000   0.00000  -0.00008   0.00000   0.00000
  37       29PZ         0.00000  -0.00008   0.00000   0.00000   0.00001
  38       30PX         0.00000   0.00000   0.00000   0.00029   0.00000
  39       30PY         0.00000   0.00000   0.00029   0.00000   0.00000
  40       30PZ        -0.00002   0.00029   0.00000   0.00000  -0.00004
  41       31PX         0.00000   0.00000   0.00000  -0.00094   0.00000
  42       31PY         0.00000   0.00000  -0.00094   0.00000   0.00000
  43       31PZ         0.00005  -0.00094   0.00000   0.00000   0.00014
  44       32PX         0.00000   0.00000   0.00000   0.00278   0.00000
  45       32PY         0.00000   0.00000   0.00278   0.00000   0.00000
  46       32PZ        -0.00015   0.00277   0.00000   0.00000  -0.00040
  47       33PX         0.00000   0.00000   0.00000  -0.00729   0.00000
  48       33PY         0.00000   0.00000  -0.00729   0.00000   0.00000
  49       33PZ         0.00040  -0.00726   0.00000   0.00000   0.00107
  50       34PX         0.00000   0.00000   0.00000   0.01530   0.00000
  51       34PY         0.00000   0.00000   0.01530   0.00000   0.00000
  52       34PZ        -0.00102   0.01520   0.00000   0.00000  -0.00238
  53       35PX         0.00000   0.00000   0.00000  -0.00121   0.00000
  54       35PY         0.00000   0.00000  -0.00121   0.00000   0.00000
  55       35PZ         0.00255  -0.00084   0.00000   0.00000   0.00117
  56       36PX         0.00000   0.00000   0.00000  -0.02241   0.00000
  57       36PY         0.00000   0.00000  -0.02241   0.00000   0.00000
  58       36PZ         0.02059  -0.01782   0.00000   0.00000   0.00135
  59       37PX         0.00000   0.00000   0.00000   0.33315   0.00000
  60       37PY         0.00000   0.00000   0.33315   0.00000   0.00000
  61       37PZ         0.01505   0.33506   0.00000   0.00000  -0.04839
  62       38PX         0.00000   0.00000   0.00000  -0.63840   0.00000
  63       38PY         0.00000   0.00000  -0.63840   0.00000   0.00000
  64       38PZ        -0.28864  -0.67235   0.00000   0.00000   0.09484
  65       39PX         0.00000   0.00000   0.00000   0.31715   0.00000
  66       39PY         0.00000   0.00000   0.31715   0.00000   0.00000
  67       39PZ        -0.04083   0.31135   0.00000   0.00000  -0.05485
  68       40PX         0.00000   0.00000   0.00000   0.16758   0.00000
  69       40PY         0.00000   0.00000   0.16758   0.00000   0.00000
  70       40PZ         0.03610   0.16633   0.00000   0.00000  -0.01643
  71       41PX         0.00000   0.00000   0.00000   0.00661   0.00000
  72       41PY         0.00000   0.00000   0.00661   0.00000   0.00000
  73       41PZ         0.01731   0.00521   0.00000   0.00000   0.09090
  74       42PX         0.00000   0.00000   0.00000   0.00309   0.00000
  75       42PY         0.00000   0.00000   0.00309   0.00000   0.00000
  76       42PZ        -0.02214  -0.00083   0.00000   0.00000   0.07757
  77       43PX         0.00000   0.00000   0.00000  -0.00126   0.00000
  78       43PY         0.00000   0.00000  -0.00126   0.00000   0.00000
  79       43PZ         0.00430  -0.00111   0.00000   0.00000   0.00127
  80       44PX         0.00000   0.00000   0.00000  -0.14896   0.00000
  81       44PY         0.00000   0.00000  -0.14896   0.00000   0.00000
  82       44PZ        -0.02628  -0.15459   0.00000   0.00000   0.02085
  83       45PX         0.00000   0.00000   0.00000   1.03533   0.00000
  84       45PY         0.00000   0.00000   1.03533   0.00000   0.00000
  85       45PZ         0.30273   1.07376   0.00000   0.00000  -0.15860
  86       46PX         0.00000   0.00000   0.00000   0.00042   0.00000
  87       46PY         0.00000   0.00000   0.00042   0.00000   0.00000
  88       46PZ         0.00078   0.00014   0.00000   0.00000  -0.00184
  89       47D 0        0.00000  -0.00000   0.00000   0.00000   0.00001
  90       47D+1        0.00000   0.00000   0.00000   0.00000   0.00000
  91       47D-1        0.00000   0.00000   0.00000   0.00000   0.00000
  92       47D+2        0.00000   0.00000   0.00000   0.00000   0.00000
  93       47D-2        0.00000   0.00000   0.00000   0.00000   0.00000
  94       48D 0       -0.00001   0.00000   0.00000   0.00000  -0.00004
  95       48D+1        0.00000   0.00000   0.00000  -0.00000   0.00000
  96       48D-1        0.00000   0.00000  -0.00000   0.00000   0.00000
  97       48D+2       -0.00000  -0.00000   0.00000   0.00000  -0.00000
  98       48D-2        0.00000   0.00000   0.00000   0.00000   0.00000
  99       49D 0        0.00003  -0.00001   0.00000   0.00000   0.00017
 100       49D+1        0.00000   0.00000   0.00000   0.00000   0.00000
 101       49D-1        0.00000   0.00000   0.00000   0.00000   0.00000
 102       49D+2        0.00000   0.00000   0.00000   0.00000   0.00000
 103       49D-2        0.00000   0.00000   0.00000   0.00000   0.00000
 104       50D 0       -0.00020  -0.00006   0.00000   0.00000   0.00094
 105       50D+1        0.00000   0.00000   0.00000   0.00000   0.00000
 106       50D-1        0.00000   0.00000   0.00000   0.00000   0.00000
 107       50D+2        0.00000  -0.00000   0.00000   0.00000   0.00000
 108       50D-2        0.00000   0.00000   0.00000   0.00000   0.00000
 109       51D 0        0.00258   0.00199   0.00000   0.00000  -0.03184
 110       51D+1        0.00000   0.00000   0.00000  -0.00033   0.00000
 111       51D-1        0.00000   0.00000  -0.00033   0.00000   0.00000
 112       51D+2       -0.00000   0.00000   0.00000   0.00000  -0.00000
 113       51D-2        0.00000   0.00000   0.00000   0.00000   0.00000
 114       52D 0        0.02022   0.00588   0.00000   0.00000  -0.06779
 115       52D+1        0.00000   0.00000   0.00000  -0.00052   0.00000
 116       52D-1        0.00000   0.00000  -0.00052   0.00000   0.00000
 117       52D+2       -0.00000   0.00000   0.00000   0.00000  -0.00000
 118       52D-2        0.00000   0.00000   0.00000   0.00000   0.00000
 119       53D 0        0.01277   0.00556   0.00000   0.00000  -0.06666
 120       53D+1        0.00000   0.00000   0.00000  -0.00006   0.00000
 121       53D-1        0.00000   0.00000  -0.00006   0.00000   0.00000
 122       53D+2       -0.00000   0.00000   0.00000   0.00000  -0.00000
 123       53D-2        0.00000   0.00000   0.00000   0.00000   0.00000
 124       54D 0       -0.00571   0.00330   0.00000   0.00000  -0.07186
 125       54D+1        0.00000   0.00000   0.00000   0.00152   0.00000
 126       54D-1        0.00000   0.00000   0.00152   0.00000   0.00000
 127       54D+2       -0.00000   0.00000   0.00000   0.00000  -0.00000
 128       54D-2        0.00000   0.00000   0.00000   0.00000   0.00000
 129       55D 0       -0.01644  -0.00247   0.00000   0.00000  -0.07192
 130       55D+1        0.00000   0.00000   0.00000   0.00100   0.00000
 131       55D-1        0.00000   0.00000   0.00100   0.00000   0.00000
 132       55D+2       -0.00000  -0.00000   0.00000   0.00000  -0.00000
 133       55D-2        0.00000   0.00000   0.00000   0.00000   0.00000
 134       56D 0        0.00878   0.00204   0.00000   0.00000  -0.05534
 135       56D+1        0.00000   0.00000   0.00000   0.00051   0.00000
[...]
  97       48D+2        0.00000   0.00000   0.00000   0.00000
  98       48D-2        0.00000   0.00000   0.00000   0.00000
  99       49D 0       -0.00001  -0.00001  -0.00000  -0.00000
 100       49D+1       -0.00008  -0.00008  -0.00000  -0.00008
 101       49D-1       -0.00008  -0.00008  -0.00000  -0.00008
 102       49D+2       -0.00008  -0.00008  -0.00000  -0.00008
 103       49D-2       -0.00008  -0.00008  -0.00000  -0.00008
 104       50D 0       -0.00017  -0.00012  -0.00005  -0.00007
 105       50D+1       -0.00108  -0.00108  -0.00000  -0.00108
 106       50D-1       -0.00108  -0.00108  -0.00000  -0.00108
 107       50D+2       -0.00105  -0.00105   0.00000  -0.00105
 108       50D-2       -0.00105  -0.00105  -0.00000  -0.00105
 109       51D 0        0.01147   0.00822   0.00324   0.00498
 110       51D+1        0.07956   0.07956   0.00000   0.07956
 111       51D-1        0.07956   0.07956   0.00000   0.07956
 112       51D+2        0.07806   0.07806   0.00000   0.07806
 113       51D-2        0.07806   0.07806   0.00000   0.07806
 114       52D 0        0.03927   0.02817   0.01110   0.01707
 115       52D+1        0.25252   0.25252   0.00000   0.25252
 116       52D-1        0.25252   0.25252   0.00000   0.25252
 117       52D+2        0.24794   0.24794  -0.00000   0.24794
 118       52D-2        0.24794   0.24794  -0.00000   0.24794
 119       53D 0        0.05222   0.03681   0.01540   0.02141
 120       53D+1        0.30219   0.30219  -0.00000   0.30219
 121       53D-1        0.30219   0.30219  -0.00000   0.30219
 122       53D+2        0.29775   0.29775   0.00000   0.29775
 123       53D-2        0.29775   0.29775   0.00000   0.29775
 124       54D 0        0.06977   0.04648   0.02328   0.02320
 125       54D+1        0.27941   0.27940   0.00000   0.27940
 126       54D-1        0.27941   0.27940   0.00000   0.27940
 127       54D+2        0.28114   0.28114   0.00000   0.28114
 128       54D-2        0.28114   0.28114   0.00000   0.28114
 129       55D 0        0.08951   0.05751   0.03200   0.02552
 130       55D+1        0.16248   0.16248   0.00000   0.16248
 131       55D-1        0.16248   0.16248   0.00000   0.16248
 132       55D+2        0.17134   0.17134   0.00000   0.17134
 133       55D-2        0.17134   0.17134   0.00000   0.17134
 134       56D 0        0.06065   0.03602   0.02463   0.01139
 135       56D+1        0.03644   0.03644   0.00000   0.03643
 136       56D-1        0.03644   0.03644   0.00000   0.03643
 137       56D+2        0.04008   0.04008   0.00000   0.04008
 138       56D-2        0.04008   0.04008   0.00000   0.04008
 139       57D 0        0.00633   0.00374   0.00259   0.00116
 140       57D+1        0.00117   0.00117  -0.00000   0.00117
 141       57D-1        0.00117   0.00117  -0.00000   0.00117
 142       57D+2        0.00135   0.00135  -0.00000   0.00135
 143       57D-2        0.00135   0.00135   0.00000   0.00135
 144       58D 0       -0.00929  -0.00671  -0.00259  -0.00412
 145       58D+1       -0.05891  -0.05891  -0.00000  -0.05891
 146       58D-1       -0.05891  -0.05891  -0.00000  -0.05891
 147       58D+2       -0.05787  -0.05787  -0.00000  -0.05787
 148       58D-2       -0.05787  -0.05787  -0.00000  -0.05787
 149       59D 0       -0.01121  -0.00814  -0.00307  -0.00506
 150       59D+1       -0.05942  -0.05942   0.00000  -0.05942
 151       59D-1       -0.05942  -0.05942   0.00000  -0.05942
 152       59D+2       -0.05876  -0.05876  -0.00000  -0.05876
 153       59D-2       -0.05876  -0.05876  -0.00000  -0.05876
 154       60D 0       -0.00024  -0.00010  -0.00014   0.00003
 155       60D+1       -0.00001  -0.00001   0.00000  -0.00001
 156       60D-1       -0.00001  -0.00001   0.00000  -0.00001
 157       60D+2       -0.00001  -0.00001  -0.00000  -0.00001
 158       60D-2       -0.00001  -0.00001  -0.00000  -0.00001
 159       61F 0        0.00001   0.00000   0.00000   0.00000
 160       61F+1        0.00000   0.00000   0.00000   0.00000
 161       61F-1        0.00000   0.00000   0.00000   0.00000
 162       61F+2        0.00000   0.00000   0.00000   0.00000
 163       61F-2        0.00000   0.00000   0.00000   0.00000
 164       61F+3        0.00000   0.00000   0.00000   0.00000
 165       61F-3        0.00000   0.00000   0.00000  -0.00000
 166       62F 0        0.00002   0.00001   0.00001   0.00000
 167       62F+1        0.00002   0.00001   0.00001   0.00000
 168       62F-1        0.00002   0.00001   0.00001   0.00000
 169       62F+2       -0.00000  -0.00000   0.00000  -0.00000
 170       62F-2       -0.00000  -0.00000   0.00000  -0.00000
 171       62F+3        0.00000   0.00000   0.00000   0.00000
 172       62F-3        0.00000   0.00000   0.00000  -0.00000
 173       63F 0        0.00070   0.00034   0.00035  -0.00001
 174       63F+1        0.00003   0.00002   0.00001   0.00001
 175       63F-1        0.00003   0.00002   0.00001   0.00001
 176       63F+2        0.00001   0.00001   0.00000   0.00001
 177       63F-2        0.00001   0.00001   0.00000   0.00001
 178       63F+3        0.00000   0.00000   0.00000  -0.00000
 179       63F-3        0.00000   0.00000   0.00000  -0.00000
 180       64F 0        0.00499   0.00242   0.00256  -0.00014
 181       64F+1        0.00004   0.00003   0.00000   0.00003
 182       64F-1        0.00004   0.00003   0.00000   0.00003
 183       64F+2        0.00011   0.00011  -0.00000   0.00011
 184       64F-2        0.00011   0.00011  -0.00000   0.00011
 185       64F+3        0.00000   0.00000  -0.00000   0.00000
 186       64F-3        0.00000   0.00000   0.00000   0.00000
 187       65F 0        0.00307   0.00141   0.00166  -0.00025
 188       65F+1        0.00001   0.00001  -0.00000   0.00001
 189       65F-1        0.00001   0.00001  -0.00000   0.00001
 190       65F+2        0.00005   0.00005   0.00000   0.00005
 191       65F-2        0.00005   0.00005   0.00000   0.00005
 192       65F+3        0.00000   0.00000   0.00000   0.00000
 193       65F-3        0.00000   0.00000   0.00000   0.00000
 194       66G 0        0.00000   0.00000   0.00000  -0.00000
 195       66G+1        0.00000   0.00000  -0.00000   0.00000
 196       66G-1        0.00000   0.00000  -0.00000   0.00000
 197       66G+2        0.00000   0.00000   0.00000   0.00000
 198       66G-2        0.00000   0.00000   0.00000   0.00000
 199       66G+3        0.00000   0.00000   0.00000   0.00000
 200       66G-3        0.00000   0.00000   0.00000   0.00000
 201       66G+4       -0.00000  -0.00000   0.00000  -0.00000
 202       66G-4        0.00000   0.00000   0.00000   0.00000
 203       67G 0        0.00001   0.00000   0.00000   0.00000
 204       67G+1        0.00000  -0.00000   0.00000  -0.00000
 205       67G-1        0.00000  -0.00000   0.00000  -0.00000
 206       67G+2        0.00000   0.00000   0.00000   0.00000
 207       67G-2        0.00000   0.00000   0.00000   0.00000
 208       67G+3        0.00000   0.00000   0.00000   0.00000
 209       67G-3        0.00000   0.00000  -0.00000   0.00000
 210       67G+4        0.00000   0.00000   0.00000   0.00000
 211       67G-4        0.00000   0.00000   0.00000   0.00000
 212       68G 0        0.00027   0.00015   0.00013   0.00002
 213       68G+1       -0.00000  -0.00000   0.00000  -0.00000
 214       68G-1       -0.00000  -0.00000   0.00000  -0.00000
 215       68G+2        0.00000   0.00000   0.00000   0.00000
 216       68G-2        0.00000   0.00000   0.00000   0.00000
 217       68G+3        0.00000   0.00000   0.00000   0.00000
 218       68G-3        0.00000   0.00000   0.00000   0.00000
 219       68G+4       -0.00000  -0.00000  -0.00000  -0.00000
 220       68G-4        0.00000   0.00000  -0.00000   0.00000
 221       69G 0        0.00060   0.00032   0.00028   0.00004
 222       69G+1       -0.00000  -0.00000   0.00000  -0.00000
 223       69G-1       -0.00000  -0.00000   0.00000  -0.00000
 224       69G+2       -0.00000  -0.00000   0.00000  -0.00000
 225       69G-2       -0.00000  -0.00000   0.00000  -0.00000
 226       69G+3        0.00000   0.00000   0.00000   0.00000
 227       69G-3        0.00000   0.00000  -0.00000   0.00000
 228       69G+4        0.00000   0.00000   0.00000   0.00000
 229       69G-4        0.00000   0.00000   0.00000   0.00000
 230       70H 0        0.00000   0.00000   0.00000   0.00000
 231       70H+1        0.00000   0.00000   0.00000   0.00000
 232       70H-1        0.00000   0.00000   0.00000   0.00000
 233       70H+2       -0.00000  -0.00000   0.00000  -0.00000
 234       70H-2       -0.00000  -0.00000   0.00000  -0.00000
 235       70H+3        0.00000   0.00000   0.00000   0.00000
 236       70H-3        0.00000   0.00000   0.00000  -0.00000
 237       70H+4        0.00000   0.00000   0.00000   0.00000
 238       70H-4        0.00000   0.00000   0.00000   0.00000
 239       70H+5        0.00000   0.00000   0.00000  -0.00000
 240       70H-5        0.00000   0.00000   0.00000  -0.00000
 241       71H 0        0.00000   0.00000   0.00000  -0.00000
 242       71H+1        0.00000   0.00000   0.00000  -0.00000
 243       71H-1        0.00000   0.00000   0.00000  -0.00000
 244       71H+2        0.00000   0.00000   0.00000   0.00000
 245       71H-2        0.00000   0.00000   0.00000   0.00000
 246       71H+3        0.00000   0.00000   0.00000   0.00000
 247       71H-3        0.00000   0.00000   0.00000   0.00000
 248       71H+4        0.00000   0.00000   0.00000   0.00000
 249       71H-4        0.00000   0.00000   0.00000   0.00000
 250       71H+5        0.00000   0.00000   0.00000  -0.00000
 251       71H-5        0.00000   0.00000   0.00000  -0.00000
 252       72H 0        0.00003   0.00001   0.00001  -0.00000
 253       72H+1       -0.00000  -0.00000  -0.00000  -0.00000
 254       72H-1       -0.00000  -0.00000  -0.00000  -0.00000
 255       72H+2        0.00000   0.00000  -0.00000   0.00000
 256       72H-2        0.00000   0.00000  -0.00000   0.00000
 257       72H+3        0.00000   0.00000   0.00000  -0.00000
 258       72H-3        0.00000   0.00000   0.00000   0.00000
 259       72H+4        0.00000  -0.00000   0.00000  -0.00000
 260       72H-4        0.00000   0.00000   0.00000   0.00000
 261       72H+5       -0.00000  -0.00000  -0.00000  -0.00000
 262       72H-5        0.00000   0.00000  -0.00000   0.00000
 263 2   H  1S          0.00020   0.00010   0.00010   0.00001
 264        2S          0.00532   0.00274   0.00258   0.00016
 265        3S          0.05620   0.02893   0.02727   0.00166
 266        4S          0.28527   0.14670   0.13857   0.00812
 267        5S          0.60902   0.30893   0.30009   0.00884
 268        6S          0.31794   0.15443   0.16351  -0.00907
 269        7S          0.02766   0.01366   0.01400  -0.00034
 270        8PX         0.00004   0.00004   0.00000   0.00004
 271        8PY         0.00004   0.00004   0.00000   0.00004
 272        8PZ         0.00019   0.00010   0.00009   0.00000
 273        9PX         0.00049   0.00048   0.00001   0.00047
 274        9PY         0.00049   0.00048   0.00001   0.00047
 275        9PZ         0.00287   0.00144   0.00143   0.00002
 276       10PX         0.00145   0.00144   0.00001   0.00143
 277       10PY         0.00145   0.00144   0.00001   0.00143
 278       10PZ         0.01970   0.01013   0.00957   0.00057
 279       11PX         0.00027   0.00029  -0.00002   0.00031
 280       11PY         0.00027   0.00029  -0.00002   0.00031
 281       11PZ         0.00697   0.00394   0.00303   0.00091
 282       12D 0        0.00002   0.00001   0.00001   0.00000
 283       12D+1        0.00002   0.00002   0.00000   0.00002
 284       12D-1        0.00002   0.00002   0.00000   0.00002
 285       12D+2        0.00000   0.00000  -0.00000   0.00000
 286       12D-2        0.00000   0.00000  -0.00000   0.00000
 287       13D 0        0.00207   0.00104   0.00103   0.00001
 288       13D+1        0.00031   0.00031   0.00000   0.00031
 289       13D-1        0.00031   0.00031   0.00000   0.00031
 290       13D+2        0.00003   0.00003   0.00000   0.00003
 291       13D-2        0.00003   0.00003  -0.00000   0.00003
 292       14D 0        0.00998   0.00513   0.00485   0.00029
 293       14D+1        0.00001   0.00005  -0.00005   0.00010
 294       14D-1        0.00001   0.00005  -0.00005   0.00010
 295       14D+2       -0.00005  -0.00005  -0.00000  -0.00005
 296       14D-2       -0.00005  -0.00005   0.00000  -0.00005
 297       15F 0        0.00010   0.00005   0.00005   0.00000
 298       15F+1        0.00003   0.00003   0.00000   0.00003
 299       15F-1        0.00003   0.00003   0.00000   0.00003
 300       15F+2        0.00000   0.00000   0.00000   0.00000
 301       15F-2        0.00000   0.00000  -0.00000   0.00000
 302       15F+3       -0.00000  -0.00000  -0.00000  -0.00000
 303       15F-3       -0.00000  -0.00000   0.00000  -0.00000
 304       16F 0        0.00258   0.00130   0.00128   0.00002
 305       16F+1       -0.00014  -0.00006  -0.00008   0.00002
 306       16F-1       -0.00014  -0.00006  -0.00008   0.00002
 307       16F+2       -0.00004  -0.00004  -0.00000  -0.00004
 308       16F-2       -0.00004  -0.00004   0.00000  -0.00004
 309       16F+3       -0.00000   0.00000  -0.00000   0.00000
 310       16F-3       -0.00000  -0.00000  -0.00000  -0.00000
          Condensed to atoms (all electrons):
               1          2
     1  Cr  13.268194   0.380876
     2  H    0.380876   0.970054
          Atomic-Atomic Spin Densities.
               1          2
     1  Cr   4.999202  -0.015748
     2  H   -0.015748   0.032294
 Mulliken charges and spin densities:
               1          2
     1  Cr   0.350930   4.983454
     2  H   -0.350930   0.016546
 Sum of Mulliken charges =  -0.00000   5.00000
 Mulliken charges and spin densities with hydrogens summed into heavy atoms:
               1          2
     1  Cr  -0.000000   5.000000
 Electronic spatial extent (au):  <R**2>=             51.4567
 Charge=             -0.0000 electrons
 Dipole moment (field-independent basis, Debye):
    X=              0.0000    Y=              0.0000    Z=              1.8403  Tot=              1.8403
 Quadrupole moment (field-independent basis, Debye-Ang):
   XX=            -17.1522   YY=            -17.1522   ZZ=            -23.2990
   XY=              0.0000   XZ=              0.0000   YZ=              0.0000
 Traceless Quadrupole moment (field-independent basis, Debye-Ang):
   XX=              2.0489   YY=              2.0489   ZZ=             -4.0979
   XY=              0.0000   XZ=              0.0000   YZ=              0.0000
 Octapole moment (field-independent basis, Debye-Ang**2):
  XXX=              0.0000  YYY=              0.0000  ZZZ=              6.9540  XYY=              0.0000
  XXY=              0.0000  XXZ=             -0.5857  XZZ=              0.0000  YZZ=              0.0000
  YYZ=             -0.5857  XYZ=              0.0000
 Hexadecapole moment (field-independent basis, Debye-Ang**3):
 XXXX=            -30.7928 YYYY=            -30.7928 ZZZZ=            -78.4665 XXXY=              0.0000
 XXXZ=              0.0000 YYYX=              0.0000 YYYZ=              0.0000 ZZZX=              0.0000
 ZZZY=              0.0000 XXYY=            -10.2643 XXZZ=            -17.4467 YYZZ=            -17.4467
 XXYZ=              0.0000 YYXZ=              0.0000 ZZXY=              0.0000
 N-N= 4.630300595550D+00 E-N=-1.987747704237D+02  KE= 4.125552449762D+01
 Symmetry A1   KE= 1.594023554016D+01
 Symmetry A2   KE= 4.261239627794D+00
 Symmetry B1   KE= 1.052702466924D+01
 Symmetry B2   KE= 1.052702466538D+01
 Symmetry A1   SP= 2.000000000000D+00
 Symmetry A2   SP= 1.000000000000D+00
 Symmetry B1   SP= 1.000000000000D+00
 Symmetry B2   SP= 1.000000000000D+00
 Orbital energies and kinetic energies (alpha):
                                 1                 2
   1         O                -3.839615          1.716783
   2         O                -2.559473          3.106084
   3         O                -2.559473          3.101385
   4         O                -2.516361          3.101385
   5         O                -0.489536          0.701985
   6         O                -0.489536          0.629292
   7         O                -0.461850          4.324254
   8         O                -0.461850          4.324254
   9         O                -0.427267          4.261240
  10         O                -0.266867          4.261240
  11         V                 0.012849          0.051616
  12         V                 0.012849          0.051616
  13         V                 0.019954          0.030701
  14         V                 0.023416          0.064399
  15         V                 0.046393          0.081347
 Total kinetic energy from orbitals= 5.905580374013D+01
                          Isotropic Fermi Contact Couplings
        Atom                 a.u.       MegaHertz       Gauss      10(-4) cm-1
     1  Cr(53)             0.00153      -0.07735      -0.02760      -0.02580
     2  H(1)               0.01239      11.07290       3.95108       3.69352
 --------------------------------------------------------
       Center         ----  Spin Dipole Couplings  ----
                      3XX-RR        3YY-RR        3ZZ-RR
 --------------------------------------------------------
     1   Atom        0.393521      0.393521     -0.787043
     2   Atom       -0.120765     -0.120765      0.241529
 --------------------------------------------------------
                        XY            XZ            YZ
 --------------------------------------------------------
     1   Atom        0.000000      0.000000      0.000000
     2   Atom        0.000000      0.000000      0.000000
 --------------------------------------------------------


 ---------------------------------------------------------------------------------
              Anisotropic Spin Dipole Couplings in Principal Axis System
 ---------------------------------------------------------------------------------

       Atom             a.u.   MegaHertz   Gauss  10(-4) cm-1        Axes

              Baa    -0.7870    23.784     8.487     7.933  0.0000  0.0000  1.0000
     1 Cr(53) Bbb     0.3935   -11.892    -4.243    -3.967 -0.0000  1.0000  0.0000
              Bcc     0.3935   -11.892    -4.243    -3.967  1.0000  0.0000  0.0000
 
              Baa    -0.1208   -64.434   -22.992   -21.493 -0.0000  1.0000  0.0000
     2 H(1)   Bbb    -0.1208   -64.434   -22.992   -21.493  1.0000  0.0000  0.0000
              Bcc     0.2415   128.869    45.983    42.986  0.0000  0.0000  1.0000
 

 ---------------------------------------------------------------------------------

 No NMR shielding tensors so no spin-rotation constants.
 Leave Link  601 at Mon Feb 26 08:37:49 2018, MaxMem=  8589934592 cpu:              86.5 elap:               5.6
 (Enter /home1/apps/gaussian/16rA.03/g16/l9999.exe)
 1\1\GINC-C422-131\SP\ROCCSD(T)-Full\Gen\Cr1H1(6)\AANNABE\26-Feb-2018\0
 \\#P ROCCSD(T)=(maxcyc=150, Full, SaveAmplitudes, ReadAmplitudes)/Gen 
 5d 7f SCF=(maxcycles=300) Integral(NoXCTest) MaxDisk=500GB Pop=Regular
  Pseudo=Read Guess=Read\\CrH\\0,6\Cr,0,0.,0.,0.\H,0,0.,0.,1.6\\Version
 =ES64L-G16RevA.03\State=6-SG\HF=-86.3736887\MP2=-86.924909\PUHF=-86.37
 36887\PMP2-0=-86.924909\CCSD=-86.9450317\CCSD(T)=-86.9628696\RMSD=7.72
 0e-09\PG=C*V [C*(H1Cr1)]\\@


 ... I FELL INTO A REVERIE ... THE ATOMS WERE GAMBOLING BEFORE MY EYES
 ... I SAW HOW TWO SMALL ONES UNITED TO FORM A PAIR;
 HOW THE LARGER ONES SEIZED TWO OF THE SMALLER ONES;
 HOW STILL LARGER ONES KEPT HOLD OF THREE OR FOUR
 SMALLER ONES ... I SAW HOW THE LARGER ONES FORMED A CHAIN ...
 THIS WAS THE ORIGIN OF THE STRUCTURE THEORY.

                                   -- C.F.KEKULE VON STRADONITZ
 Job cpu time:       0 days  9 hours 19 minutes 50.3 seconds.
 Elapsed time:       0 days  0 hours 35 minutes 12.1 seconds.
 File lengths (MBytes):  RWF=   7485 Int=      0 D2E=      0 Chk=     32 Scr=      1
 Normal termination of Gaussian 16 at Mon Feb 26 08:37:50 2018.
