 Entering Gaussian System, Link 0=g16
 Initial command:
 /home1/apps/gaussian/16rA.03/g16/l1.exe "/tmp/Gau-169920.inp" -scrdir="/tmp/"
 Entering Link 1 = /home1/apps/gaussian/16rA.03/g16/l1.exe PID=    169921.
  
 Copyright (c) 1988,1990,1992,1993,1995,1998,2003,2009,2016,
            Gaussian, Inc.  All Rights Reserved.
  
 This is part of the Gaussian(R) 16 program.  It is based on
 the Gaussian(R) 09 system (copyright 2009, Gaussian, Inc.),
 the Gaussian(R) 03 system (copyright 2003, Gaussian, Inc.),
 the Gaussian(R) 98 system (copyright 1998, Gaussian, Inc.),
 the Gaussian(R) 94 system (copyright 1995, Gaussian, Inc.),
 the Gaussian 92(TM) system (copyright 1992, Gaussian, Inc.),
 the Gaussian 90(TM) system (copyright 1990, Gaussian, Inc.),
 the Gaussian 88(TM) system (copyright 1988, Gaussian, Inc.),
 the Gaussian 86(TM) system (copyright 1986, Carnegie Mellon
 University), and the Gaussian 82(TM) system (copyright 1983,
 Carnegie Mellon University). Gaussian is a federally registered
 trademark of Gaussian, Inc.
  
 This software contains proprietary and confidential information,
 including trade secrets, belonging to Gaussian, Inc.
  
 This software is provided under written license and may be
 used, copied, transmitted, or stored only in accord with that
 written license.
  
 The following legend is applicable only to US Government
 contracts under FAR:
  
                    RESTRICTED RIGHTS LEGEND
  
 Use, reproduction and disclosure by the US Government is
 subject to restrictions as set forth in subparagraphs (a)
 and (c) of the Commercial Computer Software - Restricted
 Rights clause in FAR 52.227-19.
  
 Gaussian, Inc.
 340 Quinnipiac St., Bldg. 40, Wallingford CT 06492
  
  
 ---------------------------------------------------------------
 Warning -- This program may not be used in any manner that
 competes with the business of Gaussian, Inc. or will provide
 assistance to any competitor of Gaussian, Inc.  The licensee
 of this program is prohibited from giving any competitor of
 Gaussian, Inc. access to this program.  By using this program,
 the user acknowledges that Gaussian, Inc. is engaged in the
 business of creating and licensing software in the field of
 computational chemistry and represents and warrants to the
 licensee that it is not a competitor of Gaussian, Inc. and that
 it will not use this program in any manner prohibited above.
 ---------------------------------------------------------------
  

 Cite this work as:
 Gaussian 16, Revision A.03,
 M. J. Frisch, G. W. Trucks, H. B. Schlegel, G. E. Scuseria, 
 M. A. Robb, J. R. Cheeseman, G. Scalmani, V. Barone, 
 G. A. Petersson, H. Nakatsuji, X. Li, M. Caricato, A. V. Marenich, 
 J. Bloino, B. G. Janesko, R. Gomperts, B. Mennucci, H. P. Hratchian, 
 J. V. Ortiz, A. F. Izmaylov, J. L. Sonnenberg, D. Williams-Young, 
 F. Ding, F. Lipparini, F. Egidi, J. Goings, B. Peng, A. Petrone, 
 T. Henderson, D. Ranasinghe, V. G. Zakrzewski, J. Gao, N. Rega, 
 G. Zheng, W. Liang, M. Hada, M. Ehara, K. Toyota, R. Fukuda, 
 J. Hasegawa, M. Ishida, T. Nakajima, Y. Honda, O. Kitao, H. Nakai, 
 T. Vreven, K. Throssell, J. A. Montgomery, Jr., J. E. Peralta, 
 F. Ogliaro, M. J. Bearpark, J. J. Heyd, E. N. Brothers, K. N. Kudin, 
 V. N. Staroverov, T. A. Keith, R. Kobayashi, J. Normand, 
 K. Raghavachari, A. P. Rendell, J. C. Burant, S. S. Iyengar, 
 J. Tomasi, M. Cossi, J. M. Millam, M. Klene, C. Adamo, R. Cammi, 
 J. W. Ochterski, R. L. Martin, K. Morokuma, O. Farkas, 
 J. B. Foresman, and D. J. Fox, Gaussian, Inc., Wallingford CT, 2016.
 
 ******************************************
 Gaussian 16:  ES64L-G16RevA.03 25-Dec-2016
                26-Feb-2018 
 ******************************************
 %MEM=64GB
 %CPU=0-15
 SetSPE:  set environment variable "MP_BIND" = "yes"
 SetSPE:  set environment variable "MP_BLIST" = "0,1,2,3,4,5,6,7,8,9,10,11,12,13,14,15"
 Will use up to   16 processors via shared memory.
 %RWF=/scratch/04843/aannabe/gaussian/
 %Int=/scratch/04843/aannabe/gaussian/
 %D2E=/scratch/04843/aannabe/gaussian/
 %NoSave
 %CHK=CrH
 ----------------------------------------------------------------------
 #P ROCCSD(T)=(maxcyc=150, Full, SaveAmplitudes, ReadAmplitudes)/Gen 5d
  7f SCF=(maxcycles=300) Integral(NoXCTest) MaxDisk=500GB Pop=Regular P
 seudo=Read Guess=Read IOp(5/15=2)
 ----------------------------------------------------------------------
 1/38=1,172=1/1;
 2/12=2,17=6,18=5,40=1/2;
 3/5=7,8=11,11=2,16=1,17=8,25=1,30=1,47=8,116=101/1,2,3;
 4/5=1/1;
 5/5=2,7=300,15=2,38=6/2;
 8/5=-1,6=4,9=120000,10=90,24=1/1,4;
 9/5=7,6=150,14=2,77=1/13;
 6//1;
 99/5=1,9=1/99;
 Leave Link    1 at Mon Feb 26 12:54:43 2018, MaxMem=  8589934592 cpu:               5.2 elap:               0.3
 (Enter /home1/apps/gaussian/16rA.03/g16/l101.exe)
 ---
 CrH
 ---
 Symbolic Z-matrix:
 Charge =  0 Multiplicity = 6
 Cr                    0.        0.        0. 
 H                     0.        0.        1.8 
 
 ITRead=  0  0
 MicOpt= -1 -1
 NAtoms=      2 NQM=        2 NQMF=       0 NMMI=      0 NMMIF=      0
                NMic=       0 NMicF=      0.
                    Isotopes and Nuclear Properties:
 (Nuclear quadrupole moments (NQMom) in fm**2, nuclear magnetic moments (NMagM)
  in nuclear magnetons)

  Atom         1           2
 IAtWgt=          52           1
 AtmWgt=  51.9405097   1.0078250
 NucSpn=           0           1
 AtZEff=  -0.0000000  -0.0000000
 NQMom=    0.0000000   0.0000000
 NMagM=    0.0000000   2.7928460
 AtZNuc=  24.0000000   1.0000000
 Leave Link  101 at Mon Feb 26 12:54:44 2018, MaxMem=  8589934592 cpu:               1.5 elap:               0.1
 (Enter /home1/apps/gaussian/16rA.03/g16/l202.exe)
                          Input orientation:                          
 ---------------------------------------------------------------------
 Center     Atomic      Atomic             Coordinates (Angstroms)
 Number     Number       Type             X           Y           Z
 ---------------------------------------------------------------------
      1         24           0        0.000000    0.000000    0.000000
      2          1           0        0.000000    0.000000    1.800000
 ---------------------------------------------------------------------
 Stoichiometry    CrH(6)
 Framework group  C*V[C*(HCr)]
 Deg. of freedom     1
 Full point group                 C*V     NOp   4
 Largest Abelian subgroup         C2V     NOp   4
 Largest concise Abelian subgroup C1      NOp   1
                         Standard orientation:                         
 ---------------------------------------------------------------------
 Center     Atomic      Atomic             Coordinates (Angstroms)
 Number     Number       Type             X           Y           Z
 ---------------------------------------------------------------------
      1         24           0        0.000000    0.000000    0.072000
      2          1           0        0.000000    0.000000   -1.728000
 ---------------------------------------------------------------------
 Rotational constants (GHZ):           0.0000000         157.7731676         157.7731676
 Leave Link  202 at Mon Feb 26 12:54:44 2018, MaxMem=  8589934592 cpu:               0.4 elap:               0.1
 (Enter /home1/apps/gaussian/16rA.03/g16/l301.exe)
 General basis read from cards:  (5D, 7F)
 Centers:       1
 S 1 1.00
     Exponent=  6.1771940000D+06 Coefficients=  1.0000000000D+00
 S 1 1.00
     Exponent=  9.2492950000D+05 Coefficients=  1.0000000000D+00
 S 1 1.00
     Exponent=  2.1048650000D+05 Coefficients=  1.0000000000D+00
 S 1 1.00
     Exponent=  5.9620050000D+04 Coefficients=  1.0000000000D+00
 S 1 1.00
     Exponent=  1.9450760000D+04 Coefficients=  1.0000000000D+00
 S 1 1.00
     Exponent=  7.0220560000D+03 Coefficients=  1.0000000000D+00
 S 1 1.00
     Exponent=  2.7387630000D+03 Coefficients=  1.0000000000D+00
 S 1 1.00
     Exponent=  1.1358140000D+03 Coefficients=  1.0000000000D+00
 S 1 1.00
     Exponent=  4.9509230000D+02 Coefficients=  1.0000000000D+00
 S 1 1.00
     Exponent=  2.2474870000D+02 Coefficients=  1.0000000000D+00
 S 1 1.00
     Exponent=  1.0538360000D+02 Coefficients=  1.0000000000D+00
 S 1 1.00
     Exponent=  5.0193590000D+01 Coefficients=  1.0000000000D+00
 S 1 1.00
     Exponent=  2.2249570000D+01 Coefficients=  1.0000000000D+00
 S 1 1.00
     Exponent=  1.0982650000D+01 Coefficients=  1.0000000000D+00
 S 1 1.00
     Exponent=  5.3836650000D+00 Coefficients=  1.0000000000D+00
 S 1 1.00
     Exponent=  2.3436850000D+00 Coefficients=  1.0000000000D+00
 S 1 1.00
     Exponent=  1.1052020000D+00 Coefficients=  1.0000000000D+00
 S 1 1.00
     Exponent=  4.8784800000D-01 Coefficients=  1.0000000000D+00
 S 1 1.00
     Exponent=  8.9599000000D-02 Coefficients=  1.0000000000D+00
 S 1 1.00
     Exponent=  3.3423000000D-02 Coefficients=  1.0000000000D+00
 S 1 1.00
     Exponent=  4.8281000000D+00 Coefficients=  1.0000000000D+00
 S 1 1.00
     Exponent=  1.1499000000D+00 Coefficients=  1.0000000000D+00
 S 1 1.00
     Exponent=  1.2470000000D-02 Coefficients=  1.0000000000D+00
 P 1 1.00
     Exponent=  1.4454200000D+04 Coefficients=  1.0000000000D+00
 P 1 1.00
     Exponent=  3.4216760000D+03 Coefficients=  1.0000000000D+00
 P 1 1.00
     Exponent=  1.1113870000D+03 Coefficients=  1.0000000000D+00
 P 1 1.00
     Exponent=  4.2519180000D+02 Coefficients=  1.0000000000D+00
 P 1 1.00
     Exponent=  1.8026230000D+02 Coefficients=  1.0000000000D+00
 P 1 1.00
     Exponent=  8.2061170000D+01 Coefficients=  1.0000000000D+00
 P 1 1.00
     Exponent=  3.9297260000D+01 Coefficients=  1.0000000000D+00
 P 1 1.00
     Exponent=  1.9419590000D+01 Coefficients=  1.0000000000D+00
 P 1 1.00
     Exponent=  9.8288990000D+00 Coefficients=  1.0000000000D+00
 P 1 1.00
     Exponent=  5.0168100000D+00 Coefficients=  1.0000000000D+00
 P 1 1.00
     Exponent=  2.4870910000D+00 Coefficients=  1.0000000000D+00
 P 1 1.00
     Exponent=  1.1987800000D+00 Coefficients=  1.0000000000D+00
 P 1 1.00
     Exponent=  5.5869500000D-01 Coefficients=  1.0000000000D+00
 P 1 1.00
     Exponent=  2.0936600000D-01 Coefficients=  1.0000000000D+00
 P 1 1.00
     Exponent=  8.4722000000D-02 Coefficients=  1.0000000000D+00
 P 1 1.00
     Exponent=  3.3278000000D-02 Coefficients=  1.0000000000D+00
 P 1 1.00
     Exponent=  5.2718000000D+00 Coefficients=  1.0000000000D+00
 P 1 1.00
     Exponent=  1.2083000000D+00 Coefficients=  1.0000000000D+00
 P 1 1.00
     Exponent=  1.3070000000D-02 Coefficients=  1.0000000000D+00
 D 1 1.00
     Exponent=  8.9474500000D+01 Coefficients=  1.0000000000D+00
 D 1 1.00
     Exponent=  2.6336800000D+01 Coefficients=  1.0000000000D+00
 D 1 1.00
     Exponent=  9.5342900000D+00 Coefficients=  1.0000000000D+00
 D 1 1.00
     Exponent=  3.8211800000D+00 Coefficients=  1.0000000000D+00
 D 1 1.00
     Exponent=  1.5716900000D+00 Coefficients=  1.0000000000D+00
 D 1 1.00
     Exponent=  6.2642200000D-01 Coefficients=  1.0000000000D+00
 D 1 1.00
     Exponent=  2.3305500000D-01 Coefficients=  1.0000000000D+00
 D 1 1.00
     Exponent=  7.6303000000D-02 Coefficients=  1.0000000000D+00
 D 1 1.00
     Exponent=  3.4093000000D+00 Coefficients=  1.0000000000D+00
 D 1 1.00
     Exponent=  1.5874000000D+00 Coefficients=  1.0000000000D+00
 D 1 1.00
     Exponent=  2.4980000000D-02 Coefficients=  1.0000000000D+00
 F 1 1.00
     Exponent=  4.3629000000D+00 Coefficients=  1.0000000000D+00
 F 1 1.00
     Exponent=  1.5864000000D+00 Coefficients=  1.0000000000D+00
 F 1 1.00
     Exponent=  5.2310000000D-01 Coefficients=  1.0000000000D+00
 F 1 1.00
     Exponent=  1.7249000000D-01 Coefficients=  1.0000000000D+00
 G 1 1.00
     Exponent=  4.0406000000D+00 Coefficients=  1.0000000000D+00
 G 1 1.00
     Exponent=  1.4199000000D+00 Coefficients=  1.0000000000D+00
 G 1 1.00
     Exponent=  4.9896000000D-01 Coefficients=  1.0000000000D+00
 ****
 Centers:       2
 S 1 1.00
     Exponent=  3.3870000000D+01 Coefficients=  1.0000000000D+00
 S 1 1.00
     Exponent=  5.0950000000D+00 Coefficients=  1.0000000000D+00
 S 1 1.00
     Exponent=  1.1590000000D+00 Coefficients=  1.0000000000D+00
 S 1 1.00
     Exponent=  3.2580000000D-01 Coefficients=  1.0000000000D+00
 S 1 1.00
     Exponent=  1.0270000000D-01 Coefficients=  1.0000000000D+00
 S 1 1.00
     Exponent=  2.5260000000D-02 Coefficients=  1.0000000000D+00
 P 1 1.00
     Exponent=  1.4070000000D+00 Coefficients=  1.0000000000D+00
 P 1 1.00
     Exponent=  3.8800000000D-01 Coefficients=  1.0000000000D+00
 P 1 1.00
     Exponent=  1.0200000000D-01 Coefficients=  1.0000000000D+00
 D 1 1.00
     Exponent=  1.0570000000D+00 Coefficients=  1.0000000000D+00
 D 1 1.00
     Exponent=  2.4700000000D-01 Coefficients=  1.0000000000D+00
 ****
 ======================================================================================================
                                       Pseudopotential Parameters
 ======================================================================================================
  Center     Atomic      Valence      Angular      Power
  Number     Number     Electrons     Momentum     of R      Exponent        Coefficient   SO-Coeffient
 ======================================================================================================
    1         24           14
                                      F and up 
                                                     2        1.0000000        0.00000000    0.00000000
                                      S - F
                                                     2       16.3900000      201.57888700    0.00000000
                                                     2        7.4020000       24.20574100    0.00000000
                                      P - F
                                                     2       16.4500000      125.02277400    0.00000000
                                                     2        6.9620000       16.47906600    0.00000000
                                      D - F
                                                     2       19.9300000      -20.82742100    0.00000000
                                                     2        6.5980000       -0.83436800    0.00000000
    2          1            1
                                      P and up 
                                                     2       21.7769666      -10.85192405    0.00000000
                                                     1       21.2435951        1.00000000    0.00000000
                                                     3       21.2435951       21.24359508    0.00000000
                                      S - P
                                                     2        1.0000000        0.00000000    0.00000000
 ======================================================================================================
 Ernie: Thresh=  0.10000D-02 Tol=  0.10000D-05 Strict=F.
 There are   120 symmetry adapted cartesian basis functions of A1  symmetry.
 There are    26 symmetry adapted cartesian basis functions of A2  symmetry.
 There are    56 symmetry adapted cartesian basis functions of B1  symmetry.
 There are    56 symmetry adapted cartesian basis functions of B2  symmetry.
 There are    94 symmetry adapted basis functions of A1  symmetry.
 There are    23 symmetry adapted basis functions of A2  symmetry.
 There are    49 symmetry adapted basis functions of B1  symmetry.
 There are    49 symmetry adapted basis functions of B2  symmetry.
   215 basis functions,   258 primitive gaussians,   258 cartesian basis functions
    10 alpha electrons        5 beta electrons
       nuclear repulsion energy         4.1158227516 Hartrees.
 IExCor=    0 DFT=F Ex=HF Corr=None ExCW=0 ScaHFX=  1.000000
 ScaDFX=  1.000000  1.000000  1.000000  1.000000 ScalE2=  1.000000  1.000000
 IRadAn=      5 IRanWt=     -1 IRanGd=            0 ICorTp=0 IEmpDi=  4
 NAtoms=    2 NActive=    2 NUniq=    2 SFac= 1.00D+00 NAtFMM=   60 NAOKFM=F Big=F
 Integral buffers will be    131072 words long.
 Raffenetti 2 integral format.
 Two-electron integral symmetry is turned on.
 Leave Link  301 at Mon Feb 26 12:54:45 2018, MaxMem=  8589934592 cpu:               3.6 elap:               0.3
 (Enter /home1/apps/gaussian/16rA.03/g16/l302.exe)
 NPDir=0 NMtPBC=     1 NCelOv=     1 NCel=       1 NClECP=     1 NCelD=      1
         NCelK=      1 NCelE2=     1 NClLst=     1 CellRange=     0.0.
 One-electron integrals computed using PRISM.
 One-electron integral symmetry used in STVInt
   4 Symmetry operations used in ECPInt.
 ECPInt:  NShTT=    2556 NPrTT=    2556 LenC2=    2522 LenP2D=    2521.
 LDataN:  DoStor=T MaxTD1= 8 Len=  415
 NBasis=   215 RedAO= T EigKep=  1.86D-06  NBF=    94    23    49    49
 NBsUse=   206 1.00D-06 EigRej=  4.94D-07 NBFU=    90    22    47    47
 Leave Link  302 at Mon Feb 26 12:54:46 2018, MaxMem=  8589934592 cpu:              16.3 elap:               1.1
 (Enter /home1/apps/gaussian/16rA.03/g16/l303.exe)
 DipDrv:  MaxL=1.
 Leave Link  303 at Mon Feb 26 12:54:47 2018, MaxMem=  8589934592 cpu:               0.9 elap:               0.1
 (Enter /home1/apps/gaussian/16rA.03/g16/l401.exe)
 Initial guess from the checkpoint file:  "CrH.chk"
 B after Tr=     0.000000    0.000000   -0.000000
         Rot=    1.000000    0.000000    0.000000    0.000000 Ang=   0.00 deg.
 Guess basis will be translated and rotated to current coordinates.
 JPrj=2 DoOrth=T DoCkMO=T.
 Initial guess orbital symmetries:
       Occupied  (SG) (SG) (PI) (PI) (SG) (PI) (PI) (SG) (DLTA)
                 (DLTA)
       Virtual   (PI) (PI) (SG) (SG) (PI) (PI) (SG) (DLTA) (DLTA)
                 (PI) (PI) (SG) (SG) (SG) (PI) (PI) (SG) (SG) (DLTA)
                 (DLTA) (PI) (PI) (PI) (PI) (SG) (SG) (PHI) (PHI)
                 (DLTA) (DLTA) (SG) (PI) (PI) (SG) (PI) (PI) (SG)
                 (PI) (PI) (DLTA) (DLTA) (DLTA) (DLTA) (SG) (PI)
                 (PI) (SG) (PI) (PI) (SG) (SG) (PHI) (PHI) (DLTA)
                 (DLTA) (PI) (PI) (SG) (PI) (PI) (?A) (?A) (PHI)
                 (PHI) (SG) (DLTA) (DLTA) (PI) (PI) (SG) (SG) (DLTA)
                 (DLTA) (PI) (PI) (SG) (DLTA) (DLTA) (PI) (PI)
                 (PI) (PI) (SG) (SG) (DLTA) (DLTA) (PHI) (PHI)
                 (PI) (PI) (SG) (SG) (PI) (PI) (SG) (PHI) (PHI)
                 (?A) (?A) (DLTA) (DLTA) (PI) (PI) (SG) (DLTA)
                 (DLTA) (PI) (PI) (SG) (SG) (DLTA) (DLTA) (PHI)
                 (PHI) (PI) (PI) (SG) (PI) (PI) (SG) (SG) (DLTA)
                 (DLTA) (PI) (PI) (SG) (PHI) (PHI) (?A) (?A) (DLTA)
                 (DLTA) (PI) (PI) (SG) (PI) (PI) (SG) (SG) (DLTA)
                 (DLTA) (PI) (PI) (SG) (PI) (PI) (SG) (SG) (SG)
                 (DLTA) (DLTA) (PI) (PI) (SG) (PI) (PI) (SG) (SG)
                 (PI) (PI) (SG) (SG) (DLTA) (DLTA) (PI) (PI) (SG)
                 (PI) (PI) (SG) (SG) (PI) (PI) (SG) (SG) (PI) (PI)
                 (SG) (SG) (SG) (PI) (PI) (SG) (SG) (PI) (PI) (SG)
                 (SG) (PI) (PI) (SG) (SG) (SG) (SG) (SG) (SG)
 The electronic state of the initial guess is 6-SG.
 Leave Link  401 at Mon Feb 26 12:54:48 2018, MaxMem=  8589934592 cpu:               4.9 elap:               0.4
 (Enter /home1/apps/gaussian/16rA.03/g16/l502.exe)
 Keep R1 and R2 ints in memory in symmetry-blocked form, NReq=338797193.
 FoFCou: FMM=F IPFlag=           8 FMFlag=           0 FMFlg1=           0
         NFxFlg=           0 DoJE=F BraDBF=F KetDBF=F FulRan=T
         wScrn=  0.000000 ICntrl=       600 IOpCl=  0 I1Cent=           0 NGrid=           0
         NMat0=    1 NMatS0=  23220 NMatT0=    0 NMatD0=    1 NMtDS0=    0 NMtDT0=    0
 Petite list used in FoFCou.
 Restricted open shell SCF:
 Using DIIS extrapolation, IDIIS=  1040.
 NGot=  8589934592 LenX=  8451450423 LenY=  8451383418
 Requested convergence on RMS density matrix=1.00D-08 within 300 cycles.
 Requested convergence on MAX density matrix=1.00D-06.
 Requested convergence on             energy=1.00D-06.
 No special actions if energy rises.

 Cycle   1  Pass 1  IDiag  1:
 E= -86.3365024359078    
 DIIS: error= 3.69D-01 at cycle   1 NSaved=   1.
 NSaved= 1 IEnMin= 1 EnMin= -86.3365024359078     IErMin= 1 ErrMin= 3.69D-01
 ErrMax= 3.69D-01  0.00D+00 EMaxC= 1.00D-01 BMatC= 1.97D+01 BMatP= 1.97D+01
 IDIUse=3 WtCom= 0.00D+00 WtEn= 1.00D+00
 Coeff-Com:  0.100D+01
 Coeff-En:   0.100D+01
 Coeff:      0.100D+01
 Gap=     0.025 Goal=   None    Shift=    0.000
 GapD=    0.025 DampG=0.250 DampE=0.125 DampFc=0.1250 IDamp=-1.
 Damping current iteration by 1.25D-01
 RMSDP=1.91D-02 MaxDP=1.88D+00              OVMax= 4.64D-02

 Cycle   2  Pass 1  IDiag  1:
 E= -86.4027091678101     Delta-E=       -0.066206731902 Rises=F Damp=T
 DIIS: error= 3.19D-01 at cycle   2 NSaved=   2.
 NSaved= 2 IEnMin= 2 EnMin= -86.4027091678101     IErMin= 2 ErrMin= 3.19D-01
 ErrMax= 3.19D-01  0.00D+00 EMaxC= 1.00D-01 BMatC= 1.50D+01 BMatP= 1.97D+01
 IDIUse=3 WtCom= 0.00D+00 WtEn= 1.00D+00
 Coeff-Com: -0.676D+01 0.776D+01
 Coeff-En:   0.000D+00 0.100D+01
 Coeff:      0.000D+00 0.100D+01
 Gap=     0.069 Goal=   None    Shift=    0.000
 RMSDP=1.68D-02 MaxDP=1.64D+00 DE=-6.62D-02 OVMax= 3.61D-02

 Cycle   3  Pass 1  IDiag  1:
 E= -86.8785887531958     Delta-E=       -0.475879585386 Rises=F Damp=F
 DIIS: error= 1.57D-02 at cycle   3 NSaved=   3.
 NSaved= 3 IEnMin= 3 EnMin= -86.8785887531958     IErMin= 3 ErrMin= 1.57D-02
 ErrMax= 1.57D-02  0.00D+00 EMaxC= 1.00D-01 BMatC= 1.38D-02 BMatP= 1.50D+01
 IDIUse=3 WtCom= 8.43D-01 WtEn= 1.57D-01
 Coeff-Com: -0.115D+01 0.130D+01 0.848D+00
 Coeff-En:   0.000D+00 0.000D+00 0.100D+01
 Coeff:     -0.970D+00 0.110D+01 0.872D+00
 Gap=     0.071 Goal=   None    Shift=    0.000
 RMSDP=3.61D-04 MaxDP=1.78D-02 DE=-4.76D-01 OVMax= 6.00D-02

 Cycle   4  Pass 1  IDiag  1:
 E= -86.8774844173045     Delta-E=        0.001104335891 Rises=F Damp=F
 DIIS: error= 7.68D-03 at cycle   4 NSaved=   4.
 NSaved= 4 IEnMin= 3 EnMin= -86.8785887531958     IErMin= 4 ErrMin= 7.68D-03
 ErrMax= 7.68D-03  0.00D+00 EMaxC= 1.00D-01 BMatC= 5.27D-03 BMatP= 1.38D-02
 IDIUse=3 WtCom= 9.23D-01 WtEn= 7.68D-02
 Coeff-Com: -0.104D+01 0.119D+01 0.279D+00 0.577D+00
 Coeff-En:   0.000D+00 0.000D+00 0.569D+00 0.431D+00
 Coeff:     -0.962D+00 0.110D+01 0.302D+00 0.565D+00
 Gap=     0.056 Goal=   None    Shift=    0.000
 RMSDP=6.49D-04 MaxDP=5.32D-02 DE= 1.10D-03 OVMax= 1.37D-01

 Cycle   5  Pass 1  IDiag  1:
 E= -86.8709721202005     Delta-E=        0.006512297104 Rises=F Damp=F
 DIIS: error= 1.10D-02 at cycle   5 NSaved=   5.
 NSaved= 5 IEnMin= 3 EnMin= -86.8785887531958     IErMin= 4 ErrMin= 7.68D-03
 ErrMax= 1.10D-02  0.00D+00 EMaxC= 1.00D-01 BMatC= 5.86D-03 BMatP= 5.27D-03
 IDIUse=2 WtCom= 0.00D+00 WtEn= 1.00D+00
 Coeff-En:   0.000D+00 0.000D+00 0.000D+00 0.611D+00 0.389D+00
 Coeff:      0.000D+00 0.000D+00 0.000D+00 0.611D+00 0.389D+00
 Gap=     0.068 Goal=   None    Shift=    0.000
 RMSDP=8.17D-04 MaxDP=6.96D-02 DE= 6.51D-03 OVMax= 1.74D-01

 Cycle   6  Pass 1  IDiag  1:
 E= -86.8746176111121     Delta-E=       -0.003645490912 Rises=F Damp=F
 DIIS: error= 9.24D-03 at cycle   6 NSaved=   6.
 NSaved= 6 IEnMin= 3 EnMin= -86.8785887531958     IErMin= 4 ErrMin= 7.68D-03
 ErrMax= 9.24D-03  0.00D+00 EMaxC= 1.00D-01 BMatC= 5.13D-03 BMatP= 5.27D-03
 IDIUse=3 WtCom= 9.08D-01 WtEn= 9.24D-02
 EnCoef did     5 forward-backward iterations
 Coeff-Com: -0.529D+00 0.605D+00-0.105D+00 0.357D+00 0.381D+00 0.292D+00
 Coeff-En:   0.000D+00 0.000D+00 0.000D+00 0.448D-01 0.447D+00 0.508D+00
 Coeff:     -0.480D+00 0.549D+00-0.951D-01 0.328D+00 0.387D+00 0.312D+00
 Gap=     0.075 Goal=   None    Shift=    0.000
 RMSDP=3.68D-04 MaxDP=2.55D-02 DE=-3.65D-03 OVMax= 7.63D-02

 Cycle   7  Pass 1  IDiag  1:
 E= -86.8803405742019     Delta-E=       -0.005722963090 Rises=F Damp=F
 DIIS: error= 2.82D-03 at cycle   7 NSaved=   7.
 NSaved= 7 IEnMin= 7 EnMin= -86.8803405742019     IErMin= 7 ErrMin= 2.82D-03
 ErrMax= 2.82D-03  0.00D+00 EMaxC= 1.00D-01 BMatC= 6.27D-04 BMatP= 5.13D-03
 IDIUse=3 WtCom= 9.72D-01 WtEn= 2.82D-02
 Rare condition: small coef for last iteration:  0.444D-15
 Coeff-Com: -0.470D+00 0.537D+00-0.931D-01 0.168D+00 0.249D+00 0.203D+00
 Coeff-Com:  0.406D+00
 Coeff-En:   0.000D+00 0.000D+00 0.000D+00 0.544D-01 0.243D+00 0.164D+00
 Coeff-En:   0.539D+00
 Coeff:     -0.470D+00 0.537D+00-0.931D-01 0.168D+00 0.249D+00 0.203D+00
 Coeff:      0.406D+00
 Gap=     0.072 Goal=   None    Shift=    0.000
 RMSDP=1.09D-04 MaxDP=5.82D-03 DE=-5.72D-03 OVMax= 1.09D-02

 Cycle   8  Pass 1  IDiag  1:
 E= -86.8806176365194     Delta-E=       -0.000277062317 Rises=F Damp=F
 DIIS: error= 2.40D-03 at cycle   8 NSaved=   8.
 NSaved= 8 IEnMin= 8 EnMin= -86.8806176365194     IErMin= 8 ErrMin= 2.40D-03
 ErrMax= 2.40D-03  0.00D+00 EMaxC= 1.00D-01 BMatC= 3.95D-04 BMatP= 6.27D-04
 IDIUse=3 WtCom= 9.76D-01 WtEn= 2.40D-02
 EnCoef did   100 forward-backward iterations
 Rare condition: small coef for last iteration:  0.000D+00
 Coeff-Com: -0.408D+00 0.466D+00-0.762D-01 0.318D-01 0.108D+00 0.995D-01
 Coeff-Com:  0.290D+00 0.488D+00
 Coeff-En:   0.000D+00 0.000D+00 0.000D+00 0.744D-01 0.219D+00 0.151D+00
 Coeff-En:   0.332D-01 0.523D+00
 Coeff:     -0.408D+00 0.466D+00-0.762D-01 0.318D-01 0.108D+00 0.995D-01
 Coeff:      0.290D+00 0.488D+00
 Gap=     0.070 Goal=   None    Shift=    0.000
 RMSDP=3.87D-05 MaxDP=1.58D-03 DE=-2.77D-04 OVMax= 3.39D-03

 Cycle   9  Pass 1  IDiag  1:
 E= -86.8806670844894     Delta-E=       -0.000049447970 Rises=F Damp=F
 DIIS: error= 2.19D-03 at cycle   9 NSaved=   9.
 NSaved= 9 IEnMin= 9 EnMin= -86.8806670844894     IErMin= 9 ErrMin= 2.19D-03
 ErrMax= 2.19D-03  0.00D+00 EMaxC= 1.00D-01 BMatC= 2.75D-04 BMatP= 3.95D-04
 IDIUse=3 WtCom= 9.78D-01 WtEn= 2.19D-02
 EnCoef did   100 forward-backward iterations
 Rare condition: small coef for last iteration: -0.732D-17
 Coeff-Com: -0.355D+00 0.406D+00-0.610D-01 0.119D-01 0.396D-01 0.245D-01
 Coeff-Com:  0.443D-01 0.756D-02 0.882D+00
 Coeff-En:   0.000D+00 0.000D+00 0.000D+00 0.909D-01 0.214D+00 0.137D+00
 Coeff-En:   0.000D+00 0.000D+00 0.559D+00
 Coeff:     -0.355D+00 0.406D+00-0.610D-01 0.119D-01 0.396D-01 0.245D-01
 Coeff:      0.443D-01 0.756D-02 0.882D+00
 Gap=     0.070 Goal=   None    Shift=    0.000
 RMSDP=3.32D-05 MaxDP=2.97D-03 DE=-4.94D-05 OVMax= 1.81D-03

 Cycle  10  Pass 1  IDiag  1:
 E= -86.8806828614094     Delta-E=       -0.000015776920 Rises=F Damp=F
 DIIS: error= 1.86D-03 at cycle  10 NSaved=  10.
 NSaved=10 IEnMin=10 EnMin= -86.8806828614094     IErMin=10 ErrMin= 1.86D-03
 ErrMax= 1.86D-03  0.00D+00 EMaxC= 1.00D-01 BMatC= 2.07D-04 BMatP= 2.75D-04
 IDIUse=3 WtCom= 9.81D-01 WtEn= 1.86D-02
 EnCoef did   100 forward-backward iterations
 Rare condition: small coef for last iteration:  0.000D+00
 Coeff-Com: -0.304D+00 0.348D+00-0.485D-01 0.106D-01 0.117D-02-0.174D-01
 Coeff-Com: -0.830D-01-0.293D+00 0.792D+00 0.595D+00
 Coeff-En:   0.000D+00 0.000D+00 0.000D+00 0.975D-01 0.210D+00 0.135D+00
 Coeff-En:   0.000D+00 0.000D+00 0.000D+00 0.557D+00
 Coeff:     -0.304D+00 0.348D+00-0.485D-01 0.106D-01 0.117D-02-0.174D-01
 Coeff:     -0.830D-01-0.293D+00 0.792D+00 0.595D+00
 Gap=     0.071 Goal=   None    Shift=    0.000
 RMSDP=1.74D-05 MaxDP=1.11D-03 DE=-1.58D-05 OVMax= 1.78D-03

 Cycle  11  Pass 1  IDiag  1:
 E= -86.8807022504411     Delta-E=       -0.000019389032 Rises=F Damp=F
 DIIS: error= 1.66D-03 at cycle  11 NSaved=  11.
 NSaved=11 IEnMin=11 EnMin= -86.8807022504411     IErMin=11 ErrMin= 1.66D-03
 ErrMax= 1.66D-03  0.00D+00 EMaxC= 1.00D-01 BMatC= 1.50D-04 BMatP= 2.07D-04
 IDIUse=3 WtCom= 9.83D-01 WtEn= 1.66D-02
 EnCoef did   100 forward-backward iterations
 Rare condition: small coef for last iteration:  0.000D+00
 Coeff-Com: -0.275D+00 0.314D+00-0.445D-01 0.125D-01 0.119D-01 0.222D-02
 Coeff-Com:  0.308D-01-0.598D-01 0.188D-01 0.234D+00 0.755D+00
 Coeff-En:   0.000D+00 0.000D+00 0.000D+00 0.102D+00 0.208D+00 0.132D+00
 Coeff-En:   0.000D+00 0.000D+00 0.000D+00 0.000D+00 0.558D+00
 Coeff:     -0.275D+00 0.314D+00-0.445D-01 0.125D-01 0.119D-01 0.222D-02
 Coeff:      0.308D-01-0.598D-01 0.188D-01 0.234D+00 0.755D+00
 Gap=     0.072 Goal=   None    Shift=    0.000
 RMSDP=2.37D-05 MaxDP=2.16D-03 DE=-1.94D-05 OVMax= 1.43D-03

 Cycle  12  Pass 1  IDiag  1:
 E= -86.8807112989186     Delta-E=       -0.000009048478 Rises=F Damp=F
 DIIS: error= 1.46D-03 at cycle  12 NSaved=  12.
 NSaved=12 IEnMin=12 EnMin= -86.8807112989186     IErMin=12 ErrMin= 1.46D-03
 ErrMax= 1.46D-03  0.00D+00 EMaxC= 1.00D-01 BMatC= 1.22D-04 BMatP= 1.50D-04
 IDIUse=3 WtCom= 9.85D-01 WtEn= 1.46D-02
 EnCoef did   100 forward-backward iterations
 Rare condition: small coef for last iteration: -0.681D-17
 Coeff-Com: -0.236D+00 0.270D+00-0.381D-01 0.881D-02 0.155D-01 0.105D-01
 Coeff-Com:  0.898D-01 0.748D-01-0.339D+00-0.870D-01 0.398D+00 0.834D+00
 Coeff-En:   0.000D+00 0.000D+00 0.000D+00 0.103D+00 0.208D+00 0.129D+00
 Coeff-En:   0.000D+00 0.000D+00 0.000D+00 0.000D+00 0.000D+00 0.560D+00
 Coeff:     -0.236D+00 0.270D+00-0.381D-01 0.881D-02 0.155D-01 0.105D-01
 Coeff:      0.898D-01 0.748D-01-0.339D+00-0.870D-01 0.398D+00 0.834D+00
 Gap=     0.073 Goal=   None    Shift=    0.000
 RMSDP=1.49D-05 MaxDP=1.60D-03 DE=-9.05D-06 OVMax= 1.45D-03

 Cycle  13  Pass 1  IDiag  1:
 E= -86.8807197447483     Delta-E=       -0.000008445830 Rises=F Damp=F
 DIIS: error= 1.27D-03 at cycle  13 NSaved=  13.
 NSaved=13 IEnMin=13 EnMin= -86.8807197447483     IErMin=13 ErrMin= 1.27D-03
 ErrMax= 1.27D-03  0.00D+00 EMaxC= 1.00D-01 BMatC= 8.96D-05 BMatP= 1.22D-04
 IDIUse=3 WtCom= 9.87D-01 WtEn= 1.27D-02
 EnCoef did   100 forward-backward iterations
 Rare condition: small coef for last iteration:  0.000D+00
 Coeff-Com: -0.159D+00 0.182D+00-0.248D-01 0.114D-02 0.121D-01 0.928D-02
 Coeff-Com:  0.104D+00 0.132D+00-0.473D+00-0.334D+00-0.382D+00 0.918D+00
 Coeff-Com:  0.101D+01
 Coeff-En:   0.000D+00 0.000D+00 0.000D+00 0.105D+00 0.208D+00 0.126D+00
 Coeff-En:   0.000D+00 0.000D+00 0.000D+00 0.000D+00 0.000D+00 0.000D+00
 Coeff-En:   0.561D+00
 Coeff:     -0.159D+00 0.182D+00-0.248D-01 0.114D-02 0.121D-01 0.928D-02
 Coeff:      0.104D+00 0.132D+00-0.473D+00-0.334D+00-0.382D+00 0.918D+00
 Coeff:      0.101D+01
 Gap=     0.074 Goal=   None    Shift=    0.000
 RMSDP=2.31D-05 MaxDP=2.61D-03 DE=-8.45D-06 OVMax= 2.92D-03

 Cycle  14  Pass 1  IDiag  1:
 E= -86.8807328993931     Delta-E=       -0.000013154645 Rises=F Damp=F
 DIIS: error= 8.49D-04 at cycle  14 NSaved=  14.
 NSaved=14 IEnMin=14 EnMin= -86.8807328993931     IErMin=14 ErrMin= 8.49D-04
 ErrMax= 8.49D-04  0.00D+00 EMaxC= 1.00D-01 BMatC= 4.08D-05 BMatP= 8.96D-05
 IDIUse=3 WtCom= 9.92D-01 WtEn= 8.49D-03
 EnCoef did   100 forward-backward iterations
 Rare condition: small coef for last iteration: -0.673D-17
 Coeff-Com: -0.782D-01 0.894D-01-0.117D-01-0.357D-03 0.648D-02 0.218D-02
 Coeff-Com:  0.444D-01 0.421D-01-0.200D+00-0.185D+00-0.576D+00 0.646D-01
 Coeff-Com:  0.827D+00 0.975D+00
 Coeff-En:   0.000D+00 0.000D+00 0.000D+00 0.109D+00 0.207D+00 0.121D+00
 Coeff-En:   0.000D+00 0.000D+00 0.000D+00 0.000D+00 0.000D+00 0.000D+00
 Coeff-En:   0.000D+00 0.563D+00
 Coeff:     -0.782D-01 0.894D-01-0.117D-01-0.357D-03 0.648D-02 0.218D-02
 Coeff:      0.444D-01 0.421D-01-0.200D+00-0.185D+00-0.576D+00 0.646D-01
 Coeff:      0.827D+00 0.975D+00
 Gap=     0.076 Goal=   None    Shift=    0.000
 RMSDP=3.34D-05 MaxDP=2.59D-03 DE=-1.32D-05 OVMax= 3.31D-03

 Cycle  15  Pass 1  IDiag  1:
 E= -86.8807406131295     Delta-E=       -0.000007713736 Rises=F Damp=F
 DIIS: error= 4.20D-04 at cycle  15 NSaved=  15.
 NSaved=15 IEnMin=15 EnMin= -86.8807406131295     IErMin=15 ErrMin= 4.20D-04
 ErrMax= 4.20D-04  0.00D+00 EMaxC= 1.00D-01 BMatC= 1.02D-05 BMatP= 4.08D-05
 IDIUse=3 WtCom= 9.96D-01 WtEn= 4.20D-03
 EnCoef did   100 forward-backward iterations
 Rare condition: small coef for last iteration:  0.000D+00
 Coeff-Com: -0.318D-01 0.364D-01-0.469D-02 0.577D-03 0.438D-02 0.107D-04
 Coeff-Com:  0.877D-02-0.963D-02-0.263D-01-0.553D-01-0.471D+00-0.401D+00
 Coeff-Com:  0.452D+00 0.116D+01 0.340D+00
 Coeff-En:   0.000D+00 0.000D+00 0.000D+00 0.114D+00 0.205D+00 0.116D+00
 Coeff-En:   0.000D+00 0.000D+00 0.000D+00 0.000D+00 0.000D+00 0.000D+00
 Coeff-En:   0.000D+00 0.000D+00 0.565D+00
 Coeff:     -0.318D-01 0.364D-01-0.469D-02 0.577D-03 0.438D-02 0.107D-04
 Coeff:      0.877D-02-0.963D-02-0.263D-01-0.553D-01-0.471D+00-0.401D+00
 Coeff:      0.452D+00 0.116D+01 0.340D+00
 Gap=     0.077 Goal=   None    Shift=    0.000
 RMSDP=2.61D-05 MaxDP=2.40D-03 DE=-7.71D-06 OVMax= 1.94D-03

 Cycle  16  Pass 1  IDiag  1:
 E= -86.8807435598753     Delta-E=       -0.000002946746 Rises=F Damp=F
 DIIS: error= 1.73D-04 at cycle  16 NSaved=  16.
 NSaved=16 IEnMin=16 EnMin= -86.8807435598753     IErMin=16 ErrMin= 1.73D-04
 ErrMax= 1.73D-04  0.00D+00 EMaxC= 1.00D-01 BMatC= 1.70D-06 BMatP= 1.02D-05
 IDIUse=3 WtCom= 9.98D-01 WtEn= 1.73D-03
 EnCoef did   100 forward-backward iterations
 Rare condition: small coef for last iteration:  0.327D-17
 Coeff-Com: -0.349D-02 0.400D-02-0.116D-02 0.338D-02 0.556D-02 0.470D-02
 Coeff-Com:  0.375D-02 0.167D-02-0.892D-03 0.173D-01-0.864D-02-0.299D+00
 Coeff-Com: -0.102D+00 0.325D+00 0.255D+00 0.795D+00
 Coeff-En:   0.000D+00 0.000D+00 0.000D+00 0.117D+00 0.204D+00 0.114D+00
 Coeff-En:   0.000D+00 0.000D+00 0.000D+00 0.000D+00 0.000D+00 0.000D+00
 Coeff-En:   0.000D+00 0.000D+00 0.000D+00 0.566D+00
 Coeff:     -0.349D-02 0.400D-02-0.116D-02 0.338D-02 0.556D-02 0.470D-02
 Coeff:      0.375D-02 0.167D-02-0.892D-03 0.173D-01-0.864D-02-0.299D+00
 Coeff:     -0.102D+00 0.325D+00 0.255D+00 0.795D+00
 Gap=     0.078 Goal=   None    Shift=    0.000
 RMSDP=1.53D-05 MaxDP=1.41D-03 DE=-2.95D-06 OVMax= 1.40D-03

 Cycle  17  Pass 1  IDiag  1:
 E= -86.8807442263169     Delta-E=       -0.000000666442 Rises=F Damp=F
 DIIS: error= 1.96D-05 at cycle  17 NSaved=  17.
 NSaved=17 IEnMin=17 EnMin= -86.8807442263169     IErMin=17 ErrMin= 1.96D-05
 ErrMax= 1.96D-05  0.00D+00 EMaxC= 1.00D-01 BMatC= 3.31D-08 BMatP= 1.70D-06
 IDIUse=1 WtCom= 1.00D+00 WtEn= 0.00D+00
 Coeff-Com:  0.928D-02-0.106D-01 0.965D-03 0.179D-02 0.263D-02 0.474D-02
 Coeff-Com:  0.981D-02 0.250D-01-0.777D-01-0.179D-01 0.221D+00 0.147D+00
 Coeff-Com: -0.183D+00-0.385D+00-0.766D-01 0.171D+00 0.116D+01
 Coeff:      0.928D-02-0.106D-01 0.965D-03 0.179D-02 0.263D-02 0.474D-02
 Coeff:      0.981D-02 0.250D-01-0.777D-01-0.179D-01 0.221D+00 0.147D+00
 Coeff:     -0.183D+00-0.385D+00-0.766D-01 0.171D+00 0.116D+01
 Gap=     0.078 Goal=   None    Shift=    0.000
 RMSDP=7.82D-06 MaxDP=7.40D-04 DE=-6.66D-07 OVMax= 9.20D-04

 Cycle  18  Pass 1  IDiag  1:
 E= -86.8807442584646     Delta-E=       -0.000000032148 Rises=F Damp=F
 DIIS: error= 5.07D-05 at cycle  18 NSaved=  18.
 NSaved=18 IEnMin=18 EnMin= -86.8807442584646     IErMin=17 ErrMin= 1.96D-05
 ErrMax= 5.07D-05  0.00D+00 EMaxC= 1.00D-01 BMatC= 1.45D-07 BMatP= 3.31D-08
 IDIUse=1 WtCom= 1.00D+00 WtEn= 0.00D+00
 Coeff-Com:  0.112D-01-0.128D-01 0.146D-02 0.804D-03 0.133D-02 0.325D-02
 Coeff-Com:  0.844D-02 0.232D-01-0.769D-01-0.254D-01 0.183D+00 0.190D+00
 Coeff-Com: -0.124D+00-0.369D+00-0.111D+00-0.223D-01 0.911D+00 0.407D+00
 Coeff:      0.112D-01-0.128D-01 0.146D-02 0.804D-03 0.133D-02 0.325D-02
 Coeff:      0.844D-02 0.232D-01-0.769D-01-0.254D-01 0.183D+00 0.190D+00
 Coeff:     -0.124D+00-0.369D+00-0.111D+00-0.223D-01 0.911D+00 0.407D+00
 Gap=     0.078 Goal=   None    Shift=    0.000
 RMSDP=2.55D-06 MaxDP=1.66D-04 DE=-3.21D-08 OVMax= 2.56D-04

 Cycle  19  Pass 1  IDiag  1:
 E= -86.8807442552157     Delta-E=        0.000000003249 Rises=F Damp=F
 DIIS: error= 6.03D-05 at cycle  19 NSaved=  19.
 NSaved=19 IEnMin=18 EnMin= -86.8807442584646     IErMin=17 ErrMin= 1.96D-05
 ErrMax= 6.03D-05  0.00D+00 EMaxC= 1.00D-01 BMatC= 2.07D-07 BMatP= 3.31D-08
 IDIUse=1 WtCom= 1.00D+00 WtEn= 0.00D+00
 Coeff-Com:  0.111D-01-0.127D-01 0.174D-02-0.455D-03-0.181D-03 0.594D-03
 Coeff-Com:  0.425D-02 0.134D-01-0.505D-01-0.278D-01 0.525D-01 0.146D+00
 Coeff-Com:  0.328D-02-0.151D+00-0.827D-01-0.197D+00 0.185D+00 0.528D+00
 Coeff-Com:  0.577D+00
 Coeff:      0.111D-01-0.127D-01 0.174D-02-0.455D-03-0.181D-03 0.594D-03
 Coeff:      0.425D-02 0.134D-01-0.505D-01-0.278D-01 0.525D-01 0.146D+00
 Coeff:      0.328D-02-0.151D+00-0.827D-01-0.197D+00 0.185D+00 0.528D+00
 Coeff:      0.577D+00
 Gap=     0.078 Goal=   None    Shift=    0.000
 RMSDP=3.75D-06 MaxDP=3.82D-04 DE= 3.25D-09 OVMax= 2.34D-04

 Cycle  20  Pass 1  IDiag  1:
 E= -86.8807442705520     Delta-E=       -0.000000015336 Rises=F Damp=F
 DIIS: error= 5.89D-05 at cycle  20 NSaved=  20.
 NSaved=20 IEnMin=20 EnMin= -86.8807442705520     IErMin=17 ErrMin= 1.96D-05
 ErrMax= 5.89D-05  0.00D+00 EMaxC= 1.00D-01 BMatC= 2.01D-07 BMatP= 3.31D-08
 IDIUse=1 WtCom= 1.00D+00 WtEn= 0.00D+00
 Coeff-Com:  0.488D-02-0.558D-02 0.815D-03-0.250D-03 0.971D-04-0.598D-03
 Coeff-Com:  0.537D-03 0.147D-02 0.134D-03-0.138D-01-0.921D-01-0.166D-01
 Coeff-Com:  0.980D-01 0.162D+00 0.260D-01-0.979D-01-0.454D+00-0.144D-01
 Coeff-Com:  0.237D+00 0.116D+01
 Coeff:      0.488D-02-0.558D-02 0.815D-03-0.250D-03 0.971D-04-0.598D-03
 Coeff:      0.537D-03 0.147D-02 0.134D-03-0.138D-01-0.921D-01-0.166D-01
 Coeff:      0.980D-01 0.162D+00 0.260D-01-0.979D-01-0.454D+00-0.144D-01
 Coeff:      0.237D+00 0.116D+01
 Gap=     0.078 Goal=   None    Shift=    0.000
 RMSDP=2.30D-06 MaxDP=2.25D-04 DE=-1.53D-08 OVMax= 1.02D-04

 Cycle  21  Pass 1  IDiag  1:
 E= -86.8807443092508     Delta-E=       -0.000000038699 Rises=F Damp=F
 DIIS: error= 2.58D-05 at cycle  21 NSaved=  20.
 NSaved=20 IEnMin=20 EnMin= -86.8807443092508     IErMin=16 ErrMin= 1.96D-05
 ErrMax= 2.58D-05  0.00D+00 EMaxC= 1.00D-01 BMatC= 3.85D-08 BMatP= 3.31D-08
 IDIUse=1 WtCom= 1.00D+00 WtEn= 0.00D+00
 Coeff-Com:  0.176D-07-0.252D-04 0.262D-03 0.510D-03 0.542D-04 0.567D-03
 Coeff-Com: -0.261D-03 0.850D-02-0.384D-02-0.674D-01-0.472D-01 0.586D-01
 Coeff-Com:  0.136D+00 0.408D-01 0.165D-01-0.279D+00-0.198D+00-0.943D-01
 Coeff-Com:  0.571D+00 0.857D+00
 Coeff:      0.176D-07-0.252D-04 0.262D-03 0.510D-03 0.542D-04 0.567D-03
 Coeff:     -0.261D-03 0.850D-02-0.384D-02-0.674D-01-0.472D-01 0.586D-01
 Coeff:      0.136D+00 0.408D-01 0.165D-01-0.279D+00-0.198D+00-0.943D-01
 Coeff:      0.571D+00 0.857D+00
 Gap=     0.078 Goal=   None    Shift=    0.000
 RMSDP=1.08D-06 MaxDP=1.25D-04 DE=-3.87D-08 OVMax= 9.26D-05

 Cycle  22  Pass 1  IDiag  1:
 E= -86.8807443160132     Delta-E=       -0.000000006762 Rises=F Damp=F
 DIIS: error= 3.65D-06 at cycle  22 NSaved=  20.
 NSaved=20 IEnMin=20 EnMin= -86.8807443160132     IErMin=20 ErrMin= 3.65D-06
 ErrMax= 3.65D-06  0.00D+00 EMaxC= 1.00D-01 BMatC= 8.54D-10 BMatP= 3.31D-08
 IDIUse=1 WtCom= 1.00D+00 WtEn= 0.00D+00
 Coeff-Com: -0.350D-04 0.325D-03 0.335D-03 0.341D-03 0.107D-03-0.492D-03
 Coeff-Com:  0.629D-02 0.805D-03-0.243D-01-0.353D-01 0.120D-01 0.526D-01
 Coeff-Com:  0.249D-01 0.553D-01-0.505D-01-0.183D+00-0.205D+00 0.941D-02
 Coeff-Com:  0.974D+00 0.362D+00
 Coeff:     -0.350D-04 0.325D-03 0.335D-03 0.341D-03 0.107D-03-0.492D-03
 Coeff:      0.629D-02 0.805D-03-0.243D-01-0.353D-01 0.120D-01 0.526D-01
 Coeff:      0.249D-01 0.553D-01-0.505D-01-0.183D+00-0.205D+00 0.941D-02
 Coeff:      0.974D+00 0.362D+00
 Gap=     0.078 Goal=   None    Shift=    0.000
 RMSDP=5.78D-07 MaxDP=4.87D-05 DE=-6.76D-09 OVMax= 6.30D-05

 Cycle  23  Pass 1  IDiag  1:
 E= -86.8807443180568     Delta-E=       -0.000000002044 Rises=F Damp=F
 DIIS: error= 5.94D-07 at cycle  23 NSaved=  20.
 NSaved=20 IEnMin=20 EnMin= -86.8807443180568     IErMin=20 ErrMin= 5.94D-07
 ErrMax= 5.94D-07  0.00D+00 EMaxC= 1.00D-01 BMatC= 4.45D-11 BMatP= 8.54D-10
 IDIUse=1 WtCom= 1.00D+00 WtEn= 0.00D+00
 Coeff-Com: -0.835D-05 0.910D-04 0.105D-03-0.324D-03-0.791D-03 0.248D-02
 Coeff-Com:  0.192D-02-0.558D-03-0.107D-01-0.501D-02 0.286D-02 0.601D-02
 Coeff-Com:  0.273D-01 0.247D-01-0.724D-01-0.108D+00-0.121D+00 0.421D+00
 Coeff-Com:  0.222D+00 0.610D+00
 Coeff:     -0.835D-05 0.910D-04 0.105D-03-0.324D-03-0.791D-03 0.248D-02
 Coeff:      0.192D-02-0.558D-03-0.107D-01-0.501D-02 0.286D-02 0.601D-02
 Coeff:      0.273D-01 0.247D-01-0.724D-01-0.108D+00-0.121D+00 0.421D+00
 Coeff:      0.222D+00 0.610D+00
 Gap=     0.078 Goal=   None    Shift=    0.000
 RMSDP=3.48D-07 MaxDP=3.44D-05 DE=-2.04D-09 OVMax= 2.71D-05

 Cycle  24  Pass 1  IDiag  1:
 E= -86.8807443181551     Delta-E=       -0.000000000098 Rises=F Damp=F
 DIIS: error= 6.62D-07 at cycle  24 NSaved=  20.
 NSaved=20 IEnMin=20 EnMin= -86.8807443181551     IErMin=19 ErrMin= 5.94D-07
 ErrMax= 6.62D-07  0.00D+00 EMaxC= 1.00D-01 BMatC= 1.50D-11 BMatP= 4.45D-11
 IDIUse=1 WtCom= 1.00D+00 WtEn= 0.00D+00
 Coeff-Com: -0.229D-05 0.387D-04-0.349D-03-0.850D-03 0.231D-02 0.142D-02
 Coeff-Com: -0.354D-02-0.837D-02-0.291D-03 0.852D-02 0.467D-02 0.118D-01
 Coeff-Com: -0.493D-02-0.344D-01-0.444D-01-0.397D-01 0.164D+00 0.101D+00
 Coeff-Com:  0.421D+00 0.423D+00
 Coeff:     -0.229D-05 0.387D-04-0.349D-03-0.850D-03 0.231D-02 0.142D-02
 Coeff:     -0.354D-02-0.837D-02-0.291D-03 0.852D-02 0.467D-02 0.118D-01
 Coeff:     -0.493D-02-0.344D-01-0.444D-01-0.397D-01 0.164D+00 0.101D+00
 Coeff:      0.421D+00 0.423D+00
 Gap=     0.078 Goal=   None    Shift=    0.000
 RMSDP=2.12D-07 MaxDP=2.09D-05 DE=-9.83D-11 OVMax= 9.41D-06

 Cycle  25  Pass 1  IDiag  1:
 E= -86.8807443181861     Delta-E=       -0.000000000031 Rises=F Damp=F
 DIIS: error= 1.40D-07 at cycle  25 NSaved=  20.
 NSaved=20 IEnMin=20 EnMin= -86.8807443181861     IErMin=20 ErrMin= 1.40D-07
 ErrMax= 1.40D-07  0.00D+00 EMaxC= 1.00D-01 BMatC= 1.63D-12 BMatP= 1.50D-11
 IDIUse=1 WtCom= 1.00D+00 WtEn= 0.00D+00
 Coeff-Com: -0.537D-06-0.620D-04-0.675D-04-0.258D-03 0.284D-03 0.212D-02
 Coeff-Com:  0.123D-02-0.186D-02-0.399D-02-0.128D-02-0.966D-03 0.743D-02
 Coeff-Com:  0.778D-02 0.535D-02-0.170D-01-0.423D-01-0.114D-01 0.419D-01
 Coeff-Com:  0.237D+00 0.776D+00
 Coeff:     -0.537D-06-0.620D-04-0.675D-04-0.258D-03 0.284D-03 0.212D-02
 Coeff:      0.123D-02-0.186D-02-0.399D-02-0.128D-02-0.966D-03 0.743D-02
 Coeff:      0.778D-02 0.535D-02-0.170D-01-0.423D-01-0.114D-01 0.419D-01
 Coeff:      0.237D+00 0.776D+00
 Gap=     0.078 Goal=   None    Shift=    0.000
 RMSDP=3.60D-08 MaxDP=2.49D-06 DE=-3.10D-11 OVMax= 4.73D-06

 Cycle  26  Pass 1  IDiag  1:
 E= -86.8807443181903     Delta-E=       -0.000000000004 Rises=F Damp=F
 DIIS: error= 8.59D-08 at cycle  26 NSaved=  20.
 NSaved=20 IEnMin=20 EnMin= -86.8807443181903     IErMin=20 ErrMin= 8.59D-08
 ErrMax= 8.59D-08  0.00D+00 EMaxC= 1.00D-01 BMatC= 2.39D-13 BMatP= 1.63D-12
 IDIUse=1 WtCom= 1.00D+00 WtEn= 0.00D+00
 Coeff-Com: -0.266D-04-0.117D-04-0.238D-03 0.120D-03 0.143D-02 0.107D-02
 Coeff-Com: -0.112D-02-0.273D-02-0.949D-03-0.109D-02 0.470D-02 0.629D-02
 Coeff-Com:  0.523D-02-0.874D-02-0.320D-01-0.115D-01 0.188D-02 0.116D+00
 Coeff-Com:  0.457D+00 0.464D+00
 Coeff:     -0.266D-04-0.117D-04-0.238D-03 0.120D-03 0.143D-02 0.107D-02
 Coeff:     -0.112D-02-0.273D-02-0.949D-03-0.109D-02 0.470D-02 0.629D-02
 Coeff:      0.523D-02-0.874D-02-0.320D-01-0.115D-01 0.188D-02 0.116D+00
 Coeff:      0.457D+00 0.464D+00
 Gap=     0.078 Goal=   None    Shift=    0.000
 RMSDP=3.63D-08 MaxDP=3.59D-06 DE=-4.18D-12 OVMax= 1.31D-06

 Cycle  27  Pass 1  IDiag  1:
 E= -86.8807443181907     Delta-E=       -0.000000000000 Rises=F Damp=F
 DIIS: error= 4.08D-08 at cycle  27 NSaved=  20.
 NSaved=20 IEnMin=20 EnMin= -86.8807443181907     IErMin=20 ErrMin= 4.08D-08
 ErrMax= 4.08D-08  0.00D+00 EMaxC= 1.00D-01 BMatC= 5.68D-14 BMatP= 2.39D-13
 IDIUse=1 WtCom= 1.00D+00 WtEn= 0.00D+00
 Coeff-Com:  0.947D-05 0.316D-04-0.143D-04-0.650D-04-0.174D-04 0.442D-04
 Coeff-Com:  0.153D-03 0.145D-04-0.176D-03-0.282D-03 0.846D-03 0.115D-02
 Coeff-Com:  0.785D-03-0.257D-02-0.252D-02-0.171D-01-0.252D-01-0.332D-01
 Coeff-Com:  0.323D+00 0.755D+00
 Coeff:      0.947D-05 0.316D-04-0.143D-04-0.650D-04-0.174D-04 0.442D-04
 Coeff:      0.153D-03 0.145D-04-0.176D-03-0.282D-03 0.846D-03 0.115D-02
 Coeff:      0.785D-03-0.257D-02-0.252D-02-0.171D-01-0.252D-01-0.332D-01
 Coeff:      0.323D+00 0.755D+00
 Gap=     0.078 Goal=   None    Shift=    0.000
 RMSDP=1.22D-08 MaxDP=1.20D-06 DE=-3.69D-13 OVMax= 4.25D-07

 Cycle  28  Pass 1  IDiag  1:
 E= -86.8807443181909     Delta-E=       -0.000000000000 Rises=F Damp=F
 DIIS: error= 5.80D-09 at cycle  28 NSaved=  20.
 NSaved=20 IEnMin=20 EnMin= -86.8807443181909     IErMin=20 ErrMin= 5.80D-09
 ErrMax= 5.80D-09  0.00D+00 EMaxC= 1.00D-01 BMatC= 1.78D-15 BMatP= 5.68D-14
 IDIUse=1 WtCom= 1.00D+00 WtEn= 0.00D+00
 Large coefficients: NSaved= 20 BigCof=    0.00 CofMax=   10.00 Det=-9.41D-15
 Inversion failed.  Reducing to 19 matrices.
 Coeff-Com: -0.121D-04-0.561D-04-0.284D-04 0.629D-04 0.126D-03 0.306D-04
 Coeff-Com: -0.163D-04-0.244D-03-0.762D-04-0.419D-04 0.561D-04 0.147D-02
 Coeff-Com:  0.575D-03-0.171D-03-0.693D-02-0.238D-01-0.134D-01 0.413D-01
 Coeff-Com:  0.100D+01
 Coeff:     -0.121D-04-0.561D-04-0.284D-04 0.629D-04 0.126D-03 0.306D-04
 Coeff:     -0.163D-04-0.244D-03-0.762D-04-0.419D-04 0.561D-04 0.147D-02
 Coeff:      0.575D-03-0.171D-03-0.693D-02-0.238D-01-0.134D-01 0.413D-01
 Coeff:      0.100D+01
 Gap=     0.078 Goal=   None    Shift=    0.000
 RMSDP=1.94D-09 MaxDP=1.78D-07 DE=-2.84D-13 OVMax= 5.05D-08

 SCF Done:  E(ROHF) =  -86.8807443182     A.U. after   28 cycles
            NFock= 28  Conv=0.19D-08     -V/T= 2.8802
 <Sx>= 0.0000 <Sy>= 0.0000 <Sz>= 2.5000 <S**2>= 8.7500 S= 2.5000
 <L.S>=  0.00000000000    
 KE= 4.620728663585D+01 PE=-2.043595206991D+02 EE= 6.715566699348D+01
 Annihilation of the first spin contaminant:
 S**2 before annihilation     8.7500,   after     8.7500
 Leave Link  502 at Mon Feb 26 12:55:07 2018, MaxMem=  8589934592 cpu:             258.5 elap:              18.6
 (Enter /home1/apps/gaussian/16rA.03/g16/l801.exe)
 Windowed orbitals will be sorted by symmetry type.
 GenMOA:  NOpAll=  4 NOp2=4 NOpUse=  4 JSym2X=1
 FoFJK:  IHMeth= 1 ICntrl=       0 DoSepK=F KAlg= 0 I1Cent=           0 FoldK=F
 IRaf=         0 NMat=       1 IRICut=       1 DoRegI=T DoRafI=F ISym2E= 1 IDoP0=0 IntGTp=1.
 FoFCou: FMM=F IPFlag=           8 FMFlag=      100000 FMFlg1=           0
         NFxFlg=           0 DoJE=F BraDBF=F KetDBF=F FulRan=T
         wScrn=  0.000000 ICntrl=         0 IOpCl=  1 I1Cent=           0 NGrid=           0
         NMat0=    1 NMatS0=      1 NMatT0=    0 NMatD0=    1 NMtDS0=    0 NMtDT0=    0
 Petite list used in FoFCou.
 <Sx>= 0.0000 <Sy>= 0.0000 <Sz>= 2.5000 <S**2>= 8.7500 S= 2.5000
 Range of M.O.s used for correlation:     1   206
 NBasis=   215 NAE=    10 NBE=     5 NFC=     0 NFV=     0
 NROrb=    206 NOA=    10 NOB=     5 NVA=   196 NVB=   201

 **** Warning!!: The largest alpha MO coefficient is  0.27940337D+03


 **** Warning!!: The largest beta MO coefficient is  0.27932078D+03

 Singles contribution to E2=   -0.3330862349D-02
 Leave Link  801 at Mon Feb 26 12:55:11 2018, MaxMem=  8589934592 cpu:              64.5 elap:               4.1
 (Enter /home1/apps/gaussian/16rA.03/g16/l804.exe)
 Open-shell transformation, MDV=  8589934592 ITran=4 ISComp=2.
 Unit  1 TFree=       1402806 TCopy=       1069682.
 Semi-Direct transformation.
 ModeAB=           2 MOrb=            10 LenV=    8588504130
 LASXX=     10847743 LTotXX=    10847743 LenRXX=    10847743
 LTotAB=    11067855 MaxLAS=    68826660 LenRXY=    68826660
 NonZer=    70163600 LenScr=   106030080 LnRSAI=           0
 LnScr1=           0 LExtra=     4209693 Total=    189914176
 MaxDsk= 67108864000 SrtSym=           F ITran=            4
 DoSDTr:  NPSUse= 16
 JobTyp=1 Pass  1:  I=   1 to  10.
 (rs|ai) integrals will be sorted in core.
 Complete sort for first half transformation.
 First half transformation complete.
 Begin second half transformation for I=  10.
 Begin second half transformation for I=  10.
 Complete sort for second half transformation.
 Second half transformation complete.
 ModeAB=           2 MOrb=             5 LenV=    8588504130
 LASXX=      5573031 LTotXX=     5573031 LenRXX=    34413330
 LTotAB=     5140906 MaxLAS=    34413330 LenRXY=     5140906
 NonZer=    35081800 LenScr=    53407744 LnRSAI=           0
 LnScr1=           0 LExtra=    83884096 Total=    176846076
 MaxDsk= 67108864000 SrtSym=           F ITran=            4
 DoSDTr:  NPSUse= 16
 JobTyp=2 Pass  1:  I=   1 to   5.
 (rs|ai) integrals will be sorted in core.
 Complete sort for first half transformation.
 First half transformation complete.
 Complete sort for second half transformation.
 Second half transformation complete.
 Spin components of T(2) and E(2):
     alpha-alpha T2 =       0.2532400985D-01 E2=     -0.1289293719D+00
     alpha-beta  T2 =       0.5618823400D-01 E2=     -0.3591112903D+00
     beta-beta   T2 =       0.6698006421D-02 E2=     -0.4032247631D-01
 ANorm=    0.1043867503D+01
 E2 =    -0.5316940009D+00 EUMP2 =    -0.87412438319084D+02
 (S**2,0)=  0.87500D+01           (S**2,1)=  0.87500D+01
 E(PUHF)=      -0.86880744318D+02        E(PMP2)=      -0.87412438319D+02
 Leave Link  804 at Mon Feb 26 12:56:37 2018, MaxMem=  8589934592 cpu:            1369.0 elap:              85.7
 (Enter /home1/apps/gaussian/16rA.03/g16/l913.exe)
 CIDS:  MDV=  8589934592.
 IFCWin=0 IBDFC=1 NFBD=     0     0 NFCmp=     0     0 NFFFC=     0     0
 Using original routines for 1st iteration.
 Using DD4UQ or CC4UQ for 2nd and later iterations.
 Keep R2 and R3 ints in memory in symmetry-blocked form, NReq=338807128.
 FoFCou: FMM=F IPFlag=           8 FMFlag=           0 FMFlg1=           0
         NFxFlg=           0 DoJE=F BraDBF=F KetDBF=F FulRan=T
         wScrn=  0.000000 ICntrl=       600 IOpCl=  0 I1Cent=           0 NGrid=           0
         NMat0=    1 NMatS0=  23220 NMatT0=    0 NMatD0=    1 NMtDS0=    0 NMtDT0=    0
 Petite list used in FoFCou.
 CIDS: In Core Option IDoMem=           1.
 CCSD(T)
 =======
 Iterations= 150 Convergence= 0.100D-06
 Produce multiple copies of IABC intergrals
 Iteration Nr.   1
 **********************
 DD1Dir will call FoFMem   1 times, MxPair=       156
 NAB=    50 NAA=    45 NBB=    10.
 DD1Dir will call FoFMem   1 times, MxPair=       156
 NAB=    50 NAA=    45 NBB=    10.
 MP4(R+Q)=  0.16707473D-01
 Maximum subspace dimension=  5
 A-vector RMS=  1.7467549D-04 Max=  1.7550118D-03 conv= 1.00D-05.
 RLE energy=       -0.5238282610
 E3=       -0.88030551D-02        EROMP3=      -0.87421241374D+02
 E4(SDQ)=  -0.63292841D-02        ROMP4(SDQ)=  -0.87427570658D+02
 VARIATIONAL ENERGIES WITH THE FIRST-ORDER WAVEFUNCTION:
 DE(Corr)= -0.52370913     E(Corr)=     -87.404453452    
 NORM(A)=   0.10417062D+01
 Iteration Nr.   2
 **********************
 DD1Dir will call FoFMem   1 times, MxPair=       156
 NAB=    50 NAA=    45 NBB=    10.
 A-vector RMS=  3.1986081D-03 Max=  3.7324727D-02 conv= 1.00D-05.
 RLE energy=       -0.5254603740
 DE(Corr)= -0.53222455     E(CORR)=     -87.412968866     Delta=-8.52D-03
 NORM(A)=   0.10425697D+01
 Iteration Nr.   3
 **********************
 DD1Dir will call FoFMem   1 times, MxPair=       156
 NAB=    50 NAA=    45 NBB=    10.
 A-vector RMS=  2.7502225D-03 Max=  3.4546530D-02 conv= 1.00D-05.
 RLE energy=       -0.5339258116
 DE(Corr)= -0.53458424     E(CORR)=     -87.415328554     Delta=-2.36D-03
 NORM(A)=   0.10478500D+01
 Iteration Nr.   4
 **********************
 DD1Dir will call FoFMem   1 times, MxPair=       156
 NAB=    50 NAA=    45 NBB=    10.
 A-vector RMS=  2.4276110D-03 Max=  3.3483710D-02 conv= 1.00D-05.
 RLE energy=       -0.4729036162
 DE(Corr)= -0.53866892     E(CORR)=     -87.419413241     Delta=-4.08D-03
 NORM(A)=   0.11679534D+01
 Iteration Nr.   5
 **********************
 DD1Dir will call FoFMem   1 times, MxPair=       156
 NAB=    50 NAA=    45 NBB=    10.
 A-vector RMS=  7.7734948D-03 Max=  5.5498270D-02 conv= 1.00D-05.
 RLE energy=       -0.4902211825
 DE(Corr)= -0.49479785     E(CORR)=     -87.375542168     Delta= 4.39D-02
 NORM(A)=   0.13391833D+01
 Iteration Nr.   6
 **********************
 DD1Dir will call FoFMem   1 times, MxPair=       156
 NAB=    50 NAA=    45 NBB=    10.
 A-vector RMS=  5.6256584D-03 Max=  4.6197169D-02 conv= 1.00D-05.
 RLE energy=       -1.7441229046
 DE(Corr)= -0.50113553     E(CORR)=     -87.381879847     Delta=-6.34D-03
 NORM(A)=   0.11993953D+02
 Iteration Nr.   7
 **********************
 DD1Dir will call FoFMem   1 times, MxPair=       156
 NAB=    50 NAA=    45 NBB=    10.
 A-vector RMS=  9.6735793D-01 Max=  2.6607659D+01 conv= 1.00D-05.
 RLE energy=       -0.5506474157
 DE(Corr)=   4.1558445     E(CORR)=     -82.724899779     Delta= 4.66D+00
 NORM(A)=   0.10940039D+01
 Iteration Nr.   8
 **********************
 DD1Dir will call FoFMem   1 times, MxPair=       156
 NAB=    50 NAA=    45 NBB=    10.
 A-vector RMS=  1.1768068D-03 Max=  2.9835832D-02 conv= 1.00D-05.
 RLE energy=       -0.5467628716
 DE(Corr)= -0.55186721     E(CORR)=     -87.432611529     Delta=-4.71D+00
 NORM(A)=   0.10720025D+01
 Iteration Nr.   9
 **********************
 DD1Dir will call FoFMem   1 times, MxPair=       156
 NAB=    50 NAA=    45 NBB=    10.
 A-vector RMS=  1.3981389D-03 Max=  3.3995953D-02 conv= 1.00D-05.
 RLE energy=       -0.5494953084
 DE(Corr)= -0.54907748     E(CORR)=     -87.429821795     Delta= 2.79D-03
 NORM(A)=   0.10885505D+01
 Iteration Nr.  10
 **********************
 DD1Dir will call FoFMem   1 times, MxPair=       156
 NAB=    50 NAA=    45 NBB=    10.
 A-vector RMS=  1.1868147D-03 Max=  3.2301890D-02 conv= 1.00D-05.
 RLE energy=       -0.5495819582
 DE(Corr)= -0.55125609     E(CORR)=     -87.432000407     Delta=-2.18D-03
 NORM(A)=   0.10902885D+01
 Iteration Nr.  11
 **********************
 DD1Dir will call FoFMem   1 times, MxPair=       156
 NAB=    50 NAA=    45 NBB=    10.
 A-vector RMS=  1.1884333D-03 Max=  3.2418608D-02 conv= 1.00D-05.
 RLE energy=       -0.5501323612
 DE(Corr)= -0.55143983     E(CORR)=     -87.432184153     Delta=-1.84D-04
 NORM(A)=   0.10950378D+01
 Iteration Nr.  12
 **********************
 DD1Dir will call FoFMem   1 times, MxPair=       156
 NAB=    50 NAA=    45 NBB=    10.
 A-vector RMS=  1.1579982D-03 Max=  3.2003935D-02 conv= 1.00D-05.
 RLE energy=       -0.5723742062
 DE(Corr)= -0.55191856     E(CORR)=     -87.432662882     Delta=-4.79D-04
 NORM(A)=   0.14613021D+01
 Iteration Nr.  13
 **********************
 DD1Dir will call FoFMem   1 times, MxPair=       156
 NAB=    50 NAA=    45 NBB=    10.
 A-vector RMS=  1.0278951D-03 Max=  1.9132645D-02 conv= 1.00D-05.
 RLE energy=       -0.5593152476
 DE(Corr)= -0.56942268     E(CORR)=     -87.450166999     Delta=-1.75D-02
 NORM(A)=   0.12417968D+01
 Iteration Nr.  14
 **********************
 DD1Dir will call FoFMem   1 times, MxPair=       156
 NAB=    50 NAA=    45 NBB=    10.
 A-vector RMS=  5.7672915D-04 Max=  1.2652091D-02 conv= 1.00D-05.
 RLE energy=       -0.5649500656
 DE(Corr)= -0.56078903     E(CORR)=     -87.441533344     Delta= 8.63D-03
 NORM(A)=   0.13397330D+01
 Iteration Nr.  15
 **********************
 DD1Dir will call FoFMem   1 times, MxPair=       156
 NAB=    50 NAA=    45 NBB=    10.
 A-vector RMS=  2.1545409D-04 Max=  2.2280132D-03 conv= 1.00D-05.
 RLE energy=       -0.5651355812
 DE(Corr)= -0.56458431     E(CORR)=     -87.445328633     Delta=-3.80D-03
 NORM(A)=   0.13570621D+01
 Iteration Nr.  16
 **********************
 DD1Dir will call FoFMem   1 times, MxPair=       156
 NAB=    50 NAA=    45 NBB=    10.
 A-vector RMS=  1.9251614D-04 Max=  2.8535697D-03 conv= 1.00D-05.
 RLE energy=       -0.5641626692
 DE(Corr)= -0.56522921     E(CORR)=     -87.445973531     Delta=-6.45D-04
 NORM(A)=   0.13339307D+01
 Iteration Nr.  17
 **********************
 DD1Dir will call FoFMem   1 times, MxPair=       156
 NAB=    50 NAA=    45 NBB=    10.
 A-vector RMS=  8.2738453D-05 Max=  1.1349028D-03 conv= 1.00D-05.
 RLE energy=       -0.5645744576
 DE(Corr)= -0.56425297     E(CORR)=     -87.444997290     Delta= 9.76D-04
 NORM(A)=   0.13423963D+01
 Iteration Nr.  18
 **********************
 DD1Dir will call FoFMem   1 times, MxPair=       156
 NAB=    50 NAA=    45 NBB=    10.
 A-vector RMS=  2.5755128D-05 Max=  2.2755538D-04 conv= 1.00D-05.
 RLE energy=       -0.5647242602
 DE(Corr)= -0.56462106     E(CORR)=     -87.445365378     Delta=-3.68D-04
 NORM(A)=   0.13451281D+01
 Iteration Nr.  19
 **********************
 DD1Dir will call FoFMem   1 times, MxPair=       156
 NAB=    50 NAA=    45 NBB=    10.
 A-vector RMS=  6.7690738D-06 Max=  8.0325490D-05 conv= 1.00D-05.
 RLE energy=       -0.5647135139
 DE(Corr)= -0.56471594     E(CORR)=     -87.445460260     Delta=-9.49D-05
 NORM(A)=   0.13450536D+01
 Iteration Nr.  20
 **********************
 DD1Dir will call FoFMem   1 times, MxPair=       156
 NAB=    50 NAA=    45 NBB=    10.
 A-vector RMS=  5.9842952D-06 Max=  5.4479996D-05 conv= 1.00D-05.
 RLE energy=       -0.5647156467
 DE(Corr)= -0.56472046     E(CORR)=     -87.445464776     Delta=-4.52D-06
 NORM(A)=   0.13449824D+01
 Iteration Nr.  21
 **********************
 DD1Dir will call FoFMem   1 times, MxPair=       156
 NAB=    50 NAA=    45 NBB=    10.
 A-vector RMS=  1.8138140D-06 Max=  1.8537032D-05 conv= 1.00D-05.
 RLE energy=       -0.5647130371
 DE(Corr)= -0.56471463     E(CORR)=     -87.445458946     Delta= 5.83D-06
 NORM(A)=   0.13449377D+01
 Iteration Nr.  22
 **********************
 DD1Dir will call FoFMem   1 times, MxPair=       156
 NAB=    50 NAA=    45 NBB=    10.
 A-vector RMS=  9.0332666D-07 Max=  8.5311686D-06 conv= 1.00D-05.
 RLE energy=       -0.5647134591
 DE(Corr)= -0.56471383     E(CORR)=     -87.445458151     Delta= 7.95D-07
 NORM(A)=   0.13449266D+01
 Iteration Nr.  23
 **********************
 DD1Dir will call FoFMem   1 times, MxPair=       156
 NAB=    50 NAA=    45 NBB=    10.
 A-vector RMS=  5.0201556D-07 Max=  4.7771407D-06 conv= 1.00D-05.
 RLE energy=       -0.5647131671
 DE(Corr)= -0.56471326     E(CORR)=     -87.445457582     Delta= 5.69D-07
 NORM(A)=   0.13449232D+01
 Iteration Nr.  24
 **********************
 DD1Dir will call FoFMem   1 times, MxPair=       156
 NAB=    50 NAA=    45 NBB=    10.
 A-vector RMS=  2.1257237D-07 Max=  1.6488689D-06 conv= 1.00D-05.
 RLE energy=       -0.5647131697
 DE(Corr)= -0.56471317     E(CORR)=     -87.445457492     Delta= 9.07D-08
 NORM(A)=   0.13449266D+01
 CI/CC converged in   24 iterations to DelEn= 9.07D-08 Conv= 1.00D-07 ErrA1= 2.13D-07 Conv= 1.00D-05
 Wavefunction amplitudes converged. E(Corr)=     -87.445457492    
 Dominant configurations:
 ***********************
 Spin Case        I    J    A    B          Value
    AA           10        13           -0.126114D+00
    AA           10        14           -0.255948D+00
    AA           10        17            0.467163D+00
    AA           10        22            0.344522D+00
    AA           10        23           -0.237535D+00
    AA           10        24           -0.280884D+00
    AA           10        27           -0.134575D+00
    AA           10        28           -0.181003D+00
    AA           10        36            0.100758D+00
 Largest amplitude= 4.67D-01
 Time for triples=     4930.16 seconds.
 T4(CCSD)= -0.26954376D-01
 T5(CCSD)=  0.10675559D-01
 CCSD(T)= -0.87461736308D+02
 Discarding MO integrals.
 Leave Link  913 at Mon Feb 26 13:04:45 2018, MaxMem=  8589934592 cpu:            7779.9 elap:             487.5
 (Enter /home1/apps/gaussian/16rA.03/g16/l601.exe)
 Copying SCF densities to generalized density rwf, IOpCl= 0 IROHF=1.

 **********************************************************************

            Population analysis using the SCF density.

 **********************************************************************

 Orbital symmetries:
       Occupied  (SG) (SG) (PI) (PI) (SG) (PI) (PI) (SG) (DLTA)
                 (DLTA)
       Virtual   (PI) (PI) (SG) (SG) (PI) (PI) (SG) (DLTA) (DLTA)
                 (PI) (PI) (SG) (SG) (SG) (PI) (PI) (SG) (SG) (DLTA)
                 (DLTA) (PI) (PI) (PI) (PI) (SG) (SG) (PHI) (PHI)
                 (DLTA) (DLTA) (SG) (PI) (PI) (SG) (PI) (PI) (SG)
                 (PI) (PI) (DLTA) (DLTA) (DLTA) (DLTA) (SG) (PI)
                 (PI) (SG) (PI) (PI) (SG) (SG) (PHI) (PHI) (DLTA)
                 (DLTA) (PI) (PI) (SG) (PI) (PI) (?A) (?A) (PHI)
                 (PHI) (SG) (DLTA) (DLTA) (PI) (PI) (SG) (DLTA)
                 (DLTA) (SG) (PI) (PI) (SG) (DLTA) (DLTA) (PI)
                 (PI) (PI) (PI) (SG) (SG) (DLTA) (DLTA) (PHI) (PHI)
                 (PI) (PI) (SG) (SG) (PI) (PI) (SG) (PHI) (PHI)
                 (?A) (?A) (DLTA) (DLTA) (PI) (PI) (SG) (DLTA)
                 (DLTA) (PI) (PI) (SG) (SG) (DLTA) (DLTA) (PHI)
                 (PHI) (PI) (PI) (SG) (PI) (PI) (SG) (SG) (DLTA)
                 (DLTA) (PI) (PI) (SG) (PHI) (PHI) (?A) (?A) (DLTA)
                 (DLTA) (PI) (PI) (SG) (PI) (PI) (SG) (DLTA) (DLTA)
                 (PI) (PI) (SG) (SG) (PI) (PI) (SG) (SG) (SG) (DLTA)
                 (DLTA) (PI) (PI) (SG) (PI) (PI) (SG) (SG) (PI)
                 (PI) (SG) (SG) (DLTA) (DLTA) (PI) (PI) (SG) (PI)
                 (PI) (SG) (SG) (PI) (PI) (SG) (SG) (SG) (PI) (PI)
                 (SG) (SG) (PI) (PI) (SG) (SG) (PI) (PI) (SG) (SG)
                 (PI) (PI) (SG) (SG) (SG) (SG) (SG) (SG)
 The electronic state is 6-SG.
 Alpha  occ. eigenvalues --   -3.75943  -2.45875  -2.45875  -2.41039  -0.56147
 Alpha  occ. eigenvalues --   -0.56147  -0.52777  -0.52777  -0.39711  -0.26349
 Alpha virt. eigenvalues --    0.01243   0.01243   0.02267   0.02581   0.05473
 Alpha virt. eigenvalues --    0.05473   0.05721   0.07576   0.07576   0.08032
 Alpha virt. eigenvalues --    0.08032   0.08971   0.10390   0.17453   0.20872
 Alpha virt. eigenvalues --    0.20872   0.22126   0.25305   0.26667   0.26667
 Alpha virt. eigenvalues --    0.26780   0.26780   0.34782   0.34782   0.35199
 Alpha virt. eigenvalues --    0.43155   0.62377   0.62377   0.63056   0.63056
 Alpha virt. eigenvalues --    0.68116   0.69654   0.69654   0.70756   0.73027
 Alpha virt. eigenvalues --    0.73027   0.78909   0.87327   0.87327   0.88500
 Alpha virt. eigenvalues --    0.88500   1.01267   1.01580   1.01580   1.11544
 Alpha virt. eigenvalues --    1.11544   1.18645   1.42531   1.42531   1.60388
 Alpha virt. eigenvalues --    1.73067   1.91953   1.91953   1.92706   1.92706
 Alpha virt. eigenvalues --    2.02257   2.02257   2.18782   2.26926   2.26926
 Alpha virt. eigenvalues --    2.28617   2.28617   2.29433   2.29433   2.30580
 Alpha virt. eigenvalues --    2.38737   2.38737   2.56809   2.56809   2.60791
 Alpha virt. eigenvalues --    2.75373   2.75373   2.81723   2.86396   2.86396
 Alpha virt. eigenvalues --    3.06621   4.01844   4.01844   4.23345   4.23345
 Alpha virt. eigenvalues --    4.40973   4.40973   4.55635   4.89580   5.33818
 Alpha virt. eigenvalues --    5.33818   5.34649   5.34649   5.48736   5.48736
 Alpha virt. eigenvalues --    5.66916   6.29176   6.46856   6.46856   6.66509
 Alpha virt. eigenvalues --    6.84095   6.84095   6.84571   6.84571   6.88353
 Alpha virt. eigenvalues --    6.88353   7.03162   7.03162   7.14756   7.32175
 Alpha virt. eigenvalues --    7.32175   7.36284   7.36284   7.68384  10.33762
 Alpha virt. eigenvalues --   14.84731  14.84731  14.86338  14.86338  14.90893
 Alpha virt. eigenvalues --   14.90893  15.08965  15.60013  15.60013  15.66296
 Alpha virt. eigenvalues --   16.35070  16.52578  16.52578  16.54298  16.54298
 Alpha virt. eigenvalues --   16.81345  18.89537  18.89537  18.90766  18.90766
 Alpha virt. eigenvalues --   18.91038  18.91038  18.98443  18.98443  19.03958
 Alpha virt. eigenvalues --   32.37501  32.37501  32.43006  34.30328  34.30328
 Alpha virt. eigenvalues --   34.31683  34.31683  34.42904  37.29389  61.40942
 Alpha virt. eigenvalues --   61.40942  61.46527  63.96658  75.36170  82.88872
 Alpha virt. eigenvalues --   82.88872  82.89944  82.89944  82.98753 112.08694
 Alpha virt. eigenvalues --  112.08694 112.13857 117.06811 204.74536 204.74536
 Alpha virt. eigenvalues --  204.79705 207.99050 284.78787 284.78787 284.79703
 Alpha virt. eigenvalues --  284.79703 284.85197 390.02992 390.02992 390.08618
 Alpha virt. eigenvalues --  402.71447 789.50514 789.50514 789.56195 808.86204
 Alpha virt. eigenvalues -- 1705.180221736.108031736.108031736.162313791.83747
 Alpha virt. eigenvalues -- 4256.699234256.699234256.747608897.24956**********
 Alpha virt. eigenvalues -- **************************************************
 Alpha virt. eigenvalues -- **************************************************
 Alpha virt. eigenvalues -- **********
     Molecular Orbital Coefficients:
                           1         2         3         4         5
                           O         O         O         O         O
     Eigenvalues --    -3.75943  -2.45875  -2.45875  -2.41039  -0.56147
   1 1   Cr 1S         -0.00000  -0.00000   0.00000   0.00000  -0.00000
   2        2S         -0.00000  -0.00000   0.00000   0.00000  -0.00000
   3        3S         -0.00000  -0.00000   0.00000   0.00000  -0.00000
   4        4S         -0.00000  -0.00000   0.00000   0.00000  -0.00000
   5        5S         -0.00001  -0.00000   0.00000   0.00000  -0.00000
   6        6S          0.00001  -0.00000   0.00000   0.00000  -0.00000
   7        7S         -0.00010  -0.00000   0.00000   0.00000  -0.00001
   8        8S          0.00011   0.00000   0.00000   0.00000  -0.00001
   9        9S         -0.00084  -0.00000   0.00000   0.00000  -0.00006
  10       10S          0.00132   0.00000   0.00000   0.00000   0.00002
  11       11S         -0.00581  -0.00003   0.00000   0.00000  -0.00039
  12       12S          0.01589   0.00008   0.00000   0.00000   0.00123
  13       13S         -0.08394  -0.00047   0.00000   0.00000  -0.00898
  14       14S          0.09844   0.00045   0.00000   0.00000   0.00483
  15       15S          0.77699   0.00764   0.00000   0.00000   0.24510
  16       16S         -0.24986  -0.00173   0.00000   0.00000  -0.00055
  17       17S         -0.62559  -0.00742   0.00000   0.00000  -0.19672
  18       18S         -0.26927   0.00395   0.00000   0.00000  -0.06116
  19       19S         -0.00385   0.00965   0.00000   0.00000   0.30067
  20       20S          0.00181  -0.00058   0.00000   0.00000  -0.00731
  21       21S         -0.40354  -0.00526   0.00000   0.00000  -0.20472
  22       22S         -0.11508  -0.00067   0.00000   0.00000   0.01070
  23       23S          0.00015  -0.00082   0.00000   0.00000  -0.02383
  24       24PX         0.00000   0.00000   0.00000   0.00000   0.00000
  25       24PY         0.00000   0.00000   0.00000   0.00000   0.00000
  26       24PZ        -0.00000   0.00000   0.00000   0.00000   0.00000
  27       25PX         0.00000   0.00000  -0.00000   0.00000   0.00000
  28       25PY         0.00000   0.00000   0.00000  -0.00000   0.00000
  29       25PZ         0.00000  -0.00000   0.00000   0.00000  -0.00000
  30       26PX         0.00000   0.00000   0.00003   0.00000   0.00000
  31       26PY         0.00000   0.00000   0.00000   0.00003   0.00000
  32       26PZ        -0.00000   0.00003   0.00000   0.00000   0.00000
  33       27PX         0.00000   0.00000  -0.00002   0.00000   0.00000
  34       27PY         0.00000   0.00000   0.00000  -0.00002   0.00000
  35       27PZ         0.00000  -0.00002   0.00000   0.00000  -0.00000
  36       28PX         0.00000   0.00000   0.00045   0.00000   0.00000
  37       28PY         0.00000   0.00000   0.00000   0.00045   0.00000
  38       28PZ        -0.00000   0.00045   0.00000   0.00000   0.00006
  39       29PX         0.00000   0.00000  -0.00052   0.00000   0.00000
  40       29PY         0.00000   0.00000   0.00000  -0.00052   0.00000
  41       29PZ         0.00001  -0.00052   0.00000   0.00000  -0.00009
  42       30PX         0.00000   0.00000   0.00493   0.00000   0.00000
  43       30PY         0.00000   0.00000   0.00000   0.00493   0.00000
  44       30PZ        -0.00003   0.00493   0.00000   0.00000   0.00069
  45       31PX         0.00000   0.00000  -0.00066   0.00000   0.00000
  46       31PY         0.00000   0.00000   0.00000  -0.00066   0.00000
  47       31PZ         0.00007  -0.00061   0.00000   0.00000  -0.00044
  48       32PX         0.00000   0.00000  -0.09816   0.00000   0.00000
  49       32PY         0.00000   0.00000   0.00000  -0.09816   0.00000
  50       32PZ        -0.00010  -0.09846   0.00000   0.00000  -0.01066
  51       33PX         0.00000   0.00000  -0.05026   0.00000   0.00000
  52       33PY         0.00000   0.00000   0.00000  -0.05026   0.00000
  53       33PZ        -0.00681  -0.05172   0.00000   0.00000   0.02556
  54       34PX         0.00000   0.00000   0.34165   0.00000   0.00000
  55       34PY         0.00000   0.00000   0.00000   0.34165   0.00000
  56       34PZ         0.00077   0.34348   0.00000   0.00000   0.03974
  57       35PX         0.00000   0.00000   0.21517   0.00000   0.00000
  58       35PY         0.00000   0.00000   0.00000   0.21517   0.00000
  59       35PZ        -0.00356   0.21681   0.00000   0.00000   0.03737
  60       36PX         0.00000   0.00000   0.27632   0.00000   0.00000
  61       36PY         0.00000   0.00000   0.00000   0.27632   0.00000
  62       36PZ        -0.00233   0.27186   0.00000   0.00000   0.03409
  63       37PX         0.00000   0.00000   0.03634   0.00000   0.00000
  64       37PY         0.00000   0.00000   0.00000   0.03634   0.00000
  65       37PZ        -0.00071   0.03126   0.00000   0.00000  -0.05797
  66       38PX         0.00000   0.00000  -0.00387   0.00000   0.00000
  67       38PY         0.00000   0.00000   0.00000  -0.00387   0.00000
  68       38PZ         0.00082  -0.00696   0.00000   0.00000  -0.10939
  69       39PX         0.00000   0.00000   0.00178   0.00000   0.00000
  70       39PY         0.00000   0.00000   0.00000   0.00178   0.00000
  71       39PZ        -0.00039   0.00293   0.00000   0.00000   0.00562
  72       40PX         0.00000   0.00000   0.08983   0.00000   0.00000
  73       40PY         0.00000   0.00000   0.00000   0.08983   0.00000
  74       40PZ         0.00647   0.09084   0.00000   0.00000  -0.01865
  75       41PX         0.00000   0.00000   0.24735   0.00000   0.00000
  76       41PY         0.00000   0.00000   0.00000   0.24735   0.00000
  77       41PZ         0.00149   0.24873   0.00000   0.00000   0.03093
  78       42PX         0.00000   0.00000  -0.00053   0.00000   0.00000
  79       42PY         0.00000   0.00000   0.00000  -0.00053   0.00000
  80       42PZ        -0.00020  -0.00006   0.00000   0.00000   0.01293
  81       43D 0       -0.00001   0.00002   0.00000   0.00000   0.00029
  82       43D+1        0.00000   0.00000  -0.00000   0.00000   0.00000
  83       43D-1        0.00000   0.00000   0.00000  -0.00000   0.00000
  84       43D+2       -0.00000  -0.00000   0.00000   0.00000  -0.00000
  85       43D-2        0.00000   0.00000   0.00000   0.00000   0.00000
  86       44D 0       -0.00015   0.00024   0.00000   0.00000   0.00376
  87       44D+1        0.00000   0.00000  -0.00003   0.00000   0.00000
  88       44D-1        0.00000   0.00000   0.00000  -0.00003   0.00000
  89       44D+2       -0.00000  -0.00000   0.00000   0.00000  -0.00000
  90       44D-2        0.00000   0.00000   0.00000   0.00000   0.00000
  91       45D 0       -0.00054   0.00088   0.00000   0.00000   0.01544
  92       45D+1        0.00000   0.00000  -0.00014   0.00000   0.00000
  93       45D-1        0.00000   0.00000   0.00000  -0.00014   0.00000
  94       45D+2       -0.00000  -0.00000   0.00000   0.00000  -0.00000
  95       45D-2        0.00000   0.00000   0.00000   0.00000   0.00000
  96       46D 0       -0.00058   0.00410   0.00000   0.00000   0.03259
  97       46D+1        0.00000   0.00000  -0.00022   0.00000   0.00000
  98       46D-1        0.00000   0.00000   0.00000  -0.00022   0.00000
  99       46D+2       -0.00000  -0.00000   0.00000   0.00000  -0.00000
 100       46D-2        0.00000   0.00000   0.00000   0.00000   0.00000
 101       47D 0        0.01075   0.00054   0.00000   0.00000   0.03341
 102       47D+1        0.00000   0.00000  -0.00047   0.00000   0.00000
 103       47D-1        0.00000   0.00000   0.00000  -0.00047   0.00000
 104       47D+2       -0.00000  -0.00000   0.00000   0.00000  -0.00000
 105       47D-2        0.00000   0.00000   0.00000   0.00000   0.00000
 106       48D 0        0.00031   0.00369   0.00000   0.00000   0.06733
 107       48D+1        0.00000   0.00000   0.00212   0.00000   0.00000
 108       48D-1        0.00000   0.00000   0.00000   0.00212   0.00000
 109       48D+2       -0.00000  -0.00000   0.00000   0.00000  -0.00000
 110       48D-2        0.00000   0.00000   0.00000   0.00000   0.00000
 111       49D 0        0.00055   0.00088   0.00000   0.00000   0.07392
 112       49D+1        0.00000   0.00000   0.00140   0.00000   0.00000
 113       49D-1        0.00000   0.00000   0.00000   0.00140   0.00000
 114       49D+2       -0.00000   0.00000   0.00000   0.00000  -0.00000
 115       49D-2        0.00000   0.00000   0.00000   0.00000   0.00000
 116       50D 0       -0.00033   0.00111   0.00000   0.00000   0.04343
 117       50D+1        0.00000   0.00000   0.00032   0.00000   0.00000
 118       50D-1        0.00000   0.00000   0.00000   0.00032   0.00000
 119       50D+2       -0.00000   0.00000   0.00000   0.00000  -0.00000
 120       50D-2        0.00000   0.00000   0.00000   0.00000   0.00000
 121       51D 0       -0.00145  -0.00245   0.00000   0.00000   0.00314
 122       51D+1        0.00000   0.00000  -0.00026   0.00000   0.00000
 123       51D-1        0.00000   0.00000   0.00000  -0.00026   0.00000
 124       51D+2       -0.00000   0.00000   0.00000   0.00000   0.00000
 125       51D-2        0.00000   0.00000   0.00000   0.00000   0.00000
 126       52D 0       -0.01359   0.00359   0.00000   0.00000   0.02031
 127       52D+1        0.00000   0.00000   0.00018   0.00000   0.00000
 128       52D-1        0.00000   0.00000   0.00000   0.00018   0.00000
 129       52D+2       -0.00000  -0.00000   0.00000   0.00000  -0.00000
 130       52D-2        0.00000   0.00000   0.00000   0.00000   0.00000
 131       53D 0        0.00022  -0.00053   0.00000   0.00000  -0.00998
 132       53D+1        0.00000   0.00000   0.00001   0.00000   0.00000
 133       53D-1        0.00000   0.00000   0.00000   0.00001   0.00000
 134       53D+2        0.00000  -0.00000   0.00000   0.00000   0.00000
 135       53D-2        0.00000   0.00000   0.00000   0.00000   0.00000
 136       54F 0       -0.00008  -0.00083   0.00000   0.00000  -0.00037
 137       54F+1        0.00000   0.00000   0.00160   0.00000   0.00000
 138       54F-1        0.00000   0.00000   0.00000   0.00160   0.00000
 139       54F+2        0.00000   0.00000   0.00000   0.00000   0.00000
 140       54F-2        0.00000   0.00000   0.00000   0.00000   0.00000
 141       54F+3        0.00000   0.00000   0.00000   0.00000   0.00000
 142       54F-3        0.00000   0.00000   0.00000   0.00000   0.00000
 143       55F 0       -0.00051  -0.00193   0.00000   0.00000  -0.00171
 144       55F+1        0.00000   0.00000   0.00339   0.00000   0.00000
 145       55F-1        0.00000   0.00000   0.00000   0.00339   0.00000
 146       55F+2        0.00000   0.00000   0.00000   0.00000   0.00000
 147       55F-2        0.00000   0.00000   0.00000   0.00000   0.00000
 148       55F+3        0.00000   0.00000   0.00000   0.00000   0.00000
 149       55F-3        0.00000   0.00000   0.00000   0.00000   0.00000
 150       56F 0       -0.00010  -0.00376   0.00000   0.00000  -0.00753
 151       56F+1        0.00000   0.00000   0.00125   0.00000   0.00000
 152       56F-1        0.00000   0.00000   0.00000   0.00125   0.00000
 153       56F+2       -0.00000   0.00000   0.00000   0.00000   0.00000
 154       56F-2        0.00000   0.00000   0.00000   0.00000   0.00000
 155       56F+3        0.00000   0.00000   0.00000   0.00000   0.00000
 156       56F-3        0.00000   0.00000   0.00000   0.00000   0.00000
 157       57F 0        0.00008  -0.00075   0.00000   0.00000  -0.01149
 158       57F+1        0.00000   0.00000  -0.00001   0.00000   0.00000
 159       57F-1        0.00000   0.00000   0.00000  -0.00001   0.00000
 160       57F+2       -0.00000   0.00000   0.00000   0.00000  -0.00000
 161       57F-2        0.00000   0.00000   0.00000   0.00000   0.00000
 162       57F+3        0.00000   0.00000  -0.00000   0.00000   0.00000
 163       57F-3        0.00000   0.00000   0.00000  -0.00000   0.00000
 164       58G 0        0.00025  -0.00007   0.00000   0.00000   0.00003
 165       58G+1        0.00000   0.00000  -0.00007   0.00000   0.00000
 166       58G-1        0.00000   0.00000   0.00000  -0.00007   0.00000
 167       58G+2       -0.00000   0.00000   0.00000   0.00000   0.00000
 168       58G-2        0.00000   0.00000   0.00000   0.00000   0.00000
 169       58G+3        0.00000   0.00000   0.00000   0.00000   0.00000
 170       58G-3        0.00000   0.00000   0.00000   0.00000   0.00000
 171       58G+4       -0.00000  -0.00000   0.00000   0.00000  -0.00000
 172       58G-4        0.00000   0.00000   0.00000   0.00000   0.00000
 173       59G 0        0.00059   0.00014   0.00000   0.00000   0.00069
 174       59G+1        0.00000   0.00000   0.00022   0.00000   0.00000
 175       59G-1        0.00000   0.00000   0.00000   0.00022   0.00000
 176       59G+2       -0.00000  -0.00000   0.00000   0.00000   0.00000
 177       59G-2        0.00000   0.00000   0.00000   0.00000   0.00000
 178       59G+3        0.00000   0.00000  -0.00000   0.00000   0.00000
 179       59G-3        0.00000   0.00000   0.00000  -0.00000   0.00000
 180       59G+4       -0.00000   0.00000   0.00000   0.00000   0.00000
 181       59G-4        0.00000   0.00000   0.00000   0.00000   0.00000
 182       60G 0        0.00038   0.00006   0.00000   0.00000   0.00186
 183       60G+1        0.00000   0.00000   0.00009   0.00000   0.00000
 184       60G-1        0.00000   0.00000   0.00000   0.00009   0.00000
 185       60G+2       -0.00000   0.00000   0.00000   0.00000   0.00000
 186       60G-2        0.00000   0.00000   0.00000   0.00000   0.00000
 187       60G+3        0.00000   0.00000  -0.00000   0.00000   0.00000
 188       60G-3        0.00000   0.00000   0.00000  -0.00000   0.00000
 189       60G+4       -0.00000  -0.00000   0.00000   0.00000  -0.00000
 190       60G-4        0.00000   0.00000   0.00000   0.00000   0.00000
 191 2   H  1S         -0.00001  -0.00009   0.00000   0.00000   0.00329
 192        2S         -0.00014  -0.00084   0.00000   0.00000   0.03587
 193        3S         -0.00054  -0.00312   0.00000   0.00000   0.13557
 194        4S         -0.00154  -0.00740   0.00000   0.00000   0.32393
 195        5S          0.00056  -0.00931   0.00000   0.00000   0.27718
 196        6S         -0.00117   0.00227   0.00000   0.00000   0.08793
 197        7PX         0.00000   0.00000   0.00014   0.00000   0.00000
 198        7PY         0.00000   0.00000   0.00000   0.00014   0.00000
 199        7PZ        -0.00018  -0.00080   0.00000   0.00000   0.00396
 200        8PX         0.00000   0.00000   0.00023   0.00000   0.00000
 201        8PY         0.00000   0.00000   0.00000   0.00023   0.00000
 202        8PZ        -0.00062  -0.00312   0.00000   0.00000   0.02627
 203        9PX         0.00000   0.00000   0.00023   0.00000   0.00000
 204        9PY         0.00000   0.00000   0.00000   0.00023   0.00000
 205        9PZ         0.00023  -0.00292   0.00000   0.00000   0.01130
 206       10D 0       -0.00008  -0.00061   0.00000   0.00000   0.00242
 207       10D+1        0.00000   0.00000   0.00014   0.00000   0.00000
 208       10D-1        0.00000   0.00000   0.00000   0.00014   0.00000
 209       10D+2        0.00000   0.00000   0.00000   0.00000  -0.00000
 210       10D-2        0.00000   0.00000   0.00000   0.00000   0.00000
 211       11D 0       -0.00006  -0.00088   0.00000   0.00000   0.00560
 212       11D+1        0.00000   0.00000  -0.00000   0.00000   0.00000
 213       11D-1        0.00000   0.00000   0.00000  -0.00000   0.00000
 214       11D+2        0.00000  -0.00000   0.00000   0.00000   0.00000
 215       11D-2        0.00000   0.00000   0.00000   0.00000   0.00000
                           6         7         8         9        10
                           O         O         O         O         O
[...]
 215       11D-2        0.00000   0.00000   0.00000   0.00000   0.00000
     Gross orbital populations:
                         Total     Alpha     Beta      Spin
   1 1   Cr 1S          0.00000   0.00000   0.00000   0.00000
   2        2S          0.00000   0.00000   0.00000   0.00000
   3        3S          0.00000   0.00000   0.00000   0.00000
   4        4S          0.00000   0.00000   0.00000   0.00000
   5        5S          0.00000   0.00000   0.00000   0.00000
   6        6S         -0.00000  -0.00000  -0.00000   0.00000
   7        7S          0.00000   0.00000   0.00000   0.00000
   8        8S         -0.00000  -0.00000  -0.00000   0.00000
   9        9S          0.00001   0.00000   0.00000   0.00000
  10       10S         -0.00001  -0.00001  -0.00001  -0.00000
  11       11S          0.00011   0.00006   0.00006   0.00000
  12       12S         -0.00069  -0.00035  -0.00034  -0.00001
  13       13S          0.01152   0.00586   0.00566   0.00020
  14       14S         -0.03600  -0.01821  -0.01779  -0.00042
  15       15S         -0.67658  -0.34987  -0.32670  -0.02317
  16       16S          0.37531   0.18863   0.18668   0.00195
  17       17S          1.22416   0.61922   0.60495   0.01427
  18       18S          0.47449   0.22878   0.24571  -0.01694
  19       19S          0.79485   0.63383   0.16102   0.47280
  20       20S          0.19160   0.19595  -0.00435   0.20029
  21       21S          0.40352   0.21169   0.19183   0.01985
  22       22S          0.21784   0.10914   0.10869   0.00045
  23       23S         -0.02159  -0.01269  -0.00890  -0.00379
  24       24PX         0.00000   0.00000   0.00000   0.00000
  25       24PY         0.00000   0.00000   0.00000   0.00000
  26       24PZ         0.00000   0.00000   0.00000   0.00000
  27       25PX        -0.00000  -0.00000  -0.00000  -0.00000
  28       25PY        -0.00000  -0.00000  -0.00000  -0.00000
  29       25PZ        -0.00000  -0.00000  -0.00000  -0.00000
  30       26PX         0.00000   0.00000   0.00000   0.00000
  31       26PY         0.00000   0.00000   0.00000   0.00000
  32       26PZ         0.00000   0.00000   0.00000   0.00000
  33       27PX        -0.00000  -0.00000  -0.00000  -0.00000
  34       27PY        -0.00000  -0.00000  -0.00000  -0.00000
  35       27PZ        -0.00000  -0.00000  -0.00000  -0.00000
  36       28PX         0.00001   0.00000   0.00000   0.00000
  37       28PY         0.00001   0.00000   0.00000   0.00000
  38       28PZ         0.00001   0.00000   0.00000   0.00000
  39       29PX        -0.00002  -0.00001  -0.00001  -0.00000
  40       29PY        -0.00002  -0.00001  -0.00001  -0.00000
  41       29PZ        -0.00002  -0.00001  -0.00001  -0.00000
  42       30PX         0.00053   0.00026   0.00026   0.00000
  43       30PY         0.00053   0.00026   0.00026   0.00000
  44       30PZ         0.00054   0.00027   0.00027   0.00000
  45       31PX        -0.00019  -0.00009  -0.00009  -0.00000
  46       31PY        -0.00019  -0.00009  -0.00009  -0.00000
  47       31PZ        -0.00019  -0.00010  -0.00009  -0.00000
  48       32PX        -0.06257  -0.03129  -0.03128  -0.00001
  49       32PY        -0.06257  -0.03129  -0.03128  -0.00001
  50       32PZ        -0.06415  -0.03233  -0.03182  -0.00051
  51       33PX        -0.05887  -0.02940  -0.02947   0.00007
  52       33PY        -0.05887  -0.02940  -0.02947   0.00007
  53       33PZ        -0.05815  -0.02937  -0.02878  -0.00058
  54       34PX         0.59084   0.29545   0.29539   0.00006
  55       34PY         0.59084   0.29545   0.29539   0.00006
  56       34PZ         0.60459   0.30424   0.30035   0.00388
  57       35PX         0.42577   0.21291   0.21287   0.00004
  58       35PY         0.42577   0.21291   0.21287   0.00004
  59       35PZ         0.43304   0.21711   0.21593   0.00118
  60       36PX         0.47822   0.23911   0.23912  -0.00001
  61       36PY         0.47822   0.23911   0.23912  -0.00001
  62       36PZ         0.45797   0.22627   0.23170  -0.00543
  63       37PX         0.03766   0.01919   0.01847   0.00072
  64       37PY         0.03766   0.01919   0.01847   0.00072
  65       37PZ         0.12255   0.08435   0.03820   0.04615
  66       38PX        -0.00131  -0.00040  -0.00091   0.00051
  67       38PY        -0.00131  -0.00040  -0.00091   0.00051
  68       38PZ         0.24747   0.19113   0.05635   0.13478
  69       39PX         0.00033   0.00017   0.00016   0.00001
  70       39PY         0.00033   0.00017   0.00016   0.00001
  71       39PZ         0.05452   0.05654  -0.00203   0.05857
  72       40PX         0.10144   0.05069   0.05074  -0.00005
  73       40PY         0.10144   0.05069   0.05074  -0.00005
  74       40PZ         0.10152   0.05124   0.05028   0.00096
  75       41PX         0.48941   0.24472   0.24469   0.00002
  76       41PY         0.48941   0.24472   0.24469   0.00002
  77       41PZ         0.49585   0.24860   0.24725   0.00135
  78       42PX        -0.00003  -0.00001  -0.00002   0.00000
  79       42PY        -0.00003  -0.00001  -0.00002   0.00000
  80       42PZ        -0.00610  -0.00341  -0.00269  -0.00073
  81       43D 0        0.00001   0.00001   0.00000   0.00000
  82       43D+1        0.00009   0.00009   0.00000   0.00009
  83       43D-1        0.00009   0.00009   0.00000   0.00009
  84       43D+2        0.00009   0.00009   0.00000   0.00009
  85       43D-2        0.00009   0.00009   0.00000   0.00009
  86       44D 0        0.00042   0.00032   0.00010   0.00021
  87       44D+1        0.00482   0.00482   0.00000   0.00482
  88       44D-1        0.00482   0.00482   0.00000   0.00482
  89       44D+2        0.00468   0.00468   0.00000   0.00468
  90       44D-2        0.00468   0.00468   0.00000   0.00468
  91       45D 0        0.00410   0.00309   0.00101   0.00207
  92       45D+1        0.04601   0.04601   0.00000   0.04601
  93       45D-1        0.04601   0.04601   0.00000   0.04601
  94       45D+2        0.04480   0.04480   0.00000   0.04480
  95       45D-2        0.04480   0.04480   0.00000   0.04480
  96       46D 0        0.01485   0.01109   0.00377   0.00732
  97       46D+1        0.17074   0.17074   0.00000   0.17074
  98       46D-1        0.17074   0.17074   0.00000   0.17074
  99       46D+2        0.16507   0.16507   0.00000   0.16507
 100       46D-2        0.16507   0.16507   0.00000   0.16507
 101       47D 0        0.01878   0.01311   0.00567   0.00745
 102       47D+1        0.17386   0.17386  -0.00000   0.17386
 103       47D-1        0.17386   0.17386  -0.00000   0.17386
 104       47D+2        0.16975   0.16975   0.00000   0.16975
 105       47D-2        0.16975   0.16975   0.00000   0.16975
 106       48D 0        0.05701   0.03961   0.01740   0.02222
 107       48D+1        0.31561   0.31560   0.00001   0.31560
 108       48D-1        0.31561   0.31560   0.00001   0.31560
 109       48D+2        0.31993   0.31993   0.00000   0.31993
 110       48D-2        0.31993   0.31993   0.00000   0.31993
 111       49D 0        0.08200   0.05141   0.03059   0.02082
 112       49D+1        0.11855   0.11855   0.00000   0.11854
 113       49D-1        0.11855   0.11855   0.00000   0.11854
 114       49D+2        0.12833   0.12833   0.00000   0.12833
 115       49D-2        0.12833   0.12833   0.00000   0.12833
 116       50D 0        0.03739   0.02029   0.01709   0.00320
 117       50D+1        0.00799   0.00799   0.00000   0.00799
 118       50D-1        0.00799   0.00799   0.00000   0.00799
 119       50D+2        0.00876   0.00876   0.00000   0.00876
 120       50D-2        0.00876   0.00876   0.00000   0.00876
 121       51D 0        0.00167   0.00130   0.00037   0.00093
 122       51D+1        0.00443   0.00443  -0.00000   0.00443
 123       51D-1        0.00443   0.00443  -0.00000   0.00443
 124       51D+2        0.00566   0.00566   0.00000   0.00566
 125       51D-2        0.00566   0.00566   0.00000   0.00566
 126       52D 0        0.01621   0.01267   0.00354   0.00913
 127       52D+1        0.15670   0.15670   0.00000   0.15670
 128       52D-1        0.15670   0.15670   0.00000   0.15670
 129       52D+2        0.15299   0.15299   0.00000   0.15299
 130       52D-2        0.15299   0.15299   0.00000   0.15299
 131       53D 0       -0.00279  -0.00112  -0.00167   0.00055
 132       53D+1       -0.00012  -0.00012   0.00000  -0.00012
 133       53D-1       -0.00012  -0.00012   0.00000  -0.00012
 134       53D+2       -0.00015  -0.00015  -0.00000  -0.00015
 135       53D-2       -0.00015  -0.00015  -0.00000  -0.00015
 136       54F 0        0.00001   0.00000   0.00000  -0.00000
 137       54F+1        0.00001   0.00001   0.00001   0.00000
 138       54F-1        0.00001   0.00001   0.00001   0.00000
 139       54F+2       -0.00000  -0.00000   0.00000  -0.00000
 140       54F-2       -0.00000  -0.00000   0.00000  -0.00000
 141       54F+3        0.00000   0.00000   0.00000   0.00000
 142       54F-3        0.00000   0.00000   0.00000   0.00000
 143       55F 0        0.00008   0.00004   0.00004  -0.00000
 144       55F+1        0.00004   0.00002   0.00002   0.00000
 145       55F-1        0.00004   0.00002   0.00002   0.00000
 146       55F+2        0.00000   0.00000   0.00000   0.00000
 147       55F-2        0.00000   0.00000   0.00000   0.00000
 148       55F+3        0.00000   0.00000   0.00000   0.00000
 149       55F-3        0.00000   0.00000   0.00000  -0.00000
 150       56F 0        0.00154   0.00077   0.00078  -0.00001
 151       56F+1        0.00004   0.00004   0.00000   0.00004
 152       56F-1        0.00004   0.00004   0.00000   0.00004
 153       56F+2        0.00004   0.00004   0.00000   0.00004
 154       56F-2        0.00004   0.00004   0.00000   0.00004
 155       56F+3        0.00000   0.00000   0.00000   0.00000
 156       56F-3        0.00000   0.00000   0.00000   0.00000
 157       57F 0        0.00503   0.00228   0.00276  -0.00048
 158       57F+1        0.00002   0.00002  -0.00000   0.00002
 159       57F-1        0.00002   0.00002  -0.00000   0.00002
 160       57F+2        0.00007   0.00007  -0.00000   0.00007
 161       57F-2        0.00007   0.00007  -0.00000   0.00007
 162       57F+3        0.00000   0.00000  -0.00000   0.00000
 163       57F-3        0.00000   0.00000  -0.00000   0.00000
 164       58G 0        0.00000   0.00000   0.00000  -0.00000
 165       58G+1        0.00000   0.00000  -0.00000   0.00000
 166       58G-1        0.00000   0.00000  -0.00000   0.00000
 167       58G+2        0.00000   0.00000   0.00000   0.00000
 168       58G-2        0.00000   0.00000   0.00000   0.00000
 169       58G+3        0.00000   0.00000   0.00000   0.00000
 170       58G-3        0.00000   0.00000   0.00000   0.00000
 171       58G+4        0.00000   0.00000   0.00000   0.00000
 172       58G-4        0.00000   0.00000   0.00000   0.00000
 173       59G 0        0.00001   0.00001   0.00001   0.00000
 174       59G+1        0.00000   0.00000   0.00000   0.00000
 175       59G-1        0.00000   0.00000   0.00000   0.00000
 176       59G+2        0.00001   0.00001   0.00000   0.00001
 177       59G-2        0.00001   0.00001   0.00000   0.00001
 178       59G+3        0.00000   0.00000   0.00000   0.00000
 179       59G-3        0.00000   0.00000   0.00000   0.00000
 180       59G+4        0.00000   0.00000  -0.00000   0.00000
 181       59G-4        0.00000   0.00000  -0.00000   0.00000
 182       60G 0        0.00032   0.00018   0.00015   0.00003
 183       60G+1        0.00000   0.00000   0.00000   0.00000
 184       60G-1        0.00000   0.00000   0.00000   0.00000
 185       60G+2        0.00000   0.00000   0.00000   0.00000
 186       60G-2        0.00000   0.00000   0.00000   0.00000
 187       60G+3        0.00000   0.00000   0.00000   0.00000
 188       60G-3        0.00000   0.00000  -0.00000   0.00000
 189       60G+4        0.00000   0.00000   0.00000   0.00000
 190       60G-4        0.00000   0.00000   0.00000   0.00000
 191 2   H  1S          0.00069   0.00036   0.00033   0.00002
 192        2S          0.02409   0.01245   0.01164   0.00080
 193        3S          0.18240   0.09433   0.08806   0.00627
 194        4S          0.60277   0.30920   0.29358   0.01562
 195        5S          0.49129   0.24493   0.24635  -0.00142
 196        6S          0.10520   0.05418   0.05102   0.00316
 197        7PX         0.00006   0.00006   0.00000   0.00006
 198        7PY         0.00006   0.00006   0.00000   0.00006
 199        7PZ         0.00060   0.00030   0.00030   0.00001
 200        8PX         0.00039   0.00038   0.00001   0.00037
 201        8PY         0.00039   0.00038   0.00001   0.00037
 202        8PZ         0.00838   0.00425   0.00413   0.00012
 203        9PX        -0.00015  -0.00018   0.00002  -0.00020
 204        9PY        -0.00015  -0.00018   0.00002  -0.00020
 205        9PZ        -0.00055  -0.00201   0.00146  -0.00348
 206       10D 0        0.00018   0.00009   0.00009   0.00000
 207       10D+1        0.00007   0.00007   0.00000   0.00007
 208       10D-1        0.00007   0.00007   0.00000   0.00007
 209       10D+2        0.00000   0.00000   0.00000   0.00000
 210       10D-2        0.00000   0.00000   0.00000   0.00000
 211       11D 0        0.00031   0.00032  -0.00001   0.00032
 212       11D+1       -0.00038  -0.00038  -0.00000  -0.00038
 213       11D-1       -0.00038  -0.00038  -0.00000  -0.00038
 214       11D+2       -0.00003  -0.00003  -0.00000  -0.00003
 215       11D-2       -0.00003  -0.00003  -0.00000  -0.00003
          Condensed to atoms (all electrons):
               1          2
     1  Cr  13.270703   0.314023
     2  H    0.314023   1.101251
          Atomic-Atomic Spin Densities.
               1          2
     1  Cr   5.005506  -0.026710
     2  H   -0.026710   0.047914
 Mulliken charges and spin densities:
               1          2
     1  Cr   0.415274   4.978796
     2  H   -0.415274   0.021204
 Sum of Mulliken charges =  -0.00000   5.00000
 Mulliken charges and spin densities with hydrogens summed into heavy atoms:
               1          2
     1  Cr  -0.000000   5.000000
 Electronic spatial extent (au):  <R**2>=             54.7941
 Charge=             -0.0000 electrons
 Dipole moment (field-independent basis, Debye):
    X=              0.0000    Y=              0.0000    Z=              2.4253  Tot=              2.4253
 Quadrupole moment (field-independent basis, Debye-Ang):
   XX=            -16.9981   YY=            -16.9981   ZZ=            -25.0128
   XY=              0.0000   XZ=              0.0000   YZ=              0.0000
 Traceless Quadrupole moment (field-independent basis, Debye-Ang):
   XX=              2.6716   YY=              2.6716   ZZ=             -5.3432
   XY=              0.0000   XZ=              0.0000   YZ=              0.0000
 Octapole moment (field-independent basis, Debye-Ang**2):
  XXX=              0.0000  YYY=              0.0000  ZZZ=             11.2910  XYY=              0.0000
  XXY=              0.0000  XXZ=              0.2433  XZZ=              0.0000  YZZ=              0.0000
  YYZ=              0.2433  XYZ=              0.0000
 Hexadecapole moment (field-independent basis, Debye-Ang**3):
 XXXX=            -31.4842 YYYY=            -31.4842 ZZZZ=            -99.4659 XXXY=              0.0000
 XXXZ=              0.0000 YYYX=              0.0000 YYYZ=              0.0000 ZZZX=              0.0000
 ZZZY=              0.0000 XXYY=            -10.4947 XXZZ=            -20.3221 YYZZ=            -20.3221
 XXYZ=              0.0000 YYXZ=              0.0000 ZZXY=              0.0000
 N-N= 4.115822751600D+00 E-N=-2.043595205368D+02  KE= 4.620728663585D+01
 Symmetry A1   KE= 1.722264129578D+01
 Symmetry A2   KE= 5.447154769190D+00
 Symmetry B1   KE= 1.176874529229D+01
 Symmetry B2   KE= 1.176874527868D+01
 Symmetry A1   SP= 2.000000000000D+00
 Symmetry A2   SP= 1.000000000000D+00
 Symmetry B1   SP= 1.000000000000D+00
 Symmetry B2   SP= 1.000000000000D+00
 Orbital energies and kinetic energies (alpha):
                                 1                 2
   1         O                -3.759430          1.880571
   2         O                -2.458752          3.111778
   3         O                -2.458752          3.100393
   4         O                -2.410390          3.100393
   5         O                -0.561473          0.584264
   6         O                -0.561473          5.567959
   7         O                -0.527770          5.567959
   8         O                -0.527770          0.622261
   9         O                -0.397114          5.447155
  10         O                -0.263490          5.447155
  11         V                 0.012428          0.058363
  12         V                 0.012428          0.058363
  13         V                 0.022669          0.037304
  14         V                 0.025813          0.093891
  15         V                 0.054725          0.167514
 Total kinetic energy from orbitals= 6.885977615254D+01
                          Isotropic Fermi Contact Couplings
        Atom                 a.u.       MegaHertz       Gauss      10(-4) cm-1
     1  Cr(53)             0.00098      -0.04957      -0.01769      -0.01654
     2  H(1)               0.01148      10.26420       3.66252       3.42377
 --------------------------------------------------------
       Center         ----  Spin Dipole Couplings  ----
                      3XX-RR        3YY-RR        3ZZ-RR
 --------------------------------------------------------
     1   Atom        0.745938      0.745938     -1.491876
     2   Atom       -0.093146     -0.093146      0.186292
 --------------------------------------------------------
                        XY            XZ            YZ
 --------------------------------------------------------
     1   Atom        0.000000      0.000000      0.000000
     2   Atom        0.000000      0.000000      0.000000
 --------------------------------------------------------


 ---------------------------------------------------------------------------------
              Anisotropic Spin Dipole Couplings in Principal Axis System
 ---------------------------------------------------------------------------------

       Atom             a.u.   MegaHertz   Gauss  10(-4) cm-1        Axes

              Baa    -1.4919    45.083    16.087    15.038  0.0000  0.0000  1.0000
     1 Cr(53) Bbb     0.7459   -22.542    -8.043    -7.519  1.0000  0.0000  0.0000
              Bcc     0.7459   -22.542    -8.043    -7.519 -0.0000  1.0000  0.0000
 
              Baa    -0.0931   -49.698   -17.734   -16.578  1.0000  0.0000  0.0000
     2 H(1)   Bbb    -0.0931   -49.698   -17.734   -16.578 -0.0000  1.0000  0.0000
              Bcc     0.1863    99.397    35.467    33.155  0.0000  0.0000  1.0000
 

 ---------------------------------------------------------------------------------

 No NMR shielding tensors so no spin-rotation constants.
 Leave Link  601 at Mon Feb 26 13:04:48 2018, MaxMem=  8589934592 cpu:              42.8 elap:               2.8
 (Enter /home1/apps/gaussian/16rA.03/g16/l9999.exe)

 Test job not archived.
 1\1\GINC-C412-134\SP\ROCCSD(T)-Full\Gen\Cr1H1(6)\AANNABE\26-Feb-2018\0
 \\#P ROCCSD(T)=(maxcyc=150, Full, SaveAmplitudes, ReadAmplitudes)/Gen 
 5d 7f SCF=(maxcycles=300) Integral(NoXCTest) MaxDisk=500GB Pop=Regular
  Pseudo=Read Guess=Read IOp(5/15=2)\\CrH\\0,6\Cr,0,0.,0.,0.\H,0,0.,0.,
 1.8\\Version=ES64L-G16RevA.03\State=6-SG\HF=-86.8807443\MP2=-87.412438
 3\MP3=-87.4212414\PUHF=-86.8807443\PMP2-0=-87.4124383\MP4SDQ=-87.42757
 07\CCSD=-87.4454575\CCSD(T)=-87.4617363\RMSD=1.942e-09\PG=C*V [C*(H1Cr
 1)]\\@


 TIME IS NATURE'S WAY OF MAKING SURE EVERYTHING
 DOESN'T HAPPEN AT ONCE.
                     - WOODY ALLEN
 Job cpu time:       0 days  2 hours 39 minutes 11.4 seconds.
 Elapsed time:       0 days  0 hours 10 minutes  1.2 seconds.
 File lengths (MBytes):  RWF=   2232 Int=      0 D2E=      0 Chk=     12 Scr=      1
 Normal termination of Gaussian 16 at Mon Feb 26 13:04:48 2018.
