 Entering Gaussian System, Link 0=g16
 Initial command:
 /home1/apps/gaussian/16rA.03/g16/l1.exe "/tmp/Gau-171155.inp" -scrdir="/tmp/"
 Entering Link 1 = /home1/apps/gaussian/16rA.03/g16/l1.exe PID=    171156.
  
 Copyright (c) 1988,1990,1992,1993,1995,1998,2003,2009,2016,
            Gaussian, Inc.  All Rights Reserved.
  
 This is part of the Gaussian(R) 16 program.  It is based on
 the Gaussian(R) 09 system (copyright 2009, Gaussian, Inc.),
 the Gaussian(R) 03 system (copyright 2003, Gaussian, Inc.),
 the Gaussian(R) 98 system (copyright 1998, Gaussian, Inc.),
 the Gaussian(R) 94 system (copyright 1995, Gaussian, Inc.),
 the Gaussian 92(TM) system (copyright 1992, Gaussian, Inc.),
 the Gaussian 90(TM) system (copyright 1990, Gaussian, Inc.),
 the Gaussian 88(TM) system (copyright 1988, Gaussian, Inc.),
 the Gaussian 86(TM) system (copyright 1986, Carnegie Mellon
 University), and the Gaussian 82(TM) system (copyright 1983,
 Carnegie Mellon University). Gaussian is a federally registered
 trademark of Gaussian, Inc.
  
 This software contains proprietary and confidential information,
 including trade secrets, belonging to Gaussian, Inc.
  
 This software is provided under written license and may be
 used, copied, transmitted, or stored only in accord with that
 written license.
  
 The following legend is applicable only to US Government
 contracts under FAR:
  
                    RESTRICTED RIGHTS LEGEND
  
 Use, reproduction and disclosure by the US Government is
 subject to restrictions as set forth in subparagraphs (a)
 and (c) of the Commercial Computer Software - Restricted
 Rights clause in FAR 52.227-19.
  
 Gaussian, Inc.
 340 Quinnipiac St., Bldg. 40, Wallingford CT 06492
  
  
 ---------------------------------------------------------------
 Warning -- This program may not be used in any manner that
 competes with the business of Gaussian, Inc. or will provide
 assistance to any competitor of Gaussian, Inc.  The licensee
 of this program is prohibited from giving any competitor of
 Gaussian, Inc. access to this program.  By using this program,
 the user acknowledges that Gaussian, Inc. is engaged in the
 business of creating and licensing software in the field of
 computational chemistry and represents and warrants to the
 licensee that it is not a competitor of Gaussian, Inc. and that
 it will not use this program in any manner prohibited above.
 ---------------------------------------------------------------
  

 Cite this work as:
 Gaussian 16, Revision A.03,
 M. J. Frisch, G. W. Trucks, H. B. Schlegel, G. E. Scuseria, 
 M. A. Robb, J. R. Cheeseman, G. Scalmani, V. Barone, 
 G. A. Petersson, H. Nakatsuji, X. Li, M. Caricato, A. V. Marenich, 
 J. Bloino, B. G. Janesko, R. Gomperts, B. Mennucci, H. P. Hratchian, 
 J. V. Ortiz, A. F. Izmaylov, J. L. Sonnenberg, D. Williams-Young, 
 F. Ding, F. Lipparini, F. Egidi, J. Goings, B. Peng, A. Petrone, 
 T. Henderson, D. Ranasinghe, V. G. Zakrzewski, J. Gao, N. Rega, 
 G. Zheng, W. Liang, M. Hada, M. Ehara, K. Toyota, R. Fukuda, 
 J. Hasegawa, M. Ishida, T. Nakajima, Y. Honda, O. Kitao, H. Nakai, 
 T. Vreven, K. Throssell, J. A. Montgomery, Jr., J. E. Peralta, 
 F. Ogliaro, M. J. Bearpark, J. J. Heyd, E. N. Brothers, K. N. Kudin, 
 V. N. Staroverov, T. A. Keith, R. Kobayashi, J. Normand, 
 K. Raghavachari, A. P. Rendell, J. C. Burant, S. S. Iyengar, 
 J. Tomasi, M. Cossi, J. M. Millam, M. Klene, C. Adamo, R. Cammi, 
 J. W. Ochterski, R. L. Martin, K. Morokuma, O. Farkas, 
 J. B. Foresman, and D. J. Fox, Gaussian, Inc., Wallingford CT, 2016.
 
 ******************************************
 Gaussian 16:  ES64L-G16RevA.03 25-Dec-2016
                25-Feb-2018 
 ******************************************
 %MEM=64GB
 %CPU=0-15
 SetSPE:  set environment variable "MP_BIND" = "yes"
 SetSPE:  set environment variable "MP_BLIST" = "0,1,2,3,4,5,6,7,8,9,10,11,12,13,14,15"
 Will use up to   16 processors via shared memory.
 %RWF=/scratch/04843/aannabe/gaussian/
 %Int=/scratch/04843/aannabe/gaussian/
 %D2E=/scratch/04843/aannabe/gaussian/
 %NoSave
 %CHK=MnH
 ----------------------------------------------------------------------
 #P ROCCSD(T)=(maxcyc=150, Full, SaveAmplitudes, ReadAmplitudes)/Gen 5d
  7f SCF=(maxcycles=300) Integral(NoXCTest) MaxDisk=500GB Pop=Regular P
 seudo=Read Guess=Read IOp(5/15=2)
 ----------------------------------------------------------------------
 1/38=1,172=1/1;
 2/12=2,17=6,18=5,40=1/2;
 3/5=7,8=11,11=2,16=1,17=8,25=1,30=1,47=8,116=101/1,2,3;
 4/5=1/1;
 5/5=2,7=300,15=2,38=6/2;
 8/5=-1,6=4,9=120000,10=90,24=1/1,4;
 9/5=7,6=150,14=2,77=1/13;
 6//1;
 99/5=1,9=1/99;
 Leave Link    1 at Sun Feb 25 17:20:10 2018, MaxMem=  8589934592 cpu:               4.8 elap:               0.3
 (Enter /home1/apps/gaussian/16rA.03/g16/l101.exe)
 ---
 MnH
 ---
 Symbolic Z-matrix:
 Charge =  0 Multiplicity = 7
 Mn                    0.        0.        0. 
 H                     0.        0.        1. 
 
 ITRead=  0  0
 MicOpt= -1 -1
 NAtoms=      2 NQM=        2 NQMF=       0 NMMI=      0 NMMIF=      0
                NMic=       0 NMicF=      0.
                    Isotopes and Nuclear Properties:
 (Nuclear quadrupole moments (NQMom) in fm**2, nuclear magnetic moments (NMagM)
  in nuclear magnetons)

  Atom         1           2
 IAtWgt=          55           1
 AtmWgt=  54.9380463   1.0078250
 NucSpn=           5           1
 AtZEff=  -0.0000000  -0.0000000
 NQMom=   33.0000000   0.0000000
 NMagM=    3.4532000   2.7928460
 AtZNuc=  25.0000000   1.0000000
 Leave Link  101 at Sun Feb 25 17:20:10 2018, MaxMem=  8589934592 cpu:               1.6 elap:               0.1
 (Enter /home1/apps/gaussian/16rA.03/g16/l202.exe)
                          Input orientation:                          
 ---------------------------------------------------------------------
 Center     Atomic      Atomic             Coordinates (Angstroms)
 Number     Number       Type             X           Y           Z
 ---------------------------------------------------------------------
      1         25           0        0.000000    0.000000    0.000000
      2          1           0        0.000000    0.000000    1.000000
 ---------------------------------------------------------------------
 Stoichiometry    HMn(7)
 Framework group  C*V[C*(HMn)]
 Deg. of freedom     1
 Full point group                 C*V     NOp   4
 Largest Abelian subgroup         C2V     NOp   4
 Largest concise Abelian subgroup C1      NOp   1
                         Standard orientation:                         
 ---------------------------------------------------------------------
 Center     Atomic      Atomic             Coordinates (Angstroms)
 Number     Number       Type             X           Y           Z
 ---------------------------------------------------------------------
      1         25           0        0.000000    0.000000    0.038462
      2          1           0        0.000000    0.000000   -0.961538
 ---------------------------------------------------------------------
 Rotational constants (GHZ):           0.0000000         510.6541758         510.6541758
 Leave Link  202 at Sun Feb 25 17:20:11 2018, MaxMem=  8589934592 cpu:               0.4 elap:               0.1
 (Enter /home1/apps/gaussian/16rA.03/g16/l301.exe)
 General basis read from cards:  (5D, 7F)
 Centers:       1
 S 1 1.00
     Exponent=  3.9608050000D+06 Coefficients=  1.0000000000D+00
 S 1 1.00
     Exponent=  5.9311550000D+05 Coefficients=  1.0000000000D+00
 S 1 1.00
     Exponent=  1.3497680000D+05 Coefficients=  1.0000000000D+00
 S 1 1.00
     Exponent=  3.8230670000D+04 Coefficients=  1.0000000000D+00
 S 1 1.00
     Exponent=  1.2471540000D+04 Coefficients=  1.0000000000D+00
 S 1 1.00
     Exponent=  4.5017430000D+03 Coefficients=  1.0000000000D+00
 S 1 1.00
     Exponent=  1.7552120000D+03 Coefficients=  1.0000000000D+00
 S 1 1.00
     Exponent=  7.2730390000D+02 Coefficients=  1.0000000000D+00
 S 1 1.00
     Exponent=  3.1636780000D+02 Coefficients=  1.0000000000D+00
 S 1 1.00
     Exponent=  1.4300980000D+02 Coefficients=  1.0000000000D+00
 S 1 1.00
     Exponent=  6.6218050000D+01 Coefficients=  1.0000000000D+00
 S 1 1.00
     Exponent=  2.9918960000D+01 Coefficients=  1.0000000000D+00
 S 1 1.00
     Exponent=  1.4303180000D+01 Coefficients=  1.0000000000D+00
 S 1 1.00
     Exponent=  6.8394510000D+00 Coefficients=  1.0000000000D+00
 S 1 1.00
     Exponent=  3.0123740000D+00 Coefficients=  1.0000000000D+00
 S 1 1.00
     Exponent=  1.4188080000D+00 Coefficients=  1.0000000000D+00
 S 1 1.00
     Exponent=  6.2362400000D-01 Coefficients=  1.0000000000D+00
 S 1 1.00
     Exponent=  1.3409800000D-01 Coefficients=  1.0000000000D+00
 S 1 1.00
     Exponent=  6.5548000000D-02 Coefficients=  1.0000000000D+00
 S 1 1.00
     Exponent=  2.9584000000D-02 Coefficients=  1.0000000000D+00
 S 1 1.00
     Exponent=  4.1714000000D+00 Coefficients=  1.0000000000D+00
 S 1 1.00
     Exponent=  1.0701000000D+00 Coefficients=  1.0000000000D+00
 S 1 1.00
     Exponent=  1.3350000000D-02 Coefficients=  1.0000000000D+00
 P 1 1.00
     Exponent=  1.6205860000D+04 Coefficients=  1.0000000000D+00
 P 1 1.00
     Exponent=  3.8362740000D+03 Coefficients=  1.0000000000D+00
 P 1 1.00
     Exponent=  1.2460480000D+03 Coefficients=  1.0000000000D+00
 P 1 1.00
     Exponent=  4.7675350000D+02 Coefficients=  1.0000000000D+00
 P 1 1.00
     Exponent=  2.0218950000D+02 Coefficients=  1.0000000000D+00
 P 1 1.00
     Exponent=  9.2094870000D+01 Coefficients=  1.0000000000D+00
 P 1 1.00
     Exponent=  4.4147200000D+01 Coefficients=  1.0000000000D+00
 P 1 1.00
     Exponent=  2.1854680000D+01 Coefficients=  1.0000000000D+00
 P 1 1.00
     Exponent=  1.1085960000D+01 Coefficients=  1.0000000000D+00
 P 1 1.00
     Exponent=  5.6741080000D+00 Coefficients=  1.0000000000D+00
 P 1 1.00
     Exponent=  2.8231700000D+00 Coefficients=  1.0000000000D+00
 P 1 1.00
     Exponent=  1.3686210000D+00 Coefficients=  1.0000000000D+00
 P 1 1.00
     Exponent=  6.4443100000D-01 Coefficients=  1.0000000000D+00
 P 1 1.00
     Exponent=  2.4834600000D-01 Coefficients=  1.0000000000D+00
 P 1 1.00
     Exponent=  9.7175000000D-02 Coefficients=  1.0000000000D+00
 P 1 1.00
     Exponent=  3.6565000000D-02 Coefficients=  1.0000000000D+00
 P 1 1.00
     Exponent=  6.0568000000D+00 Coefficients=  1.0000000000D+00
 P 1 1.00
     Exponent=  1.3911000000D+00 Coefficients=  1.0000000000D+00
 P 1 1.00
     Exponent=  1.3760000000D-02 Coefficients=  1.0000000000D+00
 D 1 1.00
     Exponent=  1.0190400000D+02 Coefficients=  1.0000000000D+00
 D 1 1.00
     Exponent=  3.0033700000D+01 Coefficients=  1.0000000000D+00
 D 1 1.00
     Exponent=  1.0923800000D+01 Coefficients=  1.0000000000D+00
 D 1 1.00
     Exponent=  4.3974000000D+00 Coefficients=  1.0000000000D+00
 D 1 1.00
     Exponent=  1.8159500000D+00 Coefficients=  1.0000000000D+00
 D 1 1.00
     Exponent=  7.2573100000D-01 Coefficients=  1.0000000000D+00
 D 1 1.00
     Exponent=  2.6996100000D-01 Coefficients=  1.0000000000D+00
 D 1 1.00
     Exponent=  8.7760000000D-02 Coefficients=  1.0000000000D+00
 D 1 1.00
     Exponent=  3.9511000000D+00 Coefficients=  1.0000000000D+00
 D 1 1.00
     Exponent=  1.8488000000D+00 Coefficients=  1.0000000000D+00
 D 1 1.00
     Exponent=  2.8530000000D-02 Coefficients=  1.0000000000D+00
 F 1 1.00
     Exponent=  5.1541000000D+00 Coefficients=  1.0000000000D+00
 F 1 1.00
     Exponent=  1.9044000000D+00 Coefficients=  1.0000000000D+00
 F 1 1.00
     Exponent=  6.4380000000D-01 Coefficients=  1.0000000000D+00
 F 1 1.00
     Exponent=  2.1764000000D-01 Coefficients=  1.0000000000D+00
 G 1 1.00
     Exponent=  4.7163000000D+00 Coefficients=  1.0000000000D+00
 G 1 1.00
     Exponent=  1.7022000000D+00 Coefficients=  1.0000000000D+00
 G 1 1.00
     Exponent=  6.1436000000D-01 Coefficients=  1.0000000000D+00
 ****
 Centers:       2
 S 1 1.00
     Exponent=  3.3870000000D+01 Coefficients=  1.0000000000D+00
 S 1 1.00
     Exponent=  5.0950000000D+00 Coefficients=  1.0000000000D+00
 S 1 1.00
     Exponent=  1.1590000000D+00 Coefficients=  1.0000000000D+00
 S 1 1.00
     Exponent=  3.2580000000D-01 Coefficients=  1.0000000000D+00
 S 1 1.00
     Exponent=  1.0270000000D-01 Coefficients=  1.0000000000D+00
 S 1 1.00
     Exponent=  2.5260000000D-02 Coefficients=  1.0000000000D+00
 P 1 1.00
     Exponent=  1.4070000000D+00 Coefficients=  1.0000000000D+00
 P 1 1.00
     Exponent=  3.8800000000D-01 Coefficients=  1.0000000000D+00
 P 1 1.00
     Exponent=  1.0200000000D-01 Coefficients=  1.0000000000D+00
 D 1 1.00
     Exponent=  1.0570000000D+00 Coefficients=  1.0000000000D+00
 D 1 1.00
     Exponent=  2.4700000000D-01 Coefficients=  1.0000000000D+00
 ****
 ======================================================================================================
                                       Pseudopotential Parameters
 ======================================================================================================
  Center     Atomic      Valence      Angular      Power
  Number     Number     Electrons     Momentum     of R      Exponent        Coefficient   SO-Coeffient
 ======================================================================================================
    1         25           15
                                      F and up 
                                                     2        1.0000000        0.00000000    0.00000000
                                      S - F
                                                     2       18.5200000      226.43090200    0.00000000
                                                     2        8.3730000       30.35907200    0.00000000
                                      P - F
                                                     2       18.9200000      142.15470500    0.00000000
                                                     2        8.0170000       21.53650900    0.00000000
                                      D - F
                                                     2       22.7200000      -22.56811900    0.00000000
                                                     2        7.6400000       -1.20581000    0.00000000
    2          1            1
                                      P and up 
                                                     2       21.7769666      -10.85192405    0.00000000
                                                     1       21.2435951        1.00000000    0.00000000
                                                     3       21.2435951       21.24359508    0.00000000
                                      S - P
                                                     2        1.0000000        0.00000000    0.00000000
 ======================================================================================================
 Ernie: Thresh=  0.10000D-02 Tol=  0.10000D-05 Strict=F.
 There are   120 symmetry adapted cartesian basis functions of A1  symmetry.
 There are    26 symmetry adapted cartesian basis functions of A2  symmetry.
 There are    56 symmetry adapted cartesian basis functions of B1  symmetry.
 There are    56 symmetry adapted cartesian basis functions of B2  symmetry.
 There are    94 symmetry adapted basis functions of A1  symmetry.
 There are    23 symmetry adapted basis functions of A2  symmetry.
 There are    49 symmetry adapted basis functions of B1  symmetry.
 There are    49 symmetry adapted basis functions of B2  symmetry.
   215 basis functions,   258 primitive gaussians,   258 cartesian basis functions
    11 alpha electrons        5 beta electrons
       nuclear repulsion energy         7.9376581638 Hartrees.
 IExCor=    0 DFT=F Ex=HF Corr=None ExCW=0 ScaHFX=  1.000000
 ScaDFX=  1.000000  1.000000  1.000000  1.000000 ScalE2=  1.000000  1.000000
 IRadAn=      5 IRanWt=     -1 IRanGd=            0 ICorTp=0 IEmpDi=  4
 NAtoms=    2 NActive=    2 NUniq=    2 SFac= 1.00D+00 NAtFMM=   60 NAOKFM=F Big=F
 Integral buffers will be    131072 words long.
 Raffenetti 2 integral format.
 Two-electron integral symmetry is turned on.
 Leave Link  301 at Sun Feb 25 17:20:11 2018, MaxMem=  8589934592 cpu:               3.6 elap:               0.3
 (Enter /home1/apps/gaussian/16rA.03/g16/l302.exe)
 NPDir=0 NMtPBC=     1 NCelOv=     1 NCel=       1 NClECP=     1 NCelD=      1
         NCelK=      1 NCelE2=     1 NClLst=     1 CellRange=     0.0.
 One-electron integrals computed using PRISM.
 One-electron integral symmetry used in STVInt
   4 Symmetry operations used in ECPInt.
 ECPInt:  NShTT=    2556 NPrTT=    2556 LenC2=    2539 LenP2D=    2538.
 LDataN:  DoStor=T MaxTD1= 8 Len=  415
 NBasis=   215 RedAO= T EigKep=  1.15D-06  NBF=    94    23    49    49
 NBsUse=   212 1.00D-06 EigRej=  1.76D-07 NBFU=    93    23    48    48
 Leave Link  302 at Sun Feb 25 17:20:13 2018, MaxMem=  8589934592 cpu:              16.4 elap:               1.1
 (Enter /home1/apps/gaussian/16rA.03/g16/l303.exe)
 DipDrv:  MaxL=1.
 Leave Link  303 at Sun Feb 25 17:20:13 2018, MaxMem=  8589934592 cpu:               1.0 elap:               0.1
 (Enter /home1/apps/gaussian/16rA.03/g16/l401.exe)
 Initial guess from the checkpoint file:  "MnH.chk"
 B after Tr=     0.000000    0.000000    0.000000
         Rot=    1.000000    0.000000    0.000000    0.000000 Ang=   0.00 deg.
 Guess basis will be translated and rotated to current coordinates.
 JPrj=2 DoOrth=T DoCkMO=T.
 Initial guess orbital symmetries:
       Occupied  (SG) (PI) (PI) (SG) (SG) (DLTA) (DLTA) (SG) (PI)
                 (PI) (SG)
       Virtual   (PI) (PI) (SG) (SG) (PI) (PI) (DLTA) (DLTA) (SG)
                 (PI) (PI) (SG) (SG) (SG) (PI) (PI) (SG) (DLTA)
                 (DLTA) (PI) (PI) (PI) (PI) (SG) (SG) (SG) (SG)
                 (DLTA) (DLTA) (PHI) (PHI) (PI) (PI) (PI) (PI)
                 (SG) (SG) (DLTA) (DLTA) (PI) (PI) (SG) (DLTA)
                 (DLTA) (PI) (PI) (SG) (PI) (PI) (SG) (SG) (PHI)
                 (PHI) (DLTA) (DLTA) (PI) (PI) (SG) (PI) (PI) (SG)
                 (?A) (?A) (PHI) (PHI) (SG) (DLTA) (DLTA) (PI)
                 (PI) (DLTA) (DLTA) (SG) (PI) (PI) (SG) (DLTA)
                 (DLTA) (PI) (PI) (PI) (PI) (SG) (SG) (SG) (PHI)
                 (PHI) (DLTA) (DLTA) (PI) (PI) (SG) (DLTA) (DLTA)
                 (PI) (PI) (PI) (PI) (SG) (SG) (?A) (?A) (PHI)
                 (PHI) (DLTA) (DLTA) (PI) (PI) (SG) (SG) (SG) (DLTA)
                 (DLTA) (PI) (PI) (SG) (PI) (PI) (PHI) (PHI) (DLTA)
                 (DLTA) (PI) (PI) (SG) (SG) (?A) (?A) (PHI) (PHI)
                 (DLTA) (DLTA) (PI) (PI) (SG) (SG) (DLTA) (DLTA)
                 (PI) (PI) (SG) (PI) (PI) (SG) (SG) (DLTA) (DLTA)
                 (PI) (PI) (SG) (PI) (PI) (SG) (SG) (SG) (PI) (PI)
                 (SG) (DLTA) (DLTA) (PI) (PI) (SG) (SG) (PI) (PI)
                 (SG) (SG) (DLTA) (DLTA) (PI) (PI) (SG) (PI) (PI)
                 (SG) (SG) (PI) (PI) (SG) (SG) (PI) (PI) (SG) (SG)
                 (PI) (PI) (SG) (SG) (PI) (PI) (SG) (SG) (SG) (PI)
                 (PI) (SG) (SG) (SG) (SG) (SG)
 The electronic state of the initial guess is 7-SG.
 Leave Link  401 at Sun Feb 25 17:20:14 2018, MaxMem=  8589934592 cpu:               4.9 elap:               0.4
 (Enter /home1/apps/gaussian/16rA.03/g16/l502.exe)
 Keep R1 and R2 ints in memory in symmetry-blocked form, NReq=338797193.
 FoFCou: FMM=F IPFlag=           8 FMFlag=           0 FMFlg1=           0
         NFxFlg=           0 DoJE=F BraDBF=F KetDBF=F FulRan=T
         wScrn=  0.000000 ICntrl=       600 IOpCl=  0 I1Cent=           0 NGrid=           0
         NMat0=    1 NMatS0=  23220 NMatT0=    0 NMatD0=    1 NMtDS0=    0 NMtDT0=    0
 Petite list used in FoFCou.
 Restricted open shell SCF:
 Using DIIS extrapolation, IDIIS=  1040.
 NGot=  8589934592 LenX=  8451450423 LenY=  8451383418
 Requested convergence on RMS density matrix=1.00D-08 within 300 cycles.
 Requested convergence on MAX density matrix=1.00D-06.
 Requested convergence on             energy=1.00D-06.
 No special actions if energy rises.

 Cycle   1  Pass 1  IDiag  1:
 E= -103.073566609161    
 DIIS: error= 6.23D-01 at cycle   1 NSaved=   1.
 NSaved= 1 IEnMin= 1 EnMin= -103.073566609161     IErMin= 1 ErrMin= 6.23D-01
 ErrMax= 6.23D-01  0.00D+00 EMaxC= 1.00D-01 BMatC= 3.22D+01 BMatP= 3.22D+01
 IDIUse=3 WtCom= 0.00D+00 WtEn= 1.00D+00
 Coeff-Com:  0.100D+01
 Coeff-En:   0.100D+01
 Coeff:      0.100D+01
 Gap=     0.050 Goal=   None    Shift=    0.000
 GapD=    0.050 DampG=0.500 DampE=0.125 DampFc=0.1250 IDamp=-1.
 Damping current iteration by 1.25D-01
 RMSDP=2.10D-02 MaxDP=1.52D+00              OVMax= 1.12D-01

 Cycle   2  Pass 1  IDiag  1:
 E= -103.174996294269     Delta-E=       -0.101429685108 Rises=F Damp=T
 DIIS: error= 5.39D-01 at cycle   2 NSaved=   2.
 NSaved= 2 IEnMin= 2 EnMin= -103.174996294269     IErMin= 2 ErrMin= 5.39D-01
 ErrMax= 5.39D-01  0.00D+00 EMaxC= 1.00D-01 BMatC= 2.44D+01 BMatP= 3.22D+01
 IDIUse=3 WtCom= 0.00D+00 WtEn= 1.00D+00
 Coeff-Com: -0.663D+01 0.763D+01
 Coeff-En:   0.000D+00 0.100D+01
 Coeff:      0.000D+00 0.100D+01
 Gap=     0.057 Goal=   None    Shift=    0.000
 RMSDP=1.85D-02 MaxDP=1.34D+00 DE=-1.01D-01 OVMax= 1.82D-01

 Cycle   3  Pass 1  IDiag  1:
 E= -103.902185910470     Delta-E=       -0.727189616201 Rises=F Damp=F
 DIIS: error= 2.33D-02 at cycle   3 NSaved=   3.
 NSaved= 3 IEnMin= 3 EnMin= -103.902185910470     IErMin= 3 ErrMin= 2.33D-02
 ErrMax= 2.33D-02  0.00D+00 EMaxC= 1.00D-01 BMatC= 3.67D-02 BMatP= 2.44D+01
 IDIUse=3 WtCom= 7.67D-01 WtEn= 2.33D-01
 Coeff-Com: -0.101D+01 0.115D+01 0.866D+00
 Coeff-En:   0.000D+00 0.000D+00 0.100D+01
 Coeff:     -0.779D+00 0.882D+00 0.897D+00
 Gap=     0.058 Goal=   None    Shift=    0.000
 RMSDP=1.72D-02 MaxDP=1.26D+00 DE=-7.27D-01 OVMax= 2.26D-01

 Cycle   4  Pass 1  IDiag  1:
 E= -103.909199500655     Delta-E=       -0.007013590185 Rises=F Damp=F
 DIIS: error= 1.52D-02 at cycle   4 NSaved=   4.
 NSaved= 4 IEnMin= 4 EnMin= -103.909199500655     IErMin= 4 ErrMin= 1.52D-02
 ErrMax= 1.52D-02  0.00D+00 EMaxC= 1.00D-01 BMatC= 2.12D-02 BMatP= 3.67D-02
 IDIUse=3 WtCom= 8.48D-01 WtEn= 1.52D-01
 Coeff-Com: -0.675D+00 0.764D+00 0.436D+00 0.475D+00
 Coeff-En:   0.000D+00 0.000D+00 0.455D+00 0.545D+00
 Coeff:     -0.573D+00 0.648D+00 0.439D+00 0.486D+00
 Gap=     0.056 Goal=   None    Shift=    0.000
 RMSDP=1.93D-02 MaxDP=1.50D+00 DE=-7.01D-03 OVMax= 2.23D-01

 Cycle   5  Pass 1  IDiag  1:
 E= -103.922123253336     Delta-E=       -0.012923752681 Rises=F Damp=F
 DIIS: error= 9.84D-03 at cycle   5 NSaved=   5.
 NSaved= 5 IEnMin= 5 EnMin= -103.922123253336     IErMin= 5 ErrMin= 9.84D-03
 ErrMax= 9.84D-03  0.00D+00 EMaxC= 1.00D-01 BMatC= 9.48D-03 BMatP= 2.12D-02
 IDIUse=3 WtCom= 9.02D-01 WtEn= 9.84D-02
 Coeff-Com: -0.601D+00 0.683D+00 0.191D+00 0.329D+00 0.398D+00
 Coeff-En:   0.000D+00 0.000D+00 0.000D+00 0.421D+00 0.579D+00
 Coeff:     -0.542D+00 0.615D+00 0.172D+00 0.338D+00 0.416D+00
 Gap=     0.058 Goal=   None    Shift=    0.000
 RMSDP=1.73D-02 MaxDP=1.41D+00 DE=-1.29D-02 OVMax= 1.12D-01

 Cycle   6  Pass 1  IDiag  1:
 E= -103.934337249831     Delta-E=       -0.012213996495 Rises=F Damp=F
 DIIS: error= 6.79D-03 at cycle   6 NSaved=   6.
 NSaved= 6 IEnMin= 6 EnMin= -103.934337249831     IErMin= 6 ErrMin= 6.79D-03
 ErrMax= 6.79D-03  0.00D+00 EMaxC= 1.00D-01 BMatC= 3.42D-03 BMatP= 9.48D-03
 IDIUse=3 WtCom= 9.32D-01 WtEn= 6.79D-02
 EnCoef did     6 forward-backward iterations
 Coeff-Com: -0.503D+00 0.573D+00-0.455D-02 0.716D-01 0.256D+00 0.606D+00
 Coeff-En:   0.000D+00 0.000D+00 0.000D+00 0.283D+00 0.434D+00 0.283D+00
 Coeff:     -0.469D+00 0.535D+00-0.424D-02 0.859D-01 0.268D+00 0.584D+00
 Gap=     0.054 Goal=   None    Shift=    0.000
 RMSDP=6.41D-03 MaxDP=6.73D-01 DE=-1.22D-02 OVMax= 3.77D-02

 Cycle   7  Pass 1  IDiag  1:
 E= -103.938199770004     Delta-E=       -0.003862520173 Rises=F Damp=F
 DIIS: error= 5.48D-03 at cycle   7 NSaved=   7.
 NSaved= 7 IEnMin= 7 EnMin= -103.938199770004     IErMin= 7 ErrMin= 5.48D-03
 ErrMax= 5.48D-03  0.00D+00 EMaxC= 1.00D-01 BMatC= 2.21D-03 BMatP= 3.42D-03
 IDIUse=3 WtCom= 9.45D-01 WtEn= 5.48D-02
 EnCoef did     2 forward-backward iterations
 Coeff-Com: -0.411D+00 0.470D+00-0.746D-01-0.586D-01 0.814D-01 0.483D+00
 Coeff-Com:  0.510D+00
 Coeff-En:   0.000D+00 0.000D+00 0.000D+00 0.000D+00 0.806D-02 0.429D-01
 Coeff-En:   0.949D+00
 Coeff:     -0.388D+00 0.444D+00-0.705D-01-0.554D-01 0.773D-01 0.459D+00
 Coeff:      0.534D+00
 Gap=     0.051 Goal=   None    Shift=    0.000
 RMSDP=2.35D-03 MaxDP=1.88D-01 DE=-3.86D-03 OVMax= 2.62D-02

 Cycle   8  Pass 1  IDiag  1:
 E= -103.941133756151     Delta-E=       -0.002933986146 Rises=F Damp=F
 DIIS: error= 5.38D-03 at cycle   8 NSaved=   8.
 NSaved= 8 IEnMin= 8 EnMin= -103.941133756151     IErMin= 8 ErrMin= 5.38D-03
 ErrMax= 5.38D-03  0.00D+00 EMaxC= 1.00D-01 BMatC= 1.55D-03 BMatP= 2.21D-03
 IDIUse=3 WtCom= 9.46D-01 WtEn= 5.38D-02
 Coeff-Com: -0.354D+00 0.405D+00-0.688D-01-0.812D-01-0.979D-02 0.249D+00
 Coeff-Com:  0.453D+00 0.408D+00
 Coeff-En:   0.000D+00 0.000D+00 0.000D+00 0.000D+00 0.000D+00 0.000D+00
 Coeff-En:   0.000D+00 0.100D+01
 Coeff:     -0.335D+00 0.383D+00-0.651D-01-0.768D-01-0.926D-02 0.235D+00
 Coeff:      0.429D+00 0.439D+00
 Gap=     0.050 Goal=   None    Shift=    0.000
 RMSDP=3.33D-03 MaxDP=3.10D-01 DE=-2.93D-03 OVMax= 2.14D-02

 Cycle   9  Pass 1  IDiag  1:
 E= -103.943206235064     Delta-E=       -0.002072478913 Rises=F Damp=F
 DIIS: error= 4.60D-03 at cycle   9 NSaved=   9.
 NSaved= 9 IEnMin= 9 EnMin= -103.943206235064     IErMin= 9 ErrMin= 4.60D-03
 ErrMax= 4.60D-03  0.00D+00 EMaxC= 1.00D-01 BMatC= 1.12D-03 BMatP= 1.55D-03
 IDIUse=3 WtCom= 9.54D-01 WtEn= 4.60D-02
 Coeff-Com: -0.263D+00 0.301D+00-0.390D-01-0.765D-01-0.858D-01-0.548D-01
 Coeff-Com:  0.949D-01 0.368D+00 0.756D+00
 Coeff-En:   0.000D+00 0.000D+00 0.000D+00 0.000D+00 0.000D+00 0.000D+00
 Coeff-En:   0.000D+00 0.000D+00 0.100D+01
 Coeff:     -0.251D+00 0.287D+00-0.373D-01-0.730D-01-0.819D-01-0.523D-01
 Coeff:      0.906D-01 0.351D+00 0.767D+00
 Gap=     0.049 Goal=   None    Shift=    0.000
 RMSDP=1.40D-03 MaxDP=1.33D-01 DE=-2.07D-03 OVMax= 1.56D-02

 Cycle  10  Pass 1  IDiag  1:
 E= -103.946114134513     Delta-E=       -0.002907899449 Rises=F Damp=F
 DIIS: error= 3.69D-03 at cycle  10 NSaved=  10.
 NSaved=10 IEnMin=10 EnMin= -103.946114134513     IErMin=10 ErrMin= 3.69D-03
 ErrMax= 3.69D-03  0.00D+00 EMaxC= 1.00D-01 BMatC= 6.59D-04 BMatP= 1.12D-03
 IDIUse=3 WtCom= 9.63D-01 WtEn= 3.69D-02
 Coeff-Com: -0.230D+00 0.263D+00-0.308D-01-0.678D-01-0.806D-01-0.651D-01
 Coeff-Com:  0.439D-01 0.205D+00 0.578D+00 0.385D+00
 Coeff-En:   0.000D+00 0.000D+00 0.000D+00 0.000D+00 0.000D+00 0.000D+00
 Coeff-En:   0.000D+00 0.000D+00 0.000D+00 0.100D+01
 Coeff:     -0.221D+00 0.253D+00-0.296D-01-0.653D-01-0.777D-01-0.627D-01
 Coeff:      0.423D-01 0.197D+00 0.557D+00 0.407D+00
 Gap=     0.049 Goal=   None    Shift=    0.000
 RMSDP=4.67D-04 MaxDP=2.80D-02 DE=-2.91D-03 OVMax= 1.12D-02

 Cycle  11  Pass 1  IDiag  1:
 E= -103.947211143366     Delta-E=       -0.001097008852 Rises=F Damp=F
 DIIS: error= 3.27D-03 at cycle  11 NSaved=  11.
 NSaved=11 IEnMin=11 EnMin= -103.947211143366     IErMin=11 ErrMin= 3.27D-03
 ErrMax= 3.27D-03  0.00D+00 EMaxC= 1.00D-01 BMatC= 5.24D-04 BMatP= 6.59D-04
 IDIUse=3 WtCom= 9.67D-01 WtEn= 3.27D-02
 Coeff-Com: -0.187D+00 0.213D+00-0.257D-01-0.544D-01-0.431D-01 0.272D-01
 Coeff-Com:  0.961D-01-0.949D-02-0.969D-01 0.255D+00 0.825D+00
 Coeff-En:   0.000D+00 0.000D+00 0.000D+00 0.000D+00 0.000D+00 0.000D+00
 Coeff-En:   0.000D+00 0.000D+00 0.000D+00 0.000D+00 0.100D+01
 Coeff:     -0.180D+00 0.206D+00-0.248D-01-0.526D-01-0.417D-01 0.263D-01
 Coeff:      0.930D-01-0.918D-02-0.938D-01 0.246D+00 0.831D+00
 Gap=     0.049 Goal=   None    Shift=    0.000
 RMSDP=3.63D-04 MaxDP=2.62D-02 DE=-1.10D-03 OVMax= 1.20D-02

 Cycle  12  Pass 1  IDiag  1:
 E= -103.948687307759     Delta-E=       -0.001476164393 Rises=F Damp=F
 DIIS: error= 2.78D-03 at cycle  12 NSaved=  12.
 NSaved=12 IEnMin=12 EnMin= -103.948687307759     IErMin=12 ErrMin= 2.78D-03
 ErrMax= 2.78D-03  0.00D+00 EMaxC= 1.00D-01 BMatC= 3.66D-04 BMatP= 5.24D-04
 IDIUse=3 WtCom= 9.72D-01 WtEn= 2.78D-02
 Coeff-Com: -0.858D-01 0.982D-01-0.169D-01-0.364D-01 0.996D-02 0.196D+00
 Coeff-Com:  0.257D+00-0.164D+00-0.111D+01-0.858D+00 0.114D+01 0.157D+01
 Coeff-En:   0.000D+00 0.000D+00 0.000D+00 0.000D+00 0.000D+00 0.000D+00
 Coeff-En:   0.000D+00 0.000D+00 0.000D+00 0.000D+00 0.000D+00 0.100D+01
 Coeff:     -0.834D-01 0.955D-01-0.164D-01-0.354D-01 0.968D-02 0.190D+00
 Coeff:      0.250D+00-0.159D+00-0.108D+01-0.834D+00 0.111D+01 0.156D+01
 Gap=     0.049 Goal=   None    Shift=    0.000
 RMSDP=6.11D-04 MaxDP=4.21D-02 DE=-1.48D-03 OVMax= 1.90D-02

 Cycle  13  Pass 1  IDiag  1:
 E= -103.951294435304     Delta-E=       -0.002607127546 Rises=F Damp=F
 DIIS: error= 1.44D-03 at cycle  13 NSaved=  13.
 NSaved=13 IEnMin=13 EnMin= -103.951294435304     IErMin=13 ErrMin= 1.44D-03
 ErrMax= 1.44D-03  0.00D+00 EMaxC= 1.00D-01 BMatC= 9.54D-05 BMatP= 3.66D-04
 IDIUse=3 WtCom= 9.86D-01 WtEn= 1.44D-02
 Coeff-Com: -0.310D-01 0.355D-01-0.485D-02-0.148D-01 0.128D-01 0.131D+00
 Coeff-Com:  0.159D+00-0.682D-01-0.616D+00-0.832D+00 0.242D+00 0.106D+01
 Coeff-Com:  0.928D+00
 Coeff-En:   0.000D+00 0.000D+00 0.000D+00 0.000D+00 0.000D+00 0.000D+00
 Coeff-En:   0.000D+00 0.000D+00 0.000D+00 0.000D+00 0.000D+00 0.000D+00
 Coeff-En:   0.100D+01
 Coeff:     -0.305D-01 0.350D-01-0.478D-02-0.146D-01 0.126D-01 0.129D+00
 Coeff:      0.157D+00-0.672D-01-0.607D+00-0.820D+00 0.239D+00 0.104D+01
 Coeff:      0.929D+00
 Gap=     0.048 Goal=   None    Shift=    0.000
 RMSDP=4.37D-04 MaxDP=3.88D-02 DE=-2.61D-03 OVMax= 1.42D-02

 Cycle  14  Pass 1  IDiag  1:
 E= -103.952217405971     Delta-E=       -0.000922970667 Rises=F Damp=F
 DIIS: error= 6.48D-04 at cycle  14 NSaved=  14.
 NSaved=14 IEnMin=14 EnMin= -103.952217405971     IErMin=14 ErrMin= 6.48D-04
 ErrMax= 6.48D-04  0.00D+00 EMaxC= 1.00D-01 BMatC= 2.29D-05 BMatP= 9.54D-05
 IDIUse=3 WtCom= 9.94D-01 WtEn= 6.48D-03
 Coeff-Com: -0.385D-01 0.440D-01-0.335D-02-0.153D-02 0.128D-01 0.530D-01
 Coeff-Com:  0.498D-01-0.165D-01-0.803D-01-0.178D+00-0.125D+00 0.591D-01
 Coeff-Com:  0.528D+00 0.696D+00
 Coeff-En:   0.000D+00 0.000D+00 0.000D+00 0.000D+00 0.000D+00 0.000D+00
 Coeff-En:   0.000D+00 0.000D+00 0.000D+00 0.000D+00 0.000D+00 0.000D+00
 Coeff-En:   0.000D+00 0.100D+01
 Coeff:     -0.382D-01 0.438D-01-0.333D-02-0.152D-02 0.127D-01 0.527D-01
 Coeff:      0.494D-01-0.164D-01-0.798D-01-0.177D+00-0.124D+00 0.587D-01
 Coeff:      0.525D+00 0.698D+00
 Gap=     0.048 Goal=   None    Shift=    0.000
 RMSDP=2.26D-04 MaxDP=2.15D-02 DE=-9.23D-04 OVMax= 2.48D-03

 Cycle  15  Pass 1  IDiag  1:
 E= -103.952325971608     Delta-E=       -0.000108565637 Rises=F Damp=F
 DIIS: error= 7.09D-04 at cycle  15 NSaved=  15.
 NSaved=15 IEnMin=15 EnMin= -103.952325971608     IErMin=14 ErrMin= 6.48D-04
 ErrMax= 7.09D-04  0.00D+00 EMaxC= 1.00D-01 BMatC= 2.32D-05 BMatP= 2.29D-05
 IDIUse=3 WtCom= 9.94D-01 WtEn= 6.48D-03
 Coeff-Com: -0.315D-01 0.360D-01 0.448D-03-0.394D-02-0.128D-01-0.330D-01
 Coeff-Com: -0.347D-01 0.130D-02 0.218D+00 0.374D+00-0.132D+00-0.584D+00
 Coeff-Com: -0.185D+00 0.432D+00 0.956D+00
 Coeff-En:   0.000D+00 0.000D+00 0.000D+00 0.000D+00 0.000D+00 0.000D+00
 Coeff-En:   0.000D+00 0.000D+00 0.000D+00 0.000D+00 0.000D+00 0.000D+00
 Coeff-En:   0.000D+00 0.000D+00 0.100D+01
 Coeff:     -0.313D-01 0.357D-01 0.445D-03-0.392D-02-0.127D-01-0.328D-01
 Coeff:     -0.344D-01 0.129D-02 0.216D+00 0.372D+00-0.131D+00-0.581D+00
 Coeff:     -0.184D+00 0.429D+00 0.956D+00
 Gap=     0.048 Goal=   None    Shift=    0.000
 RMSDP=1.75D-04 MaxDP=1.46D-02 DE=-1.09D-04 OVMax= 4.61D-03

 Cycle  16  Pass 1  IDiag  1:
 E= -103.952459555797     Delta-E=       -0.000133584189 Rises=F Damp=F
 DIIS: error= 3.86D-04 at cycle  16 NSaved=  16.
 NSaved=16 IEnMin=16 EnMin= -103.952459555797     IErMin=16 ErrMin= 3.86D-04
 ErrMax= 3.86D-04  0.00D+00 EMaxC= 1.00D-01 BMatC= 8.59D-06 BMatP= 2.29D-05
 IDIUse=3 WtCom= 9.96D-01 WtEn= 3.86D-03
 Coeff-Com: -0.772D-02 0.881D-02 0.518D-03-0.127D-02-0.517D-02-0.188D-01
 Coeff-Com: -0.278D-01-0.317D-01 0.511D-01 0.213D+00 0.905D-02-0.300D+00
 Coeff-Com: -0.207D+00 0.855D-01 0.521D+00 0.710D+00
 Coeff-En:   0.000D+00 0.000D+00 0.000D+00 0.000D+00 0.000D+00 0.000D+00
 Coeff-En:   0.000D+00 0.000D+00 0.000D+00 0.000D+00 0.000D+00 0.000D+00
 Coeff-En:   0.000D+00 0.000D+00 0.000D+00 0.100D+01
 Coeff:     -0.769D-02 0.877D-02 0.516D-03-0.126D-02-0.515D-02-0.187D-01
 Coeff:     -0.277D-01-0.315D-01 0.509D-01 0.213D+00 0.902D-02-0.299D+00
 Coeff:     -0.207D+00 0.852D-01 0.519D+00 0.712D+00
 Gap=     0.047 Goal=   None    Shift=    0.000
 RMSDP=1.93D-04 MaxDP=1.08D-02 DE=-1.34D-04 OVMax= 4.62D-03

 Cycle  17  Pass 1  IDiag  1:
 E= -103.952537924860     Delta-E=       -0.000078369062 Rises=F Damp=F
 DIIS: error= 1.45D-04 at cycle  17 NSaved=  17.
 NSaved=17 IEnMin=17 EnMin= -103.952537924860     IErMin=17 ErrMin= 1.45D-04
 ErrMax= 1.45D-04  0.00D+00 EMaxC= 1.00D-01 BMatC= 1.45D-06 BMatP= 8.59D-06
 IDIUse=3 WtCom= 9.99D-01 WtEn= 1.45D-03
 Coeff-Com: -0.528D-02 0.603D-02-0.104D-02 0.781D-04 0.237D-02 0.210D-02
 Coeff-Com: -0.735D-02-0.320D-01-0.420D-01 0.617D-01 0.755D-01-0.479D-01
 Coeff-Com: -0.151D+00-0.873D-01 0.146D+00 0.522D+00 0.558D+00
 Coeff-En:   0.000D+00 0.000D+00 0.000D+00 0.000D+00 0.000D+00 0.000D+00
 Coeff-En:   0.000D+00 0.000D+00 0.000D+00 0.000D+00 0.000D+00 0.000D+00
 Coeff-En:   0.000D+00 0.000D+00 0.000D+00 0.000D+00 0.100D+01
 Coeff:     -0.527D-02 0.602D-02-0.104D-02 0.780D-04 0.237D-02 0.210D-02
 Coeff:     -0.734D-02-0.320D-01-0.419D-01 0.616D-01 0.754D-01-0.479D-01
 Coeff:     -0.151D+00-0.872D-01 0.146D+00 0.522D+00 0.558D+00
 Gap=     0.047 Goal=   None    Shift=    0.000
 RMSDP=3.75D-05 MaxDP=2.38D-03 DE=-7.84D-05 OVMax= 7.70D-04

 Cycle  18  Pass 1  IDiag  1:
 E= -103.952546611376     Delta-E=       -0.000008686516 Rises=F Damp=F
 DIIS: error= 1.13D-04 at cycle  18 NSaved=  18.
 NSaved=18 IEnMin=18 EnMin= -103.952546611376     IErMin=18 ErrMin= 1.13D-04
 ErrMax= 1.13D-04  0.00D+00 EMaxC= 1.00D-01 BMatC= 6.39D-07 BMatP= 1.45D-06
 IDIUse=3 WtCom= 9.99D-01 WtEn= 1.13D-03
 Coeff-Com: -0.627D-02 0.717D-02-0.112D-02 0.253D-03 0.240D-02 0.462D-02
 Coeff-Com: -0.747D-03-0.151D-01-0.312D-01 0.121D-01 0.636D-01 0.391D-01
 Coeff-Com: -0.998D-01-0.133D+00-0.411D-01 0.116D+00 0.196D+00 0.887D+00
 Coeff-En:   0.000D+00 0.000D+00 0.000D+00 0.000D+00 0.000D+00 0.000D+00
 Coeff-En:   0.000D+00 0.000D+00 0.000D+00 0.000D+00 0.000D+00 0.000D+00
 Coeff-En:   0.000D+00 0.000D+00 0.000D+00 0.000D+00 0.000D+00 0.100D+01
 Coeff:     -0.626D-02 0.716D-02-0.111D-02 0.253D-03 0.240D-02 0.462D-02
 Coeff:     -0.746D-03-0.151D-01-0.311D-01 0.120D-01 0.635D-01 0.391D-01
 Coeff:     -0.997D-01-0.133D+00-0.410D-01 0.116D+00 0.196D+00 0.888D+00
 Gap=     0.047 Goal=   None    Shift=    0.000
 RMSDP=5.92D-05 MaxDP=4.93D-03 DE=-8.69D-06 OVMax= 8.44D-04

 Cycle  19  Pass 1  IDiag  1:
 E= -103.952550549981     Delta-E=       -0.000003938604 Rises=F Damp=F
 DIIS: error= 7.81D-05 at cycle  19 NSaved=  19.
 NSaved=19 IEnMin=19 EnMin= -103.952550549981     IErMin=19 ErrMin= 7.81D-05
 ErrMax= 7.81D-05  0.00D+00 EMaxC= 1.00D-01 BMatC= 3.63D-07 BMatP= 6.39D-07
 IDIUse=1 WtCom= 1.00D+00 WtEn= 0.00D+00
 Coeff-Com: -0.130D-02 0.149D-02-0.231D-04 0.221D-03 0.288D-03 0.275D-03
 Coeff-Com: -0.786D-03-0.179D-02-0.492D-02-0.994D-02-0.460D-03 0.285D-01
 Coeff-Com:  0.128D-01-0.200D-01-0.615D-01-0.132D+00-0.175D+00 0.445D+00
 Coeff-Com:  0.920D+00
 Coeff:     -0.130D-02 0.149D-02-0.231D-04 0.221D-03 0.288D-03 0.275D-03
 Coeff:     -0.786D-03-0.179D-02-0.492D-02-0.994D-02-0.460D-03 0.285D-01
 Coeff:      0.128D-01-0.200D-01-0.615D-01-0.132D+00-0.175D+00 0.445D+00
 Coeff:      0.920D+00
 Gap=     0.047 Goal=   None    Shift=    0.000
 RMSDP=3.29D-05 MaxDP=2.20D-03 DE=-3.94D-06 OVMax= 1.11D-03

 Cycle  20  Pass 1  IDiag  1:
 E= -103.952553258345     Delta-E=       -0.000002708364 Rises=F Damp=F
 DIIS: error= 3.01D-05 at cycle  20 NSaved=  20.
 NSaved=20 IEnMin=20 EnMin= -103.952553258345     IErMin=20 ErrMin= 3.01D-05
 ErrMax= 3.01D-05  0.00D+00 EMaxC= 1.00D-01 BMatC= 6.79D-08 BMatP= 3.63D-07
 IDIUse=1 WtCom= 1.00D+00 WtEn= 0.00D+00
 Coeff-Com:  0.186D-03-0.213D-03 0.235D-03 0.207D-03-0.254D-03-0.123D-02
 Coeff-Com: -0.135D-02 0.113D-02 0.307D-02-0.960D-02-0.163D-01 0.137D-01
 Coeff-Com:  0.347D-01 0.178D-01-0.288D-01-0.145D+00-0.223D+00 0.143D+00
 Coeff-Com:  0.864D+00 0.348D+00
 Coeff:      0.186D-03-0.213D-03 0.235D-03 0.207D-03-0.254D-03-0.123D-02
 Coeff:     -0.135D-02 0.113D-02 0.307D-02-0.960D-02-0.163D-01 0.137D-01
 Coeff:      0.347D-01 0.178D-01-0.288D-01-0.145D+00-0.223D+00 0.143D+00
 Coeff:      0.864D+00 0.348D+00
 Gap=     0.047 Goal=   None    Shift=    0.000
 RMSDP=2.10D-05 MaxDP=2.02D-03 DE=-2.71D-06 OVMax= 4.19D-04

 Cycle  21  Pass 1  IDiag  1:
 E= -103.952553423787     Delta-E=       -0.000000165442 Rises=F Damp=F
 DIIS: error= 1.37D-05 at cycle  21 NSaved=  20.
 NSaved=20 IEnMin=20 EnMin= -103.952553423787     IErMin=20 ErrMin= 1.37D-05
 ErrMax= 1.37D-05  0.00D+00 EMaxC= 1.00D-01 BMatC= 1.94D-08 BMatP= 6.79D-08
 IDIUse=1 WtCom= 1.00D+00 WtEn= 0.00D+00
 Coeff-Com: -0.565D-07 0.105D-03 0.179D-03-0.190D-03-0.136D-02-0.146D-02
 Coeff-Com:  0.153D-02 0.558D-02-0.229D-02-0.114D-01 0.249D-02 0.178D-01
 Coeff-Com:  0.167D-01 0.152D-01-0.823D-01-0.148D+00-0.518D-01 0.395D+00
 Coeff-Com:  0.272D+00 0.573D+00
 Coeff:     -0.565D-07 0.105D-03 0.179D-03-0.190D-03-0.136D-02-0.146D-02
 Coeff:      0.153D-02 0.558D-02-0.229D-02-0.114D-01 0.249D-02 0.178D-01
 Coeff:      0.167D-01 0.152D-01-0.823D-01-0.148D+00-0.518D-01 0.395D+00
 Coeff:      0.272D+00 0.573D+00
 Gap=     0.047 Goal=   None    Shift=    0.000
 RMSDP=5.60D-06 MaxDP=4.93D-04 DE=-1.65D-07 OVMax= 1.12D-04

 Cycle  22  Pass 1  IDiag  1:
 E= -103.952553436856     Delta-E=       -0.000000013069 Rises=F Damp=F
 DIIS: error= 5.89D-06 at cycle  22 NSaved=  20.
 NSaved=20 IEnMin=20 EnMin= -103.952553436856     IErMin=20 ErrMin= 5.89D-06
 ErrMax= 5.89D-06  0.00D+00 EMaxC= 1.00D-01 BMatC= 3.44D-09 BMatP= 1.94D-08
 IDIUse=1 WtCom= 1.00D+00 WtEn= 0.00D+00
 Coeff-Com:  0.316D-04 0.117D-03-0.112D-03-0.101D-02-0.116D-02 0.752D-03
 Coeff-Com:  0.407D-02 0.136D-02-0.508D-02-0.183D-02 0.449D-02 0.854D-02
 Coeff-Com:  0.259D-01-0.273D-01-0.663D-01-0.840D-01 0.893D-01 0.101D+00
 Coeff-Com:  0.361D+00 0.591D+00
 Coeff:      0.316D-04 0.117D-03-0.112D-03-0.101D-02-0.116D-02 0.752D-03
 Coeff:      0.407D-02 0.136D-02-0.508D-02-0.183D-02 0.449D-02 0.854D-02
 Coeff:      0.259D-01-0.273D-01-0.663D-01-0.840D-01 0.893D-01 0.101D+00
 Coeff:      0.361D+00 0.591D+00
 Gap=     0.047 Goal=   None    Shift=    0.000
 RMSDP=4.24D-06 MaxDP=3.28D-04 DE=-1.31D-08 OVMax= 4.81D-05

 Cycle  23  Pass 1  IDiag  1:
 E= -103.952553440480     Delta-E=       -0.000000003624 Rises=F Damp=F
 DIIS: error= 2.43D-06 at cycle  23 NSaved=  20.
 NSaved=20 IEnMin=20 EnMin= -103.952553440480     IErMin=20 ErrMin= 2.43D-06
 ErrMax= 2.43D-06  0.00D+00 EMaxC= 1.00D-01 BMatC= 5.22D-10 BMatP= 3.44D-09
 IDIUse=1 WtCom= 1.00D+00 WtEn= 0.00D+00
 Coeff-Com:  0.777D-05-0.610D-04-0.404D-03-0.522D-03-0.108D-03 0.132D-02
 Coeff-Com:  0.247D-02-0.731D-03-0.347D-02-0.209D-02 0.170D-02 0.134D-01
 Coeff-Com:  0.839D-02 0.529D-03-0.225D-01-0.369D-01-0.333D-01-0.527D-01
 Coeff-Com:  0.305D+00 0.820D+00
 Coeff:      0.777D-05-0.610D-04-0.404D-03-0.522D-03-0.108D-03 0.132D-02
 Coeff:      0.247D-02-0.731D-03-0.347D-02-0.209D-02 0.170D-02 0.134D-01
 Coeff:      0.839D-02 0.529D-03-0.225D-01-0.369D-01-0.333D-01-0.527D-01
 Coeff:      0.305D+00 0.820D+00
 Gap=     0.047 Goal=   None    Shift=    0.000
 RMSDP=1.16D-06 MaxDP=6.88D-05 DE=-3.62D-09 OVMax= 3.02D-05

 Cycle  24  Pass 1  IDiag  1:
 E= -103.952553442589     Delta-E=       -0.000000002109 Rises=F Damp=F
 DIIS: error= 9.06D-07 at cycle  24 NSaved=  20.
 NSaved=20 IEnMin=20 EnMin= -103.952553442589     IErMin=20 ErrMin= 9.06D-07
 ErrMax= 9.06D-07  0.00D+00 EMaxC= 1.00D-01 BMatC= 8.51D-11 BMatP= 5.22D-10
 IDIUse=1 WtCom= 1.00D+00 WtEn= 0.00D+00
 Coeff-Com: -0.926D-05-0.877D-04-0.161D-03-0.133D-03 0.269D-03 0.112D-02
 Coeff-Com:  0.484D-03-0.175D-02-0.185D-02-0.218D-03 0.338D-02 0.531D-02
 Coeff-Com:  0.591D-02 0.414D-02-0.248D-01-0.319D-01-0.906D-01 0.565D-01
 Coeff-Com:  0.420D+00 0.655D+00
 Coeff:     -0.926D-05-0.877D-04-0.161D-03-0.133D-03 0.269D-03 0.112D-02
 Coeff:      0.484D-03-0.175D-02-0.185D-02-0.218D-03 0.338D-02 0.531D-02
 Coeff:      0.591D-02 0.414D-02-0.248D-01-0.319D-01-0.906D-01 0.565D-01
 Coeff:      0.420D+00 0.655D+00
 Gap=     0.047 Goal=   None    Shift=    0.000
 RMSDP=1.16D-06 MaxDP=7.79D-05 DE=-2.11D-09 OVMax= 1.06D-05

 Cycle  25  Pass 1  IDiag  1:
 E= -103.952553442686     Delta-E=       -0.000000000097 Rises=F Damp=F
 DIIS: error= 6.40D-07 at cycle  25 NSaved=  20.
 NSaved=20 IEnMin=20 EnMin= -103.952553442686     IErMin=20 ErrMin= 6.40D-07
 ErrMax= 6.40D-07  0.00D+00 EMaxC= 1.00D-01 BMatC= 2.00D-11 BMatP= 8.51D-11
 IDIUse=1 WtCom= 1.00D+00 WtEn= 0.00D+00
 Coeff-Com: -0.106D-04-0.449D-04-0.627D-04 0.372D-04 0.402D-03 0.427D-03
 Coeff-Com: -0.767D-03-0.831D-03-0.239D-03 0.150D-03 0.154D-02 0.258D-02
 Coeff-Com:  0.648D-02-0.636D-02-0.152D-01-0.555D-01-0.130D-01 0.158D+00
 Coeff-Com:  0.445D+00 0.478D+00
 Coeff:     -0.106D-04-0.449D-04-0.627D-04 0.372D-04 0.402D-03 0.427D-03
 Coeff:     -0.767D-03-0.831D-03-0.239D-03 0.150D-03 0.154D-02 0.258D-02
 Coeff:      0.648D-02-0.636D-02-0.152D-01-0.555D-01-0.130D-01 0.158D+00
 Coeff:      0.445D+00 0.478D+00
 Gap=     0.047 Goal=   None    Shift=    0.000
 RMSDP=7.12D-07 MaxDP=6.10D-05 DE=-9.70D-11 OVMax= 1.13D-05

 Cycle  26  Pass 1  IDiag  1:
 E= -103.952553442703     Delta-E=       -0.000000000017 Rises=F Damp=F
 DIIS: error= 4.96D-07 at cycle  26 NSaved=  20.
 NSaved=20 IEnMin=20 EnMin= -103.952553442703     IErMin=20 ErrMin= 4.96D-07
 ErrMax= 4.96D-07  0.00D+00 EMaxC= 1.00D-01 BMatC= 9.93D-12 BMatP= 2.00D-11
 IDIUse=1 WtCom= 1.00D+00 WtEn= 0.00D+00
 Coeff-Com: -0.113D-04-0.240D-04-0.927D-05 0.101D-03 0.214D-03-0.297D-03
 Coeff-Com: -0.179D-03-0.617D-05-0.604D-03-0.528D-04 0.298D-03 0.352D-02
 Coeff-Com:  0.281D-02-0.372D-02-0.228D-01-0.256D-01 0.218D-01 0.183D+00
 Coeff-Com:  0.418D+00 0.424D+00
 Coeff:     -0.113D-04-0.240D-04-0.927D-05 0.101D-03 0.214D-03-0.297D-03
 Coeff:     -0.179D-03-0.617D-05-0.604D-03-0.528D-04 0.298D-03 0.352D-02
 Coeff:      0.281D-02-0.372D-02-0.228D-01-0.256D-01 0.218D-01 0.183D+00
 Coeff:      0.418D+00 0.424D+00
 Gap=     0.047 Goal=   None    Shift=    0.000
 RMSDP=3.69D-07 MaxDP=2.94D-05 DE=-1.66D-11 OVMax= 5.41D-06

 Cycle  27  Pass 1  IDiag  1:
 E= -103.952553442720     Delta-E=       -0.000000000018 Rises=F Damp=F
 DIIS: error= 7.96D-08 at cycle  27 NSaved=  20.
 NSaved=20 IEnMin=20 EnMin= -103.952553442720     IErMin=20 ErrMin= 7.96D-08
 ErrMax= 7.96D-08  0.00D+00 EMaxC= 1.00D-01 BMatC= 8.57D-13 BMatP= 9.93D-12
 IDIUse=1 WtCom= 1.00D+00 WtEn= 0.00D+00
 Coeff-Com: -0.803D-05-0.208D-04-0.173D-04 0.568D-04-0.440D-04 0.621D-04
 Coeff-Com:  0.815D-04-0.262D-03-0.163D-03-0.274D-03 0.305D-03 0.259D-02
 Coeff-Com:  0.459D-03-0.369D-02-0.121D-01-0.157D-01 0.658D-02 0.124D+00
 Coeff-Com:  0.212D+00 0.685D+00
 Coeff:     -0.803D-05-0.208D-04-0.173D-04 0.568D-04-0.440D-04 0.621D-04
 Coeff:      0.815D-04-0.262D-03-0.163D-03-0.274D-03 0.305D-03 0.259D-02
 Coeff:      0.459D-03-0.369D-02-0.121D-01-0.157D-01 0.658D-02 0.124D+00
 Coeff:      0.212D+00 0.685D+00
 Gap=     0.047 Goal=   None    Shift=    0.000
 RMSDP=1.57D-07 MaxDP=1.26D-05 DE=-1.77D-11 OVMax= 1.63D-06

 Cycle  28  Pass 1  IDiag  1:
 E= -103.952553442721     Delta-E=       -0.000000000001 Rises=F Damp=F
 DIIS: error= 3.43D-08 at cycle  28 NSaved=  20.
 NSaved=20 IEnMin=20 EnMin= -103.952553442721     IErMin=20 ErrMin= 3.43D-08
 ErrMax= 3.43D-08  0.00D+00 EMaxC= 1.00D-01 BMatC= 1.47D-13 BMatP= 8.57D-13
 IDIUse=1 WtCom= 1.00D+00 WtEn= 0.00D+00
 Coeff-Com: -0.164D-04-0.285D-04 0.296D-04 0.964D-05 0.370D-04 0.246D-04
 Coeff-Com: -0.440D-04-0.137D-04-0.118D-03-0.519D-03 0.909D-03 0.587D-03
 Coeff-Com:  0.450D-03-0.271D-02-0.871D-02-0.248D-01 0.609D-02 0.552D-01
 Coeff-Com:  0.345D+00 0.629D+00
 Coeff:     -0.164D-04-0.285D-04 0.296D-04 0.964D-05 0.370D-04 0.246D-04
 Coeff:     -0.440D-04-0.137D-04-0.118D-03-0.519D-03 0.909D-03 0.587D-03
 Coeff:      0.450D-03-0.271D-02-0.871D-02-0.248D-01 0.609D-02 0.552D-01
 Coeff:      0.345D+00 0.629D+00
 Gap=     0.047 Goal=   None    Shift=    0.000
 RMSDP=9.24D-08 MaxDP=8.54D-06 DE=-7.11D-13 OVMax= 1.06D-06

 Cycle  29  Pass 1  IDiag  1:
 E= -103.952553442721     Delta-E=       -0.000000000000 Rises=F Damp=F
 DIIS: error= 2.18D-08 at cycle  29 NSaved=  20.
 NSaved=20 IEnMin=20 EnMin= -103.952553442721     IErMin=20 ErrMin= 2.18D-08
 ErrMax= 2.18D-08  0.00D+00 EMaxC= 1.00D-01 BMatC= 5.35D-14 BMatP= 1.47D-13
 IDIUse=1 WtCom= 1.00D+00 WtEn= 0.00D+00
 Coeff-Com: -0.589D-05 0.986D-05-0.545D-05 0.221D-05-0.320D-05 0.229D-04
 Coeff-Com: -0.414D-05-0.672D-04-0.353D-03 0.252D-03 0.302D-03 0.804D-03
 Coeff-Com:  0.503D-03-0.190D-02-0.171D-01-0.200D-01-0.724D-02 0.777D-01
 Coeff-Com:  0.471D+00 0.496D+00
 Coeff:     -0.589D-05 0.986D-05-0.545D-05 0.221D-05-0.320D-05 0.229D-04
 Coeff:     -0.414D-05-0.672D-04-0.353D-03 0.252D-03 0.302D-03 0.804D-03
 Coeff:      0.503D-03-0.190D-02-0.171D-01-0.200D-01-0.724D-02 0.777D-01
 Coeff:      0.471D+00 0.496D+00
 Gap=     0.047 Goal=   None    Shift=    0.000
 RMSDP=6.27D-08 MaxDP=5.23D-06 DE=-1.42D-13 OVMax= 5.43D-07

 Cycle  30  Pass 1  IDiag  1:
 E= -103.952553442721     Delta-E=       -0.000000000000 Rises=F Damp=F
 DIIS: error= 9.69D-09 at cycle  30 NSaved=  20.
 NSaved=20 IEnMin=20 EnMin= -103.952553442721     IErMin=20 ErrMin= 9.69D-09
 ErrMax= 9.69D-09  0.00D+00 EMaxC= 1.00D-01 BMatC= 1.75D-14 BMatP= 5.35D-14
 IDIUse=1 WtCom= 1.00D+00 WtEn= 0.00D+00
 Coeff-Com:  0.794D-05-0.353D-05-0.135D-04-0.160D-04 0.425D-04 0.325D-04
 Coeff-Com:  0.745D-05-0.251D-03-0.123D-03 0.867D-04 0.671D-03 0.167D-02
 Coeff-Com:  0.147D-02-0.979D-02-0.224D-01-0.221D-01-0.811D-02 0.275D+00
 Coeff-Com:  0.356D+00 0.427D+00
 Coeff:      0.794D-05-0.353D-05-0.135D-04-0.160D-04 0.425D-04 0.325D-04
 Coeff:      0.745D-05-0.251D-03-0.123D-03 0.867D-04 0.671D-03 0.167D-02
 Coeff:      0.147D-02-0.979D-02-0.224D-01-0.221D-01-0.811D-02 0.275D+00
 Coeff:      0.356D+00 0.427D+00
 Gap=     0.047 Goal=   None    Shift=    0.000
 RMSDP=3.82D-08 MaxDP=3.15D-06 DE=-3.84D-13 OVMax= 3.31D-07

 Cycle  31  Pass 1  IDiag  1:
 E= -103.952553442721     Delta-E=        0.000000000000 Rises=F Damp=F
 DIIS: error= 8.02D-09 at cycle  31 NSaved=  20.
 NSaved=20 IEnMin=19 EnMin= -103.952553442721     IErMin=20 ErrMin= 8.02D-09
 ErrMax= 8.02D-09  0.00D+00 EMaxC= 1.00D-01 BMatC= 4.17D-15 BMatP= 1.75D-14
 IDIUse=1 WtCom= 1.00D+00 WtEn= 0.00D+00
 Coeff-Com: -0.755D-06-0.258D-05-0.392D-05 0.242D-04 0.141D-04-0.221D-05
 Coeff-Com: -0.121D-03-0.380D-04 0.743D-04 0.474D-03 0.111D-02 0.112D-02
 Coeff-Com: -0.408D-02-0.117D-01-0.131D-01-0.157D-01 0.796D-01 0.176D+00
 Coeff-Com:  0.309D+00 0.477D+00
 Coeff:     -0.755D-06-0.258D-05-0.392D-05 0.242D-04 0.141D-04-0.221D-05
 Coeff:     -0.121D-03-0.380D-04 0.743D-04 0.474D-03 0.111D-02 0.112D-02
 Coeff:     -0.408D-02-0.117D-01-0.131D-01-0.157D-01 0.796D-01 0.176D+00
 Coeff:      0.309D+00 0.477D+00
 Gap=     0.047 Goal=   None    Shift=    0.000
 RMSDP=1.31D-08 MaxDP=1.12D-06 DE= 1.42D-13 OVMax= 8.37D-08

 Cycle  32  Pass 1  IDiag  1:
 E= -103.952553442721     Delta-E=       -0.000000000000 Rises=F Damp=F
 DIIS: error= 1.89D-09 at cycle  32 NSaved=  20.
 NSaved=20 IEnMin=18 EnMin= -103.952553442721     IErMin=20 ErrMin= 1.89D-09
 ErrMax= 1.89D-09  0.00D+00 EMaxC= 1.00D-01 BMatC= 1.88D-16 BMatP= 4.17D-15
 IDIUse=1 WtCom= 1.00D+00 WtEn= 0.00D+00
 Large coefficients: NSaved= 20 BigCof=    0.00 CofMax=   10.00 Det=-1.73D-15
 Inversion failed.  Reducing to 19 matrices.
 Large coefficients: NSaved= 19 BigCof=    0.00 CofMax=   10.00 Det=-1.76D-15
 Inversion failed.  Reducing to 18 matrices.
 Large coefficients: NSaved= 18 BigCof=    0.00 CofMax=   10.00 Det=-1.83D-15
 Inversion failed.  Reducing to 17 matrices.
 Large coefficients: NSaved= 17 BigCof=    0.00 CofMax=   10.00 Det=-1.90D-15
 Inversion failed.  Reducing to 16 matrices.
 Large coefficients: NSaved= 16 BigCof=    0.00 CofMax=   10.00 Det=-1.92D-15
 Inversion failed.  Reducing to 15 matrices.
 Coeff-Com:  0.404D-05-0.470D-05 0.107D-04 0.731D-04 0.126D-03 0.119D-03
 Coeff-Com:  0.674D-04-0.934D-03-0.178D-02-0.637D-02-0.201D-01 0.167D-01
 Coeff-Com:  0.602D-01 0.211D+00 0.741D+00
 Coeff:      0.404D-05-0.470D-05 0.107D-04 0.731D-04 0.126D-03 0.119D-03
 Coeff:      0.674D-04-0.934D-03-0.178D-02-0.637D-02-0.201D-01 0.167D-01
 Coeff:      0.602D-01 0.211D+00 0.741D+00
 Gap=     0.047 Goal=   None    Shift=    0.000
 RMSDP=2.04D-09 MaxDP=1.37D-07 DE=-1.14D-13 OVMax= 4.65D-08

 SCF Done:  E(ROHF) =  -103.952553443     A.U. after   32 cycles
            NFock= 32  Conv=0.20D-08     -V/T= 2.7455
 <Sx>= 0.0000 <Sy>= 0.0000 <Sz>= 3.0000 <S**2>=12.0000 S= 3.0000
 <L.S>=  0.00000000000    
 KE= 5.955608830194D+01 PE=-2.559089774498D+02 EE= 8.446267754130D+01
 Annihilation of the first spin contaminant:
 S**2 before annihilation    12.0000,   after    12.0000
 Leave Link  502 at Sun Feb 25 17:20:34 2018, MaxMem=  8589934592 cpu:             276.1 elap:              20.1
 (Enter /home1/apps/gaussian/16rA.03/g16/l801.exe)
 Windowed orbitals will be sorted by symmetry type.
 GenMOA:  NOpAll=  4 NOp2=4 NOpUse=  4 JSym2X=1
 FoFJK:  IHMeth= 1 ICntrl=       0 DoSepK=F KAlg= 0 I1Cent=           0 FoldK=F
 IRaf=         0 NMat=       1 IRICut=       1 DoRegI=T DoRafI=F ISym2E= 1 IDoP0=0 IntGTp=1.
 FoFCou: FMM=F IPFlag=           8 FMFlag=      100000 FMFlg1=           0
         NFxFlg=           0 DoJE=F BraDBF=F KetDBF=F FulRan=T
         wScrn=  0.000000 ICntrl=         0 IOpCl=  1 I1Cent=           0 NGrid=           0
         NMat0=    1 NMatS0=      1 NMatT0=    0 NMatD0=    1 NMtDS0=    0 NMtDT0=    0
 Petite list used in FoFCou.
 <Sx>= 0.0000 <Sy>= 0.0000 <Sz>= 3.0000 <S**2>=12.0000 S= 3.0000
 Range of M.O.s used for correlation:     1   212
 NBasis=   215 NAE=    11 NBE=     5 NFC=     0 NFV=     0
 NROrb=    212 NOA=    11 NOB=     5 NVA=   201 NVB=   207

 **** Warning!!: The largest alpha MO coefficient is  0.34463146D+03


 **** Warning!!: The largest beta MO coefficient is  0.34462664D+03

 Singles contribution to E2=   -0.5124268445D-02
 Leave Link  801 at Sun Feb 25 17:20:39 2018, MaxMem=  8589934592 cpu:              65.4 elap:               4.1
 (Enter /home1/apps/gaussian/16rA.03/g16/l804.exe)
 Open-shell transformation, MDV=  8589934592 ITran=4 ISComp=2.
 Unit  1 TFree=       1395127 TCopy=       1089025.
 Semi-Direct transformation.
 ModeAB=           2 MOrb=            11 LenV=    8588447649
 LASXX=     13028729 LTotXX=    13028729 LenRXX=    13028729
 LTotAB=    13295547 MaxLAS=    77914452 LenRXY=    77914452
 NonZer=    79572504 LenScr=   120127488 LnRSAI=           0
 LnScr1=           0 LExtra=     4805943 Total=    215876612
 MaxDsk= 67108864000 SrtSym=           F ITran=            4
 DoSDTr:  NPSUse= 16
 JobTyp=1 Pass  1:  I=   1 to  11.
 (rs|ai) integrals will be sorted in core.
 Complete sort for first half transformation.
 First half transformation complete.
 Begin second half transformation for I=  10.
 Begin second half transformation for I=  10.
 Complete sort for second half transformation.
 Second half transformation complete.
 ModeAB=           2 MOrb=             5 LenV=    8588447649
 LASXX=      6078645 LTotXX=     6078645 LenRXX=    35415660
 LTotAB=     5560512 MaxLAS=    35415660 LenRXY=     5560512
 NonZer=    36169320 LenScr=    55014400 LnRSAI=           0
 LnScr1=           0 LExtra=    95749124 Total=    191739696
 MaxDsk= 67108864000 SrtSym=           F ITran=            4
 DoSDTr:  NPSUse= 16
 JobTyp=2 Pass  1:  I=   1 to   5.
 (rs|ai) integrals will be sorted in core.
 Complete sort for first half transformation.
 First half transformation complete.
 Complete sort for second half transformation.
 Second half transformation complete.
 Spin components of T(2) and E(2):
     alpha-alpha T2 =       0.2850553028D-01 E2=     -0.1629531282D+00
     alpha-beta  T2 =       0.5715254790D-01 E2=     -0.4085866875D+00
     beta-beta   T2 =       0.7068801732D-02 E2=     -0.4664921240D-01
 ANorm=    0.1046793434D+01
 E2 =    -0.6233132966D+00 EUMP2 =    -0.10457586673931D+03
 (S**2,0)=  0.12000D+02           (S**2,1)=  0.12000D+02
 E(PUHF)=      -0.10395255344D+03        E(PMP2)=      -0.10457586674D+03
 Leave Link  804 at Sun Feb 25 17:22:12 2018, MaxMem=  8589934592 cpu:            1487.2 elap:              93.0
 (Enter /home1/apps/gaussian/16rA.03/g16/l913.exe)
 CIDS:  MDV=  8589934592.
 IFCWin=0 IBDFC=1 NFBD=     0     0 NFCmp=     0     0 NFFFC=     0     0
 Using original routines for 1st iteration.
 Using DD4UQ or CC4UQ for 2nd and later iterations.
 Keep R2 and R3 ints in memory in symmetry-blocked form, NReq=338807815.
 FoFCou: FMM=F IPFlag=           8 FMFlag=           0 FMFlg1=           0
         NFxFlg=           0 DoJE=F BraDBF=F KetDBF=F FulRan=T
         wScrn=  0.000000 ICntrl=       600 IOpCl=  0 I1Cent=           0 NGrid=           0
         NMat0=    1 NMatS0=  23220 NMatT0=    0 NMatD0=    1 NMtDS0=    0 NMtDT0=    0
 Petite list used in FoFCou.
 CIDS: In Core Option IDoMem=           1.
 CCSD(T)
 =======
 Iterations= 150 Convergence= 0.100D-06
 Produce multiple copies of IABC intergrals
 Iteration Nr.   1
 **********************
 DD1Dir will call FoFMem   1 times, MxPair=       176
 NAB=    55 NAA=    55 NBB=    10.
 DD1Dir will call FoFMem   1 times, MxPair=       176
 NAB=    55 NAA=    55 NBB=    10.
 MP4(R+Q)= -0.68506617D-02
 Maximum subspace dimension=  5
 A-vector RMS=  2.2366639D-04 Max=  2.3107478D-03 conv= 1.00D-05.
 RLE energy=       -0.6155832766
 E3=        0.14547315D-01        EROMP3=      -0.10456131942D+03
 E4(SDQ)=  -0.89498003D-02        ROMP4(SDQ)=  -0.10457026922D+03
 VARIATIONAL ENERGIES WITH THE FIRST-ORDER WAVEFUNCTION:
 DE(Corr)= -0.61548264     E(Corr)=     -104.56803608    
 NORM(A)=   0.10446423D+01
 Iteration Nr.   2
 **********************
 DD1Dir will call FoFMem   1 times, MxPair=       176
 NAB=    55 NAA=    55 NBB=    10.
 A-vector RMS=  2.4555673D-03 Max=  2.1980790D-02 conv= 1.00D-05.
 RLE energy=       -0.6125111146
 DE(Corr)= -0.60068463     E(CORR)=     -104.55323807     Delta= 1.48D-02
 NORM(A)=   0.10443201D+01
 Iteration Nr.   3
 **********************
 DD1Dir will call FoFMem   1 times, MxPair=       176
 NAB=    55 NAA=    55 NBB=    10.
 A-vector RMS=  2.0546524D-03 Max=  1.9196715D-02 conv= 1.00D-05.
 RLE energy=       -0.6147771654
 DE(Corr)= -0.60363552     E(CORR)=     -104.55618896     Delta=-2.95D-03
 NORM(A)=   0.10476819D+01
 Iteration Nr.   4
 **********************
 DD1Dir will call FoFMem   1 times, MxPair=       176
 NAB=    55 NAA=    55 NBB=    10.
 A-vector RMS=  1.2328392D-03 Max=  1.2469746D-02 conv= 1.00D-05.
 RLE energy=       -0.6178482630
 DE(Corr)= -0.61016639     E(CORR)=     -104.56271983     Delta=-6.53D-03
 NORM(A)=   0.10682354D+01
 Iteration Nr.   5
 **********************
 DD1Dir will call FoFMem   1 times, MxPair=       176
 NAB=    55 NAA=    55 NBB=    10.
 A-vector RMS=  1.2293059D-03 Max=  9.6597747D-03 conv= 1.00D-05.
 RLE energy=       -0.6174032893
 DE(Corr)= -0.62641806     E(CORR)=     -104.57897150     Delta=-1.63D-02
 NORM(A)=   0.10598157D+01
 Iteration Nr.   6
 **********************
 DD1Dir will call FoFMem   1 times, MxPair=       176
 NAB=    55 NAA=    55 NBB=    10.
 A-vector RMS=  2.5561796D-04 Max=  2.2936156D-03 conv= 1.00D-05.
 RLE energy=       -0.6170252771
 DE(Corr)= -0.61891573     E(CORR)=     -104.57146917     Delta= 7.50D-03
 NORM(A)=   0.10577168D+01
 Iteration Nr.   7
 **********************
 DD1Dir will call FoFMem   1 times, MxPair=       176
 NAB=    55 NAA=    55 NBB=    10.
 A-vector RMS=  8.0447086D-05 Max=  8.6138058D-04 conv= 1.00D-05.
 RLE energy=       -0.6170431015
 DE(Corr)= -0.61703253     E(CORR)=     -104.56958597     Delta= 1.88D-03
 NORM(A)=   0.10580333D+01
 Iteration Nr.   8
 **********************
 DD1Dir will call FoFMem   1 times, MxPair=       176
 NAB=    55 NAA=    55 NBB=    10.
 A-vector RMS=  2.6926295D-05 Max=  2.8214675D-04 conv= 1.00D-05.
 RLE energy=       -0.6170768059
 DE(Corr)= -0.61709197     E(CORR)=     -104.56964541     Delta=-5.94D-05
 NORM(A)=   0.10580686D+01
 Iteration Nr.   9
 **********************
 DD1Dir will call FoFMem   1 times, MxPair=       176
 NAB=    55 NAA=    55 NBB=    10.
 A-vector RMS=  1.2792558D-05 Max=  1.2370877D-04 conv= 1.00D-05.
 RLE energy=       -0.6170816702
 DE(Corr)= -0.61706925     E(CORR)=     -104.56962269     Delta= 2.27D-05
 NORM(A)=   0.10581037D+01
 Iteration Nr.  10
 **********************
 DD1Dir will call FoFMem   1 times, MxPair=       176
 NAB=    55 NAA=    55 NBB=    10.
 A-vector RMS=  5.3015692D-06 Max=  6.3918191D-05 conv= 1.00D-05.
 RLE energy=       -0.6170794019
 DE(Corr)= -0.61708036     E(CORR)=     -104.56963381     Delta=-1.11D-05
 NORM(A)=   0.10580948D+01
 Iteration Nr.  11
 **********************
 DD1Dir will call FoFMem   1 times, MxPair=       176
 NAB=    55 NAA=    55 NBB=    10.
 A-vector RMS=  2.4186612D-06 Max=  2.7753234D-05 conv= 1.00D-05.
 RLE energy=       -0.6170783255
 DE(Corr)= -0.61707840     E(CORR)=     -104.56963184     Delta= 1.97D-06
 NORM(A)=   0.10580858D+01
 Iteration Nr.  12
 **********************
 DD1Dir will call FoFMem   1 times, MxPair=       176
 NAB=    55 NAA=    55 NBB=    10.
 A-vector RMS=  5.3454657D-07 Max=  5.9694888D-06 conv= 1.00D-05.
 RLE energy=       -0.6170768622
 DE(Corr)= -0.61707724     E(CORR)=     -104.56963068     Delta= 1.16D-06
 NORM(A)=   0.10580823D+01
 Iteration Nr.  13
 **********************
 DD1Dir will call FoFMem   1 times, MxPair=       176
 NAB=    55 NAA=    55 NBB=    10.
 A-vector RMS=  1.8959062D-07 Max=  2.2725762D-06 conv= 1.00D-05.
 RLE energy=       -0.6170760131
 DE(Corr)= -0.61707635     E(CORR)=     -104.56962979     Delta= 8.91D-07
 NORM(A)=   0.10580806D+01
 Iteration Nr.  14
 **********************
 DD1Dir will call FoFMem   1 times, MxPair=       176
 NAB=    55 NAA=    55 NBB=    10.
 A-vector RMS=  1.4037685D-07 Max=  1.1676544D-06 conv= 1.00D-05.
 RLE energy=       -0.6170759214
 DE(Corr)= -0.61707600     E(CORR)=     -104.56962944     Delta= 3.51D-07
 NORM(A)=   0.10580805D+01
 Iteration Nr.  15
 **********************
 DD1Dir will call FoFMem   1 times, MxPair=       176
 NAB=    55 NAA=    55 NBB=    10.
 A-vector RMS=  7.5152157D-08 Max=  7.5473321D-07 conv= 1.00D-05.
 RLE energy=       -0.6170759193
 DE(Corr)= -0.61707594     E(CORR)=     -104.56962938     Delta= 6.12D-08
 NORM(A)=   0.10580806D+01
 CI/CC converged in   15 iterations to DelEn= 6.12D-08 Conv= 1.00D-07 ErrA1= 7.52D-08 Conv= 1.00D-05
 Wavefunction amplitudes converged. E(Corr)=     -104.56962938    
 Largest amplitude= 7.19D-02
 Time for triples=     5703.60 seconds.
 T4(CCSD)= -0.19187925D-01
 T5(CCSD)=  0.86871621D-03
 CCSD(T)= -0.10458794859D+03
 Discarding MO integrals.
 Leave Link  913 at Sun Feb 25 17:30:27 2018, MaxMem=  8589934592 cpu:            7896.2 elap:             494.3
 (Enter /home1/apps/gaussian/16rA.03/g16/l601.exe)
 Copying SCF densities to generalized density rwf, IOpCl= 0 IROHF=1.

 **********************************************************************

            Population analysis using the SCF density.

 **********************************************************************

 Orbital symmetries:
       Occupied  (SG) (SG) (PI) (PI) (SG) (SG) (PI) (PI) (DLTA)
                 (DLTA) (SG)
       Virtual   (PI) (PI) (SG) (SG) (PI) (PI) (DLTA) (DLTA) (SG)
                 (PI) (PI) (SG) (SG) (SG) (PI) (PI) (SG) (DLTA)
                 (DLTA) (PI) (PI) (SG) (PI) (PI) (SG) (SG) (SG)
                 (PHI) (PHI) (PI) (PI) (DLTA) (DLTA) (PI) (PI)
                 (SG) (PI) (PI) (DLTA) (DLTA) (SG) (DLTA) (DLTA)
                 (SG) (PI) (PI) (SG) (PI) (PI) (SG) (SG) (DLTA)
                 (DLTA) (PHI) (PHI) (PI) (PI) (SG) (PI) (PI) (SG)
                 (?A) (?A) (PHI) (PHI) (DLTA) (DLTA) (PI) (PI)
                 (SG) (DLTA) (DLTA) (PI) (PI) (SG) (SG) (DLTA)
                 (DLTA) (PI) (PI) (SG) (SG) (PI) (PI) (SG) (PHI)
                 (PHI) (DLTA) (DLTA) (PI) (PI) (DLTA) (DLTA) (PI)
                 (PI) (SG) (SG) (PI) (PI) (?A) (?A) (PHI) (PHI)
                 (DLTA) (DLTA) (SG) (PI) (PI) (SG) (SG) (SG) (DLTA)
                 (DLTA) (PI) (PI) (SG) (PHI) (PHI) (DLTA) (DLTA)
                 (PI) (PI) (PI) (PI) (SG) (SG) (PHI) (PHI) (?A)
                 (?A) (DLTA) (DLTA) (PI) (PI) (SG) (DLTA) (DLTA)
                 (PI) (PI) (SG) (SG) (PI) (PI) (SG) (DLTA) (DLTA)
                 (PI) (PI) (SG) (SG) (SG) (PI) (PI) (SG) (SG) (DLTA)
                 (DLTA) (PI) (PI) (SG) (PI) (PI) (SG) (SG) (PI)
                 (PI) (SG) (SG) (DLTA) (DLTA) (PI) (PI) (SG) (PI)
                 (PI) (SG) (SG) (PI) (PI) (SG) (SG) (PI) (PI) (SG)
                 (SG) (PI) (PI) (SG) (SG) (PI) (PI) (SG) (SG) (SG)
                 (PI) (PI) (SG) (SG) (SG) (SG) (SG)
 The electronic state is 7-SG.
 Alpha  occ. eigenvalues --   -4.17160  -2.77715  -2.75161  -2.75161  -0.72027
 Alpha  occ. eigenvalues --   -0.65003  -0.65003  -0.63772  -0.63772  -0.39528
 Alpha  occ. eigenvalues --   -0.21298
 Alpha virt. eigenvalues --    0.01239   0.01239   0.01912   0.03504   0.05714
 Alpha virt. eigenvalues --    0.05714   0.08428   0.08464   0.08464   0.08759
 Alpha virt. eigenvalues --    0.08759   0.08830   0.14336   0.22421   0.22421
 Alpha virt. eigenvalues --    0.22898   0.26999   0.29298   0.29298   0.29670
 Alpha virt. eigenvalues --    0.29670   0.34949   0.35464   0.35464   0.39159
 Alpha virt. eigenvalues --    0.66897   0.68938   0.76131   0.76131   0.76499
 Alpha virt. eigenvalues --    0.76499   0.77097   0.77097   0.86817   0.86817
 Alpha virt. eigenvalues --    0.87967   0.95016   0.95016   0.95376   0.95376
 Alpha virt. eigenvalues --    0.96694   1.15812   1.15812   1.16153   1.17740
 Alpha virt. eigenvalues --    1.17740   1.47328   1.71213   1.71213   1.71761
 Alpha virt. eigenvalues --    2.01151   2.32436   2.32436   2.32617   2.32617
 Alpha virt. eigenvalues --    2.60801   2.60801   2.66415   2.66460   2.66460
 Alpha virt. eigenvalues --    2.75943   2.77014   2.77014   2.77950   2.77950
 Alpha virt. eigenvalues --    2.85633   2.85633   2.93352   2.93352   3.00202
 Alpha virt. eigenvalues --    3.05074   3.05074   3.33013   3.33013   3.51705
 Alpha virt. eigenvalues --    3.91787   4.46401   4.46401   4.66760   4.66760
 Alpha virt. eigenvalues --    5.12605   5.72234   6.00686   6.00686   6.10747
 Alpha virt. eigenvalues --    6.39918   6.39918   6.42871   6.42871   6.64111
 Alpha virt. eigenvalues --    6.64111   6.74666   6.74666   6.81967   6.81967
 Alpha virt. eigenvalues --    6.85944   7.37266   7.41142   7.41142   8.17181
 Alpha virt. eigenvalues --    8.17181   8.17262   8.17262   8.30099   8.30099
 Alpha virt. eigenvalues --    8.71400   8.73573   8.73573   9.27855  12.14198
 Alpha virt. eigenvalues --   12.93291  13.55081  13.55081  13.56908  13.56908
 Alpha virt. eigenvalues --   13.99376  17.64225  17.64225  17.65034  17.65034
 Alpha virt. eigenvalues --   17.69191  17.69191  17.83376  17.83376  18.16480
 Alpha virt. eigenvalues --   19.15220  22.16453  22.16453  22.17227  22.17227
 Alpha virt. eigenvalues --   22.23357  22.23357  22.41560  22.41560  22.71821
 Alpha virt. eigenvalues --   25.11667  25.11667  25.13230  25.13230  25.52066
 Alpha virt. eigenvalues --   26.16116  36.52261  36.52261  37.33567  45.77529
 Alpha virt. eigenvalues --   45.77529  45.78856  45.78856  46.14527  52.43762
 Alpha virt. eigenvalues --   65.11230  69.31898  69.31898  70.20700  96.57783
 Alpha virt. eigenvalues --  100.45649 100.45649 100.46827 100.46827 100.74324
 Alpha virt. eigenvalues --  126.75394 126.75394 127.56565 147.86823 231.30457
 Alpha virt. eigenvalues --  231.30457 232.08565 271.91977 328.55146 328.55146
 Alpha virt. eigenvalues --  328.56019 328.56019 328.73945 439.68286 439.68286
 Alpha virt. eigenvalues --  440.44720 532.55553 888.02086 888.02086 888.73429
 Alpha virt. eigenvalues -- 1096.807981949.039361949.039361949.679022403.71976
 Alpha virt. eigenvalues -- 4773.225244773.225244773.776335613.58898**********
 Alpha virt. eigenvalues -- **************************************************
 Alpha virt. eigenvalues -- **************************************************
 Alpha virt. eigenvalues -- **********
     Molecular Orbital Coefficients:
                           1         2         3         4         5
                           O         O         O         O         O
     Eigenvalues --    -4.17160  -2.77715  -2.75161  -2.75161  -0.72027
   1 1   Mn 1S          0.00000   0.00000   0.00000   0.00000  -0.00000
   2        2S          0.00000   0.00000   0.00000   0.00000  -0.00000
   3        3S         -0.00000   0.00000   0.00000   0.00000  -0.00000
   4        4S          0.00000   0.00000   0.00000   0.00000  -0.00000
   5        5S         -0.00000  -0.00000   0.00000   0.00000   0.00000
   6        6S          0.00007   0.00000   0.00000   0.00000  -0.00001
   7        7S         -0.00009  -0.00000   0.00000   0.00000   0.00002
   8        8S          0.00069   0.00002   0.00000   0.00000  -0.00014
   9        9S         -0.00120  -0.00003   0.00000   0.00000   0.00022
  10       10S          0.00529   0.00016   0.00000   0.00000  -0.00103
  11       11S         -0.01357  -0.00040   0.00000   0.00000   0.00265
  12       12S          0.05000   0.00160   0.00000   0.00000  -0.01014
  13       13S          0.00541   0.00139   0.00000   0.00000  -0.00060
  14       14S         -0.53253  -0.02774   0.00000   0.00000   0.11805
  15       15S         -0.01114  -0.03520   0.00000   0.00000   0.02981
  16       16S          0.81765   0.12119   0.00000   0.00000  -0.28516
  17       17S          0.37095   0.08176   0.00000   0.00000  -0.23088
  18       18S          0.00371   0.06649   0.00000   0.00000   0.00034
  19       19S         -0.00097   0.02654   0.00000   0.00000   0.03149
  20       20S          0.00195  -0.01328   0.00000   0.00000  -0.01403
  21       21S          0.20557   0.03375   0.00000   0.00000  -0.06770
  22       22S         -0.05146  -0.12039   0.00000   0.00000   0.11042
  23       23S          0.00023  -0.00177   0.00000   0.00000  -0.00947
  24       24PX         0.00000   0.00000   0.00000   0.00000   0.00000
  25       24PY         0.00000   0.00000   0.00000   0.00000   0.00000
  26       24PZ        -0.00000   0.00000   0.00000   0.00000   0.00000
  27       25PX         0.00000   0.00000  -0.00000   0.00000   0.00000
  28       25PY         0.00000   0.00000   0.00000  -0.00000   0.00000
  29       25PZ         0.00000  -0.00000   0.00000   0.00000  -0.00000
  30       26PX         0.00000   0.00000   0.00003   0.00000   0.00000
  31       26PY         0.00000   0.00000   0.00000   0.00003   0.00000
  32       26PZ        -0.00000   0.00003   0.00000   0.00000   0.00001
  33       27PX         0.00000   0.00000  -0.00002   0.00000   0.00000
  34       27PY         0.00000   0.00000   0.00000  -0.00002   0.00000
  35       27PZ         0.00000  -0.00002   0.00000   0.00000  -0.00000
  36       28PX         0.00000   0.00000   0.00044   0.00000   0.00000
  37       28PY         0.00000   0.00000   0.00000   0.00044   0.00000
  38       28PZ        -0.00001   0.00045   0.00000   0.00000   0.00009
  39       29PX         0.00000   0.00000  -0.00053   0.00000   0.00000
  40       29PY         0.00000   0.00000   0.00000  -0.00053   0.00000
  41       29PZ         0.00003  -0.00058   0.00000   0.00000  -0.00008
  42       30PX         0.00000   0.00000   0.00494   0.00000   0.00000
  43       30PY         0.00000   0.00000   0.00000   0.00494   0.00000
  44       30PZ        -0.00016   0.00501   0.00000   0.00000   0.00103
  45       31PX         0.00000   0.00000  -0.00112   0.00000   0.00000
  46       31PY         0.00000   0.00000   0.00000  -0.00112   0.00000
  47       31PZ         0.00017  -0.00164   0.00000   0.00000   0.00008
  48       32PX         0.00000   0.00000  -0.09456   0.00000   0.00000
  49       32PY         0.00000   0.00000   0.00000  -0.09456   0.00000
  50       32PZ         0.00155  -0.09045   0.00000   0.00000  -0.02435
  51       33PX         0.00000   0.00000   0.00026   0.00000   0.00000
  52       33PY         0.00000   0.00000   0.00000   0.00026   0.00000
  53       33PZ        -0.01336   0.04245   0.00000   0.00000  -0.03684
  54       34PX         0.00000   0.00000   0.32967   0.00000   0.00000
  55       34PY         0.00000   0.00000   0.00000   0.32967   0.00000
  56       34PZ        -0.00545   0.31536   0.00000   0.00000   0.08969
  57       35PX         0.00000   0.00000   0.21957   0.00000   0.00000
  58       35PY         0.00000   0.00000   0.00000   0.21957   0.00000
  59       35PZ        -0.02121   0.21613   0.00000   0.00000   0.06274
  60       36PX         0.00000   0.00000   0.28588   0.00000   0.00000
  61       36PY         0.00000   0.00000   0.00000   0.28588   0.00000
  62       36PZ         0.00228   0.26051   0.00000   0.00000   0.09694
  63       37PX         0.00000   0.00000   0.03793   0.00000   0.00000
  64       37PY         0.00000   0.00000   0.00000   0.03793   0.00000
  65       37PZ         0.00664   0.01282   0.00000   0.00000   0.02883
  66       38PX         0.00000   0.00000  -0.00468   0.00000   0.00000
  67       38PY         0.00000   0.00000   0.00000  -0.00468   0.00000
  68       38PZ         0.00053  -0.02626   0.00000   0.00000  -0.01451
  69       39PX         0.00000   0.00000   0.00135   0.00000   0.00000
  70       39PY         0.00000   0.00000   0.00000   0.00135   0.00000
  71       39PZ        -0.00061   0.00767   0.00000   0.00000  -0.01385
  72       40PX         0.00000   0.00000   0.03329   0.00000   0.00000
  73       40PY         0.00000   0.00000   0.00000   0.03329   0.00000
  74       40PZ         0.01205  -0.00760   0.00000   0.00000   0.04464
  75       41PX         0.00000   0.00000   0.24173   0.00000   0.00000
  76       41PY         0.00000   0.00000   0.00000   0.24173   0.00000
  77       41PZ         0.00589   0.24562   0.00000   0.00000   0.04773
  78       42PX         0.00000   0.00000  -0.00042   0.00000   0.00000
  79       42PY         0.00000   0.00000   0.00000  -0.00042   0.00000
  80       42PZ        -0.00014   0.00079   0.00000   0.00000   0.00159
  81       43D 0       -0.00000  -0.00001   0.00000   0.00000   0.00098
  82       43D+1        0.00000   0.00000  -0.00003   0.00000   0.00000
  83       43D-1        0.00000   0.00000   0.00000  -0.00003   0.00000
  84       43D+2       -0.00000   0.00000   0.00000   0.00000  -0.00000
  85       43D-2        0.00000   0.00000   0.00000   0.00000   0.00000
  86       44D 0       -0.00005  -0.00007   0.00000   0.00000   0.01255
  87       44D+1        0.00000   0.00000  -0.00030   0.00000   0.00000
  88       44D-1        0.00000   0.00000   0.00000  -0.00030   0.00000
  89       44D+2        0.00000  -0.00000   0.00000   0.00000  -0.00000
  90       44D-2        0.00000   0.00000   0.00000   0.00000   0.00000
  91       45D 0       -0.00023  -0.00030   0.00000   0.00000   0.05180
  92       45D+1        0.00000   0.00000  -0.00134   0.00000   0.00000
  93       45D-1        0.00000   0.00000   0.00000  -0.00134   0.00000
  94       45D+2        0.00000  -0.00000   0.00000   0.00000  -0.00000
  95       45D-2        0.00000   0.00000   0.00000   0.00000   0.00000
  96       46D 0       -0.00148   0.00390   0.00000   0.00000   0.11124
  97       46D+1        0.00000   0.00000   0.00091   0.00000   0.00000
  98       46D-1        0.00000   0.00000   0.00000   0.00091   0.00000
  99       46D+2       -0.00000  -0.00000   0.00000   0.00000  -0.00000
 100       46D-2        0.00000   0.00000   0.00000   0.00000   0.00000
 101       47D 0        0.04847  -0.13810   0.00000   0.00000   0.22648
 102       47D+1        0.00000   0.00000  -0.07778   0.00000   0.00000
 103       47D-1        0.00000   0.00000   0.00000  -0.07778   0.00000
 104       47D+2        0.00000   0.00000   0.00000   0.00000  -0.00000
 105       47D-2        0.00000   0.00000   0.00000   0.00000   0.00000
 106       48D 0       -0.00491   0.00691   0.00000   0.00000   0.18564
 107       48D+1        0.00000   0.00000  -0.00142   0.00000   0.00000
 108       48D-1        0.00000   0.00000   0.00000  -0.00142   0.00000
 109       48D+2        0.00000  -0.00000   0.00000   0.00000  -0.00000
 110       48D-2        0.00000   0.00000   0.00000   0.00000   0.00000
 111       49D 0       -0.00321   0.01179   0.00000   0.00000   0.08516
 112       49D+1        0.00000   0.00000   0.00083   0.00000   0.00000
 113       49D-1        0.00000   0.00000   0.00000   0.00083   0.00000
 114       49D+2        0.00000  -0.00000   0.00000   0.00000  -0.00000
 115       49D-2        0.00000   0.00000   0.00000   0.00000   0.00000
 116       50D 0       -0.00045   0.00631   0.00000   0.00000   0.01091
 117       50D+1        0.00000   0.00000   0.00069   0.00000   0.00000
 118       50D-1        0.00000   0.00000   0.00000   0.00069   0.00000
 119       50D+2        0.00000   0.00000   0.00000   0.00000  -0.00000
 120       50D-2        0.00000   0.00000   0.00000   0.00000   0.00000
 121       51D 0        0.00153  -0.00632   0.00000   0.00000   0.00884
 122       51D+1        0.00000   0.00000  -0.00522   0.00000   0.00000
 123       51D-1        0.00000   0.00000   0.00000  -0.00522   0.00000
 124       51D+2        0.00000   0.00000   0.00000   0.00000  -0.00000
 125       51D-2        0.00000   0.00000   0.00000   0.00000   0.00000
 126       52D 0       -0.04795   0.13400   0.00000   0.00000  -0.04618
 127       52D+1        0.00000   0.00000   0.07260   0.00000   0.00000
 128       52D-1        0.00000   0.00000   0.00000   0.07260   0.00000
 129       52D+2       -0.00000  -0.00000   0.00000   0.00000   0.00000
 130       52D-2        0.00000   0.00000   0.00000   0.00000   0.00000
 131       53D 0        0.00014  -0.00136   0.00000   0.00000  -0.00055
 132       53D+1        0.00000   0.00000   0.00003   0.00000   0.00000
 133       53D-1        0.00000   0.00000   0.00000   0.00003   0.00000
 134       53D+2        0.00000  -0.00000   0.00000   0.00000   0.00000
 135       53D-2        0.00000   0.00000   0.00000   0.00000   0.00000
 136       54F 0        0.00012   0.00034   0.00000   0.00000  -0.00146
 137       54F+1        0.00000   0.00000  -0.00012   0.00000   0.00000
 138       54F-1        0.00000   0.00000   0.00000  -0.00012   0.00000
 139       54F+2       -0.00000   0.00000   0.00000   0.00000   0.00000
 140       54F-2        0.00000   0.00000   0.00000   0.00000   0.00000
 141       54F+3        0.00000   0.00000  -0.00000   0.00000   0.00000
 142       54F-3        0.00000   0.00000   0.00000   0.00000   0.00000
 143       55F 0       -0.00060   0.00207   0.00000   0.00000  -0.00718
 144       55F+1        0.00000   0.00000   0.00024   0.00000   0.00000
 145       55F-1        0.00000   0.00000   0.00000   0.00024   0.00000
 146       55F+2       -0.00000   0.00000   0.00000   0.00000   0.00000
 147       55F-2        0.00000   0.00000   0.00000   0.00000   0.00000
 148       55F+3        0.00000   0.00000  -0.00000   0.00000   0.00000
 149       55F-3        0.00000   0.00000   0.00000  -0.00000   0.00000
 150       56F 0        0.00125  -0.00228   0.00000   0.00000  -0.01067
 151       56F+1        0.00000   0.00000  -0.00198   0.00000   0.00000
 152       56F-1        0.00000   0.00000   0.00000  -0.00198   0.00000
 153       56F+2       -0.00000   0.00000   0.00000   0.00000   0.00000
 154       56F-2        0.00000   0.00000   0.00000   0.00000   0.00000
 155       56F+3        0.00000   0.00000  -0.00000   0.00000   0.00000
 156       56F-3        0.00000   0.00000   0.00000   0.00000   0.00000
 157       57F 0        0.00056  -0.00186   0.00000   0.00000   0.00023
 158       57F+1        0.00000   0.00000  -0.00069   0.00000   0.00000
 159       57F-1        0.00000   0.00000   0.00000  -0.00069   0.00000
 160       57F+2        0.00000   0.00000   0.00000   0.00000   0.00000
 161       57F-2        0.00000   0.00000   0.00000   0.00000   0.00000
 162       57F+3        0.00000   0.00000   0.00000   0.00000   0.00000
 163       57F-3        0.00000   0.00000   0.00000   0.00000   0.00000
 164       58G 0        0.00002  -0.00014   0.00000   0.00000   0.00018
 165       58G+1        0.00000   0.00000  -0.00005   0.00000   0.00000
 166       58G-1        0.00000   0.00000   0.00000  -0.00005   0.00000
 167       58G+2       -0.00000  -0.00000   0.00000   0.00000  -0.00000
 168       58G-2        0.00000   0.00000   0.00000   0.00000   0.00000
 169       58G+3        0.00000   0.00000   0.00000   0.00000   0.00000
 170       58G-3        0.00000   0.00000   0.00000   0.00000   0.00000
 171       58G+4       -0.00000   0.00000   0.00000   0.00000   0.00000
 172       58G-4        0.00000   0.00000   0.00000   0.00000   0.00000
 173       59G 0        0.00050  -0.00107   0.00000   0.00000   0.00133
 174       59G+1        0.00000   0.00000  -0.00063   0.00000   0.00000
 175       59G-1        0.00000   0.00000   0.00000  -0.00063   0.00000
 176       59G+2       -0.00000   0.00000   0.00000   0.00000   0.00000
 177       59G-2        0.00000   0.00000   0.00000   0.00000   0.00000
 178       59G+3        0.00000   0.00000  -0.00000   0.00000   0.00000
 179       59G-3        0.00000   0.00000   0.00000  -0.00000   0.00000
 180       59G+4       -0.00000  -0.00000   0.00000   0.00000  -0.00000
 181       59G-4        0.00000   0.00000   0.00000   0.00000   0.00000
 182       60G 0       -0.00032   0.00081   0.00000   0.00000  -0.00058
 183       60G+1        0.00000   0.00000   0.00060   0.00000   0.00000
 184       60G-1        0.00000   0.00000   0.00000   0.00060   0.00000
 185       60G+2        0.00000  -0.00000   0.00000   0.00000  -0.00000
 186       60G-2        0.00000   0.00000   0.00000   0.00000   0.00000
 187       60G+3        0.00000   0.00000  -0.00000   0.00000   0.00000
 188       60G-3        0.00000   0.00000   0.00000  -0.00000   0.00000
 189       60G+4       -0.00000   0.00000   0.00000   0.00000   0.00000
 190       60G-4        0.00000   0.00000   0.00000   0.00000   0.00000
 191 2   H  1S          0.00040  -0.00114   0.00000   0.00000   0.00425
 192        2S          0.00359  -0.01093   0.00000   0.00000   0.04586
 193        3S          0.01336  -0.04183   0.00000   0.00000   0.18654
 194        4S          0.01649  -0.06697   0.00000   0.00000   0.41878
 195        5S          0.00020  -0.07162   0.00000   0.00000   0.33224
 196        6S         -0.00175   0.01289   0.00000   0.00000   0.03437
 197        7PX         0.00000   0.00000   0.00313   0.00000   0.00000
 198        7PY         0.00000   0.00000   0.00000   0.00313   0.00000
 199        7PZ         0.00651  -0.01464   0.00000   0.00000   0.01549
 200        8PX         0.00000   0.00000   0.00341   0.00000   0.00000
 201        8PY         0.00000   0.00000   0.00000   0.00341   0.00000
 202        8PZ         0.00454  -0.01973   0.00000   0.00000   0.04445
 203        9PX         0.00000   0.00000   0.00196   0.00000   0.00000
 204        9PY         0.00000   0.00000   0.00000   0.00196   0.00000
 205        9PZ        -0.00084  -0.01356   0.00000   0.00000   0.03366
 206       10D 0        0.00227  -0.00498   0.00000   0.00000   0.00457
 207       10D+1        0.00000   0.00000   0.00179   0.00000   0.00000
 208       10D-1        0.00000   0.00000   0.00000   0.00179   0.00000
 209       10D+2       -0.00000  -0.00000   0.00000   0.00000  -0.00000
 210       10D-2        0.00000   0.00000   0.00000   0.00000   0.00000
 211       11D 0       -0.00042  -0.00107   0.00000   0.00000   0.00006
 212       11D+1        0.00000   0.00000   0.00073   0.00000   0.00000
[...]
     Gross orbital populations:
                         Total     Alpha     Beta      Spin
   1 1   Mn 1S          0.00000   0.00000   0.00000   0.00000
   2        2S          0.00000   0.00000   0.00000   0.00000
   3        3S         -0.00000  -0.00000  -0.00000  -0.00000
   4        4S          0.00000   0.00000   0.00000   0.00000
   5        5S         -0.00000  -0.00000  -0.00000  -0.00000
   6        6S          0.00000   0.00000   0.00000   0.00000
   7        7S         -0.00000  -0.00000  -0.00000  -0.00000
   8        8S          0.00000   0.00000   0.00000   0.00000
   9        9S         -0.00001  -0.00001  -0.00001  -0.00000
  10       10S          0.00009   0.00004   0.00004   0.00000
  11       11S         -0.00048  -0.00025  -0.00024  -0.00001
  12       12S          0.00526   0.00270   0.00257   0.00013
  13       13S          0.00153   0.00073   0.00080  -0.00007
  14       14S         -0.39767  -0.20277  -0.19490  -0.00787
  15       15S         -0.01757  -0.00605  -0.01151   0.00546
  16       16S          1.57590   0.79253   0.78336   0.00917
  17       17S          0.66424   0.32586   0.33838  -0.01251
  18       18S          0.30008   0.29797   0.00211   0.29586
  19       19S          0.42183   0.40741   0.01442   0.39299
  20       20S          0.04271   0.04767  -0.00496   0.05263
  21       21S          0.24073   0.12108   0.11966   0.00142
  22       22S         -0.10928  -0.05195  -0.05733   0.00537
  23       23S         -0.00830  -0.00582  -0.00247  -0.00335
  24       24PX         0.00000   0.00000   0.00000   0.00000
  25       24PY         0.00000   0.00000   0.00000   0.00000
  26       24PZ         0.00000   0.00000   0.00000   0.00000
  27       25PX        -0.00000  -0.00000  -0.00000   0.00000
  28       25PY        -0.00000  -0.00000  -0.00000   0.00000
  29       25PZ        -0.00000  -0.00000  -0.00000  -0.00000
  30       26PX         0.00000   0.00000   0.00000   0.00000
  31       26PY         0.00000   0.00000   0.00000   0.00000
  32       26PZ         0.00000   0.00000   0.00000   0.00000
  33       27PX        -0.00000  -0.00000  -0.00000   0.00000
  34       27PY        -0.00000  -0.00000  -0.00000   0.00000
  35       27PZ        -0.00000  -0.00000  -0.00000  -0.00000
  36       28PX         0.00001   0.00000   0.00000   0.00000
  37       28PY         0.00001   0.00000   0.00000   0.00000
  38       28PZ         0.00001   0.00000   0.00000   0.00000
  39       29PX        -0.00002  -0.00001  -0.00001   0.00000
  40       29PY        -0.00002  -0.00001  -0.00001   0.00000
  41       29PZ        -0.00002  -0.00001  -0.00001  -0.00000
  42       30PX         0.00052   0.00026   0.00026   0.00000
  43       30PY         0.00052   0.00026   0.00026   0.00000
  44       30PZ         0.00055   0.00028   0.00027   0.00001
  45       31PX        -0.00031  -0.00015  -0.00016   0.00000
  46       31PY        -0.00031  -0.00015  -0.00016   0.00000
  47       31PZ        -0.00046  -0.00024  -0.00022  -0.00002
  48       32PX        -0.05947  -0.02974  -0.02973  -0.00001
  49       32PY        -0.05947  -0.02974  -0.02973  -0.00001
  50       32PZ        -0.06059  -0.03096  -0.02963  -0.00133
  51       33PX         0.00016   0.00001   0.00015  -0.00014
  52       33PY         0.00016   0.00001   0.00015  -0.00014
  53       33PZ         0.04326   0.02323   0.02003   0.00320
  54       34PX         0.56662   0.28337   0.28325   0.00012
  55       34PY         0.56662   0.28337   0.28325   0.00012
  56       34PZ         0.57221   0.29131   0.28090   0.01042
  57       35PX         0.43436   0.21718   0.21718   0.00000
  58       35PY         0.43436   0.21718   0.21718   0.00000
  59       35PZ         0.44015   0.22120   0.21895   0.00226
  60       36PX         0.50018   0.25011   0.25007   0.00005
  61       36PY         0.50018   0.25011   0.25007   0.00005
  62       36PZ         0.43240   0.21080   0.22160  -0.01081
  63       37PX         0.04020   0.02010   0.02010  -0.00000
  64       37PY         0.04020   0.02010   0.02010  -0.00000
  65       37PZ         0.06941   0.07206  -0.00265   0.07471
  66       38PX        -0.00226  -0.00113  -0.00113  -0.00000
  67       38PY        -0.00226  -0.00113  -0.00113  -0.00000
  68       38PZ         0.32903   0.33052  -0.00149   0.33201
  69       39PX         0.00023   0.00012   0.00012  -0.00000
  70       39PY         0.00023   0.00012   0.00012  -0.00000
  71       39PZ         0.22789   0.22370   0.00418   0.21952
  72       40PX         0.03689   0.01852   0.01838   0.00014
  73       40PY         0.03689   0.01852   0.01838   0.00014
  74       40PZ        -0.00026  -0.00108   0.00082  -0.00190
  75       41PX         0.47815   0.23912   0.23904   0.00008
  76       41PY         0.47815   0.23912   0.23904   0.00008
  77       41PZ         0.49845   0.25257   0.24588   0.00669
  78       42PX        -0.00002  -0.00001  -0.00001  -0.00000
  79       42PY        -0.00002  -0.00001  -0.00001  -0.00000
  80       42PZ         0.00695   0.00710  -0.00015   0.00726
  81       43D 0        0.00010   0.00008   0.00002   0.00005
  82       43D+1        0.00010   0.00010   0.00000   0.00010
  83       43D-1        0.00010   0.00010   0.00000   0.00010
  84       43D+2        0.00010   0.00010   0.00000   0.00010
  85       43D-2        0.00010   0.00010   0.00000   0.00010
  86       44D 0        0.00506   0.00391   0.00115   0.00276
  87       44D+1        0.00483   0.00483   0.00000   0.00483
  88       44D-1        0.00483   0.00483   0.00000   0.00483
  89       44D+2        0.00486   0.00486   0.00000   0.00486
  90       44D-2        0.00486   0.00486   0.00000   0.00486
  91       45D 0        0.04917   0.03799   0.01118   0.02681
  92       45D+1        0.04679   0.04678   0.00001   0.04677
  93       45D-1        0.04679   0.04678   0.00001   0.04677
  94       45D+2        0.04694   0.04694   0.00000   0.04694
  95       45D-2        0.04694   0.04694   0.00000   0.04694
  96       46D 0        0.16557   0.12473   0.04084   0.08389
  97       46D+1        0.15100   0.15101  -0.00001   0.15101
  98       46D-1        0.15100   0.15101  -0.00001   0.15101
  99       46D+2        0.15758   0.15758   0.00000   0.15758
 100       46D-2        0.15758   0.15758   0.00000   0.15758
 101       47D 0        0.65106   0.53283   0.11822   0.41461
 102       47D+1        0.58711   0.58623   0.00088   0.58536
 103       47D-1        0.58711   0.58623   0.00088   0.58536
 104       47D+2        0.44739   0.44739   0.00000   0.44739
 105       47D-2        0.44739   0.44739   0.00000   0.44739
 106       48D 0        0.39149   0.27827   0.11323   0.16504
 107       48D+1        0.30630   0.30628   0.00001   0.30627
 108       48D-1        0.30630   0.30628   0.00001   0.30627
 109       48D+2        0.31459   0.31459   0.00000   0.31459
 110       48D-2        0.31459   0.31459   0.00000   0.31459
 111       49D 0        0.15238   0.10655   0.04584   0.06071
 112       49D+1        0.11480   0.11481  -0.00000   0.11481
 113       49D-1        0.11480   0.11481  -0.00000   0.11481
 114       49D+2        0.12009   0.12009   0.00000   0.12009
 115       49D-2        0.12009   0.12009   0.00000   0.12009
 116       50D 0        0.00886   0.00590   0.00296   0.00294
 117       50D+1        0.00735   0.00735  -0.00000   0.00736
 118       50D-1        0.00735   0.00735  -0.00000   0.00736
 119       50D+2        0.00665   0.00665   0.00000   0.00665
 120       50D-2        0.00665   0.00665   0.00000   0.00665
 121       51D 0        0.02838   0.02492   0.00346   0.02146
 122       51D+1        0.03115   0.03110   0.00005   0.03105
 123       51D-1        0.03115   0.03110   0.00005   0.03105
 124       51D+2        0.02309   0.02309   0.00000   0.02309
 125       51D-2        0.02309   0.02309   0.00000   0.02309
 126       52D 0       -0.27882  -0.25297  -0.02585  -0.22712
 127       52D+1       -0.26110  -0.26029  -0.00082  -0.25947
 128       52D-1       -0.26110  -0.26029  -0.00082  -0.25947
 129       52D+2       -0.12078  -0.12078  -0.00000  -0.12078
 130       52D-2       -0.12078  -0.12078  -0.00000  -0.12078
 131       53D 0        0.00001   0.00005  -0.00004   0.00010
 132       53D+1       -0.00009  -0.00009  -0.00000  -0.00009
 133       53D-1       -0.00009  -0.00009  -0.00000  -0.00009
 134       53D+2       -0.00011  -0.00011  -0.00000  -0.00011
 135       53D-2       -0.00011  -0.00011  -0.00000  -0.00011
 136       54F 0        0.00005   0.00002   0.00002   0.00000
 137       54F+1        0.00000   0.00000  -0.00000   0.00000
 138       54F-1        0.00000   0.00000  -0.00000   0.00000
 139       54F+2        0.00000   0.00000  -0.00000   0.00000
 140       54F-2        0.00000   0.00000   0.00000   0.00000
 141       54F+3       -0.00000   0.00000  -0.00000   0.00000
 142       54F-3        0.00000   0.00000   0.00000   0.00000
 143       55F 0        0.00091   0.00047   0.00044   0.00003
 144       55F+1        0.00004   0.00004   0.00000   0.00004
 145       55F-1        0.00004   0.00004   0.00000   0.00004
 146       55F+2        0.00000   0.00000  -0.00000   0.00000
 147       55F-2        0.00000   0.00000  -0.00000   0.00000
 148       55F+3        0.00000   0.00000   0.00000   0.00000
 149       55F-3        0.00000   0.00000   0.00000   0.00000
 150       56F 0        0.00317   0.00164   0.00153   0.00010
 151       56F+1        0.00003   0.00004  -0.00000   0.00004
 152       56F-1        0.00003   0.00004  -0.00000   0.00004
 153       56F+2        0.00001   0.00001   0.00000   0.00001
 154       56F-2        0.00001   0.00001  -0.00000   0.00001
 155       56F+3        0.00000   0.00000  -0.00000   0.00000
 156       56F-3        0.00000   0.00000  -0.00000   0.00000
 157       57F 0       -0.00019  -0.00013  -0.00006  -0.00007
 158       57F+1        0.00000   0.00000  -0.00000   0.00000
 159       57F-1        0.00000   0.00000  -0.00000   0.00000
 160       57F+2        0.00000   0.00000  -0.00000   0.00000
 161       57F-2        0.00000   0.00000  -0.00000   0.00000
 162       57F+3        0.00000   0.00000   0.00000   0.00000
 163       57F-3        0.00000   0.00000  -0.00000   0.00000
 164       58G 0        0.00000   0.00000   0.00000  -0.00000
 165       58G+1        0.00000   0.00000   0.00000  -0.00000
 166       58G-1        0.00000   0.00000   0.00000  -0.00000
 167       58G+2        0.00000   0.00000  -0.00000   0.00000
 168       58G-2        0.00000   0.00000  -0.00000   0.00000
 169       58G+3       -0.00000  -0.00000  -0.00000   0.00000
 170       58G-3        0.00000   0.00000  -0.00000   0.00000
 171       58G+4       -0.00000  -0.00000  -0.00000   0.00000
 172       58G-4        0.00000   0.00000  -0.00000   0.00000
 173       59G 0        0.00012   0.00006   0.00006   0.00000
 174       59G+1        0.00000   0.00000   0.00000   0.00000
 175       59G-1        0.00000   0.00000   0.00000   0.00000
 176       59G+2        0.00000   0.00000   0.00000   0.00000
 177       59G-2        0.00000   0.00000   0.00000   0.00000
 178       59G+3       -0.00000  -0.00000   0.00000  -0.00000
 179       59G-3        0.00000   0.00000   0.00000   0.00000
 180       59G+4        0.00000   0.00000   0.00000  -0.00000
 181       59G-4        0.00000   0.00000   0.00000   0.00000
 182       60G 0       -0.00007  -0.00001  -0.00006   0.00006
 183       60G+1       -0.00002  -0.00002  -0.00000  -0.00002
 184       60G-1       -0.00002  -0.00002  -0.00000  -0.00002
 185       60G+2        0.00000   0.00000  -0.00000   0.00000
 186       60G-2        0.00000   0.00000  -0.00000   0.00000
 187       60G+3        0.00000   0.00000  -0.00000   0.00000
 188       60G-3        0.00000   0.00000   0.00000   0.00000
 189       60G+4        0.00000   0.00000  -0.00000   0.00000
 190       60G-4       -0.00000  -0.00000  -0.00000  -0.00000
 191 2   H  1S          0.00121   0.00061   0.00060   0.00001
 192        2S          0.04068   0.02058   0.02010   0.00048
 193        3S          0.29611   0.14967   0.14645   0.00322
 194        4S          0.70779   0.37123   0.33656   0.03467
 195        5S          0.42683   0.20358   0.22324  -0.01966
 196        6S          0.06771   0.05473   0.01298   0.04174
 197        7PX         0.00448   0.00413   0.00034   0.00379
 198        7PY         0.00448   0.00413   0.00034   0.00379
 199        7PZ         0.01682   0.01096   0.00586   0.00510
 200        8PX         0.00749   0.00658   0.00091   0.00568
 201        8PY         0.00749   0.00658   0.00091   0.00568
 202        8PZ        -0.00391  -0.00056  -0.00335   0.00279
 203        9PX         0.00117   0.00081   0.00036   0.00045
 204        9PY         0.00117   0.00081   0.00036   0.00045
 205        9PZ        -0.01305  -0.00816  -0.00489  -0.00327
 206       10D 0        0.00432   0.00286   0.00146   0.00140
 207       10D+1        0.00269   0.00221   0.00048   0.00174
 208       10D-1        0.00269   0.00221   0.00048   0.00174
 209       10D+2        0.00029   0.00029   0.00000   0.00029
 210       10D-2        0.00029   0.00029   0.00000   0.00029
 211       11D 0        0.00016   0.00052  -0.00036   0.00089
 212       11D+1        0.00065   0.00036   0.00028   0.00008
 213       11D-1        0.00065   0.00036   0.00028   0.00008
 214       11D+2       -0.00070  -0.00070  -0.00000  -0.00070
 215       11D-2       -0.00070  -0.00070  -0.00000  -0.00070
          Condensed to atoms (all electrons):
               1          2
     1  Mn  14.522422  -0.099233
     2  H   -0.099233   1.676044
          Atomic-Atomic Spin Densities.
               1          2
     1  Mn   5.888133   0.021845
     2  H    0.021845   0.068178
 Mulliken charges and spin densities:
               1          2
     1  Mn   0.576811   5.909978
     2  H   -0.576811   0.090022
 Sum of Mulliken charges =  -0.00000   6.00000
 Mulliken charges and spin densities with hydrogens summed into heavy atoms:
               1          2
     1  Mn  -0.000000   6.000000
 Electronic spatial extent (au):  <R**2>=             46.5876
 Charge=             -0.0000 electrons
 Dipole moment (field-independent basis, Debye):
    X=              0.0000    Y=              0.0000    Z=             -1.2891  Tot=              1.2891
 Quadrupole moment (field-independent basis, Debye-Ang):
   XX=            -16.1455   YY=            -16.1455   ZZ=            -25.8236
   XY=              0.0000   XZ=              0.0000   YZ=              0.0000
 Traceless Quadrupole moment (field-independent basis, Debye-Ang):
   XX=              3.2261   YY=              3.2261   ZZ=             -6.4521
   XY=              0.0000   XZ=              0.0000   YZ=              0.0000
 Octapole moment (field-independent basis, Debye-Ang**2):
  XXX=              0.0000  YYY=              0.0000  ZZZ=            -11.1983  XYY=              0.0000
  XXY=              0.0000  XXZ=             -3.6478  XZZ=              0.0000  YZZ=              0.0000
  YYZ=             -3.6478  XYZ=              0.0000
 Hexadecapole moment (field-independent basis, Debye-Ang**3):
 XXXX=            -30.6421 YYYY=            -30.6421 ZZZZ=            -93.9521 XXXY=              0.0000
 XXXZ=              0.0000 YYYX=              0.0000 YYYZ=              0.0000 ZZZX=              0.0000
 ZZZY=              0.0000 XXYY=            -10.2140 XXZZ=            -20.2627 YYZZ=            -20.2627
 XXYZ=              0.0000 YYXZ=              0.0000 ZZXY=              0.0000
 N-N= 7.937658163800D+00 E-N=-2.559089774816D+02  KE= 5.955608830194D+01
 Symmetry A1   KE= 2.640611409099D+01
 Symmetry A2   KE= 6.447969953658D+00
 Symmetry B1   KE= 1.335100213042D+01
 Symmetry B2   KE= 1.335100212842D+01
 Symmetry A1   SP= 3.000000000000D+00
 Symmetry A2   SP= 1.000000000000D+00
 Symmetry B1   SP= 1.000000000000D+00
 Symmetry B2   SP= 1.000000000000D+00
 Orbital energies and kinetic energies (alpha):
                                 1                 2
   1         O                -4.171604          2.073134
   2         O                -2.777150          3.358208
   3         O                -2.751607          3.464774
   4         O                -2.751607          3.464774
   5         O                -0.720268          2.400052
   6         O                -0.650033          3.153345
   7         O                -0.650033          6.421454
   8         O                -0.637719          6.421454
   9         O                -0.637719          6.447970
  10         O                -0.395280          6.447970
  11         O                -0.212980          1.142011
  12         V                 0.012386          0.062490
  13         V                 0.012386          0.062490
  14         V                 0.019117          0.031974
  15         V                 0.035042          0.048356
  16         V                 0.057135          0.182835
 Total kinetic energy from orbitals= 8.959029298626D+01
                          Isotropic Fermi Contact Couplings
        Atom                 a.u.       MegaHertz       Gauss      10(-4) cm-1
     1  Mn(55)             0.00119       0.21864       0.07802       0.07293
     2  H(1)               0.00704       5.24554       1.87174       1.74972
 --------------------------------------------------------
       Center         ----  Spin Dipole Couplings  ----
                      3XX-RR        3YY-RR        3ZZ-RR
 --------------------------------------------------------
     1   Atom        0.148072      0.148072     -0.296145
     2   Atom       -0.487114     -0.487114      0.974229
 --------------------------------------------------------
                        XY            XZ            YZ
 --------------------------------------------------------
     1   Atom        0.000000      0.000000      0.000000
     2   Atom        0.000000      0.000000      0.000000
 --------------------------------------------------------


 ---------------------------------------------------------------------------------
              Anisotropic Spin Dipole Couplings in Principal Axis System
 ---------------------------------------------------------------------------------

       Atom             a.u.   MegaHertz   Gauss  10(-4) cm-1        Axes

              Baa    -0.2961   -39.074   -13.943   -13.034  0.0000  0.0000  1.0000
     1 Mn(55) Bbb     0.1481    19.537     6.971     6.517  1.0000  0.0000  0.0000
              Bcc     0.1481    19.537     6.971     6.517 -0.0000  1.0000  0.0000
 
              Baa    -0.4871  -259.901   -92.739   -86.694 -0.0000  1.0000  0.0000
     2 H(1)   Bbb    -0.4871  -259.901   -92.739   -86.694  1.0000  0.0000  0.0000
              Bcc     0.9742   519.802   185.478   173.387  0.0000  0.0000  1.0000
 

 ---------------------------------------------------------------------------------

 No NMR shielding tensors so no spin-rotation constants.
 Leave Link  601 at Sun Feb 25 17:30:30 2018, MaxMem=  8589934592 cpu:              43.0 elap:               2.8
 (Enter /home1/apps/gaussian/16rA.03/g16/l9999.exe)

 Test job not archived.
 1\1\GINC-C402-082\SP\ROCCSD(T)-Full\Gen\H1Mn1(7)\AANNABE\25-Feb-2018\0
 \\#P ROCCSD(T)=(maxcyc=150, Full, SaveAmplitudes, ReadAmplitudes)/Gen 
 5d 7f SCF=(maxcycles=300) Integral(NoXCTest) MaxDisk=500GB Pop=Regular
  Pseudo=Read Guess=Read IOp(5/15=2)\\MnH\\0,7\Mn,0,0.,0.,0.\H,0,0.,0.,
 1.\\Version=ES64L-G16RevA.03\State=7-SG\HF=-103.9525534\MP2=-104.57586
 67\MP3=-104.5613194\PUHF=-103.9525534\PMP2-0=-104.5758667\MP4SDQ=-104.
 5702692\CCSD=-104.5696294\CCSD(T)=-104.5879486\RMSD=2.037e-09\PG=C*V [
 C*(H1Mn1)]\\@


 I LOVE MANKIND - IT'S PEOPLE I CAN'T STAND.
     -- LINUS OF PEANUTS
 Job cpu time:       0 days  2 hours 43 minutes 25.5 seconds.
 Elapsed time:       0 days  0 hours 10 minutes 17.0 seconds.
 File lengths (MBytes):  RWF=   2543 Int=      0 D2E=      0 Chk=     13 Scr=      1
 Normal termination of Gaussian 16 at Sun Feb 25 17:30:31 2018.
