 Entering Gaussian System, Link 0=g16
 Initial command:
 /home1/apps/gaussian/16rA.03/g16/l1.exe "/tmp/Gau-117436.inp" -scrdir="/tmp/"
 Entering Link 1 = /home1/apps/gaussian/16rA.03/g16/l1.exe PID=    117437.
  
 Copyright (c) 1988,1990,1992,1993,1995,1998,2003,2009,2016,
            Gaussian, Inc.  All Rights Reserved.
  
 This is part of the Gaussian(R) 16 program.  It is based on
 the Gaussian(R) 09 system (copyright 2009, Gaussian, Inc.),
 the Gaussian(R) 03 system (copyright 2003, Gaussian, Inc.),
 the Gaussian(R) 98 system (copyright 1998, Gaussian, Inc.),
 the Gaussian(R) 94 system (copyright 1995, Gaussian, Inc.),
 the Gaussian 92(TM) system (copyright 1992, Gaussian, Inc.),
 the Gaussian 90(TM) system (copyright 1990, Gaussian, Inc.),
 the Gaussian 88(TM) system (copyright 1988, Gaussian, Inc.),
 the Gaussian 86(TM) system (copyright 1986, Carnegie Mellon
 University), and the Gaussian 82(TM) system (copyright 1983,
 Carnegie Mellon University). Gaussian is a federally registered
 trademark of Gaussian, Inc.
  
 This software contains proprietary and confidential information,
 including trade secrets, belonging to Gaussian, Inc.
  
 This software is provided under written license and may be
 used, copied, transmitted, or stored only in accord with that
 written license.
  
 The following legend is applicable only to US Government
 contracts under FAR:
  
                    RESTRICTED RIGHTS LEGEND
  
 Use, reproduction and disclosure by the US Government is
 subject to restrictions as set forth in subparagraphs (a)
 and (c) of the Commercial Computer Software - Restricted
 Rights clause in FAR 52.227-19.
  
 Gaussian, Inc.
 340 Quinnipiac St., Bldg. 40, Wallingford CT 06492
  
  
 ---------------------------------------------------------------
 Warning -- This program may not be used in any manner that
 competes with the business of Gaussian, Inc. or will provide
 assistance to any competitor of Gaussian, Inc.  The licensee
 of this program is prohibited from giving any competitor of
 Gaussian, Inc. access to this program.  By using this program,
 the user acknowledges that Gaussian, Inc. is engaged in the
 business of creating and licensing software in the field of
 computational chemistry and represents and warrants to the
 licensee that it is not a competitor of Gaussian, Inc. and that
 it will not use this program in any manner prohibited above.
 ---------------------------------------------------------------
  

 Cite this work as:
 Gaussian 16, Revision A.03,
 M. J. Frisch, G. W. Trucks, H. B. Schlegel, G. E. Scuseria, 
 M. A. Robb, J. R. Cheeseman, G. Scalmani, V. Barone, 
 G. A. Petersson, H. Nakatsuji, X. Li, M. Caricato, A. V. Marenich, 
 J. Bloino, B. G. Janesko, R. Gomperts, B. Mennucci, H. P. Hratchian, 
 J. V. Ortiz, A. F. Izmaylov, J. L. Sonnenberg, D. Williams-Young, 
 F. Ding, F. Lipparini, F. Egidi, J. Goings, B. Peng, A. Petrone, 
 T. Henderson, D. Ranasinghe, V. G. Zakrzewski, J. Gao, N. Rega, 
 G. Zheng, W. Liang, M. Hada, M. Ehara, K. Toyota, R. Fukuda, 
 J. Hasegawa, M. Ishida, T. Nakajima, Y. Honda, O. Kitao, H. Nakai, 
 T. Vreven, K. Throssell, J. A. Montgomery, Jr., J. E. Peralta, 
 F. Ogliaro, M. J. Bearpark, J. J. Heyd, E. N. Brothers, K. N. Kudin, 
 V. N. Staroverov, T. A. Keith, R. Kobayashi, J. Normand, 
 K. Raghavachari, A. P. Rendell, J. C. Burant, S. S. Iyengar, 
 J. Tomasi, M. Cossi, J. M. Millam, M. Klene, C. Adamo, R. Cammi, 
 J. W. Ochterski, R. L. Martin, K. Morokuma, O. Farkas, 
 J. B. Foresman, and D. J. Fox, Gaussian, Inc., Wallingford CT, 2016.
 
 ******************************************
 Gaussian 16:  ES64L-G16RevA.03 25-Dec-2016
                29-Mar-2018 
 ******************************************
 %mem=80GB
 %chk=tz.chk
 %cpu=0-31
 SetSPE:  set environment variable "MP_BIND" = "yes"
 SetSPE:  set environment variable "MP_BLIST" = "0,1,2,3,4,5,6,7,8,9,10,11,12,13,14,15,16,17,18,19,20,21,22,23,24,25,26,27,28,29,30,31"
 Will use up to   32 processors via shared memory.
 ----------------------------------------------------------------------
 #P ROCCSD(T)=(MaxCyc=150, Full)/Gen SCF=(maxcycle=400) Integral(DKHSO,
  NoXCTest) Pop=Regular MaxDisk=500GB
 ----------------------------------------------------------------------
 1/38=1,172=1/1;
 2/12=2,17=6,18=5,40=1/2;
 3/5=7,11=2,25=1,30=1,47=8,91=5,116=101/1,2,3;
 4//1;
 5/5=2,7=400,38=5/2;
 8/5=-1,6=4,9=120000,10=90/1,4;
 9/5=7,6=150,14=2/13;
 6//1;
 99/5=1,9=1/99;
 Leave Link    1 at Thu Mar 29 05:01:31 2018, MaxMem= 10737418240 cpu:               7.3 elap:               0.2
 (Enter /home1/apps/gaussian/16rA.03/g16/l101.exe)
 --
 Zn
 --
 Symbolic Z-matrix:
 Charge =  0 Multiplicity = 1
 Zn                    0.        0.        0. 
 
 ITRead=  0
 MicOpt= -1
 NAtoms=      1 NQM=        1 NQMF=       0 NMMI=      0 NMMIF=      0
                NMic=       0 NMicF=      0.
                    Isotopes and Nuclear Properties:
 (Nuclear quadrupole moments (NQMom) in fm**2, nuclear magnetic moments (NMagM)
  in nuclear magnetons)

  Atom         1
 IAtWgt=          64
 AtmWgt=  63.9291454
 NucSpn=           0
 AtZEff=  -0.0000000
 NQMom=    0.0000000
 NMagM=    0.0000000
 AtZNuc=  30.0000000
 Leave Link  101 at Thu Mar 29 05:01:31 2018, MaxMem= 10737418240 cpu:               3.3 elap:               0.1
 (Enter /home1/apps/gaussian/16rA.03/g16/l202.exe)
                          Input orientation:                          
 ---------------------------------------------------------------------
 Center     Atomic      Atomic             Coordinates (Angstroms)
 Number     Number       Type             X           Y           Z
 ---------------------------------------------------------------------
      1         30           0        0.000000    0.000000    0.000000
 ---------------------------------------------------------------------
 Stoichiometry    Zn
 Framework group  OH[O(Zn)]
 Deg. of freedom     0
 Full point group                 OH      NOp  48
 Largest Abelian subgroup         D2H     NOp   8
 Largest concise Abelian subgroup C1      NOp   1
                         Standard orientation:                         
 ---------------------------------------------------------------------
 Center     Atomic      Atomic             Coordinates (Angstroms)
 Number     Number       Type             X           Y           Z
 ---------------------------------------------------------------------
      1         30           0        0.000000    0.000000    0.000000
 ---------------------------------------------------------------------
 Leave Link  202 at Thu Mar 29 05:01:32 2018, MaxMem= 10737418240 cpu:               1.2 elap:               0.1
 (Enter /home1/apps/gaussian/16rA.03/g16/l301.exe)
 General basis read from cards:  (5D, 7F)
 Centers:       1
 S 1 1.00
     Exponent=  5.8200210000D+06 Coefficients=  1.0000000000D+00
 S 1 1.00
     Exponent=  8.7152340000D+05 Coefficients=  1.0000000000D+00
 S 1 1.00
     Exponent=  1.9833500000D+05 Coefficients=  1.0000000000D+00
 S 1 1.00
     Exponent=  5.6176310000D+04 Coefficients=  1.0000000000D+00
 S 1 1.00
     Exponent=  1.8325820000D+04 Coefficients=  1.0000000000D+00
 S 1 1.00
     Exponent=  6.6149550000D+03 Coefficients=  1.0000000000D+00
 S 1 1.00
     Exponent=  2.5791990000D+03 Coefficients=  1.0000000000D+00
 S 1 1.00
     Exponent=  1.0688490000D+03 Coefficients=  1.0000000000D+00
 S 1 1.00
     Exponent=  4.6510450000D+02 Coefficients=  1.0000000000D+00
 S 1 1.00
     Exponent=  2.1041300000D+02 Coefficients=  1.0000000000D+00
 S 1 1.00
     Exponent=  9.7616290000D+01 Coefficients=  1.0000000000D+00
 S 1 1.00
     Exponent=  4.4380200000D+01 Coefficients=  1.0000000000D+00
 S 1 1.00
     Exponent=  2.1423080000D+01 Coefficients=  1.0000000000D+00
 S 1 1.00
     Exponent=  1.0308910000D+01 Coefficients=  1.0000000000D+00
 S 1 1.00
     Exponent=  4.5536450000D+00 Coefficients=  1.0000000000D+00
 S 1 1.00
     Exponent=  2.1328210000D+00 Coefficients=  1.0000000000D+00
 S 1 1.00
     Exponent=  9.2969700000D-01 Coefficients=  1.0000000000D+00
 S 1 1.00
     Exponent=  1.9214700000D-01 Coefficients=  1.0000000000D+00
 S 1 1.00
     Exponent=  8.7595000000D-02 Coefficients=  1.0000000000D+00
 S 1 1.00
     Exponent=  3.7702000000D-02 Coefficients=  1.0000000000D+00
 S 1 1.00
     Exponent=  7.0381000000D+00 Coefficients=  1.0000000000D+00
 S 1 1.00
     Exponent=  1.8099000000D+00 Coefficients=  1.0000000000D+00
 S 1 1.00
     Exponent=  1.6230000000D-02 Coefficients=  1.0000000000D+00
 P 1 1.00
     Exponent=  2.4411980000D+04 Coefficients=  1.0000000000D+00
 P 1 1.00
     Exponent=  5.7785180000D+03 Coefficients=  1.0000000000D+00
 P 1 1.00
     Exponent=  1.8768620000D+03 Coefficients=  1.0000000000D+00
 P 1 1.00
     Exponent=  7.1823610000D+02 Coefficients=  1.0000000000D+00
 P 1 1.00
     Exponent=  3.0483270000D+02 Coefficients=  1.0000000000D+00
 P 1 1.00
     Exponent=  1.3904530000D+02 Coefficients=  1.0000000000D+00
 P 1 1.00
     Exponent=  6.6804170000D+01 Coefficients=  1.0000000000D+00
 P 1 1.00
     Exponent=  3.3206990000D+01 Coefficients=  1.0000000000D+00
 P 1 1.00
     Exponent=  1.6928160000D+01 Coefficients=  1.0000000000D+00
 P 1 1.00
     Exponent=  8.6962290000D+00 Coefficients=  1.0000000000D+00
 P 1 1.00
     Exponent=  4.3505100000D+00 Coefficients=  1.0000000000D+00
 P 1 1.00
     Exponent=  2.1165230000D+00 Coefficients=  1.0000000000D+00
 P 1 1.00
     Exponent=  9.9538700000D-01 Coefficients=  1.0000000000D+00
 P 1 1.00
     Exponent=  3.7811200000D-01 Coefficients=  1.0000000000D+00
 P 1 1.00
     Exponent=  1.3457900000D-01 Coefficients=  1.0000000000D+00
 P 1 1.00
     Exponent=  4.6282000000D-02 Coefficients=  1.0000000000D+00
 P 1 1.00
     Exponent=  1.0150100000D+01 Coefficients=  1.0000000000D+00
 P 1 1.00
     Exponent=  2.3451000000D+00 Coefficients=  1.0000000000D+00
 P 1 1.00
     Exponent=  1.5920000000D-02 Coefficients=  1.0000000000D+00
 D 1 1.00
     Exponent=  2.0561770000D+02 Coefficients=  1.0000000000D+00
 D 1 1.00
     Exponent=  6.1449810000D+01 Coefficients=  1.0000000000D+00
 D 1 1.00
     Exponent=  2.3056890000D+01 Coefficients=  1.0000000000D+00
 D 1 1.00
     Exponent=  9.5777390000D+00 Coefficients=  1.0000000000D+00
 D 1 1.00
     Exponent=  4.1337340000D+00 Coefficients=  1.0000000000D+00
 D 1 1.00
     Exponent=  1.7475180000D+00 Coefficients=  1.0000000000D+00
 D 1 1.00
     Exponent=  6.9956000000D-01 Coefficients=  1.0000000000D+00
 D 1 1.00
     Exponent=  2.5160800000D-01 Coefficients=  1.0000000000D+00
 D 1 1.00
     Exponent=  7.7440000000D+00 Coefficients=  1.0000000000D+00
 D 1 1.00
     Exponent=  3.9663000000D+00 Coefficients=  1.0000000000D+00
 D 1 1.00
     Exponent=  9.0490000000D-02 Coefficients=  1.0000000000D+00
 F 1 1.00
     Exponent=  1.0327000000D+01 Coefficients=  1.0000000000D+00
 F 1 1.00
     Exponent=  4.0202000000D+00 Coefficients=  1.0000000000D+00
 F 1 1.00
     Exponent=  1.4851000000D+00 Coefficients=  1.0000000000D+00
 F 1 1.00
     Exponent=  5.4861000000D-01 Coefficients=  1.0000000000D+00
 G 1 1.00
     Exponent=  9.2538000000D+00 Coefficients=  1.0000000000D+00
 G 1 1.00
     Exponent=  4.1144000000D+00 Coefficients=  1.0000000000D+00
 G 1 1.00
     Exponent=  1.8293300000D+00 Coefficients=  1.0000000000D+00
 ****
 Ernie: Thresh=  0.10000D-02 Tol=  0.10000D-05 Strict=F.
 There are    74 symmetry adapted cartesian basis functions of AG  symmetry.
 There are    20 symmetry adapted cartesian basis functions of B1G symmetry.
 There are    20 symmetry adapted cartesian basis functions of B2G symmetry.
 There are    20 symmetry adapted cartesian basis functions of B3G symmetry.
 There are     4 symmetry adapted cartesian basis functions of AU  symmetry.
 There are    31 symmetry adapted cartesian basis functions of B1U symmetry.
 There are    31 symmetry adapted cartesian basis functions of B2U symmetry.
 There are    31 symmetry adapted cartesian basis functions of B3U symmetry.
 There are    54 symmetry adapted basis functions of AG  symmetry.
 There are    17 symmetry adapted basis functions of B1G symmetry.
 There are    17 symmetry adapted basis functions of B2G symmetry.
 There are    17 symmetry adapted basis functions of B3G symmetry.
 There are     4 symmetry adapted basis functions of AU  symmetry.
 There are    27 symmetry adapted basis functions of B1U symmetry.
 There are    27 symmetry adapted basis functions of B2U symmetry.
 There are    27 symmetry adapted basis functions of B3U symmetry.
   190 basis functions,   231 primitive gaussians,   231 cartesian basis functions
    15 alpha electrons       15 beta electrons
       nuclear repulsion energy         0.0000000000 Hartrees.
 IExCor=    0 DFT=F Ex=HF Corr=None ExCW=0 ScaHFX=  1.000000
 ScaDFX=  1.000000  1.000000  1.000000  1.000000 ScalE2=  1.000000  1.000000
 IRadAn=      5 IRanWt=     -1 IRanGd=            0 ICorTp=0 IEmpDi=  4
 NAtoms=    1 NActive=    1 NUniq=    1 SFac= 1.00D+00 NAtFMM=   60 NAOKFM=F Big=F
 Integral buffers will be    131072 words long.
 Raffenetti 2 integral format.
 Two-electron integral symmetry is turned on.
 FoFCou: FMM=F IPFlag=           8 FMFlag=           0 FMFlg1=           0
         NFxFlg=           0 DoJE=F BraDBF=T KetDBF=T FulRan=T
         wScrn=  0.000000 ICntrl=       600 IOpCl=  3 I1Cent=           6 NGrid=           0
         NMat0=    1 NMatS0=      1 NMatT0=    0 NMatD0=    1 NMtDS0=    0 NMtDT0=    0
 Symmetry not used in FoFCou.
 Finite nuclear repulsion energy         0.0000000000.
 Leave Link  301 at Thu Mar 29 05:01:33 2018, MaxMem= 10737418240 cpu:              12.9 elap:               0.4
 (Enter /home1/apps/gaussian/16rA.03/g16/l302.exe)
 Using DK4 one-electron Hamiltonian with SO, DoBoet=T.
 NPDir=0 NMtPBC=     1 NCelOv=     1 NCel=       1 NClECP=     1 NCelD=      1
         NCelK=      1 NCelE2=     1 NClLst=     1 CellRange=     0.0.
 One-electron integrals computed using PRISM.
 One-electron integral symmetry used in STVInt
 FoFCou: FMM=F IPFlag=           8 FMFlag=      100000 FMFlg1=           0
         NFxFlg=           0 DoJE=T BraDBF=F KetDBF=T FulRan=T
         wScrn=  0.000000 ICntrl=       500 IOpCl=  0 I1Cent=           4 NGrid=           0
         NMat0=    1 NMatS0=      1 NMatT0=    0 NMatD0=    1 NMtDS0=    0 NMtDT0=    0
 Symmetry not used in FoFCou.
 UnConB:  Uncontracting AO basis from    190 functions to    190 functions (excluding duplicates).
 GSVD:  received Info=                   1 from GESDD.
 RelInt: Using uncontracted basis, NUnBas=   190 NBsUse=   190 0.100E-13 EigKep=  3.66D-06 EigRej= -1.00D+00
 NBasis=   190 RedAO= T EigKep=  3.66D-06  NBF=    54    17    17    17     4    27    27    27
 NBsUse=   190 1.00D-06 EigRej= -1.00D+00 NBFU=    54    17    17    17     4    27    27    27
 Leave Link  302 at Thu Mar 29 05:01:38 2018, MaxMem= 10737418240 cpu:             126.5 elap:               5.0
 (Enter /home1/apps/gaussian/16rA.03/g16/l303.exe)
 DipDrv:  MaxL=1.
 Leave Link  303 at Thu Mar 29 05:01:39 2018, MaxMem= 10737418240 cpu:               2.2 elap:               0.1
 (Enter /home1/apps/gaussian/16rA.03/g16/l401.exe)
 ExpMin= 1.59D-02 ExpMax= 5.82D+06 ExpMxC= 5.82D+06 IAcc=4 IRadAn=    199590 AccDes= 0.00D+00
 Harris functional with IExCor=  205 and IRadAn=  199590 diagonalized for initial guess.
 HarFok:  IExCor=  205 AccDes= 0.00D+00 IRadAn=    199590 IDoV= 1 UseB2=F ITyADJ=14
 ICtDFT=  3500011 ScaDFX=  1.000000  1.000000  1.000000  1.000000
 FoFCou: FMM=F IPFlag=           8 FMFlag=      100000 FMFlg1=           0
         NFxFlg=           0 DoJE=T BraDBF=F KetDBF=T FulRan=T
         wScrn=  0.000000 ICntrl=       500 IOpCl=  0 I1Cent=   200000004 NGrid=           0
         NMat0=    1 NMatS0=      1 NMatT0=    0 NMatD0=    1 NMtDS0=    0 NMtDT0=    0
 Petite list used in FoFCou.
 Harris En= -1793.57414819571    
 JPrj=0 DoOrth=F DoCkMO=F.
 Initial guess orbital symmetries:
       Occupied  (A1G) (A1G) (T1U) (T1U) (T1U) (A1G) (T1U) (T1U)
                 (T1U) (T2G) (T2G) (EG) (T2G) (EG) (A1G)
       Virtual   (T1U) (T1U) (T1U) (A1G) (T1U) (T1U) (T1U) (A1G)
                 (T2G) (T2G) (EG) (T2G) (EG) (T1U) (T1U) (T1U)
                 (A1G) (T2G) (T2G) (T2G) (EG) (EG) (T1U) (T1U)
                 (T1U) (?A) (A2U) (?A) (?A) (?A) (?A) (?A) (A1G)
                 (T2G) (T2G) (T2G) (EG) (EG) (T1U) (T1U) (T1U)
                 (?A) (A2U) (?A) (?A) (?A) (?A) (?A) (T2G) (T2G)
                 (EG) (EG) (T2G) (T1G) (T1G) (T1G) (T2G) (T2G)
                 (T2G) (EG) (EG) (A1G) (A1G) (T1U) (T1U) (T1U)
                 (?A) (?A) (?A) (A2U) (?A) (?A) (?A) (EG) (EG)
                 (T2G) (T2G) (T2G) (T1U) (T1U) (T1U) (A1G) (T1G)
                 (T1G) (T1G) (T2G) (T2G) (T2G) (T2G) (T2G) (T2G)
                 (EG) (EG) (T2G) (T2G) (T2G) (?A) (?A) (?A) (A2U)
                 (?A) (?A) (?A) (T1U) (T1U) (T1U) (A1G) (T1G) (T1G)
                 (T1G) (T2G) (T2G) (T2G) (T2G) (T2G) (T2G) (EG)
                 (EG) (T2G) (T2G) (T2G) (T1U) (T1U) (T1U) (A1G)
                 (T2G) (EG) (T2G) (EG) (T2G) (T1U) (T1U) (T1U)
                 (A1G) (T2G) (T2G) (T2G) (EG) (EG) (T1U) (T1U)
                 (T1U) (A1G) (T1U) (T1U) (T1U) (T2G) (T2G) (T2G)
                 (EG) (EG) (T1U) (T1U) (T1U) (A1G) (T1U) (T1U)
                 (T1U) (A1G) (T1U) (T1U) (T1U) (A1G) (A1G) (T1U)
                 (T1U) (T1U) (A1G) (T1U) (T1U) (T1U) (A1G) (A1G)
                 (A1G) (A1G)
 The electronic state of the initial guess is 1-A1G.
 Leave Link  401 at Thu Mar 29 05:01:41 2018, MaxMem= 10737418240 cpu:              46.5 elap:               1.6
 (Enter /home1/apps/gaussian/16rA.03/g16/l502.exe)
 Keep R1 and R2 ints in memory in symmetry-blocked form, NReq=200881053.
 FoFCou: FMM=F IPFlag=           8 FMFlag=           0 FMFlg1=           0
         NFxFlg=           0 DoJE=F BraDBF=F KetDBF=F FulRan=T
         wScrn=  0.000000 ICntrl=       600 IOpCl=  0 I1Cent=           0 NGrid=           0
         NMat0=    1 NMatS0=  18145 NMatT0=    0 NMatD0=    1 NMtDS0=    0 NMtDT0=    0
 Petite list used in FoFCou.
 Restricted open shell SCF:
 Using DIIS extrapolation, IDIIS=  1040.
 NGot= 10737418240 LenX= 10694695884 LenY= 10694642082
 Requested convergence on RMS density matrix=1.00D-08 within 400 cycles.
 Requested convergence on MAX density matrix=1.00D-06.
 Requested convergence on             energy=1.00D-06.
 No special actions if energy rises.

 Cycle   1  Pass 1  IDiag  1:
 E= -1794.19004524473    
 DIIS: error= 2.18D-01 at cycle   1 NSaved=   1.
 NSaved= 1 IEnMin= 1 EnMin= -1794.19004524473     IErMin= 1 ErrMin= 2.18D-01
 ErrMax= 2.18D-01  0.00D+00 EMaxC= 1.00D-01 BMatC= 2.50D+00 BMatP= 2.50D+00
 IDIUse=3 WtCom= 0.00D+00 WtEn= 1.00D+00
 Coeff-Com:  0.100D+01
 Coeff-En:   0.100D+01
 Coeff:      0.100D+01
 Gap=     0.365 Goal=   None    Shift=    0.000
 GapD=    0.365 DampG=1.000 DampE=0.125 DampFc=0.1250 IDamp=-1.
 Damping current iteration by 1.25D-01
 RMSDP=1.04D-03 MaxDP=5.86D-02              OVMax= 6.26D-02

 Cycle   2  Pass 1  IDiag  1:
 E= -1794.20162228666     Delta-E=       -0.011577041933 Rises=F Damp=T
 DIIS: error= 1.91D-01 at cycle   2 NSaved=   2.
 NSaved= 2 IEnMin= 2 EnMin= -1794.20162228666     IErMin= 2 ErrMin= 1.91D-01
 ErrMax= 1.91D-01  0.00D+00 EMaxC= 1.00D-01 BMatC= 1.91D+00 BMatP= 2.50D+00
 IDIUse=3 WtCom= 0.00D+00 WtEn= 1.00D+00
 Coeff-Com: -0.668D+01 0.768D+01
 Coeff-En:   0.000D+00 0.100D+01
 Coeff:      0.000D+00 0.100D+01
 Gap=     0.337 Goal=   None    Shift=    0.000
 RMSDP=9.62D-04 MaxDP=6.09D-02 DE=-1.16D-02 OVMax= 7.55D-03

 Cycle   3  Pass 1  IDiag  1:
 E= -1794.26205127585     Delta-E=       -0.060428989193 Rises=F Damp=F
 DIIS: error= 3.51D-02 at cycle   3 NSaved=   3.
 NSaved= 3 IEnMin= 3 EnMin= -1794.26205127585     IErMin= 3 ErrMin= 3.51D-02
 ErrMax= 3.51D-02  0.00D+00 EMaxC= 1.00D-01 BMatC= 5.86D-02 BMatP= 1.91D+00
 IDIUse=3 WtCom= 6.49D-01 WtEn= 3.51D-01
 Large coefficients: NSaved=  3 BigCof=   19.44 CofMax=   10.00 Det=-1.36D-04
 Inversion failed.  Reducing to  2 matrices.
 Coeff-Com:  0.182D-01 0.982D+00
 Coeff-En:   0.000D+00 0.100D+01
 Coeff:      0.118D-01 0.988D+00
 Gap=     0.313 Goal=   None    Shift=    0.000
 RMSDP=1.27D-03 MaxDP=7.82D-02 DE=-6.04D-02 OVMax= 5.04D-02

 Cycle   4  Pass 1  IDiag  1:
 E= -1794.26084385967     Delta-E=        0.001207416188 Rises=F Damp=F
 DIIS: error= 4.23D-02 at cycle   4 NSaved=   3.
 NSaved= 3 IEnMin= 2 EnMin= -1794.26205127585     IErMin= 2 ErrMin= 3.51D-02
 ErrMax= 4.23D-02  0.00D+00 EMaxC= 1.00D-01 BMatC= 7.47D-02 BMatP= 5.86D-02
 IDIUse=2 WtCom= 0.00D+00 WtEn= 1.00D+00
 Coeff-En:   0.000D+00 0.522D+00 0.478D+00
 Coeff:      0.000D+00 0.522D+00 0.478D+00
 Gap=     0.324 Goal=   None    Shift=    0.000
 RMSDP=3.49D-04 MaxDP=1.88D-02 DE= 1.21D-03 OVMax= 1.65D-02

 Cycle   5  Pass 1  IDiag  1:
 E= -1794.27596996906     Delta-E=       -0.015126109392 Rises=F Damp=F
 DIIS: error= 1.10D-03 at cycle   5 NSaved=   4.
 NSaved= 4 IEnMin= 4 EnMin= -1794.27596996906     IErMin= 4 ErrMin= 1.10D-03
 ErrMax= 1.10D-03  0.00D+00 EMaxC= 1.00D-01 BMatC= 1.39D-04 BMatP= 5.86D-02
 IDIUse=3 WtCom= 9.89D-01 WtEn= 1.10D-02
 Coeff-Com:  0.101D-02-0.750D-01-0.263D-01 0.110D+01
 Coeff-En:   0.000D+00 0.000D+00 0.000D+00 0.100D+01
 Coeff:      0.995D-03-0.742D-01-0.260D-01 0.110D+01
 Gap=     0.325 Goal=   None    Shift=    0.000
 RMSDP=1.08D-04 MaxDP=7.64D-03 DE=-1.51D-02 OVMax= 9.25D-03

 Cycle   6  Pass 1  IDiag  1:
 E= -1794.27611117925     Delta-E=       -0.000141210192 Rises=F Damp=F
 DIIS: error= 4.10D-04 at cycle   6 NSaved=   5.
 NSaved= 5 IEnMin= 5 EnMin= -1794.27611117925     IErMin= 5 ErrMin= 4.10D-04
 ErrMax= 4.10D-04  0.00D+00 EMaxC= 1.00D-01 BMatC= 1.71D-05 BMatP= 1.39D-04
 IDIUse=3 WtCom= 9.96D-01 WtEn= 4.10D-03
 Coeff-Com:  0.293D-03-0.130D-01-0.244D-02-0.213D+00 0.123D+01
 Coeff-En:   0.000D+00 0.000D+00 0.000D+00 0.000D+00 0.100D+01
 Coeff:      0.292D-03-0.130D-01-0.243D-02-0.212D+00 0.123D+01
 Gap=     0.325 Goal=   None    Shift=    0.000
 RMSDP=3.75D-05 MaxDP=2.34D-03 DE=-1.41D-04 OVMax= 3.38D-03

 Cycle   7  Pass 1  IDiag  1:
 E= -1794.27612377306     Delta-E=       -0.000012593804 Rises=F Damp=F
 DIIS: error= 2.33D-05 at cycle   7 NSaved=   6.
 NSaved= 6 IEnMin= 6 EnMin= -1794.27612377306     IErMin= 6 ErrMin= 2.33D-05
 ErrMax= 2.33D-05  0.00D+00 EMaxC= 1.00D-01 BMatC= 2.75D-08 BMatP= 1.71D-05
 IDIUse=1 WtCom= 1.00D+00 WtEn= 0.00D+00
 Coeff-Com: -0.543D-06 0.120D-02 0.182D-03-0.151D-01-0.348D-01 0.105D+01
 Coeff:     -0.543D-06 0.120D-02 0.182D-03-0.151D-01-0.348D-01 0.105D+01
 Gap=     0.325 Goal=   None    Shift=    0.000
 RMSDP=5.14D-06 MaxDP=6.98D-04 DE=-1.26D-05 OVMax= 3.79D-04

 Cycle   8  Pass 1  IDiag  1:
 E= -1794.27612388820     Delta-E=       -0.000000115142 Rises=F Damp=F
 DIIS: error= 3.55D-06 at cycle   8 NSaved=   7.
 NSaved= 7 IEnMin= 7 EnMin= -1794.27612388820     IErMin= 7 ErrMin= 3.55D-06
 ErrMax= 3.55D-06  0.00D+00 EMaxC= 1.00D-01 BMatC= 6.39D-10 BMatP= 2.75D-08
 IDIUse=1 WtCom= 1.00D+00 WtEn= 0.00D+00
 Coeff-Com: -0.377D-05-0.945D-04 0.855D-05 0.419D-02 0.202D-03-0.256D+00
 Coeff-Com:  0.125D+01
 Coeff:     -0.377D-05-0.945D-04 0.855D-05 0.419D-02 0.202D-03-0.256D+00
 Coeff:      0.125D+01
 Gap=     0.325 Goal=   None    Shift=    0.000
 RMSDP=1.31D-06 MaxDP=1.92D-04 DE=-1.15D-07 OVMax= 7.60D-05

 Cycle   9  Pass 1  IDiag  1:
 E= -1794.27612389200     Delta-E=       -0.000000003806 Rises=F Damp=F
 DIIS: error= 4.96D-07 at cycle   9 NSaved=   8.
 NSaved= 8 IEnMin= 8 EnMin= -1794.27612389200     IErMin= 8 ErrMin= 4.96D-07
 ErrMax= 4.96D-07  0.00D+00 EMaxC= 1.00D-01 BMatC= 8.88D-12 BMatP= 6.39D-10
 IDIUse=1 WtCom= 1.00D+00 WtEn= 0.00D+00
 Coeff-Com:  0.564D-06-0.575D-05-0.116D-04-0.560D-03 0.642D-03 0.250D-01
 Coeff-Com: -0.219D+00 0.119D+01
 Coeff:      0.564D-06-0.575D-05-0.116D-04-0.560D-03 0.642D-03 0.250D-01
 Coeff:     -0.219D+00 0.119D+01
 Gap=     0.325 Goal=   None    Shift=    0.000
 RMSDP=1.51D-07 MaxDP=1.64D-05 DE=-3.81D-09 OVMax= 1.08D-05

 Cycle  10  Pass 1  IDiag  1:
 E= -1794.27612389206     Delta-E=       -0.000000000059 Rises=F Damp=F
 DIIS: error= 2.35D-08 at cycle  10 NSaved=   9.
 NSaved= 9 IEnMin= 9 EnMin= -1794.27612389206     IErMin= 9 ErrMin= 2.35D-08
 ErrMax= 2.35D-08  0.00D+00 EMaxC= 1.00D-01 BMatC= 6.17D-14 BMatP= 8.88D-12
 IDIUse=1 WtCom= 1.00D+00 WtEn= 0.00D+00
 Coeff-Com: -0.450D-07 0.147D-05 0.125D-05 0.323D-04-0.224D-04-0.187D-02
 Coeff-Com:  0.211D-01-0.166D+00 0.115D+01
 Coeff:     -0.450D-07 0.147D-05 0.125D-05 0.323D-04-0.224D-04-0.187D-02
 Coeff:      0.211D-01-0.166D+00 0.115D+01
 Gap=     0.325 Goal=   None    Shift=    0.000
 RMSDP=1.40D-08 MaxDP=8.84D-07 DE=-5.91D-11 OVMax= 6.18D-07

 Cycle  11  Pass 1  IDiag  1:
 E= -1794.27612389206     Delta-E=       -0.000000000001 Rises=F Damp=F
 DIIS: error= 2.64D-09 at cycle  11 NSaved=  10.
 NSaved=10 IEnMin=10 EnMin= -1794.27612389206     IErMin=10 ErrMin= 2.64D-09
 ErrMax= 2.64D-09  0.00D+00 EMaxC= 1.00D-01 BMatC= 3.44D-16 BMatP= 6.17D-14
 IDIUse=1 WtCom= 1.00D+00 WtEn= 0.00D+00
 Coeff-Com:  0.446D-08-0.238D-06-0.988D-07-0.456D-06-0.956D-06 0.135D-03
 Coeff-Com: -0.197D-02 0.187D-01-0.187D+00 0.117D+01
 Coeff:      0.446D-08-0.238D-06-0.988D-07-0.456D-06-0.956D-06 0.135D-03
 Coeff:     -0.197D-02 0.187D-01-0.187D+00 0.117D+01
 Gap=     0.325 Goal=   None    Shift=    0.000
 RMSDP=2.04D-09 MaxDP=1.87D-07 DE=-1.14D-12 OVMax= 5.11D-08

 SCF Done:  E(ROHF) =  -1794.27612389     A.U. after   11 cycles
            NFock= 11  Conv=0.20D-08     -V/T= 1.9478
 <Sx>= 0.0000 <Sy>= 0.0000 <Sz>= 0.0000 <S**2>= 0.0000 S= 0.0000
 <L.S>=  0.00000000000    
 KE= 1.893097867405D+03 PE=-4.398006831441D+03 EE= 7.106328401439D+02
 Annihilation of the first spin contaminant:
 S**2 before annihilation     0.0000,   after    -0.0000
 Leave Link  502 at Thu Mar 29 05:01:55 2018, MaxMem= 10737418240 cpu:             425.4 elap:              13.4
 (Enter /home1/apps/gaussian/16rA.03/g16/l801.exe)
 Windowed orbitals will be sorted by symmetry type.
 GenMOA:  NOpAll= 48 NOp2=8 NOpUse= 48 JSym2X=1
 FoFJK:  IHMeth= 1 ICntrl=       0 DoSepK=F KAlg= 0 I1Cent=           0 FoldK=F
 IRaf=         0 NMat=       1 IRICut=       1 DoRegI=T DoRafI=F ISym2E= 1 IDoP0=0 IntGTp=1.
 FoFCou: FMM=F IPFlag=           8 FMFlag=      100000 FMFlg1=           0
         NFxFlg=           0 DoJE=F BraDBF=F KetDBF=F FulRan=T
         wScrn=  0.000000 ICntrl=         0 IOpCl=  1 I1Cent=           0 NGrid=           0
         NMat0=    1 NMatS0=      1 NMatT0=    0 NMatD0=    1 NMtDS0=    0 NMtDT0=    0
 Petite list used in FoFCou.
 <Sx>= 0.0000 <Sy>= 0.0000 <Sz>= 0.0000 <S**2>=-0.0000 S=-0.0000
 Range of M.O.s used for correlation:     1   190
 NBasis=   190 NAE=    15 NBE=    15 NFC=     0 NFV=     0
 NROrb=    190 NOA=    15 NOB=    15 NVA=   175 NVB=   175

 **** Warning!!: The largest alpha MO coefficient is  0.19536443D+03


 **** Warning!!: The largest beta MO coefficient is  0.19536443D+03

 Singles contribution to E2=   -0.6876162241D-17
 Leave Link  801 at Thu Mar 29 05:01:59 2018, MaxMem= 10737418240 cpu:             118.5 elap:               3.8
 (Enter /home1/apps/gaussian/16rA.03/g16/l804.exe)
 Open-shell transformation, MDV= 10737418240 ITran=4 ISComp=2.
 Unit  1 TFree=       1086962 TCopy=       1046667.
 Semi-Direct transformation.
 ModeAB=           2 MOrb=            15 LenV=   10736191756
 LASXX=      6338430 LTotXX=     6338430 LenRXX=     6338430
 LTotAB=     6517965 MaxLAS=    76368600 LenRXY=    76368600
 NonZer=    78412050 LenScr=   118370304 LnRSAI=           0
 LnScr1=           0 LExtra=    11145983 Total=    212223317
 MaxDsk= 67108864000 SrtSym=           F ITran=            4
 DoSDTr:  NPSUse= 32
 JobTyp=1 Pass  1:  I=   1 to  15.
 (rs|ai) integrals will be sorted in core.
 Complete sort for first half transformation.
 First half transformation complete.
 Begin second half transformation for I=  10.
 Begin second half transformation for I=  10.
 Complete sort for second half transformation.
 Second half transformation complete.
 ModeAB=           2 MOrb=            15 LenV=   10736191756
 LASXX=      6338430 LTotXX=     6338430 LenRXX=    76368600
 LTotAB=     5513928 MaxLAS=    76368600 LenRXY=     5513928
 NonZer=    78412050 LenScr=   118370304 LnRSAI=           0
 LnScr1=           0 LExtra=    93853013 Total=    294105845
 MaxDsk= 67108864000 SrtSym=           F ITran=            4
 DoSDTr:  NPSUse= 32
 JobTyp=2 Pass  1:  I=   1 to  15.
 (rs|ai) integrals will be sorted in core.
 Complete sort for first half transformation.
 First half transformation complete.
 Begin second half transformation for I=  10.
 Begin second half transformation for I=  10.
 Complete sort for second half transformation.
 Second half transformation complete.
 Spin components of T(2) and E(2):
     alpha-alpha T2 =       0.1772206004D-01 E2=     -0.2366088385D+00
     alpha-beta  T2 =       0.8760178745D-01 E2=     -0.1000607532D+01
     beta-beta   T2 =       0.1772206004D-01 E2=     -0.2366088385D+00
 ANorm=    0.1059738603D+01
 E2 =    -0.1473825209D+01 EUMP2 =    -0.17957499491013D+04
 (S**2,0)=  0.00000D+00           (S**2,1)=  0.00000D+00
 E(PUHF)=      -0.17942761239D+04        E(PMP2)=      -0.17957499491D+04
 Leave Link  804 at Thu Mar 29 05:03:56 2018, MaxMem= 10737418240 cpu:            3730.4 elap:             116.6
 (Enter /home1/apps/gaussian/16rA.03/g16/l913.exe)
 CIDS:  MDV= 10737418240.
 IFCWin=0 IBDFC=1 NFBD=     0     0 NFCmp=     0     0 NFFFC=     0     0
 Using original routines for 1st iteration.
 Using DD4UQ or CC4UQ for 2nd and later iterations.
 Keep R2 and R3 ints in memory in symmetry-blocked form, NReq=200898115.
 FoFCou: FMM=F IPFlag=           8 FMFlag=           0 FMFlg1=           0
         NFxFlg=           0 DoJE=F BraDBF=F KetDBF=F FulRan=T
         wScrn=  0.000000 ICntrl=       600 IOpCl=  0 I1Cent=           0 NGrid=           0
         NMat0=    1 NMatS0=  18145 NMatT0=    0 NMatD0=    1 NMtDS0=    0 NMtDT0=    0
 Petite list used in FoFCou.
 CIDS: In Core Option IDoMem=           1.
 CCSD(T)
 =======
 Iterations= 150 Convergence= 0.100D-06
 Produce multiple copies of IABC intergrals
 Iteration Nr.   1
 **********************
 DD1Dir will call FoFMem   1 times, MxPair=       660
 NAB=   225 NAA=   105 NBB=   105.
 DD1Dir will call FoFMem   1 times, MxPair=       660
 NAB=   225 NAA=   105 NBB=   105.
 MP4(R+Q)= -0.17544421D+00
 Maximum subspace dimension=  5
 A-vector RMS=  1.8239884D-05 Max=  4.7827742D-03 conv= 1.00D-05.
 RLE energy=       -1.4825832334
 E3=        0.16673792D+00        EROMP3=      -0.17955832112D+04
 E4(SDQ)=  -0.96534848D-01        ROMP4(SDQ)=  -0.17956797460D+04
 VARIATIONAL ENERGIES WITH THE FIRST-ORDER WAVEFUNCTION:
 DE(Corr)=  -1.4825315     E(Corr)=     -1795.7586554    
 NORM(A)=   0.10589417D+01
 Iteration Nr.   2
 **********************
 DD1Dir will call FoFMem   1 times, MxPair=       660
 NAB=   225 NAA=   105 NBB=   105.
 A-vector RMS=  2.9771136D-03 Max=  2.7465883D-02 conv= 1.00D-05.
 RLE energy=       -1.4554235551
 DE(Corr)=  -1.3090612     E(CORR)=     -1795.5851851     Delta= 1.73D-01
 NORM(A)=   0.10562756D+01
 Iteration Nr.   3
 **********************
 DD1Dir will call FoFMem   1 times, MxPair=       660
 NAB=   225 NAA=   105 NBB=   105.
 A-vector RMS=  2.3854649D-03 Max=  2.4648684D-02 conv= 1.00D-05.
 RLE energy=       -1.3997639631
 DE(Corr)=  -1.3197465     E(CORR)=     -1795.5958704     Delta=-1.07D-02
 NORM(A)=   0.10558759D+01
 Iteration Nr.   4
 **********************
 DD1Dir will call FoFMem   1 times, MxPair=       660
 NAB=   225 NAA=   105 NBB=   105.
 A-vector RMS=  1.2799931D-03 Max=  1.2680881D-02 conv= 1.00D-05.
 RLE energy=       -1.3311367585
 DE(Corr)=  -1.3449334     E(CORR)=     -1795.6210573     Delta=-2.52D-02
 NORM(A)=   0.10654154D+01
 Iteration Nr.   5
 **********************
 DD1Dir will call FoFMem   1 times, MxPair=       660
 NAB=   225 NAA=   105 NBB=   105.
 A-vector RMS=  8.5210560D-04 Max=  6.1891088D-03 conv= 1.00D-05.
 RLE energy=       -1.3567069119
 DE(Corr)=  -1.3821995     E(CORR)=     -1795.6583234     Delta=-3.73D-02
 NORM(A)=   0.10643002D+01
 Iteration Nr.   6
 **********************
 DD1Dir will call FoFMem   1 times, MxPair=       660
 NAB=   225 NAA=   105 NBB=   105.
 A-vector RMS=  2.0738780D-04 Max=  2.2293594D-03 conv= 1.00D-05.
 RLE energy=       -1.3655811150
 DE(Corr)=  -1.3698700     E(CORR)=     -1795.6459939     Delta= 1.23D-02
 NORM(A)=   0.10627990D+01
 Iteration Nr.   7
 **********************
 DD1Dir will call FoFMem   1 times, MxPair=       660
 NAB=   225 NAA=   105 NBB=   105.
 A-vector RMS=  1.1673255D-05 Max=  1.3964135D-04 conv= 1.00D-05.
 RLE energy=       -1.3652655082
 DE(Corr)=  -1.3651525     E(CORR)=     -1795.6412764     Delta= 4.72D-03
 NORM(A)=   0.10627981D+01
 Iteration Nr.   8
 **********************
 DD1Dir will call FoFMem   1 times, MxPair=       660
 NAB=   225 NAA=   105 NBB=   105.
 A-vector RMS=  7.6154854D-06 Max=  6.0836455D-05 conv= 1.00D-05.
 RLE energy=       -1.3652599955
 DE(Corr)=  -1.3652739     E(CORR)=     -1795.6413978     Delta=-1.21D-04
 NORM(A)=   0.10628060D+01
 Iteration Nr.   9
 **********************
 DD1Dir will call FoFMem   1 times, MxPair=       660
 NAB=   225 NAA=   105 NBB=   105.
 A-vector RMS=  1.2395380D-06 Max=  1.5478156D-05 conv= 1.00D-05.
 RLE energy=       -1.3652659249
 DE(Corr)=  -1.3652661     E(CORR)=     -1795.6413900     Delta= 7.88D-06
 NORM(A)=   0.10628089D+01
 Iteration Nr.  10
 **********************
 DD1Dir will call FoFMem   1 times, MxPair=       660
 NAB=   225 NAA=   105 NBB=   105.
 A-vector RMS=  2.9357467D-07 Max=  3.6030120D-06 conv= 1.00D-05.
 RLE energy=       -1.3652659670
 DE(Corr)=  -1.3652656     E(CORR)=     -1795.6413895     Delta= 5.05D-07
 NORM(A)=   0.10628091D+01
 Iteration Nr.  11
 **********************
 DD1Dir will call FoFMem   1 times, MxPair=       660
 NAB=   225 NAA=   105 NBB=   105.
 A-vector RMS=  2.2695021D-07 Max=  2.4696108D-06 conv= 1.00D-05.
 RLE energy=       -1.3652652142
 DE(Corr)=  -1.3652653     E(CORR)=     -1795.6413892     Delta= 2.59D-07
 NORM(A)=   0.10628091D+01
 Iteration Nr.  12
 **********************
 DD1Dir will call FoFMem   1 times, MxPair=       660
 NAB=   225 NAA=   105 NBB=   105.
 A-vector RMS=  2.4091065D-08 Max=  2.8190284D-07 conv= 1.00D-05.
 RLE energy=       -1.3652659592
 DE(Corr)=  -1.3652660     E(CORR)=     -1795.6413899     Delta=-6.65D-07
 NORM(A)=   0.10628091D+01
 Iteration Nr.  13
 **********************
 DD1Dir will call FoFMem   1 times, MxPair=       660
 NAB=   225 NAA=   105 NBB=   105.
 A-vector RMS=  9.8606849D-09 Max=  9.8140071D-08 conv= 1.00D-05.
 RLE energy=       -1.3652657038
 DE(Corr)=  -1.3652657     E(CORR)=     -1795.6413896     Delta= 2.99D-07
 NORM(A)=   0.10628090D+01
 Iteration Nr.  14
 **********************
 DD1Dir will call FoFMem   1 times, MxPair=       660
 NAB=   225 NAA=   105 NBB=   105.
 A-vector RMS=  3.6895069D-09 Max=  4.3508894D-08 conv= 1.00D-05.
 RLE energy=       -1.3652657889
 DE(Corr)=  -1.3652658     E(CORR)=     -1795.6413897     Delta=-9.50D-08
 NORM(A)=   0.10628089D+01
 CI/CC converged in   14 iterations to DelEn=-9.50D-08 Conv= 1.00D-07 ErrA1= 3.69D-09 Conv= 1.00D-05
 Wavefunction amplitudes converged. E(Corr)=     -1795.6413897    
 Largest amplitude= 5.59D-02
 Time for triples=    17780.17 seconds.
 T4(CCSD)= -0.32374389D-01
 T5(CCSD)=  0.27744945D-02
 CCSD(T)= -0.17956709896D+04
 Discarding MO integrals.
 Leave Link  913 at Thu Mar 29 05:15:32 2018, MaxMem= 10737418240 cpu:           22245.0 elap:             695.3
 (Enter /home1/apps/gaussian/16rA.03/g16/l601.exe)
 Copying SCF densities to generalized density rwf, IOpCl= 0 IROHF=1.

 **********************************************************************

            Population analysis using the SCF density.

 **********************************************************************

 Orbital symmetries:
       Occupied  (A1G) (A1G) (T1U) (T1U) (T1U) (A1G) (T1U) (T1U)
                 (T1U) (EG) (T2G) (T2G) (EG) (T2G) (A1G)
       Virtual   (T1U) (T1U) (T1U) (A1G) (T1U) (T1U) (T1U) (A1G)
                 (T2G) (EG) (EG) (T2G) (T2G) (T1U) (T1U) (T1U)
                 (A1G) (EG) (EG) (T2G) (T2G) (T2G) (T1U) (T1U)
                 (T1U) (A2U) (?A) (?A) (?A) (?A) (?A) (?A) (A1G)
                 (EG) (EG) (T2G) (T2G) (T2G) (T1U) (T1U) (T1U)
                 (A2U) (?A) (?A) (?A) (?A) (?A) (?A) (EG) (T2G)
                 (EG) (T2G) (T2G) (?B) (?B) (?B) (T2G) (?B) (?B)
                 (?B) (T2G) (T2G) (A1G) (T1U) (T1U) (T1U) (A2U)
                 (?A) (?A) (?A) (?A) (?A) (?A) (EG) (EG) (T2G)
                 (T2G) (T2G) (T1U) (T1U) (T1U) (A1G) (?B) (?B)
                 (?B) (?B) (EG) (?B) (EG) (?B) (A1G) (EG) (EG)
                 (T2G) (T2G) (T2G) (A2U) (?A) (?A) (?A) (?A) (?A)
                 (?A) (T1U) (T1U) (T1U) (A1G) (?B) (?B) (?B) (T2G)
                 (T2G) (?B) (?B) (?B) (T2G) (EG) (EG) (T2G) (T2G)
                 (T2G) (T1U) (T1U) (T1U) (A1G) (EG) (EG) (T2G)
                 (T2G) (T2G) (T1U) (T1U) (T1U) (A1G) (EG) (EG)
                 (T2G) (T2G) (T2G) (T1U) (T1U) (T1U) (A1G) (T1U)
                 (T1U) (T1U) (EG) (EG) (T2G) (T2G) (T2G) (T1U)
                 (T1U) (T1U) (A1G) (T1U) (T1U) (T1U) (A1G) (T1U)
                 (T1U) (T1U) (A1G) (A1G) (T1U) (T1U) (T1U) (A1G)
                 (T1U) (T1U) (T1U) (A1G) (A1G) (A1G) (A1G)
 The electronic state is 1-A1G.
 Alpha  occ. eigenvalues -- -357.56351 -45.33021 -39.13245 -39.13245 -39.13245
 Alpha  occ. eigenvalues --   -5.79794  -3.87568  -3.87568  -3.87568  -0.76140
 Alpha  occ. eigenvalues --   -0.76140  -0.76140  -0.76140  -0.76140  -0.29860
 Alpha virt. eigenvalues --    0.02679   0.02679   0.02679   0.03354   0.08981
 Alpha virt. eigenvalues --    0.08981   0.08981   0.18061   0.26460   0.26460
 Alpha virt. eigenvalues --    0.26460   0.26460   0.26460   0.32318   0.32318
 Alpha virt. eigenvalues --    0.32318   0.65123   0.91814   0.91814   0.91814
 Alpha virt. eigenvalues --    0.91814   0.91814   1.12619   1.12619   1.12619
 Alpha virt. eigenvalues --    1.88901   1.88901   1.88901   1.88901   1.88901
 Alpha virt. eigenvalues --    1.88901   1.88901   2.58138   2.77517   2.77517
 Alpha virt. eigenvalues --    2.77517   2.77517   2.77517   3.51015   3.51015
 Alpha virt. eigenvalues --    3.51015   5.37501   5.37501   5.37501   5.37501
 Alpha virt. eigenvalues --    5.37501   5.37501   5.37501   7.22532   7.22532
 Alpha virt. eigenvalues --    7.22532   7.22532   7.22532   7.78442   7.78442
 Alpha virt. eigenvalues --    7.78442   7.78442   7.78442   7.78442   7.78442
 Alpha virt. eigenvalues --    7.78442   7.78442   7.88872   8.83000   8.83000
 Alpha virt. eigenvalues --    8.83000  13.78927  13.78927  13.78927  13.78927
 Alpha virt. eigenvalues --   13.78927  13.78927  13.78927  15.85982  15.85982
 Alpha virt. eigenvalues --   15.85982  15.85982  15.85982  18.63320  18.63320
 Alpha virt. eigenvalues --   18.63320  18.67447  20.22039  20.22039  20.22039
 Alpha virt. eigenvalues --   20.22039  20.22039  20.22039  20.22039  20.22039
 Alpha virt. eigenvalues --   20.22039  30.78619  30.78619  30.78619  30.78619
 Alpha virt. eigenvalues --   30.78619  35.97281  35.97281  35.97281  35.97281
 Alpha virt. eigenvalues --   35.97281  35.97281  35.97281  36.09482  36.09482
 Alpha virt. eigenvalues --   36.09482  39.53479  47.22756  47.22756  47.22756
 Alpha virt. eigenvalues --   47.22756  47.22756  47.22756  47.22756  47.22756
 Alpha virt. eigenvalues --   47.22756  55.42765  55.42765  55.42765  55.42765
 Alpha virt. eigenvalues --   55.42765  66.78761  66.78761  66.78761  81.29354
 Alpha virt. eigenvalues --   99.59364  99.59364  99.59364  99.59364  99.59364
 Alpha virt. eigenvalues --  121.26274 121.26274 121.26274 178.52734 212.99293
 Alpha virt. eigenvalues --  212.99293 212.99293 212.99293 212.99293 229.06947
 Alpha virt. eigenvalues --  229.06947 229.06947 429.22063 466.70655 466.70655
 Alpha virt. eigenvalues --  466.70655 640.32652 640.32652 640.32652 640.32652
 Alpha virt. eigenvalues --  640.326521015.279361015.279361015.279361058.53638
 Alpha virt. eigenvalues -- 2313.192922313.192922313.192922546.535355450.53934
 Alpha virt. eigenvalues -- 5450.539345450.539345873.55511********************
 Alpha virt. eigenvalues -- **************************************************
 Alpha virt. eigenvalues -- **************************************************
     Molecular Orbital Coefficients:
                          11        12        13        14        15
                       (T2G)--O  (T2G)--O   (EG)--O  (T2G)--O  (A1G)--O
     Eigenvalues --    -0.76140  -0.76140  -0.76140  -0.76140  -0.29860
   1 1   Zn 1S          0.00000   0.00000   0.00000   0.00000  -0.00000
   2        2S          0.00000   0.00000   0.00000   0.00000  -0.00001
   3        3S          0.00000   0.00000  -0.00000   0.00000  -0.00003
   4        4S          0.00000   0.00000   0.00000   0.00000  -0.00009
   5        5S          0.00000   0.00000  -0.00000   0.00000  -0.00022
   6        6S          0.00000   0.00000   0.00000   0.00000  -0.00056
   7        7S          0.00000   0.00000  -0.00000   0.00000  -0.00143
   8        8S          0.00000   0.00000   0.00000   0.00000  -0.00353
   9        9S          0.00000   0.00000  -0.00000   0.00000  -0.00776
  10       10S          0.00000   0.00000   0.00000   0.00000  -0.01429
  11       11S          0.00000   0.00000  -0.00000   0.00000  -0.01606
  12       12S          0.00000   0.00000   0.00000   0.00000   0.00611
  13       13S          0.00000   0.00000  -0.00000   0.00000   0.07373
  14       14S          0.00000   0.00000   0.00000   0.00000   0.09770
  15       15S          0.00000   0.00000   0.00000   0.00000  -0.06447
  16       16S          0.00000   0.00000  -0.00000   0.00000  -0.16933
  17       17S          0.00000   0.00000  -0.00000   0.00000  -0.19870
  18       18S          0.00000   0.00000   0.00000   0.00000   0.33996
  19       19S          0.00000   0.00000   0.00000   0.00000   0.55606
  20       20S          0.00000   0.00000  -0.00000   0.00000   0.25353
  21       21S          0.00000   0.00000  -0.00000   0.00000   0.00872
  22       22S          0.00000   0.00000   0.00000   0.00000  -0.05819
  23       23S          0.00000   0.00000   0.00000   0.00000  -0.00088
  24       24PX         0.00000   0.00000  -0.00000   0.00000   0.00000
  25       24PY         0.00000   0.00000  -0.00000   0.00000   0.00000
  26       24PZ         0.00000   0.00000  -0.00000   0.00000   0.00000
  27       25PX         0.00000   0.00000  -0.00000   0.00000   0.00000
  28       25PY         0.00000   0.00000  -0.00000   0.00000   0.00000
  29       25PZ         0.00000   0.00000  -0.00000   0.00000   0.00000
  30       26PX         0.00000   0.00000  -0.00000   0.00000   0.00000
  31       26PY         0.00000   0.00000  -0.00000   0.00000   0.00000
  32       26PZ         0.00000   0.00000  -0.00000   0.00000   0.00000
  33       27PX         0.00000   0.00000  -0.00000   0.00000   0.00000
  34       27PY         0.00000   0.00000  -0.00000   0.00000   0.00000
  35       27PZ         0.00000   0.00000  -0.00000   0.00000   0.00000
  36       28PX         0.00000   0.00000  -0.00000   0.00000   0.00000
  37       28PY         0.00000   0.00000  -0.00000   0.00000   0.00000
  38       28PZ         0.00000   0.00000  -0.00000   0.00000   0.00000
  39       29PX         0.00000   0.00000  -0.00000   0.00000   0.00000
  40       29PY         0.00000   0.00000  -0.00000   0.00000   0.00000
  41       29PZ         0.00000   0.00000  -0.00000   0.00000   0.00000
  42       30PX         0.00000   0.00000  -0.00000   0.00000   0.00000
  43       30PY         0.00000   0.00000  -0.00000   0.00000   0.00000
  44       30PZ         0.00000   0.00000  -0.00000   0.00000   0.00000
  45       31PX         0.00000   0.00000  -0.00000   0.00000   0.00000
  46       31PY         0.00000   0.00000  -0.00000   0.00000   0.00000
  47       31PZ         0.00000   0.00000  -0.00000   0.00000   0.00000
  48       32PX         0.00000   0.00000  -0.00000   0.00000   0.00000
  49       32PY         0.00000   0.00000  -0.00000   0.00000   0.00000
  50       32PZ         0.00000   0.00000  -0.00000   0.00000   0.00000
  51       33PX         0.00000   0.00000  -0.00000   0.00000   0.00000
  52       33PY         0.00000   0.00000  -0.00000   0.00000   0.00000
  53       33PZ         0.00000   0.00000  -0.00000   0.00000   0.00000
  54       34PX         0.00000   0.00000  -0.00000   0.00000   0.00000
  55       34PY         0.00000   0.00000  -0.00000   0.00000   0.00000
  56       34PZ         0.00000   0.00000  -0.00000   0.00000   0.00000
  57       35PX         0.00000   0.00000  -0.00000   0.00000   0.00000
  58       35PY         0.00000   0.00000  -0.00000   0.00000   0.00000
  59       35PZ         0.00000   0.00000  -0.00000   0.00000   0.00000
  60       36PX         0.00000   0.00000  -0.00000   0.00000   0.00000
  61       36PY         0.00000   0.00000  -0.00000   0.00000   0.00000
  62       36PZ         0.00000   0.00000  -0.00000   0.00000   0.00000
  63       37PX         0.00000   0.00000  -0.00000   0.00000   0.00000
  64       37PY         0.00000   0.00000  -0.00000   0.00000   0.00000
  65       37PZ         0.00000   0.00000  -0.00000   0.00000   0.00000
  66       38PX         0.00000   0.00000  -0.00000   0.00000   0.00000
  67       38PY         0.00000   0.00000  -0.00000   0.00000   0.00000
  68       38PZ         0.00000   0.00000  -0.00000   0.00000   0.00000
  69       39PX         0.00000   0.00000  -0.00000   0.00000   0.00000
  70       39PY         0.00000   0.00000  -0.00000   0.00000   0.00000
  71       39PZ         0.00000   0.00000  -0.00000   0.00000   0.00000
  72       40PX         0.00000   0.00000  -0.00000   0.00000   0.00000
  73       40PY         0.00000   0.00000  -0.00000   0.00000   0.00000
  74       40PZ         0.00000   0.00000  -0.00000   0.00000   0.00000
  75       41PX         0.00000   0.00000  -0.00000   0.00000   0.00000
  76       41PY         0.00000   0.00000  -0.00000   0.00000   0.00000
  77       41PZ         0.00000   0.00000  -0.00000   0.00000   0.00000
  78       42PX         0.00000   0.00000  -0.00000   0.00000   0.00000
  79       42PY         0.00000   0.00000  -0.00000   0.00000   0.00000
  80       42PZ         0.00000   0.00000  -0.00000   0.00000   0.00000
  81       43D 0        0.00000   0.00000   0.00228   0.00000  -0.00000
  82       43D+1        0.00246   0.00000  -0.00000   0.00000   0.00000
  83       43D-1        0.00000   0.00000  -0.00000   0.00246   0.00000
  84       43D+2        0.00000   0.00000  -0.00092   0.00000  -0.00000
  85       43D-2        0.00000   0.00246  -0.00000   0.00000   0.00000
  86       44D 0        0.00000   0.00000   0.01737   0.00000  -0.00000
  87       44D+1        0.01872   0.00000  -0.00000   0.00000   0.00000
  88       44D-1        0.00000   0.00000  -0.00000   0.01872   0.00000
  89       44D+2        0.00000   0.00000  -0.00697   0.00000  -0.00000
  90       44D-2        0.00000   0.01872  -0.00000   0.00000   0.00000
  91       45D 0        0.00000   0.00000   0.07144   0.00000  -0.00000
  92       45D+1        0.07698   0.00000  -0.00000   0.00000   0.00000
  93       45D-1        0.00000   0.00000  -0.00000   0.07698   0.00000
  94       45D+2        0.00000   0.00000  -0.02868   0.00000  -0.00000
  95       45D-2        0.00000   0.07698  -0.00000   0.00000   0.00000
  96       46D 0        0.00000   0.00000   0.18373   0.00000  -0.00000
  97       46D+1        0.19798   0.00000  -0.00000   0.00000   0.00000
  98       46D-1        0.00000   0.00000  -0.00000   0.19798   0.00000
  99       46D+2        0.00000   0.00000  -0.07377   0.00000  -0.00000
 100       46D-2        0.00000   0.19798  -0.00000   0.00000   0.00000
 101       47D 0        0.00000   0.00000   0.26819   0.00000  -0.00000
 102       47D+1        0.28901   0.00000  -0.00000   0.00000   0.00000
 103       47D-1        0.00000   0.00000  -0.00000   0.28901   0.00000
 104       47D+2        0.00000   0.00000  -0.10768   0.00000   0.00000
 105       47D-2        0.00000   0.28901  -0.00000   0.00000   0.00000
 106       48D 0        0.00000   0.00000   0.33271   0.00000   0.00000
 107       48D+1        0.35853   0.00000  -0.00000   0.00000   0.00000
 108       48D-1        0.00000   0.00000  -0.00000   0.35853   0.00000
 109       48D+2        0.00000   0.00000  -0.13359   0.00000  -0.00000
 110       48D-2        0.00000   0.35853  -0.00000   0.00000   0.00000
 111       49D 0        0.00000   0.00000   0.25532   0.00000   0.00000
 112       49D+1        0.27514   0.00000  -0.00000   0.00000   0.00000
 113       49D-1        0.00000   0.00000  -0.00000   0.27514   0.00000
 114       49D+2        0.00000   0.00000  -0.10252   0.00000  -0.00000
 115       49D-2        0.00000   0.27514  -0.00000   0.00000   0.00000
 116       50D 0        0.00000   0.00000   0.09749   0.00000   0.00000
 117       50D+1        0.10505   0.00000  -0.00000   0.00000   0.00000
 118       50D-1        0.00000   0.00000  -0.00000   0.10505   0.00000
 119       50D+2        0.00000   0.00000  -0.03914   0.00000  -0.00000
 120       50D-2        0.00000   0.10505  -0.00000   0.00000   0.00000
 121       51D 0        0.00000   0.00000   0.00453   0.00000   0.00000
 122       51D+1        0.00489   0.00000  -0.00000   0.00000   0.00000
 123       51D-1        0.00000   0.00000  -0.00000   0.00489   0.00000
 124       51D+2        0.00000   0.00000  -0.00182   0.00000  -0.00000
 125       51D-2        0.00000   0.00489  -0.00000   0.00000   0.00000
 126       52D 0        0.00000   0.00000   0.03517   0.00000   0.00000
 127       52D+1        0.03790   0.00000  -0.00000   0.00000   0.00000
 128       52D-1        0.00000   0.00000  -0.00000   0.03790   0.00000
 129       52D+2        0.00000   0.00000  -0.01412   0.00000  -0.00000
 130       52D-2        0.00000   0.03790  -0.00000   0.00000   0.00000
 131       53D 0        0.00000   0.00000   0.00478   0.00000   0.00000
 132       53D+1        0.00516   0.00000  -0.00000   0.00000   0.00000
 133       53D-1        0.00000   0.00000  -0.00000   0.00516   0.00000
 134       53D+2        0.00000   0.00000  -0.00192   0.00000  -0.00000
 135       53D-2        0.00000   0.00516  -0.00000   0.00000   0.00000
 136       54F 0        0.00000   0.00000  -0.00000   0.00000   0.00000
 137       54F+1        0.00000   0.00000  -0.00000   0.00000   0.00000
 138       54F-1        0.00000   0.00000  -0.00000   0.00000   0.00000
 139       54F+2        0.00000   0.00000  -0.00000   0.00000   0.00000
 140       54F-2        0.00000   0.00000  -0.00000   0.00000   0.00000
 141       54F+3        0.00000   0.00000  -0.00000   0.00000   0.00000
 142       54F-3        0.00000   0.00000  -0.00000   0.00000   0.00000
 143       55F 0        0.00000   0.00000  -0.00000   0.00000   0.00000
 144       55F+1        0.00000   0.00000  -0.00000   0.00000   0.00000
 145       55F-1        0.00000   0.00000  -0.00000   0.00000   0.00000
 146       55F+2        0.00000   0.00000  -0.00000   0.00000   0.00000
 147       55F-2        0.00000   0.00000  -0.00000   0.00000   0.00000
 148       55F+3        0.00000   0.00000  -0.00000   0.00000   0.00000
 149       55F-3        0.00000   0.00000  -0.00000   0.00000   0.00000
 150       56F 0        0.00000   0.00000  -0.00000   0.00000   0.00000
 151       56F+1        0.00000   0.00000  -0.00000   0.00000   0.00000
 152       56F-1        0.00000   0.00000  -0.00000   0.00000   0.00000
 153       56F+2        0.00000   0.00000  -0.00000   0.00000   0.00000
 154       56F-2        0.00000   0.00000  -0.00000   0.00000   0.00000
 155       56F+3        0.00000   0.00000  -0.00000   0.00000   0.00000
 156       56F-3        0.00000   0.00000  -0.00000   0.00000   0.00000
 157       57F 0        0.00000   0.00000  -0.00000   0.00000   0.00000
 158       57F+1        0.00000   0.00000  -0.00000   0.00000   0.00000
 159       57F-1        0.00000   0.00000  -0.00000   0.00000   0.00000
 160       57F+2        0.00000   0.00000  -0.00000   0.00000   0.00000
 161       57F-2        0.00000   0.00000  -0.00000   0.00000   0.00000
 162       57F+3        0.00000   0.00000  -0.00000   0.00000   0.00000
 163       57F-3        0.00000   0.00000  -0.00000   0.00000   0.00000
 164       58G 0        0.00000   0.00000   0.00000   0.00000   0.00000
 165       58G+1        0.00000   0.00000  -0.00000   0.00000   0.00000
 166       58G-1        0.00000   0.00000  -0.00000   0.00000   0.00000
 167       58G+2        0.00000   0.00000   0.00000   0.00000  -0.00000
 168       58G-2        0.00000  -0.00000  -0.00000   0.00000   0.00000
 169       58G+3        0.00000   0.00000  -0.00000   0.00000   0.00000
 170       58G-3        0.00000   0.00000  -0.00000  -0.00000   0.00000
 171       58G+4        0.00000   0.00000  -0.00000   0.00000  -0.00000
 172       58G-4        0.00000   0.00000  -0.00000   0.00000   0.00000
 173       59G 0        0.00000   0.00000  -0.00000   0.00000  -0.00000
 174       59G+1        0.00000   0.00000  -0.00000   0.00000   0.00000
 175       59G-1        0.00000   0.00000  -0.00000   0.00000   0.00000
 176       59G+2        0.00000   0.00000   0.00000   0.00000   0.00000
 177       59G-2        0.00000  -0.00000  -0.00000   0.00000   0.00000
 178       59G+3        0.00000   0.00000  -0.00000   0.00000   0.00000
 179       59G-3        0.00000   0.00000  -0.00000  -0.00000   0.00000
 180       59G+4        0.00000   0.00000   0.00000   0.00000   0.00000
 181       59G-4        0.00000  -0.00000  -0.00000   0.00000   0.00000
 182       60G 0        0.00000   0.00000   0.00000   0.00000  -0.00000
 183       60G+1        0.00000   0.00000  -0.00000   0.00000   0.00000
 184       60G-1        0.00000   0.00000  -0.00000   0.00000   0.00000
 185       60G+2        0.00000   0.00000   0.00000   0.00000  -0.00000
 186       60G-2        0.00000  -0.00000  -0.00000   0.00000   0.00000
 187       60G+3        0.00000   0.00000  -0.00000   0.00000   0.00000
 188       60G-3        0.00000   0.00000  -0.00000  -0.00000   0.00000
 189       60G+4        0.00000   0.00000  -0.00000   0.00000  -0.00000
 190       60G-4        0.00000   0.00000  -0.00000   0.00000   0.00000
                          16        17        18        19        20
                       (T1U)--V  (T1U)--V  (T1U)--V  (A1G)--V  (T1U)--V
     Eigenvalues --     0.02679   0.02679   0.02679   0.03354   0.08981
   1 1   Zn 1S          0.00000   0.00000   0.00000   0.00000   0.00000
   2        2S          0.00000   0.00000   0.00000   0.00000   0.00000
   3        3S          0.00000   0.00000   0.00000   0.00001   0.00000
   4        4S          0.00000   0.00000   0.00000   0.00002   0.00000
   5        5S          0.00000   0.00000   0.00000   0.00005   0.00000
   6        6S          0.00000   0.00000   0.00000   0.00012   0.00000
   7        7S          0.00000   0.00000   0.00000   0.00033   0.00000
   8        8S          0.00000   0.00000   0.00000   0.00073   0.00000
   9        9S          0.00000   0.00000   0.00000   0.00184   0.00000
  10       10S          0.00000   0.00000   0.00000   0.00278   0.00000
  11       11S          0.00000   0.00000   0.00000   0.00450   0.00000
  12       12S          0.00000   0.00000   0.00000  -0.00427   0.00000
  13       13S          0.00000   0.00000   0.00000  -0.00639   0.00000
  14       14S          0.00000   0.00000   0.00000  -0.07918   0.00000
  15       15S          0.00000   0.00000   0.00000  -0.14549   0.00000
  16       16S          0.00000   0.00000   0.00000   0.62933   0.00000
  17       17S          0.00000   0.00000   0.00000   0.19224   0.00000
  18       18S          0.00000   0.00000   0.00000  -0.35742   0.00000
  19       19S          0.00000   0.00000   0.00000   0.71348   0.00000
  20       20S          0.00000   0.00000   0.00000  -2.16109   0.00000
  21       21S          0.00000   0.00000   0.00000   0.13058   0.00000
  22       22S          0.00000   0.00000   0.00000  -0.60847   0.00000
  23       23S          0.00000   0.00000   0.00000   2.26670   0.00000
  24       24PX         0.00000   0.00000   0.00000   0.00000   0.00000
  25       24PY         0.00000   0.00000   0.00000   0.00000   0.00000
  26       24PZ         0.00000   0.00000   0.00000   0.00000   0.00001
  27       25PX         0.00000   0.00000   0.00001   0.00000   0.00000
  28       25PY         0.00000   0.00001   0.00000   0.00000   0.00000
  29       25PZ         0.00001   0.00000   0.00000   0.00000   0.00002
  30       26PX         0.00000   0.00000   0.00005   0.00000   0.00000
  31       26PY         0.00000   0.00005   0.00000   0.00000   0.00000
  32       26PZ         0.00005   0.00000   0.00000   0.00000   0.00009
  33       27PX         0.00000   0.00000   0.00017   0.00000   0.00000
  34       27PY         0.00000   0.00017   0.00000   0.00000   0.00000
  35       27PZ         0.00017   0.00000   0.00000   0.00000   0.00041
  36       28PX         0.00000   0.00000   0.00065   0.00000   0.00000
  37       28PY         0.00000   0.00065   0.00000   0.00000   0.00000
  38       28PZ         0.00065   0.00000   0.00000   0.00000   0.00119
  39       29PX         0.00000   0.00000   0.00167   0.00000   0.00000
  40       29PY         0.00000   0.00167   0.00000   0.00000   0.00000
  41       29PZ         0.00167   0.00000   0.00000   0.00000   0.00407
  42       30PX         0.00000   0.00000   0.00434   0.00000   0.00000
  43       30PY         0.00000   0.00434   0.00000   0.00000   0.00000
  44       30PZ         0.00434   0.00000   0.00000   0.00000   0.00725
  45       31PX         0.00000   0.00000   0.00558   0.00000   0.00000
  46       31PY         0.00000   0.00558   0.00000   0.00000   0.00000
  47       31PZ         0.00558   0.00000   0.00000   0.00000   0.01824
  48       32PX         0.00000   0.00000   0.01231   0.00000   0.00000
  49       32PY         0.00000   0.01231   0.00000   0.00000   0.00000
  50       32PZ         0.01231   0.00000   0.00000   0.00000  -0.00729
  51       33PX         0.00000   0.00000   0.04260   0.00000   0.00000
  52       33PY         0.00000   0.04260   0.00000   0.00000   0.00000
  53       33PZ         0.04260   0.00000   0.00000   0.00000  -0.17288
  54       34PX         0.00000   0.00000  -0.04876   0.00000   0.00000
  55       34PY         0.00000  -0.04876   0.00000   0.00000   0.00000
  56       34PZ        -0.04876   0.00000   0.00000   0.00000   0.06920
  57       35PX         0.00000   0.00000  -0.21276   0.00000   0.00000
  58       35PY         0.00000  -0.21276   0.00000   0.00000   0.00000
  59       35PZ        -0.21276   0.00000   0.00000   0.00000   0.62554
  60       36PX         0.00000   0.00000   0.01451   0.00000   0.00000
  61       36PY         0.00000   0.01451   0.00000   0.00000   0.00000
  62       36PZ         0.01451   0.00000   0.00000   0.00000  -0.14787
  63       37PX         0.00000   0.00000  -0.01025   0.00000   0.00000
  64       37PY         0.00000  -0.01025   0.00000   0.00000   0.00000
  65       37PZ        -0.01025   0.00000   0.00000   0.00000   0.17024
  66       38PX         0.00000   0.00000   0.18792   0.00000   0.00000
  67       38PY         0.00000   0.18792   0.00000   0.00000   0.00000
  68       38PZ         0.18792   0.00000   0.00000   0.00000  -0.04141
  69       39PX         0.00000   0.00000  -0.08697   0.00000   0.00000
  70       39PY         0.00000  -0.08697   0.00000   0.00000   0.00000
  71       39PZ        -0.08697   0.00000   0.00000   0.00000   1.39261
  72       40PX         0.00000   0.00000  -0.04026   0.00000   0.00000
  73       40PY         0.00000  -0.04026   0.00000   0.00000   0.00000
  74       40PZ        -0.04026   0.00000   0.00000   0.00000   0.14669
  75       41PX         0.00000   0.00000   0.18826   0.00000   0.00000
  76       41PY         0.00000   0.18826   0.00000   0.00000   0.00000
  77       41PZ         0.18826   0.00000   0.00000   0.00000  -0.68245
  78       42PX         0.00000   0.00000   0.99819   0.00000   0.00000
  79       42PY         0.00000   0.99819   0.00000   0.00000   0.00000
  80       42PZ         0.99819   0.00000   0.00000   0.00000  -1.06849
  81       43D 0        0.00000   0.00000   0.00000  -0.00000   0.00000
  82       43D+1        0.00000   0.00000   0.00000   0.00000   0.00000
  83       43D-1        0.00000   0.00000   0.00000   0.00000   0.00000
  84       43D+2        0.00000   0.00000   0.00000  -0.00000   0.00000
  85       43D-2        0.00000   0.00000   0.00000   0.00000   0.00000
  86       44D 0        0.00000   0.00000   0.00000  -0.00000   0.00000
  87       44D+1        0.00000   0.00000   0.00000   0.00000   0.00000
  88       44D-1        0.00000   0.00000   0.00000   0.00000   0.00000
  89       44D+2        0.00000   0.00000   0.00000  -0.00000   0.00000
  90       44D-2        0.00000   0.00000   0.00000   0.00000   0.00000
  91       45D 0        0.00000   0.00000   0.00000  -0.00000   0.00000
  92       45D+1        0.00000   0.00000   0.00000   0.00000   0.00000
  93       45D-1        0.00000   0.00000   0.00000   0.00000   0.00000
  94       45D+2        0.00000   0.00000   0.00000  -0.00000   0.00000
  95       45D-2        0.00000   0.00000   0.00000   0.00000   0.00000
  96       46D 0        0.00000   0.00000   0.00000  -0.00000   0.00000
  97       46D+1        0.00000   0.00000   0.00000   0.00000   0.00000
  98       46D-1        0.00000   0.00000   0.00000   0.00000   0.00000
  99       46D+2        0.00000   0.00000   0.00000  -0.00000   0.00000
 100       46D-2        0.00000   0.00000   0.00000   0.00000   0.00000
 101       47D 0        0.00000   0.00000   0.00000   0.00000   0.00000
 102       47D+1        0.00000   0.00000   0.00000   0.00000   0.00000
 103       47D-1        0.00000   0.00000   0.00000   0.00000   0.00000
 104       47D+2        0.00000   0.00000   0.00000   0.00000   0.00000
 105       47D-2        0.00000   0.00000   0.00000   0.00000   0.00000
 106       48D 0        0.00000   0.00000   0.00000  -0.00000   0.00000
 107       48D+1        0.00000   0.00000   0.00000   0.00000   0.00000
 108       48D-1        0.00000   0.00000   0.00000   0.00000   0.00000
 109       48D+2        0.00000   0.00000   0.00000  -0.00000   0.00000
 110       48D-2        0.00000   0.00000   0.00000   0.00000   0.00000
 111       49D 0        0.00000   0.00000   0.00000  -0.00000   0.00000
 112       49D+1        0.00000   0.00000   0.00000   0.00000   0.00000
 113       49D-1        0.00000   0.00000   0.00000   0.00000   0.00000
 114       49D+2        0.00000   0.00000   0.00000  -0.00000   0.00000
 115       49D-2        0.00000   0.00000   0.00000   0.00000   0.00000
 116       50D 0        0.00000   0.00000   0.00000  -0.00000   0.00000
 117       50D+1        0.00000   0.00000   0.00000   0.00000   0.00000
 118       50D-1        0.00000   0.00000   0.00000   0.00000   0.00000
 119       50D+2        0.00000   0.00000   0.00000  -0.00000   0.00000
 120       50D-2        0.00000   0.00000   0.00000   0.00000   0.00000
 121       51D 0        0.00000   0.00000   0.00000  -0.00000   0.00000
 122       51D+1        0.00000   0.00000   0.00000   0.00000   0.00000
 123       51D-1        0.00000   0.00000   0.00000   0.00000   0.00000
 124       51D+2        0.00000   0.00000   0.00000  -0.00000   0.00000
 125       51D-2        0.00000   0.00000   0.00000   0.00000   0.00000
 126       52D 0        0.00000   0.00000   0.00000  -0.00000   0.00000
 127       52D+1        0.00000   0.00000   0.00000   0.00000   0.00000
 128       52D-1        0.00000   0.00000   0.00000   0.00000   0.00000
 129       52D+2        0.00000   0.00000   0.00000  -0.00000   0.00000
 130       52D-2        0.00000   0.00000   0.00000   0.00000   0.00000
 131       53D 0        0.00000   0.00000   0.00000  -0.00000   0.00000
 132       53D+1        0.00000   0.00000   0.00000   0.00000   0.00000
 133       53D-1        0.00000   0.00000   0.00000   0.00000   0.00000
 134       53D+2        0.00000   0.00000   0.00000  -0.00000   0.00000
 135       53D-2        0.00000   0.00000   0.00000   0.00000   0.00000
 136       54F 0       -0.00000   0.00000   0.00000   0.00000  -0.00000
 137       54F+1        0.00000   0.00000  -0.00000   0.00000   0.00000
 138       54F-1        0.00000   0.00000   0.00000   0.00000   0.00000
 139       54F+2       -0.00000   0.00000   0.00000   0.00000  -0.00000
 140       54F-2        0.00000   0.00000   0.00000   0.00000   0.00000
 141       54F+3        0.00000   0.00000   0.00000   0.00000   0.00000
 142       54F-3        0.00000   0.00000   0.00000   0.00000   0.00000
 143       55F 0       -0.00000   0.00000   0.00000   0.00000  -0.00000
 144       55F+1        0.00000   0.00000  -0.00000   0.00000   0.00000
 145       55F-1        0.00000   0.00000   0.00000   0.00000   0.00000
 146       55F+2       -0.00000   0.00000   0.00000   0.00000  -0.00000
 147       55F-2        0.00000   0.00000   0.00000   0.00000   0.00000
 148       55F+3        0.00000   0.00000   0.00000   0.00000   0.00000
 149       55F-3        0.00000   0.00000   0.00000   0.00000   0.00000
 150       56F 0       -0.00000   0.00000   0.00000   0.00000  -0.00000
 151       56F+1        0.00000   0.00000  -0.00000   0.00000   0.00000
 152       56F-1        0.00000   0.00000   0.00000   0.00000   0.00000
 153       56F+2       -0.00000   0.00000   0.00000   0.00000  -0.00000
 154       56F-2        0.00000   0.00000   0.00000   0.00000   0.00000
 155       56F+3        0.00000   0.00000   0.00000   0.00000   0.00000
 156       56F-3        0.00000   0.00000   0.00000   0.00000   0.00000
 157       57F 0       -0.00000   0.00000   0.00000   0.00000  -0.00000
 158       57F+1        0.00000   0.00000  -0.00000   0.00000   0.00000
 159       57F-1        0.00000   0.00000   0.00000   0.00000   0.00000
 160       57F+2       -0.00000   0.00000   0.00000   0.00000  -0.00000
 161       57F-2        0.00000   0.00000   0.00000   0.00000   0.00000
 162       57F+3        0.00000   0.00000   0.00000   0.00000   0.00000
 163       57F-3        0.00000   0.00000   0.00000   0.00000   0.00000
 164       58G 0        0.00000   0.00000   0.00000   0.00000   0.00000
 165       58G+1        0.00000   0.00000   0.00000   0.00000   0.00000
 166       58G-1        0.00000   0.00000   0.00000   0.00000   0.00000
 167       58G+2        0.00000   0.00000   0.00000  -0.00000   0.00000
 168       58G-2        0.00000   0.00000   0.00000   0.00000   0.00000
 169       58G+3        0.00000   0.00000   0.00000   0.00000   0.00000
 170       58G-3        0.00000   0.00000   0.00000   0.00000   0.00000
 171       58G+4        0.00000   0.00000   0.00000  -0.00000   0.00000
 172       58G-4        0.00000   0.00000   0.00000   0.00000   0.00000
 173       59G 0        0.00000   0.00000   0.00000  -0.00000   0.00000
 174       59G+1        0.00000   0.00000   0.00000   0.00000   0.00000
 175       59G-1        0.00000   0.00000   0.00000   0.00000   0.00000
 176       59G+2        0.00000   0.00000   0.00000   0.00000   0.00000
 177       59G-2        0.00000   0.00000   0.00000   0.00000   0.00000
 178       59G+3        0.00000   0.00000   0.00000   0.00000   0.00000
 179       59G-3        0.00000   0.00000   0.00000   0.00000   0.00000
 180       59G+4        0.00000   0.00000   0.00000   0.00000   0.00000
 181       59G-4        0.00000   0.00000   0.00000   0.00000   0.00000
 182       60G 0        0.00000   0.00000   0.00000   0.00000   0.00000
 183       60G+1        0.00000   0.00000   0.00000   0.00000   0.00000
 184       60G-1        0.00000   0.00000   0.00000   0.00000   0.00000
 185       60G+2        0.00000   0.00000   0.00000  -0.00000   0.00000
 186       60G-2        0.00000   0.00000   0.00000   0.00000   0.00000
 187       60G+3        0.00000   0.00000   0.00000   0.00000   0.00000
 188       60G-3        0.00000   0.00000   0.00000   0.00000   0.00000
 189       60G+4        0.00000   0.00000   0.00000  -0.00000   0.00000
 190       60G-4        0.00000   0.00000   0.00000   0.00000   0.00000
     Alpha Density Matrix:
                           1         2         3         4         5
   1 1   Zn 1S          0.00000
   2        2S          0.00000   0.00000
   3        3S          0.00000   0.00000   0.00000
   4        4S          0.00000   0.00000   0.00001   0.00001
   5        5S          0.00000   0.00001   0.00001   0.00003   0.00009
   6        6S          0.00000   0.00001   0.00004   0.00009   0.00022
   7        7S          0.00001   0.00003   0.00009   0.00022   0.00056
   8        8S          0.00003   0.00008   0.00020   0.00051   0.00129
   9        9S          0.00005   0.00015   0.00040   0.00101   0.00255
  10       10S          0.00007   0.00022   0.00058   0.00147   0.00371
  11       11S          0.00006   0.00018   0.00047   0.00120   0.00302
  12       12S          0.00001   0.00002   0.00006   0.00014   0.00036
  13       13S         -0.00004  -0.00011  -0.00030  -0.00075  -0.00191
  14       14S         -0.00004  -0.00011  -0.00029  -0.00073  -0.00184
  15       15S         -0.00000  -0.00000  -0.00000  -0.00001  -0.00002
  16       16S          0.00002   0.00005   0.00013   0.00034   0.00086
  17       17S          0.00001   0.00002   0.00007   0.00017   0.00042
  18       18S         -0.00000  -0.00000  -0.00001  -0.00002  -0.00006
  19       19S         -0.00000  -0.00001  -0.00002  -0.00005  -0.00013
  20       20S         -0.00000  -0.00000  -0.00001  -0.00002  -0.00005
  21       21S         -0.00000  -0.00000  -0.00000  -0.00001  -0.00002
  22       22S         -0.00000  -0.00000  -0.00000  -0.00001  -0.00002
  23       23S         -0.00000  -0.00000  -0.00000  -0.00000  -0.00000
  24       24PX         0.00000   0.00000   0.00000   0.00000   0.00000
  25       24PY         0.00000   0.00000   0.00000   0.00000   0.00000
  26       24PZ         0.00000   0.00000   0.00000   0.00000   0.00000
  27       25PX         0.00000   0.00000   0.00000   0.00000   0.00000
  28       25PY         0.00000   0.00000   0.00000   0.00000   0.00000
  29       25PZ         0.00000   0.00000   0.00000   0.00000   0.00000
  30       26PX         0.00000   0.00000   0.00000   0.00000   0.00000
  31       26PY         0.00000   0.00000   0.00000   0.00000   0.00000
  32       26PZ         0.00000   0.00000   0.00000   0.00000   0.00000
  33       27PX         0.00000   0.00000   0.00000   0.00000   0.00000
  34       27PY         0.00000   0.00000   0.00000   0.00000   0.00000
  35       27PZ         0.00000   0.00000   0.00000   0.00000   0.00000
  36       28PX         0.00000   0.00000   0.00000   0.00000   0.00000
  37       28PY         0.00000   0.00000   0.00000   0.00000   0.00000
  38       28PZ         0.00000   0.00000   0.00000   0.00000   0.00000
  39       29PX         0.00000   0.00000   0.00000   0.00000   0.00000
  40       29PY         0.00000   0.00000   0.00000   0.00000   0.00000
  41       29PZ         0.00000   0.00000   0.00000   0.00000   0.00000
  42       30PX         0.00000   0.00000   0.00000   0.00000   0.00000
  43       30PY         0.00000   0.00000   0.00000   0.00000   0.00000
  44       30PZ         0.00000   0.00000   0.00000   0.00000   0.00000
  45       31PX         0.00000   0.00000   0.00000   0.00000   0.00000
  46       31PY         0.00000   0.00000   0.00000   0.00000   0.00000
  47       31PZ         0.00000   0.00000   0.00000   0.00000   0.00000
  48       32PX         0.00000   0.00000   0.00000   0.00000   0.00000
  49       32PY         0.00000   0.00000   0.00000   0.00000   0.00000
  50       32PZ         0.00000   0.00000   0.00000   0.00000   0.00000
  51       33PX         0.00000   0.00000   0.00000   0.00000   0.00000
  52       33PY         0.00000   0.00000   0.00000   0.00000   0.00000
  53       33PZ         0.00000   0.00000   0.00000   0.00000   0.00000
  54       34PX         0.00000   0.00000   0.00000   0.00000   0.00000
  55       34PY         0.00000   0.00000   0.00000   0.00000   0.00000
  56       34PZ         0.00000   0.00000   0.00000   0.00000   0.00000
  57       35PX         0.00000   0.00000   0.00000   0.00000   0.00000
  58       35PY         0.00000   0.00000   0.00000   0.00000   0.00000
  59       35PZ         0.00000   0.00000   0.00000   0.00000   0.00000
  60       36PX         0.00000   0.00000   0.00000   0.00000   0.00000
  61       36PY         0.00000   0.00000   0.00000   0.00000   0.00000
  62       36PZ         0.00000   0.00000   0.00000   0.00000   0.00000
  63       37PX         0.00000   0.00000   0.00000   0.00000   0.00000
  64       37PY         0.00000   0.00000   0.00000   0.00000   0.00000
  65       37PZ         0.00000   0.00000   0.00000   0.00000   0.00000
  66       38PX         0.00000   0.00000   0.00000   0.00000   0.00000
  67       38PY         0.00000   0.00000   0.00000   0.00000   0.00000
  68       38PZ         0.00000   0.00000   0.00000   0.00000   0.00000
  69       39PX         0.00000   0.00000   0.00000   0.00000   0.00000
  70       39PY         0.00000   0.00000   0.00000   0.00000   0.00000
  71       39PZ         0.00000   0.00000   0.00000   0.00000   0.00000
  72       40PX         0.00000   0.00000   0.00000   0.00000   0.00000
  73       40PY         0.00000   0.00000   0.00000   0.00000   0.00000
  74       40PZ         0.00000   0.00000   0.00000   0.00000   0.00000
  75       41PX         0.00000   0.00000   0.00000   0.00000   0.00000
  76       41PY         0.00000   0.00000   0.00000   0.00000   0.00000
  77       41PZ         0.00000   0.00000   0.00000   0.00000   0.00000
  78       42PX         0.00000   0.00000   0.00000   0.00000   0.00000
  79       42PY         0.00000   0.00000   0.00000   0.00000   0.00000
  80       42PZ         0.00000   0.00000   0.00000   0.00000   0.00000
  81       43D 0        0.00000  -0.00000   0.00000  -0.00000  -0.00000
  82       43D+1       -0.00000  -0.00000  -0.00000   0.00000  -0.00000
  83       43D-1       -0.00000  -0.00000   0.00000  -0.00000   0.00000
  84       43D+2       -0.00000  -0.00000  -0.00000   0.00000  -0.00000
  85       43D-2       -0.00000  -0.00000  -0.00000   0.00000  -0.00000
  86       44D 0        0.00000  -0.00000  -0.00000  -0.00000   0.00000
  87       44D+1       -0.00000   0.00000  -0.00000   0.00000  -0.00000
  88       44D-1       -0.00000  -0.00000   0.00000  -0.00000   0.00000
  89       44D+2       -0.00000  -0.00000  -0.00000  -0.00000  -0.00000
  90       44D-2       -0.00000   0.00000  -0.00000   0.00000  -0.00000
  91       45D 0        0.00000   0.00000   0.00000  -0.00000   0.00000
  92       45D+1       -0.00000   0.00000  -0.00000   0.00000  -0.00000
  93       45D-1       -0.00000  -0.00000   0.00000  -0.00000   0.00000
  94       45D+2        0.00000  -0.00000  -0.00000   0.00000  -0.00000
  95       45D-2       -0.00000   0.00000  -0.00000   0.00000  -0.00000
  96       46D 0       -0.00000  -0.00000   0.00000  -0.00000  -0.00000
  97       46D+1       -0.00000   0.00000  -0.00000   0.00000  -0.00000
  98       46D-1       -0.00000  -0.00000   0.00000  -0.00000   0.00000
  99       46D+2       -0.00000  -0.00000  -0.00000  -0.00000  -0.00000
 100       46D-2       -0.00000   0.00000  -0.00000   0.00000  -0.00000
 101       47D 0       -0.00000  -0.00000  -0.00000   0.00000   0.00000
 102       47D+1       -0.00000   0.00000  -0.00000   0.00000  -0.00000
 103       47D-1       -0.00000  -0.00000   0.00000  -0.00000   0.00000
 104       47D+2       -0.00000   0.00000  -0.00000   0.00000  -0.00000
 105       47D-2       -0.00000   0.00000  -0.00000   0.00000  -0.00000
 106       48D 0       -0.00000  -0.00000   0.00000  -0.00000   0.00000
 107       48D+1       -0.00000   0.00000  -0.00000   0.00000  -0.00000
 108       48D-1       -0.00000  -0.00000   0.00000  -0.00000   0.00000
 109       48D+2       -0.00000   0.00000  -0.00000  -0.00000  -0.00000
 110       48D-2       -0.00000   0.00000  -0.00000   0.00000  -0.00000
 111       49D 0        0.00000  -0.00000  -0.00000  -0.00000   0.00000
 112       49D+1       -0.00000  -0.00000  -0.00000   0.00000  -0.00000
 113       49D-1        0.00000  -0.00000   0.00000  -0.00000   0.00000
 114       49D+2        0.00000  -0.00000  -0.00000   0.00000   0.00000
 115       49D-2       -0.00000  -0.00000  -0.00000   0.00000  -0.00000
 116       50D 0       -0.00000  -0.00000   0.00000   0.00000   0.00000
 117       50D+1       -0.00000  -0.00000  -0.00000  -0.00000  -0.00000
 118       50D-1        0.00000   0.00000   0.00000   0.00000   0.00000
 119       50D+2        0.00000  -0.00000  -0.00000  -0.00000  -0.00000
 120       50D-2       -0.00000  -0.00000  -0.00000  -0.00000  -0.00000
 121       51D 0        0.00000   0.00000   0.00000  -0.00000   0.00000
 122       51D+1        0.00000   0.00000   0.00000   0.00000  -0.00000
 123       51D-1        0.00000   0.00000   0.00000   0.00000   0.00000
 124       51D+2        0.00000   0.00000  -0.00000  -0.00000   0.00000
 125       51D-2        0.00000   0.00000   0.00000   0.00000   0.00000
 126       52D 0        0.00000  -0.00000  -0.00000  -0.00000   0.00000
 127       52D+1       -0.00000  -0.00000  -0.00000   0.00000  -0.00000
 128       52D-1       -0.00000  -0.00000  -0.00000  -0.00000  -0.00000
 129       52D+2        0.00000  -0.00000   0.00000  -0.00000  -0.00000
 130       52D-2       -0.00000  -0.00000  -0.00000  -0.00000  -0.00000
 131       53D 0        0.00000   0.00000   0.00000  -0.00000   0.00000
 132       53D+1       -0.00000  -0.00000  -0.00000  -0.00000  -0.00000
 133       53D-1        0.00000   0.00000   0.00000   0.00000   0.00000
 134       53D+2       -0.00000  -0.00000   0.00000   0.00000  -0.00000
 135       53D-2       -0.00000  -0.00000  -0.00000  -0.00000  -0.00000
 136       54F 0        0.00000   0.00000   0.00000   0.00000   0.00000
 137       54F+1        0.00000   0.00000   0.00000   0.00000   0.00000
 138       54F-1        0.00000   0.00000   0.00000   0.00000   0.00000
 139       54F+2        0.00000   0.00000   0.00000   0.00000   0.00000
 140       54F-2        0.00000   0.00000   0.00000   0.00000   0.00000
 141       54F+3        0.00000   0.00000   0.00000   0.00000   0.00000
 142       54F-3        0.00000   0.00000   0.00000   0.00000   0.00000
 143       55F 0        0.00000   0.00000   0.00000   0.00000   0.00000
 144       55F+1        0.00000   0.00000   0.00000   0.00000   0.00000
 145       55F-1        0.00000   0.00000   0.00000   0.00000   0.00000
 146       55F+2        0.00000   0.00000   0.00000   0.00000   0.00000
 147       55F-2        0.00000   0.00000   0.00000   0.00000   0.00000
 148       55F+3        0.00000   0.00000   0.00000   0.00000   0.00000
 149       55F-3        0.00000   0.00000   0.00000   0.00000   0.00000
 150       56F 0        0.00000   0.00000   0.00000   0.00000   0.00000
 151       56F+1        0.00000   0.00000   0.00000   0.00000   0.00000
 152       56F-1        0.00000   0.00000   0.00000   0.00000   0.00000
 153       56F+2        0.00000   0.00000   0.00000   0.00000   0.00000
 154       56F-2        0.00000   0.00000   0.00000   0.00000   0.00000
 155       56F+3        0.00000   0.00000   0.00000   0.00000   0.00000
 156       56F-3        0.00000   0.00000   0.00000   0.00000   0.00000
 157       57F 0        0.00000   0.00000   0.00000   0.00000   0.00000
 158       57F+1        0.00000   0.00000   0.00000   0.00000   0.00000
 159       57F-1        0.00000   0.00000   0.00000   0.00000   0.00000
 160       57F+2        0.00000   0.00000   0.00000   0.00000   0.00000
 161       57F-2        0.00000   0.00000   0.00000   0.00000   0.00000
 162       57F+3        0.00000   0.00000   0.00000   0.00000   0.00000
 163       57F-3        0.00000   0.00000   0.00000   0.00000   0.00000
 164       58G 0       -0.00000  -0.00000  -0.00000  -0.00000  -0.00000
[...]
 181       59G-4       -0.00000   0.00000   0.00000  -0.00000   0.00000
 182       60G 0        0.00000  -0.00000  -0.00000   0.00000  -0.00000
 183       60G+1        0.00000   0.00000   0.00000   0.00000   0.00000
 184       60G-1        0.00000   0.00000   0.00000   0.00000  -0.00000
 185       60G+2       -0.00000  -0.00000   0.00000  -0.00000   0.00000
 186       60G-2       -0.00000   0.00000   0.00000  -0.00000  -0.00000
 187       60G+3        0.00000   0.00000   0.00000  -0.00000  -0.00000
 188       60G-3       -0.00000  -0.00000  -0.00000   0.00000  -0.00000
 189       60G+4        0.00000  -0.00000   0.00000  -0.00000  -0.00000
 190       60G-4        0.00000   0.00000   0.00000  -0.00000   0.00000
                         181       182       183       184       185
 181       59G-4        0.00000
 182       60G 0       -0.00000   0.00000
 183       60G+1       -0.00000  -0.00000   0.00000
 184       60G-1       -0.00000  -0.00000   0.00000   0.00000
 185       60G+2       -0.00000  -0.00000   0.00000   0.00000   0.00000
 186       60G-2        0.00000  -0.00000  -0.00000  -0.00000  -0.00000
 187       60G+3       -0.00000  -0.00000  -0.00000  -0.00000  -0.00000
 188       60G-3       -0.00000   0.00000   0.00000   0.00000   0.00000
 189       60G+4        0.00000  -0.00000   0.00000  -0.00000   0.00000
 190       60G-4        0.00000  -0.00000  -0.00000  -0.00000   0.00000
                         186       187       188       189       190
 186       60G-2        0.00000
 187       60G+3        0.00000   0.00000
 188       60G-3       -0.00000  -0.00000   0.00000
 189       60G+4        0.00000  -0.00000   0.00000   0.00000
 190       60G-4        0.00000  -0.00000   0.00000  -0.00000   0.00000
     Gross orbital populations:
                         Total     Alpha     Beta      Spin
   1 1   Zn 1S          0.00000   0.00000   0.00000   0.00000
   2        2S          0.00002   0.00001   0.00001   0.00000
   3        3S          0.00013   0.00007   0.00007   0.00000
   4        4S          0.00077   0.00038   0.00038   0.00000
   5        5S          0.00387   0.00194   0.00194   0.00000
   6        6S          0.01745   0.00873   0.00873   0.00000
   7        7S          0.06867   0.03433   0.03433   0.00000
   8        8S          0.21933   0.10967   0.10967   0.00000
   9        9S          0.50780   0.25390   0.25390   0.00000
  10       10S          0.70406   0.35203   0.35203   0.00000
  11       11S          0.37751   0.18876   0.18876   0.00000
  12       12S          0.17790   0.08895   0.08895   0.00000
  13       13S          0.99058   0.49529   0.49529   0.00000
  14       14S          0.84498   0.42249   0.42249   0.00000
  15       15S          0.37486   0.18743   0.18743   0.00000
  16       16S          1.06331   0.53166   0.53166   0.00000
  17       17S          0.55353   0.27677   0.27677   0.00000
  18       18S          0.54218   0.27109   0.27109   0.00000
  19       19S          1.04501   0.52251   0.52251   0.00000
  20       20S          0.44742   0.22371   0.22371   0.00000
  21       21S         -0.04735  -0.02368  -0.02368   0.00000
  22       22S          0.10929   0.05465   0.05465   0.00000
  23       23S         -0.00134  -0.00067  -0.00067   0.00000
  24       24PX         0.00000   0.00000   0.00000   0.00000
  25       24PY         0.00000   0.00000   0.00000   0.00000
  26       24PZ         0.00000   0.00000   0.00000   0.00000
  27       25PX         0.00003   0.00002   0.00002   0.00000
  28       25PY         0.00003   0.00002   0.00002   0.00000
  29       25PZ         0.00003   0.00002   0.00002   0.00000
  30       26PX         0.00048   0.00024   0.00024   0.00000
  31       26PY         0.00048   0.00024   0.00024   0.00000
  32       26PZ         0.00048   0.00024   0.00024   0.00000
  33       27PX         0.00456   0.00228   0.00228   0.00000
  34       27PY         0.00456   0.00228   0.00228   0.00000
  35       27PZ         0.00456   0.00228   0.00228   0.00000
  36       28PX         0.03020   0.01510   0.01510   0.00000
  37       28PY         0.03020   0.01510   0.01510   0.00000
  38       28PZ         0.03020   0.01510   0.01510   0.00000
  39       29PX         0.13624   0.06812   0.06812   0.00000
  40       29PY         0.13624   0.06812   0.06812   0.00000
  41       29PZ         0.13624   0.06812   0.06812   0.00000
  42       30PX         0.39678   0.19839   0.19839   0.00000
  43       30PY         0.39678   0.19839   0.19839   0.00000
  44       30PZ         0.39678   0.19839   0.19839   0.00000
  45       31PX         0.68345   0.34172   0.34172   0.00000
  46       31PY         0.68345   0.34172   0.34172   0.00000
  47       31PZ         0.68345   0.34172   0.34172   0.00000
  48       32PX         0.57515   0.28758   0.28758   0.00000
  49       32PY         0.57515   0.28758   0.28758   0.00000
  50       32PZ         0.57515   0.28758   0.28758   0.00000
  51       33PX         0.28562   0.14281   0.14281   0.00000
  52       33PY         0.28562   0.14281   0.14281   0.00000
  53       33PZ         0.28562   0.14281   0.14281   0.00000
  54       34PX         0.55279   0.27639   0.27639   0.00000
  55       34PY         0.55279   0.27639   0.27639   0.00000
  56       34PZ         0.55279   0.27639   0.27639   0.00000
  57       35PX         0.74376   0.37188   0.37188   0.00000
  58       35PY         0.74376   0.37188   0.37188   0.00000
  59       35PZ         0.74376   0.37188   0.37188   0.00000
  60       36PX         0.45206   0.22603   0.22603   0.00000
  61       36PY         0.45206   0.22603   0.22603   0.00000
  62       36PZ         0.45206   0.22603   0.22603   0.00000
  63       37PX         0.03652   0.01826   0.01826   0.00000
  64       37PY         0.03652   0.01826   0.01826   0.00000
  65       37PZ         0.03652   0.01826   0.01826   0.00000
  66       38PX        -0.00082  -0.00041  -0.00041   0.00000
  67       38PY        -0.00082  -0.00041  -0.00041   0.00000
  68       38PZ        -0.00082  -0.00041  -0.00041   0.00000
  69       39PX         0.00016   0.00008   0.00008   0.00000
  70       39PY         0.00016   0.00008   0.00008   0.00000
  71       39PZ         0.00016   0.00008   0.00008   0.00000
  72       40PX        -0.01606  -0.00803  -0.00803   0.00000
  73       40PY        -0.01606  -0.00803  -0.00803   0.00000
  74       40PZ        -0.01606  -0.00803  -0.00803   0.00000
  75       41PX         0.11910   0.05955   0.05955   0.00000
  76       41PY         0.11910   0.05955   0.05955   0.00000
  77       41PZ         0.11910   0.05955   0.05955   0.00000
  78       42PX        -0.00001  -0.00001  -0.00001   0.00000
  79       42PY        -0.00001  -0.00001  -0.00001   0.00000
  80       42PZ        -0.00001  -0.00001  -0.00001   0.00000
  81       43D 0        0.00019   0.00010   0.00010   0.00000
  82       43D+1        0.00019   0.00010   0.00010   0.00000
  83       43D-1        0.00019   0.00010   0.00010   0.00000
  84       43D+2        0.00019   0.00010   0.00010   0.00000
  85       43D-2        0.00019   0.00010   0.00010   0.00000
  86       44D 0        0.00595   0.00298   0.00298   0.00000
  87       44D+1        0.00595   0.00298   0.00298   0.00000
  88       44D-1        0.00595   0.00298   0.00298   0.00000
  89       44D+2        0.00595   0.00298   0.00298   0.00000
  90       44D-2        0.00595   0.00298   0.00298   0.00000
  91       45D 0        0.05829   0.02914   0.02914   0.00000
  92       45D+1        0.05829   0.02914   0.02914   0.00000
  93       45D-1        0.05829   0.02914   0.02914   0.00000
  94       45D+2        0.05829   0.02914   0.02914   0.00000
  95       45D-2        0.05829   0.02914   0.02914   0.00000
  96       46D 0        0.25595   0.12797   0.12797   0.00000
  97       46D+1        0.25595   0.12797   0.12797   0.00000
  98       46D-1        0.25595   0.12797   0.12797   0.00000
  99       46D+2        0.25595   0.12797   0.12797   0.00000
 100       46D-2        0.25595   0.12797   0.12797   0.00000
 101       47D 0        0.49289   0.24644   0.24644   0.00000
 102       47D+1        0.49289   0.24644   0.24644   0.00000
 103       47D-1        0.49289   0.24644   0.24644   0.00000
 104       47D+2        0.49289   0.24644   0.24644   0.00000
 105       47D-2        0.49289   0.24644   0.24644   0.00000
 106       48D 0        0.63779   0.31890   0.31890   0.00000
 107       48D+1        0.63779   0.31890   0.31890   0.00000
 108       48D-1        0.63779   0.31890   0.31890   0.00000
 109       48D+2        0.63779   0.31890   0.31890   0.00000
 110       48D-2        0.63779   0.31890   0.31890   0.00000
 111       49D 0        0.39176   0.19588   0.19588   0.00000
 112       49D+1        0.39176   0.19588   0.19588   0.00000
 113       49D-1        0.39176   0.19588   0.19588   0.00000
 114       49D+2        0.39176   0.19588   0.19588   0.00000
 115       49D-2        0.39176   0.19588   0.19588   0.00000
 116       50D 0        0.08353   0.04177   0.04177   0.00000
 117       50D+1        0.08353   0.04177   0.04177   0.00000
 118       50D-1        0.08353   0.04177   0.04177   0.00000
 119       50D+2        0.08353   0.04177   0.04177   0.00000
 120       50D-2        0.08353   0.04177   0.04177   0.00000
 121       51D 0        0.00692   0.00346   0.00346   0.00000
 122       51D+1        0.00692   0.00346   0.00346   0.00000
 123       51D-1        0.00692   0.00346   0.00346   0.00000
 124       51D+2        0.00692   0.00346   0.00346   0.00000
 125       51D-2        0.00692   0.00346   0.00346   0.00000
 126       52D 0        0.06513   0.03257   0.03257   0.00000
 127       52D+1        0.06513   0.03257   0.03257   0.00000
 128       52D-1        0.06513   0.03257   0.03257   0.00000
 129       52D+2        0.06513   0.03257   0.03257   0.00000
 130       52D-2        0.06513   0.03257   0.03257   0.00000
 131       53D 0        0.00159   0.00079   0.00079   0.00000
 132       53D+1        0.00159   0.00079   0.00079   0.00000
 133       53D-1        0.00159   0.00079   0.00079   0.00000
 134       53D+2        0.00159   0.00079   0.00079   0.00000
 135       53D-2        0.00159   0.00079   0.00079   0.00000
 136       54F 0        0.00000   0.00000   0.00000   0.00000
 137       54F+1        0.00000   0.00000   0.00000   0.00000
 138       54F-1        0.00000   0.00000   0.00000   0.00000
 139       54F+2        0.00000   0.00000   0.00000   0.00000
 140       54F-2        0.00000   0.00000   0.00000   0.00000
 141       54F+3        0.00000   0.00000   0.00000   0.00000
 142       54F-3        0.00000   0.00000   0.00000   0.00000
 143       55F 0        0.00000   0.00000   0.00000   0.00000
 144       55F+1        0.00000   0.00000   0.00000   0.00000
 145       55F-1        0.00000   0.00000   0.00000   0.00000
 146       55F+2        0.00000   0.00000   0.00000   0.00000
 147       55F-2        0.00000   0.00000   0.00000   0.00000
 148       55F+3        0.00000   0.00000   0.00000   0.00000
 149       55F-3        0.00000   0.00000   0.00000   0.00000
 150       56F 0        0.00000   0.00000   0.00000   0.00000
 151       56F+1        0.00000   0.00000   0.00000   0.00000
 152       56F-1        0.00000   0.00000   0.00000   0.00000
 153       56F+2        0.00000   0.00000   0.00000   0.00000
 154       56F-2        0.00000   0.00000   0.00000   0.00000
 155       56F+3        0.00000   0.00000   0.00000   0.00000
 156       56F-3        0.00000   0.00000   0.00000   0.00000
 157       57F 0        0.00000   0.00000   0.00000   0.00000
 158       57F+1        0.00000   0.00000   0.00000   0.00000
 159       57F-1        0.00000   0.00000   0.00000   0.00000
 160       57F+2        0.00000   0.00000   0.00000   0.00000
 161       57F-2        0.00000   0.00000   0.00000   0.00000
 162       57F+3        0.00000   0.00000   0.00000   0.00000
 163       57F-3        0.00000   0.00000   0.00000   0.00000
 164       58G 0        0.00000   0.00000   0.00000   0.00000
 165       58G+1        0.00000   0.00000   0.00000   0.00000
 166       58G-1        0.00000   0.00000   0.00000   0.00000
 167       58G+2        0.00000   0.00000   0.00000   0.00000
 168       58G-2        0.00000   0.00000   0.00000   0.00000
 169       58G+3        0.00000   0.00000   0.00000   0.00000
 170       58G-3        0.00000   0.00000   0.00000   0.00000
 171       58G+4        0.00000   0.00000   0.00000   0.00000
 172       58G-4        0.00000   0.00000   0.00000   0.00000
 173       59G 0        0.00000   0.00000   0.00000   0.00000
 174       59G+1        0.00000   0.00000   0.00000   0.00000
 175       59G-1        0.00000   0.00000   0.00000   0.00000
 176       59G+2        0.00000   0.00000   0.00000   0.00000
 177       59G-2        0.00000   0.00000   0.00000   0.00000
 178       59G+3        0.00000   0.00000   0.00000   0.00000
 179       59G-3        0.00000   0.00000   0.00000   0.00000
 180       59G+4        0.00000   0.00000   0.00000   0.00000
 181       59G-4        0.00000   0.00000   0.00000   0.00000
 182       60G 0        0.00000   0.00000   0.00000   0.00000
 183       60G+1        0.00000   0.00000   0.00000   0.00000
 184       60G-1        0.00000   0.00000   0.00000   0.00000
 185       60G+2        0.00000   0.00000   0.00000   0.00000
 186       60G-2        0.00000   0.00000   0.00000   0.00000
 187       60G+3        0.00000   0.00000   0.00000   0.00000
 188       60G-3        0.00000   0.00000   0.00000   0.00000
 189       60G+4        0.00000   0.00000   0.00000   0.00000
 190       60G-4        0.00000   0.00000   0.00000   0.00000
          Condensed to atoms (all electrons):
               1
     1  Zn  30.000000
          Atomic-Atomic Spin Densities.
               1
     1  Zn   0.000000
 Mulliken charges and spin densities:
               1          2
     1  Zn  -0.000000   0.000000
 Sum of Mulliken charges =  -0.00000   0.00000
 Mulliken charges and spin densities with hydrogens summed into heavy atoms:
               1          2
     1  Zn  -0.000000   0.000000
 Electronic spatial extent (au):  <R**2>=             34.3970
 Charge=              0.0000 electrons
 Dipole moment (field-independent basis, Debye):
    X=              0.0000    Y=              0.0000    Z=              0.0000  Tot=              0.0000
 Quadrupole moment (field-independent basis, Debye-Ang):
   XX=            -15.4217   YY=            -15.4217   ZZ=            -15.4217
   XY=             -0.0000   XZ=             -0.0000   YZ=              0.0000
 Traceless Quadrupole moment (field-independent basis, Debye-Ang):
   XX=             -0.0000   YY=              0.0000   ZZ=              0.0000
   XY=             -0.0000   XZ=             -0.0000   YZ=              0.0000
 Octapole moment (field-independent basis, Debye-Ang**2):
  XXX=              0.0000  YYY=              0.0000  ZZZ=              0.0000  XYY=              0.0000
  XXY=              0.0000  XXZ=              0.0000  XZZ=              0.0000  YZZ=              0.0000
  YYZ=              0.0000  XYZ=              0.0000
 Hexadecapole moment (field-independent basis, Debye-Ang**3):
 XXXX=            -27.3251 YYYY=            -27.3251 ZZZZ=            -27.3251 XXXY=             -0.0000
 XXXZ=             -0.0000 YYYX=             -0.0000 YYYZ=              0.0000 ZZZX=             -0.0000
 ZZZY=              0.0000 XXYY=             -9.1084 XXZZ=             -9.1084 YYZZ=             -9.1084
 XXYZ=              0.0000 YYXZ=             -0.0000 ZZXY=             -0.0000
 N-N= 0.000000000000D+00 E-N=-4.398006831408D+03  KE= 1.893097867405D+03
 Symmetry AG   KE= 1.223265211583D+03
 Symmetry B1G  KE= 2.225956631795D+01
 Symmetry B2G  KE= 2.225956631792D+01
 Symmetry B3G  KE= 2.225956631933D+01
 Symmetry AU   KE= 1.509611920331D-52
 Symmetry B1U  KE= 2.010179856206D+02
 Symmetry B2U  KE= 2.010179856224D+02
 Symmetry B3U  KE= 2.010179856224D+02
 Symmetry AG   SP= 0.000000000000D+00
 Symmetry B1G  SP= 0.000000000000D+00
 Symmetry B2G  SP= 0.000000000000D+00
 Symmetry B3G  SP= 0.000000000000D+00
 Symmetry AU   SP= 0.000000000000D+00
 Symmetry B1U  SP= 0.000000000000D+00
 Symmetry B2U  SP= 0.000000000000D+00
 Symmetry B3U  SP= 0.000000000000D+00
 Orbital energies and kinetic energies (alpha):
                                 1                 2
  11         (T2G)--O         -0.761396         11.129783
  12         (T2G)--O         -0.761396         11.129783
  13         (EG)--O          -0.761396         11.129783
  14         (T2G)--O         -0.761396         11.129783
  15         (A1G)--O         -0.298597          1.103498
  16         (T1U)--V          0.026788          0.085318
  17         (T1U)--V          0.026788          0.085318
  18         (T1U)--V          0.026788          0.085318
  19         (A1G)--V          0.033541          0.088487
  20         (T1U)--V          0.089811          0.324695
 Total kinetic energy from orbitals= 1.893097867405D+03
 FoFCou: FMM=F IPFlag=           8 FMFlag=           0 FMFlg1=           0
         NFxFlg=           0 DoJE=F BraDBF=T KetDBF=F FulRan=T
         wScrn=  0.000000 ICntrl=   2000500 IOpCl=  0 I1Cent=           5 NGrid=           0
         NMat0=    1 NMatS0=      1 NMatT0=    0 NMatD0=    1 NMtDS0=    0 NMtDT0=    0
 Symmetry not used in FoFCou.
                          Isotropic Fermi Contact Couplings
        Atom                 a.u.       MegaHertz       Gauss      10(-4) cm-1
     1  Zn(67)             0.00000       0.00000       0.00000       0.00000
 --------------------------------------------------------
       Center         ----  Spin Dipole Couplings  ----
                      3XX-RR        3YY-RR        3ZZ-RR
 --------------------------------------------------------
     1   Atom        0.000000      0.000000      0.000000
 --------------------------------------------------------
                        XY            XZ            YZ
 --------------------------------------------------------
     1   Atom        0.000000      0.000000      0.000000
 --------------------------------------------------------


 ---------------------------------------------------------------------------------
              Anisotropic Spin Dipole Couplings in Principal Axis System
 ---------------------------------------------------------------------------------

       Atom             a.u.   MegaHertz   Gauss  10(-4) cm-1        Axes

              Baa     0.0000     0.000     0.000     0.000  1.0000  0.0000  0.0000
     1 Zn(67) Bbb     0.0000     0.000     0.000     0.000 -0.0000  1.0000  0.0000
              Bcc     0.0000     0.000     0.000     0.000  0.0000  0.0000  1.0000
 

 ---------------------------------------------------------------------------------

 No NMR shielding tensors so no spin-rotation constants.
 Leave Link  601 at Thu Mar 29 05:15:35 2018, MaxMem= 10737418240 cpu:              66.9 elap:               2.2
 (Enter /home1/apps/gaussian/16rA.03/g16/l9999.exe)
 1\1\GINC-C472-043\SP\ROCCSD(T)-Full\Gen\Zn1\GWANG18\29-Mar-2018\0\\#P 
 ROCCSD(T)=(MaxCyc=150, Full)/Gen SCF=(maxcycle=400) Integral(DKHSO, No
 XCTest) Pop=Regular MaxDisk=500GB\\Zn\\0,1\Zn,0,0.,0.,0.\\Version=ES64
 L-G16RevA.03\State=1-A1G\HF=-1794.2761239\MP2=-1795.7499491\MP3=-1795.
 5832112\PUHF=-1794.2761239\PMP2-0=-1795.7499491\MP4SDQ=-1795.679746\CC
 SD=-1795.6413897\CCSD(T)=-1795.6709896\RMSD=2.039e-09\PG=OH [O(Zn1)]\\
 @


 When I told the people of Northern Ireland that I was
 an atheist, a woman in the audience stood up and said,
 "Yes, but is it the God of the Catholics or the God
 of the Protestants in whom you don't believe?"
                               -- Quentin Crisp
 Job cpu time:       0 days  7 hours 26 minutes 31.7 seconds.
 Elapsed time:       0 days  0 hours 13 minutes 59.1 seconds.
 File lengths (MBytes):  RWF=   2415 Int=      0 D2E=      0 Chk=      5 Scr=      1
 Normal termination of Gaussian 16 at Thu Mar 29 05:15:36 2018.
