 Entering Gaussian System, Link 0=g16
 Initial command:
 /home1/apps/gaussian/16rA.03/g16/l1.exe "/tmp/Gau-91493.inp" -scrdir="/tmp/"
 Entering Link 1 = /home1/apps/gaussian/16rA.03/g16/l1.exe PID=     91494.
  
 Copyright (c) 1988,1990,1992,1993,1995,1998,2003,2009,2016,
            Gaussian, Inc.  All Rights Reserved.
  
 This is part of the Gaussian(R) 16 program.  It is based on
 the Gaussian(R) 09 system (copyright 2009, Gaussian, Inc.),
 the Gaussian(R) 03 system (copyright 2003, Gaussian, Inc.),
 the Gaussian(R) 98 system (copyright 1998, Gaussian, Inc.),
 the Gaussian(R) 94 system (copyright 1995, Gaussian, Inc.),
 the Gaussian 92(TM) system (copyright 1992, Gaussian, Inc.),
 the Gaussian 90(TM) system (copyright 1990, Gaussian, Inc.),
 the Gaussian 88(TM) system (copyright 1988, Gaussian, Inc.),
 the Gaussian 86(TM) system (copyright 1986, Carnegie Mellon
 University), and the Gaussian 82(TM) system (copyright 1983,
 Carnegie Mellon University). Gaussian is a federally registered
 trademark of Gaussian, Inc.
  
 This software contains proprietary and confidential information,
 including trade secrets, belonging to Gaussian, Inc.
  
 This software is provided under written license and may be
 used, copied, transmitted, or stored only in accord with that
 written license.
  
 The following legend is applicable only to US Government
 contracts under FAR:
  
                    RESTRICTED RIGHTS LEGEND
  
 Use, reproduction and disclosure by the US Government is
 subject to restrictions as set forth in subparagraphs (a)
 and (c) of the Commercial Computer Software - Restricted
 Rights clause in FAR 52.227-19.
  
 Gaussian, Inc.
 340 Quinnipiac St., Bldg. 40, Wallingford CT 06492
  
  
 ---------------------------------------------------------------
 Warning -- This program may not be used in any manner that
 competes with the business of Gaussian, Inc. or will provide
 assistance to any competitor of Gaussian, Inc.  The licensee
 of this program is prohibited from giving any competitor of
 Gaussian, Inc. access to this program.  By using this program,
 the user acknowledges that Gaussian, Inc. is engaged in the
 business of creating and licensing software in the field of
 computational chemistry and represents and warrants to the
 licensee that it is not a competitor of Gaussian, Inc. and that
 it will not use this program in any manner prohibited above.
 ---------------------------------------------------------------
  

 Cite this work as:
 Gaussian 16, Revision A.03,
 M. J. Frisch, G. W. Trucks, H. B. Schlegel, G. E. Scuseria, 
 M. A. Robb, J. R. Cheeseman, G. Scalmani, V. Barone, 
 G. A. Petersson, H. Nakatsuji, X. Li, M. Caricato, A. V. Marenich, 
 J. Bloino, B. G. Janesko, R. Gomperts, B. Mennucci, H. P. Hratchian, 
 J. V. Ortiz, A. F. Izmaylov, J. L. Sonnenberg, D. Williams-Young, 
 F. Ding, F. Lipparini, F. Egidi, J. Goings, B. Peng, A. Petrone, 
 T. Henderson, D. Ranasinghe, V. G. Zakrzewski, J. Gao, N. Rega, 
 G. Zheng, W. Liang, M. Hada, M. Ehara, K. Toyota, R. Fukuda, 
 J. Hasegawa, M. Ishida, T. Nakajima, Y. Honda, O. Kitao, H. Nakai, 
 T. Vreven, K. Throssell, J. A. Montgomery, Jr., J. E. Peralta, 
 F. Ogliaro, M. J. Bearpark, J. J. Heyd, E. N. Brothers, K. N. Kudin, 
 V. N. Staroverov, T. A. Keith, R. Kobayashi, J. Normand, 
 K. Raghavachari, A. P. Rendell, J. C. Burant, S. S. Iyengar, 
 J. Tomasi, M. Cossi, J. M. Millam, M. Klene, C. Adamo, R. Cammi, 
 J. W. Ochterski, R. L. Martin, K. Morokuma, O. Farkas, 
 J. B. Foresman, and D. J. Fox, Gaussian, Inc., Wallingford CT, 2016.
 
 ******************************************
 Gaussian 16:  ES64L-G16RevA.03 25-Dec-2016
                26-Mar-2018 
 ******************************************
 %mem=80GB
 %cpu=0-31
 SetSPE:  set environment variable "MP_BIND" = "yes"
 SetSPE:  set environment variable "MP_BLIST" = "0,1,2,3,4,5,6,7,8,9,10,11,12,13,14,15,16,17,18,19,20,21,22,23,24,25,26,27,28,29,30,31"
 Will use up to   32 processors via shared memory.
 %chk=qz.chk
 %rwf=/scratch/04843/gwang18/cuo/
 ----------------------------------------------------------------------
 #P ROCCSD(T)=(MaxCyc=150, Full)/Gen SCF=(maxcycle=400) Pseudo=Read Int
 egral(NoXCTest) Pop=Regular MaxDisk=500GB Guess=Read IOp(5/15=2)
 ----------------------------------------------------------------------
 1/38=1,172=1/1;
 2/12=2,17=6,18=5,40=1/2;
 3/5=7,11=2,16=1,17=8,25=1,30=1,47=8,116=101/1,2,3;
 4/5=1/1;
 5/5=2,7=400,15=2,38=6/2;
 8/5=-1,6=4,9=120000,10=90/1,4;
 9/5=7,6=150,14=2/13;
 6//1;
 99/5=1,9=1/99;
 Leave Link    1 at Mon Mar 26 18:25:29 2018, MaxMem= 10737418240 cpu:               6.3 elap:               0.2
 (Enter /home1/apps/gaussian/16rA.03/g16/l101.exe)
 ---
 CuO
 ---
 Symbolic Z-matrix:
 Charge =  0 Multiplicity = 2
 Cu                    0.        0.        0. 
 O                     0.        0.        1.6 
 
 ITRead=  0  0
 MicOpt= -1 -1
 NAtoms=      2 NQM=        2 NQMF=       0 NMMI=      0 NMMIF=      0
                NMic=       0 NMicF=      0.
                    Isotopes and Nuclear Properties:
 (Nuclear quadrupole moments (NQMom) in fm**2, nuclear magnetic moments (NMagM)
  in nuclear magnetons)

  Atom         1           2
 IAtWgt=          63          16
 AtmWgt=  62.9295992  15.9949146
 NucSpn=           3           0
 AtZEff=  -0.0000000  -0.0000000
 NQMom=  -22.0000000   0.0000000
 NMagM=    2.2233000   0.0000000
 AtZNuc=  29.0000000   8.0000000
 Leave Link  101 at Mon Mar 26 18:25:29 2018, MaxMem= 10737418240 cpu:               3.0 elap:               0.1
 (Enter /home1/apps/gaussian/16rA.03/g16/l202.exe)
                          Input orientation:                          
 ---------------------------------------------------------------------
 Center     Atomic      Atomic             Coordinates (Angstroms)
 Number     Number       Type             X           Y           Z
 ---------------------------------------------------------------------
      1         29           0        0.000000    0.000000    0.000000
      2          8           0        0.000000    0.000000    1.600000
 ---------------------------------------------------------------------
 Stoichiometry    CuO(2)
 Framework group  C*V[C*(OCu)]
 Deg. of freedom     1
 Full point group                 C*V     NOp   4
 Largest Abelian subgroup         C2V     NOp   4
 Largest concise Abelian subgroup C1      NOp   1
                         Standard orientation:                         
 ---------------------------------------------------------------------
 Center     Atomic      Atomic             Coordinates (Angstroms)
 Number     Number       Type             X           Y           Z
 ---------------------------------------------------------------------
      1         29           0        0.000000    0.000000    0.345946
      2          8           0        0.000000    0.000000   -1.254054
 ---------------------------------------------------------------------
 Rotational constants (GHZ):           0.0000000          15.4793335          15.4793335
 Leave Link  202 at Mon Mar 26 18:25:29 2018, MaxMem= 10737418240 cpu:               0.8 elap:               0.1
 (Enter /home1/apps/gaussian/16rA.03/g16/l301.exe)
 General basis read from cards:  (5D, 7F)
 Centers:       1
 S 1 1.00
     Exponent=  1.6665490000D+07 Coefficients=  1.0000000000D+00
 S 1 1.00
     Exponent=  2.4952130000D+06 Coefficients=  1.0000000000D+00
 S 1 1.00
     Exponent=  5.6785070000D+05 Coefficients=  1.0000000000D+00
 S 1 1.00
     Exponent=  1.6085310000D+05 Coefficients=  1.0000000000D+00
 S 1 1.00
     Exponent=  5.2481860000D+04 Coefficients=  1.0000000000D+00
 S 1 1.00
     Exponent=  1.8948850000D+04 Coefficients=  1.0000000000D+00
 S 1 1.00
     Exponent=  7.3916550000D+03 Coefficients=  1.0000000000D+00
 S 1 1.00
     Exponent=  3.0665170000D+03 Coefficients=  1.0000000000D+00
 S 1 1.00
     Exponent=  1.3379940000D+03 Coefficients=  1.0000000000D+00
 S 1 1.00
     Exponent=  6.0878300000D+02 Coefficients=  1.0000000000D+00
 S 1 1.00
     Exponent=  2.8689800000D+02 Coefficients=  1.0000000000D+00
 S 1 1.00
     Exponent=  1.3915300000D+02 Coefficients=  1.0000000000D+00
 S 1 1.00
     Exponent=  6.8494550000D+01 Coefficients=  1.0000000000D+00
 S 1 1.00
     Exponent=  3.1601080000D+01 Coefficients=  1.0000000000D+00
 S 1 1.00
     Exponent=  1.5991580000D+01 Coefficients=  1.0000000000D+00
 S 1 1.00
     Exponent=  8.0565100000D+00 Coefficients=  1.0000000000D+00
 S 1 1.00
     Exponent=  3.6903290000D+00 Coefficients=  1.0000000000D+00
 S 1 1.00
     Exponent=  1.7629020000D+00 Coefficients=  1.0000000000D+00
 S 1 1.00
     Exponent=  8.0126900000D-01 Coefficients=  1.0000000000D+00
 S 1 1.00
     Exponent=  1.8424300000D-01 Coefficients=  1.0000000000D+00
 S 1 1.00
     Exponent=  8.1793000000D-02 Coefficients=  1.0000000000D+00
 S 1 1.00
     Exponent=  3.5303000000D-02 Coefficients=  1.0000000000D+00
 S 1 1.00
     Exponent=  7.2310000000D+00 Coefficients=  1.0000000000D+00
 S 1 1.00
     Exponent=  1.9080000000D+00 Coefficients=  1.0000000000D+00
 S 1 1.00
     Exponent=  1.5240000000D-02 Coefficients=  1.0000000000D+00
 P 1 1.00
     Exponent=  4.8218410000D+04 Coefficients=  1.0000000000D+00
 P 1 1.00
     Exponent=  1.1420550000D+04 Coefficients=  1.0000000000D+00
 P 1 1.00
     Exponent=  3.7135690000D+03 Coefficients=  1.0000000000D+00
 P 1 1.00
     Exponent=  1.4237620000D+03 Coefficients=  1.0000000000D+00
 P 1 1.00
     Exponent=  6.0660410000D+02 Coefficients=  1.0000000000D+00
 P 1 1.00
     Exponent=  2.7825640000D+02 Coefficients=  1.0000000000D+00
 P 1 1.00
     Exponent=  1.3484490000D+02 Coefficients=  1.0000000000D+00
 P 1 1.00
     Exponent=  6.8122540000D+01 Coefficients=  1.0000000000D+00
 P 1 1.00
     Exponent=  3.5400880000D+01 Coefficients=  1.0000000000D+00
 P 1 1.00
     Exponent=  1.8790290000D+01 Coefficients=  1.0000000000D+00
 P 1 1.00
     Exponent=  1.0083560000D+01 Coefficients=  1.0000000000D+00
 P 1 1.00
     Exponent=  5.3461200000D+00 Coefficients=  1.0000000000D+00
 P 1 1.00
     Exponent=  2.7752280000D+00 Coefficients=  1.0000000000D+00
 P 1 1.00
     Exponent=  1.4075640000D+00 Coefficients=  1.0000000000D+00
 P 1 1.00
     Exponent=  6.8721300000D-01 Coefficients=  1.0000000000D+00
 P 1 1.00
     Exponent=  2.4682200000D-01 Coefficients=  1.0000000000D+00
 P 1 1.00
     Exponent=  9.6220000000D-02 Coefficients=  1.0000000000D+00
 P 1 1.00
     Exponent=  3.7037000000D-02 Coefficients=  1.0000000000D+00
 P 1 1.00
     Exponent=  1.1921800000D+01 Coefficients=  1.0000000000D+00
 P 1 1.00
     Exponent=  3.2325000000D+00 Coefficients=  1.0000000000D+00
 P 1 1.00
     Exponent=  1.4260000000D-02 Coefficients=  1.0000000000D+00
 D 1 1.00
     Exponent=  5.2788600000D+02 Coefficients=  1.0000000000D+00
 D 1 1.00
     Exponent=  1.5873300000D+02 Coefficients=  1.0000000000D+00
 D 1 1.00
     Exponent=  6.1555600000D+01 Coefficients=  1.0000000000D+00
 D 1 1.00
     Exponent=  2.6883400000D+01 Coefficients=  1.0000000000D+00
 D 1 1.00
     Exponent=  1.2517500000D+01 Coefficients=  1.0000000000D+00
 D 1 1.00
     Exponent=  6.0697700000D+00 Coefficients=  1.0000000000D+00
 D 1 1.00
     Exponent=  2.9583190000D+00 Coefficients=  1.0000000000D+00
 D 1 1.00
     Exponent=  1.4141220000D+00 Coefficients=  1.0000000000D+00
 D 1 1.00
     Exponent=  6.5332900000D-01 Coefficients=  1.0000000000D+00
 D 1 1.00
     Exponent=  2.8669200000D-01 Coefficients=  1.0000000000D+00
 D 1 1.00
     Exponent=  1.1501400000D-01 Coefficients=  1.0000000000D+00
 D 1 1.00
     Exponent=  8.4804000000D+00 Coefficients=  1.0000000000D+00
 D 1 1.00
     Exponent=  4.4553000000D+00 Coefficients=  1.0000000000D+00
 D 1 1.00
     Exponent=  4.6140000000D-02 Coefficients=  1.0000000000D+00
 F 1 1.00
     Exponent=  1.1946300000D+01 Coefficients=  1.0000000000D+00
 F 1 1.00
     Exponent=  5.0345000000D+00 Coefficients=  1.0000000000D+00
 F 1 1.00
     Exponent=  2.1217000000D+00 Coefficients=  1.0000000000D+00
 F 1 1.00
     Exponent=  7.3910000000D-01 Coefficients=  1.0000000000D+00
 F 1 1.00
     Exponent=  2.5747000000D-01 Coefficients=  1.0000000000D+00
 G 1 1.00
     Exponent=  9.5934000000D+00 Coefficients=  1.0000000000D+00
 G 1 1.00
     Exponent=  4.3083000000D+00 Coefficients=  1.0000000000D+00
 G 1 1.00
     Exponent=  1.7760000000D+00 Coefficients=  1.0000000000D+00
 G 1 1.00
     Exponent=  7.3212000000D-01 Coefficients=  1.0000000000D+00
 H 1 1.00
     Exponent=  8.5704000000D+00 Coefficients=  1.0000000000D+00
 H 1 1.00
     Exponent=  3.7909000000D+00 Coefficients=  1.0000000000D+00
 H 1 1.00
     Exponent=  1.6768100000D+00 Coefficients=  1.0000000000D+00
 ****
 Centers:       2
 S 1 1.00
     Exponent=  6.1420000000D+04 Coefficients=  1.0000000000D+00
 S 1 1.00
     Exponent=  9.1990000000D+03 Coefficients=  1.0000000000D+00
 S 1 1.00
     Exponent=  2.0910000000D+03 Coefficients=  1.0000000000D+00
 S 1 1.00
     Exponent=  5.9090000000D+02 Coefficients=  1.0000000000D+00
 S 1 1.00
     Exponent=  1.9230000000D+02 Coefficients=  1.0000000000D+00
 S 1 1.00
     Exponent=  6.9320000000D+01 Coefficients=  1.0000000000D+00
 S 1 1.00
     Exponent=  2.6970000000D+01 Coefficients=  1.0000000000D+00
 S 1 1.00
     Exponent=  1.1100000000D+01 Coefficients=  1.0000000000D+00
 S 1 1.00
     Exponent=  4.6820000000D+00 Coefficients=  1.0000000000D+00
 S 1 1.00
     Exponent=  1.4280000000D+00 Coefficients=  1.0000000000D+00
 S 1 1.00
     Exponent=  5.5470000000D-01 Coefficients=  1.0000000000D+00
 S 1 1.00
     Exponent=  2.0670000000D-01 Coefficients=  1.0000000000D+00
 S 1 1.00
     Exponent=  1.2974000000D+01 Coefficients=  1.0000000000D+00
 S 1 1.00
     Exponent=  3.4900000000D+01 Coefficients=  1.0000000000D+00
 S 1 1.00
     Exponent=  9.3881000000D+01 Coefficients=  1.0000000000D+00
 S 1 1.00
     Exponent=  6.9590000000D-02 Coefficients=  1.0000000000D+00
 P 1 1.00
     Exponent=  6.3420000000D+01 Coefficients=  1.0000000000D+00
 P 1 1.00
     Exponent=  1.4660000000D+01 Coefficients=  1.0000000000D+00
 P 1 1.00
     Exponent=  4.4590000000D+00 Coefficients=  1.0000000000D+00
 P 1 1.00
     Exponent=  1.5310000000D+00 Coefficients=  1.0000000000D+00
 P 1 1.00
     Exponent=  5.3020000000D-01 Coefficients=  1.0000000000D+00
 P 1 1.00
     Exponent=  1.7500000000D-01 Coefficients=  1.0000000000D+00
 P 1 1.00
     Exponent=  1.4475000000D+01 Coefficients=  1.0000000000D+00
 P 1 1.00
     Exponent=  4.2730000000D+01 Coefficients=  1.0000000000D+00
 P 1 1.00
     Exponent=  1.2614000000D+02 Coefficients=  1.0000000000D+00
 P 1 1.00
     Exponent=  5.3480000000D-02 Coefficients=  1.0000000000D+00
 D 1 1.00
     Exponent=  3.7750000000D+00 Coefficients=  1.0000000000D+00
 D 1 1.00
     Exponent=  1.3000000000D+00 Coefficients=  1.0000000000D+00
 D 1 1.00
     Exponent=  4.4400000000D-01 Coefficients=  1.0000000000D+00
 D 1 1.00
     Exponent=  1.4927000000D+01 Coefficients=  1.0000000000D+00
 D 1 1.00
     Exponent=  5.7544000000D+01 Coefficients=  1.0000000000D+00
 D 1 1.00
     Exponent=  1.5400000000D-01 Coefficients=  1.0000000000D+00
 F 1 1.00
     Exponent=  2.6660000000D+00 Coefficients=  1.0000000000D+00
 F 1 1.00
     Exponent=  8.5900000000D-01 Coefficients=  1.0000000000D+00
 F 1 1.00
     Exponent=  2.6483000000D+01 Coefficients=  1.0000000000D+00
 F 1 1.00
     Exponent=  3.2400000000D-01 Coefficients=  1.0000000000D+00
 G 1 1.00
     Exponent=  1.8460000000D+00 Coefficients=  1.0000000000D+00
 G 1 1.00
     Exponent=  7.1400000000D-01 Coefficients=  1.0000000000D+00
 ****
 ======================================================================================================
                                       Pseudopotential Parameters
 ======================================================================================================
  Center     Atomic      Valence      Angular      Power
  Number     Number     Electrons     Momentum     of R      Exponent        Coefficient   SO-Coeffient
 ======================================================================================================
    1         29           19
                                      G and up 
                                                     2        1.0000000        0.00000000    0.00000000
                                      S - G
                                                     2       30.1105430      355.75051200    0.00000000
                                                     2       13.0763100       70.93090600    0.00000000
                                      P - G
                                                     2       32.6926140       77.96993100    0.00000000
                                                     2       32.7703390      155.92744800    0.00000000
                                                     2       13.7510670       18.02113200    0.00000000
                                                     2       13.3221660       36.09437200    0.00000000
                                      D - G
                                                     2       38.9965110      -12.34341000    0.00000000
                                                     2       39.5397880      -18.27336200    0.00000000
                                                     2       12.2875110       -0.98470500    0.00000000
                                                     2       11.4593000       -1.31874700    0.00000000
                                      F - G
                                                     2        6.1901020       -0.22726400    0.00000000
                                                     2        8.1187800       -0.46877300    0.00000000
    2          8            6
                                      F and up 
                                                     2        1.0000000        0.00000000    0.00000000
                                      S - F
                                                     2       12.9686000       73.60860000    0.00000000
                                      P - F
                                                     2       15.2430000       -3.91720000    0.00000000
                                      D - F
                                                     2        9.6172000       -0.65590000    0.00000000
 ======================================================================================================
 Ernie: Thresh=  0.10000D-02 Tol=  0.10000D-05 Strict=F.
 There are   213 symmetry adapted cartesian basis functions of A1  symmetry.
 There are    56 symmetry adapted cartesian basis functions of A2  symmetry.
 There are   114 symmetry adapted cartesian basis functions of B1  symmetry.
 There are   114 symmetry adapted cartesian basis functions of B2  symmetry.
 There are   157 symmetry adapted basis functions of A1  symmetry.
 There are    47 symmetry adapted basis functions of A2  symmetry.
 There are    90 symmetry adapted basis functions of B1  symmetry.
 There are    90 symmetry adapted basis functions of B2  symmetry.
   384 basis functions,   497 primitive gaussians,   497 cartesian basis functions
    13 alpha electrons       12 beta electrons
       nuclear repulsion energy        37.7038762780 Hartrees.
 IExCor=    0 DFT=F Ex=HF Corr=None ExCW=0 ScaHFX=  1.000000
 ScaDFX=  1.000000  1.000000  1.000000  1.000000 ScalE2=  1.000000  1.000000
 IRadAn=      5 IRanWt=     -1 IRanGd=            0 ICorTp=0 IEmpDi=  4
 NAtoms=    2 NActive=    2 NUniq=    2 SFac= 1.00D+00 NAtFMM=   60 NAOKFM=F Big=F
 Integral buffers will be    131072 words long.
 Raffenetti 2 integral format.
 Two-electron integral symmetry is turned on.
 Leave Link  301 at Mon Mar 26 18:25:29 2018, MaxMem= 10737418240 cpu:               9.9 elap:               0.3
 (Enter /home1/apps/gaussian/16rA.03/g16/l302.exe)
 NPDir=0 NMtPBC=     1 NCelOv=     1 NCel=       1 NClECP=     1 NCelD=      1
         NCelK=      1 NCelE2=     1 NClLst=     1 CellRange=     0.0.
 One-electron integrals computed using PRISM.
 One-electron integral symmetry used in STVInt
   4 Symmetry operations used in ECPInt.
 ECPInt:  NShTT=    6105 NPrTT=    6105 LenC2=    5500 LenP2D=    5499.
 LDataN:  DoStor=T MaxTD1=10 Len=  848
 NBasis=   384 RedAO= T EigKep=  1.48D-06  NBF=   157    47    90    90
 NBsUse=   383 1.00D-06 EigRej=  4.54D-07 NBFU=   156    47    90    90
 Leave Link  302 at Mon Mar 26 18:25:34 2018, MaxMem= 10737418240 cpu:             162.7 elap:               5.1
 (Enter /home1/apps/gaussian/16rA.03/g16/l303.exe)
 DipDrv:  MaxL=1.
 Leave Link  303 at Mon Mar 26 18:25:35 2018, MaxMem= 10737418240 cpu:               3.9 elap:               0.2
 (Enter /home1/apps/gaussian/16rA.03/g16/l401.exe)
 Initial guess from the checkpoint file:  "qz.chk"
 B after Tr=     0.000000    0.000000    0.000000
         Rot=    1.000000    0.000000    0.000000    0.000000 Ang=   0.00 deg.
 Guess basis will be translated and rotated to current coordinates.
 JPrj=2 DoOrth=T DoCkMO=T.
 Initial guess orbital symmetries:
       Occupied  (SG) (SG) (PI) (PI) (SG) (?A) (SG) (?A) (DLTA)
                 (DLTA) (?A) (SG) (?A)
       Virtual   (SG) (PI) (PI) (SG) (SG) (PI) (PI) (?B) (?B) (?B)
                 (?B) (SG) (PI) (PI) (SG) (PI) (PI) (PI) (PI) (SG)
                 (SG) (SG) (?C) (?C) (?C) (?C) (?C) (PI) (PI) (PI)
                 (PI) (SG) (?A) (?A) (?A) (?A) (SG) (SG) (PHI)
                 (PHI) (?D) (?D) (?D) (PI) (PI) (SG) (PHI) (PHI)
                 (PI) (PI) (?E) (?E) (?E) (?E) (?E) (?E) (PI) (PI)
                 (?E) (?E) (SG) (PI) (PI) (SG) (PI) (PI) (SG) (PI)
                 (PI) (SG) (PHI) (PHI) (DLTA) (DLTA) (PI) (PI)
                 (SG) (SG) (?F) (PI) (PI) (DLTA) (DLTA) (PHI) (PHI)
                 (?G) (?G) (DLTA) (DLTA) (?H) (?H) (?H) (?F) (?F)
                 (?H) (PI) (?F) (PI) (?F) (?F) (SG) (PI) (PI) (SG)
                 (SG) (PI) (PI) (SG) (PHI) (PHI) (DLTA) (DLTA)
                 (PI) (PI) (SG) (PI) (PI) (SG) (SG) (DLTA) (DLTA)
                 (PI) (PI) (SG) (?G) (?G) (PHI) (PHI) (DLTA) (DLTA)
                 (PI) (PI) (SG) (PI) (PI) (SG) (SG) (PHI) (PHI)
                 (DLTA) (DLTA) (PI) (PI) (SG) (PI) (PI) (SG) (SG)
                 (DLTA) (DLTA) (PI) (PI) (SG) (SG) (?G) (?G) (PHI)
                 (PHI) (DLTA) (DLTA) (PI) (PI) (SG) (PI) (PI) (?I)
                 (?I) (?I) (PI) (PI) (SG) (PI) (PI) (SG) (SG) (DLTA)
                 (DLTA) (PI) (PI) (SG) (SG) (PI) (PI) (SG) (PI)
                 (PI) (SG) (SG) (SG) (DLTA) (DLTA) (PI) (PI) (SG)
                 (PI) (PI) (SG) (SG) (SG) (PI) (PI) (SG) (PI) (PI)
                 (SG) (SG) (SG) (DLTA) (DLTA) (PI) (PI) (SG) (PI)
                 (PI) (SG) (SG) (PI) (PI) (SG) (SG) (SG) (PI) (PI)
                 (SG) (SG) (SG) (PI) (PI) (SG) (SG) (SG) (PI) (PI)
                 (SG) (SG) (SG) (PI) (PI) (SG) (SG) (SG) (SG) (SG)
                 (SG) (SG) (DLTA) (SG) (SG) (SG) (SG) (SG) (DLTA)
                 (SG) (DLTA) (SG) (SG) (DLTA) (SG) (SG) (?G) (DLTA)
                 (SG) (DLTA) (?G) (SG) (DLTA) (SG) (SG) (DLTA)
                 (SG) (DLTA) (SG) (?G) (DLTA) (DLTA) (SG) (DLTA)
                 (DLTA) (SG) (SG) (SG) (DLTA) (SG) (?G) (DLTA)
                 (?G) (?G) (DLTA) (DLTA) (DLTA) (DLTA) (?G) (DLTA)
                 (DLTA) (?G) (DLTA) (DLTA) (DLTA) (?G) (DLTA) (DLTA)
                 (DLTA) (DLTA) (DLTA) (?G) (DLTA) (?G) (?G) (PI)
                 (PI) (PI) (PI) (PI) (PI) (PHI) (PI) (PI) (PHI)
                 (PI) (PI) (PHI) (PI) (?J) (PHI) (PI) (PI) (PHI)
                 (PI) (PI) (PHI) (PI) (PI) (PI) (PHI) (PI) (PHI)
                 (?J) (PHI) (?J) (PI) (PI) (PI) (PI) (PI) (PI)
                 (PHI) (PI) (PI) (PHI) (PI) (PI) (PHI) (PI) (?J)
                 (PHI) (PI) (PI) (PHI) (PI) (PI) (PHI) (PI) (PI)
                 (PI) (PHI) (PI) (PHI) (?J) (PHI) (?J)
 Leave Link  401 at Mon Mar 26 18:25:36 2018, MaxMem= 10737418240 cpu:              25.2 elap:               0.9
 (Enter /home1/apps/gaussian/16rA.03/g16/l502.exe)
 Keep R1 and R2 ints in memory in symmetry-blocked form, NReq=3425113631.
 FoFCou: FMM=F IPFlag=           8 FMFlag=           0 FMFlg1=           0
         NFxFlg=           0 DoJE=F BraDBF=F KetDBF=F FulRan=T
         wScrn=  0.000000 ICntrl=       600 IOpCl=  0 I1Cent=           0 NGrid=           0
         NMat0=    1 NMatS0=  73920 NMatT0=    0 NMatD0=    1 NMtDS0=    0 NMtDT0=    0
 Petite list used in FoFCou.
 Restricted open shell SCF:
 Using DIIS extrapolation, IDIIS=  1040.
 NGot= 10737418240 LenX=  9351085953 LenY=  9350838447
 Requested convergence on RMS density matrix=1.00D-08 within 400 cycles.
 Requested convergence on MAX density matrix=1.00D-06.
 Requested convergence on             energy=1.00D-06.
 No special actions if energy rises.

 Cycle   1  Pass 1  IDiag  1:
 E= -211.934225542663    
 DIIS: error= 2.03D-01 at cycle   1 NSaved=   1.
 NSaved= 1 IEnMin= 1 EnMin= -211.934225542663     IErMin= 1 ErrMin= 2.03D-01
 ErrMax= 2.03D-01  0.00D+00 EMaxC= 1.00D-01 BMatC= 1.28D+01 BMatP= 1.28D+01
 IDIUse=3 WtCom= 0.00D+00 WtEn= 1.00D+00
 Coeff-Com:  0.100D+01
 Coeff-En:   0.100D+01
 Coeff:      0.100D+01
 Gap=     0.094 Goal=   None    Shift=    0.000
 GapD=    0.094 DampG=0.500 DampE=0.125 DampFc=0.1250 IDamp=-1.
 Damping current iteration by 1.25D-01
 RMSDP=1.34D-03 MaxDP=6.73D-02              OVMax= 4.72D-03

 Cycle   2  Pass 1  IDiag  1:
 E= -211.934440525731     Delta-E=       -0.000214983068 Rises=F Damp=T
 DIIS: error= 1.77D-01 at cycle   2 NSaved=   2.
 NSaved= 2 IEnMin= 2 EnMin= -211.934440525731     IErMin= 2 ErrMin= 1.77D-01
 ErrMax= 1.77D-01  0.00D+00 EMaxC= 1.00D-01 BMatC= 9.81D+00 BMatP= 1.28D+01
 IDIUse=3 WtCom= 0.00D+00 WtEn= 1.00D+00
 Coeff-Com: -0.700D+01 0.800D+01
 Coeff-En:   0.000D+00 0.100D+01
 Coeff:      0.000D+00 0.100D+01
 Gap=     0.094 Goal=   None    Shift=    0.000
 RMSDP=1.17D-03 MaxDP=5.91D-02 DE=-2.15D-04 OVMax= 3.34D-03

 Cycle   3  Pass 1  IDiag  1:
 E= -211.935979331359     Delta-E=       -0.001538805628 Rises=F Damp=F
 DIIS: error= 2.56D-04 at cycle   3 NSaved=   3.
 NSaved= 3 IEnMin= 3 EnMin= -211.935979331359     IErMin= 3 ErrMin= 2.56D-04
 ErrMax= 2.56D-04  0.00D+00 EMaxC= 1.00D-01 BMatC= 9.61D-06 BMatP= 9.81D+00
 IDIUse=3 WtCom= 9.97D-01 WtEn= 2.56D-03
 Coeff-Com: -0.725D+00 0.828D+00 0.897D+00
 Coeff-En:   0.000D+00 0.000D+00 0.100D+01
 Coeff:     -0.723D+00 0.826D+00 0.897D+00
 Gap=     0.093 Goal=   None    Shift=    0.000
 RMSDP=7.07D-05 MaxDP=4.95D-03 DE=-1.54D-03 OVMax= 2.33D-03

 Cycle   4  Pass 1  IDiag  1:
 E= -211.935984169811     Delta-E=       -0.000004838452 Rises=F Damp=F
 DIIS: error= 1.76D-04 at cycle   4 NSaved=   4.
 NSaved= 4 IEnMin= 4 EnMin= -211.935984169811     IErMin= 4 ErrMin= 1.76D-04
 ErrMax= 1.76D-04  0.00D+00 EMaxC= 1.00D-01 BMatC= 2.73D-06 BMatP= 9.61D-06
 IDIUse=3 WtCom= 9.98D-01 WtEn= 1.76D-03
 Coeff-Com: -0.586D+00 0.670D+00 0.364D-01 0.880D+00
 Coeff-En:   0.000D+00 0.000D+00 0.000D+00 0.100D+01
 Coeff:     -0.585D+00 0.668D+00 0.363D-01 0.880D+00
 Gap=     0.093 Goal=   None    Shift=    0.000
 RMSDP=1.66D-05 MaxDP=1.92D-03 DE=-4.84D-06 OVMax= 2.86D-03

 Cycle   5  Pass 1  IDiag  1:
 E= -211.935982229905     Delta-E=        0.000001939906 Rises=F Damp=F
 DIIS: error= 1.85D-04 at cycle   5 NSaved=   5.
 NSaved= 5 IEnMin= 4 EnMin= -211.935984169811     IErMin= 4 ErrMin= 1.76D-04
 ErrMax= 1.85D-04  0.00D+00 EMaxC= 1.00D-01 BMatC= 2.93D-06 BMatP= 2.73D-06
 IDIUse=3 WtCom= 9.98D-01 WtEn= 1.85D-03
 Coeff-Com: -0.574D+00 0.656D+00-0.121D+00 0.514D+00 0.524D+00
 Coeff-En:   0.000D+00 0.000D+00 0.000D+00 0.678D+00 0.322D+00
 Coeff:     -0.573D+00 0.654D+00-0.121D+00 0.515D+00 0.524D+00
 Gap=     0.093 Goal=   None    Shift=    0.000
 RMSDP=1.22D-05 MaxDP=1.75D-03 DE= 1.94D-06 OVMax= 2.46D-03

 Cycle   6  Pass 1  IDiag  1:
 E= -211.935984563191     Delta-E=       -0.000002333286 Rises=F Damp=F
 DIIS: error= 1.46D-04 at cycle   6 NSaved=   6.
 NSaved= 6 IEnMin= 6 EnMin= -211.935984563191     IErMin= 6 ErrMin= 1.46D-04
 ErrMax= 1.46D-04  0.00D+00 EMaxC= 1.00D-01 BMatC= 1.63D-06 BMatP= 2.73D-06
 IDIUse=3 WtCom= 9.99D-01 WtEn= 1.46D-03
 EnCoef did     8 forward-backward iterations
 Coeff-Com: -0.539D+00 0.616D+00-0.118D+00 0.274D+00 0.376D+00 0.391D+00
 Coeff-En:   0.000D+00 0.000D+00 0.000D+00 0.341D+00 0.239D+00 0.420D+00
 Coeff:     -0.538D+00 0.615D+00-0.118D+00 0.274D+00 0.376D+00 0.391D+00
 Gap=     0.093 Goal=   None    Shift=    0.000
 RMSDP=2.68D-06 MaxDP=5.02D-04 DE=-2.33D-06 OVMax= 1.01D-03

 Cycle   7  Pass 1  IDiag  1:
 E= -211.935985076683     Delta-E=       -0.000000513492 Rises=F Damp=F
 DIIS: error= 1.46D-04 at cycle   7 NSaved=   7.
 NSaved= 7 IEnMin= 7 EnMin= -211.935985076683     IErMin= 7 ErrMin= 1.46D-04
 ErrMax= 1.46D-04  0.00D+00 EMaxC= 1.00D-01 BMatC= 1.28D-06 BMatP= 1.63D-06
 IDIUse=3 WtCom= 9.99D-01 WtEn= 1.46D-03
 Coeff-Com: -0.496D+00 0.567D+00-0.971D-01 0.112D+00 0.191D+00 0.237D+00
 Coeff-Com:  0.487D+00
 Coeff-En:   0.000D+00 0.000D+00 0.000D+00 0.000D+00 0.000D+00 0.107D+00
 Coeff-En:   0.893D+00
 Coeff:     -0.495D+00 0.566D+00-0.970D-01 0.111D+00 0.191D+00 0.237D+00
 Coeff:      0.487D+00
 Gap=     0.093 Goal=   None    Shift=    0.000
 RMSDP=1.42D-06 MaxDP=1.81D-04 DE=-5.13D-07 OVMax= 1.60D-04

 Cycle   8  Pass 1  IDiag  1:
 E= -211.935985170466     Delta-E=       -0.000000093782 Rises=F Damp=F
 DIIS: error= 1.32D-04 at cycle   8 NSaved=   8.
 NSaved= 8 IEnMin= 8 EnMin= -211.935985170466     IErMin= 8 ErrMin= 1.32D-04
 ErrMax= 1.32D-04  0.00D+00 EMaxC= 1.00D-01 BMatC= 1.11D-06 BMatP= 1.28D-06
 IDIUse=3 WtCom= 9.99D-01 WtEn= 1.32D-03
 Coeff-Com: -0.421D+00 0.481D+00-0.674D-01-0.328D-01 0.731D-02-0.628D-02
 Coeff-Com: -0.479D-01 0.109D+01
 Coeff-En:   0.000D+00 0.000D+00 0.000D+00 0.000D+00 0.000D+00 0.000D+00
 Coeff-En:   0.000D+00 0.100D+01
 Coeff:     -0.420D+00 0.480D+00-0.673D-01-0.328D-01 0.730D-02-0.627D-02
 Coeff:     -0.479D-01 0.109D+01
 Gap=     0.093 Goal=   None    Shift=    0.000
 RMSDP=2.19D-06 MaxDP=2.99D-04 DE=-9.38D-08 OVMax= 1.63D-04

 Cycle   9  Pass 1  IDiag  1:
 E= -211.935985409351     Delta-E=       -0.000000238885 Rises=F Damp=F
 DIIS: error= 1.13D-04 at cycle   9 NSaved=   9.
 NSaved= 9 IEnMin= 9 EnMin= -211.935985409351     IErMin= 9 ErrMin= 1.13D-04
 ErrMax= 1.13D-04  0.00D+00 EMaxC= 1.00D-01 BMatC= 7.97D-07 BMatP= 1.11D-06
 IDIUse=3 WtCom= 9.99D-01 WtEn= 1.13D-03
 Coeff-Com: -0.302D+00 0.345D+00-0.504D-01 0.268D-01 0.519D-01-0.537D-02
 Coeff-Com: -0.581D+00-0.285D+00 0.180D+01
 Coeff-En:   0.000D+00 0.000D+00 0.000D+00 0.000D+00 0.000D+00 0.000D+00
 Coeff-En:   0.000D+00 0.000D+00 0.100D+01
 Coeff:     -0.302D+00 0.345D+00-0.503D-01 0.267D-01 0.518D-01-0.536D-02
 Coeff:     -0.580D+00-0.285D+00 0.180D+01
 Gap=     0.093 Goal=   None    Shift=    0.000
 RMSDP=3.46D-06 MaxDP=4.76D-04 DE=-2.39D-07 OVMax= 2.37D-04

 Cycle  10  Pass 1  IDiag  1:
 E= -211.935985700609     Delta-E=       -0.000000291258 Rises=F Damp=F
 DIIS: error= 8.17D-05 at cycle  10 NSaved=  10.
 NSaved=10 IEnMin=10 EnMin= -211.935985700609     IErMin=10 ErrMin= 8.17D-05
 ErrMax= 8.17D-05  0.00D+00 EMaxC= 1.00D-01 BMatC= 4.07D-07 BMatP= 7.97D-07
 IDIUse=1 WtCom= 1.00D+00 WtEn= 0.00D+00
 Coeff-Com: -0.191D+00 0.218D+00-0.348D-01 0.542D-01 0.767D-01 0.296D-01
 Coeff-Com: -0.541D+00-0.903D+00 0.142D+01 0.871D+00
 Coeff:     -0.191D+00 0.218D+00-0.348D-01 0.542D-01 0.767D-01 0.296D-01
 Coeff:     -0.541D+00-0.903D+00 0.142D+01 0.871D+00
 Gap=     0.093 Goal=   None    Shift=    0.000
 RMSDP=3.32D-06 MaxDP=4.47D-04 DE=-2.91D-07 OVMax= 2.07D-04

 Cycle  11  Pass 1  IDiag  1:
 E= -211.935985876391     Delta-E=       -0.000000175781 Rises=F Damp=F
 DIIS: error= 5.07D-05 at cycle  11 NSaved=  11.
 NSaved=11 IEnMin=11 EnMin= -211.935985876391     IErMin=11 ErrMin= 5.07D-05
 ErrMax= 5.07D-05  0.00D+00 EMaxC= 1.00D-01 BMatC= 1.63D-07 BMatP= 4.07D-07
 IDIUse=1 WtCom= 1.00D+00 WtEn= 0.00D+00
 Coeff-Com: -0.127D+00 0.145D+00-0.229D-01 0.195D-01 0.384D-01 0.299D-01
 Coeff-Com: -0.972D-01-0.148D+00-0.528D-01 0.104D+00 0.111D+01
 Coeff:     -0.127D+00 0.145D+00-0.229D-01 0.195D-01 0.384D-01 0.299D-01
 Coeff:     -0.972D-01-0.148D+00-0.528D-01 0.104D+00 0.111D+01
 Gap=     0.093 Goal=   None    Shift=    0.000
 RMSDP=1.85D-06 MaxDP=2.53D-04 DE=-1.76D-07 OVMax= 1.25D-04

 Cycle  12  Pass 1  IDiag  1:
 E= -211.935985942320     Delta-E=       -0.000000065929 Rises=F Damp=F
 DIIS: error= 3.39D-05 at cycle  12 NSaved=  12.
 NSaved=12 IEnMin=12 EnMin= -211.935985942320     IErMin=12 ErrMin= 3.39D-05
 ErrMax= 3.39D-05  0.00D+00 EMaxC= 1.00D-01 BMatC= 7.22D-08 BMatP= 1.63D-07
 IDIUse=1 WtCom= 1.00D+00 WtEn= 0.00D+00
 Coeff-Com: -0.921D-01 0.105D+00-0.159D-01 0.383D-02 0.142D-01 0.962D-02
 Coeff-Com: -0.171D-01 0.190D+00-0.249D+00-0.309D+00 0.497D+00 0.863D+00
 Coeff:     -0.921D-01 0.105D+00-0.159D-01 0.383D-02 0.142D-01 0.962D-02
 Coeff:     -0.171D-01 0.190D+00-0.249D+00-0.309D+00 0.497D+00 0.863D+00
 Gap=     0.093 Goal=   None    Shift=    0.000
 RMSDP=9.79D-07 MaxDP=1.38D-04 DE=-6.59D-08 OVMax= 6.47D-05

 Cycle  13  Pass 1  IDiag  1:
 E= -211.935985966623     Delta-E=       -0.000000024303 Rises=F Damp=F
 DIIS: error= 2.52D-05 at cycle  13 NSaved=  13.
 NSaved=13 IEnMin=13 EnMin= -211.935985966623     IErMin=13 ErrMin= 2.52D-05
 ErrMax= 2.52D-05  0.00D+00 EMaxC= 1.00D-01 BMatC= 3.82D-08 BMatP= 7.22D-08
 IDIUse=1 WtCom= 1.00D+00 WtEn= 0.00D+00
 Coeff-Com: -0.665D-01 0.760D-01-0.107D-01-0.198D-02 0.788D-03-0.110D-01
 Coeff-Com: -0.635D-01 0.231D+00 0.897D-01-0.309D+00-0.434D+00 0.107D+00
 Coeff-Com:  0.139D+01
 Coeff:     -0.665D-01 0.760D-01-0.107D-01-0.198D-02 0.788D-03-0.110D-01
 Coeff:     -0.635D-01 0.231D+00 0.897D-01-0.309D+00-0.434D+00 0.107D+00
 Coeff:      0.139D+01
 Gap=     0.093 Goal=   None    Shift=    0.000
 RMSDP=8.01D-07 MaxDP=1.03D-04 DE=-2.43D-08 OVMax= 5.12D-05

 Cycle  14  Pass 1  IDiag  1:
 E= -211.935985980162     Delta-E=       -0.000000013538 Rises=F Damp=F
 DIIS: error= 1.76D-05 at cycle  14 NSaved=  14.
 NSaved=14 IEnMin=14 EnMin= -211.935985980162     IErMin=14 ErrMin= 1.76D-05
 ErrMax= 1.76D-05  0.00D+00 EMaxC= 1.00D-01 BMatC= 1.97D-08 BMatP= 3.82D-08
 IDIUse=1 WtCom= 1.00D+00 WtEn= 0.00D+00
 Coeff-Com: -0.400D-01 0.458D-01-0.664D-02 0.358D-02 0.504D-02-0.693D-02
 Coeff-Com: -0.913D-01 0.113D-01 0.231D+00-0.594D-01-0.367D+00-0.404D+00
 Coeff-Com:  0.730D+00 0.948D+00
 Coeff:     -0.400D-01 0.458D-01-0.664D-02 0.358D-02 0.504D-02-0.693D-02
 Coeff:     -0.913D-01 0.113D-01 0.231D+00-0.594D-01-0.367D+00-0.404D+00
 Coeff:      0.730D+00 0.948D+00
 Gap=     0.093 Goal=   None    Shift=    0.000
 RMSDP=7.64D-07 MaxDP=1.06D-04 DE=-1.35D-08 OVMax= 4.94D-05

 Cycle  15  Pass 1  IDiag  1:
 E= -211.935985989096     Delta-E=       -0.000000008934 Rises=F Damp=F
 DIIS: error= 1.06D-05 at cycle  15 NSaved=  15.
 NSaved=15 IEnMin=15 EnMin= -211.935985989096     IErMin=15 ErrMin= 1.06D-05
 ErrMax= 1.06D-05  0.00D+00 EMaxC= 1.00D-01 BMatC= 7.15D-09 BMatP= 1.97D-08
 IDIUse=1 WtCom= 1.00D+00 WtEn= 0.00D+00
 Coeff-Com: -0.156D-01 0.178D-01-0.277D-02 0.280D-02 0.427D-02 0.560D-03
 Coeff-Com: -0.319D-01-0.190D-01 0.545D-01 0.308D-01-0.941D-02-0.734D-01
 Coeff-Com: -0.326D-01-0.798D+00 0.187D+01
 Coeff:     -0.156D-01 0.178D-01-0.277D-02 0.280D-02 0.427D-02 0.560D-03
 Coeff:     -0.319D-01-0.190D-01 0.545D-01 0.308D-01-0.941D-02-0.734D-01
 Coeff:     -0.326D-01-0.798D+00 0.187D+01
 Gap=     0.093 Goal=   None    Shift=    0.000
 RMSDP=7.09D-07 MaxDP=9.74D-05 DE=-8.93D-09 OVMax= 4.60D-05

 Cycle  16  Pass 1  IDiag  1:
 E= -211.935985993434     Delta-E=       -0.000000004338 Rises=F Damp=F
 DIIS: error= 4.14D-06 at cycle  16 NSaved=  16.
 NSaved=16 IEnMin=16 EnMin= -211.935985993434     IErMin=16 ErrMin= 4.14D-06
 ErrMax= 4.14D-06  0.00D+00 EMaxC= 1.00D-01 BMatC= 1.09D-09 BMatP= 7.15D-09
 IDIUse=1 WtCom= 1.00D+00 WtEn= 0.00D+00
 Coeff-Com:  0.972D-03-0.111D-02 0.215D-03-0.142D-02-0.141D-02 0.155D-03
 Coeff-Com:  0.172D-01 0.402D-01-0.641D-01-0.337D-01 0.464D-01 0.149D+00
 Coeff-Com: -0.202D-02-0.600D+00-0.678D-01 0.152D+01
 Coeff:      0.972D-03-0.111D-02 0.215D-03-0.142D-02-0.141D-02 0.155D-03
 Coeff:      0.172D-01 0.402D-01-0.641D-01-0.337D-01 0.464D-01 0.149D+00
 Coeff:     -0.202D-02-0.600D+00-0.678D-01 0.152D+01
 Gap=     0.093 Goal=   None    Shift=    0.000
 RMSDP=4.81D-07 MaxDP=6.62D-05 DE=-4.34D-09 OVMax= 3.09D-05

 Cycle  17  Pass 1  IDiag  1:
 E= -211.935985994203     Delta-E=       -0.000000000769 Rises=F Damp=F
 DIIS: error= 2.56D-07 at cycle  17 NSaved=  17.
 NSaved=17 IEnMin=17 EnMin= -211.935985994203     IErMin=17 ErrMin= 2.56D-07
 ErrMax= 2.56D-07  0.00D+00 EMaxC= 1.00D-01 BMatC= 4.20D-12 BMatP= 1.09D-09
 IDIUse=1 WtCom= 1.00D+00 WtEn= 0.00D+00
 Coeff-Com: -0.490D-03 0.560D-03-0.466D-04-0.403D-03-0.424D-03-0.272D-03
 Coeff-Com:  0.183D-02 0.847D-02-0.244D-02-0.102D-01-0.135D-01 0.622D-02
 Coeff-Com:  0.456D-01 0.197D+00-0.292D+00-0.158D+00 0.122D+01
 Coeff:     -0.490D-03 0.560D-03-0.466D-04-0.403D-03-0.424D-03-0.272D-03
 Coeff:      0.183D-02 0.847D-02-0.244D-02-0.102D-01-0.135D-01 0.622D-02
 Coeff:      0.456D-01 0.197D+00-0.292D+00-0.158D+00 0.122D+01
 Gap=     0.093 Goal=   None    Shift=    0.000
 RMSDP=4.26D-08 MaxDP=5.82D-06 DE=-7.69D-10 OVMax= 2.67D-06

 Cycle  18  Pass 1  IDiag  1:
 E= -211.935985994206     Delta-E=       -0.000000000003 Rises=F Damp=F
 DIIS: error= 1.27D-07 at cycle  18 NSaved=  18.
 NSaved=18 IEnMin=18 EnMin= -211.935985994206     IErMin=18 ErrMin= 1.27D-07
 ErrMax= 1.27D-07  0.00D+00 EMaxC= 1.00D-01 BMatC= 1.07D-12 BMatP= 4.20D-12
 IDIUse=1 WtCom= 1.00D+00 WtEn= 0.00D+00
 Coeff-Com: -0.298D-03 0.341D-03-0.546D-04 0.195D-03 0.215D-03-0.397D-04
 Coeff-Com: -0.281D-02-0.589D-02 0.102D-01 0.510D-02-0.957D-02-0.240D-01
 Coeff-Com:  0.498D-02 0.120D+00-0.203D-01-0.281D+00 0.173D+00 0.103D+01
 Coeff:     -0.298D-03 0.341D-03-0.546D-04 0.195D-03 0.215D-03-0.397D-04
 Coeff:     -0.281D-02-0.589D-02 0.102D-01 0.510D-02-0.957D-02-0.240D-01
 Coeff:      0.498D-02 0.120D+00-0.203D-01-0.281D+00 0.173D+00 0.103D+01
 Gap=     0.093 Goal=   None    Shift=    0.000
 RMSDP=5.69D-09 MaxDP=7.40D-07 DE=-2.90D-12 OVMax= 3.53D-07

 SCF Done:  E(ROHF) =  -211.935985994     A.U. after   18 cycles
            NFock= 18  Conv=0.57D-08     -V/T= 2.4856
 <Sx>= 0.0000 <Sy>= 0.0000 <Sz>= 0.5000 <S**2>= 0.7500 S= 0.5000
 <L.S>=  0.00000000000    
 KE= 1.426554410247D+02 PE=-6.005922026043D+02 EE= 2.082968993073D+02
 Annihilation of the first spin contaminant:
 S**2 before annihilation     0.7500,   after     0.7500
 Leave Link  502 at Mon Mar 26 18:27:04 2018, MaxMem= 10737418240 cpu:            2311.0 elap:              88.5
 (Enter /home1/apps/gaussian/16rA.03/g16/l801.exe)
 Windowed orbitals will be sorted by symmetry type.
 GenMOA:  NOpAll=  4 NOp2=4 NOpUse=  4 JSym2X=1
 FoFJK:  IHMeth= 1 ICntrl=       0 DoSepK=F KAlg= 0 I1Cent=           0 FoldK=F
 IRaf=         0 NMat=       1 IRICut=       1 DoRegI=T DoRafI=F ISym2E= 1 IDoP0=0 IntGTp=1.
 FoFCou: FMM=F IPFlag=           8 FMFlag=      100000 FMFlg1=           0
         NFxFlg=           0 DoJE=F BraDBF=F KetDBF=F FulRan=T
         wScrn=  0.000000 ICntrl=         0 IOpCl=  1 I1Cent=           0 NGrid=           0
         NMat0=    1 NMatS0=      1 NMatT0=    0 NMatD0=    1 NMtDS0=    0 NMtDT0=    0
 Petite list used in FoFCou.
 <Sx>= 0.0000 <Sy>= 0.0000 <Sz>= 0.5000 <S**2>= 0.7500 S= 0.5000
 Range of M.O.s used for correlation:     1   383
 NBasis=   384 NAE=    13 NBE=    12 NFC=     0 NFV=     0
 NROrb=    383 NOA=    13 NOB=    12 NVA=   370 NVB=   371

 **** Warning!!: The largest alpha MO coefficient is  0.28270915D+03


 **** Warning!!: The largest beta MO coefficient is  0.28271073D+03

 Singles contribution to E2=   -0.3691731451D-02
 Leave Link  801 at Mon Mar 26 18:27:25 2018, MaxMem= 10737418240 cpu:             654.8 elap:              20.5
 (Enter /home1/apps/gaussian/16rA.03/g16/l804.exe)
 Open-shell transformation, MDV= 10737418240 ITran=4 ISComp=2.
 Unit  1 TFree=       4458894 TCopy=       3333214.
 Semi-Direct transformation.
 ModeAB=           4 MOrb=            13 LenV=   10733076598
 LASXX=     90809188 LTotXX=    90809188 LenRXX=   182565052
 LTotAB=    91755864 MaxLAS=   598137228 LenRXY=           0
 NonZer=   273374240 LenScr=   411669504 LnRSAI=   598137228
 LnScr1=   900724736 LExtra=    34621370 Total=   2127717890
 MaxDsk= 67108864000 SrtSym=           T ITran=            4
 DoSDTr:  NPSUse= 32
 JobTyp=1 Pass  1:  I=   1 to  13.
 (rs|ai) integrals will be sorted in core.
 Complete sort for first half transformation.
 First half transformation complete.
 Begin second half transformation for I=  10.
 Complete sort for second half transformation.
 Second half transformation complete.
 ModeAB=           4 MOrb=            12 LenV=   10733076598
 LASXX=     84062982 LTotXX=    84062982 LenRXX=   163301974
 LTotAB=    79238992 MaxLAS=   552126672 LenRXY=           0
 NonZer=   247364956 LenScr=   372502528 LnRSAI=   552126672
 LnScr1=   831437824 LExtra=   217186422 Total=   2136555420
 MaxDsk= 67108864000 SrtSym=           T ITran=            4
 DoSDTr:  NPSUse= 32
 JobTyp=2 Pass  1:  I=   1 to  12.
 (rs|ai) integrals will be sorted in core.
 Complete sort for first half transformation.
 First half transformation complete.
 Begin second half transformation for I=  10.
 Complete sort for second half transformation.
 Second half transformation complete.
 Spin components of T(2) and E(2):
     alpha-alpha T2 =       0.3323992572D-01 E2=     -0.2103853511D+00
     alpha-beta  T2 =       0.1356478985D+00 E2=     -0.9460405099D+00
     beta-beta   T2 =       0.3061066190D-01 E2=     -0.1947737663D+00
 ANorm=    0.1095974218D+01
 E2 =    -0.1354891359D+01 EUMP2 =    -0.21329087735297D+03
 (S**2,0)=  0.75000D+00           (S**2,1)=  0.75000D+00
 E(PUHF)=      -0.21193598599D+03        E(PMP2)=      -0.21329087735D+03
 Leave Link  804 at Mon Mar 26 18:40:04 2018, MaxMem= 10737418240 cpu:           24268.9 elap:             758.9
 (Enter /home1/apps/gaussian/16rA.03/g16/l913.exe)
 CIDS:  MDV= 10737418240.
 IFCWin=0 IBDFC=1 NFBD=     0     0 NFCmp=     0     0 NFFFC=     0     0
 Using original routines for 1st iteration.
 Using DD4UQ or CC4UQ for 2nd and later iterations.
 Keep R2 and R3 ints in memory in symmetry-blocked form, NReq=3425138542.
 FoFCou: FMM=F IPFlag=           8 FMFlag=           0 FMFlg1=           0
         NFxFlg=           0 DoJE=F BraDBF=F KetDBF=F FulRan=T
         wScrn=  0.000000 ICntrl=       600 IOpCl=  0 I1Cent=           0 NGrid=           0
         NMat0=    1 NMatS0=  73920 NMatT0=    0 NMatD0=    1 NMtDS0=    0 NMtDT0=    0
 Petite list used in FoFCou.
 CIDS: In Core Option IDoMem=           1.
 CCSD(T)
 =======
 Iterations= 150 Convergence= 0.100D-06
 Produce multiple copies of IABC intergrals
 Iteration Nr.   1
 **********************
 DD1Dir will call FoFMem   1 times, MxPair=       456
 NAB=   156 NAA=    78 NBB=    66.
 DD1Dir will call FoFMem   1 times, MxPair=       456
 NAB=   156 NAA=    78 NBB=    66.
 MP4(R+Q)= -0.22332002D+00
 Maximum subspace dimension=  5
 A-vector RMS=  1.3263250D-04 Max=  3.2877077D-03 conv= 1.00D-05.
 RLE energy=       -1.3646427705
 E3=        0.21352525D+00        EROMP3=      -0.21307735210D+03
 E4(SDQ)=  -0.17213909D+00        ROMP4(SDQ)=  -0.21324949119D+03
 VARIATIONAL ENERGIES WITH THE FIRST-ORDER WAVEFUNCTION:
 DE(Corr)=  -1.3645738     E(Corr)=     -213.30055981    
 NORM(A)=   0.10968492D+01
 Iteration Nr.   2
 **********************
 DD1Dir will call FoFMem   1 times, MxPair=       456
 NAB=   156 NAA=    78 NBB=    66.
 A-vector RMS=  4.5922192D-03 Max=  5.8274750D-02 conv= 1.00D-05.
 RLE energy=       -1.3254840180
 DE(Corr)=  -1.1352206     E(CORR)=     -213.07120656     Delta= 2.29D-01
 NORM(A)=   0.10892010D+01
 Iteration Nr.   3
 **********************
 DD1Dir will call FoFMem   1 times, MxPair=       456
 NAB=   156 NAA=    78 NBB=    66.
 A-vector RMS=  3.2902828D-03 Max=  4.3605300D-02 conv= 1.00D-05.
 RLE energy=       -1.2805372713
 DE(Corr)=  -1.1574620     E(CORR)=     -213.09344796     Delta=-2.22D-02
 NORM(A)=   0.10853384D+01
 Iteration Nr.   4
 **********************
 DD1Dir will call FoFMem   1 times, MxPair=       456
 NAB=   156 NAA=    78 NBB=    66.
 A-vector RMS=  2.5761466D-03 Max=  3.7536601D-02 conv= 1.00D-05.
 RLE energy=       -1.1278792150
 DE(Corr)=  -1.1853126     E(CORR)=     -213.12129863     Delta=-2.79D-02
 NORM(A)=   0.11237383D+01
 Iteration Nr.   5
 **********************
 DD1Dir will call FoFMem   1 times, MxPair=       456
 NAB=   156 NAA=    78 NBB=    66.
 A-vector RMS=  3.5448733D-03 Max=  4.0630482D-02 conv= 1.00D-05.
 RLE energy=       -1.2367578509
 DE(Corr)=  -1.3099446     E(CORR)=     -213.24593057     Delta=-1.25D-01
 NORM(A)=   0.11272538D+01
 Iteration Nr.   6
 **********************
 DD1Dir will call FoFMem   1 times, MxPair=       456
 NAB=   156 NAA=    78 NBB=    66.
 A-vector RMS=  1.0359412D-03 Max=  1.7476970D-02 conv= 1.00D-05.
 RLE energy=       -1.2401977738
 DE(Corr)=  -1.2328262     E(CORR)=     -213.16881222     Delta= 7.71D-02
 NORM(A)=   0.11255114D+01
 Iteration Nr.   7
 **********************
 DD1Dir will call FoFMem   1 times, MxPair=       456
 NAB=   156 NAA=    78 NBB=    66.
 A-vector RMS=  3.3656416D-04 Max=  4.6791693D-03 conv= 1.00D-05.
 RLE energy=       -1.2334127907
 DE(Corr)=  -1.2299597     E(CORR)=     -213.16594564     Delta= 2.87D-03
 NORM(A)=   0.11301326D+01
 Iteration Nr.   8
 **********************
 DD1Dir will call FoFMem   1 times, MxPair=       456
 NAB=   156 NAA=    78 NBB=    66.
 A-vector RMS=  2.7655430D-04 Max=  4.1647629D-03 conv= 1.00D-05.
 RLE energy=       -1.2336647399
 DE(Corr)=  -1.2344923     E(CORR)=     -213.17047831     Delta=-4.53D-03
 NORM(A)=   0.11339992D+01
 Iteration Nr.   9
 **********************
 DD1Dir will call FoFMem   1 times, MxPair=       456
 NAB=   156 NAA=    78 NBB=    66.
 A-vector RMS=  1.4269969D-04 Max=  1.8656024D-03 conv= 1.00D-05.
 RLE energy=       -1.2342288795
 DE(Corr)=  -1.2340598     E(CORR)=     -213.17004582     Delta= 4.32D-04
 NORM(A)=   0.11374445D+01
 Iteration Nr.  10
 **********************
 DD1Dir will call FoFMem   1 times, MxPair=       456
 NAB=   156 NAA=    78 NBB=    66.
 A-vector RMS=  8.0002283D-05 Max=  9.5425273D-04 conv= 1.00D-05.
 RLE energy=       -1.2344902085
 DE(Corr)=  -1.2342777     E(CORR)=     -213.17026369     Delta=-2.18D-04
 NORM(A)=   0.11382581D+01
 Iteration Nr.  11
 **********************
 DD1Dir will call FoFMem   1 times, MxPair=       456
 NAB=   156 NAA=    78 NBB=    66.
 A-vector RMS=  4.9175379D-05 Max=  8.0861528D-04 conv= 1.00D-05.
 RLE energy=       -1.2341589281
 DE(Corr)=  -1.2342745     E(CORR)=     -213.17026050     Delta= 3.19D-06
 NORM(A)=   0.11382158D+01
 Iteration Nr.  12
 **********************
 DD1Dir will call FoFMem   1 times, MxPair=       456
 NAB=   156 NAA=    78 NBB=    66.
 A-vector RMS=  2.9680498D-05 Max=  5.0977446D-04 conv= 1.00D-05.
 RLE energy=       -1.2344782002
 DE(Corr)=  -1.2344211     E(CORR)=     -213.17040706     Delta=-1.47D-04
 NORM(A)=   0.11380591D+01
 Iteration Nr.  13
 **********************
 DD1Dir will call FoFMem   1 times, MxPair=       456
 NAB=   156 NAA=    78 NBB=    66.
 A-vector RMS=  1.9957833D-05 Max=  2.4865749D-04 conv= 1.00D-05.
 RLE energy=       -1.2342409425
 DE(Corr)=  -1.2341662     E(CORR)=     -213.17015223     Delta= 2.55D-04
 NORM(A)=   0.11379876D+01
 Iteration Nr.  14
 **********************
 DD1Dir will call FoFMem   1 times, MxPair=       456
 NAB=   156 NAA=    78 NBB=    66.
 A-vector RMS=  1.2873931D-05 Max=  2.0969392D-04 conv= 1.00D-05.
 RLE energy=       -1.2342947338
 DE(Corr)=  -1.2343389     E(CORR)=     -213.17032487     Delta=-1.73D-04
 NORM(A)=   0.11379185D+01
 Iteration Nr.  15
 **********************
 DD1Dir will call FoFMem   1 times, MxPair=       456
 NAB=   156 NAA=    78 NBB=    66.
 A-vector RMS=  8.0800980D-06 Max=  1.7549315D-04 conv= 1.00D-05.
 RLE energy=       -1.2342721606
 DE(Corr)=  -1.2342593     E(CORR)=     -213.17024528     Delta= 7.96D-05
 NORM(A)=   0.11378701D+01
 Iteration Nr.  16
 **********************
 DD1Dir will call FoFMem   1 times, MxPair=       456
 NAB=   156 NAA=    78 NBB=    66.
 A-vector RMS=  6.3430946D-06 Max=  1.1980180D-04 conv= 1.00D-05.
 RLE energy=       -1.2342642682
 DE(Corr)=  -1.2342683     E(CORR)=     -213.17025433     Delta=-9.05D-06
 NORM(A)=   0.11378319D+01
 Iteration Nr.  17
 **********************
 DD1Dir will call FoFMem   1 times, MxPair=       456
 NAB=   156 NAA=    78 NBB=    66.
 A-vector RMS=  5.5892784D-06 Max=  1.2435467D-04 conv= 1.00D-05.
 RLE energy=       -1.2342583819
 DE(Corr)=  -1.2342696     E(CORR)=     -213.17025560     Delta=-1.27D-06
 NORM(A)=   0.11377809D+01
 Iteration Nr.  18
 **********************
 DD1Dir will call FoFMem   1 times, MxPair=       456
 NAB=   156 NAA=    78 NBB=    66.
 A-vector RMS=  4.3759050D-06 Max=  6.8867398D-05 conv= 1.00D-05.
 RLE energy=       -1.2342663129
 DE(Corr)=  -1.2342632     E(CORR)=     -213.17024915     Delta= 6.45D-06
 NORM(A)=   0.11377415D+01
 Iteration Nr.  19
 **********************
 DD1Dir will call FoFMem   1 times, MxPair=       456
 NAB=   156 NAA=    78 NBB=    66.
 A-vector RMS=  3.5513630D-06 Max=  6.3030642D-05 conv= 1.00D-05.
 RLE energy=       -1.2342469724
 DE(Corr)=  -1.2342491     E(CORR)=     -213.17023512     Delta= 1.40D-05
 NORM(A)=   0.11377371D+01
 Iteration Nr.  20
 **********************
 DD1Dir will call FoFMem   1 times, MxPair=       456
 NAB=   156 NAA=    78 NBB=    66.
 A-vector RMS=  2.3077011D-06 Max=  3.9999507D-05 conv= 1.00D-05.
 RLE energy=       -1.2342640408
 DE(Corr)=  -1.2342687     E(CORR)=     -213.17025468     Delta=-1.96D-05
 NORM(A)=   0.11377254D+01
 Iteration Nr.  21
 **********************
 DD1Dir will call FoFMem   1 times, MxPair=       456
 NAB=   156 NAA=    78 NBB=    66.
 A-vector RMS=  1.6179587D-06 Max=  1.9048770D-05 conv= 1.00D-05.
 RLE energy=       -1.2342573698
 DE(Corr)=  -1.2342518     E(CORR)=     -213.17023775     Delta= 1.69D-05
 NORM(A)=   0.11377261D+01
 Iteration Nr.  22
 **********************
 DD1Dir will call FoFMem   1 times, MxPair=       456
 NAB=   156 NAA=    78 NBB=    66.
 A-vector RMS=  1.4155690D-06 Max=  2.4205202D-05 conv= 1.00D-05.
 RLE energy=       -1.2342565340
 DE(Corr)=  -1.2342583     E(CORR)=     -213.17024424     Delta=-6.49D-06
 NORM(A)=   0.11377264D+01
 Iteration Nr.  23
 **********************
 DD1Dir will call FoFMem   1 times, MxPair=       456
 NAB=   156 NAA=    78 NBB=    66.
 A-vector RMS=  9.2102172D-07 Max=  1.3922459D-05 conv= 1.00D-05.
 RLE energy=       -1.2342585129
 DE(Corr)=  -1.2342599     E(CORR)=     -213.17024586     Delta=-1.62D-06
 NORM(A)=   0.11377267D+01
 Iteration Nr.  24
 **********************
 DD1Dir will call FoFMem   1 times, MxPair=       456
 NAB=   156 NAA=    78 NBB=    66.
 A-vector RMS=  4.9060294D-07 Max=  8.6066658D-06 conv= 1.00D-05.
 RLE energy=       -1.2342589969
 DE(Corr)=  -1.2342582     E(CORR)=     -213.17024416     Delta= 1.70D-06
 NORM(A)=   0.11377283D+01
 Iteration Nr.  25
 **********************
 DD1Dir will call FoFMem   1 times, MxPair=       456
 NAB=   156 NAA=    78 NBB=    66.
 A-vector RMS=  3.9380830D-07 Max=  6.7496308D-06 conv= 1.00D-05.
 RLE energy=       -1.2342574242
 DE(Corr)=  -1.2342580     E(CORR)=     -213.17024396     Delta= 1.95D-07
 NORM(A)=   0.11377308D+01
 Iteration Nr.  26
 **********************
 DD1Dir will call FoFMem   1 times, MxPair=       456
 NAB=   156 NAA=    78 NBB=    66.
 A-vector RMS=  3.4862975D-07 Max=  5.3679023D-06 conv= 1.00D-05.
 RLE energy=       -1.2342597462
 DE(Corr)=  -1.2342601     E(CORR)=     -213.17024607     Delta=-2.11D-06
 NORM(A)=   0.11377322D+01
 Iteration Nr.  27
 **********************
 DD1Dir will call FoFMem   1 times, MxPair=       456
 NAB=   156 NAA=    78 NBB=    66.
 A-vector RMS=  2.8363362D-07 Max=  3.9161063D-06 conv= 1.00D-05.
 RLE energy=       -1.2342587549
 DE(Corr)=  -1.2342582     E(CORR)=     -213.17024416     Delta= 1.91D-06
 NORM(A)=   0.11377339D+01
 Iteration Nr.  28
 **********************
 DD1Dir will call FoFMem   1 times, MxPair=       456
 NAB=   156 NAA=    78 NBB=    66.
 A-vector RMS=  1.9993300D-07 Max=  3.1287455D-06 conv= 1.00D-05.
 RLE energy=       -1.2342588082
 DE(Corr)=  -1.2342593     E(CORR)=     -213.17024533     Delta=-1.17D-06
 NORM(A)=   0.11377352D+01
 Iteration Nr.  29
 **********************
 DD1Dir will call FoFMem   1 times, MxPair=       456
 NAB=   156 NAA=    78 NBB=    66.
 A-vector RMS=  1.9310176D-07 Max=  3.2517863D-06 conv= 1.00D-05.
 RLE energy=       -1.2342594053
 DE(Corr)=  -1.2342596     E(CORR)=     -213.17024559     Delta=-2.57D-07
 NORM(A)=   0.11377356D+01
 Iteration Nr.  30
 **********************
 DD1Dir will call FoFMem   1 times, MxPair=       456
 NAB=   156 NAA=    78 NBB=    66.
 A-vector RMS=  1.4535755D-07 Max=  2.6696226D-06 conv= 1.00D-05.
 RLE energy=       -1.2342594077
 DE(Corr)=  -1.2342591     E(CORR)=     -213.17024509     Delta= 4.97D-07
 NORM(A)=   0.11377364D+01
 Iteration Nr.  31
 **********************
 DD1Dir will call FoFMem   1 times, MxPair=       456
 NAB=   156 NAA=    78 NBB=    66.
 A-vector RMS=  8.6073128D-08 Max=  1.9138967D-06 conv= 1.00D-05.
 RLE energy=       -1.2342591448
 DE(Corr)=  -1.2342592     E(CORR)=     -213.17024522     Delta=-1.22D-07
 NORM(A)=   0.11377369D+01
 Iteration Nr.  32
 **********************
 DD1Dir will call FoFMem   1 times, MxPair=       456
 NAB=   156 NAA=    78 NBB=    66.
 A-vector RMS=  7.9420406D-08 Max=  1.6483908D-06 conv= 1.00D-05.
 RLE energy=       -1.2342595653
 DE(Corr)=  -1.2342596     E(CORR)=     -213.17024558     Delta=-3.68D-07
 NORM(A)=   0.11377369D+01
 Iteration Nr.  33
 **********************
 DD1Dir will call FoFMem   1 times, MxPair=       456
 NAB=   156 NAA=    78 NBB=    66.
 A-vector RMS=  6.2392053D-08 Max=  1.3755633D-06 conv= 1.00D-05.
 RLE energy=       -1.2342593517
 DE(Corr)=  -1.2342592     E(CORR)=     -213.17024519     Delta= 3.96D-07
 NORM(A)=   0.11377370D+01
 Iteration Nr.  34
 **********************
 DD1Dir will call FoFMem   1 times, MxPair=       456
 NAB=   156 NAA=    78 NBB=    66.
 A-vector RMS=  4.9321971D-08 Max=  6.7156238D-07 conv= 1.00D-05.
 RLE energy=       -1.2342591883
 DE(Corr)=  -1.2342594     E(CORR)=     -213.17024540     Delta=-2.12D-07
 NORM(A)=   0.11377372D+01
 Iteration Nr.  35
 **********************
 DD1Dir will call FoFMem   1 times, MxPair=       456
 NAB=   156 NAA=    78 NBB=    66.
 A-vector RMS=  8.4657568D-08 Max=  1.3928625D-06 conv= 1.00D-05.
 RLE energy=       -1.2342593907
 DE(Corr)=  -1.2342596     E(CORR)=     -213.17024560     Delta=-2.01D-07
 NORM(A)=   0.11377371D+01
 Iteration Nr.  36
 **********************
 DD1Dir will call FoFMem   1 times, MxPair=       456
 NAB=   156 NAA=    78 NBB=    66.
 A-vector RMS=  3.3906487D-08 Max=  5.9592409D-07 conv= 1.00D-05.
 RLE energy=       -1.2342594228
 DE(Corr)=  -1.2342594     E(CORR)=     -213.17024539     Delta= 2.08D-07
 NORM(A)=   0.11377372D+01
 Iteration Nr.  37
 **********************
 DD1Dir will call FoFMem   1 times, MxPair=       456
 NAB=   156 NAA=    78 NBB=    66.
 A-vector RMS=  4.0204017D-07 Max=  6.1208427D-06 conv= 1.00D-05.
 RLE energy=       -1.2342603714
 DE(Corr)=  -1.2342594     E(CORR)=     -213.17024544     Delta=-4.45D-08
 NORM(A)=   0.11377362D+01
 CI/CC converged in   37 iterations to DelEn=-4.45D-08 Conv= 1.00D-07 ErrA1= 4.02D-07 Conv= 1.00D-05
 Wavefunction amplitudes converged. E(Corr)=     -213.17024544    
 Dominant configurations:
 ***********************
 Spin Case        I    J    A    B          Value
    BB           12        13            0.133276D+00
    BB           10        18           -0.107302D+00
 Largest amplitude= 1.33D-01
 Time for triples=   194903.16 seconds.
 T4(CCSD)= -0.68283412D-01
 T5(CCSD)=  0.17553486D-01
 CCSD(T)= -0.21322097536D+03
 Discarding MO integrals.
 Leave Link  913 at Mon Mar 26 21:02:53 2018, MaxMem= 10737418240 cpu:          272755.7 elap:            8568.6
 (Enter /home1/apps/gaussian/16rA.03/g16/l601.exe)
 Copying SCF densities to generalized density rwf, IOpCl= 0 IROHF=1.

 **********************************************************************

            Population analysis using the SCF density.

 **********************************************************************

 Orbital symmetries:
       Occupied  (SG) (SG) (PI) (PI) (SG) (?A) (SG) (?A) (DLTA)
                 (DLTA) (?A) (SG) (?A)
       Virtual   (SG) (PI) (PI) (SG) (SG) (PI) (PI) (?B) (?B) (?B)
                 (SG) (PI) (PI) (SG) (SG) (PI) (PI) (PI) (PI) (SG)
                 (?C) (?C) (?C) (PI) (PI) (?D) (?D) (?D) (?D) (PI)
                 (PI) (SG) (PI) (PI) (SG) (?E) (?E) (?E) (?E) (SG)
                 (DLTA) (DLTA) (PI) (PI) (DLTA) (DLTA) (SG) (PI)
                 (PI) (?F) (PHI) (PHI) (?F) (?F) (?F) (PI) (?F)
                 (?F) (PI) (?F) (SG) (PI) (PI) (SG) (PI) (PI) (PI)
                 (PI) (SG) (DLTA) (DLTA) (?E) (?E) (?E) (DLTA)
                 (DLTA) (?E) (SG) (PI) (PI) (PHI) (PHI) (?G) (?G)
                 (?H) (?H) (?H) (?G) (?G) (?I) (?J) (?J) (?J) (?J)
                 (SG) (?J) (?J) (?I) (?I) (?I) (PI) (PI) (?I) (?I)
                 (?I) (?I) (?I) (PI) (PI) (SG) (PI) (PI) (SG) (PI)
                 (PI) (SG) (DLTA) (DLTA) (PI) (PI) (SG) (PHI) (PHI)
                 (DLTA) (DLTA) (PI) (PI) (SG) (SG) (?G) (?G) (PHI)
                 (PHI) (?A) (DLTA) (DLTA) (?A) (?G) (?G) (?K) (?K)
                 (PHI) (PHI) (?A) (?A) (DLTA) (DLTA) (SG) (PI)
                 (PI) (SG) (?L) (?L) (PHI) (PHI) (?L) (?L) (?L)
                 (PI) (PI) (?L) (PHI) (PHI) (?L) (?L) (?L) (PI)
                 (PI) (?L) (?L) (PI) (PI) (SG) (DLTA) (DLTA) (PI)
                 (PI) (SG) (PI) (PI) (SG) (SG) (PHI) (PHI) (DLTA)
                 (DLTA) (PI) (PI) (SG) (?G) (?G) (PHI) (PHI) (DLTA)
                 (DLTA) (PI) (PI) (SG) (?G) (?G) (?K) (?K) (PHI)
                 (PHI) (DLTA) (DLTA) (SG) (PI) (PI) (SG) (DLTA)
                 (DLTA) (PI) (PI) (SG) (?A) (?A) (?A) (?A) (SG)
                 (SG) (SG) (DLTA) (DLTA) (PI) (PI) (PHI) (PHI)
                 (?L) (?L) (?L) (PI) (PI) (SG) (DLTA) (DLTA) (PI)
                 (PI) (SG) (SG) (PI) (PI) (?G) (?G) (PHI) (PHI)
                 (DLTA) (DLTA) (PI) (PI) (SG) (SG) (?K) (?K) (?G)
                 (?G) (PHI) (PHI) (DLTA) (DLTA) (PI) (PI) (SG)
                 (SG) (PI) (PI) (SG) (DLTA) (DLTA) (PI) (PI) (SG)
                 (PI) (PI) (SG) (?E) (?E) (?L) (?L) (?E) (?E) (?L)
                 (SG) (SG) (DLTA) (DLTA) (PI) (PI) (SG) (PI) (PI)
                 (SG) (PI) (PI) (SG) (SG) (SG) (DLTA) (DLTA) (PI)
                 (PI) (SG) (PI) (PI) (SG) (DLTA) (DLTA) (PI) (PI)
                 (SG) (SG) (PI) (PI) (SG) (SG) (PI) (PI) (SG) (SG)
                 (SG) (DLTA) (DLTA) (PI) (PI) (SG) (PI) (PI) (SG)
                 (PI) (PI) (SG) (SG) (SG) (PI) (PI) (SG) (DLTA)
                 (DLTA) (PI) (PI) (SG) (SG) (SG) (PI) (PI) (SG)
                 (SG) (SG) (PI) (PI) (SG) (SG) (PI) (PI) (SG) (SG)
                 (SG) (PI) (PI) (SG) (SG) (SG) (PI) (PI) (SG) (SG)
                 (SG) (SG) (SG) (SG)
 Unable to determine electronic state:  an orbital has unidentified symmetry.
 Alpha  occ. eigenvalues --   -5.27655  -3.48382  -3.47551  -3.47123  -1.26598
 Alpha  occ. eigenvalues --   -0.60987  -0.57509  -0.56530  -0.52966  -0.52964
 Alpha  occ. eigenvalues --   -0.47793  -0.42125  -0.39257
 Alpha virt. eigenvalues --   -0.00855   0.02613   0.02746   0.03587   0.04573
 Alpha virt. eigenvalues --    0.09082   0.09383   0.11895   0.13526   0.13536
 Alpha virt. eigenvalues --    0.14365   0.14404   0.14850   0.19099   0.21536
 Alpha virt. eigenvalues --    0.22591   0.23098   0.26778   0.27296   0.33793
 Alpha virt. eigenvalues --    0.42131   0.43802   0.43808   0.45005   0.45877
 Alpha virt. eigenvalues --    0.55645   0.56545   0.56783   0.63703   0.64283
 Alpha virt. eigenvalues --    0.65244   0.66576   0.80564   0.81484   0.92950
 Alpha virt. eigenvalues --    0.93136   0.96061   0.97662   0.97674   0.97916
 Alpha virt. eigenvalues --    1.09124   1.09125   1.16129   1.16590   1.19326
 Alpha virt. eigenvalues --    1.19332   1.23797   1.29822   1.31532   1.42307
 Alpha virt. eigenvalues --    1.44010   1.44011   1.60744   1.62043   1.62616
 Alpha virt. eigenvalues --    1.71919   1.72843   1.72860   1.73834   1.79886
 Alpha virt. eigenvalues --    2.15516   2.17785   2.20369   2.41495   2.44405
 Alpha virt. eigenvalues --    2.45077   2.79944   2.85028   2.85573   2.92860
 Alpha virt. eigenvalues --    2.92861   2.94744   2.94744   2.96564   2.97109
 Alpha virt. eigenvalues --    2.97113   2.97411   3.08732   3.20501   3.22442
 Alpha virt. eigenvalues --    3.30743   3.30745   3.39505   3.39505   3.41014
 Alpha virt. eigenvalues --    3.62005   3.62026   3.73699   3.73699   3.93118
 Alpha virt. eigenvalues --    4.04993   4.05469   4.05696   4.07366   4.07648
 Alpha virt. eigenvalues --    4.14807   4.14846   4.28443   4.30322   4.31699
 Alpha virt. eigenvalues --    4.36315   4.37835   4.37958   4.39342   4.60745
 Alpha virt. eigenvalues --    4.82797   4.82813   4.86937   4.90919   5.35831
 Alpha virt. eigenvalues --    5.63988   5.66981   5.87872   6.43333   6.43894
 Alpha virt. eigenvalues --    6.59331   6.74314   6.74314   6.85870   6.86497
 Alpha virt. eigenvalues --    7.07668   7.54100   7.54100   7.65706   7.65708
 Alpha virt. eigenvalues --    8.06059   8.07083   8.50272   9.12815   9.15134
 Alpha virt. eigenvalues --    9.15134   9.20127   9.20127   9.22884   9.27170
 Alpha virt. eigenvalues --    9.27177   9.27298   9.33554   9.33554   9.33990
 Alpha virt. eigenvalues --    9.33990   9.39007   9.39007   9.40946   9.43316
 Alpha virt. eigenvalues --    9.78203   9.78209   9.86099  10.11985  10.14555
 Alpha virt. eigenvalues --   10.34780  10.69003  10.69003  10.77761  10.77764
 Alpha virt. eigenvalues --   10.84154  10.94414  10.94538  11.30372  11.34560
 Alpha virt. eigenvalues --   11.44681  11.94092  11.94092  12.11189  12.11251
 Alpha virt. eigenvalues --   12.58602  12.70517  12.75333  12.75755  12.75800
 Alpha virt. eigenvalues --   13.16620  13.22006  13.30629  13.86612  13.86614
 Alpha virt. eigenvalues --   13.91216  13.91637  13.92140  14.20373  14.21058
 Alpha virt. eigenvalues --   14.76637  15.00827  18.41292  18.41292  18.50156
 Alpha virt. eigenvalues --   18.50156  18.91355  18.91844  19.40264  21.65502
 Alpha virt. eigenvalues --   21.65502  21.69676  21.69676  21.83192  21.83196
 Alpha virt. eigenvalues --   21.93606  21.94031  21.98453  23.49591  23.49591
 Alpha virt. eigenvalues --   23.49654  23.49654  23.52220  23.52220  23.65440
 Alpha virt. eigenvalues --   23.65443  23.77719  23.93999  23.94444  24.66597
 Alpha virt. eigenvalues --   26.01915  26.01916  26.11015  26.11458  26.23051
 Alpha virt. eigenvalues --   27.31656  27.34023  27.41556  27.46088  27.88555
 Alpha virt. eigenvalues --   28.57681  31.79784  45.62146  45.62148  45.65170
 Alpha virt. eigenvalues --   45.65600  45.70026  45.70026  45.75793  45.76716
 Alpha virt. eigenvalues --   45.76720  46.10187  46.10599  46.31400  47.41811
 Alpha virt. eigenvalues --   47.41863  47.62964  47.66897  48.28722  49.46177
 Alpha virt. eigenvalues --   49.51344  49.51819  49.89265  49.89265  49.92553
 Alpha virt. eigenvalues --   49.92553  50.02410  50.02415  50.10195  50.10620
 Alpha virt. eigenvalues --   50.16426  52.90857  54.38011  54.38011  54.38610
 Alpha virt. eigenvalues --   54.38610  54.40255  54.40255  54.47114  54.47116
 Alpha virt. eigenvalues --   54.62187  54.62619  54.82239  59.69548  67.34432
 Alpha virt. eigenvalues --   67.39730  68.41097  76.90997  76.90998  76.99402
 Alpha virt. eigenvalues --   76.99846  77.13819  85.66946  85.67407  85.86916
 Alpha virt. eigenvalues --  104.09469 104.09514 104.11168 104.11617 104.15949
 Alpha virt. eigenvalues --  104.18846 104.19668 107.53558 113.15717 132.27982
 Alpha virt. eigenvalues --  132.27982 132.36093 132.36491 132.49396 143.56659
 Alpha virt. eigenvalues --  143.57072 143.75614 148.37024 148.41011 149.30161
 Alpha virt. eigenvalues --  190.12733 191.95783 201.61267 201.61288 201.72890
 Alpha virt. eigenvalues --  201.74594 202.05080 238.34219 238.34544 238.44509
 Alpha virt. eigenvalues --  259.08385 259.08385 259.15555 259.15827 259.27322
 Alpha virt. eigenvalues --  306.79407 312.40129 312.42826 313.32515 329.70680
 Alpha virt. eigenvalues --  403.48539 403.48782 403.57968 570.14187 573.10820
 Alpha virt. eigenvalues --  627.34517 627.34518 627.40022 627.40148 627.49046
 Alpha virt. eigenvalues --  653.56242 653.57732 654.32843 715.05052 715.05220
 Alpha virt. eigenvalues --  715.142471019.373571103.628221340.909761340.91078
 Alpha virt. eigenvalues -- 1340.995031996.470211996.470211996.506341996.50672
 Alpha virt. eigenvalues -- 1996.565952118.338582213.339822698.059592698.06013
 Alpha virt. eigenvalues -- 2698.136324668.874265820.740245922.026735922.02698
 Alpha virt. eigenvalues -- 5922.09433****************************************
 Alpha virt. eigenvalues -- **************************************************
 Alpha virt. eigenvalues -- **************************************************
 Alpha virt. eigenvalues -- **************************************************
     Molecular Orbital Coefficients:
                           8         9        10        11        12
                           O         O         O         O         O
     Eigenvalues --    -0.56530  -0.52966  -0.52964  -0.47793  -0.42125
   1 1   Cu 1S          0.00000  -0.00000   0.00000   0.00000  -0.00000
   2        2S          0.00000  -0.00000   0.00000   0.00000  -0.00000
   3        3S          0.00000  -0.00000   0.00000   0.00000  -0.00000
   4        4S          0.00000  -0.00000   0.00000   0.00000  -0.00000
   5        5S          0.00000  -0.00000   0.00000   0.00000  -0.00000
   6        6S          0.00000  -0.00000   0.00000   0.00000  -0.00000
   7        7S          0.00000  -0.00000   0.00000   0.00000  -0.00000
   8        8S          0.00000  -0.00000   0.00000   0.00000  -0.00001
   9        9S          0.00000  -0.00000   0.00000   0.00000  -0.00001
  10       10S          0.00000  -0.00000   0.00000   0.00000  -0.00004
  11       11S          0.00000  -0.00000   0.00000   0.00000  -0.00004
  12       12S          0.00000  -0.00000   0.00000   0.00000  -0.00018
  13       13S          0.00000   0.00003   0.00000   0.00000   0.00113
  14       14S          0.00000  -0.00030   0.00000   0.00000  -0.01385
  15       15S          0.00000   0.00056   0.00000   0.00000   0.02647
  16       16S          0.00000   0.00241   0.00000   0.00000   0.11444
  17       17S          0.00000  -0.00095   0.00000   0.00000  -0.04749
  18       18S          0.00000  -0.00300   0.00000   0.00000  -0.15285
  19       19S          0.00000  -0.00247   0.00000   0.00000  -0.11517
  20       20S          0.00000   0.00414   0.00000   0.00000   0.21266
  21       21S          0.00000   0.00132   0.00000   0.00000   0.21598
  22       22S          0.00000   0.00000   0.00000   0.00000   0.02889
  23       23S          0.00000  -0.00130   0.00000   0.00000  -0.06297
  24       24S          0.00000  -0.00008   0.00000   0.00000   0.00085
  25       25S          0.00000   0.00001   0.00000   0.00000   0.00053
  26       26PX         0.00000   0.00000   0.00000   0.00000   0.00000
  27       26PY         0.00000   0.00000   0.00000   0.00000   0.00000
  28       26PZ         0.00000  -0.00000   0.00000   0.00000  -0.00000
  29       27PX        -0.00000   0.00000   0.00000   0.00000   0.00000
  30       27PY         0.00000   0.00000   0.00000  -0.00000   0.00000
  31       27PZ         0.00000   0.00000   0.00000   0.00000   0.00000
  32       28PX         0.00000   0.00000   0.00000   0.00000   0.00000
  33       28PY         0.00000   0.00000   0.00000   0.00000   0.00000
  34       28PZ         0.00000   0.00000   0.00000   0.00000  -0.00000
  35       29PX        -0.00000   0.00000   0.00000   0.00000   0.00000
  36       29PY         0.00000   0.00000   0.00000  -0.00000   0.00000
  37       29PZ         0.00000   0.00000   0.00000   0.00000   0.00000
  38       30PX         0.00000   0.00000   0.00000   0.00000   0.00000
  39       30PY         0.00000   0.00000   0.00000   0.00000   0.00000
  40       30PZ         0.00000  -0.00000   0.00000   0.00000  -0.00000
  41       31PX        -0.00000   0.00000   0.00000   0.00000   0.00000
  42       31PY         0.00000   0.00000   0.00000  -0.00003   0.00000
  43       31PZ         0.00000   0.00000   0.00000   0.00000   0.00003
  44       32PX         0.00000   0.00000   0.00000   0.00000   0.00000
  45       32PY         0.00000   0.00000   0.00000   0.00004   0.00000
  46       32PZ         0.00000  -0.00000   0.00000   0.00000  -0.00004
  47       33PX        -0.00004   0.00000   0.00000   0.00000   0.00000
  48       33PY         0.00000   0.00000   0.00000  -0.00028   0.00000
  49       33PZ         0.00000   0.00001   0.00000   0.00000   0.00036
  50       34PX        -0.00002   0.00000   0.00000   0.00000   0.00000
  51       34PY         0.00000   0.00000   0.00000   0.00006   0.00000
  52       34PZ         0.00000   0.00001   0.00000   0.00000   0.00006
  53       35PX         0.00069   0.00000   0.00000   0.00000   0.00000
  54       35PY         0.00000   0.00000   0.00000   0.00390   0.00000
  55       35PZ         0.00000  -0.00024   0.00000   0.00000  -0.00648
  56       36PX         0.00056   0.00000   0.00000   0.00000   0.00000
  57       36PY         0.00000   0.00000   0.00000  -0.00224   0.00000
  58       36PZ         0.00000  -0.00020   0.00000   0.00000  -0.00201
  59       37PX        -0.00228   0.00000   0.00000   0.00000   0.00000
  60       37PY         0.00000   0.00000   0.00000  -0.01081   0.00000
  61       37PZ         0.00000   0.00079   0.00000   0.00000   0.01957
  62       38PX        -0.00533   0.00000   0.00000   0.00000   0.00000
  63       38PY         0.00000   0.00000   0.00000  -0.01204   0.00000
  64       38PZ         0.00000   0.00131   0.00000   0.00000   0.02767
  65       39PX        -0.00392   0.00000   0.00000   0.00000   0.00000
  66       39PY         0.00000   0.00000   0.00000  -0.03164   0.00000
  67       39PZ         0.00000   0.00143   0.00000   0.00000   0.04577
  68       40PX         0.00019   0.00000   0.00000   0.00000   0.00000
  69       40PY         0.00000   0.00000   0.00000  -0.00194   0.00000
  70       40PZ         0.00000   0.00014   0.00000   0.00000   0.00499
  71       41PX         0.01442   0.00000   0.00000   0.00000   0.00000
  72       41PY         0.00000   0.00000   0.00000   0.04284   0.00000
  73       41PZ         0.00000  -0.00292   0.00000   0.00000  -0.06951
  74       42PX         0.01135   0.00000   0.00000   0.00000   0.00000
  75       42PY         0.00000   0.00000   0.00000   0.04282   0.00000
  76       42PZ         0.00000  -0.00127   0.00000   0.00000  -0.03608
  77       43PX        -0.00321   0.00000   0.00000   0.00000   0.00000
  78       43PY         0.00000   0.00000   0.00000   0.00276   0.00000
  79       43PZ         0.00000  -0.00010   0.00000   0.00000   0.00137
  80       44PX        -0.00017   0.00000   0.00000   0.00000   0.00000
  81       44PY         0.00000   0.00000   0.00000   0.00356   0.00000
  82       44PZ         0.00000   0.00010   0.00000   0.00000  -0.00057
  83       45PX         0.00102   0.00000   0.00000   0.00000   0.00000
  84       45PY         0.00000   0.00000   0.00000  -0.01541   0.00000
  85       45PZ         0.00000  -0.00004   0.00000   0.00000   0.01073
  86       46PX         0.00033   0.00000   0.00000   0.00000   0.00000
  87       46PY         0.00000   0.00000   0.00000  -0.00153   0.00000
  88       46PZ         0.00000  -0.00002   0.00000   0.00000  -0.00117
  89       47D 0        0.00000   0.00000   0.00000   0.00000  -0.00009
  90       47D+1        0.00014   0.00000   0.00000   0.00000   0.00000
  91       47D-1        0.00000   0.00000   0.00000   0.00007   0.00000
  92       47D+2        0.00000   0.00014   0.00000   0.00000  -0.00000
  93       47D-2        0.00000   0.00000   0.00014   0.00000   0.00000
  94       48D 0        0.00000   0.00002   0.00000   0.00000  -0.00086
  95       48D+1        0.00138   0.00000   0.00000   0.00000   0.00000
  96       48D-1        0.00000   0.00000   0.00000   0.00069   0.00000
  97       48D+2        0.00000   0.00141   0.00000   0.00000  -0.00002
  98       48D-2        0.00000   0.00000   0.00141   0.00000   0.00000
  99       49D 0        0.00000   0.00014   0.00000   0.00000  -0.00680
 100       49D+1        0.01095   0.00000   0.00000   0.00000   0.00000
 101       49D-1        0.00000   0.00000   0.00000   0.00546   0.00000
 102       49D+2        0.00000   0.01116   0.00000   0.00000  -0.00014
 103       49D-2        0.00000   0.00000   0.01117   0.00000   0.00000
 104       50D 0        0.00000   0.00059   0.00000   0.00000  -0.02756
 105       50D+1        0.04454   0.00000   0.00000   0.00000   0.00000
 106       50D-1        0.00000   0.00000   0.00000   0.02225   0.00000
 107       50D+2        0.00000   0.04539   0.00000   0.00000  -0.00055
 108       50D-2        0.00000   0.00000   0.04541   0.00000   0.00000
 109       51D 0        0.00000   0.00141   0.00000   0.00000  -0.06853
 110       51D+1        0.10974   0.00000   0.00000   0.00000   0.00000
 111       51D-1        0.00000   0.00000   0.00000   0.05469   0.00000
 112       51D+2        0.00000   0.11197   0.00000   0.00000  -0.00138
 113       51D-2        0.00000   0.00000   0.11202   0.00000   0.00000
 114       52D 0        0.00000   0.00232   0.00000   0.00000  -0.12653
 115       52D+1        0.19786   0.00000   0.00000   0.00000   0.00000
 116       52D-1        0.00000   0.00000   0.00000   0.09743   0.00000
 117       52D+2        0.00000   0.20226   0.00000   0.00000  -0.00263
 118       52D-2        0.00000   0.00000   0.20235   0.00000   0.00000
 119       53D 0        0.00000   0.00351   0.00000   0.00000  -0.17403
 120       53D+1        0.27798   0.00000   0.00000   0.00000   0.00000
 121       53D-1        0.00000   0.00000   0.00000   0.13727   0.00000
 122       53D+2        0.00000   0.28322   0.00000   0.00000  -0.00353
 123       53D-2        0.00000   0.00000   0.28335   0.00000   0.00000
 124       54D 0        0.00000   0.00388   0.00000   0.00000  -0.18005
 125       54D+1        0.28869   0.00000   0.00000   0.00000   0.00000
 126       54D-1        0.00000   0.00000   0.00000   0.14416   0.00000
 127       54D+2        0.00000   0.29358   0.00000   0.00000  -0.00344
 128       54D-2        0.00000   0.00000   0.29371   0.00000   0.00000
 129       55D 0        0.00000   0.00323   0.00000   0.00000  -0.14494
 130       55D+1        0.23611   0.00000   0.00000   0.00000   0.00000
 131       55D-1        0.00000   0.00000   0.00000   0.11160   0.00000
 132       55D+2        0.00000   0.23833   0.00000   0.00000  -0.00299
 133       55D-2        0.00000   0.00000   0.23844   0.00000   0.00000
 134       56D 0        0.00000   0.00259   0.00000   0.00000  -0.08088
 135       56D+1        0.14227   0.00000   0.00000   0.00000   0.00000
 136       56D-1        0.00000   0.00000   0.00000   0.06507   0.00000
 137       56D+2        0.00000   0.14537   0.00000   0.00000  -0.00111
 138       56D-2        0.00000   0.00000   0.14543   0.00000   0.00000
 139       57D 0        0.00000   0.00069   0.00000   0.00000  -0.03984
 140       57D+1        0.03865   0.00000   0.00000   0.00000   0.00000
 141       57D-1        0.00000   0.00000   0.00000   0.02309   0.00000
 142       57D+2        0.00000   0.04221   0.00000   0.00000   0.00042
 143       57D-2        0.00000   0.00000   0.04223   0.00000   0.00000
 144       58D 0        0.00000   0.00026   0.00000   0.00000  -0.00407
 145       58D+1        0.00974   0.00000   0.00000   0.00000   0.00000
 146       58D-1        0.00000   0.00000   0.00000   0.00546   0.00000
 147       58D+2        0.00000   0.00963   0.00000   0.00000  -0.00003
 148       58D-2        0.00000   0.00000   0.00964   0.00000   0.00000
 149       59D 0        0.00000   0.00039   0.00000   0.00000  -0.00203
 150       59D+1        0.00944   0.00000   0.00000   0.00000   0.00000
 151       59D-1        0.00000   0.00000   0.00000   0.00628   0.00000
 152       59D+2        0.00000   0.00916   0.00000   0.00000   0.00008
 153       59D-2        0.00000   0.00000   0.00917   0.00000   0.00000
 154       60D 0        0.00000   0.00008   0.00000   0.00000  -0.00477
 155       60D+1        0.00271   0.00000   0.00000   0.00000   0.00000
 156       60D-1        0.00000   0.00000   0.00000   0.00108   0.00000
 157       60D+2        0.00000   0.00050   0.00000   0.00000  -0.00009
 158       60D-2        0.00000   0.00000   0.00050   0.00000   0.00000
 159       61F 0        0.00000  -0.00000   0.00000   0.00000  -0.00027
 160       61F+1        0.00025   0.00000   0.00000   0.00000   0.00000
 161       61F-1        0.00000   0.00000   0.00000   0.00019   0.00000
 162       61F+2        0.00000   0.00021   0.00000   0.00000  -0.00001
 163       61F-2        0.00000   0.00000   0.00021   0.00000   0.00000
 164       61F+3       -0.00000   0.00000   0.00000   0.00000   0.00000
 165       61F-3        0.00000   0.00000   0.00000   0.00000   0.00000
 166       62F 0        0.00000   0.00000   0.00000   0.00000  -0.00090
 167       62F+1        0.00062   0.00000   0.00000   0.00000   0.00000
 168       62F-1        0.00000   0.00000   0.00000   0.00071   0.00000
 169       62F+2        0.00000   0.00058   0.00000   0.00000  -0.00002
 170       62F-2        0.00000   0.00000   0.00058   0.00000   0.00000
 171       62F+3       -0.00001   0.00000   0.00000   0.00000   0.00000
 172       62F-3        0.00000   0.00000   0.00000  -0.00001   0.00000
 173       63F 0        0.00000   0.00000   0.00000   0.00000  -0.00224
 174       63F+1        0.00166   0.00000   0.00000   0.00000   0.00000
 175       63F-1        0.00000   0.00000   0.00000   0.00188   0.00000
 176       63F+2        0.00000   0.00148   0.00000   0.00000  -0.00014
 177       63F-2        0.00000   0.00000   0.00149   0.00000   0.00000
 178       63F+3        0.00000   0.00000   0.00000   0.00000   0.00000
 179       63F-3        0.00000   0.00000   0.00000   0.00002   0.00000
 180       64F 0        0.00000   0.00003   0.00000   0.00000  -0.00927
 181       64F+1        0.00339   0.00000   0.00000   0.00000   0.00000
 182       64F-1        0.00000   0.00000   0.00000   0.00792   0.00000
 183       64F+2        0.00000   0.00394   0.00000   0.00000  -0.00020
 184       64F-2        0.00000   0.00000   0.00395   0.00000   0.00000
 185       64F+3       -0.00017   0.00000   0.00000   0.00000   0.00000
 186       64F-3        0.00000   0.00000   0.00000  -0.00008   0.00000
 187       65F 0        0.00000   0.00009   0.00000   0.00000  -0.01338
 188       65F+1        0.00698   0.00000   0.00000   0.00000   0.00000
 189       65F-1        0.00000   0.00000   0.00000   0.00973   0.00000
 190       65F+2        0.00000   0.00573   0.00000   0.00000  -0.00098
 191       65F-2        0.00000   0.00000   0.00574   0.00000   0.00000
 192       65F+3       -0.00022   0.00000   0.00000   0.00000   0.00000
 193       65F-3        0.00000   0.00000   0.00000   0.00014   0.00000
 194       66G 0        0.00000   0.00001   0.00000   0.00000   0.00007
 195       66G+1       -0.00004   0.00000   0.00000   0.00000   0.00000
 196       66G-1        0.00000   0.00000   0.00000  -0.00003   0.00000
 197       66G+2        0.00000  -0.00002   0.00000   0.00000  -0.00001
 198       66G-2        0.00000   0.00000  -0.00002   0.00000   0.00000
 199       66G+3        0.00001   0.00000   0.00000   0.00000   0.00000
 200       66G-3        0.00000   0.00000   0.00000   0.00001   0.00000
 201       66G+4        0.00000   0.00002   0.00000   0.00000  -0.00000
 202       66G-4        0.00000   0.00000   0.00002   0.00000   0.00000
[...]
 166       62F 0        0.00001   0.00001   0.00001   0.00000
 167       62F+1        0.00001   0.00000   0.00000   0.00000
 168       62F-1        0.00001   0.00000   0.00000   0.00000
 169       62F+2        0.00000   0.00000   0.00000   0.00000
 170       62F-2        0.00000   0.00000   0.00000   0.00000
 171       62F+3        0.00000   0.00000   0.00000  -0.00000
 172       62F-3        0.00000   0.00000   0.00000   0.00000
 173       63F 0        0.00015   0.00008   0.00008   0.00000
 174       63F+1        0.00004   0.00003   0.00000   0.00003
 175       63F-1        0.00008   0.00004   0.00004   0.00000
 176       63F+2        0.00001   0.00001   0.00001  -0.00000
 177       63F-2        0.00001   0.00001   0.00001   0.00000
 178       63F+3        0.00000   0.00000   0.00000   0.00000
 179       63F-3        0.00000   0.00000   0.00000   0.00000
 180       64F 0        0.00308   0.00154   0.00154   0.00000
 181       64F+1        0.00088   0.00091  -0.00003   0.00094
 182       64F-1        0.00192   0.00096   0.00096   0.00000
 183       64F+2        0.00006   0.00003   0.00003   0.00000
 184       64F-2        0.00006   0.00003   0.00003   0.00000
 185       64F+3        0.00000   0.00000   0.00000  -0.00000
 186       64F-3        0.00000   0.00000   0.00000   0.00000
 187       65F 0        0.00140   0.00070   0.00070   0.00000
 188       65F+1        0.00190   0.00213  -0.00024   0.00237
 189       65F-1        0.00567   0.00284   0.00284   0.00000
 190       65F+2        0.00008   0.00004   0.00004  -0.00000
 191       65F-2        0.00007   0.00004   0.00004   0.00000
 192       65F+3        0.00000   0.00000   0.00000   0.00000
 193       65F-3        0.00000   0.00000   0.00000   0.00000
 194       66G 0        0.00000   0.00000   0.00000   0.00000
 195       66G+1       -0.00000   0.00000  -0.00000   0.00000
 196       66G-1        0.00000   0.00000   0.00000   0.00000
 197       66G+2       -0.00000  -0.00000  -0.00000  -0.00000
 198       66G-2       -0.00000  -0.00000  -0.00000   0.00000
 199       66G+3        0.00000   0.00000   0.00000   0.00000
 200       66G-3        0.00000   0.00000   0.00000   0.00000
 201       66G+4        0.00000   0.00000   0.00000   0.00000
 202       66G-4        0.00000   0.00000   0.00000   0.00000
 203       67G 0       -0.00000  -0.00000  -0.00000  -0.00000
 204       67G+1        0.00000   0.00000  -0.00000   0.00000
 205       67G-1        0.00000   0.00000   0.00000   0.00000
 206       67G+2        0.00000   0.00000   0.00000   0.00000
 207       67G-2        0.00000   0.00000   0.00000   0.00000
 208       67G+3        0.00000   0.00000   0.00000   0.00000
 209       67G-3        0.00000   0.00000   0.00000  -0.00000
 210       67G+4        0.00000   0.00000   0.00000   0.00000
 211       67G-4        0.00000   0.00000   0.00000   0.00000
 212       68G 0        0.00005   0.00003   0.00003   0.00000
 213       68G+1        0.00001   0.00001   0.00000   0.00001
 214       68G-1        0.00001   0.00001   0.00001   0.00000
 215       68G+2        0.00000   0.00000   0.00000   0.00000
 216       68G-2        0.00000   0.00000   0.00000   0.00000
 217       68G+3        0.00000   0.00000   0.00000  -0.00000
 218       68G-3        0.00000   0.00000   0.00000   0.00000
 219       68G+4        0.00000   0.00000   0.00000  -0.00000
 220       68G-4        0.00000   0.00000   0.00000   0.00000
 221       69G 0        0.00076   0.00038   0.00038   0.00000
 222       69G+1        0.00026   0.00023   0.00003   0.00020
 223       69G-1        0.00049   0.00025   0.00025   0.00000
 224       69G+2        0.00000   0.00000   0.00000   0.00000
 225       69G-2        0.00000   0.00000   0.00000   0.00000
 226       69G+3        0.00000   0.00000   0.00000  -0.00000
 227       69G-3        0.00000   0.00000   0.00000   0.00000
 228       69G+4        0.00000   0.00000   0.00000   0.00000
 229       69G-4        0.00000   0.00000   0.00000   0.00000
 230       70H 0        0.00000   0.00000   0.00000   0.00000
 231       70H+1        0.00000   0.00000   0.00000   0.00000
 232       70H-1        0.00000   0.00000   0.00000   0.00000
 233       70H+2        0.00000   0.00000   0.00000   0.00000
 234       70H-2        0.00000   0.00000   0.00000   0.00000
 235       70H+3        0.00000   0.00000   0.00000   0.00000
 236       70H-3        0.00000   0.00000   0.00000  -0.00000
 237       70H+4        0.00000   0.00000   0.00000  -0.00000
 238       70H-4        0.00000   0.00000   0.00000   0.00000
 239       70H+5        0.00000   0.00000   0.00000   0.00000
 240       70H-5        0.00000   0.00000   0.00000   0.00000
 241       71H 0       -0.00000  -0.00000  -0.00000  -0.00000
 242       71H+1       -0.00000  -0.00000  -0.00000  -0.00000
 243       71H-1       -0.00000  -0.00000  -0.00000   0.00000
 244       71H+2       -0.00000  -0.00000  -0.00000   0.00000
 245       71H-2       -0.00000  -0.00000  -0.00000   0.00000
 246       71H+3       -0.00000  -0.00000  -0.00000   0.00000
 247       71H-3       -0.00000  -0.00000  -0.00000   0.00000
 248       71H+4       -0.00000  -0.00000  -0.00000  -0.00000
 249       71H-4       -0.00000  -0.00000  -0.00000   0.00000
 250       71H+5       -0.00000  -0.00000  -0.00000  -0.00000
 251       71H-5       -0.00000  -0.00000  -0.00000   0.00000
 252       72H 0        0.00006   0.00003   0.00003   0.00000
 253       72H+1        0.00001   0.00001   0.00000   0.00001
 254       72H-1        0.00002   0.00001   0.00001   0.00000
 255       72H+2        0.00000   0.00000   0.00000  -0.00000
 256       72H-2        0.00000   0.00000   0.00000   0.00000
 257       72H+3        0.00000   0.00000   0.00000  -0.00000
 258       72H-3        0.00000   0.00000   0.00000  -0.00000
 259       72H+4        0.00000   0.00000   0.00000   0.00000
 260       72H-4        0.00000   0.00000   0.00000   0.00000
 261       72H+5        0.00000   0.00000   0.00000   0.00000
 262       72H-5        0.00000   0.00000   0.00000   0.00000
 263 2   O  1S          0.00000   0.00000   0.00000   0.00000
 264        2S          0.00000   0.00000   0.00000   0.00000
 265        3S          0.00000   0.00000   0.00000  -0.00000
 266        4S          0.00000   0.00000   0.00000   0.00000
 267        5S          0.00002   0.00001   0.00001   0.00000
 268        6S         -0.00006  -0.00003  -0.00003   0.00000
 269        7S         -0.00136  -0.00068  -0.00068   0.00000
 270        8S         -0.10050  -0.05025  -0.05025   0.00000
 271        9S         -0.07635  -0.03817  -0.03817   0.00000
 272       10S          0.44580   0.22290   0.22290   0.00000
 273       11S          1.09119   0.54560   0.54560   0.00000
 274       12S          0.54750   0.27375   0.27375   0.00000
 275       13S          0.06400   0.03200   0.03200   0.00000
 276       14S          0.00108   0.00054   0.00054   0.00000
 277       15S          0.00008   0.00004   0.00004   0.00000
 278       16S          0.03072   0.01536   0.01536   0.00000
 279       17PX        -0.00018  -0.00018  -0.00000  -0.00017
 280       17PY        -0.00032  -0.00016  -0.00016   0.00000
 281       17PZ        -0.00032  -0.00016  -0.00016   0.00000
 282       18PX        -0.08047  -0.07929  -0.00118  -0.07811
 283       18PY        -0.14398  -0.07199  -0.07199   0.00000
 284       18PZ        -0.14573  -0.07286  -0.07286   0.00000
 285       19PX         0.08915   0.08791   0.00123   0.08668
 286       19PY         0.16122   0.08061   0.08061   0.00000
 287       19PZ         0.14684   0.07342   0.07342   0.00000
 288       20PX         0.29481   0.29008   0.00473   0.28536
 289       20PY         0.52886   0.26443   0.26443   0.00000
 290       20PZ         0.49692   0.24846   0.24846   0.00000
 291       21PX         0.41111   0.40115   0.00995   0.39120
 292       21PY         0.76071   0.38036   0.38036   0.00000
 293       21PZ         0.69785   0.34892   0.34892   0.00000
 294       22PX         0.19113   0.18794   0.00319   0.18475
 295       22PY         0.43616   0.21808   0.21808   0.00000
 296       22PZ         0.35963   0.17981   0.17981   0.00000
 297       23PX         0.09239   0.09105   0.00134   0.08970
 298       23PY         0.16549   0.08275   0.08275  -0.00000
 299       23PZ         0.16567   0.08284   0.08284   0.00000
 300       24PX         0.00097   0.00096   0.00001   0.00095
 301       24PY         0.00175   0.00087   0.00087  -0.00000
 302       24PZ         0.00166   0.00083   0.00083   0.00000
 303       25PX         0.00006   0.00005   0.00000   0.00005
 304       25PY         0.00010   0.00005   0.00005   0.00000
 305       25PZ         0.00009   0.00005   0.00005  -0.00000
 306       26PX         0.00553   0.00598  -0.00044   0.00642
 307       26PY         0.03478   0.01739   0.01739   0.00000
 308       26PZ         0.03029   0.01515   0.01515   0.00000
 309       27D 0        0.00009   0.00004   0.00004  -0.00000
 310       27D+1        0.00004   0.00002   0.00001   0.00001
 311       27D-1        0.00004   0.00002   0.00002   0.00000
 312       27D+2        0.00000   0.00000   0.00000   0.00000
 313       27D-2        0.00000   0.00000   0.00000   0.00000
 314       28D 0        0.00185   0.00093   0.00093   0.00000
 315       28D+1        0.00094   0.00051   0.00043   0.00007
 316       28D-1        0.00097   0.00048   0.00048   0.00000
 317       28D+2        0.00004   0.00002   0.00002   0.00000
 318       28D-2        0.00004   0.00002   0.00002   0.00000
 319       29D 0        0.00381   0.00191   0.00191   0.00000
 320       29D+1        0.00465   0.00233   0.00231   0.00002
 321       29D-1        0.00415   0.00207   0.00207   0.00000
 322       29D+2        0.00042   0.00021   0.00021   0.00000
 323       29D-2        0.00040   0.00020   0.00020   0.00000
 324       30D 0        0.00000   0.00000   0.00000   0.00000
 325       30D+1        0.00000   0.00000   0.00000   0.00000
 326       30D-1        0.00000   0.00000   0.00000   0.00000
 327       30D+2        0.00000   0.00000   0.00000   0.00000
 328       30D-2        0.00000   0.00000   0.00000   0.00000
 329       31D 0       -0.00000  -0.00000  -0.00000   0.00000
 330       31D+1       -0.00000  -0.00000  -0.00000  -0.00000
 331       31D-1       -0.00000  -0.00000  -0.00000   0.00000
 332       31D+2       -0.00000  -0.00000  -0.00000   0.00000
 333       31D-2        0.00000   0.00000   0.00000   0.00000
 334       32D 0       -0.00065  -0.00033  -0.00033   0.00000
 335       32D+1        0.00087   0.00057   0.00030   0.00027
 336       32D-1        0.00126   0.00063   0.00063   0.00000
 337       32D+2       -0.00006  -0.00003  -0.00003   0.00000
 338       32D-2       -0.00007  -0.00004  -0.00004   0.00000
 339       33F 0        0.00003   0.00001   0.00001   0.00000
 340       33F+1        0.00002   0.00001   0.00001   0.00001
 341       33F-1        0.00001   0.00001   0.00001   0.00000
 342       33F+2        0.00000   0.00000   0.00000   0.00000
 343       33F-2        0.00000   0.00000   0.00000   0.00000
 344       33F+3        0.00001   0.00001   0.00000   0.00001
 345       33F-3        0.00000   0.00000   0.00000   0.00000
 346       34F 0        0.00097   0.00048   0.00048   0.00000
 347       34F+1        0.00084   0.00043   0.00041   0.00002
 348       34F-1        0.00071   0.00035   0.00035   0.00000
 349       34F+2        0.00012   0.00006   0.00006   0.00000
 350       34F-2        0.00011   0.00005   0.00005   0.00000
 351       34F+3        0.00004   0.00004   0.00000   0.00004
 352       34F-3        0.00002   0.00001   0.00001   0.00000
 353       35F 0        0.00000   0.00000   0.00000   0.00000
 354       35F+1        0.00000   0.00000   0.00000   0.00000
 355       35F-1        0.00000   0.00000   0.00000  -0.00000
 356       35F+2        0.00000   0.00000   0.00000   0.00000
 357       35F-2        0.00000   0.00000   0.00000   0.00000
 358       35F+3        0.00000   0.00000   0.00000   0.00000
 359       35F-3        0.00000   0.00000   0.00000   0.00000
 360       36F 0        0.00015   0.00008   0.00008   0.00000
 361       36F+1        0.00060   0.00028   0.00032  -0.00004
 362       36F-1        0.00028   0.00014   0.00014   0.00000
 363       36F+2        0.00022   0.00011   0.00011   0.00000
 364       36F-2        0.00021   0.00010   0.00010   0.00000
 365       36F+3        0.00002   0.00002   0.00000   0.00002
 366       36F-3        0.00001   0.00001   0.00001   0.00000
 367       37G 0        0.00004   0.00002   0.00002   0.00000
 368       37G+1        0.00002   0.00001   0.00001  -0.00000
 369       37G-1        0.00003   0.00001   0.00001   0.00000
 370       37G+2        0.00000   0.00000   0.00000   0.00000
 371       37G-2        0.00000   0.00000   0.00000   0.00000
 372       37G+3        0.00000   0.00000   0.00000   0.00000
 373       37G-3        0.00000   0.00000   0.00000   0.00000
 374       37G+4       -0.00000  -0.00000  -0.00000   0.00000
 375       37G-4       -0.00000  -0.00000  -0.00000   0.00000
 376       38G 0        0.00023   0.00012   0.00012   0.00000
 377       38G+1        0.00029   0.00013   0.00016  -0.00002
 378       38G-1        0.00023   0.00012   0.00012   0.00000
 379       38G+2        0.00008   0.00004   0.00004   0.00000
 380       38G-2        0.00008   0.00004   0.00004   0.00000
 381       38G+3        0.00000   0.00000   0.00000   0.00000
 382       38G-3        0.00000   0.00000   0.00000   0.00000
 383       38G+4        0.00000   0.00000   0.00000   0.00000
 384       38G-4        0.00000   0.00000   0.00000   0.00000
          Condensed to atoms (all electrons):
               1          2
     1  Cu  18.166608   0.104908
     2  O    0.104908   6.623575
          Atomic-Atomic Spin Densities.
               1          2
     1  Cu   0.044281  -0.011514
     2  O   -0.011514   0.978746
 Mulliken charges and spin densities:
               1          2
     1  Cu   0.728483   0.032768
     2  O   -0.728483   0.967232
 Sum of Mulliken charges =  -0.00000   1.00000
 Mulliken charges and spin densities with hydrogens summed into heavy atoms:
               1          2
     1  Cu   0.728483   0.032768
     2  O   -0.728483   0.967232
 Electronic spatial extent (au):  <R**2>=             80.9332
 Charge=             -0.0000 electrons
 Dipole moment (field-independent basis, Debye):
    X=              0.0000    Y=              0.0000    Z=              5.2454  Tot=              5.2454
 Quadrupole moment (field-independent basis, Debye-Ang):
   XX=            -15.8265   YY=            -17.3428   ZZ=            -19.4440
   XY=              0.0000   XZ=              0.0000   YZ=              0.0000
 Traceless Quadrupole moment (field-independent basis, Debye-Ang):
   XX=              1.7112   YY=              0.1950   ZZ=             -1.9062
   XY=              0.0000   XZ=              0.0000   YZ=              0.0000
 Octapole moment (field-independent basis, Debye-Ang**2):
  XXX=              0.0000  YYY=              0.0000  ZZZ=             21.5403  XYY=              0.0000
  XXY=              0.0000  XXZ=              3.5461  XZZ=              0.0000  YZZ=              0.0000
  YYZ=              5.1518  XYZ=              0.0000
 Hexadecapole moment (field-independent basis, Debye-Ang**3):
 XXXX=            -13.4854 YYYY=            -16.6618 ZZZZ=            -84.7105 XXXY=              0.0000
 XXXZ=              0.0000 YYYX=              0.0000 YYYZ=              0.0000 ZZZX=              0.0000
 ZZZY=              0.0000 XXYY=             -5.0258 XXZZ=            -13.8071 YYZZ=            -16.4428
 XXYZ=              0.0000 YYXZ=              0.0000 ZZXY=              0.0000
 N-N= 3.770387627805D+01 E-N=-6.005922029925D+02  KE= 1.426554410247D+02
 Symmetry A1   KE= 5.832552839479D+01
 Symmetry A2   KE= 1.899056756527D+01
 Symmetry B1   KE= 3.142545262919D+01
 Symmetry B2   KE= 3.391389243683D+01
 Symmetry A1   SP= 1.308477015931D-16
 Symmetry A2   SP= 0.000000000000D+00
 Symmetry B1   SP= 1.000000000000D+00
 Symmetry B2   SP=-3.489630451748D-18
 Orbital energies and kinetic energies (alpha):
                                 1                 2
   8         O                -0.565299          9.193213
   9         O                -0.529661          9.489755
  10         O                -0.529641          9.495284
  11         O                -0.477927          4.049642
  12         O                -0.421254          4.660832
  13         O                -0.392570          2.743532
  14         V                -0.008547          0.340856
  15         V                 0.026135          0.048972
  16         V                 0.027463          0.058090
  17         V                 0.035873          0.105181
  18         V                 0.045731          0.261289
 Total kinetic energy from orbitals= 1.453989733389D+02
                          Isotropic Fermi Contact Couplings
        Atom                 a.u.       MegaHertz       Gauss      10(-4) cm-1
     1  Cu(63)             0.00000       0.00000       0.00000       0.00000
     2  O(17)              0.00000      -0.00000      -0.00000      -0.00000
 --------------------------------------------------------
       Center         ----  Spin Dipole Couplings  ----
                      3XX-RR        3YY-RR        3ZZ-RR
 --------------------------------------------------------
     1   Atom        0.076725     -0.209154      0.132429
     2   Atom        3.563645     -1.784555     -1.779090
 --------------------------------------------------------
                        XY            XZ            YZ
 --------------------------------------------------------
     1   Atom        0.000000      0.000000      0.000000
     2   Atom        0.000000      0.000000      0.000000
 --------------------------------------------------------


 ---------------------------------------------------------------------------------
              Anisotropic Spin Dipole Couplings in Principal Axis System
 ---------------------------------------------------------------------------------

       Atom             a.u.   MegaHertz   Gauss  10(-4) cm-1        Axes

              Baa    -0.2092   -29.612   -10.566    -9.878 -0.0000  1.0000  0.0000
     1 Cu(63) Bbb     0.0767    10.863     3.876     3.623  1.0000  0.0000  0.0000
              Bcc     0.1324    18.749     6.690     6.254  0.0000  0.0000  1.0000
 
              Baa    -1.7846   129.129    46.076    43.073 -0.0000  1.0000  0.0000
     2 O(17)  Bbb    -1.7791   128.734    45.935    42.941  0.0000  0.0000  1.0000
              Bcc     3.5636  -257.863   -92.012   -86.014  1.0000  0.0000  0.0000
 

 ---------------------------------------------------------------------------------

 No NMR shielding tensors so no spin-rotation constants.
 Leave Link  601 at Mon Mar 26 21:03:01 2018, MaxMem= 10737418240 cpu:             238.4 elap:               7.7
 (Enter /home1/apps/gaussian/16rA.03/g16/l9999.exe)

 Test job not archived.
 1\1\GINC-C474-084\SP\ROCCSD(T)-Full\Gen\Cu1O1(2)\GWANG18\26-Mar-2018\0
 \\#P ROCCSD(T)=(MaxCyc=150, Full)/Gen SCF=(maxcycle=400) Pseudo=Read I
 ntegral(NoXCTest) Pop=Regular MaxDisk=500GB Guess=Read IOp(5/15=2)\\Cu
 O\\0,2\Cu,0,0.,0.,0.\O,0,0.,0.,1.6\\Version=ES64L-G16RevA.03\HF=-211.9
 35986\MP2=-213.2908774\MP3=-213.0773521\PUHF=-211.935986\PMP2-0=-213.2
 908774\MP4SDQ=-213.2494912\CCSD=-213.1702454\CCSD(T)=-213.2209754\RMSD
 =5.690e-09\PG=C*V [C*(O1Cu1)]\\@


 WE TEND TO MEET ANY NEW SITUATION BY REORGANIZING. IT CAN BE A
 WONDERFUL METHOD FOR CREATING THE ILLUSION OF PROGRESS WHILE PRODUCING
 CONFUSION, INEFFICIENCY, AND DEMORALIZATION.
     -- PETRONIUS ARBITER, 210 B.C.
 Job cpu time:       3 days 11 hours 27 minutes 26.8 seconds.
 Elapsed time:       0 days  2 hours 37 minutes 31.4 seconds.
 File lengths (MBytes):  RWF=  16412 Int=      0 D2E=      0 Chk=     19 Scr=      1
 Normal termination of Gaussian 16 at Mon Mar 26 21:03:02 2018.
