 Entering Gaussian System, Link 0=g16
 Initial command:
 /home1/apps/gaussian/16rA.03/g16/l1.exe "/tmp/Gau-276965.inp" -scrdir="/tmp/"
 Entering Link 1 = /home1/apps/gaussian/16rA.03/g16/l1.exe PID=    276966.
  
 Copyright (c) 1988,1990,1992,1993,1995,1998,2003,2009,2016,
            Gaussian, Inc.  All Rights Reserved.
  
 This is part of the Gaussian(R) 16 program.  It is based on
 the Gaussian(R) 09 system (copyright 2009, Gaussian, Inc.),
 the Gaussian(R) 03 system (copyright 2003, Gaussian, Inc.),
 the Gaussian(R) 98 system (copyright 1998, Gaussian, Inc.),
 the Gaussian(R) 94 system (copyright 1995, Gaussian, Inc.),
 the Gaussian 92(TM) system (copyright 1992, Gaussian, Inc.),
 the Gaussian 90(TM) system (copyright 1990, Gaussian, Inc.),
 the Gaussian 88(TM) system (copyright 1988, Gaussian, Inc.),
 the Gaussian 86(TM) system (copyright 1986, Carnegie Mellon
 University), and the Gaussian 82(TM) system (copyright 1983,
 Carnegie Mellon University). Gaussian is a federally registered
 trademark of Gaussian, Inc.
  
 This software contains proprietary and confidential information,
 including trade secrets, belonging to Gaussian, Inc.
  
 This software is provided under written license and may be
 used, copied, transmitted, or stored only in accord with that
 written license.
  
 The following legend is applicable only to US Government
 contracts under FAR:
  
                    RESTRICTED RIGHTS LEGEND
  
 Use, reproduction and disclosure by the US Government is
 subject to restrictions as set forth in subparagraphs (a)
 and (c) of the Commercial Computer Software - Restricted
 Rights clause in FAR 52.227-19.
  
 Gaussian, Inc.
 340 Quinnipiac St., Bldg. 40, Wallingford CT 06492
  
  
 ---------------------------------------------------------------
 Warning -- This program may not be used in any manner that
 competes with the business of Gaussian, Inc. or will provide
 assistance to any competitor of Gaussian, Inc.  The licensee
 of this program is prohibited from giving any competitor of
 Gaussian, Inc. access to this program.  By using this program,
 the user acknowledges that Gaussian, Inc. is engaged in the
 business of creating and licensing software in the field of
 computational chemistry and represents and warrants to the
 licensee that it is not a competitor of Gaussian, Inc. and that
 it will not use this program in any manner prohibited above.
 ---------------------------------------------------------------
  

 Cite this work as:
 Gaussian 16, Revision A.03,
 M. J. Frisch, G. W. Trucks, H. B. Schlegel, G. E. Scuseria, 
 M. A. Robb, J. R. Cheeseman, G. Scalmani, V. Barone, 
 G. A. Petersson, H. Nakatsuji, X. Li, M. Caricato, A. V. Marenich, 
 J. Bloino, B. G. Janesko, R. Gomperts, B. Mennucci, H. P. Hratchian, 
 J. V. Ortiz, A. F. Izmaylov, J. L. Sonnenberg, D. Williams-Young, 
 F. Ding, F. Lipparini, F. Egidi, J. Goings, B. Peng, A. Petrone, 
 T. Henderson, D. Ranasinghe, V. G. Zakrzewski, J. Gao, N. Rega, 
 G. Zheng, W. Liang, M. Hada, M. Ehara, K. Toyota, R. Fukuda, 
 J. Hasegawa, M. Ishida, T. Nakajima, Y. Honda, O. Kitao, H. Nakai, 
 T. Vreven, K. Throssell, J. A. Montgomery, Jr., J. E. Peralta, 
 F. Ogliaro, M. J. Bearpark, J. J. Heyd, E. N. Brothers, K. N. Kudin, 
 V. N. Staroverov, T. A. Keith, R. Kobayashi, J. Normand, 
 K. Raghavachari, A. P. Rendell, J. C. Burant, S. S. Iyengar, 
 J. Tomasi, M. Cossi, J. M. Millam, M. Klene, C. Adamo, R. Cammi, 
 J. W. Ochterski, R. L. Martin, K. Morokuma, O. Farkas, 
 J. B. Foresman, and D. J. Fox, Gaussian, Inc., Wallingford CT, 2016.
 
 ******************************************
 Gaussian 16:  ES64L-G16RevA.03 25-Dec-2016
                 4-Apr-2018 
 ******************************************
 %MEM=80GB
 %CPU=0-19
 SetSPE:  set environment variable "MP_BIND" = "yes"
 SetSPE:  set environment variable "MP_BLIST" = "0,1,2,3,4,5,6,7,8,9,10,11,12,13,14,15,16,17,18,19"
 Will use up to   20 processors via shared memory.
 %RWF=/scratch/04843/aannabe/gaussian/
 %Int=/scratch/04843/aannabe/gaussian/
 %D2E=/scratch/04843/aannabe/gaussian/
 %NoSave
 %CHK=MnH
 ----------------------------------------------------------------------
 #P ROCCSD(T)=(maxcyc=150, Full, SaveAmplitudes, ReadAmplitudes)/Gen 5d
  7f SCF=(maxcycles=300, VShift=400) Integral(NoXCTest) MaxDisk=500GB P
 op=Full Pseudo=Read Guess=Read
 ----------------------------------------------------------------------
 1/38=1,172=1/1;
 2/12=2,17=6,18=5,40=1/2;
 3/5=7,8=11,11=2,16=1,17=8,25=1,30=1,47=8,116=101/1,2,3;
 4/5=1/1;
 5/5=2,7=300,10=400,38=6/2;
 8/5=-1,6=4,9=120000,10=90,24=1/1,4;
 9/5=7,6=150,14=2,77=1/13;
 6/7=3/1;
 99/5=1,9=1/99;
 Leave Link    1 at Wed Apr  4 09:13:56 2018, MaxMem= 10737418240 cpu:               4.8 elap:               0.3
 (Enter /home1/apps/gaussian/16rA.03/g16/l101.exe)
 ---
 MnH
 ---
 Symbolic Z-matrix:
 Charge =  0 Multiplicity = 7
 Mn                    0.        0.        0. 
 H                     0.        0.        1.6 
 
 ITRead=  0  0
 MicOpt= -1 -1
 NAtoms=      2 NQM=        2 NQMF=       0 NMMI=      0 NMMIF=      0
                NMic=       0 NMicF=      0.
                    Isotopes and Nuclear Properties:
 (Nuclear quadrupole moments (NQMom) in fm**2, nuclear magnetic moments (NMagM)
  in nuclear magnetons)

  Atom         1           2
 IAtWgt=          55           1
 AtmWgt=  54.9380463   1.0078250
 NucSpn=           5           1
 AtZEff=  -0.0000000  -0.0000000
 NQMom=   33.0000000   0.0000000
 NMagM=    3.4532000   2.7928460
 AtZNuc=  25.0000000   1.0000000
 Leave Link  101 at Wed Apr  4 09:13:56 2018, MaxMem= 10737418240 cpu:               1.9 elap:               0.1
 (Enter /home1/apps/gaussian/16rA.03/g16/l202.exe)
                          Input orientation:                          
 ---------------------------------------------------------------------
 Center     Atomic      Atomic             Coordinates (Angstroms)
 Number     Number       Type             X           Y           Z
 ---------------------------------------------------------------------
      1         25           0        0.000000    0.000000    0.000000
      2          1           0        0.000000    0.000000    1.600000
 ---------------------------------------------------------------------
 Stoichiometry    HMn(7)
 Framework group  C*V[C*(HMn)]
 Deg. of freedom     1
 Full point group                 C*V     NOp   4
 Largest Abelian subgroup         C2V     NOp   4
 Largest concise Abelian subgroup C1      NOp   1
                         Standard orientation:                         
 ---------------------------------------------------------------------
 Center     Atomic      Atomic             Coordinates (Angstroms)
 Number     Number       Type             X           Y           Z
 ---------------------------------------------------------------------
      1         25           0        0.000000    0.000000    0.061538
      2          1           0        0.000000    0.000000   -1.538462
 ---------------------------------------------------------------------
 Rotational constants (GHZ):           0.0000000         199.4742874         199.4742874
 Leave Link  202 at Wed Apr  4 09:13:56 2018, MaxMem= 10737418240 cpu:               0.4 elap:               0.1
 (Enter /home1/apps/gaussian/16rA.03/g16/l301.exe)
 General basis read from cards:  (5D, 7F)
 Centers:       1
 S 1 1.00
     Exponent=  3.8448140000D+04 Coefficients=  1.0000000000D+00
 S 1 1.00
     Exponent=  1.3881710000D+04 Coefficients=  1.0000000000D+00
 S 1 1.00
     Exponent=  5.4150020000D+03 Coefficients=  1.0000000000D+00
 S 1 1.00
     Exponent=  2.2464600000D+03 Coefficients=  1.0000000000D+00
 S 1 1.00
     Exponent=  9.8014630000D+02 Coefficients=  1.0000000000D+00
 S 1 1.00
     Exponent=  4.4589520000D+02 Coefficients=  1.0000000000D+00
 S 1 1.00
     Exponent=  2.1005580000D+02 Coefficients=  1.0000000000D+00
 S 1 1.00
     Exponent=  1.0180460000D+02 Coefficients=  1.0000000000D+00
 S 1 1.00
     Exponent=  5.0011260000D+01 Coefficients=  1.0000000000D+00
 S 1 1.00
     Exponent=  2.2939390000D+01 Coefficients=  1.0000000000D+00
 S 1 1.00
     Exponent=  1.1522640000D+01 Coefficients=  1.0000000000D+00
 S 1 1.00
     Exponent=  5.7763380000D+00 Coefficients=  1.0000000000D+00
 S 1 1.00
     Exponent=  2.6259590000D+00 Coefficients=  1.0000000000D+00
 S 1 1.00
     Exponent=  1.2603220000D+00 Coefficients=  1.0000000000D+00
 S 1 1.00
     Exponent=  5.7713000000D-01 Coefficients=  1.0000000000D+00
 S 1 1.00
     Exponent=  1.3658200000D-01 Coefficients=  1.0000000000D+00
 S 1 1.00
     Exponent=  6.3535000000D-02 Coefficients=  1.0000000000D+00
 S 1 1.00
     Exponent=  2.8521000000D-02 Coefficients=  1.0000000000D+00
 S 1 1.00
     Exponent=  5.3389000000D+00 Coefficients=  1.0000000000D+00
 S 1 1.00
     Exponent=  1.6013000000D+00 Coefficients=  1.0000000000D+00
 S 1 1.00
     Exponent=  1.2800000000D-02 Coefficients=  1.0000000000D+00
 P 1 1.00
     Exponent=  2.6884650000D+03 Coefficients=  1.0000000000D+00
 P 1 1.00
     Exponent=  1.0294900000D+03 Coefficients=  1.0000000000D+00
 P 1 1.00
     Exponent=  4.3807080000D+02 Coefficients=  1.0000000000D+00
 P 1 1.00
     Exponent=  2.0061530000D+02 Coefficients=  1.0000000000D+00
 P 1 1.00
     Exponent=  9.7007690000D+01 Coefficients=  1.0000000000D+00
 P 1 1.00
     Exponent=  4.8870520000D+01 Coefficients=  1.0000000000D+00
 P 1 1.00
     Exponent=  2.5292810000D+01 Coefficients=  1.0000000000D+00
 P 1 1.00
     Exponent=  1.3353820000D+01 Coefficients=  1.0000000000D+00
 P 1 1.00
     Exponent=  7.1317860000D+00 Coefficients=  1.0000000000D+00
 P 1 1.00
     Exponent=  3.7643650000D+00 Coefficients=  1.0000000000D+00
 P 1 1.00
     Exponent=  1.9462650000D+00 Coefficients=  1.0000000000D+00
 P 1 1.00
     Exponent=  9.8545500000D-01 Coefficients=  1.0000000000D+00
 P 1 1.00
     Exponent=  4.8186500000D-01 Coefficients=  1.0000000000D+00
 P 1 1.00
     Exponent=  1.8822219000D-01 Coefficients=  1.0000000000D+00
 P 1 1.00
     Exponent=  7.7539570000D-02 Coefficients=  1.0000000000D+00
 P 1 1.00
     Exponent=  3.1549450000D-02 Coefficients=  1.0000000000D+00
 P 1 1.00
     Exponent=  7.3423000000D+00 Coefficients=  1.0000000000D+00
 P 1 1.00
     Exponent=  1.9340000000D+00 Coefficients=  1.0000000000D+00
 P 1 1.00
     Exponent=  1.2840000000D-02 Coefficients=  1.0000000000D+00
 D 1 1.00
     Exponent=  3.1310900000D+02 Coefficients=  1.0000000000D+00
 D 1 1.00
     Exponent=  9.2527600000D+01 Coefficients=  1.0000000000D+00
 D 1 1.00
     Exponent=  3.5419100000D+01 Coefficients=  1.0000000000D+00
 D 1 1.00
     Exponent=  1.5157700000D+01 Coefficients=  1.0000000000D+00
 D 1 1.00
     Exponent=  6.9096400000D+00 Coefficients=  1.0000000000D+00
 D 1 1.00
     Exponent=  3.2725600000D+00 Coefficients=  1.0000000000D+00
 D 1 1.00
     Exponent=  1.5493600000D+00 Coefficients=  1.0000000000D+00
 D 1 1.00
     Exponent=  7.1709400000D-01 Coefficients=  1.0000000000D+00
 D 1 1.00
     Exponent=  3.1931000000D-01 Coefficients=  1.0000000000D+00
 D 1 1.00
     Exponent=  1.3415700000D-01 Coefficients=  1.0000000000D+00
 D 1 1.00
     Exponent=  5.1400000000D-02 Coefficients=  1.0000000000D+00
 D 1 1.00
     Exponent=  4.6851000000D+00 Coefficients=  1.0000000000D+00
 D 1 1.00
     Exponent=  2.4217000000D+00 Coefficients=  1.0000000000D+00
 D 1 1.00
     Exponent=  1.9690000000D-02 Coefficients=  1.0000000000D+00
 F 1 1.00
     Exponent=  6.6540000000D+00 Coefficients=  1.0000000000D+00
 F 1 1.00
     Exponent=  2.7676000000D+00 Coefficients=  1.0000000000D+00
 F 1 1.00
     Exponent=  1.1511000000D+00 Coefficients=  1.0000000000D+00
 F 1 1.00
     Exponent=  3.8120000000D-01 Coefficients=  1.0000000000D+00
 F 1 1.00
     Exponent=  1.2624000000D-01 Coefficients=  1.0000000000D+00
 G 1 1.00
     Exponent=  5.4683000000D+00 Coefficients=  1.0000000000D+00
 G 1 1.00
     Exponent=  2.3327000000D+00 Coefficients=  1.0000000000D+00
 G 1 1.00
     Exponent=  8.5200000000D-01 Coefficients=  1.0000000000D+00
 G 1 1.00
     Exponent=  3.1119000000D-01 Coefficients=  1.0000000000D+00
 H 1 1.00
     Exponent=  5.1185000000D+00 Coefficients=  1.0000000000D+00
 H 1 1.00
     Exponent=  1.9660000000D+00 Coefficients=  1.0000000000D+00
 H 1 1.00
     Exponent=  7.5513000000D-01 Coefficients=  1.0000000000D+00
 ****
 Centers:       2
 S 1 1.00
     Exponent=  8.2640000000D+01 Coefficients=  1.0000000000D+00
 S 1 1.00
     Exponent=  1.2410000000D+01 Coefficients=  1.0000000000D+00
 S 1 1.00
     Exponent=  2.8240000000D+00 Coefficients=  1.0000000000D+00
 S 1 1.00
     Exponent=  7.9770000000D-01 Coefficients=  1.0000000000D+00
 S 1 1.00
     Exponent=  2.5810000000D-01 Coefficients=  1.0000000000D+00
 S 1 1.00
     Exponent=  8.9890000000D-02 Coefficients=  1.0000000000D+00
 S 1 1.00
     Exponent=  2.3630000000D-02 Coefficients=  1.0000000000D+00
 P 1 1.00
     Exponent=  2.2920000000D+00 Coefficients=  1.0000000000D+00
 P 1 1.00
     Exponent=  8.3800000000D-01 Coefficients=  1.0000000000D+00
 P 1 1.00
     Exponent=  2.9200000000D-01 Coefficients=  1.0000000000D+00
 P 1 1.00
     Exponent=  8.4800000000D-02 Coefficients=  1.0000000000D+00
 D 1 1.00
     Exponent=  2.0620000000D+00 Coefficients=  1.0000000000D+00
 D 1 1.00
     Exponent=  6.6200000000D-01 Coefficients=  1.0000000000D+00
 D 1 1.00
     Exponent=  1.9000000000D-01 Coefficients=  1.0000000000D+00
 F 1 1.00
     Exponent=  1.3970000000D+00 Coefficients=  1.0000000000D+00
 F 1 1.00
     Exponent=  3.6000000000D-01 Coefficients=  1.0000000000D+00
 ****
 ======================================================================================================
                                       Pseudopotential Parameters
 ======================================================================================================
  Center     Atomic      Valence      Angular      Power
  Number     Number     Electrons     Momentum     of R      Exponent        Coefficient   SO-Coeffient
 ======================================================================================================
    1         25           15
                                      D and up 
                                                     1       21.5539028       15.00000000    0.00000000
                                                     3       21.4715811      323.30854272    0.00000000
                                                     2       21.2730185     -161.98213395    0.00000000
                                                     2        7.6156466       -2.33888749    0.00000000
                                      S - D
                                                     2       19.0364190      245.43993397    0.00000000
                                                     2        8.3205574       34.00254981    0.00000000
                                      P - D
                                                     2       20.3136120      162.80829146    0.00000000
                                                     2        7.8000821       24.40767451    0.00000000
    2          1            1
                                      P and up 
                                                     2       21.7769666      -10.85192405    0.00000000
                                                     1       21.2435951        1.00000000    0.00000000
                                                     3       21.2435951       21.24359508    0.00000000
                                      S - P
                                                     2        1.0000000        0.00000000    0.00000000
 ======================================================================================================
 Ernie: Thresh=  0.10000D-02 Tol=  0.10000D-05 Strict=F.
 There are   165 symmetry adapted cartesian basis functions of A1  symmetry.
 There are    45 symmetry adapted cartesian basis functions of A2  symmetry.
 There are    91 symmetry adapted cartesian basis functions of B1  symmetry.
 There are    91 symmetry adapted cartesian basis functions of B2  symmetry.
 There are   120 symmetry adapted basis functions of A1  symmetry.
 There are    38 symmetry adapted basis functions of A2  symmetry.
 There are    71 symmetry adapted basis functions of B1  symmetry.
 There are    71 symmetry adapted basis functions of B2  symmetry.
   300 basis functions,   392 primitive gaussians,   392 cartesian basis functions
    11 alpha electrons        5 beta electrons
       nuclear repulsion energy         4.9610363524 Hartrees.
 IExCor=    0 DFT=F Ex=HF Corr=None ExCW=0 ScaHFX=  1.000000
 ScaDFX=  1.000000  1.000000  1.000000  1.000000 ScalE2=  1.000000  1.000000
 IRadAn=      5 IRanWt=     -1 IRanGd=            0 ICorTp=0 IEmpDi=  4
 NAtoms=    2 NActive=    2 NUniq=    2 SFac= 1.00D+00 NAtFMM=   60 NAOKFM=F Big=F
 Integral buffers will be    131072 words long.
 Raffenetti 2 integral format.
 Two-electron integral symmetry is turned on.
 Leave Link  301 at Wed Apr  4 09:13:57 2018, MaxMem= 10737418240 cpu:               5.0 elap:               0.3
 (Enter /home1/apps/gaussian/16rA.03/g16/l302.exe)
 NPDir=0 NMtPBC=     1 NCelOv=     1 NCel=       1 NClECP=     1 NCelD=      1
         NCelK=      1 NCelE2=     1 NClLst=     1 CellRange=     0.0.
 One-electron integrals computed using PRISM.
 One-electron integral symmetry used in STVInt
   4 Symmetry operations used in ECPInt.
 ECPInt:  NShTT=    3403 NPrTT=    3403 LenC2=    3361 LenP2D=    3360.
 LDataN:  DoStor=T MaxTD1=10 Len=  848
 NBasis=   300 RedAO= T EigKep=  1.42D-05  NBF=   120    38    71    71
 NBsUse=   293 1.00D-06 EigRej=  3.91D-07 NBFU=   117    38    69    69
 Leave Link  302 at Wed Apr  4 09:13:59 2018, MaxMem= 10737418240 cpu:              46.6 elap:               2.4
 (Enter /home1/apps/gaussian/16rA.03/g16/l303.exe)
 DipDrv:  MaxL=1.
 Leave Link  303 at Wed Apr  4 09:13:59 2018, MaxMem= 10737418240 cpu:               1.7 elap:               0.2
 (Enter /home1/apps/gaussian/16rA.03/g16/l401.exe)
 Initial guess from the checkpoint file:  "MnH.chk"
 B after Tr=     0.000000    0.000000    0.000000
         Rot=    1.000000    0.000000    0.000000    0.000000 Ang=   0.00 deg.
 Guess basis will be translated and rotated to current coordinates.
 JPrj=2 DoOrth=T DoCkMO=T.
 Initial guess orbital symmetries:
       Occupied  (SG) (PI) (PI) (SG) (SG) (DLTA) (DLTA) (PI) (PI)
                 (SG) (SG)
       Virtual   (PI) (PI) (SG) (SG) (PI) (PI) (DLTA) (DLTA) (SG)
                 (PI) (PI) (SG) (SG) (SG) (PI) (PI) (SG) (DLTA)
                 (DLTA) (PI) (PI) (PI) (PI) (SG) (SG) (SG) (SG)
                 (DLTA) (DLTA) (PHI) (PHI) (PI) (PI) (PI) (PI)
                 (SG) (SG) (DLTA) (DLTA) (PI) (PI) (SG) (DLTA)
                 (DLTA) (PI) (PI) (SG) (PI) (PI) (SG) (SG) (PHI)
                 (PHI) (DLTA) (DLTA) (PI) (PI) (SG) (PI) (PI) (SG)
                 (?A) (?A) (PHI) (PHI) (SG) (PI) (PI) (DLTA) (DLTA)
                 (DLTA) (DLTA) (SG) (PI) (PI) (SG) (DLTA) (DLTA)
                 (PI) (PI) (PI) (PI) (SG) (SG) (SG) (PHI) (PHI)
                 (DLTA) (DLTA) (PI) (PI) (DLTA) (DLTA) (SG) (PI)
                 (PI) (SG) (PI) (PI) (SG) (?A) (?A) (PHI) (PHI)
                 (DLTA) (DLTA) (PI) (PI) (SG) (SG) (SG) (DLTA)
                 (DLTA) (PI) (PI) (SG) (PHI) (PHI) (DLTA) (DLTA)
                 (PI) (PI) (PI) (PI) (SG) (SG) (?A) (?A) (PHI)
                 (PHI) (DLTA) (DLTA) (PI) (PI) (SG) (DLTA) (DLTA)
                 (PI) (PI) (SG) (SG) (PI) (PI) (SG) (DLTA) (DLTA)
                 (PI) (PI) (SG) (SG) (SG) (PI) (PI) (SG) (DLTA)
                 (DLTA) (PI) (PI) (SG) (SG) (PI) (PI) (SG) (SG)
                 (PI) (PI) (SG) (SG) (DLTA) (DLTA) (PI) (PI) (SG)
                 (PI) (PI) (SG) (SG) (PI) (PI) (SG) (SG) (PI) (PI)
                 (SG) (SG) (PI) (PI) (SG) (SG) (PI) (PI) (SG) (SG)
                 (SG) (DLTA) (SG) (DLTA) (SG) (SG) (SG) (SG) (DLTA)
                 (SG) (SG) (DLTA) (SG) (DLTA) (SG) (?A) (DLTA)
                 (SG) (SG) (DLTA) (?A) (DLTA) (SG) (DLTA) (SG)
                 (DLTA) (DLTA) (SG) (?A) (?A) (DLTA) (DLTA) (DLTA)
                 (DLTA) (DLTA) (?A) (DLTA) (DLTA) (?A) (DLTA) (DLTA)
                 (DLTA) (DLTA) (?A) (?A) (PI) (PI) (PI) (PI) (PHI)
                 (PI) (PI) (PI) (PHI) (PI) (PHI) (PI) (?B) (PHI)
                 (PI) (PI) (PHI) (PI) (PHI) (?B) (PHI) (?B) (PI)
                 (PI) (PI) (PI) (PHI) (PI) (PI) (PI) (PHI) (PI)
                 (PHI) (PI) (?B) (PHI) (PI) (PI) (PHI) (PI) (PHI)
                 (?B) (PHI) (?B)
 The electronic state of the initial guess is 7-SG.
 Leave Link  401 at Wed Apr  4 09:14:00 2018, MaxMem= 10737418240 cpu:               9.9 elap:               0.6
 (Enter /home1/apps/gaussian/16rA.03/g16/l502.exe)
 Keep R1 and R2 ints in memory in symmetry-blocked form, NReq=1277319642.
 FoFCou: FMM=F IPFlag=           8 FMFlag=           0 FMFlg1=           0
         NFxFlg=           0 DoJE=F BraDBF=F KetDBF=F FulRan=T
         wScrn=  0.000000 ICntrl=       600 IOpCl=  0 I1Cent=           0 NGrid=           0
         NMat0=    1 NMatS0=  45150 NMatT0=    0 NMatD0=    1 NMtDS0=    0 NMtDT0=    0
 Petite list used in FoFCou.
 Restricted open shell SCF:
 Using DIIS extrapolation, IDIIS=  1040.
 NGot= 10737418240 LenX= 10221134814 LenY= 10220980709
 Requested convergence on RMS density matrix=1.00D-08 within 300 cycles.
 Requested convergence on MAX density matrix=1.00D-06.
 Requested convergence on             energy=1.00D-06.
 Virtual orbitals will be shifted by   0.400 hartree.
 No special actions if energy rises.

 Cycle   1  Pass 1  IDiag  1:
 E= -104.249159262120    
 DIIS: error= 1.55D-01 at cycle   1 NSaved=   1.
 NSaved= 1 IEnMin= 1 EnMin= -104.249159262120     IErMin= 1 ErrMin= 1.55D-01
 ErrMax= 1.55D-01  0.00D+00 EMaxC= 1.00D-01 BMatC= 1.95D+00 BMatP= 1.95D+00
 IDIUse=3 WtCom= 0.00D+00 WtEn= 1.00D+00
 Coeff-Com:  0.100D+01
 Coeff-En:   0.100D+01
 Coeff:      0.100D+01
 Gap=     0.072 Goal=   None    Shift=    0.400
 GapD=    0.072 DampG=0.500 DampE=0.125 DampFc=0.1250 IDamp=-1.
 Damping current iteration by 1.25D-01
 RMSDP=1.01D-03 MaxDP=1.00D-01              OVMax= 1.72D-03

 Cycle   2  Pass 1  IDiag  1:
 E= -104.249194106981     Delta-E=       -0.000034844862 Rises=F Damp=T
 DIIS: error= 1.36D-01 at cycle   2 NSaved=   2.
 NSaved= 2 IEnMin= 2 EnMin= -104.249194106981     IErMin= 2 ErrMin= 1.36D-01
 ErrMax= 1.36D-01  0.00D+00 EMaxC= 1.00D-01 BMatC= 1.49D+00 BMatP= 1.95D+00
 IDIUse=3 WtCom= 0.00D+00 WtEn= 1.00D+00
 Coeff-Com: -0.700D+01 0.800D+01
 Coeff-En:   0.000D+00 0.100D+01
 Coeff:      0.000D+00 0.100D+01
 Gap=     0.071 Goal=   None    Shift=    0.400
 RMSDP=9.19D-04 MaxDP=8.96D-02 DE=-3.48D-05 OVMax= 3.99D-04

 Cycle   3  Pass 1  IDiag  1:
 E= -104.249443818359     Delta-E=       -0.000249711378 Rises=F Damp=F
 DIIS: error= 1.99D-04 at cycle   3 NSaved=   3.
 NSaved= 3 IEnMin= 3 EnMin= -104.249443818359     IErMin= 3 ErrMin= 1.99D-04
 ErrMax= 1.99D-04  0.00D+00 EMaxC= 1.00D-01 BMatC= 1.60D-06 BMatP= 1.49D+00
 IDIUse=3 WtCom= 9.98D-01 WtEn= 1.99D-03
 Coeff-Com: -0.465D+00 0.532D+00 0.934D+00
 Coeff-En:   0.000D+00 0.000D+00 0.100D+01
 Coeff:     -0.464D+00 0.531D+00 0.934D+00
 Gap=     0.071 Goal=   None    Shift=    0.400
 RMSDP=5.05D-05 MaxDP=4.71D-03 DE=-2.50D-04 OVMax= 2.67D-04

 Cycle   4  Pass 1  IDiag  1:
 E= -104.249443956284     Delta-E=       -0.000000137925 Rises=F Damp=F
 DIIS: error= 8.98D-05 at cycle   4 NSaved=   4.
 NSaved= 4 IEnMin= 4 EnMin= -104.249443956284     IErMin= 4 ErrMin= 8.98D-05
 ErrMax= 8.98D-05  0.00D+00 EMaxC= 1.00D-01 BMatC= 7.60D-07 BMatP= 1.60D-06
 IDIUse=1 WtCom= 1.00D+00 WtEn= 0.00D+00
 Coeff-Com: -0.464D+00 0.531D+00-0.167D+00 0.110D+01
 Coeff:     -0.464D+00 0.531D+00-0.167D+00 0.110D+01
 Gap=     0.071 Goal=   None    Shift=    0.400
 RMSDP=1.72D-05 MaxDP=1.78D-03 DE=-1.38D-07 OVMax= 1.09D-04

 Cycle   5  Pass 1  IDiag  1:
 E= -104.249444066587     Delta-E=       -0.000000110302 Rises=F Damp=F
 DIIS: error= 8.76D-05 at cycle   5 NSaved=   5.
 NSaved= 5 IEnMin= 5 EnMin= -104.249444066587     IErMin= 5 ErrMin= 8.76D-05
 ErrMax= 8.76D-05  0.00D+00 EMaxC= 1.00D-01 BMatC= 6.76D-07 BMatP= 7.60D-07
 IDIUse=1 WtCom= 1.00D+00 WtEn= 0.00D+00
 Coeff-Com: -0.448D+00 0.512D+00-0.150D+00 0.120D+00 0.966D+00
 Coeff:     -0.448D+00 0.512D+00-0.150D+00 0.120D+00 0.966D+00
 Gap=     0.071 Goal=   None    Shift=    0.400
 RMSDP=6.31D-06 MaxDP=6.45D-04 DE=-1.10D-07 OVMax= 4.71D-05

 Cycle   6  Pass 1  IDiag  1:
 E= -104.249444099983     Delta-E=       -0.000000033397 Rises=F Damp=F
 DIIS: error= 8.46D-05 at cycle   6 NSaved=   6.
 NSaved= 6 IEnMin= 6 EnMin= -104.249444099983     IErMin= 6 ErrMin= 8.46D-05
 ErrMax= 8.46D-05  0.00D+00 EMaxC= 1.00D-01 BMatC= 6.28D-07 BMatP= 6.76D-07
 IDIUse=1 WtCom= 1.00D+00 WtEn= 0.00D+00
 Coeff-Com: -0.427D+00 0.488D+00-0.898D-01-0.308D+00 0.157D+00 0.118D+01
 Coeff:     -0.427D+00 0.488D+00-0.898D-01-0.308D+00 0.157D+00 0.118D+01
 Gap=     0.071 Goal=   None    Shift=    0.400
 RMSDP=2.99D-06 MaxDP=2.90D-04 DE=-3.34D-08 OVMax= 2.62D-05

 Cycle   7  Pass 1  IDiag  1:
 E= -104.249444114606     Delta-E=       -0.000000014623 Rises=F Damp=F
 DIIS: error= 8.06D-05 at cycle   7 NSaved=   7.
 NSaved= 7 IEnMin= 7 EnMin= -104.249444114606     IErMin= 7 ErrMin= 8.06D-05
 ErrMax= 8.06D-05  0.00D+00 EMaxC= 1.00D-01 BMatC= 5.85D-07 BMatP= 6.28D-07
 IDIUse=1 WtCom= 1.00D+00 WtEn= 0.00D+00
 Coeff-Com: -0.418D+00 0.477D+00-0.799D-01-0.237D+00 0.757D-02 0.585D+00
 Coeff-Com:  0.664D+00
 Coeff:     -0.418D+00 0.477D+00-0.799D-01-0.237D+00 0.757D-02 0.585D+00
 Coeff:      0.664D+00
 Gap=     0.071 Goal=   None    Shift=    0.400
 RMSDP=1.22D-06 MaxDP=1.02D-04 DE=-1.46D-08 OVMax= 1.16D-05

 Cycle   8  Pass 1  IDiag  1:
 E= -104.249444131993     Delta-E=       -0.000000017387 Rises=F Damp=F
 DIIS: error= 7.89D-05 at cycle   8 NSaved=   8.
 NSaved= 8 IEnMin= 8 EnMin= -104.249444131993     IErMin= 8 ErrMin= 7.89D-05
 ErrMax= 7.89D-05  0.00D+00 EMaxC= 1.00D-01 BMatC= 5.59D-07 BMatP= 5.85D-07
 IDIUse=1 WtCom= 1.00D+00 WtEn= 0.00D+00
 Coeff-Com: -0.403D+00 0.461D+00-0.834D-01-0.177D+00 0.865D-01 0.740D+00
 Coeff-Com: -0.181D+01 0.219D+01
 Coeff:     -0.403D+00 0.461D+00-0.834D-01-0.177D+00 0.865D-01 0.740D+00
 Coeff:     -0.181D+01 0.219D+01
 Gap=     0.071 Goal=   None    Shift=    0.400
 RMSDP=8.62D-07 MaxDP=5.36D-05 DE=-1.74D-08 OVMax= 9.53D-06

 Cycle   9  Pass 1  IDiag  1:
 E= -104.249444151317     Delta-E=       -0.000000019324 Rises=F Damp=F
 DIIS: error= 7.62D-05 at cycle   9 NSaved=   9.
 NSaved= 9 IEnMin= 9 EnMin= -104.249444151317     IErMin= 9 ErrMin= 7.62D-05
 ErrMax= 7.62D-05  0.00D+00 EMaxC= 1.00D-01 BMatC= 5.25D-07 BMatP= 5.59D-07
 IDIUse=1 WtCom= 1.00D+00 WtEn= 0.00D+00
 Coeff-Com: -0.369D+00 0.422D+00-0.745D-01-0.229D+00 0.214D+00 0.104D+01
 Coeff-Com: -0.168D+01-0.185D+01 0.352D+01
 Coeff:     -0.369D+00 0.422D+00-0.745D-01-0.229D+00 0.214D+00 0.104D+01
 Coeff:     -0.168D+01-0.185D+01 0.352D+01
 Gap=     0.071 Goal=   None    Shift=    0.400
 RMSDP=1.54D-06 MaxDP=1.05D-04 DE=-1.93D-08 OVMax= 1.67D-05

 Cycle  10  Pass 1  IDiag  1:
 E= -104.249444187002     Delta-E=       -0.000000035685 Rises=F Damp=F
 DIIS: error= 7.08D-05 at cycle  10 NSaved=  10.
 NSaved=10 IEnMin=10 EnMin= -104.249444187002     IErMin=10 ErrMin= 7.08D-05
 ErrMax= 7.08D-05  0.00D+00 EMaxC= 1.00D-01 BMatC= 4.55D-07 BMatP= 5.25D-07
 IDIUse=1 WtCom= 1.00D+00 WtEn= 0.00D+00
 Coeff-Com: -0.346D+00 0.395D+00-0.648D-01-0.283D+00 0.278D+00 0.128D+01
 Coeff-Com: -0.169D+01-0.269D+01 0.335D+01 0.776D+00
 Coeff:     -0.346D+00 0.395D+00-0.648D-01-0.283D+00 0.278D+00 0.128D+01
 Coeff:     -0.169D+01-0.269D+01 0.335D+01 0.776D+00
 Gap=     0.071 Goal=   None    Shift=    0.400
 RMSDP=1.48D-06 MaxDP=1.03D-04 DE=-3.57D-08 OVMax= 1.70D-05

 Cycle  11  Pass 1  IDiag  1:
 E= -104.249444219732     Delta-E=       -0.000000032730 Rises=F Damp=F
 DIIS: error= 6.64D-05 at cycle  11 NSaved=  11.
 NSaved=11 IEnMin=11 EnMin= -104.249444219732     IErMin=11 ErrMin= 6.64D-05
 ErrMax= 6.64D-05  0.00D+00 EMaxC= 1.00D-01 BMatC= 4.01D-07 BMatP= 4.55D-07
 IDIUse=1 WtCom= 1.00D+00 WtEn= 0.00D+00
 Coeff-Com: -0.267D+00 0.305D+00-0.532D-01-0.285D+00 0.324D+00 0.155D+01
 Coeff-Com: -0.261D+01-0.622D+00 0.243D+01-0.467D+01 0.489D+01
 Coeff:     -0.267D+00 0.305D+00-0.532D-01-0.285D+00 0.324D+00 0.155D+01
 Coeff:     -0.261D+01-0.622D+00 0.243D+01-0.467D+01 0.489D+01
 Gap=     0.071 Goal=   None    Shift=    0.400
 RMSDP=3.45D-06 MaxDP=2.38D-04 DE=-3.27D-08 OVMax= 3.75D-05

 Cycle  12  Pass 1  IDiag  1:
 E= -104.249444288393     Delta-E=       -0.000000068661 Rises=F Damp=F
 DIIS: error= 5.60D-05 at cycle  12 NSaved=  12.
 NSaved=12 IEnMin=12 EnMin= -104.249444288393     IErMin=12 ErrMin= 5.60D-05
 ErrMax= 5.60D-05  0.00D+00 EMaxC= 1.00D-01 BMatC= 2.71D-07 BMatP= 4.01D-07
 IDIUse=1 WtCom= 1.00D+00 WtEn= 0.00D+00
 Coeff-Com: -0.221D+00 0.253D+00-0.454D-01-0.227D+00 0.307D+00 0.161D+01
 Coeff-Com: -0.481D+01 0.373D+01 0.280D+01-0.954D+01 0.590D+01 0.123D+01
 Coeff:     -0.221D+00 0.253D+00-0.454D-01-0.227D+00 0.307D+00 0.161D+01
 Coeff:     -0.481D+01 0.373D+01 0.280D+01-0.954D+01 0.590D+01 0.123D+01
 Gap=     0.071 Goal=   None    Shift=    0.400
 RMSDP=3.02D-06 MaxDP=2.10D-04 DE=-6.87D-08 OVMax= 3.47D-05

 Cycle  13  Pass 1  IDiag  1:
 E= -104.249444340507     Delta-E=       -0.000000052114 Rises=F Damp=F
 DIIS: error= 4.71D-05 at cycle  13 NSaved=  13.
 NSaved=13 IEnMin=13 EnMin= -104.249444340507     IErMin=13 ErrMin= 4.71D-05
 ErrMax= 4.71D-05  0.00D+00 EMaxC= 1.00D-01 BMatC= 1.91D-07 BMatP= 2.71D-07
 IDIUse=1 WtCom= 1.00D+00 WtEn= 0.00D+00
 Coeff-Com: -0.207D+00 0.237D+00-0.462D-01-0.198D+00 0.311D+00 0.135D+01
 Coeff-Com: -0.394D+01 0.174D+01 0.334D+01-0.476D+01 0.246D+01-0.153D+01
 Coeff-Com:  0.223D+01
 Coeff:     -0.207D+00 0.237D+00-0.462D-01-0.198D+00 0.311D+00 0.135D+01
 Coeff:     -0.394D+01 0.174D+01 0.334D+01-0.476D+01 0.246D+01-0.153D+01
 Coeff:      0.223D+01
 Gap=     0.071 Goal=   None    Shift=    0.400
 RMSDP=1.87D-06 MaxDP=1.37D-04 DE=-5.21D-08 OVMax= 2.26D-05

 Cycle  14  Pass 1  IDiag  1:
 E= -104.249444368798     Delta-E=       -0.000000028291 Rises=F Damp=F
 DIIS: error= 4.23D-05 at cycle  14 NSaved=  14.
 NSaved=14 IEnMin=14 EnMin= -104.249444368798     IErMin=14 ErrMin= 4.23D-05
 ErrMax= 4.23D-05  0.00D+00 EMaxC= 1.00D-01 BMatC= 1.58D-07 BMatP= 1.91D-07
 IDIUse=1 WtCom= 1.00D+00 WtEn= 0.00D+00
 Coeff-Com: -0.705D-01 0.805D-01-0.142D-01-0.865D-01 0.107D+00 0.323D+00
 Coeff-Com:  0.440D+00-0.367D+01 0.222D+01 0.537D+01-0.636D+01 0.211D+01
 Coeff-Com: -0.634D+01 0.689D+01
 Coeff:     -0.705D-01 0.805D-01-0.142D-01-0.865D-01 0.107D+00 0.323D+00
 Coeff:      0.440D+00-0.367D+01 0.222D+01 0.537D+01-0.636D+01 0.211D+01
 Coeff:     -0.634D+01 0.689D+01
 Gap=     0.071 Goal=   None    Shift=    0.400
 RMSDP=5.77D-06 MaxDP=4.01D-04 DE=-2.83D-08 OVMax= 6.17D-05

 Cycle  15  Pass 1  IDiag  1:
 E= -104.249444433065     Delta-E=       -0.000000064268 Rises=F Damp=F
 DIIS: error= 2.44D-05 at cycle  15 NSaved=  15.
 NSaved=15 IEnMin=15 EnMin= -104.249444433065     IErMin=15 ErrMin= 2.44D-05
 ErrMax= 2.44D-05  0.00D+00 EMaxC= 1.00D-01 BMatC= 4.67D-08 BMatP= 1.58D-07
 IDIUse=1 WtCom= 1.00D+00 WtEn= 0.00D+00
 Coeff-Com: -0.607D-01 0.694D-01-0.115D-01-0.909D-01 0.117D+00 0.376D+00
 Coeff-Com:  0.306D+00-0.391D+01 0.279D+01 0.544D+01-0.634D+01 0.155D+01
 Coeff-Com: -0.616D+01 0.663D+01 0.300D+00
 Coeff:     -0.607D-01 0.694D-01-0.115D-01-0.909D-01 0.117D+00 0.376D+00
 Coeff:      0.306D+00-0.391D+01 0.279D+01 0.544D+01-0.634D+01 0.155D+01
 Coeff:     -0.616D+01 0.663D+01 0.300D+00
 Gap=     0.071 Goal=   None    Shift=    0.400
 RMSDP=2.71D-06 MaxDP=2.03D-04 DE=-6.43D-08 OVMax= 3.33D-05

 Cycle  16  Pass 1  IDiag  1:
 E= -104.249444455023     Delta-E=       -0.000000021957 Rises=F Damp=F
 DIIS: error= 1.72D-05 at cycle  16 NSaved=  16.
 NSaved=16 IEnMin=16 EnMin= -104.249444455023     IErMin=16 ErrMin= 1.72D-05
 ErrMax= 1.72D-05  0.00D+00 EMaxC= 1.00D-01 BMatC= 2.58D-08 BMatP= 4.67D-08
 IDIUse=1 WtCom= 1.00D+00 WtEn= 0.00D+00
 Coeff-Com: -0.633D-01 0.723D-01-0.121D-01-0.910D-01 0.100D+00 0.319D+00
 Coeff-Com:  0.826D+00-0.458D+01 0.264D+01 0.617D+01-0.700D+01 0.308D+01
 Coeff-Com: -0.721D+01 0.631D+01-0.350D+00 0.786D+00
 Coeff:     -0.633D-01 0.723D-01-0.121D-01-0.910D-01 0.100D+00 0.319D+00
 Coeff:      0.826D+00-0.458D+01 0.264D+01 0.617D+01-0.700D+01 0.308D+01
 Coeff:     -0.721D+01 0.631D+01-0.350D+00 0.786D+00
 Gap=     0.071 Goal=   None    Shift=    0.400
 RMSDP=1.32D-06 MaxDP=9.72D-05 DE=-2.20D-08 OVMax= 1.85D-05

 Cycle  17  Pass 1  IDiag  1:
 E= -104.249444463862     Delta-E=       -0.000000008839 Rises=F Damp=F
 DIIS: error= 1.46D-05 at cycle  17 NSaved=  17.
 NSaved=17 IEnMin=17 EnMin= -104.249444463862     IErMin=17 ErrMin= 1.46D-05
 ErrMax= 1.46D-05  0.00D+00 EMaxC= 1.00D-01 BMatC= 1.97D-08 BMatP= 2.58D-08
 IDIUse=1 WtCom= 1.00D+00 WtEn= 0.00D+00
 Coeff-Com: -0.152D-01 0.174D-01-0.666D-03-0.327D-01 0.353D-01 0.144D+00
 Coeff-Com: -0.481D-01-0.119D+01 0.127D+01 0.238D+01-0.507D+01 0.403D+01
 Coeff-Com: -0.467D+01 0.361D+01-0.131D+00-0.183D+01 0.251D+01
 Coeff:     -0.152D-01 0.174D-01-0.666D-03-0.327D-01 0.353D-01 0.144D+00
 Coeff:     -0.481D-01-0.119D+01 0.127D+01 0.238D+01-0.507D+01 0.403D+01
 Coeff:     -0.467D+01 0.361D+01-0.131D+00-0.183D+01 0.251D+01
 Gap=     0.071 Goal=   None    Shift=    0.400
 RMSDP=2.41D-06 MaxDP=1.60D-04 DE=-8.84D-09 OVMax= 2.66D-05

 Cycle  18  Pass 1  IDiag  1:
 E= -104.249444474426     Delta-E=       -0.000000010564 Rises=F Damp=F
 DIIS: error= 7.72D-06 at cycle  18 NSaved=  18.
 NSaved=18 IEnMin=18 EnMin= -104.249444474426     IErMin=18 ErrMin= 7.72D-06
 ErrMax= 7.72D-06  0.00D+00 EMaxC= 1.00D-01 BMatC= 5.85D-09 BMatP= 1.97D-08
 IDIUse=1 WtCom= 1.00D+00 WtEn= 0.00D+00
 Coeff-Com: -0.220D-02 0.251D-02 0.403D-03 0.638D-03 0.815D-02-0.882D-02
 Coeff-Com: -0.177D+00-0.782D-01 0.469D+00 0.197D+01-0.429D+01 0.384D+01
 Coeff-Com: -0.243D+01 0.138D+01-0.172D+01-0.351D+00 0.113D+00 0.227D+01
 Coeff:     -0.220D-02 0.251D-02 0.403D-03 0.638D-03 0.815D-02-0.882D-02
 Coeff:     -0.177D+00-0.782D-01 0.469D+00 0.197D+01-0.429D+01 0.384D+01
 Coeff:     -0.243D+01 0.138D+01-0.172D+01-0.351D+00 0.113D+00 0.227D+01
 Gap=     0.071 Goal=   None    Shift=    0.400
 RMSDP=1.53D-06 MaxDP=1.10D-04 DE=-1.06D-08 OVMax= 1.90D-05

 Cycle  19  Pass 1  IDiag  1:
 E= -104.249444478882     Delta-E=       -0.000000004456 Rises=F Damp=F
 DIIS: error= 3.73D-06 at cycle  19 NSaved=  19.
 NSaved=19 IEnMin=19 EnMin= -104.249444478882     IErMin=19 ErrMin= 3.73D-06
 ErrMax= 3.73D-06  0.00D+00 EMaxC= 1.00D-01 BMatC= 2.13D-09 BMatP= 5.85D-09
 IDIUse=1 WtCom= 1.00D+00 WtEn= 0.00D+00
 Coeff-Com: -0.166D-02 0.189D-02-0.216D-03-0.108D-02 0.178D-01 0.114D-01
 Coeff-Com: -0.245D+00 0.350D-01 0.278D+00 0.182D+01-0.322D+01 0.267D+01
 Coeff-Com: -0.136D+01 0.317D+00-0.656D+00-0.735D+00 0.532D+00-0.123D+01
 Coeff-Com:  0.277D+01
 Coeff:     -0.166D-02 0.189D-02-0.216D-03-0.108D-02 0.178D-01 0.114D-01
 Coeff:     -0.245D+00 0.350D-01 0.278D+00 0.182D+01-0.322D+01 0.267D+01
 Coeff:     -0.136D+01 0.317D+00-0.656D+00-0.735D+00 0.532D+00-0.123D+01
 Coeff:      0.277D+01
 Gap=     0.071 Goal=   None    Shift=    0.400
 RMSDP=8.09D-07 MaxDP=5.63D-05 DE=-4.46D-09 OVMax= 1.13D-05

 Cycle  20  Pass 1  IDiag  1:
 E= -104.249444480626     Delta-E=       -0.000000001744 Rises=F Damp=F
 DIIS: error= 2.34D-06 at cycle  20 NSaved=  20.
 NSaved=20 IEnMin=20 EnMin= -104.249444480626     IErMin=20 ErrMin= 2.34D-06
 ErrMax= 2.34D-06  0.00D+00 EMaxC= 1.00D-01 BMatC= 9.54D-10 BMatP= 2.13D-09
 IDIUse=1 WtCom= 1.00D+00 WtEn= 0.00D+00
 Coeff-Com: -0.245D-02 0.280D-02-0.230D-03-0.636D-02 0.208D-01 0.501D-01
 Coeff-Com: -0.280D+00 0.774D-01 0.151D+00 0.135D+01-0.213D+01 0.118D+01
 Coeff-Com: -0.824D+00 0.401D+00 0.825D+00-0.115D+01 0.116D+01-0.322D+01
 Coeff-Com:  0.110D+01 0.229D+01
 Coeff:     -0.245D-02 0.280D-02-0.230D-03-0.636D-02 0.208D-01 0.501D-01
 Coeff:     -0.280D+00 0.774D-01 0.151D+00 0.135D+01-0.213D+01 0.118D+01
 Coeff:     -0.824D+00 0.401D+00 0.825D+00-0.115D+01 0.116D+01-0.322D+01
 Coeff:      0.110D+01 0.229D+01
 Gap=     0.071 Goal=   None    Shift=    0.400
 RMSDP=4.51D-07 MaxDP=3.23D-05 DE=-1.74D-09 OVMax= 6.99D-06

 Cycle  21  Pass 1  IDiag  1:
 E= -104.249444481377     Delta-E=       -0.000000000751 Rises=F Damp=F
 DIIS: error= 1.59D-06 at cycle  21 NSaved=  20.
 NSaved=20 IEnMin=20 EnMin= -104.249444481377     IErMin=20 ErrMin= 1.59D-06
 ErrMax= 1.59D-06  0.00D+00 EMaxC= 1.00D-01 BMatC= 4.77D-10 BMatP= 9.54D-10
 IDIUse=1 WtCom= 1.00D+00 WtEn= 0.00D+00
 Coeff-Com: -0.296D-08 0.150D-03-0.300D-03 0.320D-02 0.844D-03-0.174D-01
 Coeff-Com: -0.135D+00 0.561D-01 0.111D+01-0.160D+01 0.601D+00-0.602D+00
 Coeff-Com:  0.581D+00 0.731D+00-0.438D+00 0.669D+00-0.244D+01 0.409D+00
 Coeff-Com: -0.259D+00 0.233D+01
 Coeff:     -0.296D-08 0.150D-03-0.300D-03 0.320D-02 0.844D-03-0.174D-01
 Coeff:     -0.135D+00 0.561D-01 0.111D+01-0.160D+01 0.601D+00-0.602D+00
 Coeff:      0.581D+00 0.731D+00-0.438D+00 0.669D+00-0.244D+01 0.409D+00
 Coeff:     -0.259D+00 0.233D+01
 Gap=     0.071 Goal=   None    Shift=    0.400
 RMSDP=3.49D-07 MaxDP=2.64D-05 DE=-7.51D-10 OVMax= 5.29D-06

 Cycle  22  Pass 1  IDiag  1:
 E= -104.249444481769     Delta-E=       -0.000000000392 Rises=F Damp=F
 DIIS: error= 1.10D-06 at cycle  22 NSaved=  20.
 NSaved=20 IEnMin=20 EnMin= -104.249444481769     IErMin=20 ErrMin= 1.10D-06
 ErrMax= 1.10D-06  0.00D+00 EMaxC= 1.00D-01 BMatC= 2.19D-10 BMatP= 4.77D-10
 IDIUse=1 WtCom= 1.00D+00 WtEn= 0.00D+00
 Coeff-Com: -0.161D-03 0.379D-02-0.675D-02-0.423D-01 0.201D+00-0.381D+00
 Coeff-Com:  0.175D+00 0.715D+00-0.110D+01 0.563D+00-0.400D+00 0.378D+00
 Coeff-Com: -0.180D+00 0.432D+00-0.419D-01-0.592D+00 0.367D+00-0.122D+01
 Coeff-Com: -0.612D+00 0.274D+01
 Coeff:     -0.161D-03 0.379D-02-0.675D-02-0.423D-01 0.201D+00-0.381D+00
 Coeff:      0.175D+00 0.715D+00-0.110D+01 0.563D+00-0.400D+00 0.378D+00
 Coeff:     -0.180D+00 0.432D+00-0.419D-01-0.592D+00 0.367D+00-0.122D+01
 Coeff:     -0.612D+00 0.274D+01
 Gap=     0.071 Goal=   None    Shift=    0.400
 RMSDP=2.13D-07 MaxDP=1.71D-05 DE=-3.92D-10 OVMax= 3.47D-06

 Cycle  23  Pass 1  IDiag  1:
 E= -104.249444481950     Delta-E=       -0.000000000181 Rises=F Damp=F
 DIIS: error= 7.45D-07 at cycle  23 NSaved=  20.
 NSaved=20 IEnMin=20 EnMin= -104.249444481950     IErMin=20 ErrMin= 7.45D-07
 ErrMax= 7.45D-07  0.00D+00 EMaxC= 1.00D-01 BMatC= 1.06D-10 BMatP= 2.19D-10
 IDIUse=1 WtCom= 1.00D+00 WtEn= 0.00D+00
 Coeff-Com:  0.768D-03 0.328D-02-0.110D-01-0.701D-02-0.599D-01 0.191D+00
 Coeff-Com:  0.859D-01-0.470D+00 0.320D+00-0.652D-01 0.531D-01 0.147D+00
 Coeff-Com: -0.171D+00 0.284D+00-0.880D+00 0.306D+00 0.793D+00-0.145D+01
 Coeff-Com: -0.514D+00 0.244D+01
 Coeff:      0.768D-03 0.328D-02-0.110D-01-0.701D-02-0.599D-01 0.191D+00
 Coeff:      0.859D-01-0.470D+00 0.320D+00-0.652D-01 0.531D-01 0.147D+00
 Coeff:     -0.171D+00 0.284D+00-0.880D+00 0.306D+00 0.793D+00-0.145D+01
 Coeff:     -0.514D+00 0.244D+01
 Gap=     0.071 Goal=   None    Shift=    0.400
 RMSDP=1.41D-07 MaxDP=1.21D-05 DE=-1.81D-10 OVMax= 2.55D-06

 Cycle  24  Pass 1  IDiag  1:
 E= -104.249444482038     Delta-E=       -0.000000000088 Rises=F Damp=F
 DIIS: error= 5.06D-07 at cycle  24 NSaved=  20.
 NSaved=20 IEnMin=20 EnMin= -104.249444482038     IErMin=20 ErrMin= 5.06D-07
 ErrMax= 5.06D-07  0.00D+00 EMaxC= 1.00D-01 BMatC= 5.28D-11 BMatP= 1.06D-10
 IDIUse=1 WtCom= 1.00D+00 WtEn= 0.00D+00
 Large coefficients: NSaved= 20 BigCof=    0.00 CofMax=   10.00 Det=-8.69D-15
 Inversion failed.  Reducing to 19 matrices.
 Large coefficients: NSaved= 19 BigCof=    0.00 CofMax=   10.00 Det=-9.24D-15
 Inversion failed.  Reducing to 18 matrices.
 Coeff-Com: -0.121D-01 0.152D-01 0.528D-01-0.400D-01-0.103D+00-0.367D-01
 Coeff-Com: -0.938D-02 0.902D-01 0.466D+00-0.325D+00 0.391D+00-0.113D+01
 Coeff-Com: -0.299D-01 0.125D+01-0.528D+00-0.806D+00-0.944D+00 0.270D+01
 Coeff:     -0.121D-01 0.152D-01 0.528D-01-0.400D-01-0.103D+00-0.367D-01
 Coeff:     -0.938D-02 0.902D-01 0.466D+00-0.325D+00 0.391D+00-0.113D+01
 Coeff:     -0.299D-01 0.125D+01-0.528D+00-0.806D+00-0.944D+00 0.270D+01
 Gap=     0.071 Goal=   None    Shift=    0.400
 RMSDP=8.92D-08 MaxDP=8.24D-06 DE=-8.75D-11 OVMax= 1.68D-06

 Cycle  25  Pass 1  IDiag  1:
 E= -104.249444482081     Delta-E=       -0.000000000043 Rises=F Damp=F
 DIIS: error= 3.51D-07 at cycle  25 NSaved=  19.
 NSaved=19 IEnMin=19 EnMin= -104.249444482081     IErMin=19 ErrMin= 3.51D-07
 ErrMax= 3.51D-07  0.00D+00 EMaxC= 1.00D-01 BMatC= 2.66D-11 BMatP= 5.28D-11
 IDIUse=1 WtCom= 1.00D+00 WtEn= 0.00D+00
 Large coefficients: NSaved= 19 BigCof=    0.00 CofMax=   10.00 Det=-8.76D-15
 Inversion failed.  Reducing to 18 matrices.
 Large coefficients: NSaved= 18 BigCof=    0.00 CofMax=   10.00 Det=-9.81D-15
 Inversion failed.  Reducing to 17 matrices.
 Large coefficients: NSaved= 17 BigCof=    0.00 CofMax=   10.00 Det=-9.92D-15
 Inversion failed.  Reducing to 16 matrices.
 Coeff-Com:  0.379D-01-0.730D-01-0.101D+00 0.178D-01 0.876D-01 0.363D+00
 Coeff-Com: -0.287D+00 0.302D+00-0.806D+00-0.601D-01 0.106D+01-0.224D+00
 Coeff-Com: -0.420D+00-0.184D+01 0.125D+01 0.169D+01
 Coeff:      0.379D-01-0.730D-01-0.101D+00 0.178D-01 0.876D-01 0.363D+00
 Coeff:     -0.287D+00 0.302D+00-0.806D+00-0.601D-01 0.106D+01-0.224D+00
 Coeff:     -0.420D+00-0.184D+01 0.125D+01 0.169D+01
 Gap=     0.071 Goal=   None    Shift=    0.400
 RMSDP=6.27D-08 MaxDP=5.83D-06 DE=-4.33D-11 OVMax= 1.26D-06

 Cycle  26  Pass 1  IDiag  1:
 E= -104.249444482103     Delta-E=       -0.000000000022 Rises=F Damp=F
 DIIS: error= 2.42D-07 at cycle  26 NSaved=  17.
 NSaved=17 IEnMin=17 EnMin= -104.249444482103     IErMin=17 ErrMin= 2.42D-07
 ErrMax= 2.42D-07  0.00D+00 EMaxC= 1.00D-01 BMatC= 1.36D-11 BMatP= 2.66D-11
 IDIUse=1 WtCom= 1.00D+00 WtEn= 0.00D+00
 Large coefficients: NSaved= 17 BigCof=    0.00 CofMax=   10.00 Det=-4.91D-15
 Inversion failed.  Reducing to 16 matrices.
 Large coefficients: NSaved= 16 BigCof=    0.00 CofMax=   10.00 Det=-5.00D-15
 Inversion failed.  Reducing to 15 matrices.
 Coeff-Com: -0.170D+00 0.573D-01 0.998D-01 0.222D+00-0.151D+00 0.182D+00
 Coeff-Com: -0.405D+00-0.885D-01 0.487D+00-0.200D+00 0.116D+00-0.114D+01
 Coeff-Com:  0.341D+00-0.336D+00 0.199D+01
 Coeff:     -0.170D+00 0.573D-01 0.998D-01 0.222D+00-0.151D+00 0.182D+00
 Coeff:     -0.405D+00-0.885D-01 0.487D+00-0.200D+00 0.116D+00-0.114D+01
 Coeff:      0.341D+00-0.336D+00 0.199D+01
 Gap=     0.071 Goal=   None    Shift=    0.400
 RMSDP=4.55D-08 MaxDP=4.47D-06 DE=-2.17D-11 OVMax= 9.32D-07

 Cycle  27  Pass 1  IDiag  1:
 E= -104.249444482114     Delta-E=       -0.000000000011 Rises=F Damp=F
 DIIS: error= 1.77D-07 at cycle  27 NSaved=  16.
 NSaved=16 IEnMin=16 EnMin= -104.249444482114     IErMin=16 ErrMin= 1.77D-07
 ErrMax= 1.77D-07  0.00D+00 EMaxC= 1.00D-01 BMatC= 6.98D-12 BMatP= 1.36D-11
 IDIUse=1 WtCom= 1.00D+00 WtEn= 0.00D+00
 Large coefficients: NSaved= 16 BigCof=    0.00 CofMax=   10.00 Det=-1.59D-15
 Inversion failed.  Reducing to 15 matrices.
 Coeff-Com:  0.257D-01-0.440D-01 0.496D-01-0.599D-01 0.977D-01-0.156D+00
 Coeff-Com:  0.155D-01 0.293D+00-0.302D+00 0.363D-02 0.140D+00 0.873D-01
 Coeff-Com: -0.630D+00-0.208D+01 0.356D+01
 Coeff:      0.257D-01-0.440D-01 0.496D-01-0.599D-01 0.977D-01-0.156D+00
 Coeff:      0.155D-01 0.293D+00-0.302D+00 0.363D-02 0.140D+00 0.873D-01
 Coeff:     -0.630D+00-0.208D+01 0.356D+01
 Gap=     0.071 Goal=   None    Shift=    0.400
 RMSDP=2.94D-08 MaxDP=2.78D-06 DE=-1.13D-11 OVMax= 6.27D-07

 Cycle  28  Pass 1  IDiag  1:
 E= -104.249444482120     Delta-E=       -0.000000000006 Rises=F Damp=F
 DIIS: error= 1.28D-07 at cycle  28 NSaved=  16.
 NSaved=16 IEnMin=16 EnMin= -104.249444482120     IErMin=16 ErrMin= 1.28D-07
 ErrMax= 1.28D-07  0.00D+00 EMaxC= 1.00D-01 BMatC= 3.62D-12 BMatP= 6.98D-12
 IDIUse=1 WtCom= 1.00D+00 WtEn= 0.00D+00
 Large coefficients: NSaved= 16 BigCof=    0.00 CofMax=   10.00 Det=-1.27D-15
 Inversion failed.  Reducing to 15 matrices.
 Coeff-Com: -0.222D-01 0.909D-01-0.962D-01 0.118D+00-0.228D+00 0.134D-01
 Coeff-Com:  0.404D+00-0.279D+00-0.253D+00 0.520D-01 0.557D+00 0.421D+00
 Coeff-Com: -0.308D+01 0.138D+01 0.192D+01
 Coeff:     -0.222D-01 0.909D-01-0.962D-01 0.118D+00-0.228D+00 0.134D-01
 Coeff:      0.404D+00-0.279D+00-0.253D+00 0.520D-01 0.557D+00 0.421D+00
 Coeff:     -0.308D+01 0.138D+01 0.192D+01
 Gap=     0.071 Goal=   None    Shift=    0.400
 RMSDP=2.20D-08 MaxDP=2.18D-06 DE=-5.53D-12 OVMax= 4.77D-07

 Cycle  29  Pass 1  IDiag  1:
 E= -104.249444482123     Delta-E=       -0.000000000003 Rises=F Damp=F
 DIIS: error= 9.39D-08 at cycle  29 NSaved=  16.
 NSaved=16 IEnMin=16 EnMin= -104.249444482123     IErMin=16 ErrMin= 9.39D-08
 ErrMax= 9.39D-08  0.00D+00 EMaxC= 1.00D-01 BMatC= 1.90D-12 BMatP= 3.62D-12
 IDIUse=1 WtCom= 1.00D+00 WtEn= 0.00D+00
 Large coefficients: NSaved= 16 BigCof=    0.00 CofMax=   10.00 Det=-3.47D-16
 Inversion failed.  Reducing to 15 matrices.
 Coeff-Com:  0.320D-01-0.651D-01 0.458D-01-0.848D-01 0.375D-01 0.236D+00
 Coeff-Com: -0.158D+00-0.662D-01-0.283D+00 0.331D+00 0.597D+00-0.127D+01
 Coeff-Com:  0.283D+00-0.186D+01 0.322D+01
 Coeff:      0.320D-01-0.651D-01 0.458D-01-0.848D-01 0.375D-01 0.236D+00
 Coeff:     -0.158D+00-0.662D-01-0.283D+00 0.331D+00 0.597D+00-0.127D+01
 Coeff:      0.283D+00-0.186D+01 0.322D+01
 Gap=     0.071 Goal=   None    Shift=    0.400
 RMSDP=1.55D-08 MaxDP=1.58D-06 DE=-2.98D-12 OVMax= 3.41D-07

 Cycle  30  Pass 1  IDiag  1:
 E= -104.249444482124     Delta-E=       -0.000000000002 Rises=F Damp=F
 DIIS: error= 7.01D-08 at cycle  30 NSaved=  16.
 NSaved=16 IEnMin=16 EnMin= -104.249444482124     IErMin=16 ErrMin= 7.01D-08
 ErrMax= 7.01D-08  0.00D+00 EMaxC= 1.00D-01 BMatC= 9.98D-13 BMatP= 1.90D-12
 IDIUse=1 WtCom= 1.00D+00 WtEn= 0.00D+00
 Large coefficients: NSaved= 16 BigCof=    0.00 CofMax=   10.00 Det=-3.57D-16
 Inversion failed.  Reducing to 15 matrices.
 Coeff-Com: -0.303D-01 0.326D-01-0.280D-02 0.237D-01 0.729D-01-0.145D+00
 Coeff-Com:  0.656D-01 0.723D-01-0.893D-01-0.664D-01-0.481D+00 0.887D+00
 Coeff-Com: -0.186D+01 0.650D+00 0.187D+01
 Coeff:     -0.303D-01 0.326D-01-0.280D-02 0.237D-01 0.729D-01-0.145D+00
 Coeff:      0.656D-01 0.723D-01-0.893D-01-0.664D-01-0.481D+00 0.887D+00
 Coeff:     -0.186D+01 0.650D+00 0.187D+01
 Gap=     0.071 Goal=   None    Shift=    0.400
 RMSDP=1.21D-08 MaxDP=1.18D-06 DE=-1.68D-12 OVMax= 2.60D-07

 Cycle  31  Pass 1  IDiag  1:
 E= -104.249444482125     Delta-E=       -0.000000000001 Rises=F Damp=F
 DIIS: error= 5.00D-08 at cycle  31 NSaved=  16.
 NSaved=16 IEnMin=16 EnMin= -104.249444482125     IErMin=16 ErrMin= 5.00D-08
 ErrMax= 5.00D-08  0.00D+00 EMaxC= 1.00D-01 BMatC= 5.27D-13 BMatP= 9.98D-13
 IDIUse=1 WtCom= 1.00D+00 WtEn= 0.00D+00
 Large coefficients: NSaved= 16 BigCof=    0.00 CofMax=   10.00 Det=-3.70D-16
 Inversion failed.  Reducing to 15 matrices.
 Coeff-Com:  0.537D-02-0.154D-01 0.165D-01 0.678D-02-0.568D-01 0.802D-01
 Coeff-Com:  0.322D-01-0.797D-01 0.323D-01-0.894D-01 0.445D+00-0.124D+01
 Coeff-Com: -0.234D+00 0.761D-01 0.202D+01
 Coeff:      0.537D-02-0.154D-01 0.165D-01 0.678D-02-0.568D-01 0.802D-01
 Coeff:      0.322D-01-0.797D-01 0.323D-01-0.894D-01 0.445D+00-0.124D+01
 Coeff:     -0.234D+00 0.761D-01 0.202D+01
 Gap=     0.071 Goal=   None    Shift=    0.400
 RMSDP=8.00D-09 MaxDP=8.23D-07 DE=-6.39D-13 OVMax= 1.85D-07

 SCF Done:  E(ROHF) =  -104.249444482     A.U. after   31 cycles
            NFock= 31  Conv=0.80D-08     -V/T= 2.7645
 <Sx>= 0.0000 <Sy>= 0.0000 <Sz>= 3.0000 <S**2>=12.0000 S= 3.0000
 <L.S>=  0.00000000000    
 KE= 5.908126758697D+01 PE=-2.503626034828D+02 EE= 8.207085506136D+01
 Annihilation of the first spin contaminant:
 S**2 before annihilation    12.0000,   after    12.0000
 Leave Link  502 at Wed Apr  4 09:15:05 2018, MaxMem= 10737418240 cpu:            1119.5 elap:              65.5
 (Enter /home1/apps/gaussian/16rA.03/g16/l801.exe)
 Windowed orbitals will be sorted by symmetry type.
 GenMOA:  NOpAll=  4 NOp2=4 NOpUse=  4 JSym2X=1
 FoFJK:  IHMeth= 1 ICntrl=       0 DoSepK=F KAlg= 0 I1Cent=           0 FoldK=F
 IRaf=         0 NMat=       1 IRICut=       1 DoRegI=T DoRafI=F ISym2E= 1 IDoP0=0 IntGTp=1.
 FoFCou: FMM=F IPFlag=           8 FMFlag=      100000 FMFlg1=           0
         NFxFlg=           0 DoJE=F BraDBF=F KetDBF=F FulRan=T
         wScrn=  0.000000 ICntrl=         0 IOpCl=  1 I1Cent=           0 NGrid=           0
         NMat0=    1 NMatS0=      1 NMatT0=    0 NMatD0=    1 NMtDS0=    0 NMtDT0=    0
 Petite list used in FoFCou.
 <Sx>= 0.0000 <Sy>= 0.0000 <Sz>= 3.0000 <S**2>=12.0000 S= 3.0000
 Range of M.O.s used for correlation:     1   293
 NBasis=   300 NAE=    11 NBE=     5 NFC=     0 NFV=     0
 NROrb=    293 NOA=    11 NOB=     5 NVA=   282 NVB=   288

 **** Warning!!: The largest alpha MO coefficient is  0.10556974D+03


 **** Warning!!: The largest beta MO coefficient is  0.10534736D+03

 Singles contribution to E2=   -0.2249930086D-02
 Leave Link  801 at Wed Apr  4 09:15:22 2018, MaxMem= 10737418240 cpu:             326.5 elap:              16.4
 (Enter /home1/apps/gaussian/16rA.03/g16/l804.exe)
 Open-shell transformation, MDV= 10737418240 ITran=4 ISComp=2.
 Unit  1 TFree=       2732569 TCopy=       1991833.
 Semi-Direct transformation.
 ModeAB=           2 MOrb=            11 LenV=   10734710790
 LASXX=     34278815 LTotXX=    34278815 LenRXX=    34278815
 LTotAB=    34749813 MaxLAS=   248261244 LenRXY=   248261244
 NonZer=   253250448 LenScr=   381366272 LnRSAI=           0
 LnScr1=           0 LExtra=     9163577 Total=    673069908
 MaxDsk= 67108864000 SrtSym=           F ITran=            4
 DoSDTr:  NPSUse= 20
 JobTyp=1 Pass  1:  I=   1 to  11.
 (rs|ai) integrals will be sorted in core.
 Complete sort for first half transformation.
 First half transformation complete.
 Begin second half transformation for I=  10.
 Begin second half transformation for I=  10.
 Complete sort for second half transformation.
 Second half transformation complete.
 ModeAB=           2 MOrb=             5 LenV=   10734710790
 LASXX=     15845199 LTotXX=    15845199 LenRXX=   112846020
 LTotAB=    14854134 MaxLAS=   112846020 LenRXY=    14854134
 NonZer=   115113840 LenScr=   173451264 LnRSAI=           0
 LnScr1=           0 LExtra=   291703636 Total=    592855054
 MaxDsk= 67108864000 SrtSym=           F ITran=            4
 DoSDTr:  NPSUse= 20
 JobTyp=2 Pass  1:  I=   1 to   5.
 (rs|ai) integrals will be sorted in core.
 Complete sort for first half transformation.
 First half transformation complete.
 Complete sort for second half transformation.
 Second half transformation complete.
 Spin components of T(2) and E(2):
     alpha-alpha T2 =       0.2541024620D-01 E2=     -0.1599048223D+00
     alpha-beta  T2 =       0.5339443234D-01 E2=     -0.4025862422D+00
     beta-beta   T2 =       0.6462034022D-02 E2=     -0.4209595649D-01
 ANorm=    0.1042331538D+01
 E2 =    -0.6068369512D+00 EUMP2 =    -0.10485628143328D+03
 (S**2,0)=  0.12000D+02           (S**2,1)=  0.12000D+02
 E(PUHF)=      -0.10424944448D+03        E(PMP2)=      -0.10485628143D+03
 Recovering and transforming amplitudes from chk file.
 B after Tr=     0.000000    0.000000    0.000000
         Rot=    1.000000    0.000000    0.000000    0.000000 Ang=   0.00 deg.
 Alpha occ  Sing. vals= 9.999998D-01 9.999997D-01 9.999997D-01 9.999990D-01 9.999962D-01 9.999953D-01 9.999953D-01 9.999949D-01 9.999943D-01 9.999943D-01
 Alpha occ  Sing. vals= 9.999930D-01
 Alpha occ  NOrbO=    11 NOrbN=    11 NSVal=    11 ThrEig=  0.900000.
 TrMax= 1.000000D+00 PrMax= 1.000000D+00 Trace(Pr)= 1.100000D+01
 B after Tr=     0.000000    0.000000    0.000000
         Rot=    1.000000    0.000000    0.000000    0.000000 Ang=   0.00 deg.
 Alpha virt Sing. vals= 1.000000D+00 1.000000D+00 1.000000D+00 1.000000D+00 1.000000D+00 1.000000D+00 1.000000D+00 1.000000D+00 1.000000D+00 1.000000D+00
 Alpha virt Sing. vals= 1.000000D+00 1.000000D+00 1.000000D+00 1.000000D+00 1.000000D+00 1.000000D+00 1.000000D+00 1.000000D+00 1.000000D+00 9.999999D-01
 Alpha virt Sing. vals= 9.999999D-01 9.999999D-01 9.999999D-01 9.999999D-01 9.999998D-01 9.999996D-01 9.999996D-01 9.999995D-01 9.999994D-01 9.999994D-01
 Alpha virt Sing. vals= 9.999994D-01 9.999988D-01 9.999987D-01 9.999986D-01 9.999986D-01 9.999985D-01 9.999985D-01 9.999983D-01 9.999981D-01 9.999976D-01
 Alpha virt Sing. vals= 9.999976D-01 9.999973D-01 9.999946D-01 9.999943D-01 9.999943D-01 9.999943D-01 9.999943D-01 9.999940D-01 9.999940D-01 9.999940D-01
 Alpha virt Sing. vals= 9.999903D-01 9.999888D-01 9.999824D-01 9.999776D-01 9.999776D-01 9.999742D-01 9.999742D-01 9.999742D-01 9.999741D-01 9.999741D-01
 Alpha virt Sing. vals= 9.999587D-01 9.999587D-01 9.999498D-01 9.999387D-01 9.999387D-01 9.999312D-01 9.999245D-01 9.999094D-01 9.999094D-01 9.999087D-01
 Alpha virt Sing. vals= 9.998816D-01 9.998816D-01 9.998234D-01 9.998107D-01 9.998107D-01 9.998089D-01 9.998020D-01 9.998020D-01 9.997933D-01 9.997933D-01
 Alpha virt Sing. vals= 9.997922D-01 9.997922D-01 9.997418D-01 9.996510D-01 9.996146D-01 9.995838D-01 9.995830D-01 9.995830D-01 9.995828D-01 9.995828D-01
 Alpha virt Sing. vals= 9.995672D-01 9.995672D-01 9.995104D-01 9.995104D-01 9.994994D-01 9.994888D-01 9.994888D-01 9.994858D-01 9.994858D-01 9.993471D-01
 Alpha virt Sing. vals= 9.993114D-01 9.993114D-01 9.992723D-01 9.991947D-01 9.991947D-01 9.991941D-01 9.987493D-01 9.987493D-01 9.987243D-01 9.985576D-01
 Alpha virt Sing. vals= 9.985576D-01 9.984481D-01 9.983096D-01 9.983096D-01 9.979303D-01 9.979303D-01 9.978211D-01 9.978211D-01 9.976323D-01 9.976323D-01
 Alpha virt Sing. vals= 9.973262D-01 9.973262D-01 9.971473D-01 9.967149D-01 9.963647D-01 9.963647D-01 9.960363D-01 9.959524D-01 9.959524D-01 9.959187D-01
 Alpha virt Sing. vals= 9.959187D-01 9.952955D-01 9.947103D-01 9.947103D-01 9.946446D-01 9.946446D-01 9.945687D-01 9.945687D-01 9.944530D-01 9.932046D-01
 Alpha virt Sing. vals= 9.932046D-01 9.930348D-01 9.910796D-01 9.910796D-01 9.910429D-01 9.881780D-01 9.856638D-01 9.856638D-01 9.840843D-01 9.836960D-01
 Alpha virt Sing. vals= 9.836960D-01 9.821223D-01 9.821223D-01 9.814655D-01 9.814655D-01 9.803597D-01 9.787408D-01 9.787408D-01 9.734302D-01 9.719511D-01
 Alpha virt Sing. vals= 9.719511D-01 9.718251D-01 9.718251D-01 9.660702D-01 9.602479D-01 9.602479D-01 9.577066D-01 9.577066D-01 9.495895D-01 9.439869D-01
 Alpha virt Sing. vals= 9.439655D-01 9.439655D-01 9.411131D-01 9.277593D-01 9.277593D-01 9.269556D-01 9.269556D-01 9.256307D-01 9.256307D-01 9.244486D-01
 Alpha virt Sing. vals= 9.244486D-01 8.993205D-01 8.916545D-01 8.517322D-01 8.517322D-01 8.513760D-01 8.513760D-01 8.512188D-01 8.495058D-01 8.495058D-01
 Alpha virt Sing. vals= 7.962949D-01 7.962949D-01 7.038566D-01 4.779928D-01
 Alpha virt NOrbO=   194 NOrbN=   282 NSVal=   181 ThrEig=  0.900000.
 TrMax= 9.979934D-01 PrMax= 9.999726D-01 Trace(Pr)= 1.810000D+02
 B after Tr=     0.000000    0.000000    0.000000
         Rot=    1.000000    0.000000    0.000000    0.000000 Ang=   0.00 deg.
 Beta  occ  Sing. vals= 9.999998D-01 9.999997D-01 9.999997D-01 9.999990D-01 9.999936D-01
 Beta  occ  NOrbO=     5 NOrbN=     5 NSVal=     5 ThrEig=  0.900000.
 TrMax= 1.000000D+00 PrMax= 1.000000D+00 Trace(Pr)= 5.000000D+00
 B after Tr=     0.000000    0.000000    0.000000
         Rot=    1.000000    0.000000    0.000000    0.000000 Ang=   0.00 deg.
 Beta  virt Sing. vals= 1.000000D+00 1.000000D+00 1.000000D+00 1.000000D+00 1.000000D+00 1.000000D+00 1.000000D+00 1.000000D+00 1.000000D+00 1.000000D+00
 Beta  virt Sing. vals= 1.000000D+00 1.000000D+00 1.000000D+00 1.000000D+00 1.000000D+00 1.000000D+00 1.000000D+00 1.000000D+00 1.000000D+00 1.000000D+00
 Beta  virt Sing. vals= 1.000000D+00 1.000000D+00 1.000000D+00 1.000000D+00 9.999999D-01 9.999999D-01 9.999999D-01 9.999999D-01 9.999999D-01 9.999998D-01
 Beta  virt Sing. vals= 9.999998D-01 9.999996D-01 9.999996D-01 9.999995D-01 9.999994D-01 9.999994D-01 9.999994D-01 9.999988D-01 9.999987D-01 9.999986D-01
 Beta  virt Sing. vals= 9.999986D-01 9.999986D-01 9.999986D-01 9.999983D-01 9.999981D-01 9.999976D-01 9.999976D-01 9.999972D-01 9.999946D-01 9.999943D-01
 Beta  virt Sing. vals= 9.999943D-01 9.999942D-01 9.999942D-01 9.999940D-01 9.999940D-01 9.999940D-01 9.999902D-01 9.999887D-01 9.999824D-01 9.999776D-01
 Beta  virt Sing. vals= 9.999776D-01 9.999741D-01 9.999740D-01 9.999740D-01 9.999740D-01 9.999740D-01 9.999582D-01 9.999582D-01 9.999496D-01 9.999378D-01
 Beta  virt Sing. vals= 9.999378D-01 9.999312D-01 9.999243D-01 9.999094D-01 9.999094D-01 9.999087D-01 9.998812D-01 9.998812D-01 9.998234D-01 9.998107D-01
 Beta  virt Sing. vals= 9.998107D-01 9.998089D-01 9.998020D-01 9.998020D-01 9.997933D-01 9.997933D-01 9.997922D-01 9.997922D-01 9.997418D-01 9.996509D-01
 Beta  virt Sing. vals= 9.996142D-01 9.995837D-01 9.995830D-01 9.995830D-01 9.995828D-01 9.995828D-01 9.995672D-01 9.995672D-01 9.995104D-01 9.995104D-01
 Beta  virt Sing. vals= 9.994993D-01 9.994888D-01 9.994888D-01 9.994858D-01 9.994858D-01 9.993470D-01 9.993109D-01 9.993109D-01 9.992718D-01 9.991947D-01
 Beta  virt Sing. vals= 9.991947D-01 9.991941D-01 9.987483D-01 9.987483D-01 9.987242D-01 9.985554D-01 9.985554D-01 9.984481D-01 9.983096D-01 9.983096D-01
 Beta  virt Sing. vals= 9.979304D-01 9.979304D-01 9.978210D-01 9.978210D-01 9.976323D-01 9.976323D-01 9.973262D-01 9.973262D-01 9.971473D-01 9.967148D-01
 Beta  virt Sing. vals= 9.963646D-01 9.963646D-01 9.960362D-01 9.959523D-01 9.959523D-01 9.959187D-01 9.959187D-01 9.952952D-01 9.947103D-01 9.947103D-01
 Beta  virt Sing. vals= 9.946446D-01 9.946446D-01 9.945687D-01 9.945687D-01 9.944530D-01 9.932046D-01 9.932046D-01 9.930348D-01 9.910795D-01 9.910795D-01
 Beta  virt Sing. vals= 9.910423D-01 9.881776D-01 9.856638D-01 9.856638D-01 9.840843D-01 9.836960D-01 9.836960D-01 9.821223D-01 9.821223D-01 9.814654D-01
 Beta  virt Sing. vals= 9.814654D-01 9.803597D-01 9.787408D-01 9.787408D-01 9.734297D-01 9.719507D-01 9.719507D-01 9.718251D-01 9.718251D-01 9.660696D-01
 Beta  virt Sing. vals= 9.602476D-01 9.602476D-01 9.577063D-01 9.577063D-01 9.495895D-01 9.439869D-01 9.439655D-01 9.439655D-01 9.411130D-01 9.277593D-01
 Beta  virt Sing. vals= 9.277593D-01 9.269557D-01 9.269557D-01 9.256307D-01 9.256307D-01 9.244486D-01 9.244486D-01 8.993204D-01 8.916546D-01 8.517321D-01
 Beta  virt Sing. vals= 8.517321D-01 8.513759D-01 8.513759D-01 8.512184D-01 8.495058D-01 8.495058D-01 7.962949D-01 7.962949D-01 7.038564D-01 4.779928D-01
 Beta  virt NOrbO=   200 NOrbN=   288 NSVal=   187 ThrEig=  0.900000.
 TrMax= 9.989459D-01 PrMax= 9.999726D-01 Trace(Pr)= 1.870000D+02
 Leave Link  804 at Wed Apr  4 09:22:53 2018, MaxMem= 10737418240 cpu:            9011.5 elap:             451.0
 (Enter /home1/apps/gaussian/16rA.03/g16/l913.exe)
 CIDS:  MDV= 10737418240.
 IFCWin=0 IBDFC=1 NFBD=     0     0 NFCmp=     0     0 NFFFC=     0     0
 Amplitudes recovered.
 Using DD4UQ or CC4UQ for all iterations.
 Keep R2 and R3 ints in memory in symmetry-blocked form, NReq=1277333419.
 FoFCou: FMM=F IPFlag=           8 FMFlag=           0 FMFlg1=           0
         NFxFlg=           0 DoJE=F BraDBF=F KetDBF=F FulRan=T
         wScrn=  0.000000 ICntrl=       600 IOpCl=  0 I1Cent=           0 NGrid=           0
         NMat0=    1 NMatS0=  45150 NMatT0=    0 NMatD0=    1 NMtDS0=    0 NMtDT0=    0
 Petite list used in FoFCou.
 CIDS: In Core Option IDoMem=           1.
 CCSD(T)
 =======
 Iterations= 150 Convergence= 0.100D-06
 Produce multiple copies of IABC intergrals
 Iteration Nr.   1
 **********************
 DD1Dir will call FoFMem   1 times, MxPair=       176
 NAB=    55 NAA=    55 NBB=    10.
 Maximum subspace dimension=  5
 A-vector RMS=  1.0002149D-04 Max=  9.4642083D-04 conv= 1.00D-05.
 RLE energy=       -0.6104687509
 DE(Corr)= -0.61048257     E(Corr)=     -104.85992705    
 NORM(A)=   0.10550935D+01
 Iteration Nr.   2
 **********************
 DD1Dir will call FoFMem   1 times, MxPair=       176
 NAB=    55 NAA=    55 NBB=    10.
 A-vector RMS=  2.9274035D-05 Max=  5.2323622D-04 conv= 1.00D-05.
 RLE energy=       -0.6107306916
 DE(Corr)= -0.61071923     E(CORR)=     -104.86016371     Delta=-2.37D-04
 NORM(A)=   0.10552158D+01
 Iteration Nr.   3
 **********************
 DD1Dir will call FoFMem   1 times, MxPair=       176
 NAB=    55 NAA=    55 NBB=    10.
 A-vector RMS=  1.8766714D-05 Max=  2.2399039D-04 conv= 1.00D-05.
 RLE energy=       -0.6107662211
 DE(Corr)= -0.61076133     E(CORR)=     -104.86020581     Delta=-4.21D-05
 NORM(A)=   0.10552423D+01
 Iteration Nr.   4
 **********************
 DD1Dir will call FoFMem   1 times, MxPair=       176
 NAB=    55 NAA=    55 NBB=    10.
 A-vector RMS=  1.0684571D-05 Max=  1.8493295D-04 conv= 1.00D-05.
 RLE energy=       -0.6107593829
 DE(Corr)= -0.61075731     E(CORR)=     -104.86020179     Delta= 4.03D-06
 NORM(A)=   0.10552705D+01
 Iteration Nr.   5
 **********************
 DD1Dir will call FoFMem   1 times, MxPair=       176
 NAB=    55 NAA=    55 NBB=    10.
 A-vector RMS=  6.7956535D-06 Max=  1.0432973D-04 conv= 1.00D-05.
 RLE energy=       -0.6107676102
 DE(Corr)= -0.61076525     E(CORR)=     -104.86020974     Delta=-7.95D-06
 NORM(A)=   0.10553111D+01
 Iteration Nr.   6
 **********************
 DD1Dir will call FoFMem   1 times, MxPair=       176
 NAB=    55 NAA=    55 NBB=    10.
 A-vector RMS=  2.9139490D-06 Max=  2.7941908D-05 conv= 1.00D-05.
 RLE energy=       -0.6107750629
 DE(Corr)= -0.61077122     E(CORR)=     -104.86021571     Delta=-5.97D-06
 NORM(A)=   0.10553303D+01
 Iteration Nr.   7
 **********************
 DD1Dir will call FoFMem   1 times, MxPair=       176
 NAB=    55 NAA=    55 NBB=    10.
 A-vector RMS=  1.3128054D-06 Max=  1.2668359D-05 conv= 1.00D-05.
 RLE energy=       -0.6107756423
 DE(Corr)= -0.61077469     E(CORR)=     -104.86021917     Delta=-3.46D-06
 NORM(A)=   0.10553372D+01
 Iteration Nr.   8
 **********************
 DD1Dir will call FoFMem   1 times, MxPair=       176
 NAB=    55 NAA=    55 NBB=    10.
 A-vector RMS=  5.1584436D-07 Max=  5.3400515D-06 conv= 1.00D-05.
 RLE energy=       -0.6107768058
 DE(Corr)= -0.61077640     E(CORR)=     -104.86022089     Delta=-1.72D-06
 NORM(A)=   0.10553390D+01
 Iteration Nr.   9
 **********************
 DD1Dir will call FoFMem   1 times, MxPair=       176
 NAB=    55 NAA=    55 NBB=    10.
 A-vector RMS=  2.2546126D-07 Max=  2.5754831D-06 conv= 1.00D-05.
 RLE energy=       -0.6107766239
 DE(Corr)= -0.61077655     E(CORR)=     -104.86022103     Delta=-1.48D-07
 NORM(A)=   0.10553393D+01
 Iteration Nr.  10
 **********************
 DD1Dir will call FoFMem   1 times, MxPair=       176
 NAB=    55 NAA=    55 NBB=    10.
 A-vector RMS=  1.2115087D-07 Max=  1.5663445D-06 conv= 1.00D-05.
 RLE energy=       -0.6107766793
 DE(Corr)= -0.61077669     E(CORR)=     -104.86022118     Delta=-1.43D-07
 NORM(A)=   0.10553392D+01
 Iteration Nr.  11
 **********************
 DD1Dir will call FoFMem   1 times, MxPair=       176
 NAB=    55 NAA=    55 NBB=    10.
 A-vector RMS=  4.1814386D-08 Max=  5.3747758D-07 conv= 1.00D-05.
 RLE energy=       -0.6107766088
 DE(Corr)= -0.61077662     E(CORR)=     -104.86022110     Delta= 7.55D-08
 NORM(A)=   0.10553391D+01
 CI/CC converged in   11 iterations to DelEn= 7.55D-08 Conv= 1.00D-07 ErrA1= 4.18D-08 Conv= 1.00D-05
 Wavefunction amplitudes converged. E(Corr)=     -104.86022110    
 Largest amplitude= 5.82D-02
 Time for triples=    21926.23 seconds.
 T4(CCSD)= -0.17652480D-01
 T5(CCSD)=  0.84014805D-03
 CCSD(T)= -0.10487703343D+03
 Discarding MO integrals.
 Leave Link  913 at Wed Apr  4 09:45:28 2018, MaxMem= 10737418240 cpu:           27043.4 elap:            1355.3
 (Enter /home1/apps/gaussian/16rA.03/g16/l601.exe)
 Copying SCF densities to generalized density rwf, IOpCl= 0 IROHF=1.

 **********************************************************************

            Population analysis using the SCF density.

 **********************************************************************

 Orbital symmetries:
       Occupied  (SG) (PI) (PI) (SG) (SG) (DLTA) (DLTA) (PI) (PI)
                 (SG) (SG)
       Virtual   (PI) (PI) (SG) (SG) (SG) (DLTA) (DLTA) (PI) (PI)
                 (PI) (PI) (SG) (SG) (SG) (DLTA) (DLTA) (PI) (PI)
                 (PI) (PI) (SG) (SG) (PI) (PI) (SG) (SG) (PHI)
                 (PHI) (DLTA) (DLTA) (PI) (PI) (DLTA) (DLTA) (SG)
                 (PI) (PI) (SG) (PI) (PI) (SG) (SG) (DLTA) (DLTA)
                 (PI) (PI) (SG) (PI) (PI) (SG) (DLTA) (DLTA) (PI)
                 (PI) (PHI) (PHI) (DLTA) (DLTA) (?A) (?A) (SG)
                 (PHI) (PHI) (PI) (PI) (SG) (DLTA) (DLTA) (SG)
                 (PHI) (PHI) (PI) (PI) (PI) (PI) (SG) (SG) (PI)
                 (PI) (DLTA) (DLTA) (SG) (SG) (DLTA) (DLTA) (PI)
                 (PI) (DLTA) (DLTA) (PI) (PI) (SG) (SG) (PI) (PI)
                 (SG) (PHI) (PHI) (DLTA) (DLTA) (PI) (PI) (?B)
                 (?B) (?A) (?A) (?A) (?A) (PHI) (PHI) (DLTA) (DLTA)
                 (PHI) (PHI) (SG) (PI) (PI) (SG) (DLTA) (DLTA)
                 (PI) (PI) (SG) (PI) (PI) (SG) (SG) (PHI) (PHI)
                 (DLTA) (DLTA) (SG) (PI) (PI) (DLTA) (DLTA) (SG)
                 (PI) (PI) (SG) (PI) (PI) (DLTA) (DLTA) (PI) (PI)
                 (SG) (SG) (PHI) (PHI) (DLTA) (DLTA) (PI) (PI)
                 (SG) (?A) (?A) (PHI) (PHI) (DLTA) (DLTA) (PI)
                 (PI) (?B) (?B) (?A) (?A) (PHI) (PHI) (SG) (DLTA)
                 (DLTA) (PI) (PI) (SG) (PI) (PI) (DLTA) (DLTA)
                 (SG) (PI) (PI) (SG) (SG) (DLTA) (DLTA) (PI) (PI)
                 (SG) (PHI) (PHI) (DLTA) (DLTA) (PI) (PI) (SG)
                 (SG) (?A) (?A) (PHI) (PHI) (DLTA) (DLTA) (PI)
                 (PI) (SG) (PI) (PI) (?B) (?B) (?A) (?A) (PHI)
                 (PHI) (SG) (DLTA) (DLTA) (PI) (PI) (SG) (SG) (DLTA)
                 (DLTA) (PI) (PI) (SG) (PI) (PI) (SG) (DLTA) (DLTA)
                 (PI) (PI) (SG) (SG) (PI) (PI) (SG) (DLTA) (DLTA)
                 (PI) (PI) (SG) (SG) (SG) (PI) (PI) (SG) (SG) (DLTA)
                 (DLTA) (PI) (PI) (SG) (SG) (PI) (PI) (SG) (SG)
                 (PI) (PI) (SG) (DLTA) (DLTA) (PI) (PI) (SG) (SG)
                 (PI) (PI) (SG) (SG) (PI) (PI) (SG) (SG) (PI) (PI)
                 (SG) (SG) (SG) (SG)
 The electronic state is 7-SG.
 Alpha  occ. eigenvalues --   -4.13829  -2.76581  -2.76581  -2.76498  -0.65180
 Alpha  occ. eigenvalues --   -0.65005  -0.65005  -0.64372  -0.64372  -0.41412
 Alpha  occ. eigenvalues --   -0.25660
 Alpha virt. eigenvalues --    0.01249   0.01249   0.02115   0.02967   0.05118
 Alpha virt. eigenvalues --    0.05118   0.05659   0.05812   0.05812   0.06195
 Alpha virt. eigenvalues --    0.06195   0.08880   0.13642   0.14234   0.18039
 Alpha virt. eigenvalues --    0.18039   0.18458   0.18458   0.19078   0.19078
 Alpha virt. eigenvalues --    0.19901   0.27854   0.28058   0.28058   0.31562
 Alpha virt. eigenvalues --    0.46043   0.47188   0.47188   0.47717   0.47717
 Alpha virt. eigenvalues --    0.50011   0.50011   0.50713   0.50713   0.52735
 Alpha virt. eigenvalues --    0.56224   0.56224   0.58279   0.60026   0.60026
 Alpha virt. eigenvalues --    0.66573   0.74348   0.80411   0.80411   0.81074
 Alpha virt. eigenvalues --    0.81074   0.99481   1.13601   1.13601   1.27288
 Alpha virt. eigenvalues --    1.33076   1.33076   1.36925   1.36925   1.42494
 Alpha virt. eigenvalues --    1.42494   1.43076   1.43076   1.44878   1.45539
 Alpha virt. eigenvalues --    1.45539   1.45995   1.45995   1.55680   1.55680
 Alpha virt. eigenvalues --    1.61400   1.65055   1.65055   1.76046   1.81032
 Alpha virt. eigenvalues --    1.81032   1.81762   1.81762   1.88128   1.88128
 Alpha virt. eigenvalues --    1.89568   2.12947   2.15753   2.15753   2.16564
 Alpha virt. eigenvalues --    2.16564   2.20033   2.47918   2.70271   2.70271
 Alpha virt. eigenvalues --    2.95697   2.95697   3.22824   3.22824   3.26434
 Alpha virt. eigenvalues --    3.26434   3.34318   3.41744   3.48871   3.48871
 Alpha virt. eigenvalues --    3.87426   3.95012   3.95012   4.01105   4.01105
 Alpha virt. eigenvalues --    4.14061   4.14061   4.26586   4.26586   4.26860
 Alpha virt. eigenvalues --    4.26860   4.28026   4.28026   4.28552   4.28552
 Alpha virt. eigenvalues --    4.34799   4.34799   4.38690   4.38690   4.48259
 Alpha virt. eigenvalues --    4.55004   4.55004   4.61025   4.72579   4.72579
 Alpha virt. eigenvalues --    5.11543   5.11543   5.13599   5.38326   5.38326
 Alpha virt. eigenvalues --    5.49135   6.35927   6.68588   6.68588   6.89235
 Alpha virt. eigenvalues --    6.89235   6.91042   6.91042   6.91374   7.00439
 Alpha virt. eigenvalues --    7.00439   7.29303   7.61713   7.61713   7.61879
 Alpha virt. eigenvalues --    8.57476   8.57476   8.65145   8.65145   9.30738
 Alpha virt. eigenvalues --    9.30738   9.48242   9.62511   9.97784   9.97784
 Alpha virt. eigenvalues --   10.05065  10.05065  10.21702  10.21702  11.00318
 Alpha virt. eigenvalues --   11.19751  11.19751  11.21689  11.21689  11.28599
 Alpha virt. eigenvalues --   11.28599  11.59103  11.59103  11.89021  11.89021
 Alpha virt. eigenvalues --   11.89719  11.89719  11.93750  11.93750  12.06139
 Alpha virt. eigenvalues --   12.10494  12.10494  12.33613  12.33613  12.46115
 Alpha virt. eigenvalues --   13.12779  13.12779  13.40433  13.40433  13.41463
 Alpha virt. eigenvalues --   13.47227  13.47227  13.77305  14.85270  23.92467
 Alpha virt. eigenvalues --   23.92467  23.96952  23.96952  24.19258  24.71666
 Alpha virt. eigenvalues --   24.71666  24.76740  24.76740  24.87845  24.87845
 Alpha virt. eigenvalues --   25.30109  26.88128  27.30319  27.30319  27.31417
 Alpha virt. eigenvalues --   27.31417  27.35006  27.35006  27.51412  27.51412
 Alpha virt. eigenvalues --   27.93661  30.62294  30.62294  30.73423  30.73423
 Alpha virt. eigenvalues --   30.73729  30.73729  30.75528  30.75528  30.80861
 Alpha virt. eigenvalues --   30.82825  30.82825  30.92734  30.92734  31.03806
 Alpha virt. eigenvalues --   32.98187  40.90093  40.90093  40.94479  40.94479
 Alpha virt. eigenvalues --   41.19050  66.53038  66.53038  66.77227  71.43037
 Alpha virt. eigenvalues --   71.43037  71.46958  71.46958  71.68948  75.01341
 Alpha virt. eigenvalues --  133.65340 133.65340 133.86807 144.22839 144.22839
 Alpha virt. eigenvalues --  144.26100 144.26100 144.44908 146.63209 163.24634
 Alpha virt. eigenvalues --  258.27647 258.27647 258.45907 260.92440 372.42251
 Alpha virt. eigenvalues --  372.42251 372.44630 372.44630 372.59418 480.77710
 Alpha virt. eigenvalues --  499.25712 499.25712 499.45615 919.89487 989.50477
 Alpha virt. eigenvalues --  989.50477 989.688221263.763201263.763201263.77805
 Alpha virt. eigenvalues -- 1263.778051263.873431830.582012056.069162056.06916
 Alpha virt. eigenvalues -- 2056.236313806.445604591.825704591.825704591.97470
 Alpha virt. eigenvalues -- 8301.38760****************************************
 Alpha virt. eigenvalues -- ********************
     Molecular Orbital Coefficients:
                           1         2         3         4         5
                           O         O         O         O         O
     Eigenvalues --    -4.13829  -2.76581  -2.76581  -2.76498  -0.65180
   1 1   Mn 1S         -0.00000   0.00000   0.00000   0.00000   0.00000
   2        2S          0.00001   0.00000   0.00000  -0.00000  -0.00000
   3        3S         -0.00003   0.00000   0.00000   0.00000   0.00000
   4        4S          0.00009   0.00000   0.00000  -0.00000  -0.00001
   5        5S         -0.00029   0.00000   0.00000   0.00000   0.00004
   6        6S          0.00084   0.00000   0.00000  -0.00000  -0.00011
   7        7S         -0.00234   0.00000   0.00000   0.00001   0.00031
   8        8S          0.00653   0.00000   0.00000  -0.00003  -0.00089
   9        9S         -0.02088   0.00000   0.00000   0.00009   0.00297
  10       10S          0.10352   0.00000   0.00000  -0.00045  -0.01567
  11       11S         -0.16593   0.00000   0.00000   0.00079   0.02635
  12       12S         -0.33233   0.00000   0.00000   0.00093   0.06458
  13       13S          0.36952   0.00000   0.00000  -0.00089  -0.07106
  14       14S          0.80867   0.00000   0.00000  -0.00200  -0.20056
  15       15S          0.29314   0.00000   0.00000  -0.00049  -0.11565
  16       16S          0.01007   0.00000   0.00000   0.00302   0.21522
  17       17S          0.00082   0.00000   0.00000   0.00334   0.13730
  18       18S          0.00231   0.00000   0.00000  -0.00020  -0.00162
  19       19S         -0.05617   0.00000   0.00000   0.00052  -0.00191
  20       20S         -0.15341   0.00000   0.00000  -0.00195   0.05956
  21       21S         -0.00044   0.00000   0.00000  -0.00020  -0.00849
  22       22PX         0.00000  -0.00000   0.00000   0.00000   0.00000
  23       22PY         0.00000   0.00000  -0.00000   0.00000   0.00000
  24       22PZ         0.00000   0.00000   0.00000  -0.00000  -0.00000
  25       23PX         0.00000   0.00001   0.00000   0.00000   0.00000
  26       23PY         0.00000   0.00000   0.00001   0.00000   0.00000
  27       23PZ        -0.00000   0.00000   0.00000   0.00001   0.00000
  28       24PX         0.00000  -0.00004   0.00000   0.00000   0.00000
  29       24PY         0.00000   0.00000  -0.00004   0.00000   0.00000
  30       24PZ         0.00000   0.00000   0.00000  -0.00004  -0.00001
  31       25PX         0.00000   0.00014   0.00000   0.00000   0.00000
  32       25PY         0.00000   0.00000   0.00014   0.00000   0.00000
  33       25PZ        -0.00001   0.00000   0.00000   0.00014   0.00002
  34       26PX         0.00000  -0.00042   0.00000   0.00000   0.00000
  35       26PY         0.00000   0.00000  -0.00042   0.00000   0.00000
  36       26PZ         0.00002   0.00000   0.00000  -0.00042  -0.00006
  37       27PX         0.00000   0.00100   0.00000   0.00000   0.00000
  38       27PY         0.00000   0.00000   0.00100   0.00000   0.00000
  39       27PZ        -0.00005   0.00000   0.00000   0.00099   0.00016
  40       28PX         0.00000   0.00714   0.00000   0.00000   0.00000
  41       28PY         0.00000   0.00000   0.00714   0.00000   0.00000
  42       28PZ         0.00015   0.00000   0.00000   0.00717   0.00089
  43       29PX         0.00000  -0.06250   0.00000   0.00000   0.00000
  44       29PY         0.00000   0.00000  -0.06250   0.00000   0.00000
  45       29PZ        -0.00052   0.00000   0.00000  -0.06268  -0.00856
  46       30PX         0.00000  -0.01415   0.00000   0.00000   0.00000
  47       30PY         0.00000   0.00000  -0.01415   0.00000   0.00000
  48       30PZ        -0.00419   0.00000   0.00000  -0.01397  -0.00067
  49       31PX         0.00000   0.19308   0.00000   0.00000   0.00000
  50       31PY         0.00000   0.00000   0.19308   0.00000   0.00000
  51       31PZ         0.00023   0.00000   0.00000   0.19334   0.02875
  52       32PX         0.00000   0.20359   0.00000   0.00000   0.00000
  53       32PY         0.00000   0.00000   0.20359   0.00000   0.00000
  54       32PZ         0.00309   0.00000   0.00000   0.20441   0.02896
  55       33PX         0.00000   0.37819   0.00000   0.00000   0.00000
  56       33PY         0.00000   0.00000   0.37819   0.00000   0.00000
  57       33PZ        -0.00048   0.00000   0.00000   0.37656   0.06436
  58       34PX         0.00000   0.16133   0.00000   0.00000   0.00000
  59       34PY         0.00000   0.00000   0.16133   0.00000   0.00000
  60       34PZ         0.00386   0.00000   0.00000   0.15840   0.01861
  61       35PX         0.00000   0.01316   0.00000   0.00000   0.00000
  62       35PY         0.00000   0.00000   0.01316   0.00000   0.00000
  63       35PZ         0.00146   0.00000   0.00000   0.01279  -0.10155
  64       36PX         0.00000  -0.00109   0.00000   0.00000   0.00000
  65       36PY         0.00000   0.00000  -0.00109   0.00000   0.00000
  66       36PZ        -0.00451   0.00000   0.00000  -0.00060  -0.09260
  67       37PX         0.00000   0.00041   0.00000   0.00000   0.00000
  68       37PY         0.00000   0.00000   0.00041   0.00000   0.00000
  69       37PZ         0.00039   0.00000   0.00000   0.00120  -0.01039
  70       38PX         0.00000  -0.02362   0.00000   0.00000   0.00000
  71       38PY         0.00000   0.00000  -0.02362   0.00000   0.00000
  72       38PZ         0.00434   0.00000   0.00000  -0.02365  -0.00413
  73       39PX         0.00000   0.20435   0.00000   0.00000   0.00000
  74       39PY         0.00000   0.00000   0.20435   0.00000   0.00000
  75       39PZ        -0.00098   0.00000   0.00000   0.20527   0.03010
  76       40PX         0.00000  -0.00012   0.00000   0.00000   0.00000
  77       40PY         0.00000   0.00000  -0.00012   0.00000   0.00000
  78       40PZ        -0.00020   0.00000   0.00000   0.00000   0.00284
  79       41D 0       -0.00000   0.00000   0.00000   0.00000   0.00000
  80       41D+1        0.00000   0.00000   0.00000   0.00000   0.00000
  81       41D-1        0.00000   0.00000   0.00000   0.00000   0.00000
  82       41D+2        0.00000   0.00000   0.00000   0.00000   0.00000
  83       41D-2        0.00000   0.00000   0.00000   0.00000   0.00000
  84       42D 0       -0.00000   0.00000   0.00000  -0.00000   0.00001
  85       42D+1        0.00000  -0.00000   0.00000   0.00000   0.00000
  86       42D-1        0.00000   0.00000  -0.00000   0.00000   0.00000
  87       42D+2       -0.00000   0.00000   0.00000  -0.00000  -0.00000
  88       42D-2        0.00000   0.00000   0.00000   0.00000   0.00000
  89       43D 0       -0.00005   0.00000   0.00000   0.00013   0.00224
  90       43D+1        0.00000   0.00002   0.00000   0.00000   0.00000
  91       43D-1        0.00000   0.00000   0.00002   0.00000   0.00000
  92       43D+2        0.00000   0.00000   0.00000   0.00000   0.00000
  93       43D-2        0.00000   0.00000   0.00000   0.00000   0.00000
  94       44D 0       -0.00020   0.00000   0.00000   0.00044   0.00818
  95       44D+1        0.00000   0.00008   0.00000   0.00000   0.00000
  96       44D-1        0.00000   0.00000   0.00008   0.00000   0.00000
  97       44D+2       -0.00000   0.00000   0.00000  -0.00000  -0.00000
  98       44D-2        0.00000   0.00000   0.00000   0.00000   0.00000
  99       45D 0       -0.00023   0.00000   0.00000   0.00120   0.01739
 100       45D+1        0.00000   0.00023   0.00000   0.00000   0.00000
 101       45D-1        0.00000   0.00000   0.00023   0.00000   0.00000
 102       45D+2        0.00000   0.00000   0.00000   0.00000   0.00000
 103       45D-2        0.00000   0.00000   0.00000   0.00000   0.00000
 104       46D 0        0.00037   0.00000   0.00000   0.00374   0.02901
 105       46D+1        0.00000   0.00085   0.00000   0.00000   0.00000
 106       46D-1        0.00000   0.00000   0.00085   0.00000   0.00000
 107       46D+2        0.00000   0.00000   0.00000   0.00000   0.00000
 108       46D-2        0.00000   0.00000   0.00000   0.00000   0.00000
 109       47D 0       -0.00089   0.00000   0.00000   0.00392   0.04268
 110       47D+1        0.00000   0.00077   0.00000   0.00000   0.00000
 111       47D-1        0.00000   0.00000   0.00077   0.00000   0.00000
 112       47D+2        0.00000   0.00000   0.00000   0.00000   0.00000
 113       47D-2        0.00000   0.00000   0.00000   0.00000   0.00000
 114       48D 0       -0.00244   0.00000   0.00000   0.00207   0.04612
 115       48D+1        0.00000   0.00050   0.00000   0.00000   0.00000
 116       48D-1        0.00000   0.00000   0.00050   0.00000   0.00000
 117       48D+2       -0.00000   0.00000   0.00000  -0.00000  -0.00000
 118       48D-2        0.00000   0.00000   0.00000   0.00000   0.00000
 119       49D 0       -0.00213   0.00000   0.00000   0.00180   0.04771
 120       49D+1        0.00000   0.00060   0.00000   0.00000   0.00000
 121       49D-1        0.00000   0.00000   0.00060   0.00000   0.00000
 122       49D+2        0.00000   0.00000   0.00000   0.00000   0.00000
 123       49D-2        0.00000   0.00000   0.00000   0.00000   0.00000
 124       50D 0        0.00202   0.00000   0.00000   0.00137   0.03801
 125       50D+1        0.00000   0.00040   0.00000   0.00000   0.00000
[...]
   1         O                -4.138290          2.067999
   2         O                -2.765809          3.476557
   3         O                -2.765809          3.476557
   4         O                -2.764979          3.477636
   5         O                -0.651796          0.641271
   6         O                -0.650046          6.521915
   7         O                -0.650046          6.521915
   8         O                -0.643724          6.533931
   9         O                -0.643724          6.533931
  10         O                -0.414121          5.042128
  11         O                -0.256596          1.647411
  12         V                 0.012492          0.057417
  13         V                 0.012492          0.057417
  14         V                 0.021155          0.029400
  15         V                 0.029670          0.041086
  16         V                 0.051183          0.068056
  17         V                 0.051183          0.066235
  18         V                 0.056586          0.066235
  19         V                 0.058125          0.145385
  20         V                 0.058125          0.145385
  21         V                 0.061953          0.084425
  22         V                 0.061953          0.084425
  23         V                 0.088797          0.110640
  24         V                 0.136419          0.225604
  25         V                 0.142340          0.289052
  26         V                 0.180392          0.288917
  27         V                 0.180392          0.288917
  28         V                 0.184577          0.300523
  29         V                 0.184577          0.300523
  30         V                 0.190785          0.372200
  31         V                 0.190785          0.372200
  32         V                 0.199005          0.248948
  33         V                 0.278535          0.328355
  34         V                 0.280584          0.300739
  35         V                 0.280584          0.300739
  36         V                 0.315621          0.693026
  37         V                 0.460434          0.807485
  38         V                 0.471879          0.546945
  39         V                 0.471879          0.546945
  40         V                 0.477170          0.548712
  41         V                 0.477170          0.548712
  42         V                 0.500107          1.070880
  43         V                 0.500107          1.070880
  44         V                 0.507129          1.085604
  45         V                 0.507129          1.085604
  46         V                 0.527355          0.679876
  47         V                 0.562245          0.673352
  48         V                 0.562245          0.673352
  49         V                 0.582789          0.829494
  50         V                 0.600260          1.039549
  51         V                 0.600260          1.039549
  52         V                 0.665727          1.172636
  53         V                 0.743483          0.947506
  54         V                 0.804107          0.815329
  55         V                 0.804107          0.815329
  56         V                 0.810743          0.846100
  57         V                 0.810743          0.846100
  58         V                 0.994807          1.347112
  59         V                 1.136010          1.489086
  60         V                 1.136010          1.489086
  61         V                 1.272883          1.613434
  62         V                 1.330756          3.138648
  63         V                 1.330756          3.138648
  64         V                 1.369253          2.919213
  65         V                 1.369253          2.919213
  66         V                 1.424942          1.566017
  67         V                 1.424942          1.566017
  68         V                 1.430761          1.838768
  69         V                 1.430761          1.838768
  70         V                 1.448784          1.640614
  71         V                 1.455393          1.640614
  72         V                 1.455393          2.775199
  73         V                 1.459952          1.903926
  74         V                 1.459952          1.903926
  75         V                 1.556803          1.831803
  76         V                 1.556803          1.831803
  77         V                 1.614000          2.068955
  78         V                 1.650555          1.810599
  79         V                 1.650555          1.810599
  80         V                 1.760457          2.411927
  81         V                 1.810325          1.882288
  82         V                 1.810325          1.882288
  83         V                 1.817623          2.866574
  84         V                 1.817623          2.866574
  85         V                 1.881280          2.152291
  86         V                 1.881280          2.152291
  87         V                 1.895676          2.738083
  88         V                 2.129470          3.113762
  89         V                 2.157531          2.514886
  90         V                 2.157531          2.514886
  91         V                 2.165637          2.260761
  92         V                 2.165637          2.260761
  93         V                 2.200333          2.623883
  94         V                 2.479176          2.986661
  95         V                 2.702708          2.894915
  96         V                 2.702708          2.894915
  97         V                 2.956970          3.218358
  98         V                 2.956970          3.218358
  99         V                 3.228236          7.030412
 100         V                 3.228236          7.030412
 101         V                 3.264344          7.003281
 102         V                 3.264344          7.003281
 103         V                 3.343176          6.026787
 104         V                 3.417443          4.185997
 105         V                 3.488706          3.861607
 106         V                 3.488706          3.861607
 107         V                 3.874264          5.115237
 108         V                 3.950124          5.923078
 109         V                 3.950124          5.923078
 110         V                 4.011050          5.813564
 111         V                 4.011050          5.813564
 112         V                 4.140612          5.776385
 113         V                 4.140612          5.776385
 114         V                 4.265855          4.727182
 115         V                 4.265855          4.727182
 116         V                 4.268604          4.808208
 117         V                 4.268604          4.808208
 118         V                 4.280259          4.985983
 119         V                 4.280259          4.985983
 120         V                 4.285519          4.988813
 121         V                 4.285519          4.988813
 122         V                 4.347988          5.100206
 123         V                 4.347988          5.100206
 124         V                 4.386899          4.908516
 125         V                 4.386899          4.908516
 126         V                 4.482586          5.934215
 127         V                 4.550039          5.277082
 128         V                 4.550039          5.277082
 129         V                 4.610251          5.552682
 130         V                 4.725788          5.318109
 131         V                 4.725788          5.318109
 132         V                 5.115434          6.760487
 133         V                 5.115434          6.760487
 134         V                 5.135988          6.620957
 135         V                 5.383258          6.781371
 136         V                 5.383258          6.781371
 137         V                 5.491348          7.246099
 138         V                 6.359267          8.016497
 139         V                 6.685883          6.835208
 140         V                 6.685883          6.835208
 141         V                 6.892353          9.247753
 142         V                 6.892353          9.247753
 143         V                 6.910425          9.812755
 144         V                 6.910425         12.391191
 145         V                 6.913741         12.391191
 146         V                 7.004386         11.102629
 147         V                 7.004386         11.102629
 148         V                 7.293033          9.895320
 149         V                 7.617125          8.740206
 150         V                 7.617125          8.740206
 151         V                 7.618793          9.989101
 152         V                 8.574755          9.421357
 153         V                 8.574755          9.421357
 154         V                 8.651446          9.063202
 155         V                 8.651446          9.063202
 156         V                 9.307378          9.794966
 157         V                 9.307378          9.794966
 158         V                 9.482420         11.343306
 159         V                 9.625110         10.603743
 160         V                 9.977837         15.281532
 161         V                 9.977837         15.281532
 162         V                10.050647         15.315808
 163         V                10.050647         15.315808
 164         V                10.217020         15.376656
 165         V                10.217020         15.376656
 166         V                11.003182         14.933519
 167         V                11.197507         14.077282
 168         V                11.197507         14.077282
 169         V                11.216888         14.089613
 170         V                11.216888         14.089613
 171         V                11.285988         14.149546
 172         V                11.285988         14.149546
 173         V                11.591029         14.304981
 174         V                11.591029         14.304981
 175         V                11.890212         13.654122
 176         V                11.890212         13.654122
 177         V                11.897186         13.654155
 178         V                11.897186         13.654155
 179         V                11.937503         13.690066
 180         V                11.937503         13.690066
 181         V                12.061389         14.896687
 182         V                12.104936         13.862902
 183         V                12.104936         13.862902
 184         V                12.336132         14.218378
 185         V                12.336132         14.218378
 186         V                12.461147         14.512261
 187         V                13.127790         16.759689
 188         V                13.127790         16.759689
 189         V                13.404329         22.252291
 190         V                13.404329         22.252291
 191         V                13.414626         17.357970
 192         V                13.472269         22.220923
 193         V                13.472269         22.220923
 194         V                13.773050         21.432365
 195         V                14.852701         17.287843
 196         V                23.924671         36.001928
 197         V                23.924671         36.001928
 198         V                23.969520         36.031272
 199         V                23.969520         36.031272
 200         V                24.192584         36.223304
 201         V                24.716656         37.933915
 202         V                24.716656         37.933915
 203         V                24.767404         37.969681
 204         V                24.767404         37.969681
 205         V                24.878451         38.049426
 206         V                24.878451         38.049426
 207         V                25.301091         38.175767
 208         V                26.881283         31.695425
 209         V                27.303193         36.093339
 210         V                27.303193         36.093339
 211         V                27.314167         36.100539
 212         V                27.314167         36.100539
 213         V                27.350063         36.131525
 214         V                27.350063         36.131525
 215         V                27.514117         36.277374
 216         V                27.514117         36.277374
 217         V                27.936608         35.451172
 218         V                30.622940         34.304940
 219         V                30.622940         34.304940
 220         V                30.734233         37.151113
 221         V                30.734233         37.151113
 222         V                30.737292         37.150999
 223         V                30.737292         37.150999
 224         V                30.755281         37.166207
 225         V                30.755281         37.166207
 226         V                30.808613         35.345991
 227         V                30.828249         37.238010
 228         V                30.828249         37.238010
 229         V                30.927341         37.302564
 230         V                30.927341         37.302564
 231         V                31.038059         36.410655
 232         V                32.981871         32.441453
 233         V                40.900926         57.670320
 234         V                40.900926         57.670320
 235         V                40.944788         57.699407
 236         V                40.944788         57.699407
 237         V                41.190496         57.892945
 238         V                66.530381         65.774385
 239         V                66.530381         65.774385
 240         V                66.772273         65.983425
 241         V                71.430368         98.627566
 242         V                71.430368         98.627566
 243         V                71.469577         98.655205
 244         V                71.469577         98.655205
 245         V                71.689485         98.753860
 246         V                75.013413         54.844988
 247         V               133.653397        124.525313
 248         V               133.653397        124.525313
 249         V               133.868066        124.728006
 250         V               144.228387        195.825598
 251         V               144.228387        195.825598
 252         V               144.260995        195.850285
 253         V               144.260995        195.850285
 254         V               144.449085        195.717313
 255         V               146.632086         89.401583
 256         V               163.246340        170.372200
 257         V               258.276472        240.922493
 258         V               258.276472        240.922493
 259         V               258.459071        240.527480
 260         V               260.924401        185.453636
 261         V               372.422508        463.031135
 262         V               372.422508        463.031135
 263         V               372.446302        463.051649
 264         V               372.446302        463.051649
 265         V               372.594177        463.187732
 266         V               480.777098        390.783540
 267         V               499.257118        474.006537
 268         V               499.257118        474.006537
 269         V               499.456150        474.197130
 270         V               919.894866        815.226802
 271         V               989.504766        957.726503
 272         V               989.504766        957.726503
 273         V               989.688219        957.909805
 274         V              1263.763204       1389.305338
 275         V              1263.763204       1389.305338
 276         V              1263.778045       1389.319404
 277         V              1263.778045       1389.319404
 278         V              1263.873430       1389.412354
 279         V              1830.582011       1714.317772
 280         V              2056.069159       2020.050374
 281         V              2056.069159       2020.050374
 282         V              2056.236313       2020.217472
 283         V              3806.445601       3682.667180
 284         V              4591.825697       4553.590927
 285         V              4591.825697       4553.590927
 286         V              4591.974699       4553.739843
 287         V              8301.387596       8173.381794
 288         V             11597.973832      11558.763362
 289         V             11597.973832      11558.763362
 290         V             11598.102034      11558.891516
 291         V             19101.428506      18971.264796
 292         V             47034.122951      46902.933870
 293         V            129552.946734     129421.297375
 Total kinetic energy from orbitals= 9.188249748337D+01
                          Isotropic Fermi Contact Couplings
        Atom                 a.u.       MegaHertz       Gauss      10(-4) cm-1
     1  Mn(55)             0.00006       0.01071       0.00382       0.00357
     2  H(1)               0.01350      10.05978       3.58958       3.35558
 --------------------------------------------------------
       Center         ----  Spin Dipole Couplings  ----
                      3XX-RR        3YY-RR        3ZZ-RR
 --------------------------------------------------------
     1   Atom       -0.126828     -0.126828      0.253656
     2   Atom       -0.168287     -0.168287      0.336575
 --------------------------------------------------------
                        XY            XZ            YZ
 --------------------------------------------------------
     1   Atom        0.000000      0.000000      0.000000
     2   Atom        0.000000      0.000000      0.000000
 --------------------------------------------------------


 ---------------------------------------------------------------------------------
              Anisotropic Spin Dipole Couplings in Principal Axis System
 ---------------------------------------------------------------------------------

       Atom             a.u.   MegaHertz   Gauss  10(-4) cm-1        Axes

              Baa    -0.1268   -16.734    -5.971    -5.582  1.0000  0.0000  0.0000
     1 Mn(55) Bbb    -0.1268   -16.734    -5.971    -5.582 -0.0000  1.0000  0.0000
              Bcc     0.2537    33.468    11.942    11.164  0.0000  0.0000  1.0000
 
              Baa    -0.1683   -89.790   -32.039   -29.951 -0.0000  1.0000  0.0000
     2 H(1)   Bbb    -0.1683   -89.790   -32.039   -29.951  1.0000  0.0000  0.0000
              Bcc     0.3366   179.580    64.079    59.902  0.0000  0.0000  1.0000
 

 ---------------------------------------------------------------------------------

 No NMR shielding tensors so no spin-rotation constants.
 Leave Link  601 at Wed Apr  4 09:45:37 2018, MaxMem= 10737418240 cpu:             137.8 elap:               7.7
 (Enter /home1/apps/gaussian/16rA.03/g16/l9999.exe)
 1\1\GINC-C449-102\SP\ROCCSD(T)-Full\Gen\H1Mn1(7)\AANNABE\04-Apr-2018\0
 \\#P ROCCSD(T)=(maxcyc=150, Full, SaveAmplitudes, ReadAmplitudes)/Gen 
 5d 7f SCF=(maxcycles=300, VShift=400) Integral(NoXCTest) MaxDisk=500GB
  Pop=Full Pseudo=Read Guess=Read\\MnH\\0,7\Mn,0,0.,0.,0.\H,0,0.,0.,1.6
 \\Version=ES64L-G16RevA.03\State=7-SG\HF=-104.2494445\MP2=-104.8562814
 \PUHF=-104.2494445\PMP2-0=-104.8562814\CCSD=-104.8602211\CCSD(T)=-104.
 8770334\RMSD=8.003e-09\PG=C*V [C*(H1Mn1)]\\@


 OPTIMIST - A PESSIMIST WHO LACKS EXPERIENCE
 Job cpu time:       0 days 10 hours 28 minutes 32.7 seconds.
 Elapsed time:       0 days  0 hours 31 minutes 39.9 seconds.
 File lengths (MBytes):  RWF=   7099 Int=      0 D2E=      0 Chk=     31 Scr=      1
 Normal termination of Gaussian 16 at Wed Apr  4 09:45:38 2018.
