 Entering Gaussian System, Link 0=g16
 Initial command:
 /home1/apps/gaussian/16rA.03/g16/l1.exe "/tmp/Gau-63299.inp" -scrdir="/tmp/"
 Entering Link 1 = /home1/apps/gaussian/16rA.03/g16/l1.exe PID=     63300.
  
 Copyright (c) 1988,1990,1992,1993,1995,1998,2003,2009,2016,
            Gaussian, Inc.  All Rights Reserved.
  
 This is part of the Gaussian(R) 16 program.  It is based on
 the Gaussian(R) 09 system (copyright 2009, Gaussian, Inc.),
 the Gaussian(R) 03 system (copyright 2003, Gaussian, Inc.),
 the Gaussian(R) 98 system (copyright 1998, Gaussian, Inc.),
 the Gaussian(R) 94 system (copyright 1995, Gaussian, Inc.),
 the Gaussian 92(TM) system (copyright 1992, Gaussian, Inc.),
 the Gaussian 90(TM) system (copyright 1990, Gaussian, Inc.),
 the Gaussian 88(TM) system (copyright 1988, Gaussian, Inc.),
 the Gaussian 86(TM) system (copyright 1986, Carnegie Mellon
 University), and the Gaussian 82(TM) system (copyright 1983,
 Carnegie Mellon University). Gaussian is a federally registered
 trademark of Gaussian, Inc.
  
 This software contains proprietary and confidential information,
 including trade secrets, belonging to Gaussian, Inc.
  
 This software is provided under written license and may be
 used, copied, transmitted, or stored only in accord with that
 written license.
  
 The following legend is applicable only to US Government
 contracts under FAR:
  
                    RESTRICTED RIGHTS LEGEND
  
 Use, reproduction and disclosure by the US Government is
 subject to restrictions as set forth in subparagraphs (a)
 and (c) of the Commercial Computer Software - Restricted
 Rights clause in FAR 52.227-19.
  
 Gaussian, Inc.
 340 Quinnipiac St., Bldg. 40, Wallingford CT 06492
  
  
 ---------------------------------------------------------------
 Warning -- This program may not be used in any manner that
 competes with the business of Gaussian, Inc. or will provide
 assistance to any competitor of Gaussian, Inc.  The licensee
 of this program is prohibited from giving any competitor of
 Gaussian, Inc. access to this program.  By using this program,
 the user acknowledges that Gaussian, Inc. is engaged in the
 business of creating and licensing software in the field of
 computational chemistry and represents and warrants to the
 licensee that it is not a competitor of Gaussian, Inc. and that
 it will not use this program in any manner prohibited above.
 ---------------------------------------------------------------
  

 Cite this work as:
 Gaussian 16, Revision A.03,
 M. J. Frisch, G. W. Trucks, H. B. Schlegel, G. E. Scuseria, 
 M. A. Robb, J. R. Cheeseman, G. Scalmani, V. Barone, 
 G. A. Petersson, H. Nakatsuji, X. Li, M. Caricato, A. V. Marenich, 
 J. Bloino, B. G. Janesko, R. Gomperts, B. Mennucci, H. P. Hratchian, 
 J. V. Ortiz, A. F. Izmaylov, J. L. Sonnenberg, D. Williams-Young, 
 F. Ding, F. Lipparini, F. Egidi, J. Goings, B. Peng, A. Petrone, 
 T. Henderson, D. Ranasinghe, V. G. Zakrzewski, J. Gao, N. Rega, 
 G. Zheng, W. Liang, M. Hada, M. Ehara, K. Toyota, R. Fukuda, 
 J. Hasegawa, M. Ishida, T. Nakajima, Y. Honda, O. Kitao, H. Nakai, 
 T. Vreven, K. Throssell, J. A. Montgomery, Jr., J. E. Peralta, 
 F. Ogliaro, M. J. Bearpark, J. J. Heyd, E. N. Brothers, K. N. Kudin, 
 V. N. Staroverov, T. A. Keith, R. Kobayashi, J. Normand, 
 K. Raghavachari, A. P. Rendell, J. C. Burant, S. S. Iyengar, 
 J. Tomasi, M. Cossi, J. M. Millam, M. Klene, C. Adamo, R. Cammi, 
 J. W. Ochterski, R. L. Martin, K. Morokuma, O. Farkas, 
 J. B. Foresman, and D. J. Fox, Gaussian, Inc., Wallingford CT, 2016.
 
 ******************************************
 Gaussian 16:  ES64L-G16RevA.03 25-Dec-2016
                22-Apr-2018 
 ******************************************
 %mem=80GB
 %cpu=0-31
 SetSPE:  set environment variable "MP_BIND" = "yes"
 SetSPE:  set environment variable "MP_BLIST" = "0,1,2,3,4,5,6,7,8,9,10,11,12,13,14,15,16,17,18,19,20,21,22,23,24,25,26,27,28,29,30,31"
 Will use up to   32 processors via shared memory.
 %chk=qz.chk
 %rwf=/scratch/04843/gwang18/znh/
 ----------------------------------------------------------------------
 #P ROCCSD(T)=(MaxCyc=150, Full)/Gen SCF=(maxcycle=400, vshift=200) Pse
 udo=Read Integral(NoXCTest) Pop=Regular MaxDisk=500GB Guess=Read IOp(5
 /15=2)
 ----------------------------------------------------------------------
 1/38=1,172=1/1;
 2/12=2,17=6,18=5,40=1/2;
 3/5=7,11=2,16=1,17=8,25=1,30=1,47=8,116=101/1,2,3;
 4/5=1/1;
 5/5=2,7=400,10=200,15=2,38=6/2;
 8/5=-1,6=4,9=120000,10=90/1,4;
 9/5=7,6=150,14=2/13;
 6//1;
 99/5=1,9=1/99;
 Leave Link    1 at Sun Apr 22 02:17:02 2018, MaxMem= 10737418240 cpu:               7.0 elap:               0.2
 (Enter /home1/apps/gaussian/16rA.03/g16/l101.exe)
 ---
 CoH
 ---
 Symbolic Z-matrix:
 Charge =  0 Multiplicity = 3
 Co                    0.        0.        0. 
 H                     0.        0.        1.4 
 
 ITRead=  0  0
 MicOpt= -1 -1
 NAtoms=      2 NQM=        2 NQMF=       0 NMMI=      0 NMMIF=      0
                NMic=       0 NMicF=      0.
                    Isotopes and Nuclear Properties:
 (Nuclear quadrupole moments (NQMom) in fm**2, nuclear magnetic moments (NMagM)
  in nuclear magnetons)

  Atom         1           2
 IAtWgt=          59           1
 AtmWgt=  58.9331978   1.0078250
 NucSpn=           7           1
 AtZEff=  -0.0000000  -0.0000000
 NQMom=   42.0000000   0.0000000
 NMagM=    4.6270000   2.7928460
 AtZNuc=  27.0000000   1.0000000
 Leave Link  101 at Sun Apr 22 02:17:02 2018, MaxMem= 10737418240 cpu:               3.1 elap:               0.1
 (Enter /home1/apps/gaussian/16rA.03/g16/l202.exe)
                          Input orientation:                          
 ---------------------------------------------------------------------
 Center     Atomic      Atomic             Coordinates (Angstroms)
 Number     Number       Type             X           Y           Z
 ---------------------------------------------------------------------
      1         27           0        0.000000    0.000000    0.000000
      2          1           0        0.000000    0.000000    1.400000
 ---------------------------------------------------------------------
 Stoichiometry    CoH(3)
 Framework group  C*V[C*(HCo)]
 Deg. of freedom     1
 Full point group                 C*V     NOp   4
 Largest Abelian subgroup         C2V     NOp   4
 Largest concise Abelian subgroup C1      NOp   1
                         Standard orientation:                         
 ---------------------------------------------------------------------
 Center     Atomic      Atomic             Coordinates (Angstroms)
 Number     Number       Type             X           Y           Z
 ---------------------------------------------------------------------
      1         27           0        0.000000    0.000000    0.050000
      2          1           0        0.000000    0.000000   -1.350000
 ---------------------------------------------------------------------
 Rotational constants (GHZ):           0.0000000         260.2196734         260.2196734
 Leave Link  202 at Sun Apr 22 02:17:02 2018, MaxMem= 10737418240 cpu:               0.7 elap:               0.1
 (Enter /home1/apps/gaussian/16rA.03/g16/l301.exe)
 General basis read from cards:  (5D, 7F)
 Centers:       1
 S 1 1.00
     Exponent=  1.4370220000D+07 Coefficients=  1.0000000000D+00
 S 1 1.00
     Exponent=  2.1515400000D+06 Coefficients=  1.0000000000D+00
 S 1 1.00
     Exponent=  4.8962570000D+05 Coefficients=  1.0000000000D+00
 S 1 1.00
     Exponent=  1.3869030000D+05 Coefficients=  1.0000000000D+00
 S 1 1.00
     Exponent=  4.5249890000D+04 Coefficients=  1.0000000000D+00
 S 1 1.00
     Exponent=  1.6337620000D+04 Coefficients=  1.0000000000D+00
 S 1 1.00
     Exponent=  6.3730730000D+03 Coefficients=  1.0000000000D+00
 S 1 1.00
     Exponent=  2.6439580000D+03 Coefficients=  1.0000000000D+00
 S 1 1.00
     Exponent=  1.1536140000D+03 Coefficients=  1.0000000000D+00
 S 1 1.00
     Exponent=  5.2486060000D+02 Coefficients=  1.0000000000D+00
 S 1 1.00
     Exponent=  2.4730690000D+02 Coefficients=  1.0000000000D+00
 S 1 1.00
     Exponent=  1.1990630000D+02 Coefficients=  1.0000000000D+00
 S 1 1.00
     Exponent=  5.8964290000D+01 Coefficients=  1.0000000000D+00
 S 1 1.00
     Exponent=  2.7136160000D+01 Coefficients=  1.0000000000D+00
 S 1 1.00
     Exponent=  1.3689120000D+01 Coefficients=  1.0000000000D+00
 S 1 1.00
     Exponent=  6.8827710000D+00 Coefficients=  1.0000000000D+00
 S 1 1.00
     Exponent=  3.1446470000D+00 Coefficients=  1.0000000000D+00
 S 1 1.00
     Exponent=  1.5062660000D+00 Coefficients=  1.0000000000D+00
 S 1 1.00
     Exponent=  6.8726800000D-01 Coefficients=  1.0000000000D+00
 S 1 1.00
     Exponent=  1.6097200000D-01 Coefficients=  1.0000000000D+00
 S 1 1.00
     Exponent=  7.3017000000D-02 Coefficients=  1.0000000000D+00
 S 1 1.00
     Exponent=  3.2071000000D-02 Coefficients=  1.0000000000D+00
 S 1 1.00
     Exponent=  6.2451000000D+00 Coefficients=  1.0000000000D+00
 S 1 1.00
     Exponent=  1.7752000000D+00 Coefficients=  1.0000000000D+00
 S 1 1.00
     Exponent=  1.4090000000D-02 Coefficients=  1.0000000000D+00
 P 1 1.00
     Exponent=  4.1961400000D+04 Coefficients=  1.0000000000D+00
 P 1 1.00
     Exponent=  9.9283060000D+03 Coefficients=  1.0000000000D+00
 P 1 1.00
     Exponent=  3.2249710000D+03 Coefficients=  1.0000000000D+00
 P 1 1.00
     Exponent=  1.2352930000D+03 Coefficients=  1.0000000000D+00
 P 1 1.00
     Exponent=  5.2584690000D+02 Coefficients=  1.0000000000D+00
 P 1 1.00
     Exponent=  2.4097620000D+02 Coefficients=  1.0000000000D+00
 P 1 1.00
     Exponent=  1.1664180000D+02 Coefficients=  1.0000000000D+00
 P 1 1.00
     Exponent=  5.8848340000D+01 Coefficients=  1.0000000000D+00
 P 1 1.00
     Exponent=  3.0529100000D+01 Coefficients=  1.0000000000D+00
 P 1 1.00
     Exponent=  1.6169430000D+01 Coefficients=  1.0000000000D+00
 P 1 1.00
     Exponent=  8.6642360000D+00 Coefficients=  1.0000000000D+00
 P 1 1.00
     Exponent=  4.5919430000D+00 Coefficients=  1.0000000000D+00
 P 1 1.00
     Exponent=  2.3810480000D+00 Coefficients=  1.0000000000D+00
 P 1 1.00
     Exponent=  1.2062460000D+00 Coefficients=  1.0000000000D+00
 P 1 1.00
     Exponent=  5.8882200000D-01 Coefficients=  1.0000000000D+00
 P 1 1.00
     Exponent=  2.2489300000D-01 Coefficients=  1.0000000000D+00
 P 1 1.00
     Exponent=  9.0448000000D-02 Coefficients=  1.0000000000D+00
 P 1 1.00
     Exponent=  3.5820000000D-02 Coefficients=  1.0000000000D+00
 P 1 1.00
     Exponent=  9.4150000000D+00 Coefficients=  1.0000000000D+00
 P 1 1.00
     Exponent=  2.5758000000D+00 Coefficients=  1.0000000000D+00
 P 1 1.00
     Exponent=  1.4190000000D-02 Coefficients=  1.0000000000D+00
 D 1 1.00
     Exponent=  3.7156600000D+02 Coefficients=  1.0000000000D+00
 D 1 1.00
     Exponent=  1.1011500000D+02 Coefficients=  1.0000000000D+00
 D 1 1.00
     Exponent=  4.2425500000D+01 Coefficients=  1.0000000000D+00
 D 1 1.00
     Exponent=  1.8336900000D+01 Coefficients=  1.0000000000D+00
 D 1 1.00
     Exponent=  8.4573000000D+00 Coefficients=  1.0000000000D+00
 D 1 1.00
     Exponent=  4.0417900000D+00 Coefficients=  1.0000000000D+00
 D 1 1.00
     Exponent=  1.9260300000D+00 Coefficients=  1.0000000000D+00
 D 1 1.00
     Exponent=  8.9428100000D-01 Coefficients=  1.0000000000D+00
 D 1 1.00
     Exponent=  3.9798800000D-01 Coefficients=  1.0000000000D+00
 D 1 1.00
     Exponent=  1.6650000000D-01 Coefficients=  1.0000000000D+00
 D 1 1.00
     Exponent=  6.3025000000D-02 Coefficients=  1.0000000000D+00
 D 1 1.00
     Exponent=  6.2748000000D+00 Coefficients=  1.0000000000D+00
 D 1 1.00
     Exponent=  3.3097000000D+00 Coefficients=  1.0000000000D+00
 D 1 1.00
     Exponent=  2.3860000000D-02 Coefficients=  1.0000000000D+00
 F 1 1.00
     Exponent=  8.9724000000D+00 Coefficients=  1.0000000000D+00
 F 1 1.00
     Exponent=  3.7773000000D+00 Coefficients=  1.0000000000D+00
 F 1 1.00
     Exponent=  1.5902000000D+00 Coefficients=  1.0000000000D+00
 F 1 1.00
     Exponent=  5.3630000000D-01 Coefficients=  1.0000000000D+00
 F 1 1.00
     Exponent=  1.8087000000D-01 Coefficients=  1.0000000000D+00
 G 1 1.00
     Exponent=  7.3377000000D+00 Coefficients=  1.0000000000D+00
 G 1 1.00
     Exponent=  3.2254000000D+00 Coefficients=  1.0000000000D+00
 G 1 1.00
     Exponent=  1.2510000000D+00 Coefficients=  1.0000000000D+00
 G 1 1.00
     Exponent=  4.8521000000D-01 Coefficients=  1.0000000000D+00
 H 1 1.00
     Exponent=  6.7172000000D+00 Coefficients=  1.0000000000D+00
 H 1 1.00
     Exponent=  2.7485000000D+00 Coefficients=  1.0000000000D+00
 H 1 1.00
     Exponent=  1.1246100000D+00 Coefficients=  1.0000000000D+00
 ****
 Centers:       2
 S 1 1.00
     Exponent=  8.2640000000D+01 Coefficients=  1.0000000000D+00
 S 1 1.00
     Exponent=  1.2410000000D+01 Coefficients=  1.0000000000D+00
 S 1 1.00
     Exponent=  2.8240000000D+00 Coefficients=  1.0000000000D+00
 S 1 1.00
     Exponent=  7.9770000000D-01 Coefficients=  1.0000000000D+00
 S 1 1.00
     Exponent=  2.5810000000D-01 Coefficients=  1.0000000000D+00
 S 1 1.00
     Exponent=  8.9890000000D-02 Coefficients=  1.0000000000D+00
 S 1 1.00
     Exponent=  2.3630000000D-02 Coefficients=  1.0000000000D+00
 P 1 1.00
     Exponent=  2.2920000000D+00 Coefficients=  1.0000000000D+00
 P 1 1.00
     Exponent=  8.3800000000D-01 Coefficients=  1.0000000000D+00
 P 1 1.00
     Exponent=  2.9200000000D-01 Coefficients=  1.0000000000D+00
 P 1 1.00
     Exponent=  8.4800000000D-02 Coefficients=  1.0000000000D+00
 D 1 1.00
     Exponent=  2.0620000000D+00 Coefficients=  1.0000000000D+00
 D 1 1.00
     Exponent=  6.6200000000D-01 Coefficients=  1.0000000000D+00
 D 1 1.00
     Exponent=  1.9000000000D-01 Coefficients=  1.0000000000D+00
 F 1 1.00
     Exponent=  1.3970000000D+00 Coefficients=  1.0000000000D+00
 F 1 1.00
     Exponent=  3.6000000000D-01 Coefficients=  1.0000000000D+00
 ****
 ======================================================================================================
                                       Pseudopotential Parameters
 ======================================================================================================
  Center     Atomic      Valence      Angular      Power
  Number     Number     Electrons     Momentum     of R      Exponent        Coefficient   SO-Coeffient
 ======================================================================================================
    1         27           17
                                      F and up 
                                                     2        1.0000000        0.00000000    0.00000000
                                      S - F
                                                     2       23.6600000      283.96056600    0.00000000
                                                     2       10.6100000       47.15684600    0.00000000
                                      P - F
                                                     2       25.0400000      182.21223600    0.00000000
                                                     2       10.4400000       35.23335200    0.00000000
                                      D - F
                                                     2       29.5400000      -26.47533300    0.00000000
                                                     2       10.1800000       -1.82578700    0.00000000
    2          1            1
                                      P and up 
                                                     2       21.7769666      -10.85192405    0.00000000
                                                     1       21.2435951        1.00000000    0.00000000
                                                     3       21.2435951       21.24359508    0.00000000
                                      S - P
                                                     2        1.0000000        0.00000000    0.00000000
 ======================================================================================================
 Ernie: Thresh=  0.10000D-02 Tol=  0.10000D-05 Strict=F.
 There are   171 symmetry adapted cartesian basis functions of A1  symmetry.
 There are    45 symmetry adapted cartesian basis functions of A2  symmetry.
 There are    93 symmetry adapted cartesian basis functions of B1  symmetry.
 There are    93 symmetry adapted cartesian basis functions of B2  symmetry.
 There are   126 symmetry adapted basis functions of A1  symmetry.
 There are    38 symmetry adapted basis functions of A2  symmetry.
 There are    73 symmetry adapted basis functions of B1  symmetry.
 There are    73 symmetry adapted basis functions of B2  symmetry.
   310 basis functions,   402 primitive gaussians,   402 cartesian basis functions
    10 alpha electrons        8 beta electrons
       nuclear repulsion energy         6.4257232755 Hartrees.
 IExCor=    0 DFT=F Ex=HF Corr=None ExCW=0 ScaHFX=  1.000000
 ScaDFX=  1.000000  1.000000  1.000000  1.000000 ScalE2=  1.000000  1.000000
 IRadAn=      5 IRanWt=     -1 IRanGd=            0 ICorTp=0 IEmpDi=  4
 NAtoms=    2 NActive=    2 NUniq=    2 SFac= 1.00D+00 NAtFMM=   60 NAOKFM=F Big=F
 Integral buffers will be    131072 words long.
 Raffenetti 2 integral format.
 Two-electron integral symmetry is turned on.
 Leave Link  301 at Sun Apr 22 02:17:03 2018, MaxMem= 10737418240 cpu:               8.3 elap:               0.3
 (Enter /home1/apps/gaussian/16rA.03/g16/l302.exe)
 NPDir=0 NMtPBC=     1 NCelOv=     1 NCel=       1 NClECP=     1 NCelD=      1
         NCelK=      1 NCelE2=     1 NClLst=     1 CellRange=     0.0.
 One-electron integrals computed using PRISM.
 One-electron integral symmetry used in STVInt
   4 Symmetry operations used in ECPInt.
 ECPInt:  NShTT=    3916 NPrTT=    3916 LenC2=    3868 LenP2D=    3867.
 LDataN:  DoStor=T MaxTD1=10 Len=  848
 NBasis=   310 RedAO= T EigKep=  4.13D-06  NBF=   126    38    73    73
 NBsUse=   306 1.00D-06 EigRej=  5.57D-07 NBFU=   124    38    72    72
 Leave Link  302 at Sun Apr 22 02:17:06 2018, MaxMem= 10737418240 cpu:              94.0 elap:               3.0
 (Enter /home1/apps/gaussian/16rA.03/g16/l303.exe)
 DipDrv:  MaxL=1.
 Leave Link  303 at Sun Apr 22 02:17:06 2018, MaxMem= 10737418240 cpu:               3.0 elap:               0.2
 (Enter /home1/apps/gaussian/16rA.03/g16/l401.exe)
 Initial guess from the checkpoint file:  "qz.chk"
 B after Tr=     0.000000    0.000000    0.000000
         Rot=    1.000000    0.000000    0.000000    0.000000 Ang=   0.00 deg.
 Guess basis will be translated and rotated to current coordinates.
 JPrj=2 DoOrth=T DoCkMO=T.
 Initial guess orbital symmetries:
       Occupied  (SG) (SG) (PI) (PI) (PI) (PI) (DLTA) (SG) (SG)
                 (DLTA)
       Virtual   (SG) (PI) (PI) (SG) (SG) (PI) (PI) (SG) (DLTA)
                 (DLTA) (PI) (PI) (SG) (SG) (SG) (PI) (PI) (SG)
                 (PI) (PI) (DLTA) (SG) (DLTA) (PI) (PI) (SG) (SG)
                 (SG) (DLTA) (DLTA) (PI) (PI) (SG) (PI) (PI) (PHI)
                 (PHI) (SG) (PI) (PI) (?A) (?A) (PI) (PI) (SG)
                 (?A) (?A) (SG) (PI) (PI) (SG) (SG) (SG) (PI) (PI)
                 (SG) (PI) (PI) (PHI) (PHI) (DLTA) (DLTA) (SG)
                 (PI) (PI) (SG) (?A) (?A) (?A) (?A) (?B) (?B) (?C)
                 (?C) (?C) (?C) (PI) (PI) (DLTA) (DLTA) (SG) (SG)
                 (PI) (PI) (SG) (SG) (PI) (PI) (SG) (DLTA) (DLTA)
                 (PI) (PI) (SG) (PHI) (PHI) (DLTA) (DLTA) (PI)
                 (PI) (SG) (SG) (?B) (?B) (?C) (?C) (DLTA) (DLTA)
                 (?C) (?C) (SG) (PI) (PI) (SG) (SG) (DLTA) (DLTA)
                 (PI) (PI) (SG) (?C) (?C) (DLTA) (DLTA) (?C) (?C)
                 (SG) (PI) (PI) (SG) (?D) (?D) (?C) (?C) (DLTA)
                 (DLTA) (?C) (?C) (?D) (SG) (DLTA) (DLTA) (PI)
                 (PI) (SG) (PI) (PI) (SG) (DLTA) (DLTA) (PI) (PI)
                 (SG) (SG) (SG) (PI) (PI) (SG) (SG) (DLTA) (DLTA)
                 (PI) (PI) (SG) (PI) (PI) (SG) (SG) (PI) (PI) (SG)
                 (SG) (DLTA) (DLTA) (PI) (PI) (SG) (PI) (PI) (SG)
                 (SG) (PI) (PI) (SG) (SG) (PI) (PI) (SG) (SG) (PI)
                 (PI) (SG) (SG) (PI) (PI) (SG) (SG) (SG) (PI) (PI)
                 (SG) (SG) (SG) (SG) (SG) (DLTA) (DLTA) (SG) (SG)
                 (SG) (SG) (DLTA) (SG) (SG) (DLTA) (SG) (DLTA)
                 (SG) (?B) (SG) (SG) (DLTA) (SG) (DLTA) (?B) (DLTA)
                 (SG) (SG) (DLTA) (SG) (DLTA) (SG) (DLTA) (?B)
                 (?B) (DLTA) (DLTA) (DLTA) (DLTA) (DLTA) (?B) (DLTA)
                 (DLTA) (?B) (DLTA) (DLTA) (DLTA) (DLTA) (?B) (?B)
                 (PI) (PI) (PI) (PI) (PI) (PHI) (PI) (PHI) (PI)
                 (PI) (PI) (PHI) (?E) (PI) (PHI) (PI) (PI) (PHI)
                 (PI) (PHI) (?E) (PHI) (?E) (PI) (PI) (PI) (PI)
                 (PI) (PHI) (PI) (PHI) (PI) (PI) (PI) (PHI) (?E)
                 (PI) (PHI) (PI) (PI) (PHI) (PI) (PHI) (?E) (PHI)
                 (?E)
 Leave Link  401 at Sun Apr 22 02:17:07 2018, MaxMem= 10737418240 cpu:              16.7 elap:               0.6
 (Enter /home1/apps/gaussian/16rA.03/g16/l502.exe)
 Keep R1 and R2 ints in memory in symmetry-blocked form, NReq=1456552531.
 FoFCou: FMM=F IPFlag=           8 FMFlag=           0 FMFlg1=           0
         NFxFlg=           0 DoJE=F BraDBF=F KetDBF=F FulRan=T
         wScrn=  0.000000 ICntrl=       600 IOpCl=  0 I1Cent=           0 NGrid=           0
         NMat0=    1 NMatS0=  48205 NMatT0=    0 NMatD0=    1 NMtDS0=    0 NMtDT0=    0
 Petite list used in FoFCou.
 Restricted open shell SCF:
 Using DIIS extrapolation, IDIIS=  1040.
 NGot= 10737418240 LenX= 10147857266 LenY= 10147695221
 Requested convergence on RMS density matrix=1.00D-08 within 400 cycles.
 Requested convergence on MAX density matrix=1.00D-06.
 Requested convergence on             energy=1.00D-06.
 Virtual orbitals will be shifted by   0.200 hartree.
 No special actions if energy rises.

 Cycle   1  Pass 1  IDiag  1:
 E= -145.405607996255    
 DIIS: error= 8.70D-01 at cycle   1 NSaved=   1.
 NSaved= 1 IEnMin= 1 EnMin= -145.405607996255     IErMin= 1 ErrMin= 8.70D-01
 ErrMax= 8.70D-01  0.00D+00 EMaxC= 1.00D-01 BMatC= 9.57D+01 BMatP= 9.57D+01
 IDIUse=3 WtCom= 0.00D+00 WtEn= 1.00D+00
 Coeff-Com:  0.100D+01
 Coeff-En:   0.100D+01
 Coeff:      0.100D+01
 Gap=     0.011 Goal=   None    Shift=    0.200
 GapD=    0.011 DampG=0.250 DampE=0.125 DampFc=0.1250 IDamp=-1.
 Damping current iteration by 1.25D-01
 RMSDP=9.73D-04 MaxDP=1.21D-01              OVMax= 4.35D-03

 Cycle   2  Pass 1  IDiag  1:
 E= -145.405645467818     Delta-E=       -0.000037471562 Rises=F Damp=T
 DIIS: error= 7.61D-01 at cycle   2 NSaved=   2.
 NSaved= 2 IEnMin= 2 EnMin= -145.405645467818     IErMin= 2 ErrMin= 7.61D-01
 ErrMax= 7.61D-01  0.00D+00 EMaxC= 1.00D-01 BMatC= 7.33D+01 BMatP= 9.57D+01
 IDIUse=3 WtCom= 0.00D+00 WtEn= 1.00D+00
 Coeff-Com: -0.700D+01 0.800D+01
 Coeff-En:   0.000D+00 0.100D+01
 Coeff:      0.000D+00 0.100D+01
 Gap=     0.010 Goal=   None    Shift=    0.200
 RMSDP=8.61D-04 MaxDP=1.07D-01 DE=-3.75D-05 OVMax= 2.82D-03

 Cycle   3  Pass 1  IDiag  1:
 E= -145.405921964319     Delta-E=       -0.000276496502 Rises=F Damp=F
 DIIS: error= 2.11D-04 at cycle   3 NSaved=   3.
 NSaved= 3 IEnMin= 3 EnMin= -145.405921964319     IErMin= 3 ErrMin= 2.11D-04
 ErrMax= 2.11D-04  0.00D+00 EMaxC= 1.00D-01 BMatC= 2.95D-06 BMatP= 7.33D+01
 IDIUse=3 WtCom= 9.98D-01 WtEn= 2.11D-03
 Coeff-Com: -0.413D+00 0.472D+00 0.941D+00
 Coeff-En:   0.000D+00 0.000D+00 0.100D+01
 Coeff:     -0.412D+00 0.471D+00 0.941D+00
 Gap=     0.010 Goal=   None    Shift=    0.200
 RMSDP=3.00D-05 MaxDP=2.54D-03 DE=-2.76D-04 OVMax= 5.09D-04

 Cycle   4  Pass 1  IDiag  1:
 E= -145.405923915478     Delta-E=       -0.000001951159 Rises=F Damp=F
 DIIS: error= 2.02D-04 at cycle   4 NSaved=   4.
 NSaved= 4 IEnMin= 4 EnMin= -145.405923915478     IErMin= 4 ErrMin= 2.02D-04
 ErrMax= 2.02D-04  0.00D+00 EMaxC= 1.00D-01 BMatC= 1.27D-06 BMatP= 2.95D-06
 IDIUse=3 WtCom= 9.98D-01 WtEn= 2.02D-03
 Coeff-Com: -0.383D+00 0.438D+00-0.256D+00 0.120D+01
 Coeff-En:   0.000D+00 0.000D+00 0.000D+00 0.100D+01
 Coeff:     -0.382D+00 0.437D+00-0.255D+00 0.120D+01
 Gap=     0.010 Goal=   None    Shift=    0.200
 RMSDP=6.32D-06 MaxDP=5.04D-04 DE=-1.95D-06 OVMax= 1.94D-04

 Cycle   5  Pass 1  IDiag  1:
 E= -145.405924279136     Delta-E=       -0.000000363657 Rises=F Damp=F
 DIIS: error= 1.92D-04 at cycle   5 NSaved=   5.
 NSaved= 5 IEnMin= 5 EnMin= -145.405924279136     IErMin= 5 ErrMin= 1.92D-04
 ErrMax= 1.92D-04  0.00D+00 EMaxC= 1.00D-01 BMatC= 1.06D-06 BMatP= 1.27D-06
 IDIUse=3 WtCom= 9.98D-01 WtEn= 1.92D-03
 Coeff-Com: -0.365D+00 0.417D+00-0.140D+00 0.148D+00 0.940D+00
 Coeff-En:   0.000D+00 0.000D+00 0.000D+00 0.000D+00 0.100D+01
 Coeff:     -0.364D+00 0.416D+00-0.140D+00 0.147D+00 0.940D+00
 Gap=     0.010 Goal=   None    Shift=    0.200
 RMSDP=2.41D-06 MaxDP=2.02D-04 DE=-3.64D-07 OVMax= 1.69D-04

 Cycle   6  Pass 1  IDiag  1:
 E= -145.405924523308     Delta-E=       -0.000000244172 Rises=F Damp=F
 DIIS: error= 1.78D-04 at cycle   6 NSaved=   6.
 NSaved= 6 IEnMin= 6 EnMin= -145.405924523308     IErMin= 6 ErrMin= 1.78D-04
 ErrMax= 1.78D-04  0.00D+00 EMaxC= 1.00D-01 BMatC= 9.18D-07 BMatP= 1.06D-06
 IDIUse=3 WtCom= 9.98D-01 WtEn= 1.78D-03
 Coeff-Com: -0.341D+00 0.390D+00-0.609D-01-0.249D+00 0.468D+00 0.793D+00
 Coeff-En:   0.000D+00 0.000D+00 0.000D+00 0.000D+00 0.000D+00 0.100D+01
 Coeff:     -0.341D+00 0.390D+00-0.608D-01-0.249D+00 0.467D+00 0.793D+00
 Gap=     0.010 Goal=   None    Shift=    0.200
 RMSDP=1.50D-06 MaxDP=1.34D-04 DE=-2.44D-07 OVMax= 1.26D-04

 Cycle   7  Pass 1  IDiag  1:
 E= -145.405924704781     Delta-E=       -0.000000181474 Rises=F Damp=F
 DIIS: error= 1.66D-04 at cycle   7 NSaved=   7.
 NSaved= 7 IEnMin= 7 EnMin= -145.405924704781     IErMin= 7 ErrMin= 1.66D-04
 ErrMax= 1.66D-04  0.00D+00 EMaxC= 1.00D-01 BMatC= 7.95D-07 BMatP= 9.18D-07
 IDIUse=3 WtCom= 9.98D-01 WtEn= 1.66D-03
 Coeff-Com: -0.325D+00 0.372D+00-0.549D-01-0.183D+00 0.207D+00 0.392D+00
 Coeff-Com:  0.592D+00
 Coeff-En:   0.000D+00 0.000D+00 0.000D+00 0.000D+00 0.000D+00 0.000D+00
 Coeff-En:   0.100D+01
 Coeff:     -0.325D+00 0.371D+00-0.548D-01-0.183D+00 0.207D+00 0.391D+00
 Coeff:      0.593D+00
 Gap=     0.010 Goal=   None    Shift=    0.200
 RMSDP=9.83D-07 MaxDP=8.42D-05 DE=-1.81D-07 OVMax= 5.95D-05

 Cycle   8  Pass 1  IDiag  1:
 E= -145.405924813205     Delta-E=       -0.000000108424 Rises=F Damp=F
 DIIS: error= 1.58D-04 at cycle   8 NSaved=   8.
 NSaved= 8 IEnMin= 8 EnMin= -145.405924813205     IErMin= 8 ErrMin= 1.58D-04
 ErrMax= 1.58D-04  0.00D+00 EMaxC= 1.00D-01 BMatC= 7.18D-07 BMatP= 7.95D-07
 IDIUse=3 WtCom= 9.98D-01 WtEn= 1.58D-03
 Coeff-Com: -0.295D+00 0.337D+00-0.594D-01-0.522D-01 0.784D-01 0.179D-01
 Coeff-Com: -0.570D+00 0.154D+01
 Coeff-En:   0.000D+00 0.000D+00 0.000D+00 0.000D+00 0.000D+00 0.000D+00
 Coeff-En:   0.000D+00 0.100D+01
 Coeff:     -0.294D+00 0.336D+00-0.593D-01-0.521D-01 0.783D-01 0.178D-01
 Coeff:     -0.569D+00 0.154D+01
 Gap=     0.010 Goal=   None    Shift=    0.200
 RMSDP=1.53D-06 MaxDP=1.18D-04 DE=-1.08D-07 OVMax= 7.10D-05

 Cycle   9  Pass 1  IDiag  1:
 E= -145.405924946551     Delta-E=       -0.000000133346 Rises=F Damp=F
 DIIS: error= 1.47D-04 at cycle   9 NSaved=   9.
 NSaved= 9 IEnMin= 9 EnMin= -145.405924946551     IErMin= 9 ErrMin= 1.47D-04
 ErrMax= 1.47D-04  0.00D+00 EMaxC= 1.00D-01 BMatC= 6.18D-07 BMatP= 7.18D-07
 IDIUse=3 WtCom= 9.99D-01 WtEn= 1.47D-03
 Coeff-Com: -0.296D+00 0.338D+00-0.595D-01-0.546D-01 0.825D-01 0.236D-01
 Coeff-Com: -0.574D+00 0.159D+01-0.467D-01
 Coeff-En:   0.000D+00 0.000D+00 0.000D+00 0.000D+00 0.000D+00 0.000D+00
 Coeff-En:   0.000D+00 0.000D+00 0.100D+01
 Coeff:     -0.296D+00 0.338D+00-0.594D-01-0.545D-01 0.823D-01 0.235D-01
 Coeff:     -0.573D+00 0.158D+01-0.452D-01
 Gap=     0.010 Goal=   None    Shift=    0.200
 RMSDP=3.87D-07 MaxDP=3.39D-05 DE=-1.33D-07 OVMax= 3.17D-05

 Cycle  10  Pass 1  IDiag  1:
 E= -145.405924997900     Delta-E=       -0.000000051349 Rises=F Damp=F
 DIIS: error= 1.42D-04 at cycle  10 NSaved=  10.
 NSaved=10 IEnMin=10 EnMin= -145.405924997900     IErMin=10 ErrMin= 1.42D-04
 ErrMax= 1.42D-04  0.00D+00 EMaxC= 1.00D-01 BMatC= 5.87D-07 BMatP= 6.18D-07
 IDIUse=3 WtCom= 9.99D-01 WtEn= 1.42D-03
 Coeff-Com: -0.282D+00 0.323D+00-0.600D-01-0.283D-01 0.633D-01-0.439D-01
 Coeff-Com: -0.541D+00 0.132D+01-0.613D+00 0.864D+00
 Coeff-En:   0.000D+00 0.000D+00 0.000D+00 0.000D+00 0.000D+00 0.000D+00
 Coeff-En:   0.000D+00 0.000D+00 0.000D+00 0.100D+01
 Coeff:     -0.282D+00 0.322D+00-0.599D-01-0.283D-01 0.632D-01-0.439D-01
 Coeff:     -0.540D+00 0.132D+01-0.612D+00 0.864D+00
 Gap=     0.010 Goal=   None    Shift=    0.200
 RMSDP=6.61D-07 MaxDP=4.02D-05 DE=-5.13D-08 OVMax= 3.54D-05

 Cycle  11  Pass 1  IDiag  1:
 E= -145.405925058973     Delta-E=       -0.000000061073 Rises=F Damp=F
 DIIS: error= 1.37D-04 at cycle  11 NSaved=  11.
 NSaved=11 IEnMin=11 EnMin= -145.405925058973     IErMin=11 ErrMin= 1.37D-04
 ErrMax= 1.37D-04  0.00D+00 EMaxC= 1.00D-01 BMatC= 5.44D-07 BMatP= 5.87D-07
 IDIUse=3 WtCom= 9.99D-01 WtEn= 1.37D-03
 Coeff-Com: -0.242D+00 0.276D+00-0.509D-01-0.282D-01 0.182D-01 0.385D-01
 Coeff-Com: -0.659D-01 0.698D+00-0.160D+01-0.174D+01 0.370D+01
 Coeff-En:   0.000D+00 0.000D+00 0.000D+00 0.000D+00 0.000D+00 0.000D+00
 Coeff-En:   0.000D+00 0.000D+00 0.000D+00 0.000D+00 0.100D+01
 Coeff:     -0.241D+00 0.276D+00-0.509D-01-0.282D-01 0.182D-01 0.384D-01
 Coeff:     -0.658D-01 0.697D+00-0.160D+01-0.174D+01 0.370D+01
 Gap=     0.010 Goal=   None    Shift=    0.200
 RMSDP=1.84D-06 MaxDP=1.44D-04 DE=-6.11D-08 OVMax= 8.07D-05

 Cycle  12  Pass 1  IDiag  1:
 E= -145.405925190538     Delta-E=       -0.000000131565 Rises=F Damp=F
 DIIS: error= 1.25D-04 at cycle  12 NSaved=  12.
 NSaved=12 IEnMin=12 EnMin= -145.405925190538     IErMin=12 ErrMin= 1.25D-04
 ErrMax= 1.25D-04  0.00D+00 EMaxC= 1.00D-01 BMatC= 4.43D-07 BMatP= 5.44D-07
 IDIUse=3 WtCom= 9.99D-01 WtEn= 1.25D-03
 Coeff-Com: -0.180D+00 0.205D+00-0.377D-01-0.144D-01-0.617D-01 0.993D-01
 Coeff-Com:  0.240D+00 0.152D+01-0.512D+01-0.251D+01 0.526D+01 0.160D+01
 Coeff-En:   0.000D+00 0.000D+00 0.000D+00 0.000D+00 0.000D+00 0.000D+00
 Coeff-En:   0.000D+00 0.000D+00 0.000D+00 0.000D+00 0.000D+00 0.100D+01
 Coeff:     -0.179D+00 0.205D+00-0.376D-01-0.143D-01-0.616D-01 0.992D-01
 Coeff:      0.239D+00 0.152D+01-0.511D+01-0.251D+01 0.525D+01 0.160D+01
 Gap=     0.010 Goal=   None    Shift=    0.200
 RMSDP=3.19D-06 MaxDP=2.55D-04 DE=-1.32D-07 OVMax= 1.37D-04

 Cycle  13  Pass 1  IDiag  1:
 E= -145.405925381560     Delta-E=       -0.000000191022 Rises=F Damp=F
 DIIS: error= 1.04D-04 at cycle  13 NSaved=  13.
 NSaved=13 IEnMin=13 EnMin= -145.405925381560     IErMin=13 ErrMin= 1.04D-04
 ErrMax= 1.04D-04  0.00D+00 EMaxC= 1.00D-01 BMatC= 3.01D-07 BMatP= 4.43D-07
 IDIUse=3 WtCom= 9.99D-01 WtEn= 1.04D-03
 Coeff-Com: -0.179D+00 0.205D+00-0.378D-01-0.119D-01-0.627D-01 0.876D-01
 Coeff-Com:  0.209D+00 0.164D+01-0.523D+01-0.234D+01 0.517D+01 0.147D+01
 Coeff-Com:  0.884D-01
 Coeff-En:   0.000D+00 0.000D+00 0.000D+00 0.000D+00 0.000D+00 0.000D+00
 Coeff-En:   0.000D+00 0.000D+00 0.000D+00 0.000D+00 0.000D+00 0.000D+00
 Coeff-En:   0.100D+01
 Coeff:     -0.179D+00 0.204D+00-0.377D-01-0.119D-01-0.626D-01 0.875D-01
 Coeff:      0.209D+00 0.164D+01-0.522D+01-0.234D+01 0.516D+01 0.146D+01
 Coeff:      0.893D-01
 Gap=     0.010 Goal=   None    Shift=    0.200
 RMSDP=7.14D-07 MaxDP=4.66D-05 DE=-1.91D-07 OVMax= 7.02D-05

 Cycle  14  Pass 1  IDiag  1:
 E= -145.405925459548     Delta-E=       -0.000000077988 Rises=F Damp=F
 DIIS: error= 9.46D-05 at cycle  14 NSaved=  14.
 NSaved=14 IEnMin=14 EnMin= -145.405925459548     IErMin=14 ErrMin= 9.46D-05
 ErrMax= 9.46D-05  0.00D+00 EMaxC= 1.00D-01 BMatC= 2.55D-07 BMatP= 3.01D-07
 IDIUse=1 WtCom= 1.00D+00 WtEn= 0.00D+00
 Coeff-Com: -0.178D+00 0.204D+00-0.374D-01-0.158D-01-0.575D-01 0.106D+00
 Coeff-Com:  0.223D+00 0.137D+01-0.431D+01-0.285D+01 0.483D+01 0.183D+01
 Coeff-Com: -0.511D+00 0.410D+00
 Coeff:     -0.178D+00 0.204D+00-0.374D-01-0.158D-01-0.575D-01 0.106D+00
 Coeff:      0.223D+00 0.137D+01-0.431D+01-0.285D+01 0.483D+01 0.183D+01
 Coeff:     -0.511D+00 0.410D+00
 Gap=     0.010 Goal=   None    Shift=    0.200
 RMSDP=6.52D-07 MaxDP=5.98D-05 DE=-7.80D-08 OVMax= 4.25D-05

 Cycle  15  Pass 1  IDiag  1:
 E= -145.405925498968     Delta-E=       -0.000000039420 Rises=F Damp=F
 DIIS: error= 9.01D-05 at cycle  15 NSaved=  15.
 NSaved=15 IEnMin=15 EnMin= -145.405925498968     IErMin=15 ErrMin= 9.01D-05
 ErrMax= 9.01D-05  0.00D+00 EMaxC= 1.00D-01 BMatC= 2.34D-07 BMatP= 2.55D-07
 IDIUse=1 WtCom= 1.00D+00 WtEn= 0.00D+00
 Coeff-Com: -0.114D+00 0.130D+00-0.240D-01-0.586D-02-0.408D-01 0.403D-01
 Coeff-Com:  0.221D-01 0.895D+00-0.711D+00-0.281D+01 0.150D+01 0.112D+01
 Coeff-Com: -0.160D+00-0.261D+01 0.377D+01
 Coeff:     -0.114D+00 0.130D+00-0.240D-01-0.586D-02-0.408D-01 0.403D-01
 Coeff:      0.221D-01 0.895D+00-0.711D+00-0.281D+01 0.150D+01 0.112D+01
 Coeff:     -0.160D+00-0.261D+01 0.377D+01
 Gap=     0.010 Goal=   None    Shift=    0.200
 RMSDP=3.13D-06 MaxDP=2.54D-04 DE=-3.94D-08 OVMax= 1.22D-04

 Cycle  16  Pass 1  IDiag  1:
 E= -145.405925621130     Delta-E=       -0.000000122162 Rises=F Damp=F
 DIIS: error= 7.17D-05 at cycle  16 NSaved=  16.
 NSaved=16 IEnMin=16 EnMin= -145.405925621130     IErMin=16 ErrMin= 7.17D-05
 ErrMax= 7.17D-05  0.00D+00 EMaxC= 1.00D-01 BMatC= 1.43D-07 BMatP= 2.34D-07
 IDIUse=1 WtCom= 1.00D+00 WtEn= 0.00D+00
 Coeff-Com: -0.424D-01 0.485D-01-0.980D-02 0.117D-01-0.247D-01-0.729D-01
 Coeff-Com: -0.275D+00 0.996D+00 0.189D+01-0.204D+01-0.153D+01 0.157D+01
 Coeff-Com: -0.299D+01-0.214D+01 0.348D+01 0.213D+01
 Coeff:     -0.424D-01 0.485D-01-0.980D-02 0.117D-01-0.247D-01-0.729D-01
 Coeff:     -0.275D+00 0.996D+00 0.189D+01-0.204D+01-0.153D+01 0.157D+01
 Coeff:     -0.299D+01-0.214D+01 0.348D+01 0.213D+01
 Gap=     0.010 Goal=   None    Shift=    0.200
 RMSDP=3.72D-06 MaxDP=2.93D-04 DE=-1.22D-07 OVMax= 1.71D-04

 Cycle  17  Pass 1  IDiag  1:
 E= -145.405925743610     Delta-E=       -0.000000122480 Rises=F Damp=F
 DIIS: error= 4.57D-05 at cycle  17 NSaved=  17.
 NSaved=17 IEnMin=17 EnMin= -145.405925743610     IErMin=17 ErrMin= 4.57D-05
 ErrMax= 4.57D-05  0.00D+00 EMaxC= 1.00D-01 BMatC= 5.87D-08 BMatP= 1.43D-07
 IDIUse=1 WtCom= 1.00D+00 WtEn= 0.00D+00
 Coeff-Com: -0.280D-01 0.320D-01-0.683D-02 0.145D-01-0.348D-01-0.651D-01
 Coeff-Com: -0.249D+00 0.102D+01 0.190D+01-0.253D+01-0.122D+01 0.230D+01
 Coeff-Com: -0.349D+01-0.255D+01 0.399D+01 0.115D+01 0.785D+00
 Coeff:     -0.280D-01 0.320D-01-0.683D-02 0.145D-01-0.348D-01-0.651D-01
 Coeff:     -0.249D+00 0.102D+01 0.190D+01-0.253D+01-0.122D+01 0.230D+01
 Coeff:     -0.349D+01-0.255D+01 0.399D+01 0.115D+01 0.785D+00
 Gap=     0.010 Goal=   None    Shift=    0.200
 RMSDP=1.05D-06 MaxDP=5.60D-05 DE=-1.22D-07 OVMax= 1.10D-04

 Cycle  18  Pass 1  IDiag  1:
 E= -145.405925795698     Delta-E=       -0.000000052088 Rises=F Damp=F
 DIIS: error= 3.03D-05 at cycle  18 NSaved=  18.
 NSaved=18 IEnMin=18 EnMin= -145.405925795698     IErMin=18 ErrMin= 3.03D-05
 ErrMax= 3.03D-05  0.00D+00 EMaxC= 1.00D-01 BMatC= 2.88D-08 BMatP= 5.87D-08
 IDIUse=1 WtCom= 1.00D+00 WtEn= 0.00D+00
 Coeff-Com: -0.259D-01 0.296D-01-0.633D-02 0.159D-01-0.530D-01-0.341D-01
 Coeff-Com: -0.186D+00 0.113D+01 0.104D+01-0.324D+01 0.175D+00 0.209D+01
 Coeff-Com: -0.544D+00-0.519D+01 0.475D+01 0.598D-01-0.887D+00 0.186D+01
 Coeff:     -0.259D-01 0.296D-01-0.633D-02 0.159D-01-0.530D-01-0.341D-01
 Coeff:     -0.186D+00 0.113D+01 0.104D+01-0.324D+01 0.175D+00 0.209D+01
 Coeff:     -0.544D+00-0.519D+01 0.475D+01 0.598D-01-0.887D+00 0.186D+01
 Gap=     0.010 Goal=   None    Shift=    0.200
 RMSDP=8.57D-07 MaxDP=7.28D-05 DE=-5.21D-08 OVMax= 6.82D-05

 Cycle  19  Pass 1  IDiag  1:
 E= -145.405925818683     Delta-E=       -0.000000022986 Rises=F Damp=F
 DIIS: error= 2.25D-05 at cycle  19 NSaved=  19.
 NSaved=19 IEnMin=19 EnMin= -145.405925818683     IErMin=19 ErrMin= 2.25D-05
 ErrMax= 2.25D-05  0.00D+00 EMaxC= 1.00D-01 BMatC= 1.70D-08 BMatP= 2.88D-08
 IDIUse=1 WtCom= 1.00D+00 WtEn= 0.00D+00
 Coeff-Com: -0.223D-01 0.255D-01-0.575D-02 0.183D-01-0.499D-01-0.534D-01
 Coeff-Com: -0.213D+00 0.123D+01 0.671D+00-0.287D+01 0.396D+00 0.152D+01
 Coeff-Com: -0.150D+00-0.391D+01 0.345D+01-0.127D+00-0.253D+00-0.141D+00
 Coeff-Com:  0.148D+01
 Coeff:     -0.223D-01 0.255D-01-0.575D-02 0.183D-01-0.499D-01-0.534D-01
 Coeff:     -0.213D+00 0.123D+01 0.671D+00-0.287D+01 0.396D+00 0.152D+01
 Coeff:     -0.150D+00-0.391D+01 0.345D+01-0.127D+00-0.253D+00-0.141D+00
 Coeff:      0.148D+01
 Gap=     0.010 Goal=   None    Shift=    0.200
 RMSDP=6.24D-07 MaxDP=5.27D-05 DE=-2.30D-08 OVMax= 4.87D-05

 Cycle  20  Pass 1  IDiag  1:
 E= -145.405925831178     Delta-E=       -0.000000012495 Rises=F Damp=F
 DIIS: error= 1.77D-05 at cycle  20 NSaved=  20.
 NSaved=20 IEnMin=20 EnMin= -145.405925831178     IErMin=20 ErrMin= 1.77D-05
 ErrMax= 1.77D-05  0.00D+00 EMaxC= 1.00D-01 BMatC= 1.06D-08 BMatP= 1.70D-08
 IDIUse=1 WtCom= 1.00D+00 WtEn= 0.00D+00
 Coeff-Com: -0.927D-02 0.106D-01-0.192D-02-0.469D-02 0.131D-01 0.163D-02
 Coeff-Com: -0.650D-01-0.361D+00 0.270D+01-0.230D+01 0.122D+00 0.455D+00
 Coeff-Com: -0.432D+01 0.669D+01-0.325D+01-0.652D-02 0.236D+01-0.194D+01
 Coeff-Com: -0.556D+01 0.647D+01
 Coeff:     -0.927D-02 0.106D-01-0.192D-02-0.469D-02 0.131D-01 0.163D-02
 Coeff:     -0.650D-01-0.361D+00 0.270D+01-0.230D+01 0.122D+00 0.455D+00
 Coeff:     -0.432D+01 0.669D+01-0.325D+01-0.652D-02 0.236D+01-0.194D+01
 Coeff:     -0.556D+01 0.647D+01
 Gap=     0.010 Goal=   None    Shift=    0.200
 RMSDP=5.84D-07 MaxDP=4.50D-05 DE=-1.25D-08 OVMax= 4.83D-05

 Cycle  21  Pass 1  IDiag  1:
 E= -145.405925840789     Delta-E=       -0.000000009611 Rises=F Damp=F
 DIIS: error= 1.18D-05 at cycle  21 NSaved=  20.
 NSaved=20 IEnMin=20 EnMin= -145.405925840789     IErMin=20 ErrMin= 1.18D-05
 ErrMax= 1.18D-05  0.00D+00 EMaxC= 1.00D-01 BMatC= 5.15D-09 BMatP= 1.06D-08
 IDIUse=1 WtCom= 1.00D+00 WtEn= 0.00D+00
 Coeff-Com: -0.200D-09 0.351D-03-0.804D-02 0.217D-01 0.117D-01-0.299D-01
 Coeff-Com: -0.597D+00 0.278D+01-0.204D+01 0.162D+00 0.704D-01-0.452D+01
 Coeff-Com:  0.799D+01-0.408D+01-0.428D-01 0.248D+01-0.203D+01-0.618D+01
 Coeff-Com:  0.612D+01 0.887D+00
 Coeff:     -0.200D-09 0.351D-03-0.804D-02 0.217D-01 0.117D-01-0.299D-01
 Coeff:     -0.597D+00 0.278D+01-0.204D+01 0.162D+00 0.704D-01-0.452D+01
 Coeff:      0.799D+01-0.408D+01-0.428D-01 0.248D+01-0.203D+01-0.618D+01
 Coeff:      0.612D+01 0.887D+00
 Gap=     0.010 Goal=   None    Shift=    0.200
 RMSDP=4.57D-07 MaxDP=2.86D-05 DE=-9.61D-09 OVMax= 4.23D-05

 Cycle  22  Pass 1  IDiag  1:
 E= -145.405925846417     Delta-E=       -0.000000005628 Rises=F Damp=F
 DIIS: error= 7.14D-06 at cycle  22 NSaved=  20.
 NSaved=20 IEnMin=20 EnMin= -145.405925846417     IErMin=20 ErrMin= 7.14D-06
 ErrMax= 7.14D-06  0.00D+00 EMaxC= 1.00D-01 BMatC= 2.19D-09 BMatP= 5.15D-09
 IDIUse=1 WtCom= 1.00D+00 WtEn= 0.00D+00
 Coeff-Com:  0.735D-04-0.243D-02 0.126D-01-0.609D-02-0.109D+00-0.109D+00
 Coeff-Com:  0.180D+01-0.122D+01-0.140D+00-0.211D+00-0.215D+01 0.317D+01
 Coeff-Com: -0.115D+01 0.232D+00 0.116D+01-0.125D+01-0.236D+01 0.279D+01
 Coeff-Com: -0.287D+01 0.342D+01
 Coeff:      0.735D-04-0.243D-02 0.126D-01-0.609D-02-0.109D+00-0.109D+00
 Coeff:      0.180D+01-0.122D+01-0.140D+00-0.211D+00-0.215D+01 0.317D+01
 Coeff:     -0.115D+01 0.232D+00 0.116D+01-0.125D+01-0.236D+01 0.279D+01
 Coeff:     -0.287D+01 0.342D+01
 Gap=     0.010 Goal=   None    Shift=    0.200
 RMSDP=3.75D-07 MaxDP=3.04D-05 DE=-5.63D-09 OVMax= 2.67D-05

 Cycle  23  Pass 1  IDiag  1:
 E= -145.405925848797     Delta-E=       -0.000000002381 Rises=F Damp=F
 DIIS: error= 5.11D-06 at cycle  23 NSaved=  20.
 NSaved=20 IEnMin=20 EnMin= -145.405925848797     IErMin=20 ErrMin= 5.11D-06
 ErrMax= 5.11D-06  0.00D+00 EMaxC= 1.00D-01 BMatC= 1.07D-09 BMatP= 2.19D-09
 IDIUse=1 WtCom= 1.00D+00 WtEn= 0.00D+00
 Coeff-Com: -0.139D-02 0.111D-01-0.991D-02-0.114D+00-0.442D-01 0.162D+01
 Coeff-Com: -0.113D+01-0.822D-01-0.263D+00-0.178D+01 0.267D+01-0.100D+01
 Coeff-Com:  0.216D+00 0.106D+01-0.121D+01-0.194D+01 0.253D+01-0.272D+01
 Coeff-Com:  0.255D+01 0.636D+00
 Coeff:     -0.139D-02 0.111D-01-0.991D-02-0.114D+00-0.442D-01 0.162D+01
 Coeff:     -0.113D+01-0.822D-01-0.263D+00-0.178D+01 0.267D+01-0.100D+01
 Coeff:      0.216D+00 0.106D+01-0.121D+01-0.194D+01 0.253D+01-0.272D+01
 Coeff:      0.255D+01 0.636D+00
 Gap=     0.010 Goal=   None    Shift=    0.200
 RMSDP=2.92D-07 MaxDP=2.61D-05 DE=-2.38D-09 OVMax= 1.83D-05

 Cycle  24  Pass 1  IDiag  1:
 E= -145.405925849943     Delta-E=       -0.000000001146 Rises=F Damp=F
 DIIS: error= 3.62D-06 at cycle  24 NSaved=  20.
 NSaved=20 IEnMin=20 EnMin= -145.405925849943     IErMin=20 ErrMin= 3.62D-06
 ErrMax= 3.62D-06  0.00D+00 EMaxC= 1.00D-01 BMatC= 5.44D-10 BMatP= 1.07D-09
 IDIUse=1 WtCom= 1.00D+00 WtEn= 0.00D+00
 Coeff-Com:  0.670D-02-0.112D-01-0.107D+00 0.126D-01 0.137D+01-0.111D+01
 Coeff-Com:  0.557D-01-0.234D+00-0.144D+01 0.214D+01-0.775D+00 0.162D+00
 Coeff-Com:  0.832D+00-0.932D+00-0.157D+01 0.211D+01-0.242D+01 0.240D+01
 Coeff-Com: -0.388D+00 0.886D+00
 Coeff:      0.670D-02-0.112D-01-0.107D+00 0.126D-01 0.137D+01-0.111D+01
 Coeff:      0.557D-01-0.234D+00-0.144D+01 0.214D+01-0.775D+00 0.162D+00
 Coeff:      0.832D+00-0.932D+00-0.157D+01 0.211D+01-0.242D+01 0.240D+01
 Coeff:     -0.388D+00 0.886D+00
 Gap=     0.010 Goal=   None    Shift=    0.200
 RMSDP=2.04D-07 MaxDP=1.76D-05 DE=-1.15D-09 OVMax= 1.29D-05

 Cycle  25  Pass 1  IDiag  1:
 E= -145.405925850526     Delta-E=       -0.000000000583 Rises=F Damp=F
 DIIS: error= 2.56D-06 at cycle  25 NSaved=  20.
 NSaved=20 IEnMin=20 EnMin= -145.405925850526     IErMin=20 ErrMin= 2.56D-06
 ErrMax= 2.56D-06  0.00D+00 EMaxC= 1.00D-01 BMatC= 2.83D-10 BMatP= 5.44D-10
 IDIUse=1 WtCom= 1.00D+00 WtEn= 0.00D+00
 Large coefficients: NSaved= 20 BigCof=    0.00 CofMax=   10.00 Det=-2.56D-15
 Inversion failed.  Reducing to 19 matrices.
 Large coefficients: NSaved= 19 BigCof=    0.00 CofMax=   10.00 Det=-2.57D-15
 Inversion failed.  Reducing to 18 matrices.
 Large coefficients: NSaved= 18 BigCof=    0.00 CofMax=   10.00 Det=-2.59D-15
 Inversion failed.  Reducing to 17 matrices.
 Large coefficients: NSaved= 17 BigCof=    0.00 CofMax=   10.00 Det=-2.72D-15
 Inversion failed.  Reducing to 16 matrices.
 Large coefficients: NSaved= 16 BigCof=    0.00 CofMax=   10.00 Det=-2.82D-15
 Inversion failed.  Reducing to 15 matrices.
 Large coefficients: NSaved= 15 BigCof=   18.49 CofMax=   10.00 Det=-3.82D-15
 Inversion failed.  Reducing to 14 matrices.
 Large coefficients: NSaved= 14 BigCof=   18.81 CofMax=   10.00 Det=-3.83D-15
 Inversion failed.  Reducing to 13 matrices.
 Large coefficients: NSaved= 13 BigCof=   17.20 CofMax=   10.00 Det=-4.14D-15
 Inversion failed.  Reducing to 12 matrices.
 Large coefficients: NSaved= 12 BigCof=   16.86 CofMax=   10.00 Det=-4.38D-15
 Inversion failed.  Reducing to 11 matrices.
 Large coefficients: NSaved= 11 BigCof=   17.33 CofMax=   10.00 Det=-4.39D-15
 Inversion failed.  Reducing to 10 matrices.
 Large coefficients: NSaved= 10 BigCof=   17.40 CofMax=   10.00 Det=-4.60D-15
 Inversion failed.  Reducing to  9 matrices.
 Large coefficients: NSaved=  9 BigCof=   16.93 CofMax=   10.00 Det=-4.75D-15
 Inversion failed.  Reducing to  8 matrices.
 Large coefficients: NSaved=  8 BigCof=   17.81 CofMax=   10.00 Det=-4.91D-15
 Inversion failed.  Reducing to  7 matrices.
 Coeff-Com:  0.840D+00-0.795D+00-0.367D+00-0.461D+00 0.248D+01-0.734D+01
 Coeff-Com:  0.664D+01
 Coeff:      0.840D+00-0.795D+00-0.367D+00-0.461D+00 0.248D+01-0.734D+01
 Coeff:      0.664D+01
 Gap=     0.010 Goal=   None    Shift=    0.200
 RMSDP=2.00D-07 MaxDP=1.62D-05 DE=-5.83D-10 OVMax= 9.48D-06

 Cycle  26  Pass 1  IDiag  1:
 E= -145.405925850842     Delta-E=       -0.000000000316 Rises=F Damp=F
 DIIS: error= 1.91D-06 at cycle  26 NSaved=   8.
 NSaved= 8 IEnMin= 8 EnMin= -145.405925850842     IErMin= 8 ErrMin= 1.91D-06
 ErrMax= 1.91D-06  0.00D+00 EMaxC= 1.00D-01 BMatC= 1.46D-10 BMatP= 2.83D-10
 IDIUse=1 WtCom= 1.00D+00 WtEn= 0.00D+00
 Coeff-Com:  0.442D+00-0.420D+00-0.190D+00-0.521D+00 0.345D+01-0.850D+01
 Coeff-Com:  0.600D+01 0.736D+00
 Coeff:      0.442D+00-0.420D+00-0.190D+00-0.521D+00 0.345D+01-0.850D+01
 Coeff:      0.600D+01 0.736D+00
 Gap=     0.010 Goal=   None    Shift=    0.200
 RMSDP=8.48D-08 MaxDP=7.58D-06 DE=-3.16D-10 OVMax= 6.84D-06

 Cycle  27  Pass 1  IDiag  1:
 E= -145.405925851011     Delta-E=       -0.000000000169 Rises=F Damp=F
 DIIS: error= 1.43D-06 at cycle  27 NSaved=   9.
 NSaved= 9 IEnMin= 9 EnMin= -145.405925851011     IErMin= 9 ErrMin= 1.43D-06
 ErrMax= 1.43D-06  0.00D+00 EMaxC= 1.00D-01 BMatC= 7.44D-11 BMatP= 1.46D-10
 IDIUse=1 WtCom= 1.00D+00 WtEn= 0.00D+00
 Coeff-Com:  0.816D-01-0.119D+00 0.712D-01-0.596D+00 0.372D+01-0.826D+01
 Coeff-Com:  0.518D+01 0.177D+00 0.742D+00
 Coeff:      0.816D-01-0.119D+00 0.712D-01-0.596D+00 0.372D+01-0.826D+01
 Coeff:      0.518D+01 0.177D+00 0.742D+00
 Gap=     0.010 Goal=   None    Shift=    0.200
 RMSDP=5.87D-08 MaxDP=5.87D-06 DE=-1.69D-10 OVMax= 5.00D-06

 Cycle  28  Pass 1  IDiag  1:
 E= -145.405925851105     Delta-E=       -0.000000000094 Rises=F Damp=F
 DIIS: error= 9.94D-07 at cycle  28 NSaved=  10.
 NSaved=10 IEnMin=10 EnMin= -145.405925851105     IErMin=10 ErrMin= 9.94D-07
 ErrMax= 9.94D-07  0.00D+00 EMaxC= 1.00D-01 BMatC= 3.85D-11 BMatP= 7.44D-11
 IDIUse=1 WtCom= 1.00D+00 WtEn= 0.00D+00
 Coeff-Com: -0.179D+00 0.129D+00 0.189D+00-0.556D+00 0.334D+01-0.651D+01
 Coeff-Com:  0.349D+01-0.863D-01 0.282D-02 0.118D+01
 Coeff:     -0.179D+00 0.129D+00 0.189D+00-0.556D+00 0.334D+01-0.651D+01
 Coeff:      0.349D+01-0.863D-01 0.282D-02 0.118D+01
 Gap=     0.010 Goal=   None    Shift=    0.200
 RMSDP=5.80D-08 MaxDP=4.97D-06 DE=-9.45D-11 OVMax= 3.42D-06

 Cycle  29  Pass 1  IDiag  1:
 E= -145.405925851160     Delta-E=       -0.000000000055 Rises=F Damp=F
 DIIS: error= 7.08D-07 at cycle  29 NSaved=  11.
 NSaved=11 IEnMin=11 EnMin= -145.405925851160     IErMin=11 ErrMin= 7.08D-07
 ErrMax= 7.08D-07  0.00D+00 EMaxC= 1.00D-01 BMatC= 1.99D-11 BMatP= 3.85D-11
 IDIUse=1 WtCom= 1.00D+00 WtEn= 0.00D+00
 Coeff-Com:  0.573D-01-0.821D-01 0.410D-01-0.122D+00 0.548D+00-0.131D+01
 Coeff-Com:  0.754D+00 0.685D-01-0.196D+00-0.460D+00 0.171D+01
 Coeff:      0.573D-01-0.821D-01 0.410D-01-0.122D+00 0.548D+00-0.131D+01
 Coeff:      0.754D+00 0.685D-01-0.196D+00-0.460D+00 0.171D+01
 Gap=     0.010 Goal=   None    Shift=    0.200
 RMSDP=3.37D-08 MaxDP=3.05D-06 DE=-5.46D-11 OVMax= 2.55D-06

 Cycle  30  Pass 1  IDiag  1:
 E= -145.405925851185     Delta-E=       -0.000000000025 Rises=F Damp=F
 DIIS: error= 4.99D-07 at cycle  30 NSaved=  12.
 NSaved=12 IEnMin=12 EnMin= -145.405925851185     IErMin=12 ErrMin= 4.99D-07
 ErrMax= 4.99D-07  0.00D+00 EMaxC= 1.00D-01 BMatC= 1.04D-11 BMatP= 1.99D-11
 IDIUse=1 WtCom= 1.00D+00 WtEn= 0.00D+00
 Coeff-Com:  0.282D+00-0.285D+00-0.969D-01 0.139D+00-0.737D+00 0.440D+00
 Coeff-Com:  0.224D+00 0.141D+00 0.203D+00-0.633D+00-0.213D+00 0.154D+01
 Coeff:      0.282D+00-0.285D+00-0.969D-01 0.139D+00-0.737D+00 0.440D+00
 Coeff:      0.224D+00 0.141D+00 0.203D+00-0.633D+00-0.213D+00 0.154D+01
 Gap=     0.010 Goal=   None    Shift=    0.200
 RMSDP=3.19D-08 MaxDP=2.96D-06 DE=-2.50D-11 OVMax= 1.68D-06

 Cycle  31  Pass 1  IDiag  1:
 E= -145.405925851196     Delta-E=       -0.000000000011 Rises=F Damp=F
 DIIS: error= 3.72D-07 at cycle  31 NSaved=  13.
 NSaved=13 IEnMin=13 EnMin= -145.405925851196     IErMin=13 ErrMin= 3.72D-07
 ErrMax= 3.72D-07  0.00D+00 EMaxC= 1.00D-01 BMatC= 5.42D-12 BMatP= 1.04D-11
 IDIUse=1 WtCom= 1.00D+00 WtEn= 0.00D+00
 Coeff-Com:  0.291D+00-0.257D+00-0.201D+00 0.375D+00-0.126D+01 0.891D+00
 Coeff-Com:  0.197D+00 0.228D+00 0.176D+00 0.985D-01-0.115D+01-0.493D+00
 Coeff-Com:  0.211D+01
 Coeff:      0.291D+00-0.257D+00-0.201D+00 0.375D+00-0.126D+01 0.891D+00
 Coeff:      0.197D+00 0.228D+00 0.176D+00 0.985D-01-0.115D+01-0.493D+00
 Coeff:      0.211D+01
 Gap=     0.010 Goal=   None    Shift=    0.200
 RMSDP=2.18D-08 MaxDP=2.12D-06 DE=-1.12D-11 OVMax= 1.33D-06

 Cycle  32  Pass 1  IDiag  1:
 E= -145.405925851203     Delta-E=       -0.000000000007 Rises=F Damp=F
 DIIS: error= 2.65D-07 at cycle  32 NSaved=  14.
 NSaved=14 IEnMin=14 EnMin= -145.405925851203     IErMin=14 ErrMin= 2.65D-07
 ErrMax= 2.65D-07  0.00D+00 EMaxC= 1.00D-01 BMatC= 2.82D-12 BMatP= 5.42D-12
 IDIUse=1 WtCom= 1.00D+00 WtEn= 0.00D+00
 Coeff-Com: -0.123D-02 0.588D-01-0.144D+00 0.272D+00-0.579D+00 0.643D+00
 Coeff-Com: -0.332D+00 0.969D-01-0.245D+00-0.654D-01 0.810D+00-0.110D+01
 Coeff-Com: -0.312D-01 0.162D+01
 Coeff:     -0.123D-02 0.588D-01-0.144D+00 0.272D+00-0.579D+00 0.643D+00
 Coeff:     -0.332D+00 0.969D-01-0.245D+00-0.654D-01 0.810D+00-0.110D+01
 Coeff:     -0.312D-01 0.162D+01
 Gap=     0.010 Goal=   None    Shift=    0.200
 RMSDP=1.55D-08 MaxDP=1.33D-06 DE=-6.57D-12 OVMax= 8.78D-07

 Cycle  33  Pass 1  IDiag  1:
 E= -145.405925851206     Delta-E=       -0.000000000003 Rises=F Damp=F
 DIIS: error= 1.86D-07 at cycle  33 NSaved=  15.
 NSaved=15 IEnMin=15 EnMin= -145.405925851206     IErMin=15 ErrMin= 1.86D-07
 ErrMax= 1.86D-07  0.00D+00 EMaxC= 1.00D-01 BMatC= 1.50D-12 BMatP= 2.82D-12
 IDIUse=1 WtCom= 1.00D+00 WtEn= 0.00D+00
 Coeff-Com: -0.490D-01 0.696D-01-0.315D-01 0.211D-01 0.196D+00-0.295D+00
 Coeff-Com: -0.106D-01-0.110D-01-0.280D-01-0.373D-02 0.305D+00-0.403D+00
 Coeff-Com:  0.923D-01-0.331D+00 0.148D+01
 Coeff:     -0.490D-01 0.696D-01-0.315D-01 0.211D-01 0.196D+00-0.295D+00
 Coeff:     -0.106D-01-0.110D-01-0.280D-01-0.373D-02 0.305D+00-0.403D+00
 Coeff:      0.923D-01-0.331D+00 0.148D+01
 Gap=     0.010 Goal=   None    Shift=    0.200
 RMSDP=8.78D-09 MaxDP=6.98D-07 DE=-3.01D-12 OVMax= 6.56D-07

 SCF Done:  E(ROHF) =  -145.405925851     A.U. after   33 cycles
            NFock= 33  Conv=0.88D-08     -V/T= 2.5957
 <Sx>= 0.0000 <Sy>= 0.0000 <Sz>= 1.0000 <S**2>= 2.0000 S= 1.0000
 <L.S>=  0.00000000000    
 KE= 9.112175363953D+01 PE=-3.645976733100D+02 EE= 1.216442705438D+02
 Annihilation of the first spin contaminant:
 S**2 before annihilation     2.0000,   after     2.0000
 Leave Link  502 at Sun Apr 22 02:18:10 2018, MaxMem= 10737418240 cpu:            1634.6 elap:              63.3
 (Enter /home1/apps/gaussian/16rA.03/g16/l801.exe)
 Windowed orbitals will be sorted by symmetry type.
 GenMOA:  NOpAll=  4 NOp2=4 NOpUse=  4 JSym2X=1
 FoFJK:  IHMeth= 1 ICntrl=       0 DoSepK=F KAlg= 0 I1Cent=           0 FoldK=F
 IRaf=         0 NMat=       1 IRICut=       1 DoRegI=T DoRafI=F ISym2E= 1 IDoP0=0 IntGTp=1.
 FoFCou: FMM=F IPFlag=           8 FMFlag=      100000 FMFlg1=           0
         NFxFlg=           0 DoJE=F BraDBF=F KetDBF=F FulRan=T
         wScrn=  0.000000 ICntrl=         0 IOpCl=  1 I1Cent=           0 NGrid=           0
         NMat0=    1 NMatS0=      1 NMatT0=    0 NMatD0=    1 NMtDS0=    0 NMtDT0=    0
 Petite list used in FoFCou.
 <Sx>= 0.0000 <Sy>= 0.0000 <Sz>= 1.0000 <S**2>= 2.0000 S= 1.0000
 Range of M.O.s used for correlation:     1   306
 NBasis=   310 NAE=    10 NBE=     8 NFC=     0 NFV=     0
 NROrb=    306 NOA=    10 NOB=     8 NVA=   296 NVB=   298

 **** Warning!!: The largest alpha MO coefficient is  0.14884734D+03


 **** Warning!!: The largest beta MO coefficient is  0.14877852D+03

 Singles contribution to E2=   -0.6339978077D-02
 Leave Link  801 at Sun Apr 22 02:18:24 2018, MaxMem= 10737418240 cpu:             425.4 elap:              13.3
 (Enter /home1/apps/gaussian/16rA.03/g16/l804.exe)
 Open-shell transformation, MDV= 10737418240 ITran=4 ISComp=2.
 Unit  1 TFree=       2913161 TCopy=       2133721.
 Semi-Direct transformation.
 ModeAB=           2 MOrb=            10 LenV=   10734507575
 LASXX=     35609842 LTotXX=    35609842 LenRXX=    35609842
 LTotAB=    36064058 MaxLAS=   247869180 LenRXY=   247869180
 NonZer=   252596880 LenScr=   380382208 LnRSAI=           0
 LnScr1=           0 LExtra=    12508159 Total=    676369389
 MaxDsk= 67108864000 SrtSym=           F ITran=            4
 DoSDTr:  NPSUse= 32
 JobTyp=1 Pass  1:  I=   1 to  10.
 (rs|ai) integrals will be sorted in core.
 Complete sort for first half transformation.
 First half transformation complete.
 Begin second half transformation for I=  10.
 Begin second half transformation for I=  10.
 Complete sort for second half transformation.
 Second half transformation complete.
 ModeAB=           2 MOrb=             8 LenV=   10734507575
 LASXX=     28710022 LTotXX=    28710022 LenRXX=   198295344
 LTotAB=    27190356 MaxLAS=   198295344 LenRXY=    27190356
 NonZer=   202077504 LenScr=   304305152 LnRSAI=           0
 LnScr1=           0 LExtra=   295987181 Total=    825778033
 MaxDsk= 67108864000 SrtSym=           F ITran=            4
 DoSDTr:  NPSUse= 32
 JobTyp=2 Pass  1:  I=   1 to   8.
 (rs|ai) integrals will be sorted in core.
 Complete sort for first half transformation.
 First half transformation complete.
 Complete sort for second half transformation.
 Second half transformation complete.
 Spin components of T(2) and E(2):
     alpha-alpha T2 =       0.2902473283D-01 E2=     -0.1734193566D+00
     alpha-beta  T2 =       0.9386722808D-01 E2=     -0.6376956958D+00
     beta-beta   T2 =       0.1416152142D-01 E2=     -0.9636214501D-01
 ANorm=    0.1067559535D+01
 E2 =    -0.9138171754D+00 EUMP2 =    -0.14631974302663D+03
 (S**2,0)=  0.20000D+01           (S**2,1)=  0.20000D+01
 E(PUHF)=      -0.14540592585D+03        E(PMP2)=      -0.14631974303D+03
 Leave Link  804 at Sun Apr 22 02:26:52 2018, MaxMem= 10737418240 cpu:           16240.7 elap:             507.8
 (Enter /home1/apps/gaussian/16rA.03/g16/l913.exe)
 CIDS:  MDV= 10737418240.
 IFCWin=0 IBDFC=1 NFBD=     0     0 NFCmp=     0     0 NFFFC=     0     0
 Using original routines for 1st iteration.
 Using DD4UQ or CC4UQ for 2nd and later iterations.
 Keep R2 and R3 ints in memory in symmetry-blocked form, NReq=1456568185.
 FoFCou: FMM=F IPFlag=           8 FMFlag=           0 FMFlg1=           0
         NFxFlg=           0 DoJE=F BraDBF=F KetDBF=F FulRan=T
         wScrn=  0.000000 ICntrl=       600 IOpCl=  0 I1Cent=           0 NGrid=           0
         NMat0=    1 NMatS0=  48205 NMatT0=    0 NMatD0=    1 NMtDS0=    0 NMtDT0=    0
 Petite list used in FoFCou.
 CIDS: In Core Option IDoMem=           1.
 CCSD(T)
 =======
 Iterations= 150 Convergence= 0.100D-06
 Produce multiple copies of IABC intergrals
 Iteration Nr.   1
 **********************
 DD1Dir will call FoFMem   1 times, MxPair=       234
 NAB=    80 NAA=    45 NBB=    28.
 DD1Dir will call FoFMem   1 times, MxPair=       234
 NAB=    80 NAA=    45 NBB=    28.
 MP4(R+Q)= -0.10261338D+00
 Maximum subspace dimension=  5
 A-vector RMS=  2.2071313D-04 Max=  2.4246030D-03 conv= 1.00D-05.
 RLE energy=       -0.9128444789
 E3=        0.10341924D+00        EROMP3=      -0.14621632379D+03
 E4(SDQ)=  -0.73225131D-01        ROMP4(SDQ)=  -0.14628954892D+03
 VARIATIONAL ENERGIES WITH THE FIRST-ORDER WAVEFUNCTION:
 DE(Corr)= -0.91284325     E(Corr)=     -146.31876910    
 NORM(A)=   0.10663415D+01
 Iteration Nr.   2
 **********************
 DD1Dir will call FoFMem   1 times, MxPair=       234
 NAB=    80 NAA=    45 NBB=    28.
 A-vector RMS=  4.1687730D-03 Max=  3.4614248D-02 conv= 1.00D-05.
 RLE energy=       -0.8942060082
 DE(Corr)= -0.80471554     E(CORR)=     -146.21064139     Delta= 1.08D-01
 NORM(A)=   0.10627182D+01
 Iteration Nr.   3
 **********************
 DD1Dir will call FoFMem   1 times, MxPair=       234
 NAB=    80 NAA=    45 NBB=    28.
 A-vector RMS=  3.1858808D-03 Max=  2.9838182D-02 conv= 1.00D-05.
 RLE energy=       -0.8752554595
 DE(Corr)= -0.81495800     E(CORR)=     -146.22088385     Delta=-1.02D-02
 NORM(A)=   0.10631329D+01
 Iteration Nr.   4
 **********************
 DD1Dir will call FoFMem   1 times, MxPair=       234
 NAB=    80 NAA=    45 NBB=    28.
 A-vector RMS=  2.4430913D-03 Max=  2.4152572D-02 conv= 1.00D-05.
 RLE energy=       -0.7852371871
 DE(Corr)= -0.82941660     E(CORR)=     -146.23534245     Delta=-1.45D-02
 NORM(A)=   0.11281292D+01
 Iteration Nr.   5
 **********************
 DD1Dir will call FoFMem   1 times, MxPair=       234
 NAB=    80 NAA=    45 NBB=    28.
 A-vector RMS=  4.9630204D-03 Max=  4.6815001D-02 conv= 1.00D-05.
 RLE energy=       -0.8484952217
 DE(Corr)= -0.91758443     E(CORR)=     -146.32351028     Delta=-8.82D-02
 NORM(A)=   0.11104222D+01
 Iteration Nr.   6
 **********************
 DD1Dir will call FoFMem   1 times, MxPair=       234
 NAB=    80 NAA=    45 NBB=    28.
 A-vector RMS=  9.5568278D-04 Max=  8.8100725D-03 conv= 1.00D-05.
 RLE energy=       -0.8579600939
 DE(Corr)= -0.86883119     E(CORR)=     -146.27475705     Delta= 4.88D-02
 NORM(A)=   0.10927050D+01
 Iteration Nr.   7
 **********************
 DD1Dir will call FoFMem   1 times, MxPair=       234
 NAB=    80 NAA=    45 NBB=    28.
 A-vector RMS=  2.9642689D-04 Max=  3.0207012D-03 conv= 1.00D-05.
 RLE energy=       -0.8560604265
 DE(Corr)= -0.85543633     E(CORR)=     -146.26136218     Delta= 1.34D-02
 NORM(A)=   0.10947789D+01
 Iteration Nr.   8
 **********************
 DD1Dir will call FoFMem   1 times, MxPair=       234
 NAB=    80 NAA=    45 NBB=    28.
 A-vector RMS=  2.5258687D-04 Max=  3.0491862D-03 conv= 1.00D-05.
 RLE energy=       -0.8562642189
 DE(Corr)= -0.85661587     E(CORR)=     -146.26254172     Delta=-1.18D-03
 NORM(A)=   0.10969433D+01
 Iteration Nr.   9
 **********************
 DD1Dir will call FoFMem   1 times, MxPair=       234
 NAB=    80 NAA=    45 NBB=    28.
 A-vector RMS=  1.5369150D-04 Max=  2.1993116D-03 conv= 1.00D-05.
 RLE energy=       -0.8566265806
 DE(Corr)= -0.85645947     E(CORR)=     -146.26238533     Delta= 1.56D-04
 NORM(A)=   0.10987830D+01
 Iteration Nr.  10
 **********************
 DD1Dir will call FoFMem   1 times, MxPair=       234
 NAB=    80 NAA=    45 NBB=    28.
 A-vector RMS=  7.4543568D-05 Max=  8.7625592D-04 conv= 1.00D-05.
 RLE energy=       -0.8566999373
 DE(Corr)= -0.85657762     E(CORR)=     -146.26250347     Delta=-1.18D-04
 NORM(A)=   0.10995890D+01
 Iteration Nr.  11
 **********************
 DD1Dir will call FoFMem   1 times, MxPair=       234
 NAB=    80 NAA=    45 NBB=    28.
 A-vector RMS=  4.8333872D-05 Max=  8.5602049D-04 conv= 1.00D-05.
 RLE energy=       -0.8565643320
 DE(Corr)= -0.85664178     E(CORR)=     -146.26256764     Delta=-6.42D-05
 NORM(A)=   0.10995979D+01
 Iteration Nr.  12
 **********************
 DD1Dir will call FoFMem   1 times, MxPair=       234
 NAB=    80 NAA=    45 NBB=    28.
 A-vector RMS=  2.7047430D-05 Max=  2.8191102D-04 conv= 1.00D-05.
 RLE energy=       -0.8567117617
 DE(Corr)= -0.85668585     E(CORR)=     -146.26261170     Delta=-4.41D-05
 NORM(A)=   0.10995641D+01
 Iteration Nr.  13
 **********************
 DD1Dir will call FoFMem   1 times, MxPair=       234
 NAB=    80 NAA=    45 NBB=    28.
 A-vector RMS=  2.2382299D-05 Max=  2.9910234D-04 conv= 1.00D-05.
 RLE energy=       -0.8566004168
 DE(Corr)= -0.85657996     E(CORR)=     -146.26250581     Delta= 1.06D-04
 NORM(A)=   0.10995201D+01
 Iteration Nr.  14
 **********************
 DD1Dir will call FoFMem   1 times, MxPair=       234
 NAB=    80 NAA=    45 NBB=    28.
 A-vector RMS=  1.1556275D-05 Max=  1.7448435D-04 conv= 1.00D-05.
 RLE energy=       -0.8566007710
 DE(Corr)= -0.85662215     E(CORR)=     -146.26254801     Delta=-4.22D-05
 NORM(A)=   0.10995095D+01
 Iteration Nr.  15
 **********************
 DD1Dir will call FoFMem   1 times, MxPair=       234
 NAB=    80 NAA=    45 NBB=    28.
 A-vector RMS=  9.0978429D-06 Max=  1.3123526D-04 conv= 1.00D-05.
 RLE energy=       -0.8565983529
 DE(Corr)= -0.85660302     E(CORR)=     -146.26252887     Delta= 1.91D-05
 NORM(A)=   0.10995099D+01
 Iteration Nr.  16
 **********************
 DD1Dir will call FoFMem   1 times, MxPair=       234
 NAB=    80 NAA=    45 NBB=    28.
 A-vector RMS=  7.0999924D-06 Max=  9.6859673D-05 conv= 1.00D-05.
 RLE energy=       -0.8565948442
 DE(Corr)= -0.85659729     E(CORR)=     -146.26252314     Delta= 5.73D-06
 NORM(A)=   0.10995260D+01
 Iteration Nr.  17
 **********************
 DD1Dir will call FoFMem   1 times, MxPair=       234
 NAB=    80 NAA=    45 NBB=    28.
 A-vector RMS=  3.5618248D-06 Max=  4.9758081D-05 conv= 1.00D-05.
 RLE energy=       -0.8565947134
 DE(Corr)= -0.85659950     E(CORR)=     -146.26252536     Delta=-2.21D-06
 NORM(A)=   0.10995401D+01
 Iteration Nr.  18
 **********************
 DD1Dir will call FoFMem   1 times, MxPair=       234
 NAB=    80 NAA=    45 NBB=    28.
 A-vector RMS=  2.0439685D-06 Max=  2.9590956D-05 conv= 1.00D-05.
 RLE energy=       -0.8566008778
 DE(Corr)= -0.85660059     E(CORR)=     -146.26252644     Delta=-1.08D-06
 NORM(A)=   0.10995522D+01
 Iteration Nr.  19
 **********************
 DD1Dir will call FoFMem   1 times, MxPair=       234
 NAB=    80 NAA=    45 NBB=    28.
 A-vector RMS=  1.5831972D-06 Max=  2.2657517D-05 conv= 1.00D-05.
 RLE energy=       -0.8565985921
 DE(Corr)= -0.85659806     E(CORR)=     -146.26252391     Delta= 2.52D-06
 NORM(A)=   0.10995602D+01
 Iteration Nr.  20
 **********************
 DD1Dir will call FoFMem   1 times, MxPair=       234
 NAB=    80 NAA=    45 NBB=    28.
 A-vector RMS=  1.0144565D-06 Max=  1.8156960D-05 conv= 1.00D-05.
 RLE energy=       -0.8566005116
 DE(Corr)= -0.85660139     E(CORR)=     -146.26252724     Delta=-3.32D-06
 NORM(A)=   0.10995670D+01
 Iteration Nr.  21
 **********************
 DD1Dir will call FoFMem   1 times, MxPair=       234
 NAB=    80 NAA=    45 NBB=    28.
 A-vector RMS=  6.4285280D-07 Max=  1.1290007D-05 conv= 1.00D-05.
 RLE energy=       -0.8566016518
 DE(Corr)= -0.85660155     E(CORR)=     -146.26252740     Delta=-1.68D-07
 NORM(A)=   0.10995698D+01
 Iteration Nr.  22
 **********************
 DD1Dir will call FoFMem   1 times, MxPair=       234
 NAB=    80 NAA=    45 NBB=    28.
 A-vector RMS=  4.2506313D-07 Max=  6.5731032D-06 conv= 1.00D-05.
 RLE energy=       -0.8566016693
 DE(Corr)= -0.85660132     E(CORR)=     -146.26252718     Delta= 2.29D-07
 NORM(A)=   0.10995725D+01
 Iteration Nr.  23
 **********************
 DD1Dir will call FoFMem   1 times, MxPair=       234
 NAB=    80 NAA=    45 NBB=    28.
 A-vector RMS=  2.7142335D-07 Max=  3.5788746D-06 conv= 1.00D-05.
 RLE energy=       -0.8566018487
 DE(Corr)= -0.85660198     E(CORR)=     -146.26252783     Delta=-6.53D-07
 NORM(A)=   0.10995737D+01
 Iteration Nr.  24
 **********************
 DD1Dir will call FoFMem   1 times, MxPair=       234
 NAB=    80 NAA=    45 NBB=    28.
 A-vector RMS=  1.8223590D-07 Max=  2.0989620D-06 conv= 1.00D-05.
 RLE energy=       -0.8566024190
 DE(Corr)= -0.85660220     E(CORR)=     -146.26252805     Delta=-2.18D-07
 NORM(A)=   0.10995748D+01
 Iteration Nr.  25
 **********************
 DD1Dir will call FoFMem   1 times, MxPair=       234
 NAB=    80 NAA=    45 NBB=    28.
 A-vector RMS=  1.3528815D-07 Max=  1.3973494D-06 conv= 1.00D-05.
 RLE energy=       -0.8566022102
 DE(Corr)= -0.85660206     E(CORR)=     -146.26252791     Delta= 1.33D-07
 NORM(A)=   0.10995752D+01
 Iteration Nr.  26
 **********************
 DD1Dir will call FoFMem   1 times, MxPair=       234
 NAB=    80 NAA=    45 NBB=    28.
 A-vector RMS=  1.1640711D-07 Max=  1.4702635D-06 conv= 1.00D-05.
 RLE energy=       -0.8566023258
 DE(Corr)= -0.85660237     E(CORR)=     -146.26252822     Delta=-3.04D-07
 NORM(A)=   0.10995754D+01
 Iteration Nr.  27
 **********************
 DD1Dir will call FoFMem   1 times, MxPair=       234
 NAB=    80 NAA=    45 NBB=    28.
 A-vector RMS=  9.2670582D-08 Max=  1.8177669D-06 conv= 1.00D-05.
 RLE energy=       -0.8566024580
 DE(Corr)= -0.85660239     E(CORR)=     -146.26252824     Delta=-1.97D-08
 NORM(A)=   0.10995753D+01
 CI/CC converged in   27 iterations to DelEn=-1.97D-08 Conv= 1.00D-07 ErrA1= 9.27D-08 Conv= 1.00D-05
 Wavefunction amplitudes converged. E(Corr)=     -146.26252824    
 Dominant configurations:
 ***********************
 Spin Case        I    J    A    B          Value
    AA           10        11            0.115104D+00
    AA           10        15            0.121857D+00
 Largest amplitude= 1.22D-01
 Time for triples=    45803.04 seconds.
 T4(CCSD)= -0.39458624D-01
 T5(CCSD)=  0.67908806D-02
 CCSD(T)= -0.14629519598D+03
 Discarding MO integrals.
 Leave Link  913 at Sun Apr 22 03:01:57 2018, MaxMem= 10737418240 cpu:           67331.7 elap:            2105.6
 (Enter /home1/apps/gaussian/16rA.03/g16/l601.exe)
 Copying SCF densities to generalized density rwf, IOpCl= 0 IROHF=1.

 **********************************************************************

            Population analysis using the SCF density.

 **********************************************************************

 Orbital symmetries:
       Occupied  (SG) (SG) (PI) (PI) (PI) (PI) (DLTA) (SG) (SG)
                 (DLTA)
       Virtual   (SG) (PI) (PI) (SG) (SG) (SG) (DLTA) (DLTA) (PI)
                 (PI) (PI) (PI) (SG) (SG) (SG) (SG) (PI) (PI) (DLTA)
                 (DLTA) (PI) (PI) (SG) (PI) (PI) (SG) (SG) (SG)
                 (PI) (PI) (?A) (?A) (?A) (?A) (PHI) (PHI) (PI)
                 (PI) (SG) (PI) (PI) (SG) (DLTA) (DLTA) (SG) (PI)
                 (PI) (SG) (PI) (PI) (SG) (PHI) (PHI) (DLTA) (DLTA)
                 (PI) (PI) (SG) (DLTA) (DLTA) (SG) (PI) (PI) (SG)
                 (PHI) (PHI) (PI) (PI) (DLTA) (DLTA) (PI) (PI)
                 (?B) (?B) (?B) (DLTA) (DLTA) (PHI) (PHI) (SG)
                 (PI) (PI) (SG) (SG) (DLTA) (DLTA) (PI) (PI) (SG)
                 (PI) (PI) (SG) (DLTA) (DLTA) (PI) (PI) (SG) (PHI)
                 (PHI) (DLTA) (DLTA) (SG) (PI) (PI) (DLTA) (DLTA)
                 (PI) (PI) (SG) (PHI) (PHI) (?C) (?C) (?D) (?D)
                 (?E) (?E) (?F) (?F) (?F) (?E) (?E) (DLTA) (DLTA)
                 (SG) (PHI) (PHI) (PI) (PI) (SG) (DLTA) (DLTA)
                 (SG) (PI) (PI) (SG) (DLTA) (DLTA) (PI) (PI) (DLTA)
                 (DLTA) (SG) (PI) (PI) (PI) (PI) (SG) (SG) (?E)
                 (?E) (?E) (?E) (DLTA) (DLTA) (SG) (PI) (PI) (SG)
                 (?D) (?D) (?E) (?E) (DLTA) (DLTA) (?E) (?E) (SG)
                 (?C) (?C) (?D) (?D) (PHI) (PHI) (?A) (?A) (?A)
                 (?A) (PI) (PI) (SG) (PI) (PI) (SG) (SG) (SG) (PI)
                 (PI) (SG) (DLTA) (DLTA) (PI) (PI) (SG) (?E) (?E)
                 (DLTA) (DLTA) (?E) (?E) (SG) (?G) (?G) (?E) (?E)
                 (DLTA) (DLTA) (?E) (?E) (?G) (SG) (?C) (?C) (?H)
                 (?H) (?E) (?E) (DLTA) (DLTA) (?E) (?E) (?H) (DLTA)
                 (DLTA) (PI) (PI) (SG) (PI) (PI) (SG) (SG) (DLTA)
                 (DLTA) (PI) (PI) (SG) (PI) (PI) (SG) (SG) (SG)
                 (DLTA) (DLTA) (PI) (PI) (SG) (PI) (PI) (SG) (SG)
                 (PI) (PI) (SG) (DLTA) (DLTA) (PI) (PI) (SG) (SG)
                 (PI) (PI) (SG) (SG) (PI) (PI) (SG) (DLTA) (DLTA)
                 (PI) (PI) (SG) (SG) (PI) (PI) (SG) (SG) (PI) (PI)
                 (SG) (SG) (PI) (PI) (SG) (SG) (PI) (PI) (SG) (SG)
                 (PI) (PI) (SG) (SG) (SG) (SG) (SG) (SG)
 Unable to determine electronic state:  partially filled degenerate orbitals.
 Alpha  occ. eigenvalues --   -4.58500  -2.94279  -2.94175  -2.94175  -0.49794
 Alpha  occ. eigenvalues --   -0.48982  -0.44387  -0.44387  -0.44356  -0.32569
 Alpha virt. eigenvalues --    0.00296   0.02467   0.02467   0.02951   0.05065
 Alpha virt. eigenvalues --    0.06993   0.07367   0.07380   0.07558   0.07558
 Alpha virt. eigenvalues --    0.08678   0.08678   0.09927   0.18957   0.20220
 Alpha virt. eigenvalues --    0.23212   0.23738   0.23738   0.24359   0.24520
 Alpha virt. eigenvalues --    0.25341   0.25341   0.30007   0.30909   0.30909
 Alpha virt. eigenvalues --    0.44087   0.57692   0.61657   0.65553   0.65553
 Alpha virt. eigenvalues --    0.67130   0.67620   0.69190   0.69488   0.70712
 Alpha virt. eigenvalues --    0.70712   0.73728   0.73728   0.74415   0.76517
 Alpha virt. eigenvalues --    0.76517   0.79355   0.88264   0.88377   0.89581
 Alpha virt. eigenvalues --    0.90653   0.90653   1.23316   1.35200   1.35200
 Alpha virt. eigenvalues --    1.43468   1.68122   1.68122   1.74993   1.76483
 Alpha virt. eigenvalues --    1.80722   1.80722   1.80724   1.91563   1.91954
 Alpha virt. eigenvalues --    1.92607   1.94381   1.94381   2.14525   2.16101
 Alpha virt. eigenvalues --    2.16101   2.20484   2.20484   2.26853   2.27365
 Alpha virt. eigenvalues --    2.30435   2.30435   2.31970   2.32303   2.32306
 Alpha virt. eigenvalues --    2.45441   2.45777   2.50750   2.50750   2.51089
 Alpha virt. eigenvalues --    2.78110   2.78110   2.82246   2.91809   3.19771
 Alpha virt. eigenvalues --    3.20263   3.28672   3.28672   3.93520   4.03206
 Alpha virt. eigenvalues --    4.03206   4.16239   4.17209   4.19671   4.21008
 Alpha virt. eigenvalues --    4.21008   4.62226   5.66189   5.66189   5.77158
 Alpha virt. eigenvalues --    5.79261   5.82011   5.87607   5.87607   6.05805
 Alpha virt. eigenvalues --    6.06022   6.06022   6.06562   6.19729   6.32270
 Alpha virt. eigenvalues --    6.32270   6.41600   6.41600   6.42675   6.42678
 Alpha virt. eigenvalues --    6.44327   6.44327   6.45028   6.46520   6.46708
 Alpha virt. eigenvalues --    6.55809   6.55809   6.80226   6.81590   6.81961
 Alpha virt. eigenvalues --    6.85725   6.85725   7.13930   7.13930   7.31912
 Alpha virt. eigenvalues --    7.75270   7.75866   8.05693   8.18198   8.18198
 Alpha virt. eigenvalues --    8.39942   8.67114   8.67200   8.85677   8.85677
 Alpha virt. eigenvalues --    8.91142   8.94177   9.12533   9.38611   9.38611
 Alpha virt. eigenvalues --    9.76232   9.76232  10.16582  11.34762  13.89699
 Alpha virt. eigenvalues --   13.89699  13.93373  13.93373  14.03540  14.06517
 Alpha virt. eigenvalues --   14.16623  14.27550  14.27550  15.06938  15.94876
 Alpha virt. eigenvalues --   15.94908  16.01400  16.01400  16.09717  16.12273
 Alpha virt. eigenvalues --   16.29379  16.29379  16.54783  16.93193  16.93193
 Alpha virt. eigenvalues --   16.95823  16.95833  16.98867  16.98867  17.15920
 Alpha virt. eigenvalues --   17.18535  17.18536  17.21593  17.26884  17.26884
 Alpha virt. eigenvalues --   17.41530  17.61727  17.61746  17.61746  18.63079
 Alpha virt. eigenvalues --   27.79388  28.10938  28.10938  28.61098  30.67090
 Alpha virt. eigenvalues --   30.70862  30.75640  30.75640  31.03043  34.46810
 Alpha virt. eigenvalues --   34.46810  34.54483  34.57220  34.71649  34.71649
 Alpha virt. eigenvalues --   35.16157  37.64291  37.64327  37.69630  37.69630
 Alpha virt. eigenvalues --   37.73927  37.76675  37.85672  37.85672  38.03754
 Alpha virt. eigenvalues --   40.10294  41.42422  41.42422  41.45622  41.45670
 Alpha virt. eigenvalues --   41.47009  41.47009  41.54082  41.56831  41.74945
 Alpha virt. eigenvalues --   41.74945  41.81473  52.29430  52.33355  52.37799
 Alpha virt. eigenvalues --   52.37799  52.62048  53.06185  53.06185  53.72784
 Alpha virt. eigenvalues --   89.27228  89.85889  89.89374  89.93552  89.93552
 Alpha virt. eigenvalues --   90.25303  98.01182  98.01182  98.71328 150.32014
 Alpha virt. eigenvalues --  163.77663 174.68876 174.71070 174.74735 174.74735
 Alpha virt. eigenvalues --  174.95819 176.47518 176.47518 177.12795 249.93315
 Alpha virt. eigenvalues --  315.81941 315.81941 316.47404 424.29534 424.30376
 Alpha virt. eigenvalues --  424.33255 424.33255 424.50880 476.63323 582.38729
 Alpha virt. eigenvalues --  582.38729 583.05153 931.149911122.503861122.50386
 Alpha virt. eigenvalues -- 1123.149221376.454411376.456181376.475131376.47513
 Alpha virt. eigenvalues -- 1376.595301887.317972299.936132299.936132300.53807
 Alpha virt. eigenvalues -- 4008.504495103.329735103.329735103.871228941.29403
 Alpha virt. eigenvalues -- **************************************************
 Alpha virt. eigenvalues -- **************************************************
 Alpha virt. eigenvalues -- **************************************************
 Alpha virt. eigenvalues -- **********
     Molecular Orbital Coefficients:
                           4         5         6         7         8
                           O         O         O         O         O
     Eigenvalues --    -2.94175  -0.49794  -0.48982  -0.44387  -0.44387
   1 1   Co 1S          0.00000   0.00000   0.00000   0.00000  -0.00000
   2        2S          0.00000   0.00000   0.00000  -0.00000  -0.00000
   3        3S          0.00000   0.00000   0.00000  -0.00000  -0.00000
   4        4S          0.00000   0.00000   0.00000  -0.00000  -0.00000
   5        5S          0.00000   0.00000   0.00000  -0.00000  -0.00000
   6        6S          0.00000   0.00000   0.00000  -0.00000  -0.00000
   7        7S          0.00000   0.00000   0.00000  -0.00000  -0.00000
   8        8S          0.00000   0.00000   0.00000  -0.00000  -0.00002
   9        9S          0.00000   0.00000   0.00000  -0.00000   0.00000
  10       10S          0.00000   0.00000   0.00000  -0.00000  -0.00011
  11       11S          0.00000   0.00000   0.00000   0.00000   0.00011
  12       12S          0.00000   0.00000   0.00000  -0.00000  -0.00067
  13       13S          0.00000   0.00000   0.00000   0.00000   0.00226
  14       14S          0.00000   0.00000   0.00000  -0.00000  -0.01685
  15       15S          0.00000   0.00000   0.00000   0.00000   0.03168
  16       16S          0.00000   0.00000   0.00000   0.00000   0.07771
  17       17S          0.00000   0.00000   0.00000  -0.00000  -0.06621
  18       18S          0.00000   0.00000   0.00000  -0.00000  -0.18451
  19       19S          0.00000   0.00000   0.00000  -0.00000  -0.12190
  20       20S          0.00000   0.00000   0.00000   0.00000   0.14958
  21       21S          0.00000   0.00000   0.00000   0.00000   0.18882
  22       22S          0.00000   0.00000   0.00000   0.00000   0.05427
  23       23S          0.00000   0.00000   0.00000  -0.00000  -0.01663
  24       24S          0.00000   0.00000   0.00000   0.00000   0.03270
  25       25S          0.00000   0.00000   0.00000  -0.00000  -0.00773
  26       26PX         0.00000  -0.00000   0.00000   0.00000   0.00000
  27       26PY        -0.00000   0.00000  -0.00000   0.00000   0.00000
  28       26PZ         0.00000   0.00000   0.00000  -0.00000  -0.00000
  29       27PX         0.00000  -0.00000   0.00000   0.00000   0.00000
  30       27PY         0.00000   0.00000  -0.00000   0.00000   0.00000
  31       27PZ         0.00000   0.00000   0.00000  -0.00000   0.00000
  32       28PX         0.00000  -0.00000   0.00000   0.00000   0.00000
  33       28PY        -0.00000   0.00000  -0.00000   0.00000   0.00000
  34       28PZ         0.00000   0.00000   0.00000   0.00000  -0.00000
  35       29PX         0.00000  -0.00000   0.00000   0.00000   0.00000
  36       29PY         0.00003   0.00000  -0.00000   0.00000   0.00000
  37       29PZ         0.00000   0.00000   0.00000  -0.00000   0.00000
  38       30PX         0.00000  -0.00000   0.00000   0.00000   0.00000
  39       30PY        -0.00002   0.00000  -0.00000   0.00000   0.00000
  40       30PZ         0.00000   0.00000   0.00000   0.00000  -0.00000
  41       31PX         0.00000  -0.00000   0.00000   0.00000   0.00000
  42       31PY         0.00039   0.00000  -0.00000   0.00000   0.00000
  43       31PZ         0.00000   0.00000   0.00000  -0.00000   0.00004
  44       32PX         0.00000  -0.00000   0.00000   0.00000   0.00000
  45       32PY        -0.00041   0.00000  -0.00000   0.00000   0.00000
  46       32PZ         0.00000   0.00000   0.00000   0.00000  -0.00004
  47       33PX         0.00000  -0.00002   0.00000   0.00000   0.00000
  48       33PY         0.00333   0.00000  -0.00002   0.00000   0.00000
  49       33PZ         0.00000   0.00000   0.00000  -0.00000   0.00036
  50       34PX         0.00000  -0.00012   0.00000   0.00000   0.00000
  51       34PY         0.00384   0.00000  -0.00012   0.00000   0.00000
  52       34PZ         0.00000   0.00000   0.00000  -0.00000   0.00052
  53       35PX         0.00000   0.00113   0.00000   0.00000   0.00000
  54       35PY        -0.06145   0.00000   0.00113   0.00000   0.00000
  55       35PZ         0.00000   0.00000   0.00000   0.00000  -0.00777
  56       36PX         0.00000   0.00173   0.00000   0.00000   0.00000
  57       36PY         0.03911   0.00000   0.00173   0.00000   0.00000
  58       36PZ         0.00000   0.00000   0.00000  -0.00000   0.00096
  59       37PX         0.00000  -0.00284   0.00000   0.00000   0.00000
  60       37PY         0.17124   0.00000  -0.00284   0.00000   0.00000
  61       37PZ         0.00000   0.00000   0.00000  -0.00000   0.02267
  62       38PX         0.00000  -0.00065   0.00000   0.00000   0.00000
  63       38PY         0.27657   0.00000  -0.00065   0.00000   0.00000
  64       38PZ         0.00000   0.00000   0.00000  -0.00000   0.03137
  65       39PX         0.00000  -0.00755   0.00000   0.00000   0.00000
  66       39PY         0.38348   0.00000  -0.00755   0.00000   0.00000
  67       39PZ         0.00000   0.00000   0.00000  -0.00000   0.05587
  68       40PX         0.00000   0.00197   0.00000   0.00000   0.00000
  69       40PY         0.16519   0.00000   0.00197   0.00000   0.00000
  70       40PZ         0.00000   0.00000   0.00000  -0.00000   0.01410
  71       41PX         0.00000   0.01633   0.00000   0.00000   0.00000
  72       41PY         0.02116   0.00000   0.01633   0.00000   0.00000
  73       41PZ         0.00000   0.00000   0.00000   0.00000  -0.04977
  74       42PX         0.00000   0.00870   0.00000   0.00000   0.00000
  75       42PY        -0.00226   0.00000   0.00870   0.00000   0.00000
  76       42PZ         0.00000   0.00000   0.00000   0.00000  -0.04962
  77       43PX         0.00000  -0.00009   0.00000   0.00000   0.00000
  78       43PY         0.00123   0.00000  -0.00009   0.00000   0.00000
  79       43PZ         0.00000   0.00000   0.00000   0.00000  -0.01354
  80       44PX         0.00000  -0.00125   0.00000   0.00000   0.00000
  81       44PY        -0.07457   0.00000  -0.00125   0.00000   0.00000
  82       44PZ         0.00000   0.00000   0.00000   0.00000  -0.00486
  83       45PX         0.00000  -0.00527   0.00000   0.00000   0.00000
  84       45PY         0.13603   0.00000  -0.00527   0.00000   0.00000
  85       45PZ         0.00000   0.00000   0.00000  -0.00000   0.01974
  86       46PX         0.00000   0.00016   0.00000   0.00000   0.00000
  87       46PY        -0.00037   0.00000   0.00016   0.00000   0.00000
  88       46PZ         0.00000   0.00000   0.00000  -0.00000   0.00215
  89       47D 0        0.00000   0.00000   0.00000  -0.00000   0.00003
  90       47D+1        0.00000   0.00020   0.00000   0.00000   0.00000
  91       47D-1        0.00000   0.00000   0.00020   0.00000   0.00000
  92       47D+2        0.00000   0.00000   0.00000   0.00020   0.00000
  93       47D-2        0.00000   0.00000   0.00000   0.00000   0.00000
  94       48D 0        0.00000   0.00000   0.00000  -0.00000   0.00029
  95       48D+1        0.00000   0.00202   0.00000   0.00000   0.00000
  96       48D-1        0.00001   0.00000   0.00202   0.00000   0.00000
  97       48D+2        0.00000   0.00000   0.00000   0.00203   0.00000
  98       48D-2        0.00000   0.00000   0.00000   0.00000   0.00000
  99       49D 0        0.00000   0.00000   0.00000  -0.00000   0.00228
 100       49D+1        0.00000   0.01598   0.00000   0.00000   0.00000
 101       49D-1        0.00006   0.00000   0.01598   0.00000   0.00000
 102       49D+2        0.00000   0.00000   0.00000   0.01608   0.00000
 103       49D-2        0.00000   0.00000   0.00000   0.00000   0.00000
 104       50D 0        0.00000   0.00000   0.00000  -0.00000   0.00848
 105       50D+1        0.00000   0.05959   0.00000   0.00000   0.00000
 106       50D-1        0.00022   0.00000   0.05959   0.00000   0.00000
 107       50D+2        0.00000   0.00000   0.00000   0.05994   0.00000
 108       50D-2        0.00000   0.00000   0.00000   0.00000   0.00000
 109       51D 0        0.00000   0.00000   0.00000  -0.00000   0.01877
 110       51D+1        0.00000   0.13331   0.00000   0.00000   0.00000
 111       51D-1        0.00033   0.00000   0.13331   0.00000   0.00000
[...]
  90       47D+1        0.00000   0.00000   0.00000  -0.00000
  91       47D-1        0.00000   0.00000   0.00000  -0.00000
  92       47D+2        0.00000   0.00000   0.00000   0.00000
  93       47D-2        0.00000   0.00000   0.00000   0.00000
  94       48D 0        0.00010   0.00010   0.00000   0.00010
  95       48D+1        0.00022   0.00011   0.00011  -0.00000
  96       48D-1        0.00022   0.00011   0.00011  -0.00000
  97       48D+2        0.00022   0.00011   0.00011   0.00000
  98       48D-2        0.00011   0.00011   0.00000   0.00011
  99       49D 0        0.00243   0.00238   0.00005   0.00232
 100       49D+1        0.00512   0.00256   0.00256  -0.00000
 101       49D-1        0.00512   0.00256   0.00256  -0.00000
 102       49D+2        0.00518   0.00259   0.00259   0.00000
 103       49D-2        0.00268   0.00268   0.00000   0.00268
 104       50D 0        0.01912   0.01870   0.00042   0.01828
 105       50D+1        0.04026   0.02013   0.02013  -0.00000
 106       50D-1        0.04026   0.02013   0.02013  -0.00000
 107       50D+2        0.04073   0.02037   0.02037   0.00000
 108       50D-2        0.02106   0.02106   0.00000   0.02106
 109       51D 0        0.07129   0.06971   0.00158   0.06813
 110       51D+1        0.14920   0.07460   0.07460  -0.00000
 111       51D-1        0.14920   0.07460   0.07460   0.00000
 112       51D+2        0.15102   0.07551   0.07551   0.00000
 113       51D-2        0.07815   0.07815   0.00000   0.07815
 114       52D 0        0.16288   0.15920   0.00369   0.15551
 115       52D+1        0.33541   0.16771   0.16771  -0.00000
 116       52D-1        0.33541   0.16771   0.16771  -0.00000
 117       52D+2        0.34020   0.17010   0.17010   0.00000
 118       52D-2        0.17645   0.17645   0.00000   0.17645
 119       53D 0        0.24977   0.24290   0.00687   0.23604
 120       53D+1        0.51445   0.25722   0.25722  -0.00000
 121       53D-1        0.51445   0.25722   0.25722  -0.00000
 122       53D+2        0.51995   0.25998   0.25998   0.00000
 123       53D-2        0.26842   0.26842   0.00000   0.26842
 124       54D 0        0.24444   0.23395   0.01049   0.22345
 125       54D+1        0.49228   0.24614   0.24614  -0.00000
 126       54D-1        0.49228   0.24614   0.24614  -0.00000
 127       54D+2        0.49416   0.24708   0.24708   0.00000
 128       54D-2        0.24941   0.24941   0.00000   0.24941
 129       55D 0        0.15837   0.14428   0.01408   0.13020
 130       55D+1        0.30438   0.15219   0.15219  -0.00000
 131       55D-1        0.30438   0.15219   0.15219  -0.00000
 132       55D+2        0.30345   0.15173   0.15173   0.00000
 133       55D-2        0.14300   0.14300   0.00000   0.14300
 134       56D 0        0.05156   0.04437   0.00720   0.03717
 135       56D+1        0.10354   0.05177   0.05177  -0.00000
 136       56D-1        0.10354   0.05177   0.05177  -0.00000
 137       56D+2        0.09952   0.04976   0.04976   0.00000
 138       56D-2        0.03946   0.03946   0.00000   0.03946
 139       57D 0        0.00357   0.00288   0.00070   0.00218
 140       57D+1        0.00891   0.00446   0.00446  -0.00000
 141       57D-1        0.00891   0.00446   0.00446  -0.00000
 142       57D+2        0.00772   0.00386   0.00386  -0.00000
 143       57D-2        0.00204   0.00204   0.00000   0.00204
 144       58D 0        0.00660   0.00640   0.00020   0.00620
 145       58D+1        0.01527   0.00764   0.00764  -0.00000
 146       58D-1        0.01527   0.00764   0.00764  -0.00000
 147       58D+2        0.01516   0.00758   0.00758   0.00000
 148       58D-2        0.00779   0.00779   0.00000   0.00779
 149       59D 0        0.00948   0.00904   0.00044   0.00861
 150       59D+1        0.02341   0.01170   0.01170  -0.00000
 151       59D-1        0.02341   0.01170   0.01170  -0.00000
 152       59D+2        0.02231   0.01115   0.01115   0.00000
 153       59D-2        0.01135   0.01135   0.00000   0.01135
 154       60D 0       -0.00004  -0.00006   0.00002  -0.00008
 155       60D+1       -0.00011  -0.00006  -0.00006   0.00000
 156       60D-1       -0.00011  -0.00006  -0.00006   0.00000
 157       60D+2       -0.00009  -0.00005  -0.00005   0.00000
 158       60D-2       -0.00002  -0.00002  -0.00000  -0.00002
 159       61F 0        0.00001   0.00000   0.00000   0.00000
 160       61F+1        0.00000   0.00000   0.00000  -0.00000
 161       61F-1        0.00000   0.00000   0.00000  -0.00000
 162       61F+2        0.00000   0.00000   0.00000  -0.00000
 163       61F-2        0.00000   0.00000   0.00000   0.00000
 164       61F+3        0.00000   0.00000   0.00000  -0.00000
 165       61F-3        0.00000   0.00000   0.00000  -0.00000
 166       62F 0        0.00003   0.00001   0.00001   0.00000
 167       62F+1        0.00001   0.00001   0.00001   0.00000
 168       62F-1        0.00001   0.00001   0.00001  -0.00000
 169       62F+2        0.00000   0.00000   0.00000   0.00000
 170       62F-2        0.00000   0.00000   0.00000   0.00000
 171       62F+3        0.00001   0.00001   0.00001  -0.00000
 172       62F-3        0.00001   0.00001   0.00001  -0.00000
 173       63F 0        0.00017   0.00009   0.00008   0.00000
 174       63F+1        0.00004   0.00002   0.00002  -0.00000
 175       63F-1        0.00004   0.00002   0.00002  -0.00000
 176       63F+2        0.00002   0.00001   0.00001   0.00000
 177       63F-2        0.00001   0.00001   0.00000   0.00001
 178       63F+3        0.00003   0.00002   0.00002  -0.00000
 179       63F-3        0.00003   0.00002   0.00002  -0.00000
 180       64F 0        0.00156   0.00079   0.00078   0.00001
 181       64F+1        0.00008   0.00004   0.00004  -0.00000
 182       64F-1        0.00008   0.00004   0.00004   0.00000
 183       64F+2        0.00011   0.00006   0.00006   0.00000
 184       64F-2        0.00005   0.00005   0.00000   0.00005
 185       64F+3        0.00002   0.00001   0.00001   0.00000
 186       64F-3        0.00002   0.00001   0.00001  -0.00000
 187       65F 0        0.00054   0.00030   0.00024   0.00006
 188       65F+1        0.00005   0.00003   0.00003  -0.00000
 189       65F-1        0.00005   0.00003   0.00003  -0.00000
 190       65F+2        0.00013   0.00007   0.00007   0.00000
 191       65F-2        0.00004   0.00004   0.00000   0.00004
 192       65F+3        0.00000   0.00000   0.00000  -0.00000
 193       65F-3        0.00000   0.00000   0.00000  -0.00000
 194       66G 0        0.00000   0.00000   0.00000   0.00000
 195       66G+1        0.00000   0.00000   0.00000  -0.00000
 196       66G-1        0.00000   0.00000   0.00000  -0.00000
 197       66G+2        0.00000   0.00000   0.00000   0.00000
 198       66G-2        0.00000   0.00000   0.00000   0.00000
 199       66G+3        0.00000   0.00000   0.00000   0.00000
 200       66G-3        0.00000   0.00000   0.00000  -0.00000
 201       66G+4        0.00000   0.00000   0.00000   0.00000
 202       66G-4        0.00000   0.00000   0.00000   0.00000
 203       67G 0        0.00000   0.00000   0.00000   0.00000
 204       67G+1       -0.00000  -0.00000  -0.00000   0.00000
 205       67G-1       -0.00000  -0.00000  -0.00000   0.00000
 206       67G+2        0.00000   0.00000   0.00000   0.00000
 207       67G-2        0.00000   0.00000   0.00000   0.00000
 208       67G+3        0.00000   0.00000   0.00000  -0.00000
 209       67G-3        0.00000   0.00000   0.00000  -0.00000
 210       67G+4        0.00000   0.00000   0.00000   0.00000
 211       67G-4        0.00000   0.00000   0.00000   0.00000
 212       68G 0        0.00003   0.00002   0.00002   0.00000
 213       68G+1        0.00000   0.00000   0.00000  -0.00000
 214       68G-1        0.00000   0.00000   0.00000  -0.00000
 215       68G+2        0.00000   0.00000   0.00000   0.00000
 216       68G-2        0.00000   0.00000   0.00000   0.00000
 217       68G+3        0.00000   0.00000   0.00000  -0.00000
 218       68G-3        0.00000   0.00000   0.00000  -0.00000
 219       68G+4        0.00000   0.00000   0.00000   0.00000
 220       68G-4        0.00000   0.00000   0.00000   0.00000
 221       69G 0        0.00016   0.00008   0.00009  -0.00001
 222       69G+1       -0.00000  -0.00000  -0.00000   0.00000
 223       69G-1       -0.00000  -0.00000  -0.00000   0.00000
 224       69G+2        0.00000   0.00000   0.00000   0.00000
 225       69G-2        0.00000   0.00000   0.00000   0.00000
 226       69G+3        0.00000   0.00000   0.00000  -0.00000
 227       69G-3        0.00000   0.00000   0.00000  -0.00000
 228       69G+4        0.00000   0.00000   0.00000   0.00000
 229       69G-4        0.00000   0.00000   0.00000   0.00000
 230       70H 0        0.00000   0.00000   0.00000   0.00000
 231       70H+1        0.00000   0.00000   0.00000  -0.00000
 232       70H-1        0.00000   0.00000   0.00000  -0.00000
 233       70H+2        0.00000   0.00000   0.00000   0.00000
 234       70H-2        0.00000   0.00000   0.00000   0.00000
 235       70H+3        0.00000   0.00000   0.00000  -0.00000
 236       70H-3        0.00000   0.00000   0.00000  -0.00000
 237       70H+4        0.00000   0.00000   0.00000   0.00000
 238       70H-4        0.00000   0.00000   0.00000   0.00000
 239       70H+5        0.00000   0.00000   0.00000  -0.00000
 240       70H-5        0.00000   0.00000   0.00000  -0.00000
 241       71H 0        0.00000   0.00000   0.00000   0.00000
 242       71H+1        0.00000   0.00000   0.00000  -0.00000
 243       71H-1        0.00000   0.00000   0.00000  -0.00000
 244       71H+2        0.00000   0.00000   0.00000  -0.00000
 245       71H-2        0.00000   0.00000   0.00000   0.00000
 246       71H+3        0.00000   0.00000   0.00000  -0.00000
 247       71H-3        0.00000   0.00000   0.00000  -0.00000
 248       71H+4        0.00000   0.00000   0.00000   0.00000
 249       71H-4       -0.00000  -0.00000   0.00000  -0.00000
 250       71H+5        0.00000   0.00000   0.00000  -0.00000
 251       71H-5        0.00000   0.00000   0.00000  -0.00000
 252       72H 0        0.00001   0.00000   0.00001  -0.00000
 253       72H+1        0.00000   0.00000   0.00000  -0.00000
 254       72H-1        0.00000   0.00000   0.00000  -0.00000
 255       72H+2        0.00000   0.00000   0.00000   0.00000
 256       72H-2        0.00000   0.00000   0.00000   0.00000
 257       72H+3        0.00000   0.00000   0.00000  -0.00000
 258       72H-3        0.00000   0.00000   0.00000  -0.00000
 259       72H+4        0.00000   0.00000   0.00000   0.00000
 260       72H-4        0.00000   0.00000   0.00000   0.00000
 261       72H+5       -0.00000  -0.00000  -0.00000   0.00000
 262       72H-5       -0.00000  -0.00000  -0.00000   0.00000
 263 2   H  1S          0.00004   0.00002   0.00002   0.00000
 264        2S          0.00527   0.00265   0.00262   0.00003
 265        3S          0.05323   0.02679   0.02645   0.00034
 266        4S          0.27332   0.13762   0.13571   0.00191
 267        5S          0.56949   0.28470   0.28478  -0.00008
 268        6S          0.41209   0.20939   0.20270   0.00669
 269        7S          0.02378   0.01156   0.01222  -0.00065
 270        8PX         0.00016   0.00008   0.00008  -0.00000
 271        8PY         0.00016   0.00008   0.00008  -0.00000
 272        8PZ         0.00039   0.00029   0.00010   0.00019
 273        9PX         0.00195   0.00097   0.00097  -0.00000
 274        9PY         0.00195   0.00097   0.00097  -0.00000
 275        9PZ         0.00352   0.00238   0.00114   0.00125
 276       10PX         0.00353   0.00177   0.00177   0.00000
 277       10PY         0.00353   0.00177   0.00177  -0.00000
 278       10PZ         0.00526   0.00266   0.00261   0.00005
 279       11PX        -0.00024  -0.00012  -0.00012   0.00000
 280       11PY        -0.00024  -0.00012  -0.00012   0.00000
 281       11PZ        -0.00014  -0.00079   0.00065  -0.00144
 282       12D 0        0.00013   0.00011   0.00003   0.00008
 283       12D+1        0.00010   0.00005   0.00005  -0.00000
 284       12D-1        0.00010   0.00005   0.00005  -0.00000
 285       12D+2        0.00000   0.00000   0.00000   0.00000
 286       12D-2        0.00000   0.00000   0.00000   0.00000
 287       13D 0        0.00113   0.00077   0.00036   0.00041
 288       13D+1        0.00116   0.00058   0.00058  -0.00000
 289       13D-1        0.00116   0.00058   0.00058   0.00000
 290       13D+2        0.00015   0.00007   0.00007   0.00000
 291       13D-2        0.00007   0.00007   0.00000   0.00007
 292       14D 0        0.00179   0.00088   0.00091  -0.00003
 293       14D+1       -0.00030  -0.00015  -0.00015   0.00000
 294       14D-1       -0.00030  -0.00015  -0.00015   0.00000
 295       14D+2        0.00004   0.00002   0.00002  -0.00000
 296       14D-2       -0.00006  -0.00006   0.00000  -0.00006
 297       15F 0        0.00013   0.00011   0.00002   0.00009
 298       15F+1        0.00016   0.00008   0.00008  -0.00000
 299       15F-1        0.00016   0.00008   0.00008  -0.00000
 300       15F+2        0.00003   0.00001   0.00001   0.00000
 301       15F-2        0.00001   0.00001   0.00000   0.00001
 302       15F+3       -0.00000  -0.00000  -0.00000   0.00000
 303       15F-3       -0.00000  -0.00000  -0.00000   0.00000
 304       16F 0        0.00052   0.00025   0.00027  -0.00002
 305       16F+1        0.00005   0.00002   0.00002  -0.00000
 306       16F-1        0.00005   0.00002   0.00002   0.00000
 307       16F+2       -0.00002  -0.00001  -0.00001  -0.00000
 308       16F-2       -0.00004  -0.00004  -0.00000  -0.00004
 309       16F+3        0.00000   0.00000   0.00000  -0.00000
 310       16F-3        0.00000   0.00000   0.00000  -0.00000
          Condensed to atoms (all electrons):
               1          2
     1  Co  16.268131   0.368579
     2  H    0.368579   0.994711
          Atomic-Atomic Spin Densities.
               1          2
     1  Co   1.983770   0.007435
     2  H    0.007435   0.001360
 Mulliken charges and spin densities:
               1          2
     1  Co   0.363290   1.991205
     2  H   -0.363290   0.008795
 Sum of Mulliken charges =  -0.00000   2.00000
 Mulliken charges and spin densities with hydrogens summed into heavy atoms:
               1          2
     1  Co  -0.000000   2.000000
 Electronic spatial extent (au):  <R**2>=             39.8578
 Charge=             -0.0000 electrons
 Dipole moment (field-independent basis, Debye):
    X=              0.0000    Y=              0.0000    Z=              4.0548  Tot=              4.0548
 Quadrupole moment (field-independent basis, Debye-Ang):
   XX=            -13.8211   YY=            -13.8211   ZZ=            -17.0099
   XY=              0.0000   XZ=              0.0000   YZ=              0.0000
 Traceless Quadrupole moment (field-independent basis, Debye-Ang):
   XX=              1.0629   YY=              1.0629   ZZ=             -2.1259
   XY=              0.0000   XZ=              0.0000   YZ=              0.0000
 Octapole moment (field-independent basis, Debye-Ang**2):
  XXX=              0.0000  YYY=              0.0000  ZZZ=             14.2022  XYY=              0.0000
  XXY=              0.0000  XXZ=              3.5928  XZZ=              0.0000  YZZ=              0.0000
  YYZ=              3.5928  XYZ=              0.0000
 Hexadecapole moment (field-independent basis, Debye-Ang**3):
 XXXX=            -16.9243 YYYY=            -16.9243 ZZZZ=            -44.2612 XXXY=              0.0000
 XXXZ=              0.0000 YYYX=              0.0000 YYYZ=              0.0000 ZZZX=              0.0000
 ZZZY=              0.0000 XXYY=             -5.3886 XXZZ=            -10.0306 YYZZ=            -10.0306
 XXYZ=              0.0000 YYXZ=              0.0000 ZZXY=              0.0000
 N-N= 6.425723275457D+00 E-N=-3.645976725697D+02  KE= 9.112175363953D+01
 Symmetry A1   KE= 3.672352603691D+01
 Symmetry A2   KE= 7.751291673069D+00
 Symmetry B1   KE= 2.332346806949D+01
 Symmetry B2   KE= 2.332346786087D+01
 Symmetry A1   SP= 1.000000000000D+00
 Symmetry A2   SP= 1.000000000000D+00
 Symmetry B1   SP=-4.514413633128D-16
 Symmetry B2   SP=-3.370646544042D-16
 Orbital energies and kinetic energies (alpha):
                                 1                 2
   4         O                -2.941747          4.223081
   5         O                -0.497939          7.438653
   6         O                -0.489824          7.438653
   7         O                -0.443875          7.514200
   8         O                -0.443875          0.699805
   9         O                -0.443558          6.823969
  10         O                -0.325693          7.751292
  11         V                 0.002963          0.122387
  12         V                 0.024666          0.040129
  13         V                 0.024666          0.040129
  14         V                 0.029512          0.029831
  15         V                 0.050648          0.241325
 Total kinetic energy from orbitals= 1.056970144479D+02
                          Isotropic Fermi Contact Couplings
        Atom                 a.u.       MegaHertz       Gauss      10(-4) cm-1
     1  Co(59)             0.00019       0.09833       0.03509       0.03280
     2  H(1)               0.00224       4.99790       1.78338       1.66712
 --------------------------------------------------------
       Center         ----  Spin Dipole Couplings  ----
                      3XX-RR        3YY-RR        3ZZ-RR
 --------------------------------------------------------
     1   Atom       -0.038488     -0.038485      0.076973
     2   Atom       -0.101762     -0.101762      0.203525
 --------------------------------------------------------
                        XY            XZ            YZ
 --------------------------------------------------------
     1   Atom        0.000000      0.000000      0.000000
     2   Atom        0.000000      0.000000      0.000000
 --------------------------------------------------------


 ---------------------------------------------------------------------------------
              Anisotropic Spin Dipole Couplings in Principal Axis System
 ---------------------------------------------------------------------------------

       Atom             a.u.   MegaHertz   Gauss  10(-4) cm-1        Axes

              Baa    -0.0385    -4.860    -1.734    -1.621  1.0000  0.0000  0.0000
     1 Co(59) Bbb    -0.0385    -4.860    -1.734    -1.621 -0.0000  1.0000  0.0000
              Bcc     0.0770     9.720     3.468     3.242  0.0000  0.0000  1.0000
 
              Baa    -0.1018   -54.296   -19.374   -18.111  1.0000  0.0000  0.0000
     2 H(1)   Bbb    -0.1018   -54.296   -19.374   -18.111 -0.0000  1.0000  0.0000
              Bcc     0.2035   108.591    38.748    36.222  0.0000  0.0000  1.0000
 

 ---------------------------------------------------------------------------------

 No NMR shielding tensors so no spin-rotation constants.
 Leave Link  601 at Sun Apr 22 03:02:04 2018, MaxMem= 10737418240 cpu:             180.3 elap:               5.9
 (Enter /home1/apps/gaussian/16rA.03/g16/l9999.exe)

 Test job not archived.
 1\1\GINC-C413-081\SP\ROCCSD(T)-Full\Gen\Co1H1(3)\GWANG18\22-Apr-2018\0
 \\#P ROCCSD(T)=(MaxCyc=150, Full)/Gen SCF=(maxcycle=400, vshift=200) P
 seudo=Read Integral(NoXCTest) Pop=Regular MaxDisk=500GB Guess=Read IOp
 (5/15=2)\\CoH\\0,3\Co,0,0.,0.,0.\H,0,0.,0.,1.4\\Version=ES64L-G16RevA.
 03\HF=-145.4059259\MP2=-146.319743\MP3=-146.2163238\PUHF=-145.4059259\
 PMP2-0=-146.319743\MP4SDQ=-146.2895489\CCSD=-146.2625282\CCSD(T)=-146.
 295196\RMSD=8.777e-09\PG=C*V [C*(H1Co1)]\\@


 WISDOM IS KNOWING WHAT TO DO,
 SKILL IS KNOWING HOW TO DO IT,
 AND VIRTUE IS NOT DOING IT.
 Job cpu time:       0 days 23 hours 52 minutes 29.2 seconds.
 Elapsed time:       0 days  0 hours 45 minutes  0.5 seconds.
 File lengths (MBytes):  RWF=   8942 Int=      0 D2E=      0 Chk=     12 Scr=      1
 Normal termination of Gaussian 16 at Sun Apr 22 03:02:04 2018.
