 Entering Gaussian System, Link 0=g16
 Initial command:
 /home1/apps/gaussian/16rA.03/g16/l1.exe "/tmp/Gau-147438.inp" -scrdir="/tmp/"
 Entering Link 1 = /home1/apps/gaussian/16rA.03/g16/l1.exe PID=    147439.
  
 Copyright (c) 1988,1990,1992,1993,1995,1998,2003,2009,2016,
            Gaussian, Inc.  All Rights Reserved.
  
 This is part of the Gaussian(R) 16 program.  It is based on
 the Gaussian(R) 09 system (copyright 2009, Gaussian, Inc.),
 the Gaussian(R) 03 system (copyright 2003, Gaussian, Inc.),
 the Gaussian(R) 98 system (copyright 1998, Gaussian, Inc.),
 the Gaussian(R) 94 system (copyright 1995, Gaussian, Inc.),
 the Gaussian 92(TM) system (copyright 1992, Gaussian, Inc.),
 the Gaussian 90(TM) system (copyright 1990, Gaussian, Inc.),
 the Gaussian 88(TM) system (copyright 1988, Gaussian, Inc.),
 the Gaussian 86(TM) system (copyright 1986, Carnegie Mellon
 University), and the Gaussian 82(TM) system (copyright 1983,
 Carnegie Mellon University). Gaussian is a federally registered
 trademark of Gaussian, Inc.
  
 This software contains proprietary and confidential information,
 including trade secrets, belonging to Gaussian, Inc.
  
 This software is provided under written license and may be
 used, copied, transmitted, or stored only in accord with that
 written license.
  
 The following legend is applicable only to US Government
 contracts under FAR:
  
                    RESTRICTED RIGHTS LEGEND
  
 Use, reproduction and disclosure by the US Government is
 subject to restrictions as set forth in subparagraphs (a)
 and (c) of the Commercial Computer Software - Restricted
 Rights clause in FAR 52.227-19.
  
 Gaussian, Inc.
 340 Quinnipiac St., Bldg. 40, Wallingford CT 06492
  
  
 ---------------------------------------------------------------
 Warning -- This program may not be used in any manner that
 competes with the business of Gaussian, Inc. or will provide
 assistance to any competitor of Gaussian, Inc.  The licensee
 of this program is prohibited from giving any competitor of
 Gaussian, Inc. access to this program.  By using this program,
 the user acknowledges that Gaussian, Inc. is engaged in the
 business of creating and licensing software in the field of
 computational chemistry and represents and warrants to the
 licensee that it is not a competitor of Gaussian, Inc. and that
 it will not use this program in any manner prohibited above.
 ---------------------------------------------------------------
  

 Cite this work as:
 Gaussian 16, Revision A.03,
 M. J. Frisch, G. W. Trucks, H. B. Schlegel, G. E. Scuseria, 
 M. A. Robb, J. R. Cheeseman, G. Scalmani, V. Barone, 
 G. A. Petersson, H. Nakatsuji, X. Li, M. Caricato, A. V. Marenich, 
 J. Bloino, B. G. Janesko, R. Gomperts, B. Mennucci, H. P. Hratchian, 
 J. V. Ortiz, A. F. Izmaylov, J. L. Sonnenberg, D. Williams-Young, 
 F. Ding, F. Lipparini, F. Egidi, J. Goings, B. Peng, A. Petrone, 
 T. Henderson, D. Ranasinghe, V. G. Zakrzewski, J. Gao, N. Rega, 
 G. Zheng, W. Liang, M. Hada, M. Ehara, K. Toyota, R. Fukuda, 
 J. Hasegawa, M. Ishida, T. Nakajima, Y. Honda, O. Kitao, H. Nakai, 
 T. Vreven, K. Throssell, J. A. Montgomery, Jr., J. E. Peralta, 
 F. Ogliaro, M. J. Bearpark, J. J. Heyd, E. N. Brothers, K. N. Kudin, 
 V. N. Staroverov, T. A. Keith, R. Kobayashi, J. Normand, 
 K. Raghavachari, A. P. Rendell, J. C. Burant, S. S. Iyengar, 
 J. Tomasi, M. Cossi, J. M. Millam, M. Klene, C. Adamo, R. Cammi, 
 J. W. Ochterski, R. L. Martin, K. Morokuma, O. Farkas, 
 J. B. Foresman, and D. J. Fox, Gaussian, Inc., Wallingford CT, 2016.
 
 ******************************************
 Gaussian 16:  ES64L-G16RevA.03 25-Dec-2016
                24-Mar-2018 
 ******************************************
 %mem=80GB
 %cpu=0-31
 SetSPE:  set environment variable "MP_BIND" = "yes"
 SetSPE:  set environment variable "MP_BLIST" = "0,1,2,3,4,5,6,7,8,9,10,11,12,13,14,15,16,17,18,19,20,21,22,23,24,25,26,27,28,29,30,31"
 Will use up to   32 processors via shared memory.
 %chk=tz.chk
 %rwf=/scratch/04843/gwang18/feo/
 ----------------------------------------------------------------------
 #P ROCCSD(T)=(MaxCyc=150, Full)/Gen SCF=(maxcycle=400) Pseudo=Read Int
 egral(NoXCTest) Pop=Regular MaxDisk=500GB
 ----------------------------------------------------------------------
 1/38=1,172=1/1;
 2/12=2,17=6,18=5,40=1/2;
 3/5=7,11=2,16=1,17=8,25=1,30=1,47=8,116=101/1,2,3;
 4//1;
 5/5=2,7=400,38=5/2;
 8/5=-1,6=4,9=120000,10=90/1,4;
 9/5=7,6=150,14=2/13;
 6//1;
 99/5=1,9=1/99;
 Leave Link    1 at Sat Mar 24 00:28:27 2018, MaxMem= 10737418240 cpu:              42.5 elap:               1.4
 (Enter /home1/apps/gaussian/16rA.03/g16/l101.exe)
 ---
 FeO
 ---
 Symbolic Z-matrix:
 Charge =  0 Multiplicity = 5
 Fe                    0.        0.        0. 
 O                     0.        0.        1.4 
 
 ITRead=  0  0
 MicOpt= -1 -1
 NAtoms=      2 NQM=        2 NQMF=       0 NMMI=      0 NMMIF=      0
                NMic=       0 NMicF=      0.
                    Isotopes and Nuclear Properties:
 (Nuclear quadrupole moments (NQMom) in fm**2, nuclear magnetic moments (NMagM)
  in nuclear magnetons)

  Atom         1           2
 IAtWgt=          56          16
 AtmWgt=  55.9349393  15.9949146
 NucSpn=           0           0
 AtZEff=  -0.0000000  -0.0000000
 NQMom=    0.0000000   0.0000000
 NMagM=    0.0000000   0.0000000
 AtZNuc=  26.0000000   8.0000000
 Leave Link  101 at Sat Mar 24 00:28:27 2018, MaxMem= 10737418240 cpu:               3.6 elap:               0.2
 (Enter /home1/apps/gaussian/16rA.03/g16/l202.exe)
                          Input orientation:                          
 ---------------------------------------------------------------------
 Center     Atomic      Atomic             Coordinates (Angstroms)
 Number     Number       Type             X           Y           Z
 ---------------------------------------------------------------------
      1         26           0        0.000000    0.000000    0.000000
      2          8           0        0.000000    0.000000    1.400000
 ---------------------------------------------------------------------
 Stoichiometry    FeO(5)
 Framework group  C*V[C*(OFe)]
 Deg. of freedom     1
 Full point group                 C*V     NOp   4
 Largest Abelian subgroup         C2V     NOp   4
 Largest concise Abelian subgroup C1      NOp   1
                         Standard orientation:                         
 ---------------------------------------------------------------------
 Center     Atomic      Atomic             Coordinates (Angstroms)
 Number     Number       Type             X           Y           Z
 ---------------------------------------------------------------------
      1         26           0        0.000000    0.000000    0.329412
      2          8           0        0.000000    0.000000   -1.070588
 ---------------------------------------------------------------------
 Rotational constants (GHZ):           0.0000000          20.7302819          20.7302819
 Leave Link  202 at Sat Mar 24 00:28:28 2018, MaxMem= 10737418240 cpu:               0.8 elap:               0.1
 (Enter /home1/apps/gaussian/16rA.03/g16/l301.exe)
 General basis read from cards:  (5D, 7F)
 Centers:       1
 S 1 1.00
     Exponent=  4.3162650000D+06 Coefficients=  1.0000000000D+00
 S 1 1.00
     Exponent=  6.4634240000D+05 Coefficients=  1.0000000000D+00
 S 1 1.00
     Exponent=  1.4708970000D+05 Coefficients=  1.0000000000D+00
 S 1 1.00
     Exponent=  4.1661520000D+04 Coefficients=  1.0000000000D+00
 S 1 1.00
     Exponent=  1.3590770000D+04 Coefficients=  1.0000000000D+00
 S 1 1.00
     Exponent=  4.9057500000D+03 Coefficients=  1.0000000000D+00
 S 1 1.00
     Exponent=  1.9127460000D+03 Coefficients=  1.0000000000D+00
 S 1 1.00
     Exponent=  7.9260430000D+02 Coefficients=  1.0000000000D+00
 S 1 1.00
     Exponent=  3.4480650000D+02 Coefficients=  1.0000000000D+00
 S 1 1.00
     Exponent=  1.5589990000D+02 Coefficients=  1.0000000000D+00
 S 1 1.00
     Exponent=  7.2230910000D+01 Coefficients=  1.0000000000D+00
 S 1 1.00
     Exponent=  3.2725060000D+01 Coefficients=  1.0000000000D+00
 S 1 1.00
     Exponent=  1.5667620000D+01 Coefficients=  1.0000000000D+00
 S 1 1.00
     Exponent=  7.5034830000D+00 Coefficients=  1.0000000000D+00
 S 1 1.00
     Exponent=  3.3122230000D+00 Coefficients=  1.0000000000D+00
 S 1 1.00
     Exponent=  1.5584710000D+00 Coefficients=  1.0000000000D+00
 S 1 1.00
     Exponent=  6.8391400000D-01 Coefficients=  1.0000000000D+00
 S 1 1.00
     Exponent=  1.4675700000D-01 Coefficients=  1.0000000000D+00
 S 1 1.00
     Exponent=  7.0583000000D-02 Coefficients=  1.0000000000D+00
 S 1 1.00
     Exponent=  3.1449000000D-02 Coefficients=  1.0000000000D+00
 S 1 1.00
     Exponent=  4.6844000000D+00 Coefficients=  1.0000000000D+00
 S 1 1.00
     Exponent=  1.2204000000D+00 Coefficients=  1.0000000000D+00
 S 1 1.00
     Exponent=  1.4010000000D-02 Coefficients=  1.0000000000D+00
 P 1 1.00
     Exponent=  1.7745690000D+04 Coefficients=  1.0000000000D+00
 P 1 1.00
     Exponent=  4.2007210000D+03 Coefficients=  1.0000000000D+00
 P 1 1.00
     Exponent=  1.3644290000D+03 Coefficients=  1.0000000000D+00
 P 1 1.00
     Exponent=  5.2208060000D+02 Coefficients=  1.0000000000D+00
 P 1 1.00
     Exponent=  2.2145950000D+02 Coefficients=  1.0000000000D+00
 P 1 1.00
     Exponent=  1.0090960000D+02 Coefficients=  1.0000000000D+00
 P 1 1.00
     Exponent=  4.8401150000D+01 Coefficients=  1.0000000000D+00
 P 1 1.00
     Exponent=  2.3985360000D+01 Coefficients=  1.0000000000D+00
 P 1 1.00
     Exponent=  1.2182500000D+01 Coefficients=  1.0000000000D+00
 P 1 1.00
     Exponent=  6.2422980000D+00 Coefficients=  1.0000000000D+00
 P 1 1.00
     Exponent=  3.1109440000D+00 Coefficients=  1.0000000000D+00
 P 1 1.00
     Exponent=  1.5099580000D+00 Coefficients=  1.0000000000D+00
 P 1 1.00
     Exponent=  7.1084500000D-01 Coefficients=  1.0000000000D+00
 P 1 1.00
     Exponent=  2.7259800000D-01 Coefficients=  1.0000000000D+00
 P 1 1.00
     Exponent=  1.0397200000D-01 Coefficients=  1.0000000000D+00
 P 1 1.00
     Exponent=  3.8166000000D-02 Coefficients=  1.0000000000D+00
 P 1 1.00
     Exponent=  6.8788000000D+00 Coefficients=  1.0000000000D+00
 P 1 1.00
     Exponent=  1.5748000000D+00 Coefficients=  1.0000000000D+00
 P 1 1.00
     Exponent=  1.4010000000D-02 Coefficients=  1.0000000000D+00
 D 1 1.00
     Exponent=  1.1488400000D+02 Coefficients=  1.0000000000D+00
 D 1 1.00
     Exponent=  3.3887800000D+01 Coefficients=  1.0000000000D+00
 D 1 1.00
     Exponent=  1.2373000000D+01 Coefficients=  1.0000000000D+00
 D 1 1.00
     Exponent=  4.9992500000D+00 Coefficients=  1.0000000000D+00
 D 1 1.00
     Exponent=  2.0704300000D+00 Coefficients=  1.0000000000D+00
 D 1 1.00
     Exponent=  8.2818300000D-01 Coefficients=  1.0000000000D+00
 D 1 1.00
     Exponent=  3.0754700000D-01 Coefficients=  1.0000000000D+00
 D 1 1.00
     Exponent=  9.9455000000D-02 Coefficients=  1.0000000000D+00
 D 1 1.00
     Exponent=  4.5305000000D+00 Coefficients=  1.0000000000D+00
 D 1 1.00
     Exponent=  2.1205000000D+00 Coefficients=  1.0000000000D+00
 D 1 1.00
     Exponent=  3.2160000000D-02 Coefficients=  1.0000000000D+00
 F 1 1.00
     Exponent=  6.0066000000D+00 Coefficients=  1.0000000000D+00
 F 1 1.00
     Exponent=  2.2522000000D+00 Coefficients=  1.0000000000D+00
 F 1 1.00
     Exponent=  7.7580000000D-01 Coefficients=  1.0000000000D+00
 F 1 1.00
     Exponent=  2.6723000000D-01 Coefficients=  1.0000000000D+00
 G 1 1.00
     Exponent=  5.5068000000D+00 Coefficients=  1.0000000000D+00
 G 1 1.00
     Exponent=  2.0515000000D+00 Coefficients=  1.0000000000D+00
 G 1 1.00
     Exponent=  7.6426000000D-01 Coefficients=  1.0000000000D+00
 ****
 Centers:       2
 S 1 1.00
     Exponent=  1.5330000000D+04 Coefficients=  1.0000000000D+00
 S 1 1.00
     Exponent=  2.2990000000D+03 Coefficients=  1.0000000000D+00
 S 1 1.00
     Exponent=  5.2240000000D+02 Coefficients=  1.0000000000D+00
 S 1 1.00
     Exponent=  1.4730000000D+02 Coefficients=  1.0000000000D+00
 S 1 1.00
     Exponent=  4.7550000000D+01 Coefficients=  1.0000000000D+00
 S 1 1.00
     Exponent=  1.6760000000D+01 Coefficients=  1.0000000000D+00
 S 1 1.00
     Exponent=  6.2070000000D+00 Coefficients=  1.0000000000D+00
 S 1 1.00
     Exponent=  6.8820000000D-01 Coefficients=  1.0000000000D+00
 S 1 1.00
     Exponent=  1.7520000000D+00 Coefficients=  1.0000000000D+00
 S 1 1.00
     Exponent=  2.3840000000D-01 Coefficients=  1.0000000000D+00
 S 1 1.00
     Exponent=  7.8450000000D+00 Coefficients=  1.0000000000D+00
 S 1 1.00
     Exponent=  2.1032000000D+01 Coefficients=  1.0000000000D+00
 S 1 1.00
     Exponent=  7.3760000000D-02 Coefficients=  1.0000000000D+00
 P 1 1.00
     Exponent=  3.4460000000D+01 Coefficients=  1.0000000000D+00
 P 1 1.00
     Exponent=  7.7490000000D+00 Coefficients=  1.0000000000D+00
 P 1 1.00
     Exponent=  2.2800000000D+00 Coefficients=  1.0000000000D+00
 P 1 1.00
     Exponent=  7.1560000000D-01 Coefficients=  1.0000000000D+00
 P 1 1.00
     Exponent=  2.1400000000D-01 Coefficients=  1.0000000000D+00
 P 1 1.00
     Exponent=  1.5159000000D+01 Coefficients=  1.0000000000D+00
 P 1 1.00
     Exponent=  5.7437000000D+01 Coefficients=  1.0000000000D+00
 P 1 1.00
     Exponent=  5.9740000000D-02 Coefficients=  1.0000000000D+00
 D 1 1.00
     Exponent=  2.3140000000D+00 Coefficients=  1.0000000000D+00
 D 1 1.00
     Exponent=  6.4500000000D-01 Coefficients=  1.0000000000D+00
 D 1 1.00
     Exponent=  1.5858000000D+01 Coefficients=  1.0000000000D+00
 D 1 1.00
     Exponent=  2.1400000000D-01 Coefficients=  1.0000000000D+00
 F 1 1.00
     Exponent=  1.4280000000D+00 Coefficients=  1.0000000000D+00
 F 1 1.00
     Exponent=  5.0000000000D-01 Coefficients=  1.0000000000D+00
 ****
 ======================================================================================================
                                       Pseudopotential Parameters
 ======================================================================================================
  Center     Atomic      Valence      Angular      Power
  Number     Number     Electrons     Momentum     of R      Exponent        Coefficient   SO-Coeffient
 ======================================================================================================
    1         26           16
                                      D and up 
                                                     1        3.7207563       16.00000000    0.00000000
                                                     3        3.9232127       59.53210107    0.00000000
                                                     2        3.8959544      -68.75847841    0.00000000
                                      S - D
                                                     2       10.4234355      112.92561163    0.00000000
                                      P - D
                                                     2        8.4166408       52.55882759    0.00000000
    2          8            6
                                      P and up 
                                                     1        9.2979390        6.00000000    0.00000000
                                                     3        8.8649220       55.78763416    0.00000000
                                                     2        8.6292567      -38.81978498    0.00000000
                                      S - P
                                                     2        8.7192445       38.41914135    0.00000000
 ======================================================================================================
 Ernie: Thresh=  0.10000D-02 Tol=  0.10000D-05 Strict=F.
 There are   144 symmetry adapted cartesian basis functions of A1  symmetry.
 There are    30 symmetry adapted cartesian basis functions of A2  symmetry.
 There are    69 symmetry adapted cartesian basis functions of B1  symmetry.
 There are    69 symmetry adapted cartesian basis functions of B2  symmetry.
 There are   114 symmetry adapted basis functions of A1  symmetry.
 There are    27 symmetry adapted basis functions of A2  symmetry.
 There are    60 symmetry adapted basis functions of B1  symmetry.
 There are    60 symmetry adapted basis functions of B2  symmetry.
   261 basis functions,   312 primitive gaussians,   312 cartesian basis functions
    13 alpha electrons        9 beta electrons
       nuclear repulsion energy        36.2864373202 Hartrees.
 IExCor=    0 DFT=F Ex=HF Corr=None ExCW=0 ScaHFX=  1.000000
 ScaDFX=  1.000000  1.000000  1.000000  1.000000 ScalE2=  1.000000  1.000000
 IRadAn=      5 IRanWt=     -1 IRanGd=            0 ICorTp=0 IEmpDi=  4
 NAtoms=    2 NActive=    2 NUniq=    2 SFac= 1.00D+00 NAtFMM=   60 NAOKFM=F Big=F
 Integral buffers will be    131072 words long.
 Raffenetti 2 integral format.
 Two-electron integral symmetry is turned on.
 Leave Link  301 at Sat Mar 24 00:28:28 2018, MaxMem= 10737418240 cpu:               8.0 elap:               0.3
 (Enter /home1/apps/gaussian/16rA.03/g16/l302.exe)
 NPDir=0 NMtPBC=     1 NCelOv=     1 NCel=       1 NClECP=     1 NCelD=      1
         NCelK=      1 NCelE2=     1 NClLst=     1 CellRange=     0.0.
 One-electron integrals computed using PRISM.
 One-electron integral symmetry used in STVInt
   4 Symmetry operations used in ECPInt.
 ECPInt:  NShTT=    3828 NPrTT=    3828 LenC2=    3577 LenP2D=    3576.
 LDataN:  DoStor=T MaxTD1= 8 Len=  415
 NBasis=   261 RedAO= T EigKep=  1.93D-06  NBF=   114    27    60    60
 NBsUse=   258 1.00D-06 EigRej=  9.50D-07 NBFU=   113    27    59    59
 Leave Link  302 at Sat Mar 24 00:28:30 2018, MaxMem= 10737418240 cpu:              31.1 elap:               1.0
 (Enter /home1/apps/gaussian/16rA.03/g16/l303.exe)
 DipDrv:  MaxL=1.
 Leave Link  303 at Sat Mar 24 00:28:30 2018, MaxMem= 10737418240 cpu:               2.4 elap:               0.1
 (Enter /home1/apps/gaussian/16rA.03/g16/l401.exe)
 ExpMin= 1.40D-02 ExpMax= 4.32D+06 ExpMxC= 4.32D+06 IAcc=4 IRadAn=    199590 AccDes= 0.00D+00
 Harris functional with IExCor=  205 and IRadAn=  199590 diagonalized for initial guess.
 HarFok:  IExCor=  205 AccDes= 0.00D+00 IRadAn=    199590 IDoV= 1 UseB2=F ITyADJ=14
 ICtDFT=  3500011 ScaDFX=  1.000000  1.000000  1.000000  1.000000
 Spurious integrated density or basis function:
 NE=   22 NElCor=    0 El error=3.83D-09 rel=1.13D-10 Tolerance=1.00D-03
 Shell     1     absolute error=1.51D-02              Tolerance=1.20D-02
 Shell     2       signed error=3.25D-05              Tolerance=1.00D-01
 FoFCou: FMM=F IPFlag=           8 FMFlag=      100000 FMFlg1=           0
         NFxFlg=           0 DoJE=T BraDBF=F KetDBF=T FulRan=T
         wScrn=  0.000000 ICntrl=       500 IOpCl=  0 I1Cent=   200000004 NGrid=           0
         NMat0=    1 NMatS0=      1 NMatT0=    0 NMatD0=    1 NMtDS0=    0 NMtDT0=    0
 Petite list used in FoFCou.
 Harris En= -140.093404993186    
 JPrj=0 DoOrth=F DoCkMO=F.
 Initial guess orbital symmetries:
       Occupied  (SG) (SG) (PI) (PI) (SG) (SG) (PI) (PI) (DLTA)
                 (DLTA) (SG) (PI) (PI)
       Virtual   (SG) (PI) (PI) (SG) (SG) (PI) (PI) (DLTA) (DLTA)
                 (SG) (PI) (PI) (SG) (SG) (SG) (PI) (PI) (PI) (PI)
                 (SG) (DLTA) (DLTA) (PI) (PI) (SG) (SG) (SG) (DLTA)
                 (DLTA) (PI) (PI) (SG) (PI) (PI) (PHI) (PHI) (PI)
                 (PI) (SG) (SG) (DLTA) (DLTA) (PI) (PI) (DLTA)
                 (DLTA) (SG) (PI) (PI) (SG) (SG) (SG) (DLTA) (DLTA)
                 (PHI) (PHI) (PI) (PI) (DLTA) (DLTA) (SG) (PI)
                 (PI) (SG) (PI) (PI) (PHI) (PHI) (DLTA) (DLTA)
                 (SG) (PI) (PI) (DLTA) (DLTA) (SG) (PI) (PI) (?A)
                 (?A) (PHI) (PHI) (PI) (PI) (SG) (DLTA) (DLTA)
                 (SG) (SG) (PI) (PI) (SG) (PHI) (PHI) (SG) (DLTA)
                 (DLTA) (DLTA) (DLTA) (PI) (PI) (SG) (PI) (PI)
                 (SG) (PHI) (PHI) (DLTA) (DLTA) (PI) (PI) (PI)
                 (PI) (DLTA) (DLTA) (SG) (SG) (PI) (PI) (?A) (?A)
                 (PHI) (PHI) (SG) (DLTA) (DLTA) (PI) (PI) (SG)
                 (SG) (SG) (PI) (PI) (SG) (SG) (DLTA) (DLTA) (PI)
                 (PI) (PI) (PI) (SG) (PHI) (PHI) (DLTA) (DLTA)
                 (PI) (PI) (SG) (?A) (?A) (PHI) (PHI) (DLTA) (DLTA)
                 (PI) (PI) (SG) (SG) (SG) (DLTA) (DLTA) (PI) (PI)
                 (SG) (PI) (PI) (SG) (DLTA) (DLTA) (PI) (PI) (SG)
                 (PI) (PI) (SG) (SG) (SG) (DLTA) (DLTA) (PI) (PI)
                 (SG) (PI) (PI) (SG) (SG) (PI) (PI) (SG) (SG) (PI)
                 (PI) (SG) (DLTA) (DLTA) (PI) (PI) (SG) (SG) (SG)
                 (PI) (PI) (SG) (PI) (PI) (SG) (SG) (SG) (DLTA)
                 (DLTA) (PI) (PI) (PI) (PI) (SG) (SG) (SG) (PI)
                 (PI) (SG) (SG) (SG) (PI) (PI) (SG) (SG) (PI) (PI)
                 (SG) (SG) (SG) (PI) (PI) (SG) (SG) (SG) (SG) (PI)
                 (PI) (SG) (SG) (SG) (SG) (SG)
 Leave Link  401 at Sat Mar 24 00:28:33 2018, MaxMem= 10737418240 cpu:              43.1 elap:               1.5
 (Enter /home1/apps/gaussian/16rA.03/g16/l502.exe)
 Keep R1 and R2 ints in memory in symmetry-blocked form, NReq=734602573.
 FoFCou: FMM=F IPFlag=           8 FMFlag=           0 FMFlg1=           0
         NFxFlg=           0 DoJE=F BraDBF=F KetDBF=F FulRan=T
         wScrn=  0.000000 ICntrl=       600 IOpCl=  0 I1Cent=           0 NGrid=           0
         NMat0=    1 NMatS0=  34191 NMatT0=    0 NMatD0=    1 NMtDS0=    0 NMtDT0=    0
 Petite list used in FoFCou.
 Restricted open shell SCF:
 Using DIIS extrapolation, IDIIS=  1040.
 NGot= 10737418240 LenX= 10437146893 LenY= 10437049108
 Requested convergence on RMS density matrix=1.00D-08 within 400 cycles.
 Requested convergence on MAX density matrix=1.00D-06.
 Requested convergence on             energy=1.00D-06.
 No special actions if energy rises.

 Cycle   1  Pass 1  IDiag  1:
 E= -138.564550993325    
 DIIS: error= 4.07D-02 at cycle   1 NSaved=   1.
 NSaved= 1 IEnMin= 1 EnMin= -138.564550993325     IErMin= 1 ErrMin= 4.07D-02
 ErrMax= 4.07D-02  0.00D+00 EMaxC= 1.00D-01 BMatC= 3.08D-01 BMatP= 3.08D-01
 IDIUse=3 WtCom= 5.93D-01 WtEn= 4.07D-01
 Coeff-Com:  0.100D+01
 Coeff-En:   0.100D+01
 Coeff:      0.100D+01
 Gap=     0.087 Goal=   None    Shift=    0.000
 GapD=    0.087 DampG=0.500 DampE=0.250 DampFc=0.1250 IDamp=-1.
 Damping current iteration by 1.25D-01
 RMSDP=4.65D-03 MaxDP=3.90D-01              OVMax= 5.31D-01

 Cycle   2  Pass 1  IDiag  1:
 E= -138.582452372562     Delta-E=       -0.017901379238 Rises=F Damp=T
 DIIS: error= 2.83D-02 at cycle   2 NSaved=   2.
 NSaved= 2 IEnMin= 2 EnMin= -138.582452372562     IErMin= 2 ErrMin= 2.83D-02
 ErrMax= 2.83D-02  0.00D+00 EMaxC= 1.00D-01 BMatC= 1.83D-01 BMatP= 3.08D-01
 IDIUse=3 WtCom= 7.17D-01 WtEn= 2.83D-01
 Coeff-Com: -0.139D+01 0.239D+01
 Coeff-En:   0.120D+00 0.880D+00
 Coeff:     -0.963D+00 0.196D+01
 Gap=     0.043 Goal=   None    Shift=    0.000
 RMSDP=4.62D-03 MaxDP=2.93D-01 DE=-1.79D-02 OVMax= 6.32D-01

 Cycle   3  Pass 1  IDiag  1:
 E= -138.483864621009     Delta-E=        0.098587751554 Rises=F Damp=F
 DIIS: error= 6.49D-02 at cycle   3 NSaved=   3.
 NSaved= 3 IEnMin= 2 EnMin= -138.582452372562     IErMin= 2 ErrMin= 2.83D-02
 ErrMax= 6.49D-02  0.00D+00 EMaxC= 1.00D-01 BMatC= 2.62D-01 BMatP= 1.83D-01
 IDIUse=2 WtCom= 0.00D+00 WtEn= 1.00D+00
 Coeff-En:   0.000D+00 0.619D+00 0.381D+00
 Coeff:      0.000D+00 0.619D+00 0.381D+00
 Gap=     0.136 Goal=   None    Shift=    0.000
 RMSDP=4.10D-03 MaxDP=3.23D-01 DE= 9.86D-02 OVMax= 4.39D-01

 Cycle   4  Pass 1  IDiag  1:
 E= -138.627199453322     Delta-E=       -0.143334832313 Rises=F Damp=F
 DIIS: error= 3.62D-02 at cycle   4 NSaved=   4.
 NSaved= 4 IEnMin= 4 EnMin= -138.627199453322     IErMin= 2 ErrMin= 2.83D-02
 ErrMax= 3.62D-02  0.00D+00 EMaxC= 1.00D-01 BMatC= 1.46D-01 BMatP= 1.83D-01
 IDIUse=3 WtCom= 6.38D-01 WtEn= 3.62D-01
 EnCoef did     3 forward-backward iterations
 Coeff-Com: -0.595D+00 0.969D+00 0.304D+00 0.322D+00
 Coeff-En:   0.000D+00 0.348D-01 0.350D+00 0.615D+00
 Coeff:     -0.380D+00 0.631D+00 0.321D+00 0.428D+00
 Gap=     0.107 Goal=   None    Shift=    0.000
 RMSDP=1.95D-03 MaxDP=1.49D-01 DE=-1.43D-01 OVMax= 9.14D-02

 Cycle   5  Pass 1  IDiag  1:
 E= -138.706675314548     Delta-E=       -0.079475861226 Rises=F Damp=F
 DIIS: error= 2.18D-02 at cycle   5 NSaved=   5.
 NSaved= 5 IEnMin= 5 EnMin= -138.706675314548     IErMin= 5 ErrMin= 2.18D-02
 ErrMax= 2.18D-02  0.00D+00 EMaxC= 1.00D-01 BMatC= 4.49D-02 BMatP= 1.46D-01
 IDIUse=3 WtCom= 7.82D-01 WtEn= 2.18D-01
 EnCoef did     2 forward-backward iterations
 Coeff-Com: -0.413D+00 0.510D+00 0.889D-01 0.290D+00 0.525D+00
 Coeff-En:   0.000D+00 0.000D+00 0.152D+00 0.162D+00 0.686D+00
 Coeff:     -0.323D+00 0.399D+00 0.103D+00 0.262D+00 0.560D+00
 Gap=     0.098 Goal=   None    Shift=    0.000
 RMSDP=1.21D-03 MaxDP=9.79D-02 DE=-7.95D-02 OVMax= 1.03D-01

 Cycle   6  Pass 1  IDiag  1:
 E= -138.723816516969     Delta-E=       -0.017141202421 Rises=F Damp=F
 DIIS: error= 7.31D-03 at cycle   6 NSaved=   6.
 NSaved= 6 IEnMin= 6 EnMin= -138.723816516969     IErMin= 6 ErrMin= 7.31D-03
 ErrMax= 7.31D-03  0.00D+00 EMaxC= 1.00D-01 BMatC= 5.93D-03 BMatP= 4.49D-02
 IDIUse=3 WtCom= 9.27D-01 WtEn= 7.31D-02
 Coeff-Com: -0.340D+00 0.388D+00-0.189D-02 0.143D+00 0.318D+00 0.492D+00
 Coeff-En:   0.000D+00 0.000D+00 0.000D+00 0.000D+00 0.183D+00 0.817D+00
 Coeff:     -0.315D+00 0.360D+00-0.175D-02 0.133D+00 0.309D+00 0.516D+00
 Gap=     0.079 Goal=   None    Shift=    0.000
 RMSDP=1.58D-03 MaxDP=1.39D-01 DE=-1.71D-02 OVMax= 1.11D-01

 Cycle   7  Pass 1  IDiag  1:
 E= -138.729634338743     Delta-E=       -0.005817821774 Rises=F Damp=F
 DIIS: error= 8.85D-03 at cycle   7 NSaved=   7.
 NSaved= 7 IEnMin= 7 EnMin= -138.729634338743     IErMin= 6 ErrMin= 7.31D-03
 ErrMax= 8.85D-03  0.00D+00 EMaxC= 1.00D-01 BMatC= 5.02D-03 BMatP= 5.93D-03
 IDIUse=3 WtCom= 9.27D-01 WtEn= 7.31D-02
 EnCoef did     5 forward-backward iterations
 Coeff-Com: -0.214D+00 0.252D+00-0.404D-01 0.224D-01-0.458D-01 0.489D+00
 Coeff-Com:  0.536D+00
 Coeff-En:   0.000D+00 0.000D+00 0.545D-01 0.000D+00 0.000D+00 0.230D+00
 Coeff-En:   0.715D+00
 Coeff:     -0.198D+00 0.234D+00-0.335D-01 0.208D-01-0.425D-01 0.470D+00
 Coeff:      0.549D+00
 Gap=     0.075 Goal=   None    Shift=    0.000
 RMSDP=1.11D-03 MaxDP=8.99D-02 DE=-5.82D-03 OVMax= 5.48D-02

 Cycle   8  Pass 1  IDiag  1:
 E= -138.734528220174     Delta-E=       -0.004893881431 Rises=F Damp=F
 DIIS: error= 4.23D-03 at cycle   8 NSaved=   8.
 NSaved= 8 IEnMin= 8 EnMin= -138.734528220174     IErMin= 8 ErrMin= 4.23D-03
 ErrMax= 4.23D-03  0.00D+00 EMaxC= 1.00D-01 BMatC= 1.43D-03 BMatP= 5.02D-03
 IDIUse=3 WtCom= 9.58D-01 WtEn= 4.23D-02
 EnCoef did   100 forward-backward iterations
 Coeff-Com: -0.900D-01 0.121D+00-0.343D-01-0.289D-01-0.208D+00 0.334D+00
 Coeff-Com:  0.380D+00 0.526D+00
 Coeff-En:   0.000D+00 0.000D+00 0.106D+00 0.000D+00 0.000D+00 0.947D-02
 Coeff-En:   0.685D-04 0.884D+00
 Coeff:     -0.862D-01 0.116D+00-0.284D-01-0.277D-01-0.199D+00 0.321D+00
 Coeff:      0.364D+00 0.541D+00
 Gap=     0.073 Goal=   None    Shift=    0.000
 RMSDP=5.83D-04 MaxDP=7.13D-02 DE=-4.89D-03 OVMax= 4.15D-02

 Cycle   9  Pass 1  IDiag  1:
 E= -138.735954422535     Delta-E=       -0.001426202362 Rises=F Damp=F
 DIIS: error= 2.10D-03 at cycle   9 NSaved=   9.
 NSaved= 9 IEnMin= 9 EnMin= -138.735954422535     IErMin= 9 ErrMin= 2.10D-03
 ErrMax= 2.10D-03  0.00D+00 EMaxC= 1.00D-01 BMatC= 4.67D-04 BMatP= 1.43D-03
 IDIUse=3 WtCom= 9.79D-01 WtEn= 2.10D-02
 EnCoef did   100 forward-backward iterations
 Coeff-Com: -0.381D-01 0.534D-01-0.122D-01-0.145D-01-0.938D-01 0.236D+00
 Coeff-Com:  0.505D-02 0.195D+00 0.670D+00
 Coeff-En:   0.000D+00 0.000D+00 0.114D+00 0.000D+00 0.000D+00 0.101D-01
 Coeff-En:   0.000D+00 0.312D-03 0.875D+00
 Coeff:     -0.373D-01 0.523D-01-0.957D-02-0.142D-01-0.918D-01 0.231D+00
 Coeff:      0.494D-02 0.191D+00 0.674D+00
 Gap=     0.075 Goal=   None    Shift=    0.000
 RMSDP=2.77D-04 MaxDP=3.07D-02 DE=-1.43D-03 OVMax= 2.56D-02

 Cycle  10  Pass 1  IDiag  1:
 E= -138.736815870476     Delta-E=       -0.000861447940 Rises=F Damp=F
 DIIS: error= 1.44D-03 at cycle  10 NSaved=  10.
 NSaved=10 IEnMin=10 EnMin= -138.736815870476     IErMin=10 ErrMin= 1.44D-03
 ErrMax= 1.44D-03  0.00D+00 EMaxC= 1.00D-01 BMatC= 1.31D-04 BMatP= 4.67D-04
 IDIUse=3 WtCom= 9.86D-01 WtEn= 1.44D-02
 EnCoef did   100 forward-backward iterations
 Rare condition: small coef for last iteration:  0.000D+00
 Coeff-Com: -0.230D-01 0.251D-01 0.971D-03 0.387D-02 0.365D-01 0.960D-01
 Coeff-Com: -0.133D+00-0.178D+00 0.406D+00 0.766D+00
 Coeff-En:   0.000D+00 0.000D+00 0.905D-01 0.000D+00 0.000D+00 0.560D-01
 Coeff-En:   0.000D+00 0.000D+00 0.000D+00 0.853D+00
 Coeff:     -0.230D-01 0.251D-01 0.971D-03 0.387D-02 0.365D-01 0.960D-01
 Coeff:     -0.133D+00-0.178D+00 0.406D+00 0.766D+00
 Gap=     0.076 Goal=   None    Shift=    0.000
 RMSDP=2.89D-04 MaxDP=2.22D-02 DE=-8.61D-04 OVMax= 2.61D-02

 Cycle  11  Pass 1  IDiag  1:
 E= -138.737240856673     Delta-E=       -0.000424986197 Rises=F Damp=F
 DIIS: error= 1.08D-03 at cycle  11 NSaved=  11.
 NSaved=11 IEnMin=11 EnMin= -138.737240856673     IErMin=11 ErrMin= 1.08D-03
 ErrMax= 1.08D-03  0.00D+00 EMaxC= 1.00D-01 BMatC= 8.03D-05 BMatP= 1.31D-04
 IDIUse=3 WtCom= 9.89D-01 WtEn= 1.08D-02
 EnCoef did   100 forward-backward iterations
 Coeff-Com: -0.259D-02 0.364D-02-0.655D-02 0.131D-01 0.152D-01-0.217D-01
 Coeff-Com:  0.471D-01-0.199D-01-0.223D+00 0.224D-01 0.117D+01
 Coeff-En:   0.000D+00 0.000D+00 0.115D+00 0.000D+00 0.000D+00 0.000D+00
 Coeff-En:   0.000D+00 0.000D+00 0.854D+00 0.132D-01 0.178D-01
 Coeff:     -0.256D-02 0.360D-02-0.524D-02 0.130D-01 0.150D-01-0.215D-01
 Coeff:      0.466D-01-0.196D-01-0.212D+00 0.223D-01 0.116D+01
 Gap=     0.077 Goal=   None    Shift=    0.000
 RMSDP=2.97D-04 MaxDP=2.53D-02 DE=-4.25D-04 OVMax= 3.67D-02

 Cycle  12  Pass 1  IDiag  1:
 E= -138.737574494619     Delta-E=       -0.000333637947 Rises=F Damp=F
 DIIS: error= 1.29D-03 at cycle  12 NSaved=  12.
 NSaved=12 IEnMin=12 EnMin= -138.737574494619     IErMin=11 ErrMin= 1.08D-03
 ErrMax= 1.29D-03  0.00D+00 EMaxC= 1.00D-01 BMatC= 1.10D-04 BMatP= 8.03D-05
 IDIUse=3 WtCom= 9.89D-01 WtEn= 1.08D-02
 EnCoef did   100 forward-backward iterations
 Rare condition: small coef for last iteration:  0.263D-15
 Coeff-Com:  0.487D-01-0.538D-01-0.139D-01 0.158D-01-0.275D-01-0.212D-01
 Coeff-Com:  0.142D+00 0.897D-01-0.469D+00-0.578D+00 0.575D+00 0.129D+01
 Coeff-En:   0.000D+00 0.000D+00 0.897D-01 0.000D+00 0.000D+00 0.000D+00
 Coeff-En:   0.000D+00 0.000D+00 0.000D+00 0.000D+00 0.000D+00 0.910D+00
 Coeff:      0.487D-01-0.538D-01-0.139D-01 0.158D-01-0.275D-01-0.212D-01
 Coeff:      0.142D+00 0.897D-01-0.469D+00-0.578D+00 0.575D+00 0.129D+01
 Gap=     0.080 Goal=   None    Shift=    0.000
 RMSDP=3.54D-04 MaxDP=4.03D-02 DE=-3.34D-04 OVMax= 6.57D-02

 Cycle  13  Pass 1  IDiag  1:
 E= -138.737688712865     Delta-E=       -0.000114218246 Rises=F Damp=F
 DIIS: error= 1.88D-03 at cycle  13 NSaved=  13.
 NSaved=13 IEnMin=13 EnMin= -138.737688712865     IErMin=11 ErrMin= 1.08D-03
 ErrMax= 1.88D-03  0.00D+00 EMaxC= 1.00D-01 BMatC= 3.02D-04 BMatP= 8.03D-05
 IDIUse=3 WtCom= 9.89D-01 WtEn= 1.08D-02
 Coeff-Com:  0.716D-01-0.806D-01-0.154D-01 0.173D-01-0.306D-01 0.132D-01
 Coeff-Com:  0.151D+00 0.842D-01-0.500D+00-0.497D+00 0.434D+00 0.854D+00
 Coeff-Com:  0.499D+00
 Coeff-En:   0.000D+00 0.000D+00 0.891D-01 0.000D+00 0.000D+00 0.000D+00
 Coeff-En:   0.000D+00 0.000D+00 0.000D+00 0.000D+00 0.000D+00 0.000D+00
 Coeff-En:   0.911D+00
 Coeff:      0.708D-01-0.798D-01-0.143D-01 0.171D-01-0.302D-01 0.131D-01
 Coeff:      0.149D+00 0.833D-01-0.494D+00-0.492D+00 0.429D+00 0.845D+00
 Coeff:      0.503D+00
 Gap=     0.084 Goal=   None    Shift=    0.000
 RMSDP=1.56D-04 MaxDP=1.43D-02 DE=-1.14D-04 OVMax= 3.45D-02

 Cycle  14  Pass 1  IDiag  1:
 E= -138.737543417464     Delta-E=        0.000145295402 Rises=F Damp=F
 DIIS: error= 2.27D-03 at cycle  14 NSaved=  14.
 NSaved=14 IEnMin=13 EnMin= -138.737688712865     IErMin=11 ErrMin= 1.08D-03
 ErrMax= 2.27D-03  0.00D+00 EMaxC= 1.00D-01 BMatC= 4.34D-04 BMatP= 8.03D-05
 IDIUse=3 WtCom= 9.89D-01 WtEn= 1.08D-02
 Rare condition: small coef for last iteration:  0.000D+00
 Coeff-Com:  0.614D-01-0.691D-01-0.154D-01 0.209D-01-0.212D-01 0.112D-01
 Coeff-Com:  0.118D+00 0.537D-01-0.439D+00-0.561D+00 0.944D-01 0.111D+01
 Coeff-Com:  0.202D+01-0.138D+01
 Coeff-En:   0.000D+00 0.000D+00 0.873D-01 0.000D+00 0.000D+00 0.000D+00
 Coeff-En:   0.000D+00 0.000D+00 0.000D+00 0.000D+00 0.000D+00 0.000D+00
 Coeff-En:   0.000D+00 0.913D+00
 Coeff:      0.614D-01-0.691D-01-0.154D-01 0.209D-01-0.212D-01 0.112D-01
 Coeff:      0.118D+00 0.537D-01-0.439D+00-0.561D+00 0.944D-01 0.111D+01
 Coeff:      0.202D+01-0.138D+01
 Gap=     0.081 Goal=   None    Shift=    0.000
 RMSDP=1.35D-04 MaxDP=1.08D-02 DE= 1.45D-04 OVMax= 3.05D-02

 Cycle  15  Pass 1  IDiag  1:
 E= -138.737664584970     Delta-E=       -0.000121167506 Rises=F Damp=F
 DIIS: error= 1.99D-03 at cycle  15 NSaved=  15.
 NSaved=15 IEnMin=13 EnMin= -138.737688712865     IErMin=11 ErrMin= 1.08D-03
 ErrMax= 1.99D-03  0.00D+00 EMaxC= 1.00D-01 BMatC= 3.19D-04 BMatP= 8.03D-05
 IDIUse=3 WtCom= 9.89D-01 WtEn= 1.08D-02
 Coeff-Com:  0.515D-01-0.579D-01-0.106D-01 0.255D-01 0.531D-02 0.439D-01
 Coeff-Com:  0.626D-01-0.255D-01-0.338D+00-0.295D+00-0.221D+00 0.553D+00
 Coeff-Com:  0.268D+01-0.281D+01 0.133D+01
 Coeff-En:   0.000D+00 0.000D+00 0.900D-01 0.000D+00 0.000D+00 0.000D+00
 Coeff-En:   0.000D+00 0.000D+00 0.000D+00 0.000D+00 0.000D+00 0.000D+00
 Coeff-En:   0.000D+00 0.000D+00 0.910D+00
 Coeff:      0.509D-01-0.573D-01-0.948D-02 0.252D-01 0.525D-02 0.434D-01
 Coeff:      0.619D-01-0.252D-01-0.334D+00-0.292D+00-0.219D+00 0.547D+00
 Coeff:      0.265D+01-0.278D+01 0.133D+01
 Gap=     0.081 Goal=   None    Shift=    0.000
 RMSDP=1.41D-04 MaxDP=1.07D-02 DE=-1.21D-04 OVMax= 1.55D-02

 Cycle  16  Pass 1  IDiag  1:
 E= -138.737804575150     Delta-E=       -0.000139990180 Rises=F Damp=F
 DIIS: error= 1.44D-03 at cycle  16 NSaved=  16.
 NSaved=16 IEnMin=16 EnMin= -138.737804575150     IErMin=11 ErrMin= 1.08D-03
 ErrMax= 1.44D-03  0.00D+00 EMaxC= 1.00D-01 BMatC= 1.77D-04 BMatP= 8.03D-05
 IDIUse=3 WtCom= 9.89D-01 WtEn= 1.08D-02
 Rare condition: small coef for last iteration:  0.000D+00
 Coeff-Com:  0.366D-01-0.410D-01-0.761D-02 0.176D-01 0.649D-03 0.368D-01
 Coeff-Com:  0.508D-01-0.157D-01-0.225D+00-0.187D+00-0.124D+00 0.395D+00
 Coeff-Com:  0.147D+01-0.217D+01 0.112D+01 0.641D+00
 Coeff-En:   0.000D+00 0.000D+00 0.868D-01 0.000D+00 0.000D+00 0.000D+00
 Coeff-En:   0.000D+00 0.000D+00 0.000D+00 0.000D+00 0.000D+00 0.000D+00
 Coeff-En:   0.000D+00 0.000D+00 0.000D+00 0.913D+00
 Coeff:      0.366D-01-0.410D-01-0.761D-02 0.176D-01 0.649D-03 0.368D-01
 Coeff:      0.508D-01-0.157D-01-0.225D+00-0.187D+00-0.124D+00 0.395D+00
 Coeff:      0.147D+01-0.217D+01 0.112D+01 0.641D+00
 Gap=     0.081 Goal=   None    Shift=    0.000
 RMSDP=8.56D-05 MaxDP=4.96D-03 DE=-1.40D-04 OVMax= 1.18D-02

 Cycle  17  Pass 1  IDiag  1:
 E= -138.737862085182     Delta-E=       -0.000057510032 Rises=F Damp=F
 DIIS: error= 1.27D-03 at cycle  17 NSaved=  17.
 NSaved=17 IEnMin=17 EnMin= -138.737862085182     IErMin=11 ErrMin= 1.08D-03
 ErrMax= 1.27D-03  0.00D+00 EMaxC= 1.00D-01 BMatC= 1.34D-04 BMatP= 8.03D-05
 IDIUse=3 WtCom= 9.89D-01 WtEn= 1.08D-02
 EnCoef did    74 forward-backward iterations
 Rare condition: small coef for last iteration:  0.000D+00
 Coeff-Com:  0.331D-01-0.370D-01-0.714D-02 0.157D-01-0.569D-03 0.318D-01
 Coeff-Com:  0.413D-01-0.107D-01-0.173D+00-0.164D+00-0.121D+00 0.295D+00
 Coeff-Com:  0.114D+01-0.191D+01 0.966D+00 0.445D+00 0.459D+00
 Coeff-En:   0.000D+00 0.000D+00 0.840D-01 0.000D+00 0.000D+00 0.000D+00
 Coeff-En:   0.000D+00 0.000D+00 0.000D+00 0.000D+00 0.000D+00 0.000D+00
 Coeff-En:   0.000D+00 0.000D+00 0.000D+00 0.000D+00 0.916D+00
 Coeff:      0.331D-01-0.370D-01-0.714D-02 0.157D-01-0.569D-03 0.318D-01
 Coeff:      0.413D-01-0.107D-01-0.173D+00-0.164D+00-0.121D+00 0.295D+00
 Coeff:      0.114D+01-0.191D+01 0.966D+00 0.445D+00 0.459D+00
 Gap=     0.081 Goal=   None    Shift=    0.000
 RMSDP=7.81D-05 MaxDP=8.13D-03 DE=-5.75D-05 OVMax= 5.28D-03

 Cycle  18  Pass 1  IDiag  1:
 E= -138.737875380690     Delta-E=       -0.000013295508 Rises=F Damp=F
 DIIS: error= 1.23D-03 at cycle  18 NSaved=  18.
 NSaved=18 IEnMin=18 EnMin= -138.737875380690     IErMin=11 ErrMin= 1.08D-03
 ErrMax= 1.23D-03  0.00D+00 EMaxC= 1.00D-01 BMatC= 1.25D-04 BMatP= 8.03D-05
 IDIUse=3 WtCom= 9.89D-01 WtEn= 1.08D-02
 EnCoef did    71 forward-backward iterations
 Rare condition: small coef for last iteration:  0.000D+00
 Coeff-Com:  0.254D-01-0.280D-01-0.654D-02 0.118D-01-0.713D-03 0.155D-01
 Coeff-Com:  0.544D-03 0.127D-02 0.815D-02-0.106D+00-0.184D+00-0.155D+00
 Coeff-Com:  0.382D+00-0.116D+01 0.469D+00-0.811D+00 0.126D+01 0.128D+01
 Coeff-En:   0.000D+00 0.000D+00 0.835D-01 0.000D+00 0.000D+00 0.000D+00
 Coeff-En:   0.000D+00 0.000D+00 0.000D+00 0.000D+00 0.000D+00 0.000D+00
 Coeff-En:   0.000D+00 0.000D+00 0.000D+00 0.000D+00 0.209D+00 0.708D+00
 Coeff:      0.254D-01-0.280D-01-0.654D-02 0.118D-01-0.713D-03 0.155D-01
 Coeff:      0.544D-03 0.127D-02 0.815D-02-0.106D+00-0.184D+00-0.155D+00
 Coeff:      0.382D+00-0.116D+01 0.469D+00-0.811D+00 0.126D+01 0.128D+01
 Gap=     0.081 Goal=   None    Shift=    0.000
 RMSDP=8.07D-05 MaxDP=7.23D-03 DE=-1.33D-05 OVMax= 4.70D-03

 Cycle  19  Pass 1  IDiag  1:
 E= -138.737945738884     Delta-E=       -0.000070358194 Rises=F Damp=F
 DIIS: error= 1.13D-03 at cycle  19 NSaved=  19.
 NSaved=19 IEnMin=19 EnMin= -138.737945738884     IErMin=11 ErrMin= 1.08D-03
 ErrMax= 1.13D-03  0.00D+00 EMaxC= 1.00D-01 BMatC= 9.81D-05 BMatP= 8.03D-05
 IDIUse=3 WtCom= 9.89D-01 WtEn= 1.08D-02
 EnCoef did    65 forward-backward iterations
 Rare condition: small coef for last iteration:  0.000D+00
 Coeff-Com:  0.656D-02-0.662D-02-0.609D-02 0.124D-01 0.251D-01 0.115D-01
 Coeff-Com: -0.559D-01-0.344D-01 0.161D+00-0.827D-02-0.280D+00-0.961D+00
 Coeff-Com:  0.472D+00-0.755D+00 0.452D+00-0.228D+01-0.114D+01 0.181D+01
 Coeff-Com:  0.357D+01
 Coeff-En:   0.000D+00 0.000D+00 0.806D-01 0.000D+00 0.000D+00 0.000D+00
 Coeff-En:   0.000D+00 0.000D+00 0.000D+00 0.000D+00 0.000D+00 0.000D+00
 Coeff-En:   0.000D+00 0.000D+00 0.000D+00 0.000D+00 0.000D+00 0.000D+00
 Coeff-En:   0.919D+00
 Coeff:      0.656D-02-0.662D-02-0.609D-02 0.124D-01 0.251D-01 0.115D-01
 Coeff:     -0.559D-01-0.344D-01 0.161D+00-0.827D-02-0.280D+00-0.961D+00
 Coeff:      0.472D+00-0.755D+00 0.452D+00-0.228D+01-0.114D+01 0.181D+01
 Coeff:      0.357D+01
 Gap=     0.087 Goal=   None    Shift=    0.000
 RMSDP=1.98D-04 MaxDP=1.55D-02 DE=-7.04D-05 OVMax= 2.79D-02

 Cycle  20  Pass 1  IDiag  1:
 E= -138.738183628830     Delta-E=       -0.000237889946 Rises=F Damp=F
 DIIS: error= 7.22D-04 at cycle  20 NSaved=  20.
 NSaved=20 IEnMin=20 EnMin= -138.738183628830     IErMin=20 ErrMin= 7.22D-04
 ErrMax= 7.22D-04  0.00D+00 EMaxC= 1.00D-01 BMatC= 4.32D-05 BMatP= 8.03D-05
 IDIUse=3 WtCom= 9.93D-01 WtEn= 7.22D-03
 EnCoef did   100 forward-backward iterations
 Rare condition: small coef for last iteration:  0.000D+00
 Coeff-Com: -0.311D-02 0.390D-02-0.381D-02 0.102D-01 0.276D-01 0.428D-02
 Coeff-Com: -0.269D-01-0.498D-01 0.211D-01 0.324D-01 0.712D-01-0.678D+00
 Coeff-Com: -0.542D-01 0.425D-01 0.290D+00-0.115D+01-0.206D+01 0.531D+00
 Coeff-Com:  0.317D+01 0.821D+00
 Coeff-En:   0.000D+00 0.000D+00 0.679D-01 0.000D+00 0.000D+00 0.000D+00
 Coeff-En:   0.000D+00 0.000D+00 0.000D+00 0.000D+00 0.000D+00 0.000D+00
 Coeff-En:   0.000D+00 0.000D+00 0.000D+00 0.000D+00 0.000D+00 0.000D+00
 Coeff-En:   0.000D+00 0.932D+00
 Coeff:     -0.311D-02 0.390D-02-0.381D-02 0.102D-01 0.276D-01 0.428D-02
 Coeff:     -0.269D-01-0.498D-01 0.211D-01 0.324D-01 0.712D-01-0.678D+00
 Coeff:     -0.542D-01 0.425D-01 0.290D+00-0.115D+01-0.206D+01 0.531D+00
 Coeff:      0.317D+01 0.821D+00
 Gap=     0.091 Goal=   None    Shift=    0.000
 RMSDP=2.12D-04 MaxDP=1.81D-02 DE=-2.38D-04 OVMax= 2.67D-02

 Cycle  21  Pass 1  IDiag  1:
 E= -138.738310500731     Delta-E=       -0.000126871901 Rises=F Damp=F
 DIIS: error= 3.68D-04 at cycle  21 NSaved=  20.
 NSaved=20 IEnMin=20 EnMin= -138.738310500731     IErMin=20 ErrMin= 3.68D-04
 ErrMax= 3.68D-04  0.00D+00 EMaxC= 1.00D-01 BMatC= 1.25D-05 BMatP= 4.32D-05
 IDIUse=3 WtCom= 9.96D-01 WtEn= 3.68D-03
 Coeff-Com: -0.450D-02 0.534D-02 0.464D-02 0.465D-02-0.948D-02 0.333D-01
 Coeff-Com: -0.313D-01-0.193D+00-0.153D-01 0.376D+00 0.328D+00-0.296D+00
 Coeff-Com:  0.432D+00-0.224D-01 0.826D+00-0.795D+00-0.953D+00-0.214D+00
 Coeff-Com:  0.567D+00 0.958D+00
 Coeff-En:   0.000D+00 0.000D+00 0.000D+00 0.000D+00 0.000D+00 0.000D+00
 Coeff-En:   0.000D+00 0.000D+00 0.000D+00 0.000D+00 0.000D+00 0.000D+00
 Coeff-En:   0.000D+00 0.000D+00 0.000D+00 0.000D+00 0.000D+00 0.000D+00
 Coeff-En:   0.000D+00 0.100D+01
 Coeff:     -0.449D-02 0.532D-02 0.462D-02 0.463D-02-0.945D-02 0.332D-01
 Coeff:     -0.311D-01-0.192D+00-0.153D-01 0.374D+00 0.327D+00-0.295D+00
 Coeff:      0.430D+00-0.223D-01 0.823D+00-0.792D+00-0.950D+00-0.214D+00
 Coeff:      0.565D+00 0.958D+00
 Gap=     0.095 Goal=   None    Shift=    0.000
 RMSDP=1.34D-04 MaxDP=1.82D-02 DE=-1.27D-04 OVMax= 1.92D-02

 Cycle  22  Pass 1  IDiag  1:
 E= -138.738348237429     Delta-E=       -0.000037736698 Rises=F Damp=F
 DIIS: error= 1.73D-04 at cycle  22 NSaved=  20.
 NSaved=20 IEnMin=20 EnMin= -138.738348237429     IErMin=20 ErrMin= 1.73D-04
 ErrMax= 1.73D-04  0.00D+00 EMaxC= 1.00D-01 BMatC= 3.46D-06 BMatP= 1.25D-05
 IDIUse=3 WtCom= 9.98D-01 WtEn= 1.73D-03
 Coeff-Com:  0.492D-04 0.163D-02-0.525D-02-0.113D-01 0.291D-01-0.443D-02
 Coeff-Com: -0.131D+00-0.309D-01 0.240D+00 0.300D+00-0.207D+00 0.296D+00
 Coeff-Com: -0.609D-01 0.579D+00-0.152D-01-0.554D+00-0.691D+00 0.100D+00
 Coeff-Com:  0.475D+00 0.691D+00
 Coeff-En:   0.000D+00 0.000D+00 0.000D+00 0.000D+00 0.000D+00 0.000D+00
 Coeff-En:   0.000D+00 0.000D+00 0.000D+00 0.000D+00 0.000D+00 0.000D+00
 Coeff-En:   0.000D+00 0.000D+00 0.000D+00 0.000D+00 0.000D+00 0.000D+00
 Coeff-En:   0.000D+00 0.100D+01
 Coeff:      0.491D-04 0.163D-02-0.524D-02-0.112D-01 0.290D-01-0.443D-02
 Coeff:     -0.131D+00-0.309D-01 0.240D+00 0.299D+00-0.207D+00 0.296D+00
 Coeff:     -0.608D-01 0.578D+00-0.151D-01-0.553D+00-0.690D+00 0.998D-01
 Coeff:      0.474D+00 0.691D+00
 Gap=     0.095 Goal=   None    Shift=    0.000
 RMSDP=9.93D-05 MaxDP=6.77D-03 DE=-3.77D-05 OVMax= 7.87D-03

 Cycle  23  Pass 1  IDiag  1:
 E= -138.738354986264     Delta-E=       -0.000006748834 Rises=F Damp=F
 DIIS: error= 9.54D-05 at cycle  23 NSaved=  20.
 NSaved=20 IEnMin=20 EnMin= -138.738354986264     IErMin=20 ErrMin= 9.54D-05
 ErrMax= 9.54D-05  0.00D+00 EMaxC= 1.00D-01 BMatC= 9.49D-07 BMatP= 3.46D-06
 IDIUse=1 WtCom= 1.00D+00 WtEn= 0.00D+00
 Coeff-Com:  0.408D-03-0.363D-02-0.737D-02 0.826D-02 0.282D-02-0.298D-01
 Coeff-Com: -0.328D-02 0.799D-01 0.721D-01-0.103D+00 0.970D-01-0.271D-01
 Coeff-Com:  0.964D-01 0.204D+00-0.634D-01-0.344D+00-0.937D-01 0.190D-01
 Coeff-Com:  0.410D+00 0.686D+00
 Coeff:      0.408D-03-0.363D-02-0.737D-02 0.826D-02 0.282D-02-0.298D-01
 Coeff:     -0.328D-02 0.799D-01 0.721D-01-0.103D+00 0.970D-01-0.271D-01
 Coeff:      0.964D-01 0.204D+00-0.634D-01-0.344D+00-0.937D-01 0.190D-01
 Coeff:      0.410D+00 0.686D+00
 Gap=     0.095 Goal=   None    Shift=    0.000
 RMSDP=5.41D-05 MaxDP=4.80D-03 DE=-6.75D-06 OVMax= 1.92D-03

 Cycle  24  Pass 1  IDiag  1:
 E= -138.738355398689     Delta-E=       -0.000000412426 Rises=F Damp=F
 DIIS: error= 9.50D-05 at cycle  24 NSaved=  20.
 NSaved=20 IEnMin=20 EnMin= -138.738355398689     IErMin=20 ErrMin= 9.50D-05
 ErrMax= 9.50D-05  0.00D+00 EMaxC= 1.00D-01 BMatC= 8.86D-07 BMatP= 9.49D-07
 IDIUse=1 WtCom= 1.00D+00 WtEn= 0.00D+00
 Coeff-Com: -0.200D-02-0.431D-02-0.549D-05 0.234D-02 0.550D-02 0.103D-01
 Coeff-Com:  0.212D-01-0.109D-01-0.653D-01 0.179D-01 0.913D-03-0.257D-01
 Coeff-Com:  0.190D+00 0.590D-01-0.166D+00-0.104D+00-0.913D-01 0.202D+00
 Coeff-Com:  0.614D+00 0.346D+00
 Coeff:     -0.200D-02-0.431D-02-0.549D-05 0.234D-02 0.550D-02 0.103D-01
 Coeff:      0.212D-01-0.109D-01-0.653D-01 0.179D-01 0.913D-03-0.257D-01
 Coeff:      0.190D+00 0.590D-01-0.166D+00-0.104D+00-0.913D-01 0.202D+00
 Coeff:      0.614D+00 0.346D+00
 Gap=     0.096 Goal=   None    Shift=    0.000
 RMSDP=3.79D-05 MaxDP=3.63D-03 DE=-4.12D-07 OVMax= 1.37D-03

 Cycle  25  Pass 1  IDiag  1:
 E= -138.738356580608     Delta-E=       -0.000001181919 Rises=F Damp=F
 DIIS: error= 4.26D-05 at cycle  25 NSaved=  20.
 NSaved=20 IEnMin=20 EnMin= -138.738356580608     IErMin=20 ErrMin= 4.26D-05
 ErrMax= 4.26D-05  0.00D+00 EMaxC= 1.00D-01 BMatC= 1.74D-07 BMatP= 8.86D-07
 IDIUse=1 WtCom= 1.00D+00 WtEn= 0.00D+00
 Coeff-Com: -0.334D-03-0.219D-02-0.135D-02 0.102D-01 0.119D-01-0.478D-02
 Coeff-Com: -0.155D-01-0.225D-01-0.449D-01 0.372D-01 0.440D-01 0.531D-01
 Coeff-Com: -0.568D-02-0.609D-01-0.197D-01-0.360D-01-0.426D-02 0.100D+00
 Coeff-Com:  0.179D+00 0.782D+00
 Coeff:     -0.334D-03-0.219D-02-0.135D-02 0.102D-01 0.119D-01-0.478D-02
 Coeff:     -0.155D-01-0.225D-01-0.449D-01 0.372D-01 0.440D-01 0.531D-01
 Coeff:     -0.568D-02-0.609D-01-0.197D-01-0.360D-01-0.426D-02 0.100D+00
 Coeff:      0.179D+00 0.782D+00
 Gap=     0.096 Goal=   None    Shift=    0.000
 RMSDP=8.30D-06 MaxDP=6.65D-04 DE=-1.18D-06 OVMax= 3.30D-04

 Cycle  26  Pass 1  IDiag  1:
 E= -138.738356746299     Delta-E=       -0.000000165690 Rises=F Damp=F
 DIIS: error= 1.79D-05 at cycle  26 NSaved=  20.
 NSaved=20 IEnMin=20 EnMin= -138.738356746299     IErMin=20 ErrMin= 1.79D-05
 ErrMax= 1.79D-05  0.00D+00 EMaxC= 1.00D-01 BMatC= 2.84D-08 BMatP= 1.74D-07
 IDIUse=1 WtCom= 1.00D+00 WtEn= 0.00D+00
 Coeff-Com: -0.496D-03-0.894D-03 0.300D-02 0.472D-02-0.135D-02-0.247D-02
 Coeff-Com: -0.121D-01-0.258D-01 0.213D-01 0.458D-01 0.117D-01-0.218D-01
 Coeff-Com: -0.319D-01 0.231D-02 0.594D-04-0.913D-02-0.218D-01 0.176D-01
 Coeff-Com:  0.224D+00 0.797D+00
 Coeff:     -0.496D-03-0.894D-03 0.300D-02 0.472D-02-0.135D-02-0.247D-02
 Coeff:     -0.121D-01-0.258D-01 0.213D-01 0.458D-01 0.117D-01-0.218D-01
 Coeff:     -0.319D-01 0.231D-02 0.594D-04-0.913D-02-0.218D-01 0.176D-01
 Coeff:      0.224D+00 0.797D+00
 Gap=     0.096 Goal=   None    Shift=    0.000
 RMSDP=3.37D-06 MaxDP=3.69D-04 DE=-1.66D-07 OVMax= 1.67D-04

 Cycle  27  Pass 1  IDiag  1:
 E= -138.738356769548     Delta-E=       -0.000000023249 Rises=F Damp=F
 DIIS: error= 5.80D-06 at cycle  27 NSaved=  20.
 NSaved=20 IEnMin=20 EnMin= -138.738356769548     IErMin=20 ErrMin= 5.80D-06
 ErrMax= 5.80D-06  0.00D+00 EMaxC= 1.00D-01 BMatC= 5.22D-09 BMatP= 2.84D-08
 IDIUse=1 WtCom= 1.00D+00 WtEn= 0.00D+00
 Coeff-Com: -0.445D-03 0.690D-03 0.169D-02-0.235D-03-0.227D-04-0.613D-02
 Coeff-Com: -0.124D-01 0.101D-01 0.271D-01-0.373D-03-0.147D-01-0.122D-01
 Coeff-Com:  0.487D-02 0.574D-02-0.498D-02-0.327D-01-0.228D-01 0.399D-03
 Coeff-Com:  0.574D+00 0.482D+00
 Coeff:     -0.445D-03 0.690D-03 0.169D-02-0.235D-03-0.227D-04-0.613D-02
 Coeff:     -0.124D-01 0.101D-01 0.271D-01-0.373D-03-0.147D-01-0.122D-01
 Coeff:      0.487D-02 0.574D-02-0.498D-02-0.327D-01-0.228D-01 0.399D-03
 Coeff:      0.574D+00 0.482D+00
 Gap=     0.096 Goal=   None    Shift=    0.000
 RMSDP=2.41D-06 MaxDP=2.84D-04 DE=-2.32D-08 OVMax= 1.07D-04

 Cycle  28  Pass 1  IDiag  1:
 E= -138.738356775982     Delta-E=       -0.000000006434 Rises=F Damp=F
 DIIS: error= 2.35D-06 at cycle  28 NSaved=  20.
 NSaved=20 IEnMin=20 EnMin= -138.738356775982     IErMin=20 ErrMin= 2.35D-06
 ErrMax= 2.35D-06  0.00D+00 EMaxC= 1.00D-01 BMatC= 9.54D-10 BMatP= 5.22D-09
 IDIUse=1 WtCom= 1.00D+00 WtEn= 0.00D+00
 Coeff-Com:  0.426D-03 0.291D-03-0.732D-03-0.699D-03-0.145D-02-0.472D-02
 Coeff-Com:  0.317D-02 0.738D-02-0.136D-02-0.333D-02-0.287D-03 0.182D-02
 Coeff-Com:  0.193D-02-0.136D-02-0.150D-01-0.189D-01-0.546D-01 0.219D+00
 Coeff-Com:  0.376D+00 0.493D+00
 Coeff:      0.426D-03 0.291D-03-0.732D-03-0.699D-03-0.145D-02-0.472D-02
 Coeff:      0.317D-02 0.738D-02-0.136D-02-0.333D-02-0.287D-03 0.182D-02
 Coeff:      0.193D-02-0.136D-02-0.150D-01-0.189D-01-0.546D-01 0.219D+00
 Coeff:      0.376D+00 0.493D+00
 Gap=     0.096 Goal=   None    Shift=    0.000
 RMSDP=1.11D-06 MaxDP=1.07D-04 DE=-6.43D-09 OVMax= 5.22D-05

 Cycle  29  Pass 1  IDiag  1:
 E= -138.738356777286     Delta-E=       -0.000000001304 Rises=F Damp=F
 DIIS: error= 2.08D-06 at cycle  29 NSaved=  20.
 NSaved=20 IEnMin=20 EnMin= -138.738356777286     IErMin=20 ErrMin= 2.08D-06
 ErrMax= 2.08D-06  0.00D+00 EMaxC= 1.00D-01 BMatC= 3.28D-10 BMatP= 9.54D-10
 IDIUse=1 WtCom= 1.00D+00 WtEn= 0.00D+00
 Coeff-Com:  0.411D-04-0.405D-03 0.404D-03 0.131D-02-0.335D-02 0.165D-02
 Coeff-Com:  0.393D-02-0.159D-02-0.249D-02-0.260D-03 0.102D-02 0.170D-02
 Coeff-Com:  0.520D-03-0.663D-02-0.110D-01-0.402D-01 0.887D-01 0.222D+00
 Coeff-Com:  0.389D+00 0.356D+00
 Coeff:      0.411D-04-0.405D-03 0.404D-03 0.131D-02-0.335D-02 0.165D-02
 Coeff:      0.393D-02-0.159D-02-0.249D-02-0.260D-03 0.102D-02 0.170D-02
 Coeff:      0.520D-03-0.663D-02-0.110D-01-0.402D-01 0.887D-01 0.222D+00
 Coeff:      0.389D+00 0.356D+00
 Gap=     0.096 Goal=   None    Shift=    0.000
 RMSDP=7.76D-07 MaxDP=7.71D-05 DE=-1.30D-09 OVMax= 3.26D-05

 Cycle  30  Pass 1  IDiag  1:
 E= -138.738356777734     Delta-E=       -0.000000000448 Rises=F Damp=F
 DIIS: error= 6.01D-07 at cycle  30 NSaved=  20.
 NSaved=20 IEnMin=20 EnMin= -138.738356777734     IErMin=20 ErrMin= 6.01D-07
 ErrMax= 6.01D-07  0.00D+00 EMaxC= 1.00D-01 BMatC= 5.40D-11 BMatP= 3.28D-10
 IDIUse=1 WtCom= 1.00D+00 WtEn= 0.00D+00
 Coeff-Com: -0.257D-03 0.368D-03 0.103D-02-0.166D-02 0.727D-03 0.139D-02
 Coeff-Com:  0.295D-03-0.908D-03-0.127D-02-0.111D-03 0.244D-03 0.814D-03
 Coeff-Com:  0.150D-03-0.142D-02-0.696D-02 0.223D-01 0.615D-01 0.127D+00
 Coeff-Com:  0.217D+00 0.580D+00
 Coeff:     -0.257D-03 0.368D-03 0.103D-02-0.166D-02 0.727D-03 0.139D-02
 Coeff:      0.295D-03-0.908D-03-0.127D-02-0.111D-03 0.244D-03 0.814D-03
 Coeff:      0.150D-03-0.142D-02-0.696D-02 0.223D-01 0.615D-01 0.127D+00
 Coeff:      0.217D+00 0.580D+00
 Gap=     0.096 Goal=   None    Shift=    0.000
 RMSDP=2.52D-07 MaxDP=2.65D-05 DE=-4.48D-10 OVMax= 1.29D-05

 Cycle  31  Pass 1  IDiag  1:
 E= -138.738356777829     Delta-E=       -0.000000000095 Rises=F Damp=F
 DIIS: error= 3.54D-07 at cycle  31 NSaved=  20.
 NSaved=20 IEnMin=20 EnMin= -138.738356777829     IErMin=20 ErrMin= 3.54D-07
 ErrMax= 3.54D-07  0.00D+00 EMaxC= 1.00D-01 BMatC= 1.86D-11 BMatP= 5.40D-11
 IDIUse=1 WtCom= 1.00D+00 WtEn= 0.00D+00
 Coeff-Com:  0.320D-04 0.937D-03 0.308D-03-0.426D-03-0.136D-02 0.975D-03
 Coeff-Com:  0.596D-03-0.894D-03-0.699D-03-0.528D-03 0.968D-03 0.408D-02
 Coeff-Com:  0.366D-02 0.788D-02-0.324D-01-0.449D-01-0.458D-01 0.378D-01
 Coeff-Com:  0.360D+00 0.710D+00
 Coeff:      0.320D-04 0.937D-03 0.308D-03-0.426D-03-0.136D-02 0.975D-03
 Coeff:      0.596D-03-0.894D-03-0.699D-03-0.528D-03 0.968D-03 0.408D-02
 Coeff:      0.366D-02 0.788D-02-0.324D-01-0.449D-01-0.458D-01 0.378D-01
 Coeff:      0.360D+00 0.710D+00
 Gap=     0.096 Goal=   None    Shift=    0.000
 RMSDP=1.40D-07 MaxDP=1.11D-05 DE=-9.47D-11 OVMax= 1.05D-05

 Cycle  32  Pass 1  IDiag  1:
 E= -138.738356777892     Delta-E=       -0.000000000064 Rises=F Damp=F
 DIIS: error= 2.01D-07 at cycle  32 NSaved=  20.
 NSaved=20 IEnMin=20 EnMin= -138.738356777892     IErMin=20 ErrMin= 2.01D-07
 ErrMax= 2.01D-07  0.00D+00 EMaxC= 1.00D-01 BMatC= 5.17D-12 BMatP= 1.86D-11
 IDIUse=1 WtCom= 1.00D+00 WtEn= 0.00D+00
 Coeff-Com: -0.767D-05 0.120D-03-0.198D-03-0.604D-04 0.307D-03 0.147D-04
 Coeff-Com: -0.332D-03 0.762D-04 0.133D-03-0.583D-03-0.177D-02-0.117D-02
 Coeff-Com: -0.167D-02 0.108D-01 0.416D-03-0.295D-01-0.943D-01-0.271D+00
 Coeff-Com:  0.245D+00 0.114D+01
 Coeff:     -0.767D-05 0.120D-03-0.198D-03-0.604D-04 0.307D-03 0.147D-04
 Coeff:     -0.332D-03 0.762D-04 0.133D-03-0.583D-03-0.177D-02-0.117D-02
 Coeff:     -0.167D-02 0.108D-01 0.416D-03-0.295D-01-0.943D-01-0.271D+00
 Coeff:      0.245D+00 0.114D+01
 Gap=     0.096 Goal=   None    Shift=    0.000
 RMSDP=9.61D-08 MaxDP=9.00D-06 DE=-6.38D-11 OVMax= 1.46D-05

 Cycle  33  Pass 1  IDiag  1:
 E= -138.738356777929     Delta-E=       -0.000000000037 Rises=F Damp=F
 DIIS: error= 1.13D-07 at cycle  33 NSaved=  20.
 NSaved=20 IEnMin=20 EnMin= -138.738356777929     IErMin=20 ErrMin= 1.13D-07
 ErrMax= 1.13D-07  0.00D+00 EMaxC= 1.00D-01 BMatC= 1.29D-12 BMatP= 5.17D-12
 IDIUse=1 WtCom= 1.00D+00 WtEn= 0.00D+00
 Coeff-Com: -0.855D-04-0.558D-04 0.163D-03 0.126D-03-0.913D-04-0.214D-03
 Coeff-Com:  0.115D-03 0.176D-03-0.295D-03-0.124D-02-0.108D-02-0.237D-02
 Coeff-Com:  0.112D-01 0.965D-02-0.325D-02-0.470D-01-0.189D+00 0.229D-02
 Coeff-Com:  0.568D+00 0.653D+00
 Coeff:     -0.855D-04-0.558D-04 0.163D-03 0.126D-03-0.913D-04-0.214D-03
 Coeff:      0.115D-03 0.176D-03-0.295D-03-0.124D-02-0.108D-02-0.237D-02
 Coeff:      0.112D-01 0.965D-02-0.325D-02-0.470D-01-0.189D+00 0.229D-02
 Coeff:      0.568D+00 0.653D+00
 Gap=     0.096 Goal=   None    Shift=    0.000
 RMSDP=6.78D-08 MaxDP=9.41D-06 DE=-3.69D-11 OVMax= 7.05D-06

 Cycle  34  Pass 1  IDiag  1:
 E= -138.738356777936     Delta-E=       -0.000000000006 Rises=F Damp=F
 DIIS: error= 7.30D-08 at cycle  34 NSaved=  20.
 NSaved=20 IEnMin=20 EnMin= -138.738356777936     IErMin=20 ErrMin= 7.30D-08
 ErrMax= 7.30D-08  0.00D+00 EMaxC= 1.00D-01 BMatC= 3.74D-13 BMatP= 1.29D-12
 IDIUse=1 WtCom= 1.00D+00 WtEn= 0.00D+00
 Coeff-Com: -0.325D-04 0.768D-04-0.444D-04-0.581D-04-0.158D-05 0.712D-04
 Coeff-Com:  0.102D-03-0.355D-04-0.345D-03-0.398D-03-0.111D-02 0.445D-02
 Coeff-Com:  0.529D-02 0.332D-02-0.968D-02-0.592D-01-0.568D-01 0.759D-01
 Coeff-Com:  0.347D+00 0.691D+00
 Coeff:     -0.325D-04 0.768D-04-0.444D-04-0.581D-04-0.158D-05 0.712D-04
 Coeff:      0.102D-03-0.355D-04-0.345D-03-0.398D-03-0.111D-02 0.445D-02
 Coeff:      0.529D-02 0.332D-02-0.968D-02-0.592D-01-0.568D-01 0.759D-01
 Coeff:      0.347D+00 0.691D+00
 Gap=     0.096 Goal=   None    Shift=    0.000
 RMSDP=1.86D-08 MaxDP=1.29D-06 DE=-6.45D-12 OVMax= 1.31D-06

 Cycle  35  Pass 1  IDiag  1:
 E= -138.738356777937     Delta-E=       -0.000000000001 Rises=F Damp=F
 DIIS: error= 3.16D-08 at cycle  35 NSaved=  20.
 NSaved=20 IEnMin=20 EnMin= -138.738356777937     IErMin=20 ErrMin= 3.16D-08
 ErrMax= 3.16D-08  0.00D+00 EMaxC= 1.00D-01 BMatC= 6.80D-14 BMatP= 3.74D-13
 IDIUse=1 WtCom= 1.00D+00 WtEn= 0.00D+00
 Coeff-Com: -0.823D-05 0.846D-06 0.772D-05 0.744D-05 0.233D-07-0.301D-05
 Coeff-Com:  0.303D-04 0.920D-04 0.664D-04 0.139D-03 0.235D-03 0.499D-03
 Coeff-Com:  0.124D-02 0.202D-02 0.707D-02-0.175D-01-0.566D-01-0.324D-01
 Coeff-Com:  0.152D+00 0.943D+00
 Coeff:     -0.823D-05 0.846D-06 0.772D-05 0.744D-05 0.233D-07-0.301D-05
 Coeff:      0.303D-04 0.920D-04 0.664D-04 0.139D-03 0.235D-03 0.499D-03
 Coeff:      0.124D-02 0.202D-02 0.707D-02-0.175D-01-0.566D-01-0.324D-01
 Coeff:      0.152D+00 0.943D+00
 Gap=     0.096 Goal=   None    Shift=    0.000
 RMSDP=1.14D-08 MaxDP=9.82D-07 DE=-7.67D-13 OVMax= 7.85D-07

 Cycle  36  Pass 1  IDiag  1:
 E= -138.738356777937     Delta-E=       -0.000000000000 Rises=F Damp=F
 DIIS: error= 1.35D-08 at cycle  36 NSaved=  20.
 NSaved=20 IEnMin=20 EnMin= -138.738356777937     IErMin=20 ErrMin= 1.35D-08
 ErrMax= 1.35D-08  0.00D+00 EMaxC= 1.00D-01 BMatC= 8.73D-15 BMatP= 6.80D-14
 IDIUse=1 WtCom= 1.00D+00 WtEn= 0.00D+00
 Coeff-Com:  0.134D-05 0.325D-05 0.243D-05-0.498D-05-0.111D-04 0.229D-04
 Coeff-Com:  0.919D-04 0.856D-04 0.224D-03-0.428D-03-0.295D-03 0.638D-03
 Coeff-Com:  0.337D-02 0.157D-01-0.252D-02-0.527D-01-0.795D-01-0.362D-01
 Coeff-Com:  0.490D+00 0.661D+00
 Coeff:      0.134D-05 0.325D-05 0.243D-05-0.498D-05-0.111D-04 0.229D-04
 Coeff:      0.919D-04 0.856D-04 0.224D-03-0.428D-03-0.295D-03 0.638D-03
 Coeff:      0.337D-02 0.157D-01-0.252D-02-0.527D-01-0.795D-01-0.362D-01
 Coeff:      0.490D+00 0.661D+00
 Gap=     0.096 Goal=   None    Shift=    0.000
 RMSDP=8.00D-09 MaxDP=8.12D-07 DE=-4.83D-13 OVMax= 5.18D-07

 SCF Done:  E(ROHF) =  -138.738356778     A.U. after   36 cycles
            NFock= 36  Conv=0.80D-08     -V/T= 2.7109
 <Sx>= 0.0000 <Sy>= 0.0000 <Sz>= 2.0000 <S**2>= 6.0000 S= 2.0000
 <L.S>=  0.00000000000    
 KE= 8.109079475048D+01 PE=-3.974281386630D+02 EE= 1.413125498144D+02
 Annihilation of the first spin contaminant:
 S**2 before annihilation     6.0000,   after     6.0000
 Leave Link  502 at Sat Mar 24 00:29:06 2018, MaxMem= 10737418240 cpu:             795.9 elap:              32.3
 (Enter /home1/apps/gaussian/16rA.03/g16/l801.exe)
 Windowed orbitals will be sorted by symmetry type.
 GenMOA:  NOpAll=  4 NOp2=4 NOpUse=  4 JSym2X=1
 FoFJK:  IHMeth= 1 ICntrl=       0 DoSepK=F KAlg= 0 I1Cent=           0 FoldK=F
 IRaf=         0 NMat=       1 IRICut=       1 DoRegI=T DoRafI=F ISym2E= 1 IDoP0=0 IntGTp=1.
 FoFCou: FMM=F IPFlag=           8 FMFlag=      100000 FMFlg1=           0
         NFxFlg=           0 DoJE=F BraDBF=F KetDBF=F FulRan=T
         wScrn=  0.000000 ICntrl=         0 IOpCl=  1 I1Cent=           0 NGrid=           0
         NMat0=    1 NMatS0=      1 NMatT0=    0 NMatD0=    1 NMtDS0=    0 NMtDT0=    0
 Petite list used in FoFCou.
 <Sx>= 0.0000 <Sy>= 0.0000 <Sz>= 2.0000 <S**2>= 6.0000 S= 2.0000
 Range of M.O.s used for correlation:     1   258
 NBasis=   261 NAE=    13 NBE=     9 NFC=     0 NFV=     0
 NROrb=    258 NOA=    13 NOB=     9 NVA=   245 NVB=   249

 **** Warning!!: The largest alpha MO coefficient is  0.25061904D+03


 **** Warning!!: The largest beta MO coefficient is  0.25021613D+03

 Singles contribution to E2=   -0.1133109514D-01
 Leave Link  801 at Sat Mar 24 00:29:11 2018, MaxMem= 10737418240 cpu:             143.3 elap:               4.6
 (Enter /home1/apps/gaussian/16rA.03/g16/l804.exe)
 Open-shell transformation, MDV= 10737418240 ITran=4 ISComp=2.
 Unit  1 TFree=       2052624 TCopy=       1550249.
 Semi-Direct transformation.
 ModeAB=           4 MOrb=            13 LenV=   10735349515
 LASXX=     27714387 LTotXX=    27714387 LenRXX=    55891917
 LTotAB=    28177530 MaxLAS=   162377202 LenRXY=           0
 NonZer=    83606304 LenScr=   126157824 LnRSAI=   162377202
 LnScr1=   244521984 LExtra=    12244976 Total=    601193903
 MaxDsk= 67108864000 SrtSym=           T ITran=            4
 DoSDTr:  NPSUse= 32
 JobTyp=1 Pass  1:  I=   1 to  13.
 (rs|ai) integrals will be sorted in core.
 Complete sort for first half transformation.
 First half transformation complete.
 Begin second half transformation for I=  10.
 Complete sort for second half transformation.
 Second half transformation complete.
 ModeAB=           4 MOrb=             9 LenV=   10735349515
 LASXX=     19296872 LTotXX=    19296872 LenRXX=    36960241
 LTotAB=    17663369 MaxLAS=   112414986 LenRXY=           0
 NonZer=    56257113 LenScr=    85163008 LnRSAI=   112414986
 LnScr1=   169388544 LExtra=    68136893 Total=    472063672
 MaxDsk= 67108864000 SrtSym=           T ITran=            4
 DoSDTr:  NPSUse= 32
 JobTyp=2 Pass  1:  I=   1 to   9.
 (rs|ai) integrals will be sorted in core.
 Complete sort for first half transformation.
 First half transformation complete.
 Complete sort for second half transformation.
 Second half transformation complete.
 Spin components of T(2) and E(2):
     alpha-alpha T2 =       0.4106512635D-01 E2=     -0.2012224093D+00
     alpha-beta  T2 =       0.1377949412D+00 E2=     -0.7244285658D+00
     beta-beta   T2 =       0.2908643044D-01 E2=     -0.1194077287D+00
 ANorm=    0.1102365686D+01
 E2 =    -0.1056389799D+01 EUMP2 =    -0.13979474657689D+03
 (S**2,0)=  0.60000D+01           (S**2,1)=  0.60000D+01
 E(PUHF)=      -0.13873835678D+03        E(PMP2)=      -0.13979474658D+03
 Leave Link  804 at Sat Mar 24 00:31:11 2018, MaxMem= 10737418240 cpu:            3825.9 elap:             119.7
 (Enter /home1/apps/gaussian/16rA.03/g16/l913.exe)
 CIDS:  MDV= 10737418240.
 IFCWin=0 IBDFC=1 NFBD=     0     0 NFCmp=     0     0 NFFFC=     0     0
 Using original routines for 1st iteration.
 Using DD4UQ or CC4UQ for 2nd and later iterations.
 Keep R2 and R3 ints in memory in symmetry-blocked form, NReq=734618313.
 FoFCou: FMM=F IPFlag=           8 FMFlag=           0 FMFlg1=           0
         NFxFlg=           0 DoJE=F BraDBF=F KetDBF=F FulRan=T
         wScrn=  0.000000 ICntrl=       600 IOpCl=  0 I1Cent=           0 NGrid=           0
         NMat0=    1 NMatS0=  34191 NMatT0=    0 NMatD0=    1 NMtDS0=    0 NMtDT0=    0
 Petite list used in FoFCou.
 CIDS: In Core Option IDoMem=           1.
 CCSD(T)
 =======
 Iterations= 150 Convergence= 0.100D-06
 Produce multiple copies of IABC intergrals
 Iteration Nr.   1
 **********************
 DD1Dir will call FoFMem   1 times, MxPair=       348
 NAB=   117 NAA=    78 NBB=    36.
 DD1Dir will call FoFMem   1 times, MxPair=       348
 NAB=   117 NAA=    78 NBB=    36.
 MP4(R+Q)= -0.78786919D-01
 Maximum subspace dimension=  5
 A-vector RMS=  5.9200697D-04 Max=  7.6039536D-03 conv= 1.00D-05.
 RLE energy=       -1.0396466574
 E3=        0.94755400D-01        EROMP3=      -0.13969999118D+03
 E4(SDQ)=  -0.73792803D-01        ROMP4(SDQ)=  -0.13977378398D+03
 VARIATIONAL ENERGIES WITH THE FIRST-ORDER WAVEFUNCTION:
 DE(Corr)=  -1.0393712     E(Corr)=     -139.77772802    
 NORM(A)=   0.10954434D+01
 Iteration Nr.   2
 **********************
 DD1Dir will call FoFMem   1 times, MxPair=       348
 NAB=   117 NAA=    78 NBB=    36.
 A-vector RMS=  5.6757662D-03 Max=  6.3539200D-02 conv= 1.00D-05.
 RLE energy=       -1.0106531162
 DE(Corr)= -0.94217570     E(CORR)=     -139.68053248     Delta= 9.72D-02
 NORM(A)=   0.10894766D+01
 Iteration Nr.   3
 **********************
 DD1Dir will call FoFMem   1 times, MxPair=       348
 NAB=   117 NAA=    78 NBB=    36.
 A-vector RMS=  3.4029975D-03 Max=  3.7238864D-02 conv= 1.00D-05.
 RLE energy=       -1.0136175299
 DE(Corr)= -0.96506674     E(CORR)=     -139.70342351     Delta=-2.29D-02
 NORM(A)=   0.10949304D+01
 Iteration Nr.   4
 **********************
 DD1Dir will call FoFMem   1 times, MxPair=       348
 NAB=   117 NAA=    78 NBB=    36.
 A-vector RMS=  3.3017413D-03 Max=  3.7765586D-02 conv= 1.00D-05.
 RLE energy=       -0.9926300278
 DE(Corr)= -0.97316241     E(CORR)=     -139.71151919     Delta=-8.10D-03
 NORM(A)=   0.11362095D+01
 Iteration Nr.   5
 **********************
 DD1Dir will call FoFMem   1 times, MxPair=       348
 NAB=   117 NAA=    78 NBB=    36.
 A-vector RMS=  1.8442077D-03 Max=  1.9529865D-02 conv= 1.00D-05.
 RLE energy=       -1.0041712514
 DE(Corr)=  -1.0243830     E(CORR)=     -139.76273981     Delta=-5.12D-02
 NORM(A)=   0.11432837D+01
 Iteration Nr.   6
 **********************
 DD1Dir will call FoFMem   1 times, MxPair=       348
 NAB=   117 NAA=    78 NBB=    36.
 A-vector RMS=  6.7976107D-04 Max=  7.4057245D-03 conv= 1.00D-05.
 RLE energy=       -1.0080134901
 DE(Corr)=  -1.0166737     E(CORR)=     -139.75503047     Delta= 7.71D-03
 NORM(A)=   0.11344173D+01
 Iteration Nr.   7
 **********************
 DD1Dir will call FoFMem   1 times, MxPair=       348
 NAB=   117 NAA=    78 NBB=    36.
 A-vector RMS=  1.4690356D-04 Max=  1.6077470D-03 conv= 1.00D-05.
 RLE energy=       -1.0072232424
 DE(Corr)=  -1.0069899     E(CORR)=     -139.74534664     Delta= 9.68D-03
 NORM(A)=   0.11348729D+01
 Iteration Nr.   8
 **********************
 DD1Dir will call FoFMem   1 times, MxPair=       348
 NAB=   117 NAA=    78 NBB=    36.
 A-vector RMS=  8.2133061D-05 Max=  9.9369545D-04 conv= 1.00D-05.
 RLE energy=       -1.0073562502
 DE(Corr)=  -1.0075212     E(CORR)=     -139.74587795     Delta=-5.31D-04
 NORM(A)=   0.11352548D+01
 Iteration Nr.   9
 **********************
 DD1Dir will call FoFMem   1 times, MxPair=       348
 NAB=   117 NAA=    78 NBB=    36.
 A-vector RMS=  4.7568645D-05 Max=  5.7884858D-04 conv= 1.00D-05.
 RLE energy=       -1.0075112748
 DE(Corr)=  -1.0073692     E(CORR)=     -139.74572603     Delta= 1.52D-04
 NORM(A)=   0.11356072D+01
 Iteration Nr.  10
 **********************
 DD1Dir will call FoFMem   1 times, MxPair=       348
 NAB=   117 NAA=    78 NBB=    36.
 A-vector RMS=  2.0343105D-05 Max=  2.9184089D-04 conv= 1.00D-05.
 RLE energy=       -1.0074790839
 DE(Corr)=  -1.0074411     E(CORR)=     -139.74579790     Delta=-7.19D-05
 NORM(A)=   0.11356407D+01
 Iteration Nr.  11
 **********************
 DD1Dir will call FoFMem   1 times, MxPair=       348
 NAB=   117 NAA=    78 NBB=    36.
 A-vector RMS=  1.1833520D-05 Max=  1.6522807D-04 conv= 1.00D-05.
 RLE energy=       -1.0074900766
 DE(Corr)=  -1.0074906     E(CORR)=     -139.74584736     Delta=-4.95D-05
 NORM(A)=   0.11355860D+01
 Iteration Nr.  12
 **********************
 DD1Dir will call FoFMem   1 times, MxPair=       348
 NAB=   117 NAA=    78 NBB=    36.
 A-vector RMS=  4.7569367D-06 Max=  6.4643907D-05 conv= 1.00D-05.
 RLE energy=       -1.0074799835
 DE(Corr)=  -1.0074729     E(CORR)=     -139.74582963     Delta= 1.77D-05
 NORM(A)=   0.11355641D+01
 Iteration Nr.  13
 **********************
 DD1Dir will call FoFMem   1 times, MxPair=       348
 NAB=   117 NAA=    78 NBB=    36.
 A-vector RMS=  2.7662770D-06 Max=  4.5287023D-05 conv= 1.00D-05.
 RLE energy=       -1.0074709367
 DE(Corr)=  -1.0074747     E(CORR)=     -139.74583149     Delta=-1.85D-06
 NORM(A)=   0.11355314D+01
 Iteration Nr.  14
 **********************
 DD1Dir will call FoFMem   1 times, MxPair=       348
 NAB=   117 NAA=    78 NBB=    36.
 A-vector RMS=  1.3766768D-06 Max=  1.8321506D-05 conv= 1.00D-05.
 RLE energy=       -1.0074654789
 DE(Corr)=  -1.0074668     E(CORR)=     -139.74582360     Delta= 7.88D-06
 NORM(A)=   0.11355248D+01
 Iteration Nr.  15
 **********************
 DD1Dir will call FoFMem   1 times, MxPair=       348
 NAB=   117 NAA=    78 NBB=    36.
 A-vector RMS=  6.4239088D-07 Max=  7.1525571D-06 conv= 1.00D-05.
 RLE energy=       -1.0074672366
 DE(Corr)=  -1.0074680     E(CORR)=     -139.74582476     Delta=-1.15D-06
 NORM(A)=   0.11355229D+01
 Iteration Nr.  16
 **********************
 DD1Dir will call FoFMem   1 times, MxPair=       348
 NAB=   117 NAA=    78 NBB=    36.
 A-vector RMS=  4.4455895D-07 Max=  5.5532240D-06 conv= 1.00D-05.
 RLE energy=       -1.0074663423
 DE(Corr)=  -1.0074663     E(CORR)=     -139.74582313     Delta= 1.63D-06
 NORM(A)=   0.11355242D+01
 Iteration Nr.  17
 **********************
 DD1Dir will call FoFMem   1 times, MxPair=       348
 NAB=   117 NAA=    78 NBB=    36.
 A-vector RMS=  2.7024434D-07 Max=  3.2956842D-06 conv= 1.00D-05.
 RLE energy=       -1.0074678253
 DE(Corr)=  -1.0074676     E(CORR)=     -139.74582439     Delta=-1.26D-06
 NORM(A)=   0.11355263D+01
 Iteration Nr.  18
 **********************
 DD1Dir will call FoFMem   1 times, MxPair=       348
 NAB=   117 NAA=    78 NBB=    36.
 A-vector RMS=  1.5452628D-07 Max=  2.0658050D-06 conv= 1.00D-05.
 RLE energy=       -1.0074679718
 DE(Corr)=  -1.0074676     E(CORR)=     -139.74582436     Delta= 3.60D-08
 NORM(A)=   0.11355278D+01
 CI/CC converged in   18 iterations to DelEn= 3.60D-08 Conv= 1.00D-07 ErrA1= 1.55D-07 Conv= 1.00D-05
 Wavefunction amplitudes converged. E(Corr)=     -139.74582436    
 Dominant configurations:
 ***********************
 Spin Case        I    J    A    B          Value
    BB            8        25            0.111958D+00
    BB            9        26            0.111958D+00
 Largest amplitude= 1.12D-01
 Time for triples=    40477.39 seconds.
 T4(CCSD)= -0.61762506D-01
 T5(CCSD)=  0.14454572D-01
 CCSD(T)= -0.13979313229D+03
 Discarding MO integrals.
 Leave Link  913 at Sat Mar 24 00:59:23 2018, MaxMem= 10737418240 cpu:           53939.3 elap:            1691.8
 (Enter /home1/apps/gaussian/16rA.03/g16/l601.exe)
 Copying SCF densities to generalized density rwf, IOpCl= 0 IROHF=1.

 **********************************************************************

            Population analysis using the SCF density.

 **********************************************************************

 Orbital symmetries:
       Occupied  (SG) (SG) (PI) (PI) (SG) (DLTA) (SG) (PI) (PI)
                 (DLTA) (SG) (PI) (PI)
       Virtual   (SG) (PI) (PI) (SG) (SG) (PI) (PI) (DLTA) (DLTA)
                 (SG) (PI) (PI) (SG) (SG) (SG) (PI) (PI) (PI) (PI)
                 (SG) (DLTA) (DLTA) (PI) (PI) (SG) (SG) (SG) (DLTA)
                 (DLTA) (PI) (PI) (SG) (?A) (?A) (?A) (?A) (SG)
                 (PI) (PI) (?B) (?B) (SG) (SG) (PI) (PI) (?B) (?B)
                 (PI) (PI) (SG) (SG) (SG) (PHI) (PHI) (DLTA) (DLTA)
                 (PI) (PI) (DLTA) (DLTA) (SG) (PI) (PI) (SG) (?A)
                 (?A) (?A) (?A) (DLTA) (DLTA) (SG) (PI) (PI) (DLTA)
                 (DLTA) (?C) (?C) (?C) (PHI) (PHI) (PI) (PI) (PI)
                 (PI) (DLTA) (DLTA) (SG) (SG) (SG) (PI) (PI) (SG)
                 (SG) (PHI) (PHI) (DLTA) (DLTA) (DLTA) (DLTA) (PI)
                 (PI) (SG) (PI) (PI) (SG) (?A) (?A) (DLTA) (DLTA)
                 (?A) (?A) (PI) (PI) (DLTA) (DLTA) (SG) (SG) (PI)
                 (PI) (?D) (?D) (?A) (?A) (DLTA) (DLTA) (SG) (?A)
                 (?A) (SG) (SG) (SG) (PI) (PI) (SG) (DLTA) (DLTA)
                 (SG) (PI) (PI) (PI) (PI) (SG) (?A) (?A) (DLTA)
                 (DLTA) (?A) (?A) (SG) (?A) (?A) (?E) (?E) (DLTA)
                 (DLTA) (?A) (?A) (?E) (SG) (SG) (DLTA) (DLTA)
                 (PI) (PI) (SG) (PI) (PI) (SG) (DLTA) (DLTA) (PI)
                 (PI) (SG) (PI) (PI) (SG) (SG) (SG) (DLTA) (DLTA)
                 (PI) (PI) (SG) (PI) (PI) (SG) (SG) (PI) (PI) (SG)
                 (SG) (PI) (PI) (SG) (DLTA) (DLTA) (PI) (PI) (SG)
                 (SG) (SG) (PI) (PI) (SG) (PI) (PI) (SG) (SG) (SG)
                 (DLTA) (DLTA) (PI) (PI) (PI) (PI) (SG) (SG) (SG)
                 (PI) (PI) (SG) (SG) (SG) (PI) (PI) (SG) (SG) (PI)
                 (PI) (SG) (SG) (SG) (PI) (PI) (SG) (SG) (SG) (SG)
                 (PI) (PI) (SG) (SG) (SG) (SG) (SG)
 Unable to determine electronic state:  partially filled degenerate orbitals.
 Alpha  occ. eigenvalues --   -4.36422  -2.97047  -2.91772  -2.91772  -1.22706
 Alpha  occ. eigenvalues --   -0.72143  -0.72143  -0.63232  -0.58708  -0.58015
 Alpha  occ. eigenvalues --   -0.41541  -0.41541  -0.33088
 Alpha virt. eigenvalues --    0.00060   0.02326   0.02326   0.03569   0.04089
 Alpha virt. eigenvalues --    0.07658   0.07658   0.09831   0.09874   0.09903
 Alpha virt. eigenvalues --    0.10442   0.10442   0.13441   0.15817   0.25355
 Alpha virt. eigenvalues --    0.25355   0.25925   0.28635   0.28635   0.33516
 Alpha virt. eigenvalues --    0.34345   0.34707   0.38091   0.38091   0.41098
 Alpha virt. eigenvalues --    0.48637   0.61993   0.74404   0.74507   0.79841
 Alpha virt. eigenvalues --    0.79841   0.89993   0.93991   0.93991   0.95361
 Alpha virt. eigenvalues --    0.95361   1.00840   1.06032   1.06032   1.07332
 Alpha virt. eigenvalues --    1.08016   1.16000   1.17027   1.17970   1.17970
 Alpha virt. eigenvalues --    1.19106   1.20081   1.55877   1.55877   1.63962
 Alpha virt. eigenvalues --    1.94266   2.12473   2.15009   2.15009   2.19901
 Alpha virt. eigenvalues --    2.20070   2.35351   2.35351   2.46197   2.46377
 Alpha virt. eigenvalues --    2.52625   2.71375   2.71375   2.82785   2.84179
 Alpha virt. eigenvalues --    2.84179   2.86504   2.86504   2.97775   2.99179
 Alpha virt. eigenvalues --    3.16653   3.25392   3.25392   3.36352   3.38780
 Alpha virt. eigenvalues --    3.40585   3.46587   3.46616   3.57525   3.57525
 Alpha virt. eigenvalues --    3.70747   3.70747   3.93909   3.93909   4.04786
 Alpha virt. eigenvalues --    4.05730   4.11918   4.36445   4.85049   4.94847
 Alpha virt. eigenvalues --    4.94847   5.61973   6.44167   6.58163   6.58163
 Alpha virt. eigenvalues --    6.70606   6.70745   7.11240   7.11375   7.11997
 Alpha virt. eigenvalues --    7.11997   7.20570   7.45605   7.45605   7.49716
 Alpha virt. eigenvalues --    7.54515   7.54515   7.59490   7.62253   7.77214
 Alpha virt. eigenvalues --    7.77214   7.95915   7.95915   8.04283   8.07380
 Alpha virt. eigenvalues --    8.14350   8.47760   8.67500   8.67500   9.99608
 Alpha virt. eigenvalues --    9.99612  10.00621  10.00621  10.18502  10.20807
 Alpha virt. eigenvalues --   10.22281  10.34117  10.34117  11.09198  13.57291
 Alpha virt. eigenvalues --   13.88878  15.16383  15.16383  16.37962  16.61009
 Alpha virt. eigenvalues --   16.64665  16.67813  16.72837  16.72837  17.98093
 Alpha virt. eigenvalues --   17.98093  19.58209  19.79173  19.80133  19.80133
 Alpha virt. eigenvalues --   19.82136  20.12596  20.12596  20.60871  25.39026
 Alpha virt. eigenvalues --   25.39026  25.41398  25.41441  25.46951  25.49861
 Alpha virt. eigenvalues --   25.56416  25.56416  25.75335  27.13559  30.81544
 Alpha virt. eigenvalues --   31.04907  31.08932  31.18069  31.18069  31.40533
 Alpha virt. eigenvalues --   35.59998  35.59998  37.81534  44.06803  44.06804
 Alpha virt. eigenvalues --   44.20088  44.20088  44.51939  46.49914  46.49914
 Alpha virt. eigenvalues --   47.52656  50.95306  58.25908  58.50339  58.53827
 Alpha virt. eigenvalues --   58.61928  58.61928  63.70347  66.69121  66.69121
 Alpha virt. eigenvalues --   69.40819  92.20473 121.07464 121.07464 121.69407
 Alpha virt. eigenvalues --  122.58276 125.50328 125.50328 128.02385 140.77598
 Alpha virt. eigenvalues --  140.79251 140.88923 140.88923 140.94174 168.15057
 Alpha virt. eigenvalues --  236.54430 242.72324 242.72324 245.37179 290.67336
 Alpha virt. eigenvalues --  290.67336 291.52711 320.53529 468.16726 468.24317
 Alpha virt. eigenvalues --  468.24688 468.31300 468.31300 486.26438 486.26438
 Alpha virt. eigenvalues --  488.79738 525.90544 639.365351020.263541020.26354
 Alpha virt. eigenvalues -- 1022.522871333.785571494.683452280.353692280.35369
 Alpha virt. eigenvalues -- 2282.368532914.156825577.908595577.908595579.64867
 Alpha virt. eigenvalues -- 5622.366436694.76038******************************
 Alpha virt. eigenvalues -- **************************************************
 Alpha virt. eigenvalues -- **************************************************
     Molecular Orbital Coefficients:
                           5         6         7         8         9
                           O         O         O         O         O
     Eigenvalues --    -1.22706  -0.72143  -0.72143  -0.63232  -0.58708
   1 1   Fe 1S          0.00000   0.00000   0.00000   0.00000   0.00000
   2        2S         -0.00000   0.00000  -0.00000   0.00000   0.00000
   3        3S          0.00000   0.00000   0.00000   0.00000   0.00000
   4        4S         -0.00000   0.00000  -0.00000   0.00000   0.00000
   5        5S          0.00000   0.00000   0.00000   0.00000   0.00000
   6        6S         -0.00000   0.00000  -0.00000   0.00000   0.00000
   7        7S          0.00000   0.00000   0.00000   0.00000   0.00000
   8        8S         -0.00001   0.00000  -0.00001   0.00000   0.00000
   9        9S          0.00004   0.00000   0.00003   0.00000   0.00000
  10       10S         -0.00010   0.00000  -0.00008   0.00000   0.00000
  11       11S          0.00023   0.00000   0.00018   0.00000   0.00000
  12       12S         -0.00002   0.00000   0.00007   0.00000   0.00000
  13       13S         -0.01238   0.00000  -0.01201   0.00000   0.00000
  14       14S          0.07863   0.00000   0.07822   0.00000   0.00000
  15       15S          0.00092   0.00000   0.01789   0.00000   0.00000
  16       16S         -0.10356   0.00000  -0.12317   0.00000   0.00000
  17       17S         -0.05609   0.00000  -0.06852   0.00000   0.00000
  18       18S          0.00459   0.00000   0.07340   0.00000   0.00000
  19       19S         -0.02271   0.00000   0.01920   0.00000   0.00000
  20       20S         -0.00498   0.00000   0.02124   0.00000   0.00000
  21       21S         -0.03664   0.00000  -0.04893   0.00000   0.00000
  22       22S         -0.02559   0.00000  -0.01100   0.00000   0.00000
  23       23S          0.00121   0.00000  -0.00103   0.00000   0.00000
  24       24PX         0.00000   0.00000   0.00000   0.00000   0.00000
  25       24PY         0.00000   0.00000   0.00000   0.00000   0.00000
  26       24PZ        -0.00000   0.00000  -0.00000   0.00000   0.00000
  27       25PX         0.00000   0.00000   0.00000   0.00000  -0.00000
  28       25PY         0.00000   0.00000   0.00000  -0.00000   0.00000
  29       25PZ         0.00000   0.00000   0.00000   0.00000   0.00000
  30       26PX         0.00000   0.00000   0.00000   0.00000   0.00000
  31       26PY         0.00000   0.00000   0.00000   0.00000   0.00000
  32       26PZ        -0.00000   0.00000  -0.00000   0.00000   0.00000
  33       27PX         0.00000   0.00000   0.00000   0.00000  -0.00000
  34       27PY         0.00000   0.00000   0.00000  -0.00000   0.00000
  35       27PZ         0.00000   0.00000   0.00000   0.00000   0.00000
  36       28PX         0.00000   0.00000   0.00000   0.00000   0.00000
  37       28PY         0.00000   0.00000   0.00000   0.00000   0.00000
  38       28PZ        -0.00001   0.00000  -0.00001   0.00000   0.00000
  39       29PX         0.00000   0.00000   0.00000   0.00000  -0.00001
  40       29PY         0.00000   0.00000   0.00000  -0.00001   0.00000
  41       29PZ         0.00005   0.00000   0.00005   0.00000   0.00000
  42       30PX         0.00000   0.00000   0.00000   0.00000   0.00004
  43       30PY         0.00000   0.00000   0.00000   0.00004   0.00000
  44       30PZ        -0.00018   0.00000  -0.00017   0.00000   0.00000
  45       31PX         0.00000   0.00000   0.00000   0.00000  -0.00032
  46       31PY         0.00000   0.00000   0.00000  -0.00032   0.00000
  47       31PZ         0.00099   0.00000   0.00077   0.00000   0.00000
  48       32PX         0.00000   0.00000   0.00000   0.00000   0.00279
  49       32PY         0.00000   0.00000   0.00000   0.00279   0.00000
  50       32PZ        -0.00681   0.00000  -0.00469   0.00000   0.00000
  51       33PX         0.00000   0.00000   0.00000   0.00000  -0.04625
  52       33PY         0.00000   0.00000   0.00000  -0.04625   0.00000
  53       33PZ         0.07766   0.00000   0.04222   0.00000   0.00000
  54       34PX         0.00000   0.00000   0.00000   0.00000  -0.03005
  55       34PY         0.00000   0.00000   0.00000  -0.03005   0.00000
  56       34PZ         0.06340   0.00000   0.03277   0.00000   0.00000
  57       35PX         0.00000   0.00000   0.00000   0.00000  -0.03435
  58       35PY         0.00000   0.00000   0.00000  -0.03435   0.00000
  59       35PZ         0.04648   0.00000  -0.03016   0.00000   0.00000
  60       36PX         0.00000   0.00000   0.00000   0.00000  -0.02767
  61       36PY         0.00000   0.00000   0.00000  -0.02767   0.00000
  62       36PZ         0.04788   0.00000   0.01947   0.00000   0.00000
  63       37PX         0.00000   0.00000   0.00000   0.00000   0.03258
  64       37PY         0.00000   0.00000   0.00000   0.03258   0.00000
  65       37PZ         0.00298   0.00000  -0.01670   0.00000   0.00000
  66       38PX         0.00000   0.00000   0.00000   0.00000   0.05319
  67       38PY         0.00000   0.00000   0.00000   0.05319   0.00000
  68       38PZ         0.01230   0.00000   0.02823   0.00000   0.00000
  69       39PX         0.00000   0.00000   0.00000   0.00000   0.00452
  70       39PY         0.00000   0.00000   0.00000   0.00452   0.00000
  71       39PZ         0.00527   0.00000   0.00478   0.00000   0.00000
  72       40PX         0.00000   0.00000   0.00000   0.00000   0.03913
  73       40PY         0.00000   0.00000   0.00000   0.03913   0.00000
  74       40PZ        -0.06510   0.00000  -0.03312   0.00000   0.00000
  75       41PX         0.00000   0.00000   0.00000   0.00000  -0.02318
  76       41PY         0.00000   0.00000   0.00000  -0.02318   0.00000
  77       41PZ         0.06054   0.00000   0.09632   0.00000   0.00000
  78       42PX         0.00000   0.00000   0.00000   0.00000  -0.00148
  79       42PY         0.00000   0.00000   0.00000  -0.00148   0.00000
  80       42PZ        -0.00098   0.00000  -0.00142   0.00000   0.00000
  81       43D 0        0.00003   0.00000   0.00009   0.00000   0.00000
  82       43D+1        0.00000   0.00000   0.00000   0.00000  -0.00004
  83       43D-1        0.00000   0.00000   0.00000  -0.00004   0.00000
[...]
  44       30PZ        -0.00014  -0.00007  -0.00007   0.00000
  45       31PX         0.00202   0.00102   0.00101   0.00001
  46       31PY         0.00202   0.00102   0.00101   0.00001
  47       31PZ         0.00175   0.00088   0.00088  -0.00000
  48       32PX        -0.02521  -0.01268  -0.01252  -0.00016
  49       32PY        -0.02521  -0.01268  -0.01252  -0.00016
  50       32PZ        -0.02288  -0.01144  -0.01144   0.00000
  51       33PX         0.39202   0.19649   0.19553   0.00096
  52       33PY         0.39202   0.19649   0.19553   0.00096
  53       33PZ         0.44088   0.22047   0.22041   0.00005
  54       34PX         0.56168   0.28191   0.27976   0.00215
  55       34PY         0.56168   0.28191   0.27976   0.00215
  56       34PZ         0.54900   0.27450   0.27450  -0.00000
  57       35PX         0.75523   0.37863   0.37660   0.00203
  58       35PY         0.75523   0.37863   0.37660   0.00203
  59       35PZ         0.66847   0.33449   0.33398   0.00051
  60       36PX         0.46181   0.23034   0.23147  -0.00113
  61       36PY         0.46181   0.23034   0.23147  -0.00113
  62       36PZ         0.45390   0.22689   0.22701  -0.00012
  63       37PX         0.07858   0.04796   0.03062   0.01734
  64       37PY         0.07858   0.04796   0.03062   0.01734
  65       37PZ         0.03681   0.01918   0.01763   0.00155
  66       38PX         0.06006   0.04145   0.01862   0.02283
  67       38PY         0.06006   0.04145   0.01862   0.02283
  68       38PZ         0.01715   0.01973  -0.00258   0.02231
  69       39PX         0.00142   0.00019   0.00123  -0.00105
  70       39PY         0.00142   0.00019   0.00123  -0.00105
  71       39PZ         0.00892   0.00927  -0.00035   0.00963
  72       40PX        -0.31545  -0.15805  -0.15740  -0.00065
  73       40PY        -0.31545  -0.15805  -0.15740  -0.00065
  74       40PZ        -0.35912  -0.17958  -0.17954  -0.00005
  75       41PX         0.13174   0.06550   0.06624  -0.00073
  76       41PY         0.13174   0.06550   0.06624  -0.00073
  77       41PZ         0.22948   0.11449   0.11499  -0.00049
  78       42PX        -0.00028  -0.00010  -0.00017   0.00007
  79       42PY        -0.00028  -0.00010  -0.00017   0.00007
  80       42PZ        -0.00053  -0.00047  -0.00007  -0.00040
  81       43D 0        0.00000   0.00000   0.00000   0.00000
  82       43D+1        0.00000   0.00000   0.00000   0.00000
  83       43D-1        0.00000   0.00000   0.00000   0.00000
  84       43D+2        0.00000   0.00000   0.00000   0.00000
  85       43D-2        0.00001   0.00000   0.00000   0.00000
  86       44D 0       -0.00015  -0.00010  -0.00005  -0.00004
  87       44D+1       -0.00021  -0.00019  -0.00001  -0.00018
  88       44D-1       -0.00021  -0.00019  -0.00001  -0.00018
  89       44D+2       -0.00019  -0.00019   0.00000  -0.00019
  90       44D-2       -0.00037  -0.00018  -0.00018  -0.00000
  91       45D 0        0.01609   0.01042   0.00567   0.00475
  92       45D+1        0.02251   0.02125   0.00126   0.01998
  93       45D-1        0.02251   0.02125   0.00126   0.01998
  94       45D+2        0.02081   0.02081   0.00000   0.02081
  95       45D-2        0.04051   0.02025   0.02025   0.00000
  96       46D 0        0.30541   0.19848   0.10694   0.09154
  97       46D+1        0.43240   0.40514   0.02726   0.37789
  98       46D-1        0.43240   0.40514   0.02726   0.37789
  99       46D+2        0.39861   0.39861   0.00000   0.39861
 100       46D-2        0.77473   0.38736   0.38736   0.00000
 101       47D 0       -0.31802  -0.21427  -0.10376  -0.11051
 102       47D+1       -0.53560  -0.46510  -0.07050  -0.39460
 103       47D-1       -0.53560  -0.46510  -0.07050  -0.39460
 104       47D+2       -0.45640  -0.45640  -0.00000  -0.45640
 105       47D-2       -0.90754  -0.45377  -0.45377  -0.00000
 106       48D 0        0.35449   0.21569   0.13880   0.07690
 107       48D+1        0.35678   0.31507   0.04171   0.27336
 108       48D-1        0.35678   0.31507   0.04171   0.27336
 109       48D+2        0.32046   0.32046   0.00000   0.32046
 110       48D-2        0.63992   0.31996   0.31996   0.00000
 111       49D 0        0.14350   0.09048   0.05302   0.03746
 112       49D+1        0.14890   0.11114   0.03776   0.07338
 113       49D-1        0.14890   0.11114   0.03776   0.07338
 114       49D+2        0.12518   0.12518   0.00000   0.12518
 115       49D-2        0.27729   0.13864   0.13864   0.00000
 116       50D 0        0.00450   0.00774  -0.00324   0.01098
 117       50D+1        0.01175   0.00696   0.00480   0.00216
 118       50D-1        0.01175   0.00696   0.00480   0.00216
 119       50D+2        0.00994   0.00994  -0.00000   0.00994
 120       50D-2        0.02853   0.01426   0.01426   0.00000
 121       51D 0       -0.16884  -0.11055  -0.05829  -0.05227
 122       51D+1       -0.24830  -0.23135  -0.01694  -0.21441
 123       51D-1       -0.24830  -0.23135  -0.01694  -0.21441
 124       51D+2       -0.22856  -0.22856  -0.00000  -0.22856
 125       51D-2       -0.44633  -0.22316  -0.22316  -0.00000
 126       52D 0        0.61169   0.40195   0.20974   0.19221
 127       52D+1        0.91725   0.82178   0.09547   0.72631
 128       52D-1        0.91725   0.82178   0.09547   0.72631
 129       52D+2        0.80940   0.80940   0.00000   0.80940
 130       52D-2        1.59144   0.79572   0.79572   0.00000
 131       53D 0        0.00020   0.00023  -0.00002   0.00025
 132       53D+1       -0.00038  -0.00020  -0.00018  -0.00003
 133       53D-1       -0.00038  -0.00020  -0.00018  -0.00003
 134       53D+2       -0.00020  -0.00020   0.00000  -0.00020
 135       53D-2       -0.00053  -0.00027  -0.00027  -0.00000
 136       54F 0        0.00004   0.00002   0.00002   0.00000
 137       54F+1        0.00002   0.00001   0.00001  -0.00000
 138       54F-1        0.00002   0.00001   0.00001  -0.00000
 139       54F+2        0.00000   0.00000   0.00000   0.00000
 140       54F-2       -0.00000  -0.00000  -0.00000  -0.00000
 141       54F+3        0.00001   0.00001   0.00001   0.00000
 142       54F-3        0.00001   0.00001   0.00001   0.00000
 143       55F 0        0.00064   0.00033   0.00031   0.00002
 144       55F+1        0.00021   0.00011   0.00010   0.00001
 145       55F-1        0.00021   0.00011   0.00010   0.00001
 146       55F+2       -0.00000  -0.00000   0.00000  -0.00000
 147       55F-2        0.00000   0.00000   0.00000   0.00000
 148       55F+3        0.00003   0.00002   0.00002   0.00000
 149       55F-3        0.00003   0.00002   0.00002   0.00000
 150       56F 0        0.00643   0.00331   0.00312   0.00019
 151       56F+1        0.00628   0.00348   0.00280   0.00068
 152       56F-1        0.00628   0.00348   0.00280   0.00068
 153       56F+2        0.00004   0.00004  -0.00000   0.00004
 154       56F-2        0.00004   0.00002   0.00002   0.00000
 155       56F+3        0.00003   0.00002   0.00002   0.00000
 156       56F-3        0.00003   0.00002   0.00002   0.00000
 157       57F 0        0.00114   0.00032   0.00082  -0.00050
 158       57F+1        0.01058   0.00668   0.00390   0.00277
 159       57F-1        0.01058   0.00668   0.00390   0.00277
 160       57F+2        0.00008   0.00008  -0.00000   0.00008
 161       57F-2        0.00010   0.00005   0.00005   0.00000
 162       57F+3        0.00000   0.00000   0.00000   0.00000
 163       57F-3        0.00000   0.00000   0.00000   0.00000
 164       58G 0        0.00000   0.00000   0.00000   0.00000
 165       58G+1        0.00000   0.00000   0.00000   0.00000
 166       58G-1        0.00000   0.00000   0.00000   0.00000
 167       58G+2        0.00000   0.00000   0.00000   0.00000
 168       58G-2        0.00000   0.00000   0.00000   0.00000
 169       58G+3        0.00000   0.00000   0.00000   0.00000
 170       58G-3        0.00000   0.00000   0.00000   0.00000
 171       58G+4        0.00000   0.00000   0.00000   0.00000
 172       58G-4        0.00000   0.00000   0.00000   0.00000
 173       59G 0        0.00023   0.00011   0.00012  -0.00000
 174       59G+1        0.00007   0.00003   0.00004  -0.00001
 175       59G-1        0.00007   0.00003   0.00004  -0.00001
 176       59G+2        0.00001   0.00001   0.00000   0.00001
 177       59G-2        0.00001   0.00000   0.00000   0.00000
 178       59G+3        0.00000   0.00000   0.00000   0.00000
 179       59G-3        0.00000   0.00000   0.00000   0.00000
 180       59G+4        0.00000   0.00000   0.00000   0.00000
 181       59G-4        0.00000   0.00000   0.00000   0.00000
 182       60G 0        0.00139   0.00069   0.00070  -0.00001
 183       60G+1        0.00183   0.00092   0.00091   0.00000
 184       60G-1        0.00183   0.00092   0.00091   0.00000
 185       60G+2        0.00001   0.00001  -0.00000   0.00001
 186       60G-2        0.00001   0.00001   0.00001   0.00000
 187       60G+3        0.00000   0.00000   0.00000   0.00000
 188       60G-3        0.00000   0.00000   0.00000   0.00000
 189       60G+4        0.00001   0.00000   0.00000   0.00000
 190       60G-4        0.00000   0.00000   0.00000   0.00000
 191 2   O  1S         -0.00000  -0.00000  -0.00000  -0.00000
 192        2S          0.00000   0.00000   0.00000   0.00000
 193        3S         -0.00000  -0.00000  -0.00000  -0.00000
 194        4S          0.00001   0.00000   0.00000   0.00000
 195        5S         -0.00019  -0.00009  -0.00009  -0.00000
 196        6S         -0.00808  -0.00405  -0.00402  -0.00003
 197        7S         -0.15794  -0.07907  -0.07887  -0.00021
 198        8S          1.05534   0.52792   0.52742   0.00050
 199        9S          0.22091   0.11061   0.11030   0.00031
 200       10S          0.75845   0.37597   0.38248  -0.00651
 201       11S          0.06862   0.03437   0.03425   0.00012
 202       12S          0.00494   0.00248   0.00246   0.00002
 203       13S          0.07137   0.02573   0.04564  -0.01992
 204       14PX         0.00117   0.00062   0.00055   0.00007
 205       14PY         0.00117   0.00062   0.00055   0.00007
 206       14PZ         0.00094   0.00048   0.00046   0.00003
 207       15PX         0.06598   0.03483   0.03115   0.00368
 208       15PY         0.06598   0.03483   0.03115   0.00368
 209       15PZ         0.05644   0.02889   0.02755   0.00134
 210       16PX         0.36564   0.19229   0.17335   0.01895
 211       16PY         0.36564   0.19229   0.17335   0.01895
 212       16PZ         0.32420   0.16553   0.15868   0.00685
 213       17PX         0.75694   0.39397   0.36296   0.03101
 214       17PY         0.75694   0.39397   0.36296   0.03101
 215       17PZ         0.63263   0.32361   0.30901   0.01460
 216       18PX         0.52418   0.27581   0.24838   0.02743
 217       18PY         0.52418   0.27581   0.24838   0.02743
 218       18PZ         0.29256   0.16174   0.13082   0.03092
 219       19PX         0.00043   0.00022   0.00021   0.00001
 220       19PY         0.00043   0.00022   0.00021   0.00001
 221       19PZ         0.00071   0.00035   0.00035  -0.00000
 222       20PX        -0.00022  -0.00012  -0.00010  -0.00001
 223       20PY        -0.00022  -0.00012  -0.00010  -0.00001
 224       20PZ        -0.00018  -0.00009  -0.00009  -0.00000
 225       21PX         0.04539   0.02732   0.01807   0.00925
 226       21PY         0.04539   0.02732   0.01807   0.00925
 227       21PZ         0.02727   0.01843   0.00884   0.00959
 228       22D 0        0.00176   0.00095   0.00081   0.00014
 229       22D+1        0.00083   0.00049   0.00034   0.00015
 230       22D-1        0.00083   0.00049   0.00034   0.00015
 231       22D+2        0.00002   0.00002   0.00000   0.00002
 232       22D-2        0.00006   0.00003   0.00003   0.00000
 233       23D 0        0.00837   0.00465   0.00372   0.00092
 234       23D+1        0.00801   0.00440   0.00361   0.00080
 235       23D-1        0.00801   0.00440   0.00361   0.00080
 236       23D+2        0.00042   0.00042   0.00000   0.00042
 237       23D-2        0.00105   0.00053   0.00053   0.00000
 238       24D 0        0.00001   0.00000   0.00000   0.00000
 239       24D+1        0.00000   0.00000   0.00000   0.00000
 240       24D-1        0.00000   0.00000   0.00000   0.00000
 241       24D+2        0.00000   0.00000  -0.00000   0.00000
 242       24D-2        0.00000   0.00000   0.00000   0.00000
 243       25D 0       -0.00177  -0.00091  -0.00086  -0.00006
 244       25D+1        0.00274   0.00109   0.00165  -0.00056
 245       25D-1        0.00274   0.00109   0.00165  -0.00056
 246       25D+2        0.00016   0.00016  -0.00000   0.00016
 247       25D-2        0.00054   0.00027   0.00027   0.00000
 248       26F 0        0.00123   0.00069   0.00054   0.00015
 249       26F+1        0.00065   0.00042   0.00023   0.00019
 250       26F-1        0.00065   0.00042   0.00023   0.00019
 251       26F+2        0.00006   0.00006  -0.00000   0.00006
 252       26F-2        0.00013   0.00007   0.00007   0.00000
 253       26F+3        0.00000   0.00000   0.00000  -0.00000
 254       26F-3        0.00000   0.00000   0.00000  -0.00000
 255       27F 0       -0.00043  -0.00018  -0.00025   0.00007
 256       27F+1        0.00059   0.00032   0.00027   0.00004
 257       27F-1        0.00059   0.00032   0.00027   0.00004
 258       27F+2        0.00015   0.00015   0.00000   0.00015
 259       27F-2        0.00041   0.00021   0.00021   0.00000
 260       27F+3        0.00000   0.00000   0.00000  -0.00000
 261       27F-3        0.00000   0.00000   0.00000  -0.00000
          Condensed to atoms (all electrons):
               1          2
     1  Fe  14.890553   0.204561
     2  O    0.204561   6.700325
          Atomic-Atomic Spin Densities.
               1          2
     1  Fe   3.861385  -0.083025
     2  O   -0.083025   0.304666
 Mulliken charges and spin densities:
               1          2
     1  Fe   0.904886   3.778359
     2  O   -0.904886   0.221641
 Sum of Mulliken charges =  -0.00000   4.00000
 Mulliken charges and spin densities with hydrogens summed into heavy atoms:
               1          2
     1  Fe   0.904886   3.778359
     2  O   -0.904886   0.221641
 Electronic spatial extent (au):  <R**2>=             74.6192
 Charge=              0.0000 electrons
 Dipole moment (field-independent basis, Debye):
    X=              0.0000    Y=              0.0000    Z=              5.0127  Tot=              5.0127
 Quadrupole moment (field-independent basis, Debye-Ang):
   XX=            -18.9121   YY=            -18.9121   ZZ=            -21.1704
   XY=              0.0000   XZ=              0.0000   YZ=              0.0000
 Traceless Quadrupole moment (field-independent basis, Debye-Ang):
   XX=              0.7528   YY=              0.7528   ZZ=             -1.5056
   XY=              0.0000   XZ=              0.0000   YZ=              0.0000
 Octapole moment (field-independent basis, Debye-Ang**2):
  XXX=              0.0000  YYY=              0.0000  ZZZ=             11.4822  XYY=              0.0000
  XXY=              0.0000  XXZ=              2.4593  XZZ=              0.0000  YZZ=              0.0000
  YYZ=              2.4593  XYZ=              0.0000
 Hexadecapole moment (field-independent basis, Debye-Ang**3):
 XXXX=            -22.7429 YYYY=            -22.7429 ZZZZ=            -73.8581 XXXY=              0.0000
 XXXZ=              0.0000 YYYX=              0.0000 YYYZ=              0.0000 ZZZX=              0.0000
 ZZZY=              0.0000 XXYY=             -7.7861 XXZZ=            -16.4521 YYZZ=            -16.4521
 XXYZ=              0.0000 YYXZ=              0.0000 ZZXY=              0.0000
 N-N= 3.628643732023D+01 E-N=-3.974281376564D+02  KE= 8.109079475048D+01
 Symmetry A1   KE= 2.985107284683D+01
 Symmetry A2   KE= 1.290504215870D+01
 Symmetry B1   KE= 1.916733987945D+01
 Symmetry B2   KE= 1.916733986502D+01
 Symmetry A1   SP= 2.000000000000D+00
 Symmetry A2   SP= 7.957049042433D-16
 Symmetry B1   SP= 1.000000000000D+00
 Symmetry B2   SP= 1.000000000000D+00
 Orbital energies and kinetic energies (alpha):
                                 1                 2
   5         O                -1.227061          1.224261
   6         O                -0.721427          6.452521
   7         O                -0.721427          3.409180
   8         O                -0.632317          2.321648
   9         O                -0.587083          2.321648
  10         O                -0.580151          6.636275
  11         O                -0.415412          1.978374
  12         O                -0.415412          6.545302
  13         O                -0.330876          6.545302
  14         V                 0.000596          0.329422
  15         V                 0.023259          0.075957
  16         V                 0.023259          0.075957
  17         V                 0.035686          0.044215
  18         V                 0.040886          0.777800
 Total kinetic energy from orbitals= 1.027960468420D+02
                          Isotropic Fermi Contact Couplings
        Atom                 a.u.       MegaHertz       Gauss      10(-4) cm-1
     1  Fe(57)             0.00098       0.03541       0.01263       0.01181
     2  O(17)              0.00016      -0.02356      -0.00841      -0.00786
 --------------------------------------------------------
       Center         ----  Spin Dipole Couplings  ----
                      3XX-RR        3YY-RR        3ZZ-RR
 --------------------------------------------------------
     1   Atom       -0.504753     -0.504753      1.009505
     2   Atom       -0.052598     -0.052598      0.105196
 --------------------------------------------------------
                        XY            XZ            YZ
 --------------------------------------------------------
     1   Atom        0.000000      0.000000      0.000000
     2   Atom        0.000000      0.000000      0.000000
 --------------------------------------------------------


 ---------------------------------------------------------------------------------
              Anisotropic Spin Dipole Couplings in Principal Axis System
 ---------------------------------------------------------------------------------

       Atom             a.u.   MegaHertz   Gauss  10(-4) cm-1        Axes

              Baa    -0.5048    -8.739    -3.118    -2.915  1.0000  0.0000  0.0000
     1 Fe(57) Bbb    -0.5048    -8.739    -3.118    -2.915 -0.0000  1.0000  0.0000
              Bcc     1.0095    17.477     6.236     5.830  0.0000  0.0000  1.0000
 
              Baa    -0.0526     3.806     1.358     1.270 -0.0000  1.0000  0.0000
     2 O(17)  Bbb    -0.0526     3.806     1.358     1.270  1.0000  0.0000  0.0000
              Bcc     0.1052    -7.612    -2.716    -2.539  0.0000  0.0000  1.0000
 

 ---------------------------------------------------------------------------------

 No NMR shielding tensors so no spin-rotation constants.
 Leave Link  601 at Sat Mar 24 00:59:28 2018, MaxMem= 10737418240 cpu:             114.7 elap:               3.7
 (Enter /home1/apps/gaussian/16rA.03/g16/l9999.exe)
 1\1\GINC-C443-063\SP\ROCCSD(T)-Full\Gen\Fe1O1(5)\GWANG18\24-Mar-2018\0
 \\#P ROCCSD(T)=(MaxCyc=150, Full)/Gen SCF=(maxcycle=400) Pseudo=Read I
 ntegral(NoXCTest) Pop=Regular MaxDisk=500GB\\FeO\\0,5\Fe,0,0.,0.,0.\O,
 0,0.,0.,1.4\\Version=ES64L-G16RevA.03\HF=-138.7383568\MP2=-139.7947466
 \MP3=-139.6999912\PUHF=-138.7383568\PMP2-0=-139.7947466\MP4SDQ=-139.77
 3784\CCSD=-139.7458244\CCSD(T)=-139.7931323\RMSD=7.997e-09\PG=C*V [C*(
 O1Fe1)]\\@


 THERE ONCE WAS A GIRL NAMED IRENE,
 WHO LIVED ON DISTILLED KEROSENE,
      BUT SHE STARTED ABSORBIN'
      A NEW HYDROCARBON,
 AND SINCE THEN HAS NEVER BENZENE.
 Job cpu time:       0 days 16 hours 22 minutes 36.8 seconds.
 Elapsed time:       0 days  0 hours 30 minutes 56.8 seconds.
 File lengths (MBytes):  RWF=   4592 Int=      0 D2E=      0 Chk=      9 Scr=      1
 Normal termination of Gaussian 16 at Sat Mar 24 00:59:28 2018.
