 Entering Gaussian System, Link 0=g16
 Initial command:
 /home1/apps/gaussian/16rA.03/g16/l1.exe "/tmp/Gau-220158.inp" -scrdir="/tmp/"
 Entering Link 1 = /home1/apps/gaussian/16rA.03/g16/l1.exe PID=    220159.
  
 Copyright (c) 1988,1990,1992,1993,1995,1998,2003,2009,2016,
            Gaussian, Inc.  All Rights Reserved.
  
 This is part of the Gaussian(R) 16 program.  It is based on
 the Gaussian(R) 09 system (copyright 2009, Gaussian, Inc.),
 the Gaussian(R) 03 system (copyright 2003, Gaussian, Inc.),
 the Gaussian(R) 98 system (copyright 1998, Gaussian, Inc.),
 the Gaussian(R) 94 system (copyright 1995, Gaussian, Inc.),
 the Gaussian 92(TM) system (copyright 1992, Gaussian, Inc.),
 the Gaussian 90(TM) system (copyright 1990, Gaussian, Inc.),
 the Gaussian 88(TM) system (copyright 1988, Gaussian, Inc.),
 the Gaussian 86(TM) system (copyright 1986, Carnegie Mellon
 University), and the Gaussian 82(TM) system (copyright 1983,
 Carnegie Mellon University). Gaussian is a federally registered
 trademark of Gaussian, Inc.
  
 This software contains proprietary and confidential information,
 including trade secrets, belonging to Gaussian, Inc.
  
 This software is provided under written license and may be
 used, copied, transmitted, or stored only in accord with that
 written license.
  
 The following legend is applicable only to US Government
 contracts under FAR:
  
                    RESTRICTED RIGHTS LEGEND
  
 Use, reproduction and disclosure by the US Government is
 subject to restrictions as set forth in subparagraphs (a)
 and (c) of the Commercial Computer Software - Restricted
 Rights clause in FAR 52.227-19.
  
 Gaussian, Inc.
 340 Quinnipiac St., Bldg. 40, Wallingford CT 06492
  
  
 ---------------------------------------------------------------
 Warning -- This program may not be used in any manner that
 competes with the business of Gaussian, Inc. or will provide
 assistance to any competitor of Gaussian, Inc.  The licensee
 of this program is prohibited from giving any competitor of
 Gaussian, Inc. access to this program.  By using this program,
 the user acknowledges that Gaussian, Inc. is engaged in the
 business of creating and licensing software in the field of
 computational chemistry and represents and warrants to the
 licensee that it is not a competitor of Gaussian, Inc. and that
 it will not use this program in any manner prohibited above.
 ---------------------------------------------------------------
  

 Cite this work as:
 Gaussian 16, Revision A.03,
 M. J. Frisch, G. W. Trucks, H. B. Schlegel, G. E. Scuseria, 
 M. A. Robb, J. R. Cheeseman, G. Scalmani, V. Barone, 
 G. A. Petersson, H. Nakatsuji, X. Li, M. Caricato, A. V. Marenich, 
 J. Bloino, B. G. Janesko, R. Gomperts, B. Mennucci, H. P. Hratchian, 
 J. V. Ortiz, A. F. Izmaylov, J. L. Sonnenberg, D. Williams-Young, 
 F. Ding, F. Lipparini, F. Egidi, J. Goings, B. Peng, A. Petrone, 
 T. Henderson, D. Ranasinghe, V. G. Zakrzewski, J. Gao, N. Rega, 
 G. Zheng, W. Liang, M. Hada, M. Ehara, K. Toyota, R. Fukuda, 
 J. Hasegawa, M. Ishida, T. Nakajima, Y. Honda, O. Kitao, H. Nakai, 
 T. Vreven, K. Throssell, J. A. Montgomery, Jr., J. E. Peralta, 
 F. Ogliaro, M. J. Bearpark, J. J. Heyd, E. N. Brothers, K. N. Kudin, 
 V. N. Staroverov, T. A. Keith, R. Kobayashi, J. Normand, 
 K. Raghavachari, A. P. Rendell, J. C. Burant, S. S. Iyengar, 
 J. Tomasi, M. Cossi, J. M. Millam, M. Klene, C. Adamo, R. Cammi, 
 J. W. Ochterski, R. L. Martin, K. Morokuma, O. Farkas, 
 J. B. Foresman, and D. J. Fox, Gaussian, Inc., Wallingford CT, 2016.
 
 ******************************************
 Gaussian 16:  ES64L-G16RevA.03 25-Dec-2016
                12-Feb-2018 
 ******************************************
 %mem=80GB
 %nproc=32
 Will use up to   32 processors via shared memory.
 ----------------------------------------------------------------------
 #P ROCCSD(T)=(maxcyc=100, Full)/Gen SCF=(maxcycle=400, symm) Pseudo=Re
 ad Integral(NoXCTest) Pop=Regular MaxDisk=500GB Guess=Permute IOp(5/15
 =2)
 ----------------------------------------------------------------------
 1/38=1,172=1/1;
 2/12=2,17=6,18=5,40=1/2;
 3/5=7,11=2,16=1,17=8,25=1,30=1,47=8,116=101/1,2,3;
 4/8=2,9=4/1;
 5/5=2,7=400,15=2,38=5/2;
 8/5=-1,6=4,9=120000,10=90/1,4;
 9/5=7,6=100,14=2/13;
 6//1;
 99/5=1,9=1/99;
 Leave Link    1 at Mon Feb 12 21:41:18 2018, MaxMem= 10737418240 cpu:               5.8 elap:               0.2
 (Enter /home1/apps/gaussian/16rA.03/g16/l101.exe)
 ---
 FeH
 ---
 Symbolic Z-matrix:
 Charge =  0 Multiplicity = 4
 Fe                    0.        0.        0. 
 H                     0.        0.        2. 
 
 ITRead=  0  0
 MicOpt= -1 -1
 NAtoms=      2 NQM=        2 NQMF=       0 NMMI=      0 NMMIF=      0
                NMic=       0 NMicF=      0.
                    Isotopes and Nuclear Properties:
 (Nuclear quadrupole moments (NQMom) in fm**2, nuclear magnetic moments (NMagM)
  in nuclear magnetons)

  Atom         1           2
 IAtWgt=          56           1
 AtmWgt=  55.9349393   1.0078250
 NucSpn=           0           1
 AtZEff=  -0.0000000  -0.0000000
 NQMom=    0.0000000   0.0000000
 NMagM=    0.0000000   2.7928460
 AtZNuc=  26.0000000   1.0000000
 Leave Link  101 at Mon Feb 12 21:41:18 2018, MaxMem= 10737418240 cpu:               2.6 elap:               0.1
 (Enter /home1/apps/gaussian/16rA.03/g16/l202.exe)
                          Input orientation:                          
 ---------------------------------------------------------------------
 Center     Atomic      Atomic             Coordinates (Angstroms)
 Number     Number       Type             X           Y           Z
 ---------------------------------------------------------------------
      1         26           0        0.000000    0.000000    0.000000
      2          1           0        0.000000    0.000000    2.000000
 ---------------------------------------------------------------------
 Stoichiometry    FeH(4)
 Framework group  C*V[C*(HFe)]
 Deg. of freedom     1
 Full point group                 C*V     NOp   4
 Largest Abelian subgroup         C2V     NOp   4
 Largest concise Abelian subgroup C1      NOp   1
                         Standard orientation:                         
 ---------------------------------------------------------------------
 Center     Atomic      Atomic             Coordinates (Angstroms)
 Number     Number       Type             X           Y           Z
 ---------------------------------------------------------------------
      1         26           0        0.000000    0.000000    0.074074
      2          1           0        0.000000    0.000000   -1.925926
 ---------------------------------------------------------------------
 Rotational constants (GHZ):           0.0000000         127.6225567         127.6225567
 Leave Link  202 at Mon Feb 12 21:41:19 2018, MaxMem= 10737418240 cpu:               0.4 elap:               0.0
 (Enter /home1/apps/gaussian/16rA.03/g16/l301.exe)
 General basis read from cards:  (5D, 7F)
 Centers:       1
 S 1 1.00
     Exponent=  1.3277140000D+07 Coefficients=  1.0000000000D+00
 S 1 1.00
     Exponent=  1.9878880000D+06 Coefficients=  1.0000000000D+00
 S 1 1.00
     Exponent=  4.5238710000D+05 Coefficients=  1.0000000000D+00
 S 1 1.00
     Exponent=  1.2814370000D+05 Coefficients=  1.0000000000D+00
 S 1 1.00
     Exponent=  4.1809170000D+04 Coefficients=  1.0000000000D+00
 S 1 1.00
     Exponent=  1.5095330000D+04 Coefficients=  1.0000000000D+00
 S 1 1.00
     Exponent=  5.8884380000D+03 Coefficients=  1.0000000000D+00
 S 1 1.00
     Exponent=  2.4428760000D+03 Coefficients=  1.0000000000D+00
 S 1 1.00
     Exponent=  1.0658570000D+03 Coefficients=  1.0000000000D+00
 S 1 1.00
     Exponent=  4.8490960000D+02 Coefficients=  1.0000000000D+00
 S 1 1.00
     Exponent=  2.2845850000D+02 Coefficients=  1.0000000000D+00
 S 1 1.00
     Exponent=  1.1074530000D+02 Coefficients=  1.0000000000D+00
 S 1 1.00
     Exponent=  5.4431160000D+01 Coefficients=  1.0000000000D+00
 S 1 1.00
     Exponent=  2.5010960000D+01 Coefficients=  1.0000000000D+00
 S 1 1.00
     Exponent=  1.2592620000D+01 Coefficients=  1.0000000000D+00
 S 1 1.00
     Exponent=  6.3232020000D+00 Coefficients=  1.0000000000D+00
 S 1 1.00
     Exponent=  2.8833840000D+00 Coefficients=  1.0000000000D+00
 S 1 1.00
     Exponent=  1.3828680000D+00 Coefficients=  1.0000000000D+00
 S 1 1.00
     Exponent=  6.3220100000D-01 Coefficients=  1.0000000000D+00
 S 1 1.00
     Exponent=  1.4923800000D-01 Coefficients=  1.0000000000D+00
 S 1 1.00
     Exponent=  6.8494000000D-02 Coefficients=  1.0000000000D+00
 S 1 1.00
     Exponent=  3.0381000000D-02 Coefficients=  1.0000000000D+00
 S 1 1.00
     Exponent=  5.7900000000D+00 Coefficients=  1.0000000000D+00
 S 1 1.00
     Exponent=  1.7335000000D+00 Coefficients=  1.0000000000D+00
 S 1 1.00
     Exponent=  1.3480000000D-02 Coefficients=  1.0000000000D+00
 P 1 1.00
     Exponent=  3.8282050000D+04 Coefficients=  1.0000000000D+00
 P 1 1.00
     Exponent=  9.0615560000D+03 Coefficients=  1.0000000000D+00
 P 1 1.00
     Exponent=  2.9444500000D+03 Coefficients=  1.0000000000D+00
 P 1 1.00
     Exponent=  1.1281580000D+03 Coefficients=  1.0000000000D+00
 P 1 1.00
     Exponent=  4.8033800000D+02 Coefficients=  1.0000000000D+00
 P 1 1.00
     Exponent=  2.2013680000D+02 Coefficients=  1.0000000000D+00
 P 1 1.00
     Exponent=  1.0654820000D+02 Coefficients=  1.0000000000D+00
 P 1 1.00
     Exponent=  5.3742620000D+01 Coefficients=  1.0000000000D+00
 P 1 1.00
     Exponent=  2.7863180000D+01 Coefficients=  1.0000000000D+00
 P 1 1.00
     Exponent=  1.4743820000D+01 Coefficients=  1.0000000000D+00
 P 1 1.00
     Exponent=  7.8933510000D+00 Coefficients=  1.0000000000D+00
 P 1 1.00
     Exponent=  4.1794970000D+00 Coefficients=  1.0000000000D+00
 P 1 1.00
     Exponent=  2.1656690000D+00 Coefficients=  1.0000000000D+00
 P 1 1.00
     Exponent=  1.0972400000D+00 Coefficients=  1.0000000000D+00
 P 1 1.00
     Exponent=  5.3608500000D-01 Coefficients=  1.0000000000D+00
 P 1 1.00
     Exponent=  2.0245300000D-01 Coefficients=  1.0000000000D+00
 P 1 1.00
     Exponent=  8.1695000000D-02 Coefficients=  1.0000000000D+00
 P 1 1.00
     Exponent=  3.2614000000D-02 Coefficients=  1.0000000000D+00
 P 1 1.00
     Exponent=  8.3687000000D+00 Coefficients=  1.0000000000D+00
 P 1 1.00
     Exponent=  2.2601000000D+00 Coefficients=  1.0000000000D+00
 P 1 1.00
     Exponent=  1.3020000000D-02 Coefficients=  1.0000000000D+00
 D 1 1.00
     Exponent=  3.5099500000D+02 Coefficients=  1.0000000000D+00
 D 1 1.00
     Exponent=  1.0366700000D+02 Coefficients=  1.0000000000D+00
 D 1 1.00
     Exponent=  3.9704300000D+01 Coefficients=  1.0000000000D+00
 D 1 1.00
     Exponent=  1.7031000000D+01 Coefficients=  1.0000000000D+00
 D 1 1.00
     Exponent=  7.7890200000D+00 Coefficients=  1.0000000000D+00
 D 1 1.00
     Exponent=  3.6995500000D+00 Coefficients=  1.0000000000D+00
 D 1 1.00
     Exponent=  1.7553200000D+00 Coefficients=  1.0000000000D+00
 D 1 1.00
     Exponent=  8.1284500000D-01 Coefficients=  1.0000000000D+00
 D 1 1.00
     Exponent=  3.6144100000D-01 Coefficients=  1.0000000000D+00
 D 1 1.00
     Exponent=  1.5134600000D-01 Coefficients=  1.0000000000D+00
 D 1 1.00
     Exponent=  5.7513000000D-02 Coefficients=  1.0000000000D+00
 D 1 1.00
     Exponent=  5.4967000000D+00 Coefficients=  1.0000000000D+00
 D 1 1.00
     Exponent=  2.8925000000D+00 Coefficients=  1.0000000000D+00
 D 1 1.00
     Exponent=  2.1860000000D-02 Coefficients=  1.0000000000D+00
 F 1 1.00
     Exponent=  7.7828000000D+00 Coefficients=  1.0000000000D+00
 F 1 1.00
     Exponent=  3.2584000000D+00 Coefficients=  1.0000000000D+00
 F 1 1.00
     Exponent=  1.3641000000D+00 Coefficients=  1.0000000000D+00
 F 1 1.00
     Exponent=  4.5640000000D-01 Coefficients=  1.0000000000D+00
 F 1 1.00
     Exponent=  1.5270000000D-01 Coefficients=  1.0000000000D+00
 G 1 1.00
     Exponent=  6.3816000000D+00 Coefficients=  1.0000000000D+00
 G 1 1.00
     Exponent=  2.7717000000D+00 Coefficients=  1.0000000000D+00
 G 1 1.00
     Exponent=  1.0505000000D+00 Coefficients=  1.0000000000D+00
 G 1 1.00
     Exponent=  3.9815000000D-01 Coefficients=  1.0000000000D+00
 H 1 1.00
     Exponent=  5.8964000000D+00 Coefficients=  1.0000000000D+00
 H 1 1.00
     Exponent=  2.3448000000D+00 Coefficients=  1.0000000000D+00
 H 1 1.00
     Exponent=  9.3245000000D-01 Coefficients=  1.0000000000D+00
 ****
 Centers:       2
 S 1 1.00
     Exponent=  8.2640000000D+01 Coefficients=  1.0000000000D+00
 S 1 1.00
     Exponent=  1.2410000000D+01 Coefficients=  1.0000000000D+00
 S 1 1.00
     Exponent=  2.8240000000D+00 Coefficients=  1.0000000000D+00
 S 1 1.00
     Exponent=  7.9770000000D-01 Coefficients=  1.0000000000D+00
 S 1 1.00
     Exponent=  2.5810000000D-01 Coefficients=  1.0000000000D+00
 S 1 1.00
     Exponent=  8.9890000000D-02 Coefficients=  1.0000000000D+00
 S 1 1.00
     Exponent=  2.3630000000D-02 Coefficients=  1.0000000000D+00
 P 1 1.00
     Exponent=  2.2920000000D+00 Coefficients=  1.0000000000D+00
 P 1 1.00
     Exponent=  8.3800000000D-01 Coefficients=  1.0000000000D+00
 P 1 1.00
     Exponent=  2.9200000000D-01 Coefficients=  1.0000000000D+00
 P 1 1.00
     Exponent=  8.4800000000D-02 Coefficients=  1.0000000000D+00
 D 1 1.00
     Exponent=  2.0620000000D+00 Coefficients=  1.0000000000D+00
 D 1 1.00
     Exponent=  6.6200000000D-01 Coefficients=  1.0000000000D+00
 D 1 1.00
     Exponent=  1.9000000000D-01 Coefficients=  1.0000000000D+00
 F 1 1.00
     Exponent=  1.3970000000D+00 Coefficients=  1.0000000000D+00
 F 1 1.00
     Exponent=  3.6000000000D-01 Coefficients=  1.0000000000D+00
 ****
 ======================================================================================================
                                       Pseudopotential Parameters
 ======================================================================================================
  Center     Atomic      Valence      Angular      Power
  Number     Number     Electrons     Momentum     of R      Exponent        Coefficient   SO-Coeffient
 ======================================================================================================
    1         26           16
                                      F and up 
                                                     2        1.0000000        0.00000000    0.00000000
                                      S - F
                                                     2       20.9300000      253.74958800    0.00000000
                                                     2        9.4450000       37.92284500    0.00000000
                                      P - F
                                                     2       21.7600000      161.03681200    0.00000000
                                                     2        9.1780000       27.65129800    0.00000000
                                      D - F
                                                     2       25.9000000      -24.43127600    0.00000000
                                                     2        8.8350000       -1.43425100    0.00000000
    2          1            1
                                      P and up 
                                                     2       21.7769666      -10.85192405    0.00000000
                                                     1       21.2435951        1.00000000    0.00000000
                                                     3       21.2435951       21.24359508    0.00000000
                                      S - P
                                                     2        1.0000000        0.00000000    0.00000000
 ======================================================================================================
 Ernie: Thresh=  0.10000D-02 Tol=  0.10000D-05 Strict=F.
 There are   171 symmetry adapted cartesian basis functions of A1  symmetry.
 There are    45 symmetry adapted cartesian basis functions of A2  symmetry.
 There are    93 symmetry adapted cartesian basis functions of B1  symmetry.
 There are    93 symmetry adapted cartesian basis functions of B2  symmetry.
 There are   126 symmetry adapted basis functions of A1  symmetry.
 There are    38 symmetry adapted basis functions of A2  symmetry.
 There are    73 symmetry adapted basis functions of B1  symmetry.
 There are    73 symmetry adapted basis functions of B2  symmetry.
   310 basis functions,   402 primitive gaussians,   402 cartesian basis functions
    10 alpha electrons        7 beta electrons
       nuclear repulsion energy         4.2334176874 Hartrees.
 IExCor=    0 DFT=F Ex=HF Corr=None ExCW=0 ScaHFX=  1.000000
 ScaDFX=  1.000000  1.000000  1.000000  1.000000 ScalE2=  1.000000  1.000000
 IRadAn=      5 IRanWt=     -1 IRanGd=            0 ICorTp=0 IEmpDi=  4
 NAtoms=    2 NActive=    2 NUniq=    2 SFac= 1.00D+00 NAtFMM=   60 NAOKFM=F Big=F
 Integral buffers will be    131072 words long.
 Raffenetti 2 integral format.
 Two-electron integral symmetry is turned on.
 Leave Link  301 at Mon Feb 12 21:41:19 2018, MaxMem= 10737418240 cpu:               7.6 elap:               0.3
 (Enter /home1/apps/gaussian/16rA.03/g16/l302.exe)
 NPDir=0 NMtPBC=     1 NCelOv=     1 NCel=       1 NClECP=     1 NCelD=      1
         NCelK=      1 NCelE2=     1 NClLst=     1 CellRange=     0.0.
 One-electron integrals computed using PRISM.
 One-electron integral symmetry used in STVInt
   4 Symmetry operations used in ECPInt.
 ECPInt:  NShTT=    3916 NPrTT=    3916 LenC2=    3851 LenP2D=    3850.
 LDataN:  DoStor=T MaxTD1=10 Len=  848
 NBasis=   310 RedAO= T EigKep=  1.68D-06  NBF=   126    38    73    73
 NBsUse=   306 1.00D-06 EigRej=  4.95D-07 NBFU=   124    38    72    72
 Leave Link  302 at Mon Feb 12 21:41:22 2018, MaxMem= 10737418240 cpu:              92.3 elap:               2.9
 (Enter /home1/apps/gaussian/16rA.03/g16/l303.exe)
 DipDrv:  MaxL=1.
 Leave Link  303 at Mon Feb 12 21:41:22 2018, MaxMem= 10737418240 cpu:               2.6 elap:               0.1
 (Enter /home1/apps/gaussian/16rA.03/g16/l401.exe)
 ExpMin= 1.30D-02 ExpMax= 1.33D+07 ExpMxC= 1.33D+07 IAcc=4 IRadAn=    399590 AccDes= 0.00D+00
 Harris functional with IExCor=  205 and IRadAn=  399590 diagonalized for initial guess.
 HarFok:  IExCor=  205 AccDes= 0.00D+00 IRadAn=    399590 IDoV= 1 UseB2=F ITyADJ=14
 ICtDFT=  3500011 ScaDFX=  1.000000  1.000000  1.000000  1.000000
 FoFCou: FMM=F IPFlag=           8 FMFlag=      100000 FMFlg1=           0
         NFxFlg=           0 DoJE=T BraDBF=F KetDBF=T FulRan=T
         wScrn=  0.000000 ICntrl=       500 IOpCl=  0 I1Cent=   200000004 NGrid=           0
         NMat0=    1 NMatS0=      1 NMatT0=    0 NMatD0=    1 NMtDS0=    0 NMtDT0=    0
 Petite list used in FoFCou.
 Harris En= -124.531120896543    
 JPrj=0 DoOrth=F DoCkMO=F.
 Alpha guess permutation (I<-O):    1    2    3    4    5   10    9    8    6    7
 Initial guess orbital symmetries:
       Occupied  (SG) (SG) (PI) (PI) (SG) (SG) (DLTA) (DLTA) (PI)
                 (PI)
       Virtual   (SG) (PI) (PI) (SG) (SG) (SG) (PI) (PI) (PI) (PI)
                 (DLTA) (DLTA) (SG) (SG) (SG) (PI) (PI) (PI) (PI)
                 (SG) (DLTA) (DLTA) (PI) (PI) (SG) (SG) (SG) (DLTA)
                 (DLTA) (SG) (PI) (PI) (PHI) (PHI) (DLTA) (DLTA)
                 (PI) (PI) (SG) (SG) (PI) (PI) (SG) (DLTA) (DLTA)
                 (PI) (PI) (SG) (PI) (PI) (SG) (PI) (PI) (DLTA)
                 (DLTA) (PHI) (PHI) (SG) (DLTA) (DLTA) (SG) (PI)
                 (PI) (SG) (PHI) (PHI) (DLTA) (DLTA) (?A) (?A)
                 (SG) (PI) (PI) (PHI) (PHI) (SG) (PI) (PI) (SG)
                 (PI) (PI) (DLTA) (DLTA) (DLTA) (DLTA) (SG) (PI)
                 (PI) (PI) (PI) (SG) (DLTA) (DLTA) (SG) (PI) (PI)
                 (SG) (PHI) (PHI) (DLTA) (DLTA) (PI) (PI) (SG)
                 (?A) (?A) (PHI) (PHI) (DLTA) (DLTA) (?A) (?A)
                 (?B) (?B) (PI) (PI) (PHI) (PHI) (SG) (PI) (PI)
                 (DLTA) (DLTA) (SG) (PI) (PI) (SG) (SG) (SG) (PHI)
                 (PHI) (DLTA) (DLTA) (PI) (PI) (SG) (DLTA) (DLTA)
                 (PI) (PI) (SG) (PI) (PI) (DLTA) (DLTA) (SG) (PI)
                 (PI) (SG) (PHI) (PHI) (DLTA) (DLTA) (PI) (PI)
                 (SG) (PI) (PI) (SG) (?A) (?A) (PHI) (PHI) (DLTA)
                 (DLTA) (PI) (PI) (SG) (?A) (?A) (?B) (?B) (PHI)
                 (PHI) (DLTA) (DLTA) (PI) (PI) (SG) (DLTA) (DLTA)
                 (PI) (PI) (SG) (SG) (PI) (PI) (SG) (SG) (DLTA)
                 (DLTA) (PI) (PI) (SG) (PHI) (PHI) (DLTA) (DLTA)
                 (PI) (PI) (SG) (?A) (?A) (PHI) (PHI) (DLTA) (DLTA)
                 (PI) (PI) (SG) (SG) (?A) (?A) (?C) (?C) (?C) (?C)
                 (DLTA) (DLTA) (PI) (PI) (SG) (DLTA) (DLTA) (PI)
                 (PI) (SG) (PI) (PI) (SG) (SG) (DLTA) (DLTA) (PI)
                 (PI) (SG) (PI) (PI) (SG) (SG) (DLTA) (DLTA) (PI)
                 (PI) (SG) (PI) (PI) (SG) (SG) (SG) (PI) (PI) (SG)
                 (DLTA) (DLTA) (PI) (PI) (SG) (SG) (PI) (PI) (SG)
                 (SG) (PI) (PI) (SG) (DLTA) (DLTA) (PI) (PI) (SG)
                 (SG) (PI) (PI) (SG) (SG) (PI) (PI) (SG) (SG) (PI)
                 (PI) (SG) (SG) (PI) (PI) (SG) (SG) (PI) (PI) (SG)
                 (SG) (SG) (SG) (SG) (SG)
 Leave Link  401 at Mon Feb 12 21:41:24 2018, MaxMem= 10737418240 cpu:              63.6 elap:               2.1
 (Enter /home1/apps/gaussian/16rA.03/g16/l502.exe)
 Keep R1 and R2 ints in memory in symmetry-blocked form, NReq=1456552531.
 FoFCou: FMM=F IPFlag=           8 FMFlag=           0 FMFlg1=           0
         NFxFlg=           0 DoJE=F BraDBF=F KetDBF=F FulRan=T
         wScrn=  0.000000 ICntrl=       600 IOpCl=  0 I1Cent=           0 NGrid=           0
         NMat0=    1 NMatS0=  48205 NMatT0=    0 NMatD0=    1 NMtDS0=    0 NMtDT0=    0
 Petite list used in FoFCou.
 Restricted open shell SCF:
 Using DIIS extrapolation, IDIIS=  1040.
 NGot= 10737418240 LenX= 10147857266 LenY= 10147695221
 Requested convergence on RMS density matrix=1.00D-08 within 400 cycles.
 Requested convergence on MAX density matrix=1.00D-06.
 Requested convergence on             energy=1.00D-06.
 No special actions if energy rises.

 Cycle   1  Pass 1  IDiag  1:
 E= -123.533475593558    
 DIIS: error= 2.25D-02 at cycle   1 NSaved=   1.
 NSaved= 1 IEnMin= 1 EnMin= -123.533475593558     IErMin= 1 ErrMin= 2.25D-02
 ErrMax= 2.25D-02  0.00D+00 EMaxC= 1.00D-01 BMatC= 7.67D-02 BMatP= 7.67D-02
 IDIUse=3 WtCom= 7.75D-01 WtEn= 2.25D-01
 Coeff-Com:  0.100D+01
 Coeff-En:   0.100D+01
 Coeff:      0.100D+01
 Gap=     0.032 Goal=   None    Shift=    0.000
 GapD=    0.032 DampG=0.250 DampE=0.250 DampFc=0.1250 IDamp=-1.
 Damping current iteration by 1.25D-01
 RMSDP=3.62D-03 MaxDP=8.09D-01              OVMax= 1.00D+00

 Cycle   2  Pass 1  IDiag  1:
 E= -123.448842094595     Delta-E=        0.084633498963 Rises=F Damp=T
 DIIS: error= 2.81D-02 at cycle   2 NSaved=   2.
 NSaved= 2 IEnMin= 1 EnMin= -123.533475593558     IErMin= 1 ErrMin= 2.25D-02
 ErrMax= 2.81D-02  0.00D+00 EMaxC= 1.00D-01 BMatC= 7.95D-02 BMatP= 7.67D-02
 IDIUse=3 WtCom= 7.19D-01 WtEn= 2.81D-01
 Coeff-Com:  0.529D+00 0.471D+00
 Coeff-En:   0.000D+00 0.100D+01
 Coeff:      0.381D+00 0.619D+00
 Gap=    -0.095 Goal=   None    Shift=    0.000
 RMSDP=1.24D-03 MaxDP=1.01D-01 DE= 8.46D-02 OVMax= 1.00D+00

 Cycle   3  Pass 1  IDiag  1:
 E= -123.525446080630     Delta-E=       -0.076603986034 Rises=F Damp=F
 DIIS: error= 2.39D-02 at cycle   3 NSaved=   3.
 NSaved= 3 IEnMin= 1 EnMin= -123.533475593558     IErMin= 1 ErrMin= 2.25D-02
 ErrMax= 2.39D-02  0.00D+00 EMaxC= 1.00D-01 BMatC= 2.27D-02 BMatP= 7.67D-02
 IDIUse=3 WtCom= 7.61D-01 WtEn= 2.39D-01
 EnCoef did     3 forward-backward iterations
 Coeff-Com: -0.191D+00 0.445D+00 0.747D+00
 Coeff-En:   0.407D+00 0.115D+00 0.478D+00
 Coeff:     -0.484D-01 0.366D+00 0.683D+00
 Gap=     0.082 Goal=   None    Shift=    0.000
 RMSDP=1.01D-03 MaxDP=9.99D-02 DE=-7.66D-02 OVMax= 2.56D-01

 Cycle   4  Pass 1  IDiag  1:
 E= -123.560657565847     Delta-E=       -0.035211485218 Rises=F Damp=F
 DIIS: error= 1.97D-02 at cycle   4 NSaved=   4.
 NSaved= 4 IEnMin= 4 EnMin= -123.560657565847     IErMin= 4 ErrMin= 1.97D-02
 ErrMax= 1.97D-02  0.00D+00 EMaxC= 1.00D-01 BMatC= 1.57D-02 BMatP= 2.27D-02
 IDIUse=3 WtCom= 8.03D-01 WtEn= 1.97D-01
 Coeff-Com: -0.316D+00 0.340D+00 0.495D+00 0.482D+00
 Coeff-En:   0.000D+00 0.000D+00 0.330D+00 0.670D+00
 Coeff:     -0.254D+00 0.273D+00 0.462D+00 0.519D+00
 Gap=     0.049 Goal=   None    Shift=    0.000
 RMSDP=4.21D-04 MaxDP=3.47D-02 DE=-3.52D-02 OVMax= 7.09D-02

 Cycle   5  Pass 1  IDiag  1:
 E= -123.568365678357     Delta-E=       -0.007708112510 Rises=F Damp=F
 DIIS: error= 7.08D-03 at cycle   5 NSaved=   5.
 NSaved= 5 IEnMin= 5 EnMin= -123.568365678357     IErMin= 5 ErrMin= 7.08D-03
 ErrMax= 7.08D-03  0.00D+00 EMaxC= 1.00D-01 BMatC= 2.00D-03 BMatP= 1.57D-02
 IDIUse=3 WtCom= 9.29D-01 WtEn= 7.08D-02
 Rare condition: small coef for last iteration:  0.000D+00
 Coeff-Com: -0.222D+00 0.242D+00 0.245D+00 0.164D+00 0.571D+00
 Coeff-En:   0.000D+00 0.000D+00 0.141D+00 0.858D-01 0.773D+00
 Coeff:     -0.222D+00 0.242D+00 0.245D+00 0.164D+00 0.571D+00
 Gap=     0.044 Goal=   None    Shift=    0.000
 RMSDP=1.38D-04 MaxDP=1.18D-02 DE=-7.71D-03 OVMax= 3.02D-02

 Cycle   6  Pass 1  IDiag  1:
 E= -123.568121777205     Delta-E=        0.000243901153 Rises=F Damp=F
 DIIS: error= 7.18D-03 at cycle   6 NSaved=   6.
 NSaved= 6 IEnMin= 5 EnMin= -123.568365678357     IErMin= 5 ErrMin= 7.08D-03
 ErrMax= 7.18D-03  0.00D+00 EMaxC= 1.00D-01 BMatC= 2.24D-03 BMatP= 2.00D-03
 IDIUse=3 WtCom= 9.29D-01 WtEn= 7.08D-02
 EnCoef did   100 forward-backward iterations
 Rare condition: small coef for last iteration:  0.000D+00
 Coeff-Com: -0.181D+00 0.210D+00 0.548D-01-0.120D+00-0.117D+00 0.115D+01
 Coeff-En:   0.000D+00 0.000D+00 0.114D+00 0.752D-01 0.476D+00 0.335D+00
 Coeff:     -0.181D+00 0.210D+00 0.548D-01-0.120D+00-0.117D+00 0.115D+01
 Gap=     0.036 Goal=   None    Shift=    0.000
 RMSDP=2.24D-04 MaxDP=2.21D-02 DE= 2.44D-04 OVMax= 6.07D-02

 Cycle   7  Pass 1  IDiag  1:
 E= -123.569332673226     Delta-E=       -0.001210896021 Rises=F Damp=F
 DIIS: error= 7.44D-03 at cycle   7 NSaved=   7.
 NSaved= 7 IEnMin= 7 EnMin= -123.569332673226     IErMin= 5 ErrMin= 7.08D-03
 ErrMax= 7.44D-03  0.00D+00 EMaxC= 1.00D-01 BMatC= 1.32D-03 BMatP= 2.00D-03
 IDIUse=3 WtCom= 9.29D-01 WtEn= 7.08D-02
 EnCoef did   100 forward-backward iterations
 Coeff-Com: -0.127D+00 0.154D+00-0.295D-01-0.192D+00-0.875D+00 0.145D+01
 Coeff-Com:  0.616D+00
 Coeff-En:   0.000D+00 0.000D+00 0.273D+00 0.504D+00 0.000D+00 0.182D-01
 Coeff-En:   0.205D+00
 Coeff:     -0.118D+00 0.143D+00-0.807D-02-0.143D+00-0.813D+00 0.135D+01
 Coeff:      0.587D+00
 Gap=     0.024 Goal=   None    Shift=    0.000
 RMSDP=1.63D-04 MaxDP=2.05D-02 DE=-1.21D-03 OVMax= 5.78D-02

 Cycle   8  Pass 1  IDiag  1:
 E= -123.571168669658     Delta-E=       -0.001835996433 Rises=F Damp=F
 DIIS: error= 4.46D-03 at cycle   8 NSaved=   8.
 NSaved= 8 IEnMin= 8 EnMin= -123.571168669658     IErMin= 8 ErrMin= 4.46D-03
 ErrMax= 4.46D-03  0.00D+00 EMaxC= 1.00D-01 BMatC= 4.94D-04 BMatP= 1.32D-03
 IDIUse=3 WtCom= 9.55D-01 WtEn= 4.46D-02
 EnCoef did   100 forward-backward iterations
 Coeff-Com: -0.848D-01 0.106D+00-0.312D-01-0.165D+00-0.102D+01 0.129D+01
 Coeff-Com:  0.578D+00 0.320D+00
 Coeff-En:   0.000D+00 0.000D+00 0.184D+00 0.000D+00 0.000D+00 0.557D-02
 Coeff-En:   0.808D-02 0.802D+00
 Coeff:     -0.811D-01 0.102D+00-0.216D-01-0.158D+00-0.971D+00 0.124D+01
 Coeff:      0.553D+00 0.342D+00
 Gap=     0.019 Goal=   None    Shift=    0.000
 RMSDP=8.14D-05 MaxDP=6.58D-03 DE=-1.84D-03 OVMax= 1.48D-02

 Cycle   9  Pass 1  IDiag  1:
 E= -123.571740392877     Delta-E=       -0.000571723219 Rises=F Damp=F
 DIIS: error= 3.11D-03 at cycle   9 NSaved=   9.
 NSaved= 9 IEnMin= 9 EnMin= -123.571740392877     IErMin= 9 ErrMin= 3.11D-03
 ErrMax= 3.11D-03  0.00D+00 EMaxC= 1.00D-01 BMatC= 2.42D-04 BMatP= 4.94D-04
 IDIUse=3 WtCom= 9.69D-01 WtEn= 3.11D-02
 EnCoef did   100 forward-backward iterations
 Rare condition: small coef for last iteration:  0.291D-15
 Coeff-Com: -0.547D-01 0.654D-01 0.374D-01-0.543D-01-0.197D+00 0.296D+00
 Coeff-Com: -0.144D+00-0.637D+00 0.169D+01
 Coeff-En:   0.000D+00 0.000D+00 0.153D+00 0.000D+00 0.000D+00 0.000D+00
 Coeff-En:   0.000D+00 0.000D+00 0.847D+00
 Coeff:     -0.547D-01 0.654D-01 0.374D-01-0.543D-01-0.197D+00 0.296D+00
 Coeff:     -0.144D+00-0.637D+00 0.169D+01
 Gap=     0.012 Goal=   None    Shift=    0.000
 RMSDP=9.32D-05 MaxDP=6.58D-03 DE=-5.72D-04 OVMax= 2.23D-02

 Cycle  10  Pass 1  IDiag  1:
 E= -123.571539076512     Delta-E=        0.000201316365 Rises=F Damp=F
 DIIS: error= 1.56D-03 at cycle  10 NSaved=  10.
 NSaved=10 IEnMin= 9 EnMin= -123.571740392877     IErMin=10 ErrMin= 1.56D-03
 ErrMax= 1.56D-03  0.00D+00 EMaxC= 1.00D-01 BMatC= 2.61D-04 BMatP= 2.42D-04
 IDIUse=3 WtCom= 9.84D-01 WtEn= 1.56D-02
 EnCoef did   100 forward-backward iterations
 Rare condition: small coef for last iteration:  0.000D+00
 Coeff-Com: -0.506D-01 0.573D-01 0.492D-01-0.455D-02 0.128D+00-0.623D-01
 Coeff-Com: -0.338D+00-0.870D+00 0.174D+01 0.352D+00
 Coeff-En:   0.000D+00 0.000D+00 0.133D+00 0.000D+00 0.000D+00 0.000D+00
 Coeff-En:   0.000D+00 0.000D+00 0.535D+00 0.332D+00
 Coeff:     -0.506D-01 0.573D-01 0.492D-01-0.455D-02 0.128D+00-0.623D-01
 Coeff:     -0.338D+00-0.870D+00 0.174D+01 0.352D+00
 Gap=     0.010 Goal=   None    Shift=    0.000
 RMSDP=8.42D-05 MaxDP=7.15D-03 DE= 2.01D-04 OVMax= 2.02D-02

 Cycle  11  Pass 1  IDiag  1:
 E= -123.571893391694     Delta-E=       -0.000354315181 Rises=F Damp=F
 DIIS: error= 1.63D-03 at cycle  11 NSaved=  11.
 NSaved=11 IEnMin=11 EnMin= -123.571893391694     IErMin=10 ErrMin= 1.56D-03
 ErrMax= 1.63D-03  0.00D+00 EMaxC= 1.00D-01 BMatC= 9.29D-05 BMatP= 2.42D-04
 IDIUse=3 WtCom= 9.84D-01 WtEn= 1.56D-02
 EnCoef did   100 forward-backward iterations
 Rare condition: small coef for last iteration:  0.000D+00
 Coeff-Com: -0.412D-01 0.454D-01 0.311D-01 0.120D-01 0.124D+00-0.122D+00
 Coeff-Com: -0.246D+00-0.576D+00 0.102D+01 0.271D+00 0.486D+00
 Coeff-En:   0.000D+00 0.000D+00 0.109D+00 0.000D+00 0.000D+00 0.000D+00
 Coeff-En:   0.000D+00 0.504D-02 0.147D+00 0.190D+00 0.549D+00
 Coeff:     -0.412D-01 0.454D-01 0.311D-01 0.120D-01 0.124D+00-0.122D+00
 Coeff:     -0.246D+00-0.576D+00 0.102D+01 0.271D+00 0.486D+00
 Gap=     0.008 Goal=   None    Shift=    0.000
 RMSDP=1.80D-04 MaxDP=2.43D-02 DE=-3.54D-04 OVMax= 9.52D-02

 Cycle  12  Pass 1  IDiag  1:
 E= -123.569819081748     Delta-E=        0.002074309946 Rises=F Damp=F
 DIIS: error= 4.92D-03 at cycle  12 NSaved=  12.
 NSaved=12 IEnMin=11 EnMin= -123.571893391694     IErMin=10 ErrMin= 1.56D-03
 ErrMax= 4.92D-03  0.00D+00 EMaxC= 1.00D-01 BMatC= 7.47D-04 BMatP= 9.29D-05
 IDIUse=3 WtCom= 9.84D-01 WtEn= 1.56D-02
 EnCoef did   100 forward-backward iterations
 Coeff-Com: -0.386D-01 0.423D-01 0.278D-01 0.156D-01 0.121D+00-0.133D+00
 Coeff-Com: -0.230D+00-0.523D+00 0.894D+00 0.251D+00 0.538D+00 0.337D-01
 Coeff-En:   0.000D+00 0.000D+00 0.171D+00 0.000D+00 0.000D+00 0.000D+00
 Coeff-En:   0.000D+00 0.673D+00 0.000D+00 0.214D-02 0.212D-01 0.132D+00
 Coeff:     -0.380D-01 0.416D-01 0.300D-01 0.154D-01 0.120D+00-0.131D+00
 Coeff:     -0.226D+00-0.504D+00 0.880D+00 0.247D+00 0.530D+00 0.352D-01
 Gap=     0.007 Goal=   None    Shift=    0.000
 RMSDP=1.82D-04 MaxDP=2.49D-02 DE= 2.07D-03 OVMax= 9.75D-02

 Cycle  13  Pass 1  IDiag  1:
 E= -123.572029290497     Delta-E=       -0.002210208750 Rises=F Damp=F
 DIIS: error= 1.05D-03 at cycle  13 NSaved=  13.
 NSaved=13 IEnMin=13 EnMin= -123.572029290497     IErMin=13 ErrMin= 1.05D-03
 ErrMax= 1.05D-03  0.00D+00 EMaxC= 1.00D-01 BMatC= 3.41D-05 BMatP= 9.29D-05
 IDIUse=3 WtCom= 9.90D-01 WtEn= 1.05D-02
 EnCoef did   100 forward-backward iterations
 Rare condition: small coef for last iteration: -0.344D-15
 Coeff-Com: -0.190D-01 0.199D-01 0.205D-01 0.221D-01 0.123D+00-0.181D+00
 Coeff-Com: -0.189D+00-0.337D+00 0.516D+00 0.125D+00 0.281D+00 0.669D-01
 Coeff-Com:  0.552D+00
 Coeff-En:   0.000D+00 0.000D+00 0.120D+00 0.000D+00 0.000D+00 0.000D+00
 Coeff-En:   0.000D+00 0.000D+00 0.000D+00 0.000D+00 0.000D+00 0.252D+00
 Coeff-En:   0.627D+00
 Coeff:     -0.190D-01 0.199D-01 0.205D-01 0.221D-01 0.123D+00-0.181D+00
 Coeff:     -0.189D+00-0.337D+00 0.516D+00 0.125D+00 0.281D+00 0.669D-01
 Coeff:      0.552D+00
 Gap=     0.004 Goal=   None    Shift=    0.000
 RMSDP=4.51D-05 MaxDP=4.17D-03 DE=-2.21D-03 OVMax= 1.76D-02

 Cycle  14  Pass 1  IDiag  1:
 E= -123.572012860753     Delta-E=        0.000016429744 Rises=F Damp=F
 DIIS: error= 4.92D-04 at cycle  14 NSaved=  14.
 NSaved=14 IEnMin=13 EnMin= -123.572029290497     IErMin=14 ErrMin= 4.92D-04
 ErrMax= 4.92D-04  0.00D+00 EMaxC= 1.00D-01 BMatC= 3.48D-05 BMatP= 3.41D-05
 IDIUse=3 WtCom= 9.95D-01 WtEn= 4.92D-03
 EnCoef did   100 forward-backward iterations
 Rare condition: small coef for last iteration:  0.000D+00
 Coeff-Com: -0.236D-01 0.263D-01 0.574D-02 0.304D-02 0.131D-01-0.100D-01
 Coeff-Com: -0.571D-01-0.155D+00 0.201D+00 0.407D-01 0.888D-01-0.184D-01
 Coeff-Com:  0.345D+00 0.540D+00
 Coeff-En:   0.000D+00 0.000D+00 0.114D+00 0.000D+00 0.000D+00 0.000D+00
 Coeff-En:   0.000D+00 0.000D+00 0.000D+00 0.000D+00 0.317D-01 0.206D+00
 Coeff-En:   0.349D+00 0.300D+00
 Coeff:     -0.236D-01 0.263D-01 0.574D-02 0.304D-02 0.131D-01-0.100D-01
 Coeff:     -0.571D-01-0.155D+00 0.201D+00 0.407D-01 0.888D-01-0.184D-01
 Coeff:      0.345D+00 0.540D+00
 Gap=     0.005 Goal=   None    Shift=    0.000
 RMSDP=5.21D-05 MaxDP=4.39D-03 DE= 1.64D-05 OVMax= 1.53D-02

 Cycle  15  Pass 1  IDiag  1:
 E= -123.572065941957     Delta-E=       -0.000053081203 Rises=F Damp=F
 DIIS: error= 8.38D-04 at cycle  15 NSaved=  15.
 NSaved=15 IEnMin=15 EnMin= -123.572065941957     IErMin=14 ErrMin= 4.92D-04
 ErrMax= 8.38D-04  0.00D+00 EMaxC= 1.00D-01 BMatC= 1.40D-05 BMatP= 3.41D-05
 IDIUse=3 WtCom= 9.95D-01 WtEn= 4.92D-03
 EnCoef did   100 forward-backward iterations
 Coeff-Com: -0.192D-01 0.215D-01 0.306D-02 0.148D-02-0.151D-02 0.223D-01
 Coeff-Com: -0.286D-01-0.104D+00 0.138D+00 0.193D-01 0.326D-02-0.627D-01
 Coeff-Com: -0.189D+00 0.718D+00 0.478D+00
 Coeff-En:   0.000D+00 0.000D+00 0.172D+00 0.000D+00 0.000D+00 0.000D+00
 Coeff-En:   0.000D+00 0.677D+00 0.000D+00 0.000D+00 0.259D-02 0.130D+00
 Coeff-En:   0.000D+00 0.182D-01 0.160D-03
 Coeff:     -0.191D-01 0.214D-01 0.389D-02 0.147D-02-0.150D-02 0.221D-01
 Coeff:     -0.284D-01-0.998D-01 0.138D+00 0.192D-01 0.326D-02-0.618D-01
 Coeff:     -0.188D+00 0.714D+00 0.475D+00
 Gap=     0.003 Goal=   None    Shift=    0.000
 RMSDP=3.09D-05 MaxDP=3.47D-03 DE=-5.31D-05 OVMax= 5.07D-03

 Cycle  16  Pass 1  IDiag  1:
 E= -123.572050963454     Delta-E=        0.000014978503 Rises=F Damp=F
 DIIS: error= 6.53D-04 at cycle  16 NSaved=  16.
 NSaved=16 IEnMin=15 EnMin= -123.572065941957     IErMin=14 ErrMin= 4.92D-04
 ErrMax= 6.53D-04  0.00D+00 EMaxC= 1.00D-01 BMatC= 1.96D-05 BMatP= 1.40D-05
 IDIUse=3 WtCom= 9.95D-01 WtEn= 4.92D-03
 EnCoef did   100 forward-backward iterations
 Rare condition: small coef for last iteration: -0.230D-15
 Coeff-Com: -0.152D-01 0.171D-01 0.223D-02 0.134D-02-0.484D-02 0.332D-01
 Coeff-Com: -0.174D-01-0.823D-01 0.121D+00 0.138D-01-0.349D-01-0.729D-01
 Coeff-Com: -0.536D+00 0.795D+00 0.531D+00 0.249D+00
 Coeff-En:   0.000D+00 0.000D+00 0.120D+00 0.000D+00 0.000D+00 0.000D+00
 Coeff-En:   0.000D+00 0.000D+00 0.000D+00 0.000D+00 0.257D-01 0.202D+00
 Coeff-En:   0.000D+00 0.262D+00 0.326D+00 0.645D-01
 Coeff:     -0.152D-01 0.171D-01 0.223D-02 0.134D-02-0.484D-02 0.332D-01
 Coeff:     -0.174D-01-0.823D-01 0.121D+00 0.138D-01-0.349D-01-0.729D-01
 Coeff:     -0.536D+00 0.795D+00 0.531D+00 0.249D+00
 Gap=     0.003 Goal=   None    Shift=    0.000
 RMSDP=2.53D-05 MaxDP=2.80D-03 DE= 1.50D-05 OVMax= 1.02D-02

 Cycle  17  Pass 1  IDiag  1:
 E= -123.571994991493     Delta-E=        0.000055971960 Rises=F Damp=F
 DIIS: error= 9.96D-04 at cycle  17 NSaved=  17.
 NSaved=17 IEnMin=15 EnMin= -123.572065941957     IErMin=14 ErrMin= 4.92D-04
 ErrMax= 9.96D-04  0.00D+00 EMaxC= 1.00D-01 BMatC= 3.53D-05 BMatP= 1.40D-05
 IDIUse=3 WtCom= 9.95D-01 WtEn= 4.92D-03
 EnCoef did   100 forward-backward iterations
 Coeff-Com: -0.122D-01 0.136D-01 0.240D-02 0.342D-02-0.537D-02 0.327D-01
 Coeff-Com: -0.204D-01-0.939D-01 0.173D+00 0.256D-01-0.341D-01 0.612D-02
 Coeff-Com: -0.708D+00 0.686D+00 0.176D+00 0.252D+00 0.504D+00
 Coeff-En:   0.000D+00 0.000D+00 0.172D+00 0.000D+00 0.000D+00 0.000D+00
 Coeff-En:   0.000D+00 0.674D+00 0.000D+00 0.000D+00 0.617D-03 0.130D+00
 Coeff-En:   0.000D+00 0.192D-01 0.113D-02 0.276D-02 0.780D-03
 Coeff:     -0.121D-01 0.135D-01 0.323D-02 0.341D-02-0.534D-02 0.326D-01
 Coeff:     -0.203D-01-0.902D-01 0.172D+00 0.254D-01-0.340D-01 0.673D-02
 Coeff:     -0.704D+00 0.683D+00 0.175D+00 0.250D+00 0.501D+00
 Gap=     0.003 Goal=   None    Shift=    0.000
 RMSDP=3.77D-05 MaxDP=4.98D-03 DE= 5.60D-05 OVMax= 1.56D-02

 Cycle  18  Pass 1  IDiag  1:
 E= -123.572086778377     Delta-E=       -0.000091786884 Rises=F Damp=F
 DIIS: error= 4.30D-04 at cycle  18 NSaved=  18.
 NSaved=18 IEnMin=18 EnMin= -123.572086778377     IErMin=18 ErrMin= 4.30D-04
 ErrMax= 4.30D-04  0.00D+00 EMaxC= 1.00D-01 BMatC= 6.37D-06 BMatP= 1.40D-05
 IDIUse=3 WtCom= 9.96D-01 WtEn= 4.30D-03
 EnCoef did   100 forward-backward iterations
 Rare condition: small coef for last iteration:  0.115D-15
 Coeff-Com: -0.875D-02 0.969D-02 0.326D-02 0.233D-02 0.101D-02 0.233D-01
 Coeff-Com: -0.249D-01-0.973D-01 0.188D+00 0.375D-01-0.505D-02 0.403D-01
 Coeff-Com: -0.677D+00 0.498D+00-0.215D+00 0.887D-01 0.669D+00 0.466D+00
 Coeff-En:   0.000D+00 0.000D+00 0.122D+00 0.000D+00 0.000D+00 0.000D+00
 Coeff-En:   0.000D+00 0.000D+00 0.000D+00 0.000D+00 0.164D-01 0.204D+00
 Coeff-En:   0.000D+00 0.235D+00 0.000D+00 0.000D+00 0.619D-01 0.361D+00
 Coeff:     -0.875D-02 0.969D-02 0.326D-02 0.233D-02 0.101D-02 0.233D-01
 Coeff:     -0.249D-01-0.973D-01 0.188D+00 0.375D-01-0.505D-02 0.403D-01
 Coeff:     -0.677D+00 0.498D+00-0.215D+00 0.887D-01 0.669D+00 0.466D+00
 Gap=     0.003 Goal=   None    Shift=    0.000
 RMSDP=3.32D-05 MaxDP=3.78D-03 DE=-9.18D-05 OVMax= 1.35D-02

 Cycle  19  Pass 1  IDiag  1:
 E= -123.572069726669     Delta-E=        0.000017051708 Rises=F Damp=F
 DIIS: error= 5.43D-04 at cycle  19 NSaved=  19.
 NSaved=19 IEnMin=18 EnMin= -123.572086778377     IErMin=18 ErrMin= 4.30D-04
 ErrMax= 5.43D-04  0.00D+00 EMaxC= 1.00D-01 BMatC= 1.12D-05 BMatP= 6.37D-06
 IDIUse=3 WtCom= 9.96D-01 WtEn= 4.30D-03
 EnCoef did   100 forward-backward iterations
 Coeff-Com: -0.391D-02 0.436D-02 0.399D-02-0.163D-02 0.103D-01 0.867D-02
 Coeff-Com: -0.255D-01-0.801D-01 0.155D+00 0.433D-01 0.411D-01 0.259D-01
 Coeff-Com: -0.446D+00 0.171D+00-0.673D+00-0.202D+00 0.688D+00 0.958D+00
 Coeff-Com:  0.323D+00
 Coeff-En:   0.000D+00 0.000D+00 0.172D+00 0.000D+00 0.000D+00 0.000D+00
 Coeff-En:   0.000D+00 0.669D+00 0.000D+00 0.000D+00 0.140D-02 0.130D+00
 Coeff-En:   0.000D+00 0.158D-01 0.000D+00 0.000D+00 0.233D-02 0.912D-02
 Coeff-En:   0.542D-03
 Coeff:     -0.389D-02 0.434D-02 0.471D-02-0.162D-02 0.103D-01 0.863D-02
 Coeff:     -0.254D-01-0.769D-01 0.155D+00 0.431D-01 0.409D-01 0.263D-01
 Coeff:     -0.444D+00 0.170D+00-0.671D+00-0.202D+00 0.685D+00 0.954D+00
 Coeff:      0.321D+00
 Gap=     0.002 Goal=   None    Shift=    0.000
 RMSDP=2.72D-05 MaxDP=2.88D-03 DE= 1.71D-05 OVMax= 1.31D-02

 Cycle  20  Pass 1  IDiag  1:
 E= -123.572098681485     Delta-E=       -0.000028954815 Rises=F Damp=F
 DIIS: error= 1.59D-04 at cycle  20 NSaved=  20.
 NSaved=20 IEnMin=20 EnMin= -123.572098681485     IErMin=20 ErrMin= 1.59D-04
 ErrMax= 1.59D-04  0.00D+00 EMaxC= 1.00D-01 BMatC= 1.63D-06 BMatP= 6.37D-06
 IDIUse=3 WtCom= 9.98D-01 WtEn= 1.59D-03
 EnCoef did   100 forward-backward iterations
 Rare condition: small coef for last iteration: -0.233D-15
 Coeff-Com: -0.125D-02 0.149D-02 0.212D-02-0.340D-02 0.419D-02 0.354D-02
 Coeff-Com: -0.105D-01-0.328D-01 0.696D-01 0.269D-01 0.501D-01 0.296D-01
 Coeff-Com: -0.153D+00-0.498D-01-0.636D+00-0.281D+00 0.451D+00 0.611D+00
 Coeff-Com:  0.303D+00 0.615D+00
 Coeff-En:   0.000D+00 0.000D+00 0.123D+00 0.000D+00 0.000D+00 0.000D+00
 Coeff-En:   0.000D+00 0.000D+00 0.000D+00 0.000D+00 0.200D-02 0.209D+00
 Coeff-En:   0.000D+00 0.137D+00 0.000D+00 0.000D+00 0.125D+00 0.000D+00
 Coeff-En:   0.138D+00 0.265D+00
 Coeff:     -0.125D-02 0.149D-02 0.212D-02-0.340D-02 0.419D-02 0.354D-02
 Coeff:     -0.105D-01-0.328D-01 0.696D-01 0.269D-01 0.501D-01 0.296D-01
 Coeff:     -0.153D+00-0.498D-01-0.636D+00-0.281D+00 0.451D+00 0.611D+00
 Coeff:      0.303D+00 0.615D+00
 Gap=     0.001 Goal=   None    Shift=    0.000
 RMSDP=2.92D-05 MaxDP=3.85D-03 DE=-2.90D-05 OVMax= 1.34D-02

 Cycle  21  Pass 1  IDiag  1:
 E= -123.572070454009     Delta-E=        0.000028227476 Rises=F Damp=F
 DIIS: error= 5.57D-04 at cycle  21 NSaved=  20.
 NSaved=20 IEnMin=19 EnMin= -123.572098681485     IErMin=19 ErrMin= 1.59D-04
 ErrMax= 5.57D-04  0.00D+00 EMaxC= 1.00D-01 BMatC= 1.09D-05 BMatP= 1.63D-06
 IDIUse=3 WtCom= 9.98D-01 WtEn= 1.59D-03
 EnCoef did   100 forward-backward iterations
 Coeff-Com:  0.115D-03 0.712D-03-0.388D-02-0.649D-03 0.868D-03-0.105D-03
 Coeff-Com: -0.154D-02 0.132D-01 0.138D-01 0.495D-01 0.246D-01 0.388D-01
 Coeff-Com: -0.171D+00-0.542D+00-0.289D+00 0.318D+00 0.281D+00 0.219D+00
 Coeff-Com:  0.893D+00 0.155D+00
 Coeff-En:   0.000D+00 0.172D+00 0.000D+00 0.000D+00 0.000D+00 0.000D+00
 Coeff-En:   0.662D+00 0.000D+00 0.000D+00 0.000D+00 0.131D+00 0.000D+00
 Coeff-En:   0.104D-01 0.000D+00 0.000D+00 0.196D-02 0.468D-02 0.000D+00
 Coeff-En:   0.143D-01 0.426D-02
 Coeff:      0.115D-03 0.983D-03-0.387D-02-0.648D-03 0.867D-03-0.105D-03
 Coeff:     -0.482D-03 0.131D-01 0.138D-01 0.494D-01 0.248D-01 0.387D-01
 Coeff:     -0.170D+00-0.541D+00-0.288D+00 0.318D+00 0.280D+00 0.218D+00
 Coeff:      0.892D+00 0.155D+00
 Gap=     0.001 Goal=   None    Shift=    0.000
 RMSDP=1.62D-05 MaxDP=1.63D-03 DE= 2.82D-05 OVMax= 2.85D-03

 Cycle  22  Pass 1  IDiag  1:
 E= -123.572083360671     Delta-E=       -0.000012906663 Rises=F Damp=F
 DIIS: error= 4.55D-04 at cycle  22 NSaved=  20.
 NSaved=20 IEnMin=18 EnMin= -123.572098681485     IErMin=18 ErrMin= 1.59D-04
 ErrMax= 4.55D-04  0.00D+00 EMaxC= 1.00D-01 BMatC= 6.48D-06 BMatP= 1.63D-06
 IDIUse=3 WtCom= 9.98D-01 WtEn= 1.59D-03
 EnCoef did   100 forward-backward iterations
 Coeff-Com:  0.306D-04-0.109D-03-0.105D-04-0.494D-02 0.200D-02 0.630D-02
 Coeff-Com: -0.957D-02 0.975D-03 0.173D-01-0.200D-01 0.982D-01-0.551D-01
 Coeff-Com: -0.686D-01-0.463D-01 0.275D+00-0.342D+00-0.154D+00 0.301D+00
 Coeff-Com:  0.126D+00 0.874D+00
 Coeff-En:   0.000D+00 0.000D+00 0.000D+00 0.000D+00 0.000D+00 0.000D+00
 Coeff-En:   0.000D+00 0.000D+00 0.411D-04 0.327D+00 0.105D-02 0.250D-02
 Coeff-En:   0.000D+00 0.338D-02 0.658D+00 0.000D+00 0.000D+00 0.477D-02
 Coeff-En:   0.000D+00 0.306D-02
 Coeff:      0.306D-04-0.108D-03-0.105D-04-0.494D-02 0.200D-02 0.629D-02
 Coeff:     -0.956D-02 0.973D-03 0.173D-01-0.195D-01 0.980D-01-0.550D-01
 Coeff:     -0.685D-01-0.463D-01 0.276D+00-0.341D+00-0.154D+00 0.301D+00
 Coeff:      0.125D+00 0.873D+00
 Gap=     0.001 Goal=   None    Shift=    0.000
 RMSDP=6.74D-05 MaxDP=9.23D-03 DE=-1.29D-05 OVMax= 4.01D-02

 Cycle  23  Pass 1  IDiag  1:
 E= -123.571834243353     Delta-E=        0.000249117319 Rises=F Damp=F
 DIIS: error= 1.69D-03 at cycle  23 NSaved=  20.
 NSaved=20 IEnMin=17 EnMin= -123.572098681485     IErMin=17 ErrMin= 1.59D-04
 ErrMax= 1.69D-03  0.00D+00 EMaxC= 1.00D-01 BMatC= 8.83D-05 BMatP= 1.63D-06
 IDIUse=3 WtCom= 9.98D-01 WtEn= 1.59D-03
 EnCoef did   100 forward-backward iterations
 Coeff-Com:  0.989D-03 0.301D-03-0.678D-02 0.369D-03 0.560D-02-0.807D-02
 Coeff-Com: -0.275D-03 0.680D-02-0.793D-02 0.104D+00-0.356D-01 0.681D-01
 Coeff-Com: -0.115D-01-0.214D-01-0.259D+00-0.101D+00 0.133D+00 0.843D-01
 Coeff-Com:  0.860D+00 0.188D+00
 Coeff-En:   0.000D+00 0.000D+00 0.000D+00 0.000D+00 0.000D+00 0.000D+00
 Coeff-En:   0.000D+00 0.891D-05 0.370D+00 0.227D-03 0.541D-03 0.000D+00
 Coeff-En:   0.734D-03 0.152D-01 0.000D+00 0.000D+00 0.103D-02 0.000D+00
 Coeff-En:   0.664D-03 0.611D+00
 Coeff:      0.987D-03 0.301D-03-0.677D-02 0.369D-03 0.559D-02-0.805D-02
 Coeff:     -0.274D-03 0.679D-02-0.733D-02 0.104D+00-0.355D-01 0.680D-01
 Coeff:     -0.115D-01-0.213D-01-0.259D+00-0.101D+00 0.133D+00 0.842D-01
 Coeff:      0.859D+00 0.189D+00
 Gap=     0.001 Goal=   None    Shift=    0.000
 RMSDP=2.29D-05 MaxDP=3.15D-03 DE= 2.49D-04 OVMax= 1.35D-02

 Cycle  24  Pass 1  IDiag  1:
 E= -123.572015366813     Delta-E=       -0.000181123460 Rises=F Damp=F
 DIIS: error= 9.69D-04 at cycle  24 NSaved=  20.
 NSaved=20 IEnMin=16 EnMin= -123.572098681485     IErMin=16 ErrMin= 1.59D-04
 ErrMax= 9.69D-04  0.00D+00 EMaxC= 1.00D-01 BMatC= 2.87D-05 BMatP= 1.63D-06
 IDIUse=3 WtCom= 9.98D-01 WtEn= 1.59D-03
 EnCoef did   100 forward-backward iterations
 Rare condition: small coef for last iteration:  0.356D-15
 Coeff-Com:  0.244D-03-0.351D-02 0.703D-03 0.453D-02-0.680D-02 0.744D-03
 Coeff-Com:  0.454D-02 0.134D-01 0.545D-01-0.413D-01-0.641D-02-0.199D-01
 Coeff-Com: -0.577D-01-0.796D-01-0.761D-02 0.125D+00 0.602D-01 0.512D+00
 Coeff-Com: -0.117D+00 0.563D+00
 Coeff-En:   0.000D+00 0.000D+00 0.000D+00 0.000D+00 0.000D+00 0.000D+00
 Coeff-En:   0.000D+00 0.240D+00 0.000D+00 0.000D+00 0.000D+00 0.000D+00
 Coeff-En:   0.861D-02 0.000D+00 0.000D+00 0.000D+00 0.668D-01 0.403D+00
 Coeff-En:   0.000D+00 0.281D+00
 Coeff:      0.244D-03-0.351D-02 0.703D-03 0.453D-02-0.680D-02 0.744D-03
 Coeff:      0.454D-02 0.134D-01 0.545D-01-0.413D-01-0.641D-02-0.199D-01
 Coeff:     -0.577D-01-0.796D-01-0.761D-02 0.125D+00 0.602D-01 0.512D+00
 Coeff:     -0.117D+00 0.563D+00
 Gap=     0.001 Goal=   None    Shift=    0.000
 RMSDP=4.48D-05 MaxDP=6.14D-03 DE=-1.81D-04 OVMax= 2.60D-02

 Cycle  25  Pass 1  IDiag  1:
 E= -123.572085826163     Delta-E=       -0.000070459351 Rises=F Damp=F
 DIIS: error= 4.34D-04 at cycle  25 NSaved=  20.
 NSaved=20 IEnMin=15 EnMin= -123.572098681485     IErMin=15 ErrMin= 1.59D-04
 ErrMax= 4.34D-04  0.00D+00 EMaxC= 1.00D-01 BMatC= 5.72D-06 BMatP= 1.63D-06
 IDIUse=3 WtCom= 9.98D-01 WtEn= 1.59D-03
 EnCoef did   100 forward-backward iterations
 Coeff-Com: -0.246D-03 0.140D-02 0.297D-02-0.515D-02-0.281D-03-0.297D-02
 Coeff-Com:  0.100D-01-0.590D-02-0.799D-02-0.116D-01 0.117D-01 0.221D-02
 Coeff-Com: -0.264D-01-0.745D-02 0.125D-01 0.215D-01 0.211D+00-0.234D+00
 Coeff-Com:  0.708D+00 0.322D+00
 Coeff-En:   0.000D+00 0.000D+00 0.000D+00 0.000D+00 0.000D+00 0.000D+00
 Coeff-En:   0.370D+00 0.120D-03 0.000D+00 0.000D+00 0.178D-02 0.260D-02
 Coeff-En:   0.000D+00 0.000D+00 0.000D+00 0.862D-03 0.211D-02 0.616D+00
 Coeff-En:   0.254D-02 0.375D-02
 Coeff:     -0.245D-03 0.140D-02 0.296D-02-0.515D-02-0.281D-03-0.297D-02
 Coeff:      0.106D-01-0.589D-02-0.797D-02-0.116D-01 0.117D-01 0.221D-02
 Coeff:     -0.263D-01-0.743D-02 0.125D-01 0.215D-01 0.210D+00-0.233D+00
 Coeff:      0.706D+00 0.321D+00
 Gap=     0.001 Goal=   None    Shift=    0.000
 RMSDP=9.06D-06 MaxDP=1.17D-03 DE=-7.05D-05 OVMax= 4.90D-03

 Cycle  26  Pass 1  IDiag  1:
 E= -123.572100677720     Delta-E=       -0.000014851557 Rises=F Damp=F
 DIIS: error= 1.64D-04 at cycle  26 NSaved=  20.
 NSaved=20 IEnMin=20 EnMin= -123.572100677720     IErMin=14 ErrMin= 1.59D-04
 ErrMax= 1.64D-04  0.00D+00 EMaxC= 1.00D-01 BMatC= 8.52D-07 BMatP= 1.63D-06
 IDIUse=3 WtCom= 9.98D-01 WtEn= 1.59D-03
 EnCoef did   100 forward-backward iterations
 Rare condition: small coef for last iteration:  0.000D+00
 Coeff-Com:  0.112D-03-0.385D-03-0.188D-02-0.378D-03 0.173D-02-0.472D-02
 Coeff-Com:  0.155D-01-0.532D-02-0.266D-01-0.155D-01 0.630D-01-0.125D-01
 Coeff-Com: -0.194D-01 0.313D-02-0.341D-02-0.436D-01 0.310D-01 0.602D-01
 Coeff-Com:  0.231D+00 0.729D+00
 Coeff-En:   0.000D+00 0.000D+00 0.000D+00 0.000D+00 0.000D+00 0.240D+00
 Coeff-En:   0.000D+00 0.000D+00 0.000D+00 0.000D+00 0.000D+00 0.000D+00
 Coeff-En:   0.000D+00 0.000D+00 0.656D-01 0.224D+00 0.708D-01 0.129D+00
 Coeff-En:   0.000D+00 0.271D+00
 Coeff:      0.112D-03-0.385D-03-0.188D-02-0.378D-03 0.173D-02-0.472D-02
 Coeff:      0.155D-01-0.532D-02-0.266D-01-0.155D-01 0.630D-01-0.125D-01
 Coeff:     -0.194D-01 0.313D-02-0.341D-02-0.436D-01 0.310D-01 0.602D-01
 Coeff:      0.231D+00 0.729D+00
 Gap=     0.001 Goal=   None    Shift=    0.000
 RMSDP=1.71D-05 MaxDP=2.36D-03 DE=-1.49D-05 OVMax= 9.50D-03

 Cycle  27  Pass 1  IDiag  1:
 E= -123.572092315756     Delta-E=        0.000008361964 Rises=F Damp=F
 DIIS: error= 3.40D-04 at cycle  27 NSaved=  20.
 NSaved=20 IEnMin=19 EnMin= -123.572100677720     IErMin=13 ErrMin= 1.59D-04
 ErrMax= 3.40D-04  0.00D+00 EMaxC= 1.00D-01 BMatC= 3.58D-06 BMatP= 8.52D-07
 IDIUse=3 WtCom= 9.98D-01 WtEn= 1.59D-03
 EnCoef did   100 forward-backward iterations
 Rare condition: small coef for last iteration:  0.000D+00
 Coeff-Com: -0.413D-03-0.204D-02-0.722D-03 0.942D-03-0.213D-02 0.138D-01
 Coeff-Com: -0.190D-02-0.226D-01-0.113D-01 0.411D-01 0.123D-02-0.996D-02
 Coeff-Com: -0.941D-03-0.832D-02-0.858D-01 0.574D-01-0.124D+00 0.169D+00
 Coeff-Com:  0.663D+00 0.323D+00
 Coeff-En:   0.000D+00 0.000D+00 0.000D+00 0.000D+00 0.239D+00 0.000D+00
 Coeff-En:   0.000D+00 0.000D+00 0.000D+00 0.000D+00 0.000D+00 0.000D+00
 Coeff-En:   0.000D+00 0.657D-01 0.228D+00 0.699D-01 0.103D+00 0.665D-01
 Coeff-En:   0.133D+00 0.942D-01
 Coeff:     -0.413D-03-0.204D-02-0.722D-03 0.942D-03-0.213D-02 0.138D-01
 Coeff:     -0.190D-02-0.226D-01-0.113D-01 0.411D-01 0.123D-02-0.996D-02
 Coeff:     -0.941D-03-0.832D-02-0.858D-01 0.574D-01-0.124D+00 0.169D+00
 Coeff:      0.663D+00 0.323D+00
 Gap=     0.001 Goal=   None    Shift=    0.000
 RMSDP=5.60D-06 MaxDP=7.22D-04 DE= 8.36D-06 OVMax= 2.51D-03

 Cycle  28  Pass 1  IDiag  1:
 E= -123.572099264499     Delta-E=       -0.000006948742 Rises=F Damp=F
 DIIS: error= 2.08D-04 at cycle  28 NSaved=  20.
 NSaved=20 IEnMin=18 EnMin= -123.572100677720     IErMin=12 ErrMin= 1.59D-04
 ErrMax= 2.08D-04  0.00D+00 EMaxC= 1.00D-01 BMatC= 1.32D-06 BMatP= 8.52D-07
 IDIUse=3 WtCom= 9.98D-01 WtEn= 1.59D-03
 EnCoef did   100 forward-backward iterations
 Coeff-Com: -0.492D-03-0.322D-03-0.563D-03-0.666D-03 0.240D-02 0.571D-02
 Coeff-Com: -0.727D-02 0.465D-02 0.243D-01-0.105D-01-0.148D-01-0.761D-02
 Coeff-Com: -0.614D-02-0.137D-01 0.664D-01-0.287D+00 0.102D+00 0.257D+00
 Coeff-Com:  0.233D+00 0.655D+00
 Coeff-En:   0.000D+00 0.000D+00 0.839D-05 0.000D+00 0.000D+00 0.000D+00
 Coeff-En:   0.000D+00 0.000D+00 0.107D-03 0.000D+00 0.000D+00 0.000D+00
 Coeff-En:   0.614D+00 0.110D-02 0.370D+00 0.324D-02 0.523D-02 0.351D-02
 Coeff-En:   0.000D+00 0.315D-02
 Coeff:     -0.491D-03-0.322D-03-0.563D-03-0.665D-03 0.240D-02 0.570D-02
 Coeff:     -0.726D-02 0.465D-02 0.243D-01-0.105D-01-0.147D-01-0.760D-02
 Coeff:     -0.516D-02-0.137D-01 0.669D-01-0.287D+00 0.101D+00 0.257D+00
 Coeff:      0.232D+00 0.653D+00
 Gap=     0.001 Goal=   None    Shift=    0.000
 RMSDP=1.05D-05 MaxDP=1.45D-03 DE=-6.95D-06 OVMax= 6.18D-03

 Cycle  29  Pass 1  IDiag  1:
 E= -123.572101836739     Delta-E=       -0.000002572240 Rises=F Damp=F
 DIIS: error= 1.25D-04 at cycle  29 NSaved=  20.
 NSaved=20 IEnMin=20 EnMin= -123.572101836739     IErMin=20 ErrMin= 1.25D-04
 ErrMax= 1.25D-04  0.00D+00 EMaxC= 1.00D-01 BMatC= 4.80D-07 BMatP= 8.52D-07
 IDIUse=3 WtCom= 9.99D-01 WtEn= 1.25D-03
 EnCoef did   100 forward-backward iterations
 Rare condition: small coef for last iteration:  0.283D-15
 Coeff-Com: -0.569D-03-0.510D-03-0.822D-03 0.127D-02 0.502D-02-0.176D-02
 Coeff-Com:  0.624D-02 0.773D-02-0.655D-02-0.825D-02-0.676D-02-0.111D-02
 Coeff-Com: -0.446D-02 0.457D-01-0.190D+00 0.456D-01 0.104D+00 0.161D+00
 Coeff-Com:  0.545D+00 0.299D+00
 Coeff-En:   0.000D+00 0.323D-01 0.000D+00 0.000D+00 0.000D+00 0.000D+00
 Coeff-En:   0.000D+00 0.000D+00 0.000D+00 0.000D+00 0.000D+00 0.836D-01
 Coeff-En:   0.292D+00 0.886D-01 0.138D+00 0.795D-01 0.669D-01 0.332D-01
 Coeff-En:   0.814D-01 0.105D+00
 Coeff:     -0.569D-03-0.510D-03-0.822D-03 0.127D-02 0.502D-02-0.176D-02
 Coeff:      0.624D-02 0.773D-02-0.655D-02-0.825D-02-0.676D-02-0.111D-02
 Coeff:     -0.446D-02 0.457D-01-0.190D+00 0.456D-01 0.104D+00 0.161D+00
 Coeff:      0.545D+00 0.299D+00
 Gap=     0.001 Goal=   None    Shift=    0.000
 RMSDP=4.73D-06 MaxDP=6.51D-04 DE=-2.57D-06 OVMax= 2.66D-03

 Cycle  30  Pass 1  IDiag  1:
 E= -123.572103266486     Delta-E=       -0.000001429748 Rises=F Damp=F
 DIIS: error= 1.87D-05 at cycle  30 NSaved=  20.
 NSaved=20 IEnMin=20 EnMin= -123.572103266486     IErMin=20 ErrMin= 1.87D-05
 ErrMax= 1.87D-05  0.00D+00 EMaxC= 1.00D-01 BMatC= 1.09D-08 BMatP= 4.80D-07
 IDIUse=1 WtCom= 1.00D+00 WtEn= 0.00D+00
 Coeff-Com:  0.950D-04 0.105D-03-0.628D-03 0.171D-02-0.153D-02 0.438D-02
 Coeff-Com:  0.637D-02-0.800D-02-0.611D-02-0.190D-02 0.309D-02 0.174D-01
 Coeff-Com:  0.248D-01-0.983D-01 0.846D-02-0.903D-02 0.608D-01 0.336D+00
 Coeff-Com:  0.324D+00 0.338D+00
 Coeff:      0.950D-04 0.105D-03-0.628D-03 0.171D-02-0.153D-02 0.438D-02
 Coeff:      0.637D-02-0.800D-02-0.611D-02-0.190D-02 0.309D-02 0.174D-01
 Coeff:      0.248D-01-0.983D-01 0.846D-02-0.903D-02 0.608D-01 0.336D+00
 Coeff:      0.324D+00 0.338D+00
 Gap=     0.001 Goal=   None    Shift=    0.000
 RMSDP=2.81D-07 MaxDP=3.46D-05 DE=-1.43D-06 OVMax= 1.24D-04

 Cycle  31  Pass 1  IDiag  1:
 E= -123.572103285702     Delta-E=       -0.000000019216 Rises=F Damp=F
 DIIS: error= 1.20D-05 at cycle  31 NSaved=  20.
 NSaved=20 IEnMin=20 EnMin= -123.572103285702     IErMin=20 ErrMin= 1.20D-05
 ErrMax= 1.20D-05  0.00D+00 EMaxC= 1.00D-01 BMatC= 4.47D-09 BMatP= 1.09D-08
 IDIUse=1 WtCom= 1.00D+00 WtEn= 0.00D+00
 Coeff-Com: -0.163D-03-0.609D-03 0.115D-02 0.728D-03 0.231D-02 0.987D-03
 Coeff-Com: -0.223D-02-0.190D-02-0.331D-02 0.154D-02 0.328D-02 0.760D-02
 Coeff-Com: -0.287D-01-0.704D-02-0.235D-01 0.567D-02 0.111D+00 0.213D+00
 Coeff-Com:  0.270D+00 0.450D+00
 Coeff:     -0.163D-03-0.609D-03 0.115D-02 0.728D-03 0.231D-02 0.987D-03
 Coeff:     -0.223D-02-0.190D-02-0.331D-02 0.154D-02 0.328D-02 0.760D-02
 Coeff:     -0.287D-01-0.704D-02-0.235D-01 0.567D-02 0.111D+00 0.213D+00
 Coeff:      0.270D+00 0.450D+00
 Gap=     0.001 Goal=   None    Shift=    0.000
 RMSDP=2.81D-07 MaxDP=3.80D-05 DE=-1.92D-08 OVMax= 1.43D-04

 Cycle  32  Pass 1  IDiag  1:
 E= -123.572103297564     Delta-E=       -0.000000011862 Rises=F Damp=F
 DIIS: error= 4.24D-06 at cycle  32 NSaved=  20.
 NSaved=20 IEnMin=20 EnMin= -123.572103297564     IErMin=20 ErrMin= 4.24D-06
 ErrMax= 4.24D-06  0.00D+00 EMaxC= 1.00D-01 BMatC= 5.56D-10 BMatP= 4.47D-09
 IDIUse=1 WtCom= 1.00D+00 WtEn= 0.00D+00
 Coeff-Com: -0.126D-03 0.961D-05 0.213D-03 0.139D-02 0.910D-03 0.571D-03
 Coeff-Com: -0.291D-02-0.171D-02-0.689D-03 0.732D-03 0.596D-02-0.367D-03
 Coeff-Com: -0.323D-02-0.166D-01-0.106D-01-0.563D-02 0.368D-01 0.685D-01
 Coeff-Com:  0.254D+00 0.673D+00
 Coeff:     -0.126D-03 0.961D-05 0.213D-03 0.139D-02 0.910D-03 0.571D-03
 Coeff:     -0.291D-02-0.171D-02-0.689D-03 0.732D-03 0.596D-02-0.367D-03
 Coeff:     -0.323D-02-0.166D-01-0.106D-01-0.563D-02 0.368D-01 0.685D-01
 Coeff:      0.254D+00 0.673D+00
 Gap=     0.001 Goal=   None    Shift=    0.000
 RMSDP=2.22D-07 MaxDP=2.97D-05 DE=-1.19D-08 OVMax= 1.31D-04

 Cycle  33  Pass 1  IDiag  1:
 E= -123.572103298548     Delta-E=       -0.000000000984 Rises=F Damp=F
 DIIS: error= 2.78D-06 at cycle  33 NSaved=  20.
 NSaved=20 IEnMin=20 EnMin= -123.572103298548     IErMin=20 ErrMin= 2.78D-06
 ErrMax= 2.78D-06  0.00D+00 EMaxC= 1.00D-01 BMatC= 2.36D-10 BMatP= 5.56D-10
 IDIUse=1 WtCom= 1.00D+00 WtEn= 0.00D+00
 Coeff-Com:  0.206D-03-0.180D-03 0.746D-03-0.544D-04-0.136D-03-0.114D-02
 Coeff-Com: -0.556D-03 0.188D-03 0.310D-03 0.347D-02 0.469D-02-0.190D-02
 Coeff-Com: -0.674D-02-0.770D-02-0.244D-01-0.444D-02 0.106D-01 0.108D+00
 Coeff-Com:  0.447D+00 0.472D+00
 Coeff:      0.206D-03-0.180D-03 0.746D-03-0.544D-04-0.136D-03-0.114D-02
 Coeff:     -0.556D-03 0.188D-03 0.310D-03 0.347D-02 0.469D-02-0.190D-02
 Coeff:     -0.674D-02-0.770D-02-0.244D-01-0.444D-02 0.106D-01 0.108D+00
 Coeff:      0.447D+00 0.472D+00
 Gap=     0.001 Goal=   None    Shift=    0.000
 RMSDP=7.96D-08 MaxDP=1.07D-05 DE=-9.84D-10 OVMax= 4.78D-05

 Cycle  34  Pass 1  IDiag  1:
 E= -123.572103299265     Delta-E=       -0.000000000717 Rises=F Damp=F
 DIIS: error= 2.16D-07 at cycle  34 NSaved=  20.
 NSaved=20 IEnMin=20 EnMin= -123.572103299265     IErMin=20 ErrMin= 2.16D-07
 ErrMax= 2.16D-07  0.00D+00 EMaxC= 1.00D-01 BMatC= 2.19D-12 BMatP= 2.36D-10
 IDIUse=1 WtCom= 1.00D+00 WtEn= 0.00D+00
 Coeff-Com:  0.121D-03-0.168D-03 0.116D-03-0.417D-03 0.420D-04 0.453D-04
 Coeff-Com:  0.576D-03-0.307D-03-0.225D-03 0.239D-02 0.141D-02 0.400D-02
 Coeff-Com: -0.132D-02-0.181D-01-0.420D-01-0.424D-01-0.553D-01 0.515D-01
 Coeff-Com:  0.356D+00 0.744D+00
 Coeff:      0.121D-03-0.168D-03 0.116D-03-0.417D-03 0.420D-04 0.453D-04
 Coeff:      0.576D-03-0.307D-03-0.225D-03 0.239D-02 0.141D-02 0.400D-02
 Coeff:     -0.132D-02-0.181D-01-0.420D-01-0.424D-01-0.553D-01 0.515D-01
 Coeff:      0.356D+00 0.744D+00
 Gap=     0.001 Goal=   None    Shift=    0.000
 RMSDP=6.80D-09 MaxDP=4.00D-07 DE=-7.17D-10 OVMax= 2.33D-06

 SCF Done:  E(ROHF) =  -123.572103299     A.U. after   34 cycles
            NFock= 34  Conv=0.68D-08     -V/T= 2.6607
 <Sx>= 0.0000 <Sy>= 0.0000 <Sz>= 1.5000 <S**2>= 3.7500 S= 1.5000
 <L.S>=  0.00000000000    
 KE= 7.440953726374D+01 PE=-3.024817710682D+02 EE= 1.002667128178D+02
 Annihilation of the first spin contaminant:
 S**2 before annihilation     3.7500,   after     3.7500
 Leave Link  502 at Mon Feb 12 21:42:30 2018, MaxMem= 10737418240 cpu:            1712.9 elap:              65.6
 (Enter /home1/apps/gaussian/16rA.03/g16/l801.exe)
 Windowed orbitals will be sorted by symmetry type.
 GenMOA:  NOpAll=  4 NOp2=4 NOpUse=  4 JSym2X=1
 FoFJK:  IHMeth= 1 ICntrl=       0 DoSepK=F KAlg= 0 I1Cent=           0 FoldK=F
 IRaf=         0 NMat=       1 IRICut=       1 DoRegI=T DoRafI=F ISym2E= 1 IDoP0=0 IntGTp=1.
 FoFCou: FMM=F IPFlag=           8 FMFlag=      100000 FMFlg1=           0
         NFxFlg=           0 DoJE=F BraDBF=F KetDBF=F FulRan=T
         wScrn=  0.000000 ICntrl=         0 IOpCl=  1 I1Cent=           0 NGrid=           0
         NMat0=    1 NMatS0=      1 NMatT0=    0 NMatD0=    1 NMtDS0=    0 NMtDT0=    0
 Petite list used in FoFCou.
 <Sx>= 0.0000 <Sy>= 0.0000 <Sz>= 1.5000 <S**2>= 3.7500 S= 1.5000
 Range of M.O.s used for correlation:     1   306
 NBasis=   310 NAE=    10 NBE=     7 NFC=     0 NFV=     0
 NROrb=    306 NOA=    10 NOB=     7 NVA=   296 NVB=   299

 **** Warning!!: The largest alpha MO coefficient is  0.20927659D+03


 **** Warning!!: The largest beta MO coefficient is  0.20919870D+03

 Singles contribution to E2=   -0.6986837849D-02
 Leave Link  801 at Mon Feb 12 21:42:43 2018, MaxMem= 10737418240 cpu:             415.9 elap:              13.0
 (Enter /home1/apps/gaussian/16rA.03/g16/l804.exe)
 Open-shell transformation, MDV= 10737418240 ITran=4 ISComp=2.
 Unit  1 TFree=       2895677 TCopy=       2133648.
 Semi-Direct transformation.
 ModeAB=           2 MOrb=            10 LenV=   10734505424
 LASXX=     35609842 LTotXX=    35609842 LenRXX=    35609842
 LTotAB=    36064058 MaxLAS=   247869180 LenRXY=   247869180
 NonZer=   252202140 LenScr=   379787264 LnRSAI=           0
 LnScr1=           0 LExtra=    11342631 Total=    674608917
 MaxDsk= 67108864000 SrtSym=           F ITran=            4
 DoSDTr:  NPSUse= 32
 JobTyp=1 Pass  1:  I=   1 to  10.
 (rs|ai) integrals will be sorted in core.
 Complete sort for first half transformation.
 First half transformation complete.
 Begin second half transformation for I=  10.
 Begin second half transformation for I=  10.
 Complete sort for second half transformation.
 Second half transformation complete.
 ModeAB=           2 MOrb=             7 LenV=   10734505424
 LASXX=     25094512 LTotXX=    25094512 LenRXX=   173508426
 LTotAB=    23762361 MaxLAS=   173508426 LenRXY=    23762361
 NonZer=   176541498 LenScr=   265850880 LnRSAI=           0
 LnScr1=           0 LExtra=   294821653 Total=    757943320
 MaxDsk= 67108864000 SrtSym=           F ITran=            4
 DoSDTr:  NPSUse= 32
 JobTyp=2 Pass  1:  I=   1 to   7.
 (rs|ai) integrals will be sorted in core.
 Complete sort for first half transformation.
 First half transformation complete.
 Complete sort for second half transformation.
 Second half transformation complete.
 Spin components of T(2) and E(2):
     alpha-alpha T2 =       0.2748237048D-01 E2=     -0.1626952421D+00
     alpha-beta  T2 =       0.8786035830D-01 E2=     -0.5466914097D+00
     beta-beta   T2 =       0.9779795661D-02 E2=     -0.6627178552D-01
 ANorm=    0.1061878635D+01
 E2 =    -0.7826452752D+00 EUMP2 =    -0.12435474857447D+03
 (S**2,0)=  0.37500D+01           (S**2,1)=  0.37500D+01
 E(PUHF)=      -0.12357210330D+03        E(PMP2)=      -0.12435474857D+03
 Leave Link  804 at Mon Feb 12 21:50:47 2018, MaxMem= 10737418240 cpu:           15496.9 elap:             484.4
 (Enter /home1/apps/gaussian/16rA.03/g16/l913.exe)
 CIDS:  MDV= 10737418240.
 IFCWin=0 IBDFC=1 NFBD=     0     0 NFCmp=     0     0 NFFFC=     0     0
 Using original routines for 1st iteration.
 Using DD4UQ or CC4UQ for 2nd and later iterations.
 Keep R2 and R3 ints in memory in symmetry-blocked form, NReq=1456567502.
 FoFCou: FMM=F IPFlag=           8 FMFlag=           0 FMFlg1=           0
         NFxFlg=           0 DoJE=F BraDBF=F KetDBF=F FulRan=T
         wScrn=  0.000000 ICntrl=       600 IOpCl=  0 I1Cent=           0 NGrid=           0
         NMat0=    1 NMatS0=  48205 NMatT0=    0 NMatD0=    1 NMtDS0=    0 NMtDT0=    0
 Petite list used in FoFCou.
 CIDS: In Core Option IDoMem=           1.
 CCSD(T)
 =======
 Iterations= 100 Convergence= 0.100D-06
 Produce multiple copies of IABC intergrals
 Iteration Nr.   1
 **********************
 DD1Dir will call FoFMem   1 times, MxPair=       206
 NAB=    70 NAA=    45 NBB=    21.
 DD1Dir will call FoFMem   1 times, MxPair=       206
 NAB=    70 NAA=    45 NBB=    21.
 MP4(R+Q)= -0.46368231D-01
 Maximum subspace dimension=  5
 A-vector RMS=  2.9993421D-04 Max=  3.2951600D-03 conv= 1.00D-05.
 RLE energy=       -0.7761151211
 E3=        0.52705603D-01        EROMP3=      -0.12430204297D+03
 E4(SDQ)=  -0.36346738D-01        ROMP4(SDQ)=  -0.12433838971D+03
 VARIATIONAL ENERGIES WITH THE FIRST-ORDER WAVEFUNCTION:
 DE(Corr)= -0.77605906     E(Corr)=     -124.34816236    
 NORM(A)=   0.10588875D+01
 Iteration Nr.   2
 **********************
 DD1Dir will call FoFMem   1 times, MxPair=       206
 NAB=    70 NAA=    45 NBB=    21.
 A-vector RMS=  3.5672122D-03 Max=  3.1952909D-02 conv= 1.00D-05.
 RLE energy=       -0.7648182562
 DE(Corr)= -0.72151321     E(CORR)=     -124.29361651     Delta= 5.45D-02
 NORM(A)=   0.10572382D+01
 Iteration Nr.   3
 **********************
 DD1Dir will call FoFMem   1 times, MxPair=       206
 NAB=    70 NAA=    45 NBB=    21.
 A-vector RMS=  2.7014853D-03 Max=  2.6630814D-02 conv= 1.00D-05.
 RLE energy=       -0.7632530071
 DE(Corr)= -0.72885124     E(CORR)=     -124.30095454     Delta=-7.34D-03
 NORM(A)=   0.10604527D+01
 Iteration Nr.   4
 **********************
 DD1Dir will call FoFMem   1 times, MxPair=       206
 NAB=    70 NAA=    45 NBB=    21.
 A-vector RMS=  2.5443297D-03 Max=  2.6651165D-02 conv= 1.00D-05.
 RLE energy=       -0.7398275048
 DE(Corr)= -0.73442499     E(CORR)=     -124.30652829     Delta=-5.57D-03
 NORM(A)=   0.11166550D+01
 Iteration Nr.   5
 **********************
 DD1Dir will call FoFMem   1 times, MxPair=       206
 NAB=    70 NAA=    45 NBB=    21.
 A-vector RMS=  2.5078691D-03 Max=  2.6188594D-02 conv= 1.00D-05.
 RLE energy=       -0.7599021613
 DE(Corr)= -0.77763656     E(CORR)=     -124.34973986     Delta=-4.32D-02
 NORM(A)=   0.10868857D+01
 Iteration Nr.   6
 **********************
 DD1Dir will call FoFMem   1 times, MxPair=       206
 NAB=    70 NAA=    45 NBB=    21.
 A-vector RMS=  1.2152308D-03 Max=  1.9909047D-02 conv= 1.00D-05.
 RLE energy=       -0.7571149532
 DE(Corr)= -0.75030212     E(CORR)=     -124.32240542     Delta= 2.73D-02
 NORM(A)=   0.11197895D+01
 Iteration Nr.   7
 **********************
 DD1Dir will call FoFMem   1 times, MxPair=       206
 NAB=    70 NAA=    45 NBB=    21.
 A-vector RMS=  5.7728885D-04 Max=  1.0250852D-02 conv= 1.00D-05.
 RLE energy=       -0.7582101391
 DE(Corr)= -0.75753593     E(CORR)=     -124.32963922     Delta=-7.23D-03
 NORM(A)=   0.11582305D+01
 Iteration Nr.   8
 **********************
 DD1Dir will call FoFMem   1 times, MxPair=       206
 NAB=    70 NAA=    45 NBB=    21.
 A-vector RMS=  8.7498177D-04 Max=  2.0288890D-02 conv= 1.00D-05.
 RLE energy=       -0.7607290556
 DE(Corr)= -0.75953846     E(CORR)=     -124.33164176     Delta=-2.00D-03
 NORM(A)=   0.12376067D+01
 Iteration Nr.   9
 **********************
 DD1Dir will call FoFMem   1 times, MxPair=       206
 NAB=    70 NAA=    45 NBB=    21.
 A-vector RMS=  8.4388340D-04 Max=  1.4624896D-02 conv= 1.00D-05.
 RLE energy=       -0.7633631669
 DE(Corr)= -0.75946542     E(CORR)=     -124.33156872     Delta= 7.30D-05
 NORM(A)=   0.13610779D+01
 Iteration Nr.  10
 **********************
 DD1Dir will call FoFMem   1 times, MxPair=       206
 NAB=    70 NAA=    45 NBB=    21.
 A-vector RMS=  8.9187918D-04 Max=  1.4168128D-02 conv= 1.00D-05.
 RLE energy=       -0.7605793302
 DE(Corr)= -0.76338047     E(CORR)=     -124.33548377     Delta=-3.92D-03
 NORM(A)=   0.13441949D+01
 Iteration Nr.  11
 **********************
 DD1Dir will call FoFMem   1 times, MxPair=       206
 NAB=    70 NAA=    45 NBB=    21.
 A-vector RMS=  4.6018349D-04 Max=  7.6686758D-03 conv= 1.00D-05.
 RLE energy=       -0.7626084588
 DE(Corr)= -0.76225423     E(CORR)=     -124.33435753     Delta= 1.13D-03
 NORM(A)=   0.13543090D+01
 Iteration Nr.  12
 **********************
 DD1Dir will call FoFMem   1 times, MxPair=       206
 NAB=    70 NAA=    45 NBB=    21.
 A-vector RMS=  4.0994298D-04 Max=  5.9629264D-03 conv= 1.00D-05.
 RLE energy=       -0.7618270295
 DE(Corr)= -0.76159665     E(CORR)=     -124.33369995     Delta= 6.58D-04
 NORM(A)=   0.13972885D+01
 Iteration Nr.  13
 **********************
 DD1Dir will call FoFMem   1 times, MxPair=       206
 NAB=    70 NAA=    45 NBB=    21.
 A-vector RMS=  4.3342942D-04 Max=  8.9375730D-03 conv= 1.00D-05.
 RLE energy=       -0.7622603743
 DE(Corr)= -0.76300788     E(CORR)=     -124.33511118     Delta=-1.41D-03
 NORM(A)=   0.13925718D+01
 Iteration Nr.  14
 **********************
 DD1Dir will call FoFMem   1 times, MxPair=       206
 NAB=    70 NAA=    45 NBB=    21.
 A-vector RMS=  3.3585014D-04 Max=  4.9972027D-03 conv= 1.00D-05.
 RLE energy=       -0.7634950633
 DE(Corr)= -0.76248277     E(CORR)=     -124.33458607     Delta= 5.25D-04
 NORM(A)=   0.14253825D+01
 Iteration Nr.  15
 **********************
 DD1Dir will call FoFMem   1 times, MxPair=       206
 NAB=    70 NAA=    45 NBB=    21.
 A-vector RMS=  2.9171526D-04 Max=  5.7771309D-03 conv= 1.00D-05.
 RLE energy=       -0.7631055629
 DE(Corr)= -0.76282827     E(CORR)=     -124.33493157     Delta=-3.46D-04
 NORM(A)=   0.14413468D+01
 Iteration Nr.  16
 **********************
 DD1Dir will call FoFMem   1 times, MxPair=       206
 NAB=    70 NAA=    45 NBB=    21.
 A-vector RMS=  2.4012810D-04 Max=  2.9492291D-03 conv= 1.00D-05.
 RLE energy=       -0.7634228026
 DE(Corr)= -0.76380899     E(CORR)=     -124.33591229     Delta=-9.81D-04
 NORM(A)=   0.14319363D+01
 Iteration Nr.  17
 **********************
 DD1Dir will call FoFMem   1 times, MxPair=       206
 NAB=    70 NAA=    45 NBB=    21.
 A-vector RMS=  1.3375009D-04 Max=  2.2919372D-03 conv= 1.00D-05.
 RLE energy=       -0.7636733931
 DE(Corr)= -0.76340642     E(CORR)=     -124.33550972     Delta= 4.03D-04
 NORM(A)=   0.14390347D+01
 Iteration Nr.  18
 **********************
 DD1Dir will call FoFMem   1 times, MxPair=       206
 NAB=    70 NAA=    45 NBB=    21.
 A-vector RMS=  8.7529645D-05 Max=  1.1108944D-03 conv= 1.00D-05.
 RLE energy=       -0.7636072538
 DE(Corr)= -0.76360571     E(CORR)=     -124.33570901     Delta=-1.99D-04
 NORM(A)=   0.14380364D+01
 Iteration Nr.  19
 **********************
 DD1Dir will call FoFMem   1 times, MxPair=       206
 NAB=    70 NAA=    45 NBB=    21.
 A-vector RMS=  5.6118387D-05 Max=  1.0062017D-03 conv= 1.00D-05.
 RLE energy=       -0.7636983315
 DE(Corr)= -0.76373729     E(CORR)=     -124.33584059     Delta=-1.32D-04
 NORM(A)=   0.14376772D+01
 Iteration Nr.  20
 **********************
 DD1Dir will call FoFMem   1 times, MxPair=       206
 NAB=    70 NAA=    45 NBB=    21.
 A-vector RMS=  3.3834185D-05 Max=  6.6326201D-04 conv= 1.00D-05.
 RLE energy=       -0.7637043408
 DE(Corr)= -0.76369260     E(CORR)=     -124.33579590     Delta= 4.47D-05
 NORM(A)=   0.14375057D+01
 Iteration Nr.  21
 **********************
 DD1Dir will call FoFMem   1 times, MxPair=       206
 NAB=    70 NAA=    45 NBB=    21.
 A-vector RMS=  1.8142442D-05 Max=  3.3536045D-04 conv= 1.00D-05.
 RLE energy=       -0.7636887695
 DE(Corr)= -0.76371031     E(CORR)=     -124.33581361     Delta=-1.77D-05
 NORM(A)=   0.14370411D+01
 Iteration Nr.  22
 **********************
 DD1Dir will call FoFMem   1 times, MxPair=       206
 NAB=    70 NAA=    45 NBB=    21.
 A-vector RMS=  1.1185817D-05 Max=  1.4093994D-04 conv= 1.00D-05.
 RLE energy=       -0.7636995517
 DE(Corr)= -0.76370809     E(CORR)=     -124.33581139     Delta= 2.22D-06
 NORM(A)=   0.14368517D+01
 Iteration Nr.  23
 **********************
 DD1Dir will call FoFMem   1 times, MxPair=       206
 NAB=    70 NAA=    45 NBB=    21.
 A-vector RMS=  1.0005579D-05 Max=  1.8803901D-04 conv= 1.00D-05.
 RLE energy=       -0.7636925980
 DE(Corr)= -0.76368948     E(CORR)=     -124.33579278     Delta= 1.86D-05
 NORM(A)=   0.14369283D+01
 Iteration Nr.  24
 **********************
 DD1Dir will call FoFMem   1 times, MxPair=       206
 NAB=    70 NAA=    45 NBB=    21.
 A-vector RMS=  4.7255331D-06 Max=  7.1229135D-05 conv= 1.00D-05.
 RLE energy=       -0.7636910778
 DE(Corr)= -0.76369732     E(CORR)=     -124.33580062     Delta=-7.84D-06
 NORM(A)=   0.14369854D+01
 Iteration Nr.  25
 **********************
 DD1Dir will call FoFMem   1 times, MxPair=       206
 NAB=    70 NAA=    45 NBB=    21.
 A-vector RMS=  3.6558735D-06 Max=  5.8861849D-05 conv= 1.00D-05.
 RLE energy=       -0.7636967380
 DE(Corr)= -0.76369717     E(CORR)=     -124.33580047     Delta= 1.47D-07
 NORM(A)=   0.14371274D+01
 Iteration Nr.  26
 **********************
 DD1Dir will call FoFMem   1 times, MxPair=       206
 NAB=    70 NAA=    45 NBB=    21.
 A-vector RMS=  4.4656846D-06 Max=  9.4298435D-05 conv= 1.00D-05.
 RLE energy=       -0.7636954805
 DE(Corr)= -0.76369484     E(CORR)=     -124.33579814     Delta= 2.33D-06
 NORM(A)=   0.14372692D+01
 Iteration Nr.  27
 **********************
 DD1Dir will call FoFMem   1 times, MxPair=       206
 NAB=    70 NAA=    45 NBB=    21.
 A-vector RMS=  2.8434968D-06 Max=  4.2854073D-05 conv= 1.00D-05.
 RLE energy=       -0.7636988400
 DE(Corr)= -0.76369969     E(CORR)=     -124.33580299     Delta=-4.85D-06
 NORM(A)=   0.14374886D+01
 Iteration Nr.  28
 **********************
 DD1Dir will call FoFMem   1 times, MxPair=       206
 NAB=    70 NAA=    45 NBB=    21.
 A-vector RMS=  2.2042369D-06 Max=  4.5634767D-05 conv= 1.00D-05.
 RLE energy=       -0.7637032934
 DE(Corr)= -0.76370160     E(CORR)=     -124.33580490     Delta=-1.91D-06
 NORM(A)=   0.14376601D+01
 Iteration Nr.  29
 **********************
 DD1Dir will call FoFMem   1 times, MxPair=       206
 NAB=    70 NAA=    45 NBB=    21.
 A-vector RMS=  2.0640130D-06 Max=  4.4745927D-05 conv= 1.00D-05.
 RLE energy=       -0.7637045133
 DE(Corr)= -0.76370330     E(CORR)=     -124.33580660     Delta=-1.70D-06
 NORM(A)=   0.14378355D+01
 Iteration Nr.  30
 **********************
 DD1Dir will call FoFMem   1 times, MxPair=       206
 NAB=    70 NAA=    45 NBB=    21.
 A-vector RMS=  1.8321645D-06 Max=  2.6805770D-05 conv= 1.00D-05.
 RLE energy=       -0.7637083668
 DE(Corr)= -0.76370795     E(CORR)=     -124.33581125     Delta=-4.65D-06
 NORM(A)=   0.14379497D+01
 Iteration Nr.  31
 **********************
 DD1Dir will call FoFMem   1 times, MxPair=       206
 NAB=    70 NAA=    45 NBB=    21.
 A-vector RMS=  1.2181871D-06 Max=  1.8767441D-05 conv= 1.00D-05.
 RLE energy=       -0.7637103174
 DE(Corr)= -0.76370851     E(CORR)=     -124.33581181     Delta=-5.59D-07
 NORM(A)=   0.14380191D+01
 Iteration Nr.  32
 **********************
 DD1Dir will call FoFMem   1 times, MxPair=       206
 NAB=    70 NAA=    45 NBB=    21.
 A-vector RMS=  1.0912256D-06 Max=  1.9457081D-05 conv= 1.00D-05.
 RLE energy=       -0.7637102766
 DE(Corr)= -0.76370939     E(CORR)=     -124.33581268     Delta=-8.72D-07
 NORM(A)=   0.14380826D+01
 Iteration Nr.  33
 **********************
 DD1Dir will call FoFMem   1 times, MxPair=       206
 NAB=    70 NAA=    45 NBB=    21.
 A-vector RMS=  1.0678003D-06 Max=  2.2357443D-05 conv= 1.00D-05.
 RLE energy=       -0.7637114475
 DE(Corr)= -0.76371137     E(CORR)=     -124.33581467     Delta=-1.99D-06
 NORM(A)=   0.14381094D+01
 Iteration Nr.  34
 **********************
 DD1Dir will call FoFMem   1 times, MxPair=       206
 NAB=    70 NAA=    45 NBB=    21.
 A-vector RMS=  5.7177984D-07 Max=  1.0489248D-05 conv= 1.00D-05.
 RLE energy=       -0.7637125168
 DE(Corr)= -0.76371115     E(CORR)=     -124.33581444     Delta= 2.26D-07
 NORM(A)=   0.14381674D+01
 Iteration Nr.  35
 **********************
 DD1Dir will call FoFMem   1 times, MxPair=       206
 NAB=    70 NAA=    45 NBB=    21.
 A-vector RMS=  5.4888105D-07 Max=  1.1675829D-05 conv= 1.00D-05.
 RLE energy=       -0.7637126823
 DE(Corr)= -0.76371201     E(CORR)=     -124.33581531     Delta=-8.65D-07
 NORM(A)=   0.14382127D+01
 Iteration Nr.  36
 **********************
 DD1Dir will call FoFMem   1 times, MxPair=       206
 NAB=    70 NAA=    45 NBB=    21.
 A-vector RMS=  5.6386295D-07 Max=  1.0061940D-05 conv= 1.00D-05.
 RLE energy=       -0.7637132061
 DE(Corr)= -0.76371305     E(CORR)=     -124.33581635     Delta=-1.04D-06
 NORM(A)=   0.14382186D+01
 Iteration Nr.  37
 **********************
 DD1Dir will call FoFMem   1 times, MxPair=       206
 NAB=    70 NAA=    45 NBB=    21.
 A-vector RMS=  2.9671495D-07 Max=  5.0169508D-06 conv= 1.00D-05.
 RLE energy=       -0.7637133541
 DE(Corr)= -0.76371276     E(CORR)=     -124.33581606     Delta= 2.89D-07
 NORM(A)=   0.14382385D+01
 Iteration Nr.  38
 **********************
 DD1Dir will call FoFMem   1 times, MxPair=       206
 NAB=    70 NAA=    45 NBB=    21.
 A-vector RMS=  2.7048305D-07 Max=  4.5377888D-06 conv= 1.00D-05.
 RLE energy=       -0.7637130678
 DE(Corr)= -0.76371315     E(CORR)=     -124.33581644     Delta=-3.88D-07
 NORM(A)=   0.14382417D+01
 Iteration Nr.  39
 **********************
 DD1Dir will call FoFMem   1 times, MxPair=       206
 NAB=    70 NAA=    45 NBB=    21.
 A-vector RMS=  3.3427325D-07 Max=  7.2459588D-06 conv= 1.00D-05.
 RLE energy=       -0.7637133016
 DE(Corr)= -0.76371341     E(CORR)=     -124.33581671     Delta=-2.65D-07
 NORM(A)=   0.14382327D+01
 Iteration Nr.  40
 **********************
 DD1Dir will call FoFMem   1 times, MxPair=       206
 NAB=    70 NAA=    45 NBB=    21.
 A-vector RMS=  1.9079623D-07 Max=  4.2233858D-06 conv= 1.00D-05.
 RLE energy=       -0.7637132287
 DE(Corr)= -0.76371299     E(CORR)=     -124.33581629     Delta= 4.19D-07
 NORM(A)=   0.14382361D+01
 Iteration Nr.  41
 **********************
 DD1Dir will call FoFMem   1 times, MxPair=       206
 NAB=    70 NAA=    45 NBB=    21.
 A-vector RMS=  1.3236209D-07 Max=  1.7715263D-06 conv= 1.00D-05.
 RLE energy=       -0.7637130493
 DE(Corr)= -0.76371318     E(CORR)=     -124.33581648     Delta=-1.88D-07
 NORM(A)=   0.14382290D+01
 Iteration Nr.  42
 **********************
 DD1Dir will call FoFMem   1 times, MxPair=       206
 NAB=    70 NAA=    45 NBB=    21.
 A-vector RMS=  1.3921332D-07 Max=  3.6397936D-06 conv= 1.00D-05.
 RLE energy=       -0.7637131262
 DE(Corr)= -0.76371315     E(CORR)=     -124.33581645     Delta= 2.58D-08
 NORM(A)=   0.14382238D+01
 CI/CC converged in   42 iterations to DelEn= 2.58D-08 Conv= 1.00D-07 ErrA1= 1.39D-07 Conv= 1.00D-05
 Wavefunction amplitudes converged. E(Corr)=     -124.33581645    
 Dominant configurations:
 ***********************
 Spin Case        I    J    A    B          Value
    BB            5         8           -0.443797D+00
    BB            5        12           -0.358187D+00
    BB            5        21            0.229759D+00
    BB            5        22            0.120748D+00
    BB            7         8            0.463903D+00
    BB            7        12            0.372714D+00
    BB            7        21           -0.222759D+00
    BB            7        22           -0.134088D+00
 Largest amplitude= 4.64D-01
 Time for triples=    32878.34 seconds.
 T4(CCSD)= -0.55719754D-01
 T5(CCSD)=  0.29180876D-01
 CCSD(T)= -0.12436235533D+03
 Discarding MO integrals.
 Leave Link  913 at Mon Feb 12 22:22:55 2018, MaxMem= 10737418240 cpu:           61658.1 elap:            1927.3
 (Enter /home1/apps/gaussian/16rA.03/g16/l601.exe)
 Copying SCF densities to generalized density rwf, IOpCl= 0 IROHF=1.

 **********************************************************************

            Population analysis using the SCF density.

 **********************************************************************

 Orbital symmetries:
       Occupied  (SG) (SG) (PI) (PI) (?A) (SG) (SG) (PI) (PI) (?A)
       Virtual   (SG) (PI) (PI) (SG) (SG) (SG) (DLTA) (DLTA) (PI)
                 (PI) (PI) (PI) (SG) (SG) (SG) (SG) (PI) (PI) (DLTA)
                 (DLTA) (PI) (PI) (PI) (PI) (SG) (SG) (SG) (DLTA)
                 (DLTA) (PHI) (PHI) (SG) (PI) (PI) (?A) (?A) (SG)
                 (PI) (PI) (PI) (PI) (SG) (SG) (DLTA) (DLTA) (PI)
                 (PI) (SG) (PI) (PI) (SG) (PI) (PI) (DLTA) (DLTA)
                 (PHI) (PHI) (SG) (DLTA) (DLTA) (PI) (PI) (SG)
                 (PHI) (PHI) (SG) (DLTA) (DLTA) (?B) (?B) (PHI)
                 (PHI) (SG) (PI) (PI) (SG) (SG) (PI) (PI) (PI)
                 (PI) (DLTA) (DLTA) (DLTA) (DLTA) (SG) (PI) (PI)
                 (PI) (PI) (SG) (SG) (DLTA) (DLTA) (PI) (PI) (SG)
                 (PHI) (PHI) (DLTA) (DLTA) (PI) (PI) (?C) (?C)
                 (?C) (?D) (?D) (?D) (?D) (DLTA) (DLTA) (?D) (?D)
                 (?E) (?E) (?D) (?D) (?E) (PI) (PI) (DLTA) (DLTA)
                 (PI) (PI) (SG) (SG) (SG) (PHI) (PHI) (SG) (DLTA)
                 (DLTA) (PI) (PI) (SG) (DLTA) (DLTA) (PI) (PI)
                 (SG) (PI) (PI) (DLTA) (DLTA) (SG) (PI) (PI) (SG)
                 (?F) (?F) (DLTA) (DLTA) (?F) (?F) (SG) (PI) (PI)
                 (SG) (?F) (?F) (?G) (?G) (DLTA) (DLTA) (?F) (?F)
                 (?G) (?H) (?H) (?I) (?I) (?I) (?I) (DLTA) (DLTA)
                 (?I) (?I) (?H) (DLTA) (DLTA) (PI) (PI) (SG) (SG)
                 (SG) (PI) (PI) (SG) (DLTA) (DLTA) (PI) (PI) (SG)
                 (DLTA) (?F) (?F) (DLTA) (?F) (?F) (SG) (?F) (?F)
                 (?J) (?J) (DLTA) (DLTA) (?F) (?F) (?J) (SG) (?K)
                 (?K) (?L) (?L) (DLTA) (?L) (?L) (DLTA) (?L) (?L)
                 (?K) (DLTA) (DLTA) (PI) (PI) (SG) (PI) (PI) (SG)
                 (SG) (DLTA) (DLTA) (PI) (PI) (SG) (PI) (PI) (SG)
                 (SG) (DLTA) (DLTA) (PI) (PI) (SG) (PI) (PI) (SG)
                 (SG) (SG) (PI) (PI) (SG) (DLTA) (DLTA) (PI) (PI)
                 (SG) (SG) (PI) (PI) (SG) (SG) (PI) (PI) (SG) (DLTA)
                 (DLTA) (PI) (PI) (SG) (SG) (PI) (PI) (SG) (SG)
                 (PI) (PI) (SG) (SG) (PI) (PI) (SG) (SG) (PI) (PI)
                 (SG) (SG) (PI) (PI) (SG) (SG) (SG) (SG) (SG) (SG)
 Unable to determine electronic state:  an orbital has unidentified symmetry.
 Alpha  occ. eigenvalues --   -4.27895  -2.75971  -2.75861  -2.75861  -0.48876
 Alpha  occ. eigenvalues --   -0.48876  -0.48857  -0.43871  -0.42698  -0.30970
 Alpha virt. eigenvalues --   -0.01295   0.02042   0.02042   0.03227   0.03264
 Alpha virt. eigenvalues --    0.06191   0.06639   0.06654   0.06870   0.06870
 Alpha virt. eigenvalues --    0.07619   0.07619   0.10441   0.14917   0.17377
 Alpha virt. eigenvalues --    0.21146   0.21570   0.21570   0.21819   0.21990
[...]
  92       47D+2        0.00000   0.00000   0.00000   0.00000
  93       47D-2        0.00000   0.00000   0.00000  -0.00000
  94       48D 0        0.00016   0.00008   0.00008   0.00000
  95       48D+1        0.00009   0.00009   0.00000   0.00009
  96       48D-1        0.00009   0.00009   0.00000   0.00009
  97       48D+2        0.00009   0.00009   0.00000   0.00009
  98       48D-2        0.00018   0.00009   0.00009  -0.00000
  99       49D 0        0.00411   0.00206   0.00206   0.00000
 100       49D+1        0.00232   0.00232   0.00000   0.00232
 101       49D-1        0.00232   0.00232   0.00000   0.00232
 102       49D+2        0.00233   0.00233   0.00000   0.00233
 103       49D-2        0.00440   0.00220   0.00220  -0.00000
 104       50D 0        0.03442   0.01721   0.01721   0.00000
 105       50D+1        0.01944   0.01944   0.00000   0.01944
 106       50D-1        0.01944   0.01944   0.00000   0.01944
 107       50D+2        0.01948   0.01948   0.00000   0.01948
 108       50D-2        0.03682   0.01841   0.01841  -0.00000
 109       51D 0        0.13201   0.06601   0.06601   0.00000
 110       51D+1        0.07452   0.07451   0.00000   0.07451
 111       51D-1        0.07452   0.07451   0.00000   0.07451
 112       51D+2        0.07463   0.07463   0.00000   0.07463
 113       51D-2        0.14098   0.07049   0.07049  -0.00000
 114       52D 0        0.30825   0.15412   0.15412   0.00000
 115       52D+1        0.17375   0.17375   0.00001   0.17374
 116       52D-1        0.17375   0.17375   0.00001   0.17374
 117       52D+2        0.17359   0.17359   0.00000   0.17359
 118       52D-2        0.32730   0.16365   0.16365  -0.00000
 119       53D 0        0.48603   0.24301   0.24301   0.00000
 120       53D+1        0.27034   0.27032   0.00002   0.27031
 121       53D-1        0.27034   0.27032   0.00002   0.27031
 122       53D+2        0.27034   0.27034   0.00000   0.27034
 123       53D-2        0.51369   0.25685   0.25685  -0.00000
 124       54D 0        0.48217   0.24108   0.24108   0.00000
 125       54D+1        0.25543   0.25541   0.00002   0.25538
 126       54D-1        0.25543   0.25541   0.00002   0.25538
 127       54D+2        0.25576   0.25576   0.00000   0.25576
 128       54D-2        0.50441   0.25220   0.25220  -0.00000
 129       55D 0        0.32216   0.16108   0.16108   0.00000
 130       55D+1        0.14514   0.14513   0.00001   0.14512
 131       55D-1        0.14514   0.14513   0.00001   0.14512
 132       55D+2        0.14568   0.14568   0.00000   0.14568
 133       55D-2        0.32084   0.16042   0.16042  -0.00000
 134       56D 0        0.12285   0.06142   0.06142   0.00000
 135       56D+1        0.03772   0.03772  -0.00000   0.03772
 136       56D-1        0.03772   0.03772  -0.00000   0.03772
 137       56D+2        0.03749   0.03749   0.00000   0.03749
 138       56D-2        0.10708   0.05354   0.05354  -0.00000
 139       57D 0        0.01323   0.00661   0.00661   0.00000
 140       57D+1        0.00163   0.00163   0.00000   0.00163
 141       57D-1        0.00163   0.00163   0.00000   0.00163
 142       57D+2        0.00156   0.00156   0.00000   0.00156
 143       57D-2        0.00801   0.00400   0.00400  -0.00000
 144       58D 0        0.01413   0.00706   0.00706   0.00000
 145       58D+1        0.00799   0.00799   0.00000   0.00799
 146       58D-1        0.00799   0.00799   0.00000   0.00799
 147       58D+2        0.00818   0.00818   0.00000   0.00818
 148       58D-2        0.01552   0.00776   0.00776  -0.00000
 149       59D 0        0.01779   0.00890   0.00890   0.00000
 150       59D+1        0.01012   0.01012   0.00000   0.01012
 151       59D-1        0.01012   0.01012   0.00000   0.01012
 152       59D+2        0.01072   0.01072   0.00000   0.01072
 153       59D-2        0.02054   0.01027   0.01027  -0.00000
 154       60D 0       -0.00023  -0.00012  -0.00012  -0.00000
 155       60D+1       -0.00001  -0.00001  -0.00000  -0.00001
 156       60D-1       -0.00001  -0.00001  -0.00000  -0.00001
 157       60D+2       -0.00001  -0.00001  -0.00000  -0.00001
 158       60D-2       -0.00010  -0.00005  -0.00005   0.00000
 159       61F 0        0.00001   0.00000   0.00000   0.00000
 160       61F+1        0.00000   0.00000   0.00000   0.00000
 161       61F-1        0.00000   0.00000   0.00000   0.00000
 162       61F+2        0.00000   0.00000   0.00000   0.00000
 163       61F-2        0.00000   0.00000   0.00000  -0.00000
 164       61F+3        0.00000   0.00000   0.00000   0.00000
 165       61F-3        0.00000   0.00000   0.00000   0.00000
 166       62F 0        0.00002   0.00001   0.00001   0.00000
 167       62F+1        0.00001   0.00001   0.00000   0.00000
 168       62F-1        0.00001   0.00001   0.00000   0.00000
 169       62F+2        0.00000   0.00000   0.00000   0.00000
 170       62F-2        0.00000   0.00000   0.00000  -0.00000
 171       62F+3        0.00001   0.00001   0.00001   0.00000
 172       62F-3        0.00001   0.00001   0.00001   0.00000
 173       63F 0        0.00010   0.00005   0.00005   0.00000
 174       63F+1        0.00003   0.00003   0.00001   0.00002
 175       63F-1        0.00003   0.00003   0.00001   0.00002
 176       63F+2        0.00001   0.00001   0.00000   0.00001
 177       63F-2        0.00002   0.00001   0.00001  -0.00000
 178       63F+3        0.00003   0.00002   0.00002   0.00000
 179       63F-3        0.00003   0.00002   0.00002   0.00000
 180       64F 0        0.00114   0.00057   0.00057   0.00000
 181       64F+1        0.00011   0.00011   0.00001   0.00010
 182       64F-1        0.00011   0.00011   0.00001   0.00010
 183       64F+2        0.00007   0.00007   0.00000   0.00007
 184       64F-2        0.00016   0.00008   0.00008  -0.00000
 185       64F+3        0.00002   0.00001   0.00001   0.00000
 186       64F-3        0.00002   0.00001   0.00001   0.00000
 187       65F 0        0.00327   0.00163   0.00163   0.00000
 188       65F+1        0.00005   0.00005   0.00000   0.00005
 189       65F-1        0.00005   0.00005   0.00000   0.00005
 190       65F+2        0.00005   0.00005   0.00000   0.00005
 191       65F-2        0.00017   0.00009   0.00009  -0.00000
 192       65F+3        0.00000   0.00000   0.00000  -0.00000
 193       65F-3        0.00000   0.00000   0.00000  -0.00000
 194       66G 0        0.00000   0.00000   0.00000   0.00000
 195       66G+1        0.00000   0.00000  -0.00000   0.00000
 196       66G-1        0.00000   0.00000  -0.00000   0.00000
 197       66G+2        0.00000   0.00000   0.00000   0.00000
 198       66G-2        0.00000   0.00000   0.00000  -0.00000
 199       66G+3        0.00000   0.00000   0.00000   0.00000
 200       66G-3        0.00000   0.00000   0.00000   0.00000
 201       66G+4        0.00000   0.00000   0.00000   0.00000
 202       66G-4        0.00000   0.00000   0.00000  -0.00000
 203       67G 0        0.00000   0.00000   0.00000   0.00000
 204       67G+1        0.00000   0.00000   0.00000   0.00000
 205       67G-1        0.00000   0.00000   0.00000   0.00000
 206       67G+2        0.00000   0.00000   0.00000   0.00000
 207       67G-2        0.00000   0.00000   0.00000  -0.00000
 208       67G+3        0.00000   0.00000   0.00000   0.00000
 209       67G-3        0.00000   0.00000   0.00000   0.00000
 210       67G+4        0.00000   0.00000   0.00000   0.00000
 211       67G-4        0.00000   0.00000   0.00000  -0.00000
 212       68G 0        0.00001   0.00001   0.00001   0.00000
 213       68G+1       -0.00000  -0.00000  -0.00000  -0.00000
 214       68G-1       -0.00000  -0.00000  -0.00000  -0.00000
 215       68G+2        0.00000   0.00000   0.00000   0.00000
 216       68G-2        0.00000   0.00000   0.00000  -0.00000
 217       68G+3        0.00000   0.00000   0.00000   0.00000
 218       68G-3        0.00000   0.00000   0.00000   0.00000
 219       68G+4        0.00000   0.00000   0.00000   0.00000
 220       68G-4        0.00000   0.00000   0.00000  -0.00000
 221       69G 0        0.00026   0.00013   0.00013   0.00000
 222       69G+1        0.00000   0.00000   0.00000   0.00000
 223       69G-1        0.00000   0.00000   0.00000   0.00000
 224       69G+2        0.00000   0.00000   0.00000   0.00000
 225       69G-2        0.00000   0.00000   0.00000  -0.00000
 226       69G+3        0.00000   0.00000   0.00000   0.00000
 227       69G-3        0.00000   0.00000   0.00000   0.00000
 228       69G+4        0.00000   0.00000   0.00000   0.00000
 229       69G-4        0.00000   0.00000   0.00000  -0.00000
 230       70H 0        0.00000   0.00000   0.00000   0.00000
 231       70H+1        0.00000   0.00000   0.00000   0.00000
 232       70H-1        0.00000   0.00000   0.00000   0.00000
 233       70H+2        0.00000   0.00000   0.00000   0.00000
 234       70H-2        0.00000   0.00000   0.00000  -0.00000
 235       70H+3        0.00000   0.00000   0.00000   0.00000
 236       70H-3        0.00000   0.00000   0.00000   0.00000
 237       70H+4        0.00000   0.00000   0.00000   0.00000
 238       70H-4        0.00000   0.00000   0.00000  -0.00000
 239       70H+5        0.00000   0.00000   0.00000   0.00000
 240       70H-5        0.00000   0.00000   0.00000   0.00000
 241       71H 0        0.00000   0.00000   0.00000  -0.00000
 242       71H+1        0.00000   0.00000   0.00000   0.00000
 243       71H-1        0.00000   0.00000   0.00000   0.00000
 244       71H+2        0.00000   0.00000   0.00000   0.00000
 245       71H-2        0.00000   0.00000   0.00000  -0.00000
 246       71H+3        0.00000   0.00000   0.00000   0.00000
 247       71H-3        0.00000   0.00000   0.00000   0.00000
 248       71H+4        0.00000   0.00000   0.00000   0.00000
 249       71H-4        0.00000   0.00000   0.00000  -0.00000
 250       71H+5        0.00000   0.00000   0.00000   0.00000
 251       71H-5        0.00000   0.00000   0.00000   0.00000
 252       72H 0        0.00001   0.00000   0.00000   0.00000
 253       72H+1       -0.00000  -0.00000  -0.00000   0.00000
 254       72H-1       -0.00000  -0.00000  -0.00000   0.00000
 255       72H+2        0.00000   0.00000   0.00000   0.00000
 256       72H-2        0.00000   0.00000   0.00000  -0.00000
 257       72H+3        0.00000   0.00000   0.00000   0.00000
 258       72H-3        0.00000   0.00000   0.00000   0.00000
 259       72H+4        0.00000   0.00000   0.00000   0.00000
 260       72H-4        0.00000   0.00000   0.00000  -0.00000
 261       72H+5       -0.00000  -0.00000  -0.00000   0.00000
 262       72H-5       -0.00000  -0.00000  -0.00000   0.00000
 263 2   H  1S          0.00003   0.00002   0.00002   0.00000
 264        2S          0.00413   0.00206   0.00206   0.00000
 265        3S          0.04228   0.02114   0.02114   0.00000
 266        4S          0.21896   0.10948   0.10948   0.00000
 267        5S          0.53924   0.26962   0.26962   0.00000
 268        6S          0.50212   0.25106   0.25106   0.00000
 269        7S          0.06010   0.03005   0.03005  -0.00000
 270        8PX         0.00000   0.00000   0.00000   0.00000
 271        8PY         0.00000   0.00000   0.00000   0.00000
 272        8PZ         0.00007   0.00003   0.00003   0.00000
 273        9PX         0.00005   0.00005   0.00000   0.00005
 274        9PY         0.00005   0.00005   0.00000   0.00005
 275        9PZ         0.00095   0.00047   0.00047   0.00000
 276       10PX         0.00030   0.00030   0.00000   0.00029
 277       10PY         0.00030   0.00030   0.00000   0.00029
 278       10PZ         0.00522   0.00261   0.00261   0.00000
 279       11PX         0.00011   0.00011   0.00000   0.00011
 280       11PY         0.00011   0.00011   0.00000   0.00011
 281       11PZ        -0.00028  -0.00014  -0.00014  -0.00000
 282       12D 0        0.00001   0.00000   0.00000   0.00000
 283       12D+1        0.00000   0.00000  -0.00000   0.00000
 284       12D-1        0.00000   0.00000  -0.00000   0.00000
 285       12D+2        0.00000   0.00000   0.00000   0.00000
 286       12D-2        0.00000   0.00000   0.00000  -0.00000
 287       13D 0        0.00026   0.00013   0.00013   0.00000
 288       13D+1        0.00005   0.00005   0.00000   0.00005
 289       13D-1        0.00005   0.00005   0.00000   0.00005
 290       13D+2        0.00000   0.00000   0.00000   0.00000
 291       13D-2        0.00001   0.00000   0.00000  -0.00000
 292       14D 0        0.00018   0.00009   0.00009   0.00000
 293       14D+1       -0.00001  -0.00001  -0.00001  -0.00000
 294       14D-1       -0.00001  -0.00001  -0.00001  -0.00000
 295       14D+2        0.00001   0.00001   0.00000   0.00001
 296       14D-2       -0.00002  -0.00001  -0.00001   0.00000
 297       15F 0        0.00001   0.00001   0.00001   0.00000
 298       15F+1        0.00000   0.00000   0.00000   0.00000
 299       15F-1        0.00000   0.00000   0.00000   0.00000
 300       15F+2        0.00000   0.00000   0.00000   0.00000
 301       15F-2        0.00000   0.00000   0.00000  -0.00000
 302       15F+3        0.00000   0.00000   0.00000   0.00000
 303       15F-3        0.00000   0.00000   0.00000   0.00000
 304       16F 0        0.00027   0.00014   0.00014   0.00000
 305       16F+1        0.00000  -0.00001   0.00001  -0.00002
 306       16F-1        0.00000  -0.00001   0.00001  -0.00002
 307       16F+2       -0.00001  -0.00001   0.00000  -0.00001
 308       16F-2       -0.00002  -0.00001  -0.00001   0.00000
 309       16F+3       -0.00000  -0.00000  -0.00000  -0.00000
 310       16F-3       -0.00000  -0.00000  -0.00000  -0.00000
          Condensed to atoms (all electrons):
               1          2
     1  Fe  15.286350   0.339126
     2  H    0.339126   1.035398
          Atomic-Atomic Spin Densities.
               1          2
     1  Fe   2.998093   0.000930
     2  H    0.000930   0.000046
 Mulliken charges and spin densities:
               1          2
     1  Fe   0.374524   2.999023
     2  H   -0.374524   0.000977
 Sum of Mulliken charges =  -0.00000   3.00000
 Mulliken charges and spin densities with hydrogens summed into heavy atoms:
               1          2
     1  Fe  -0.000000   3.000000
 Electronic spatial extent (au):  <R**2>=             51.5101
 Charge=             -0.0000 electrons
 Dipole moment (field-independent basis, Debye):
    X=              0.0000    Y=              0.0000    Z=              5.5213  Tot=              5.5213
 Quadrupole moment (field-independent basis, Debye-Ang):
   XX=            -15.1332   YY=            -15.1333   ZZ=            -20.7786
   XY=              0.0000   XZ=              0.0000   YZ=              0.0000
 Traceless Quadrupole moment (field-independent basis, Debye-Ang):
   XX=              1.8818   YY=              1.8818   ZZ=             -3.7636
   XY=              0.0000   XZ=              0.0000   YZ=              0.0000
 Octapole moment (field-independent basis, Debye-Ang**2):
  XXX=              0.0000  YYY=              0.0000  ZZZ=             27.7325  XYY=              0.0000
  XXY=              0.0000  XXZ=              6.1016  XZZ=              0.0000  YZZ=              0.0000
  YYZ=              6.1016  XYZ=              0.0000
 Hexadecapole moment (field-independent basis, Debye-Ang**3):
 XXXX=            -22.2820 YYYY=            -22.2821 ZZZZ=            -94.1029 XXXY=              0.0000
 XXXZ=              0.0000 YYYX=              0.0000 YYYZ=              0.0000 ZZZX=              0.0000
 ZZZY=              0.0000 XXYY=             -7.7781 XXZZ=            -17.1300 YYZZ=            -17.1300
 XXYZ=              0.0000 YYXZ=              0.0000 ZZXY=              0.0000
 N-N= 4.233417687360D+00 E-N=-3.024817667581D+02  KE= 7.440953726374D+01
 Symmetry A1   KE= 3.224023285364D+01
 Symmetry A2   KE= 1.313239567745D+01
 Symmetry B1   KE= 1.451845528726D+01
 Symmetry B2   KE= 1.451845344517D+01
 Symmetry A1   SP= 1.000000000000D+00
 Symmetry A2   SP=-3.599946918100D-16
 Symmetry B1   SP= 1.000000000000D+00
 Symmetry B2   SP= 1.000000000000D+00
 Orbital energies and kinetic energies (alpha):
                                 1                 2
   3         O                -2.758611          3.811129
   4         O                -2.758609          3.811129
   5         O                -0.488762          6.566198
   6         O                -0.488761          5.198799
   7         O                -0.488566          1.355198
   8         O                -0.438709          6.896198
   9         O                -0.426984          6.896196
  10         O                -0.309703          6.907559
  11         V                -0.012954          0.177847
  12         V                 0.020419          0.040067
  13         V                 0.020419          0.040067
  14         V                 0.032267          0.040027
  15         V                 0.032635          0.173120
 Total kinetic energy from orbitals= 9.510949066634D+01
                          Isotropic Fermi Contact Couplings
        Atom                 a.u.       MegaHertz       Gauss      10(-4) cm-1
     1  Fe(57)             0.00000       0.00000       0.00000       0.00000
     2  H(1)               0.00000       0.00000       0.00000       0.00000
 --------------------------------------------------------
       Center         ----  Spin Dipole Couplings  ----
                      3XX-RR        3YY-RR        3ZZ-RR
 --------------------------------------------------------
     1   Atom        0.003591      0.003508     -0.007099
     2   Atom       -0.051898     -0.051898      0.103796
 --------------------------------------------------------
                        XY            XZ            YZ
 --------------------------------------------------------
     1   Atom        0.000000      0.000000      0.000000
     2   Atom        0.000000      0.000000      0.000000
 --------------------------------------------------------


 ---------------------------------------------------------------------------------
              Anisotropic Spin Dipole Couplings in Principal Axis System
 ---------------------------------------------------------------------------------

       Atom             a.u.   MegaHertz   Gauss  10(-4) cm-1        Axes

              Baa    -0.0071    -0.123    -0.044    -0.041  0.0000  0.0000  1.0000
     1 Fe(57) Bbb     0.0035     0.061     0.022     0.020 -0.0000  1.0000  0.0000
              Bcc     0.0036     0.062     0.022     0.021  1.0000  0.0000  0.0000
 
              Baa    -0.0519   -27.690    -9.881    -9.236 -0.0000  1.0000  0.0000
     2 H(1)   Bbb    -0.0519   -27.690    -9.881    -9.236  1.0000  0.0000  0.0000
              Bcc     0.1038    55.381    19.761    18.473  0.0000  0.0000  1.0000
 

 ---------------------------------------------------------------------------------

 No NMR shielding tensors so no spin-rotation constants.
 Leave Link  601 at Mon Feb 12 22:23:00 2018, MaxMem= 10737418240 cpu:             171.9 elap:               5.6
 (Enter /home1/apps/gaussian/16rA.03/g16/l9999.exe)

 Test job not archived.
 1\1\GINC-C449-051\SP\ROCCSD(T)-Full\Gen\Fe1H1(4)\GWANG18\12-Feb-2018\2
 \\#P ROCCSD(T)=(maxcyc=100, Full)/Gen SCF=(maxcycle=400, symm) Pseudo=
 Read Integral(NoXCTest) Pop=Regular MaxDisk=500GB Guess=Permute IOp(5/
 15=2)\\FeH\\0,4\Fe,0,0.,0.,0.\H,0,0.,0.,2.\\1,2,3,4,5,10,9,8,6,7\\Vers
 ion=ES64L-G16RevA.03\HF=-123.5721033\MP2=-124.3547486\MP3=-124.302043\
 PUHF=-123.5721033\PMP2-0=-124.3547486\MP4SDQ=-124.3383897\CCSD=-124.33
 58165\CCSD(T)=-124.3623553\RMSD=6.795e-09\PG=C*V [C*(H1Fe1)]\\@


 I am not a vegetarian because I love animals;
 I am a vegetarian because I hate plants.
                               -- A. Whitney Brown
 Job cpu time:       0 days 22 hours  7 minutes 13.1 seconds.
 Elapsed time:       0 days  0 hours 41 minutes 41.7 seconds.
 File lengths (MBytes):  RWF=   8432 Int=      0 D2E=      0 Chk=     11 Scr=      1
 Normal termination of Gaussian 16 at Mon Feb 12 22:23:04 2018.
