 Entering Gaussian System, Link 0=g16
 Initial command:
 /home1/apps/gaussian/16rA.03/g16/l1.exe "/tmp/Gau-244800.inp" -scrdir="/tmp/"
 Entering Link 1 = /home1/apps/gaussian/16rA.03/g16/l1.exe PID=    244801.
  
 Copyright (c) 1988,1990,1992,1993,1995,1998,2003,2009,2016,
            Gaussian, Inc.  All Rights Reserved.
  
 This is part of the Gaussian(R) 16 program.  It is based on
 the Gaussian(R) 09 system (copyright 2009, Gaussian, Inc.),
 the Gaussian(R) 03 system (copyright 2003, Gaussian, Inc.),
 the Gaussian(R) 98 system (copyright 1998, Gaussian, Inc.),
 the Gaussian(R) 94 system (copyright 1995, Gaussian, Inc.),
 the Gaussian 92(TM) system (copyright 1992, Gaussian, Inc.),
 the Gaussian 90(TM) system (copyright 1990, Gaussian, Inc.),
 the Gaussian 88(TM) system (copyright 1988, Gaussian, Inc.),
 the Gaussian 86(TM) system (copyright 1986, Carnegie Mellon
 University), and the Gaussian 82(TM) system (copyright 1983,
 Carnegie Mellon University). Gaussian is a federally registered
 trademark of Gaussian, Inc.
  
 This software contains proprietary and confidential information,
 including trade secrets, belonging to Gaussian, Inc.
  
 This software is provided under written license and may be
 used, copied, transmitted, or stored only in accord with that
 written license.
  
 The following legend is applicable only to US Government
 contracts under FAR:
  
                    RESTRICTED RIGHTS LEGEND
  
 Use, reproduction and disclosure by the US Government is
 subject to restrictions as set forth in subparagraphs (a)
 and (c) of the Commercial Computer Software - Restricted
 Rights clause in FAR 52.227-19.
  
 Gaussian, Inc.
 340 Quinnipiac St., Bldg. 40, Wallingford CT 06492
  
  
 ---------------------------------------------------------------
 Warning -- This program may not be used in any manner that
 competes with the business of Gaussian, Inc. or will provide
 assistance to any competitor of Gaussian, Inc.  The licensee
 of this program is prohibited from giving any competitor of
 Gaussian, Inc. access to this program.  By using this program,
 the user acknowledges that Gaussian, Inc. is engaged in the
 business of creating and licensing software in the field of
 computational chemistry and represents and warrants to the
 licensee that it is not a competitor of Gaussian, Inc. and that
 it will not use this program in any manner prohibited above.
 ---------------------------------------------------------------
  

 Cite this work as:
 Gaussian 16, Revision A.03,
 M. J. Frisch, G. W. Trucks, H. B. Schlegel, G. E. Scuseria, 
 M. A. Robb, J. R. Cheeseman, G. Scalmani, V. Barone, 
 G. A. Petersson, H. Nakatsuji, X. Li, M. Caricato, A. V. Marenich, 
 J. Bloino, B. G. Janesko, R. Gomperts, B. Mennucci, H. P. Hratchian, 
 J. V. Ortiz, A. F. Izmaylov, J. L. Sonnenberg, D. Williams-Young, 
 F. Ding, F. Lipparini, F. Egidi, J. Goings, B. Peng, A. Petrone, 
 T. Henderson, D. Ranasinghe, V. G. Zakrzewski, J. Gao, N. Rega, 
 G. Zheng, W. Liang, M. Hada, M. Ehara, K. Toyota, R. Fukuda, 
 J. Hasegawa, M. Ishida, T. Nakajima, Y. Honda, O. Kitao, H. Nakai, 
 T. Vreven, K. Throssell, J. A. Montgomery, Jr., J. E. Peralta, 
 F. Ogliaro, M. J. Bearpark, J. J. Heyd, E. N. Brothers, K. N. Kudin, 
 V. N. Staroverov, T. A. Keith, R. Kobayashi, J. Normand, 
 K. Raghavachari, A. P. Rendell, J. C. Burant, S. S. Iyengar, 
 J. Tomasi, M. Cossi, J. M. Millam, M. Klene, C. Adamo, R. Cammi, 
 J. W. Ochterski, R. L. Martin, K. Morokuma, O. Farkas, 
 J. B. Foresman, and D. J. Fox, Gaussian, Inc., Wallingford CT, 2016.
 
 ******************************************
 Gaussian 16:  ES64L-G16RevA.03 25-Dec-2016
                 9-Mar-2018 
 ******************************************
 %MEM=80GB
 %CPU=0-15
 SetSPE:  set environment variable "MP_BIND" = "yes"
 SetSPE:  set environment variable "MP_BLIST" = "0,1,2,3,4,5,6,7,8,9,10,11,12,13,14,15"
 Will use up to   16 processors via shared memory.
 %RWF=/scratch/04843/aannabe/gaussian/
 %Int=/scratch/04843/aannabe/gaussian/
 %D2E=/scratch/04843/aannabe/gaussian/
 %NoSave
 %CHK=MnO
 ----------------------------------------------------------------------
 #P ROCCSD(T)=(maxcyc=150, Full, SaveAmplitudes, ReadAmplitudes)/Gen 5d
  7f SCF=(maxcycles=300) Integral(NoXCTest) MaxDisk=500GB Pop=Regular P
 seudo=Read Guess=Read IOp(5/15=2)
 ----------------------------------------------------------------------
 1/38=1,172=1/1;
 2/12=2,17=6,18=5,40=1/2;
 3/5=7,8=11,11=2,16=1,17=8,25=1,30=1,47=8,116=101/1,2,3;
 4/5=1/1;
 5/5=2,7=300,15=2,38=6/2;
 8/5=-1,6=4,9=120000,10=90,24=1/1,4;
 9/5=7,6=150,14=2,77=1/13;
 6//1;
 99/5=1,9=1/99;
 Leave Link    1 at Fri Mar  9 17:06:30 2018, MaxMem= 10737418240 cpu:               4.6 elap:               0.3
 (Enter /home1/apps/gaussian/16rA.03/g16/l101.exe)
 ---
 MnO
 ---
 Symbolic Z-matrix:
 Charge =  0 Multiplicity = 6
 Mn                    0.        0.        0. 
 O                     0.        0.        1.6 
 
 ITRead=  0  0
 MicOpt= -1 -1
 NAtoms=      2 NQM=        2 NQMF=       0 NMMI=      0 NMMIF=      0
                NMic=       0 NMicF=      0.
                    Isotopes and Nuclear Properties:
 (Nuclear quadrupole moments (NQMom) in fm**2, nuclear magnetic moments (NMagM)
  in nuclear magnetons)

  Atom         1           2
 IAtWgt=          55          16
 AtmWgt=  54.9380463  15.9949146
 NucSpn=           5           0
 AtZEff=  -0.0000000  -0.0000000
 NQMom=   33.0000000   0.0000000
 NMagM=    3.4532000   0.0000000
 AtZNuc=  25.0000000   8.0000000
 Leave Link  101 at Fri Mar  9 17:06:30 2018, MaxMem= 10737418240 cpu:               1.7 elap:               0.1
 (Enter /home1/apps/gaussian/16rA.03/g16/l202.exe)
                          Input orientation:                          
 ---------------------------------------------------------------------
 Center     Atomic      Atomic             Coordinates (Angstroms)
 Number     Number       Type             X           Y           Z
 ---------------------------------------------------------------------
      1         25           0        0.000000    0.000000    0.000000
      2          8           0        0.000000    0.000000    1.600000
 ---------------------------------------------------------------------
 Stoichiometry    MnO(6)
 Framework group  C*V[C*(OMn)]
 Deg. of freedom     1
 Full point group                 C*V     NOp   4
 Largest Abelian subgroup         C2V     NOp   4
 Largest concise Abelian subgroup C1      NOp   1
                         Standard orientation:                         
 ---------------------------------------------------------------------
 Center     Atomic      Atomic             Coordinates (Angstroms)
 Number     Number       Type             X           Y           Z
 ---------------------------------------------------------------------
      1         25           0        0.000000    0.000000    0.387879
      2          8           0        0.000000    0.000000   -1.212121
 ---------------------------------------------------------------------
 Rotational constants (GHZ):           0.0000000          15.9356648          15.9356648
 Leave Link  202 at Fri Mar  9 17:06:31 2018, MaxMem= 10737418240 cpu:               0.4 elap:               0.1
 (Enter /home1/apps/gaussian/16rA.03/g16/l301.exe)
 General basis read from cards:  (5D, 7F)
 Centers:       1
 S 1 1.00
     Exponent=  3.9608050000D+06 Coefficients=  1.0000000000D+00
 S 1 1.00
     Exponent=  5.9311550000D+05 Coefficients=  1.0000000000D+00
 S 1 1.00
     Exponent=  1.3497680000D+05 Coefficients=  1.0000000000D+00
 S 1 1.00
     Exponent=  3.8230670000D+04 Coefficients=  1.0000000000D+00
 S 1 1.00
     Exponent=  1.2471540000D+04 Coefficients=  1.0000000000D+00
 S 1 1.00
     Exponent=  4.5017430000D+03 Coefficients=  1.0000000000D+00
 S 1 1.00
     Exponent=  1.7552120000D+03 Coefficients=  1.0000000000D+00
 S 1 1.00
     Exponent=  7.2730390000D+02 Coefficients=  1.0000000000D+00
 S 1 1.00
     Exponent=  3.1636780000D+02 Coefficients=  1.0000000000D+00
 S 1 1.00
     Exponent=  1.4300980000D+02 Coefficients=  1.0000000000D+00
 S 1 1.00
     Exponent=  6.6218050000D+01 Coefficients=  1.0000000000D+00
 S 1 1.00
     Exponent=  2.9918960000D+01 Coefficients=  1.0000000000D+00
 S 1 1.00
     Exponent=  1.4303180000D+01 Coefficients=  1.0000000000D+00
 S 1 1.00
     Exponent=  6.8394510000D+00 Coefficients=  1.0000000000D+00
 S 1 1.00
     Exponent=  3.0123740000D+00 Coefficients=  1.0000000000D+00
 S 1 1.00
     Exponent=  1.4188080000D+00 Coefficients=  1.0000000000D+00
 S 1 1.00
     Exponent=  6.2362400000D-01 Coefficients=  1.0000000000D+00
 S 1 1.00
     Exponent=  1.3409800000D-01 Coefficients=  1.0000000000D+00
 S 1 1.00
     Exponent=  6.5548000000D-02 Coefficients=  1.0000000000D+00
 S 1 1.00
     Exponent=  2.9584000000D-02 Coefficients=  1.0000000000D+00
 S 1 1.00
     Exponent=  4.1714000000D+00 Coefficients=  1.0000000000D+00
 S 1 1.00
     Exponent=  1.0701000000D+00 Coefficients=  1.0000000000D+00
 S 1 1.00
     Exponent=  1.3350000000D-02 Coefficients=  1.0000000000D+00
 P 1 1.00
     Exponent=  1.6205860000D+04 Coefficients=  1.0000000000D+00
 P 1 1.00
     Exponent=  3.8362740000D+03 Coefficients=  1.0000000000D+00
 P 1 1.00
     Exponent=  1.2460480000D+03 Coefficients=  1.0000000000D+00
 P 1 1.00
     Exponent=  4.7675350000D+02 Coefficients=  1.0000000000D+00
 P 1 1.00
     Exponent=  2.0218950000D+02 Coefficients=  1.0000000000D+00
 P 1 1.00
     Exponent=  9.2094870000D+01 Coefficients=  1.0000000000D+00
 P 1 1.00
     Exponent=  4.4147200000D+01 Coefficients=  1.0000000000D+00
 P 1 1.00
     Exponent=  2.1854680000D+01 Coefficients=  1.0000000000D+00
 P 1 1.00
     Exponent=  1.1085960000D+01 Coefficients=  1.0000000000D+00
 P 1 1.00
     Exponent=  5.6741080000D+00 Coefficients=  1.0000000000D+00
 P 1 1.00
     Exponent=  2.8231700000D+00 Coefficients=  1.0000000000D+00
 P 1 1.00
     Exponent=  1.3686210000D+00 Coefficients=  1.0000000000D+00
 P 1 1.00
     Exponent=  6.4443100000D-01 Coefficients=  1.0000000000D+00
 P 1 1.00
     Exponent=  2.4834600000D-01 Coefficients=  1.0000000000D+00
 P 1 1.00
     Exponent=  9.7175000000D-02 Coefficients=  1.0000000000D+00
 P 1 1.00
     Exponent=  3.6565000000D-02 Coefficients=  1.0000000000D+00
 P 1 1.00
     Exponent=  6.0568000000D+00 Coefficients=  1.0000000000D+00
 P 1 1.00
     Exponent=  1.3911000000D+00 Coefficients=  1.0000000000D+00
 P 1 1.00
     Exponent=  1.3760000000D-02 Coefficients=  1.0000000000D+00
 D 1 1.00
     Exponent=  1.0190400000D+02 Coefficients=  1.0000000000D+00
 D 1 1.00
     Exponent=  3.0033700000D+01 Coefficients=  1.0000000000D+00
 D 1 1.00
     Exponent=  1.0923800000D+01 Coefficients=  1.0000000000D+00
 D 1 1.00
     Exponent=  4.3974000000D+00 Coefficients=  1.0000000000D+00
 D 1 1.00
     Exponent=  1.8159500000D+00 Coefficients=  1.0000000000D+00
 D 1 1.00
     Exponent=  7.2573100000D-01 Coefficients=  1.0000000000D+00
 D 1 1.00
     Exponent=  2.6996100000D-01 Coefficients=  1.0000000000D+00
 D 1 1.00
     Exponent=  8.7760000000D-02 Coefficients=  1.0000000000D+00
 D 1 1.00
     Exponent=  3.9511000000D+00 Coefficients=  1.0000000000D+00
 D 1 1.00
     Exponent=  1.8488000000D+00 Coefficients=  1.0000000000D+00
 D 1 1.00
     Exponent=  2.8530000000D-02 Coefficients=  1.0000000000D+00
 F 1 1.00
     Exponent=  5.1541000000D+00 Coefficients=  1.0000000000D+00
 F 1 1.00
     Exponent=  1.9044000000D+00 Coefficients=  1.0000000000D+00
 F 1 1.00
     Exponent=  6.4380000000D-01 Coefficients=  1.0000000000D+00
 F 1 1.00
     Exponent=  2.1764000000D-01 Coefficients=  1.0000000000D+00
 G 1 1.00
     Exponent=  4.7163000000D+00 Coefficients=  1.0000000000D+00
 G 1 1.00
     Exponent=  1.7022000000D+00 Coefficients=  1.0000000000D+00
 G 1 1.00
     Exponent=  6.1436000000D-01 Coefficients=  1.0000000000D+00
 ****
 Centers:       2
 S 1 1.00
     Exponent=  1.5330000000D+04 Coefficients=  1.0000000000D+00
 S 1 1.00
     Exponent=  2.2990000000D+03 Coefficients=  1.0000000000D+00
 S 1 1.00
     Exponent=  5.2240000000D+02 Coefficients=  1.0000000000D+00
 S 1 1.00
     Exponent=  1.4730000000D+02 Coefficients=  1.0000000000D+00
 S 1 1.00
     Exponent=  4.7550000000D+01 Coefficients=  1.0000000000D+00
 S 1 1.00
     Exponent=  1.6760000000D+01 Coefficients=  1.0000000000D+00
 S 1 1.00
     Exponent=  6.2070000000D+00 Coefficients=  1.0000000000D+00
 S 1 1.00
     Exponent=  6.8820000000D-01 Coefficients=  1.0000000000D+00
 S 1 1.00
     Exponent=  1.7520000000D+00 Coefficients=  1.0000000000D+00
 S 1 1.00
     Exponent=  2.3840000000D-01 Coefficients=  1.0000000000D+00
 S 1 1.00
     Exponent=  7.8450000000D+00 Coefficients=  1.0000000000D+00
 S 1 1.00
     Exponent=  2.1032000000D+01 Coefficients=  1.0000000000D+00
 S 1 1.00
     Exponent=  7.3760000000D-02 Coefficients=  1.0000000000D+00
 P 1 1.00
     Exponent=  3.4460000000D+01 Coefficients=  1.0000000000D+00
 P 1 1.00
     Exponent=  7.7490000000D+00 Coefficients=  1.0000000000D+00
 P 1 1.00
     Exponent=  2.2800000000D+00 Coefficients=  1.0000000000D+00
 P 1 1.00
     Exponent=  7.1560000000D-01 Coefficients=  1.0000000000D+00
 P 1 1.00
     Exponent=  2.1400000000D-01 Coefficients=  1.0000000000D+00
 P 1 1.00
     Exponent=  1.5159000000D+01 Coefficients=  1.0000000000D+00
 P 1 1.00
     Exponent=  5.7437000000D+01 Coefficients=  1.0000000000D+00
 P 1 1.00
     Exponent=  5.9740000000D-02 Coefficients=  1.0000000000D+00
 D 1 1.00
     Exponent=  2.3140000000D+00 Coefficients=  1.0000000000D+00
 D 1 1.00
     Exponent=  6.4500000000D-01 Coefficients=  1.0000000000D+00
 D 1 1.00
     Exponent=  1.5858000000D+01 Coefficients=  1.0000000000D+00
 D 1 1.00
     Exponent=  2.1400000000D-01 Coefficients=  1.0000000000D+00
 F 1 1.00
     Exponent=  1.4280000000D+00 Coefficients=  1.0000000000D+00
 F 1 1.00
     Exponent=  5.0000000000D-01 Coefficients=  1.0000000000D+00
 ****
 ======================================================================================================
                                       Pseudopotential Parameters
 ======================================================================================================
  Center     Atomic      Valence      Angular      Power
  Number     Number     Electrons     Momentum     of R      Exponent        Coefficient   SO-Coeffient
 ======================================================================================================
    1         25           15
                                      D and up 
                                                     1       23.9656713       15.00000000    0.00000000
                                                     3       22.6481081      359.48506880    0.00000000
                                                     2       21.8841459     -152.94008449    0.00000000
                                                     2        6.3576557       -2.00666481    0.00000000
                                      S - D
                                                     2       18.5595648      245.52993062    0.00000000
                                                     2        8.4121719       33.15214562    0.00000000
                                      P - D
                                                     2       19.3350158      163.21002979    0.00000000
                                                     2        8.3639735       25.06457815    0.00000000
    2          8            6
                                      P and up 
                                                     1       12.3099700        6.00000000    0.00000000
                                                     3       14.7696200       73.85984000    0.00000000
                                                     2       13.7141900      -47.87600000    0.00000000
                                      S - P
                                                     2       13.6551200       85.86406000    0.00000000
 ======================================================================================================
 Ernie: Thresh=  0.10000D-02 Tol=  0.10000D-05 Strict=F.
 There are   144 symmetry adapted cartesian basis functions of A1  symmetry.
 There are    30 symmetry adapted cartesian basis functions of A2  symmetry.
 There are    69 symmetry adapted cartesian basis functions of B1  symmetry.
 There are    69 symmetry adapted cartesian basis functions of B2  symmetry.
 There are   114 symmetry adapted basis functions of A1  symmetry.
 There are    27 symmetry adapted basis functions of A2  symmetry.
 There are    60 symmetry adapted basis functions of B1  symmetry.
 There are    60 symmetry adapted basis functions of B2  symmetry.
   261 basis functions,   312 primitive gaussians,   312 cartesian basis functions
    13 alpha electrons        8 beta electrons
       nuclear repulsion energy        29.7662181142 Hartrees.
 IExCor=    0 DFT=F Ex=HF Corr=None ExCW=0 ScaHFX=  1.000000
 ScaDFX=  1.000000  1.000000  1.000000  1.000000 ScalE2=  1.000000  1.000000
 IRadAn=      5 IRanWt=     -1 IRanGd=            0 ICorTp=0 IEmpDi=  4
 NAtoms=    2 NActive=    2 NUniq=    2 SFac= 1.00D+00 NAtFMM=   60 NAOKFM=F Big=F
 Integral buffers will be    131072 words long.
 Raffenetti 2 integral format.
 Two-electron integral symmetry is turned on.
 Leave Link  301 at Fri Mar  9 17:06:31 2018, MaxMem= 10737418240 cpu:               4.0 elap:               0.3
 (Enter /home1/apps/gaussian/16rA.03/g16/l302.exe)
 NPDir=0 NMtPBC=     1 NCelOv=     1 NCel=       1 NClECP=     1 NCelD=      1
         NCelK=      1 NCelE2=     1 NClLst=     1 CellRange=     0.0.
 One-electron integrals computed using PRISM.
 One-electron integral symmetry used in STVInt
   4 Symmetry operations used in ECPInt.
 ECPInt:  NShTT=    3828 NPrTT=    3828 LenC2=    3535 LenP2D=    3534.
 LDataN:  DoStor=T MaxTD1= 8 Len=  415
 NBasis=   261 RedAO= T EigKep=  1.18D-06  NBF=   114    27    60    60
 NBsUse=   258 1.00D-06 EigRej=  1.74D-07 NBFU=   113    27    59    59
 Leave Link  302 at Fri Mar  9 17:06:33 2018, MaxMem= 10737418240 cpu:              15.2 elap:               1.0
 (Enter /home1/apps/gaussian/16rA.03/g16/l303.exe)
 DipDrv:  MaxL=1.
 Leave Link  303 at Fri Mar  9 17:06:33 2018, MaxMem= 10737418240 cpu:               1.1 elap:               0.2
 (Enter /home1/apps/gaussian/16rA.03/g16/l401.exe)
 Initial guess from the checkpoint file:  "MnO.chk"
 B after Tr=     0.000000    0.000000    0.000000
         Rot=    1.000000    0.000000    0.000000    0.000000 Ang=   0.00 deg.
 Guess basis will be translated and rotated to current coordinates.
 JPrj=2 DoOrth=T DoCkMO=T.
 Initial guess orbital symmetries:
       Occupied  (SG) (SG) (PI) (PI) (SG) (SG) (PI) (PI) (DLTA)
                 (DLTA) (SG) (PI) (PI)
       Virtual   (SG) (PI) (PI) (SG) (SG) (PI) (PI) (SG) (DLTA)
                 (DLTA) (PI) (PI) (SG) (SG) (PI) (PI) (SG) (PI)
                 (PI) (SG) (DLTA) (DLTA) (PI) (PI) (SG) (SG) (SG)
                 (DLTA) (DLTA) (PHI) (PHI) (PI) (PI) (PI) (PI)
                 (SG) (SG) (DLTA) (DLTA) (PI) (PI) (SG) (DLTA)
                 (DLTA) (PI) (PI) (SG) (PI) (PI) (SG) (SG) (SG)
                 (DLTA) (DLTA) (PHI) (PHI) (PI) (PI) (SG) (PHI)
                 (PHI) (DLTA) (DLTA) (PI) (PI) (DLTA) (DLTA) (PI)
                 (PI) (SG) (?A) (?A) (PI) (PI) (PHI) (PHI) (SG)
                 (DLTA) (DLTA) (SG) (PI) (PI) (DLTA) (DLTA) (SG)
                 (PI) (PI) (SG) (PI) (PI) (SG) (SG) (SG) (PHI)
                 (PHI) (DLTA) (DLTA) (PI) (PI) (PHI) (PHI) (SG)
                 (DLTA) (DLTA) (PI) (PI) (DLTA) (DLTA) (SG) (PI)
                 (PI) (DLTA) (DLTA) (SG) (PI) (PI) (SG) (PI) (PI)
                 (?A) (?A) (PHI) (PHI) (DLTA) (DLTA) (PI) (PI)
                 (SG) (SG) (SG) (DLTA) (DLTA) (PI) (PI) (SG) (PI)
                 (PI) (SG) (SG) (PHI) (PHI) (DLTA) (DLTA) (PI)
                 (PI) (SG) (PI) (PI) (SG) (?A) (?A) (PHI) (PHI)
                 (DLTA) (DLTA) (PI) (PI) (SG) (DLTA) (DLTA) (PI)
                 (PI) (SG) (SG) (PI) (PI) (SG) (SG) (DLTA) (DLTA)
                 (PI) (PI) (SG) (PI) (PI) (DLTA) (DLTA) (SG) (PI)
                 (PI) (SG) (SG) (PI) (PI) (SG) (SG) (DLTA) (DLTA)
                 (PI) (PI) (SG) (SG) (PI) (PI) (SG) (PI) (PI) (SG)
                 (SG) (SG) (PI) (PI) (SG) (SG) (PI) (PI) (SG) (SG)
                 (DLTA) (DLTA) (PI) (PI) (SG) (PI) (PI) (SG) (SG)
                 (SG) (PI) (PI) (SG) (SG) (SG) (PI) (PI) (SG) (SG)
                 (PI) (PI) (SG) (SG) (SG) (PI) (PI) (SG) (SG) (SG)
                 (SG) (PI) (PI) (SG) (SG) (SG) (SG) (SG)
 The electronic state of the initial guess is 6-SG.
 Leave Link  401 at Fri Mar  9 17:06:34 2018, MaxMem= 10737418240 cpu:               6.6 elap:               0.5
 (Enter /home1/apps/gaussian/16rA.03/g16/l502.exe)
 Keep R1 and R2 ints in memory in symmetry-blocked form, NReq=734602573.
 FoFCou: FMM=F IPFlag=           8 FMFlag=           0 FMFlg1=           0
         NFxFlg=           0 DoJE=F BraDBF=F KetDBF=F FulRan=T
         wScrn=  0.000000 ICntrl=       600 IOpCl=  0 I1Cent=           0 NGrid=           0
         NMat0=    1 NMatS0=  34191 NMatT0=    0 NMatD0=    1 NMtDS0=    0 NMtDT0=    0
 Petite list used in FoFCou.
 Restricted open shell SCF:
 Using DIIS extrapolation, IDIIS=  1040.
 NGot= 10737418240 LenX= 10437151885 LenY= 10437054100
 Requested convergence on RMS density matrix=1.00D-08 within 300 cycles.
 Requested convergence on MAX density matrix=1.00D-06.
 Requested convergence on             energy=1.00D-06.
 No special actions if energy rises.

 Cycle   1  Pass 1  IDiag  1:
 E= -119.177992224487    
 DIIS: error= 1.60D-03 at cycle   1 NSaved=   1.
 NSaved= 1 IEnMin= 1 EnMin= -119.177992224487     IErMin= 1 ErrMin= 1.60D-03
 ErrMax= 1.60D-03  0.00D+00 EMaxC= 1.00D-01 BMatC= 3.80D-04 BMatP= 3.80D-04
 IDIUse=3 WtCom= 9.84D-01 WtEn= 1.60D-02
 Coeff-Com:  0.100D+01
 Coeff-En:   0.100D+01
 Coeff:      0.100D+01
 Gap=     0.053 Goal=   None    Shift=    0.000
 GapD=    0.053 DampG=0.500 DampE=1.000 DampFc=0.5000 IDamp=-1.
 Damping current iteration by 5.00D-01
 RMSDP=2.38D-05 MaxDP=1.45D-03              OVMax= 1.60D-03

 Cycle   2  Pass 1  IDiag  1:
 E= -119.178007171531     Delta-E=       -0.000014947044 Rises=F Damp=T
 DIIS: error= 7.98D-04 at cycle   2 NSaved=   2.
 NSaved= 2 IEnMin= 2 EnMin= -119.178007171531     IErMin= 2 ErrMin= 7.98D-04
 ErrMax= 7.98D-04  0.00D+00 EMaxC= 1.00D-01 BMatC= 9.22D-05 BMatP= 3.80D-04
 IDIUse=3 WtCom= 9.92D-01 WtEn= 7.98D-03
 Coeff-Com: -0.825D+00 0.182D+01
 Coeff-En:   0.000D+00 0.100D+01
 Coeff:     -0.818D+00 0.182D+01
 Gap=     0.051 Goal=   None    Shift=    0.000
 RMSDP=4.04D-05 MaxDP=2.31D-03 DE=-1.49D-05 OVMax= 1.69D-02

 Cycle   3  Pass 1  IDiag  1:
 E= -119.177905194040     Delta-E=        0.000101977491 Rises=F Damp=F
 DIIS: error= 1.34D-03 at cycle   3 NSaved=   3.
 NSaved= 3 IEnMin= 2 EnMin= -119.178007171531     IErMin= 2 ErrMin= 7.98D-04
 ErrMax= 1.34D-03  0.00D+00 EMaxC= 1.00D-01 BMatC= 1.42D-04 BMatP= 9.22D-05
 IDIUse=3 WtCom= 2.15D-01 WtEn= 7.85D-01
 Coeff-Com: -0.741D+00 0.146D+01 0.280D+00
 Coeff-En:   0.000D+00 0.761D+00 0.239D+00
 Coeff:     -0.159D+00 0.911D+00 0.248D+00
 Gap=     0.053 Goal=   None    Shift=    0.000
 RMSDP=5.64D-05 MaxDP=4.67D-03 DE= 1.02D-04 OVMax= 2.07D-02

 Cycle   4  Pass 1  IDiag  1:
 E= -119.178002945042     Delta-E=       -0.000097751002 Rises=F Damp=F
 DIIS: error= 4.63D-04 at cycle   4 NSaved=   4.
 NSaved= 4 IEnMin= 2 EnMin= -119.178007171531     IErMin= 4 ErrMin= 4.63D-04
 ErrMax= 4.63D-04  0.00D+00 EMaxC= 1.00D-01 BMatC= 2.04D-05 BMatP= 9.22D-05
 IDIUse=3 WtCom= 9.95D-01 WtEn= 4.63D-03
 Coeff-Com: -0.331D+00 0.639D+00 0.275D+00 0.417D+00
 Coeff-En:   0.000D+00 0.000D+00 0.353D+00 0.647D+00
 Coeff:     -0.329D+00 0.636D+00 0.275D+00 0.418D+00
 Gap=     0.053 Goal=   None    Shift=    0.000
 RMSDP=4.20D-05 MaxDP=3.66D-03 DE=-9.78D-05 OVMax= 8.14D-03

 Cycle   5  Pass 1  IDiag  1:
 E= -119.178023820684     Delta-E=       -0.000020875642 Rises=F Damp=F
 DIIS: error= 8.89D-05 at cycle   5 NSaved=   5.
 NSaved= 5 IEnMin= 5 EnMin= -119.178023820684     IErMin= 5 ErrMin= 8.89D-05
 ErrMax= 8.89D-05  0.00D+00 EMaxC= 1.00D-01 BMatC= 1.19D-06 BMatP= 2.04D-05
 IDIUse=1 WtCom= 1.00D+00 WtEn= 0.00D+00
 Coeff-Com:  0.140D-01-0.383D-01 0.138D+00 0.390D+00 0.496D+00
 Coeff:      0.140D-01-0.383D-01 0.138D+00 0.390D+00 0.496D+00
 Gap=     0.052 Goal=   None    Shift=    0.000
 RMSDP=2.53D-05 MaxDP=1.57D-03 DE=-2.09D-05 OVMax= 1.78D-03

 Cycle   6  Pass 1  IDiag  1:
 E= -119.178025937540     Delta-E=       -0.000002116856 Rises=F Damp=F
 DIIS: error= 3.79D-05 at cycle   6 NSaved=   6.
 NSaved= 6 IEnMin= 6 EnMin= -119.178025937540     IErMin= 6 ErrMin= 3.79D-05
 ErrMax= 3.79D-05  0.00D+00 EMaxC= 1.00D-01 BMatC= 2.23D-07 BMatP= 1.19D-06
 IDIUse=1 WtCom= 1.00D+00 WtEn= 0.00D+00
 Coeff-Com:  0.439D-01-0.918D-01 0.640D-01 0.182D+00 0.299D+00 0.503D+00
 Coeff:      0.439D-01-0.918D-01 0.640D-01 0.182D+00 0.299D+00 0.503D+00
 Gap=     0.052 Goal=   None    Shift=    0.000
 RMSDP=1.02D-05 MaxDP=5.46D-04 DE=-2.12D-06 OVMax= 8.70D-04

 Cycle   7  Pass 1  IDiag  1:
 E= -119.178025907001     Delta-E=        0.000000030539 Rises=F Damp=F
 DIIS: error= 3.56D-05 at cycle   7 NSaved=   7.
 NSaved= 7 IEnMin= 6 EnMin= -119.178025937540     IErMin= 7 ErrMin= 3.56D-05
 ErrMax= 3.56D-05  0.00D+00 EMaxC= 1.00D-01 BMatC= 1.58D-07 BMatP= 2.23D-07
 IDIUse=1 WtCom= 1.00D+00 WtEn= 0.00D+00
 Coeff-Com:  0.161D-01-0.344D-01 0.351D-01 0.641D-01 0.127D+00 0.436D+00
 Coeff-Com:  0.356D+00
 Coeff:      0.161D-01-0.344D-01 0.351D-01 0.641D-01 0.127D+00 0.436D+00
 Coeff:      0.356D+00
 Gap=     0.052 Goal=   None    Shift=    0.000
 RMSDP=7.80D-06 MaxDP=5.47D-04 DE= 3.05D-08 OVMax= 9.73D-04

 Cycle   8  Pass 1  IDiag  1:
 E= -119.178026204414     Delta-E=       -0.000000297413 Rises=F Damp=F
 DIIS: error= 1.18D-05 at cycle   8 NSaved=   8.
 NSaved= 8 IEnMin= 8 EnMin= -119.178026204414     IErMin= 8 ErrMin= 1.18D-05
 ErrMax= 1.18D-05  0.00D+00 EMaxC= 1.00D-01 BMatC= 2.08D-08 BMatP= 1.58D-07
 IDIUse=1 WtCom= 1.00D+00 WtEn= 0.00D+00
 Coeff-Com: -0.217D-02 0.333D-02 0.144D-01 0.509D-02 0.243D-01 0.208D+00
 Coeff-Com:  0.290D+00 0.458D+00
 Coeff:     -0.217D-02 0.333D-02 0.144D-01 0.509D-02 0.243D-01 0.208D+00
 Coeff:      0.290D+00 0.458D+00
 Gap=     0.052 Goal=   None    Shift=    0.000
 RMSDP=3.45D-06 MaxDP=2.60D-04 DE=-2.97D-07 OVMax= 2.11D-04

 Cycle   9  Pass 1  IDiag  1:
 E= -119.178026241711     Delta-E=       -0.000000037297 Rises=F Damp=F
 DIIS: error= 7.21D-06 at cycle   9 NSaved=   9.
 NSaved= 9 IEnMin= 9 EnMin= -119.178026241711     IErMin= 9 ErrMin= 7.21D-06
 ErrMax= 7.21D-06  0.00D+00 EMaxC= 1.00D-01 BMatC= 5.38D-09 BMatP= 2.08D-08
 IDIUse=1 WtCom= 1.00D+00 WtEn= 0.00D+00
 Coeff-Com: -0.758D-03 0.170D-02-0.294D-02-0.111D-01-0.122D-01 0.289D-01
 Coeff-Com:  0.106D+00 0.270D+00 0.620D+00
 Coeff:     -0.758D-03 0.170D-02-0.294D-02-0.111D-01-0.122D-01 0.289D-01
 Coeff:      0.106D+00 0.270D+00 0.620D+00
 Gap=     0.052 Goal=   None    Shift=    0.000
 RMSDP=1.26D-06 MaxDP=1.14D-04 DE=-3.73D-08 OVMax= 8.06D-05

 Cycle  10  Pass 1  IDiag  1:
 E= -119.178026249251     Delta-E=       -0.000000007540 Rises=F Damp=F
 DIIS: error= 4.79D-06 at cycle  10 NSaved=  10.
 NSaved=10 IEnMin=10 EnMin= -119.178026249251     IErMin=10 ErrMin= 4.79D-06
 ErrMax= 4.79D-06  0.00D+00 EMaxC= 1.00D-01 BMatC= 2.88D-09 BMatP= 5.38D-09
 IDIUse=1 WtCom= 1.00D+00 WtEn= 0.00D+00
 Coeff-Com:  0.547D-02-0.995D-02-0.132D-01-0.922D-02-0.165D-01-0.737D-01
 Coeff-Com: -0.622D-01-0.106D+00 0.388D+00 0.896D+00
 Coeff:      0.547D-02-0.995D-02-0.132D-01-0.922D-02-0.165D-01-0.737D-01
 Coeff:     -0.622D-01-0.106D+00 0.388D+00 0.896D+00
 Gap=     0.052 Goal=   None    Shift=    0.000
 RMSDP=8.99D-07 MaxDP=7.63D-05 DE=-7.54D-09 OVMax= 8.83D-05

 Cycle  11  Pass 1  IDiag  1:
 E= -119.178026255744     Delta-E=       -0.000000006493 Rises=F Damp=F
 DIIS: error= 1.71D-06 at cycle  11 NSaved=  11.
 NSaved=11 IEnMin=11 EnMin= -119.178026255744     IErMin=11 ErrMin= 1.71D-06
 ErrMax= 1.71D-06  0.00D+00 EMaxC= 1.00D-01 BMatC= 5.71D-10 BMatP= 2.88D-09
 IDIUse=1 WtCom= 1.00D+00 WtEn= 0.00D+00
 Coeff-Com:  0.408D-02-0.760D-02-0.704D-02-0.900D-03-0.372D-02-0.566D-01
 Coeff-Com: -0.826D-01-0.213D+00-0.362D-01 0.586D+00 0.818D+00
 Coeff:      0.408D-02-0.760D-02-0.704D-02-0.900D-03-0.372D-02-0.566D-01
 Coeff:     -0.826D-01-0.213D+00-0.362D-01 0.586D+00 0.818D+00
 Gap=     0.052 Goal=   None    Shift=    0.000
 RMSDP=6.91D-07 MaxDP=4.73D-05 DE=-6.49D-09 OVMax= 8.35D-05

 Cycle  12  Pass 1  IDiag  1:
 E= -119.178026258176     Delta-E=       -0.000000002432 Rises=F Damp=F
 DIIS: error= 1.87D-06 at cycle  12 NSaved=  12.
 NSaved=12 IEnMin=12 EnMin= -119.178026258176     IErMin=11 ErrMin= 1.71D-06
 ErrMax= 1.87D-06  0.00D+00 EMaxC= 1.00D-01 BMatC= 3.31D-10 BMatP= 5.71D-10
 IDIUse=1 WtCom= 1.00D+00 WtEn= 0.00D+00
 Coeff-Com:  0.288D-02-0.573D-02 0.238D-03 0.507D-02 0.772D-02-0.811D-02
 Coeff-Com: -0.376D-01-0.147D+00-0.224D+00 0.693D-01 0.657D+00 0.680D+00
 Coeff:      0.288D-02-0.573D-02 0.238D-03 0.507D-02 0.772D-02-0.811D-02
 Coeff:     -0.376D-01-0.147D+00-0.224D+00 0.693D-01 0.657D+00 0.680D+00
 Gap=     0.052 Goal=   None    Shift=    0.000
 RMSDP=3.85D-07 MaxDP=2.65D-05 DE=-2.43D-09 OVMax= 4.06D-05

 Cycle  13  Pass 1  IDiag  1:
 E= -119.178026259055     Delta-E=       -0.000000000879 Rises=F Damp=F
 DIIS: error= 8.86D-07 at cycle  13 NSaved=  13.
 NSaved=13 IEnMin=13 EnMin= -119.178026259055     IErMin=13 ErrMin= 8.86D-07
 ErrMax= 8.86D-07  0.00D+00 EMaxC= 1.00D-01 BMatC= 9.67D-11 BMatP= 3.31D-10
 IDIUse=1 WtCom= 1.00D+00 WtEn= 0.00D+00
 Coeff-Com:  0.216D-02-0.433D-02 0.780D-03 0.390D-02 0.589D-02 0.347D-02
 Coeff-Com: -0.977D-02-0.680D-01-0.131D+00-0.314D-01 0.304D+00 0.382D+00
 Coeff-Com:  0.541D+00
 Coeff:      0.216D-02-0.433D-02 0.780D-03 0.390D-02 0.589D-02 0.347D-02
 Coeff:     -0.977D-02-0.680D-01-0.131D+00-0.314D-01 0.304D+00 0.382D+00
 Coeff:      0.541D+00
 Gap=     0.052 Goal=   None    Shift=    0.000
 RMSDP=2.79D-07 MaxDP=1.76D-05 DE=-8.79D-10 OVMax= 3.20D-05

 Cycle  14  Pass 1  IDiag  1:
 E= -119.178026259001     Delta-E=        0.000000000054 Rises=F Damp=F
 DIIS: error= 1.41D-06 at cycle  14 NSaved=  14.
 NSaved=14 IEnMin=13 EnMin= -119.178026259055     IErMin=13 ErrMin= 8.86D-07
 ErrMax= 1.41D-06  0.00D+00 EMaxC= 1.00D-01 BMatC= 1.41D-10 BMatP= 9.67D-11
 IDIUse=1 WtCom= 1.00D+00 WtEn= 0.00D+00
 Coeff-Com:  0.143D-02-0.287D-02 0.438D-03 0.202D-02 0.278D-02 0.760D-02
 Coeff-Com:  0.886D-02-0.477D-02-0.256D-01-0.632D-01 0.703D-02 0.523D-01
 Coeff-Com:  0.626D+00 0.388D+00
 Coeff:      0.143D-02-0.287D-02 0.438D-03 0.202D-02 0.278D-02 0.760D-02
 Coeff:      0.886D-02-0.477D-02-0.256D-01-0.632D-01 0.703D-02 0.523D-01
 Coeff:      0.626D+00 0.388D+00
 Gap=     0.052 Goal=   None    Shift=    0.000
 RMSDP=1.44D-07 MaxDP=1.33D-05 DE= 5.39D-11 OVMax= 2.78D-05

 Cycle  15  Pass 1  IDiag  1:
 E= -119.178026259216     Delta-E=       -0.000000000215 Rises=F Damp=F
 DIIS: error= 5.35D-07 at cycle  15 NSaved=  15.
 NSaved=15 IEnMin=15 EnMin= -119.178026259216     IErMin=15 ErrMin= 5.35D-07
 ErrMax= 5.35D-07  0.00D+00 EMaxC= 1.00D-01 BMatC= 3.85D-11 BMatP= 9.67D-11
 IDIUse=1 WtCom= 1.00D+00 WtEn= 0.00D+00
 Coeff-Com:  0.936D-03-0.186D-02-0.168D-03 0.648D-03 0.694D-03 0.492D-02
 Coeff-Com:  0.108D-01 0.142D-01 0.263D-01-0.390D-01-0.960D-01-0.982D-01
 Coeff-Com:  0.372D+00 0.350D+00 0.454D+00
 Coeff:      0.936D-03-0.186D-02-0.168D-03 0.648D-03 0.694D-03 0.492D-02
 Coeff:      0.108D-01 0.142D-01 0.263D-01-0.390D-01-0.960D-01-0.982D-01
 Coeff:      0.372D+00 0.350D+00 0.454D+00
 Gap=     0.052 Goal=   None    Shift=    0.000
 RMSDP=1.32D-07 MaxDP=9.21D-06 DE=-2.15D-10 OVMax= 8.37D-06

 Cycle  16  Pass 1  IDiag  1:
 E= -119.178026259273     Delta-E=       -0.000000000057 Rises=F Damp=F
 DIIS: error= 3.27D-07 at cycle  16 NSaved=  16.
 NSaved=16 IEnMin=16 EnMin= -119.178026259273     IErMin=16 ErrMin= 3.27D-07
 ErrMax= 3.27D-07  0.00D+00 EMaxC= 1.00D-01 BMatC= 9.97D-12 BMatP= 3.85D-11
 IDIUse=1 WtCom= 1.00D+00 WtEn= 0.00D+00
 Coeff-Com:  0.298D-03-0.551D-03-0.797D-03-0.626D-03-0.851D-03-0.184D-02
 Coeff-Com:  0.160D-02 0.820D-02 0.441D-01 0.211D-01-0.821D-01-0.130D+00
 Coeff-Com: -0.140D+00 0.355D-02 0.311D+00 0.968D+00
 Coeff:      0.298D-03-0.551D-03-0.797D-03-0.626D-03-0.851D-03-0.184D-02
 Coeff:      0.160D-02 0.820D-02 0.441D-01 0.211D-01-0.821D-01-0.130D+00
 Coeff:     -0.140D+00 0.355D-02 0.311D+00 0.968D+00
 Gap=     0.052 Goal=   None    Shift=    0.000
 RMSDP=5.42D-08 MaxDP=4.13D-06 DE=-5.68D-11 OVMax= 6.26D-06

 Cycle  17  Pass 1  IDiag  1:
 E= -119.178026259288     Delta-E=       -0.000000000015 Rises=F Damp=F
 DIIS: error= 1.15D-07 at cycle  17 NSaved=  17.
 NSaved=17 IEnMin=17 EnMin= -119.178026259288     IErMin=17 ErrMin= 1.15D-07
 ErrMax= 1.15D-07  0.00D+00 EMaxC= 1.00D-01 BMatC= 1.29D-12 BMatP= 9.97D-12
 IDIUse=1 WtCom= 1.00D+00 WtEn= 0.00D+00
 Coeff-Com:  0.884D-04-0.151D-03-0.486D-03-0.448D-03-0.514D-03-0.193D-02
 Coeff-Com: -0.916D-03 0.145D-02 0.228D-01 0.210D-01-0.306D-01-0.649D-01
 Coeff-Com: -0.143D+00-0.547D-01 0.104D+00 0.575D+00 0.574D+00
 Coeff:      0.884D-04-0.151D-03-0.486D-03-0.448D-03-0.514D-03-0.193D-02
 Coeff:     -0.916D-03 0.145D-02 0.228D-01 0.210D-01-0.306D-01-0.649D-01
 Coeff:     -0.143D+00-0.547D-01 0.104D+00 0.575D+00 0.574D+00
 Gap=     0.052 Goal=   None    Shift=    0.000
 RMSDP=3.01D-08 MaxDP=1.92D-06 DE=-1.54D-11 OVMax= 3.47D-06

 Cycle  18  Pass 1  IDiag  1:
 E= -119.178026259291     Delta-E=       -0.000000000003 Rises=F Damp=F
 DIIS: error= 7.27D-08 at cycle  18 NSaved=  18.
 NSaved=18 IEnMin=18 EnMin= -119.178026259291     IErMin=18 ErrMin= 7.27D-08
 ErrMax= 7.27D-08  0.00D+00 EMaxC= 1.00D-01 BMatC= 6.31D-13 BMatP= 1.29D-12
 IDIUse=1 WtCom= 1.00D+00 WtEn= 0.00D+00
 Coeff-Com: -0.252D-04 0.540D-04-0.813D-04-0.143D-03-0.830D-04-0.843D-03
 Coeff-Com: -0.140D-02-0.292D-02-0.972D-03 0.842D-02 0.136D-01 0.268D-02
 Coeff-Com: -0.452D-01-0.418D-01-0.664D-01-0.259D-01 0.448D+00 0.713D+00
 Coeff:     -0.252D-04 0.540D-04-0.813D-04-0.143D-03-0.830D-04-0.843D-03
 Coeff:     -0.140D-02-0.292D-02-0.972D-03 0.842D-02 0.136D-01 0.268D-02
 Coeff:     -0.452D-01-0.418D-01-0.664D-01-0.259D-01 0.448D+00 0.713D+00
 Gap=     0.052 Goal=   None    Shift=    0.000
 RMSDP=1.70D-08 MaxDP=1.28D-06 DE=-2.73D-12 OVMax= 1.43D-06

 Cycle  19  Pass 1  IDiag  1:
 E= -119.178026259292     Delta-E=       -0.000000000001 Rises=F Damp=F
 DIIS: error= 4.19D-08 at cycle  19 NSaved=  19.
 NSaved=19 IEnMin=19 EnMin= -119.178026259292     IErMin=19 ErrMin= 4.19D-08
 ErrMax= 4.19D-08  0.00D+00 EMaxC= 1.00D-01 BMatC= 2.51D-13 BMatP= 6.31D-13
 IDIUse=1 WtCom= 1.00D+00 WtEn= 0.00D+00
 Coeff-Com: -0.227D-04 0.450D-04 0.106D-04-0.608D-04-0.184D-04-0.304D-03
 Coeff-Com: -0.807D-03-0.237D-02-0.461D-02 0.268D-02 0.159D-01 0.126D-01
 Coeff-Com: -0.498D-02-0.203D-01-0.752D-01-0.150D+00 0.245D+00 0.545D+00
 Coeff-Com:  0.438D+00
 Coeff:     -0.227D-04 0.450D-04 0.106D-04-0.608D-04-0.184D-04-0.304D-03
 Coeff:     -0.807D-03-0.237D-02-0.461D-02 0.268D-02 0.159D-01 0.126D-01
 Coeff:     -0.498D-02-0.203D-01-0.752D-01-0.150D+00 0.245D+00 0.545D+00
 Coeff:      0.438D+00
 Gap=     0.052 Goal=   None    Shift=    0.000
 RMSDP=8.90D-09 MaxDP=5.76D-07 DE=-1.31D-12 OVMax= 1.04D-06

 SCF Done:  E(ROHF) =  -119.178026259     A.U. after   19 cycles
            NFock= 19  Conv=0.89D-08     -V/T= 2.7226
 <Sx>= 0.0000 <Sy>= 0.0000 <Sz>= 2.5000 <S**2>= 8.7500 S= 2.5000
 <L.S>=  0.00000000000    
 KE= 6.918320275860D+01 PE=-3.363728374536D+02 EE= 1.182453903215D+02
 Annihilation of the first spin contaminant:
 S**2 before annihilation     8.7500,   after     8.7500
 Leave Link  502 at Fri Mar  9 17:07:03 2018, MaxMem= 10737418240 cpu:             403.0 elap:              28.9
 (Enter /home1/apps/gaussian/16rA.03/g16/l801.exe)
 Windowed orbitals will be sorted by symmetry type.
 GenMOA:  NOpAll=  4 NOp2=4 NOpUse=  4 JSym2X=1
 FoFJK:  IHMeth= 1 ICntrl=       0 DoSepK=F KAlg= 0 I1Cent=           0 FoldK=F
 IRaf=         0 NMat=       1 IRICut=       1 DoRegI=T DoRafI=F ISym2E= 1 IDoP0=0 IntGTp=1.
 FoFCou: FMM=F IPFlag=           8 FMFlag=      100000 FMFlg1=           0
         NFxFlg=           0 DoJE=F BraDBF=F KetDBF=F FulRan=T
         wScrn=  0.000000 ICntrl=         0 IOpCl=  1 I1Cent=           0 NGrid=           0
         NMat0=    1 NMatS0=      1 NMatT0=    0 NMatD0=    1 NMtDS0=    0 NMtDT0=    0
 Petite list used in FoFCou.
 <Sx>= 0.0000 <Sy>= 0.0000 <Sz>= 2.5000 <S**2>= 8.7500 S= 2.5000
 Range of M.O.s used for correlation:     1   258
 NBasis=   261 NAE=    13 NBE=     8 NFC=     0 NFV=     0
 NROrb=    258 NOA=    13 NOB=     8 NVA=   245 NVB=   250

 **** Warning!!: The largest alpha MO coefficient is  0.32598634D+03


 **** Warning!!: The largest beta MO coefficient is  0.32533218D+03

 Singles contribution to E2=   -0.8568117007D-02
 Leave Link  801 at Fri Mar  9 17:07:10 2018, MaxMem= 10737418240 cpu:              99.8 elap:               6.3
 (Enter /home1/apps/gaussian/16rA.03/g16/l804.exe)
 Open-shell transformation, MDV= 10737418240 ITran=4 ISComp=2.
 Unit  1 TFree=       2053412 TCopy=        917940.
 Semi-Direct transformation.
 ModeAB=           4 MOrb=            13 LenV=   10735348893
 LASXX=     27714387 LTotXX=    27714387 LenRXX=    55891917
 LTotAB=    28177530 MaxLAS=   161572242 LenRXY=           0
 NonZer=    83606304 LenScr=   126157824 LnRSAI=   161572242
 LnScr1=   243309568 LExtra=    11236859 Total=    598168410
 MaxDsk= 67108864000 SrtSym=           T ITran=            4
 DoSDTr:  NPSUse= 16
 JobTyp=1 Pass  1:  I=   1 to  13.
 (rs|ai) integrals will be sorted in core.
 Complete sort for first half transformation.
 First half transformation complete.
 Begin second half transformation for I=  10.
 Complete sort for second half transformation.
 Second half transformation complete.
 ModeAB=           4 MOrb=             8 LenV=   10735348893
 LASXX=     17386166 LTotXX=    17386166 LenRXX=    33303734
 LTotAB=    15917568 MaxLAS=    99429072 LenRXY=           0
 NonZer=    50689900 LenScr=    76800000 LnRSAI=    99429072
 LnScr1=   149915136 LExtra=    67128776 Total=    426576718
 MaxDsk= 67108864000 SrtSym=           T ITran=            4
 DoSDTr:  NPSUse= 16
 JobTyp=2 Pass  1:  I=   1 to   8.
 (rs|ai) integrals will be sorted in core.
 Complete sort for first half transformation.
 First half transformation complete.
 Complete sort for second half transformation.
 Second half transformation complete.
 Spin components of T(2) and E(2):
     alpha-alpha T2 =       0.4243242970D-01 E2=     -0.1953112761D+00
     alpha-beta  T2 =       0.1280898934D+00 E2=     -0.6095958287D+00
     beta-beta   T2 =       0.2463150388D-01 E2=     -0.9140077925D-01
 ANorm=    0.1098295186D+01
 E2 =    -0.9048760011D+00 EUMP2 =    -0.12008290226036D+03
 (S**2,0)=  0.87500D+01           (S**2,1)=  0.87500D+01
 E(PUHF)=      -0.11917802626D+03        E(PMP2)=      -0.12008290226D+03
 Leave Link  804 at Fri Mar  9 17:09:26 2018, MaxMem= 10737418240 cpu:            2170.2 elap:             135.9
 (Enter /home1/apps/gaussian/16rA.03/g16/l913.exe)
 CIDS:  MDV= 10737418240.
 IFCWin=0 IBDFC=1 NFBD=     0     0 NFCmp=     0     0 NFFFC=     0     0
 Using original routines for 1st iteration.
 Using DD4UQ or CC4UQ for 2nd and later iterations.
 Keep R2 and R3 ints in memory in symmetry-blocked form, NReq=734617805.
 FoFCou: FMM=F IPFlag=           8 FMFlag=           0 FMFlg1=           0
         NFxFlg=           0 DoJE=F BraDBF=F KetDBF=F FulRan=T
         wScrn=  0.000000 ICntrl=       600 IOpCl=  0 I1Cent=           0 NGrid=           0
         NMat0=    1 NMatS0=  34191 NMatT0=    0 NMatD0=    1 NMtDS0=    0 NMtDT0=    0
 Petite list used in FoFCou.
 CIDS: In Core Option IDoMem=           1.
 CCSD(T)
 =======
 Iterations= 150 Convergence= 0.100D-06
 Produce multiple copies of IABC intergrals
 Iteration Nr.   1
 **********************
 DD1Dir will call FoFMem   1 times, MxPair=       314
 NAB=   104 NAA=    78 NBB=    28.
 DD1Dir will call FoFMem   1 times, MxPair=       314
 NAB=   104 NAA=    78 NBB=    28.
 MP4(R+Q)= -0.30362964D-01
 Maximum subspace dimension=  5
 A-vector RMS=  9.8623424D-04 Max=  1.8299467D-02 conv= 1.00D-05.
 RLE energy=       -0.8858043902
 E3=        0.48394169D-01        EROMP3=      -0.12003450809D+03
 E4(SDQ)=  -0.43985658D-01        ROMP4(SDQ)=  -0.12007849375D+03
 VARIATIONAL ENERGIES WITH THE FIRST-ORDER WAVEFUNCTION:
 DE(Corr)= -0.88538387     E(Corr)=     -120.06341013    
 NORM(A)=   0.10886434D+01
 Iteration Nr.   2
 **********************
 DD1Dir will call FoFMem   1 times, MxPair=       314
 NAB=   104 NAA=    78 NBB=    28.
 A-vector RMS=  6.0779200D-03 Max=  1.0899348D-01 conv= 1.00D-05.
 RLE energy=       -0.8633135950
 DE(Corr)= -0.83553554     E(CORR)=     -120.01356180     Delta= 4.98D-02
 NORM(A)=   0.10867973D+01
 Iteration Nr.   3
 **********************
 DD1Dir will call FoFMem   1 times, MxPair=       314
 NAB=   104 NAA=    78 NBB=    28.
 A-vector RMS=  2.6407789D-03 Max=  5.1115256D-02 conv= 1.00D-05.
 RLE energy=       -0.8813636857
 DE(Corr)= -0.86041833     E(CORR)=     -120.03844459     Delta=-2.49D-02
 NORM(A)=   0.10923411D+01
 Iteration Nr.   4
 **********************
 DD1Dir will call FoFMem   1 times, MxPair=       314
 NAB=   104 NAA=    78 NBB=    28.
 A-vector RMS=  4.6721219D-03 Max=  9.1336068D-02 conv= 1.00D-05.
 RLE energy=       -0.8832478285
 DE(Corr)= -0.85038342     E(CORR)=     -120.02840968     Delta= 1.00D-02
 NORM(A)=   0.11424009D+01
 Iteration Nr.   5
 **********************
 DD1Dir will call FoFMem   1 times, MxPair=       314
 NAB=   104 NAA=    78 NBB=    28.
 A-vector RMS=  1.2714913D-03 Max=  2.9697304D-02 conv= 1.00D-05.
 RLE energy=       -0.8885635508
 DE(Corr)= -0.88453315     E(CORR)=     -120.06255941     Delta=-3.41D-02
 NORM(A)=   0.11777950D+01
 Iteration Nr.   6
 **********************
 DD1Dir will call FoFMem   1 times, MxPair=       314
 NAB=   104 NAA=    78 NBB=    28.
 A-vector RMS=  6.7851229D-04 Max=  1.8000871D-02 conv= 1.00D-05.
 RLE energy=       -0.8898712533
 DE(Corr)= -0.88864334     E(CORR)=     -120.06666960     Delta=-4.11D-03
 NORM(A)=   0.11932628D+01
 Iteration Nr.   7
 **********************
 DD1Dir will call FoFMem   1 times, MxPair=       314
 NAB=   104 NAA=    78 NBB=    28.
 A-vector RMS=  5.8343314D-04 Max=  1.3591226D-02 conv= 1.00D-05.
 RLE energy=       -0.8907290921
 DE(Corr)= -0.88990801     E(CORR)=     -120.06793427     Delta=-1.26D-03
 NORM(A)=   0.12028962D+01
 Iteration Nr.   8
 **********************
 DD1Dir will call FoFMem   1 times, MxPair=       314
 NAB=   104 NAA=    78 NBB=    28.
 A-vector RMS=  2.4568462D-04 Max=  4.4411570D-03 conv= 1.00D-05.
 RLE energy=       -0.8905869891
 DE(Corr)= -0.89054511     E(CORR)=     -120.06857137     Delta=-6.37D-04
 NORM(A)=   0.12063994D+01
 Iteration Nr.   9
 **********************
 DD1Dir will call FoFMem   1 times, MxPair=       314
 NAB=   104 NAA=    78 NBB=    28.
 A-vector RMS=  1.6677604D-04 Max=  3.9218640D-03 conv= 1.00D-05.
 RLE energy=       -0.8911590253
 DE(Corr)= -0.89113635     E(CORR)=     -120.06916261     Delta=-5.91D-04
 NORM(A)=   0.12076383D+01
 Iteration Nr.  10
 **********************
 DD1Dir will call FoFMem   1 times, MxPair=       314
 NAB=   104 NAA=    78 NBB=    28.
 A-vector RMS=  1.2522410D-04 Max=  2.7884777D-03 conv= 1.00D-05.
 RLE energy=       -0.8908269854
 DE(Corr)= -0.89068788     E(CORR)=     -120.06871414     Delta= 4.48D-04
 NORM(A)=   0.12090252D+01
 Iteration Nr.  11
 **********************
 DD1Dir will call FoFMem   1 times, MxPair=       314
 NAB=   104 NAA=    78 NBB=    28.
 A-vector RMS=  9.2741067D-05 Max=  1.4004474D-03 conv= 1.00D-05.
 RLE energy=       -0.8911072287
 DE(Corr)= -0.89128504     E(CORR)=     -120.06931130     Delta=-5.97D-04
 NORM(A)=   0.12089569D+01
 Iteration Nr.  12
 **********************
 DD1Dir will call FoFMem   1 times, MxPair=       314
 NAB=   104 NAA=    78 NBB=    28.
 A-vector RMS=  5.4591618D-05 Max=  1.1251716D-03 conv= 1.00D-05.
 RLE energy=       -0.8910452622
 DE(Corr)= -0.89095007     E(CORR)=     -120.06897633     Delta= 3.35D-04
 NORM(A)=   0.12091872D+01
 Iteration Nr.  13
 **********************
 DD1Dir will call FoFMem   1 times, MxPair=       314
 NAB=   104 NAA=    78 NBB=    28.
 A-vector RMS=  2.3219311D-05 Max=  4.6405900D-04 conv= 1.00D-05.
 RLE energy=       -0.8910391542
 DE(Corr)= -0.89105201     E(CORR)=     -120.06907827     Delta=-1.02D-04
 NORM(A)=   0.12093202D+01
 Iteration Nr.  14
 **********************
 DD1Dir will call FoFMem   1 times, MxPair=       314
 NAB=   104 NAA=    78 NBB=    28.
 A-vector RMS=  2.0860800D-05 Max=  5.8561843D-04 conv= 1.00D-05.
 RLE energy=       -0.8910411174
 DE(Corr)= -0.89104981     E(CORR)=     -120.06907607     Delta= 2.20D-06
 NORM(A)=   0.12092330D+01
 Iteration Nr.  15
 **********************
 DD1Dir will call FoFMem   1 times, MxPair=       314
 NAB=   104 NAA=    78 NBB=    28.
 A-vector RMS=  9.1363960D-06 Max=  1.8664849D-04 conv= 1.00D-05.
 RLE energy=       -0.8910432798
 DE(Corr)= -0.89103555     E(CORR)=     -120.06906181     Delta= 1.43D-05
 NORM(A)=   0.12092180D+01
 Iteration Nr.  16
 **********************
 DD1Dir will call FoFMem   1 times, MxPair=       314
 NAB=   104 NAA=    78 NBB=    28.
 A-vector RMS=  9.3120948D-06 Max=  2.8803239D-04 conv= 1.00D-05.
 RLE energy=       -0.8910103079
 DE(Corr)= -0.89101899     E(CORR)=     -120.06904525     Delta= 1.66D-05
 NORM(A)=   0.12091548D+01
 Iteration Nr.  17
 **********************
 DD1Dir will call FoFMem   1 times, MxPair=       314
 NAB=   104 NAA=    78 NBB=    28.
 A-vector RMS=  7.2491718D-06 Max=  1.4919903D-04 conv= 1.00D-05.
 RLE energy=       -0.8910305084
 DE(Corr)= -0.89103705     E(CORR)=     -120.06906331     Delta=-1.81D-05
 NORM(A)=   0.12090735D+01
 Iteration Nr.  18
 **********************
 DD1Dir will call FoFMem   1 times, MxPair=       314
 NAB=   104 NAA=    78 NBB=    28.
 A-vector RMS=  5.9200099D-06 Max=  1.1855454D-04 conv= 1.00D-05.
 RLE energy=       -0.8910107569
 DE(Corr)= -0.89100146     E(CORR)=     -120.06902772     Delta= 3.56D-05
 NORM(A)=   0.12090317D+01
 Iteration Nr.  19
 **********************
 DD1Dir will call FoFMem   1 times, MxPair=       314
 NAB=   104 NAA=    78 NBB=    28.
 A-vector RMS=  3.2379696D-06 Max=  6.7919754D-05 conv= 1.00D-05.
 RLE energy=       -0.8910080774
 DE(Corr)= -0.89101322     E(CORR)=     -120.06903948     Delta=-1.18D-05
 NORM(A)=   0.12089939D+01
 Iteration Nr.  20
 **********************
 DD1Dir will call FoFMem   1 times, MxPair=       314
 NAB=   104 NAA=    78 NBB=    28.
 A-vector RMS=  2.3931301D-06 Max=  4.0188293D-05 conv= 1.00D-05.
 RLE energy=       -0.8910063914
 DE(Corr)= -0.89100641     E(CORR)=     -120.06903267     Delta= 6.81D-06
 NORM(A)=   0.12089580D+01
 Iteration Nr.  21
 **********************
 DD1Dir will call FoFMem   1 times, MxPair=       314
 NAB=   104 NAA=    78 NBB=    28.
 A-vector RMS=  1.6834082D-06 Max=  3.6924295D-05 conv= 1.00D-05.
 RLE energy=       -0.8910042099
 DE(Corr)= -0.89100399     E(CORR)=     -120.06903025     Delta= 2.42D-06
 NORM(A)=   0.12089380D+01
 Iteration Nr.  22
 **********************
 DD1Dir will call FoFMem   1 times, MxPair=       314
 NAB=   104 NAA=    78 NBB=    28.
 A-vector RMS=  1.1370028D-06 Max=  2.1440410D-05 conv= 1.00D-05.
 RLE energy=       -0.8910001004
 DE(Corr)= -0.89100184     E(CORR)=     -120.06902810     Delta= 2.14D-06
 NORM(A)=   0.12089211D+01
 Iteration Nr.  23
 **********************
 DD1Dir will call FoFMem   1 times, MxPair=       314
 NAB=   104 NAA=    78 NBB=    28.
 A-vector RMS=  1.0834622D-06 Max=  2.8564444D-05 conv= 1.00D-05.
 RLE energy=       -0.8910028855
 DE(Corr)= -0.89100366     E(CORR)=     -120.06902991     Delta=-1.81D-06
 NORM(A)=   0.12089132D+01
 Iteration Nr.  24
 **********************
 DD1Dir will call FoFMem   1 times, MxPair=       314
 NAB=   104 NAA=    78 NBB=    28.
 A-vector RMS=  6.4461465D-07 Max=  9.5678347D-06 conv= 1.00D-05.
 RLE energy=       -0.8910004852
 DE(Corr)= -0.89100020     E(CORR)=     -120.06902646     Delta= 3.45D-06
 NORM(A)=   0.12089109D+01
 Iteration Nr.  25
 **********************
 DD1Dir will call FoFMem   1 times, MxPair=       314
 NAB=   104 NAA=    78 NBB=    28.
 A-vector RMS=  5.7963403D-07 Max=  1.2316608D-05 conv= 1.00D-05.
 RLE energy=       -0.8910015646
 DE(Corr)= -0.89100259     E(CORR)=     -120.06902885     Delta=-2.39D-06
 NORM(A)=   0.12089109D+01
 Iteration Nr.  26
 **********************
 DD1Dir will call FoFMem   1 times, MxPair=       314
 NAB=   104 NAA=    78 NBB=    28.
 A-vector RMS=  2.8110178D-07 Max=  4.8705757D-06 conv= 1.00D-05.
 RLE energy=       -0.8910017187
 DE(Corr)= -0.89100162     E(CORR)=     -120.06902788     Delta= 9.68D-07
 NORM(A)=   0.12089108D+01
 Iteration Nr.  27
 **********************
 DD1Dir will call FoFMem   1 times, MxPair=       314
 NAB=   104 NAA=    78 NBB=    28.
 A-vector RMS=  2.6407709D-07 Max=  7.3637881D-06 conv= 1.00D-05.
 RLE energy=       -0.8910019393
 DE(Corr)= -0.89100201     E(CORR)=     -120.06902827     Delta=-3.91D-07
 NORM(A)=   0.12089124D+01
 Iteration Nr.  28
 **********************
 DD1Dir will call FoFMem   1 times, MxPair=       314
 NAB=   104 NAA=    78 NBB=    28.
 A-vector RMS=  1.3802271D-07 Max=  2.2569731D-06 conv= 1.00D-05.
 RLE energy=       -0.8910019478
 DE(Corr)= -0.89100205     E(CORR)=     -120.06902831     Delta=-3.49D-08
 NORM(A)=   0.12089137D+01
 CI/CC converged in   28 iterations to DelEn=-3.49D-08 Conv= 1.00D-07 ErrA1= 1.38D-07 Conv= 1.00D-05
 Wavefunction amplitudes converged. E(Corr)=     -120.06902831    
 Dominant configurations:
 ***********************
 Spin Case        I    J    A    B          Value
    AA           13        14            0.328722D+00
    AA           13        17            0.147437D+00
    BB            6         9           -0.108866D+00
 Largest amplitude= 3.29D-01
 Time for triples=    15666.91 seconds.
 T4(CCSD)= -0.60047147D-01
 T5(CCSD)=  0.18635560D-01
 CCSD(T)= -0.12011043989D+03
 Discarding MO integrals.
 Leave Link  913 at Fri Mar  9 17:35:51 2018, MaxMem= 10737418240 cpu:           25333.4 elap:            1584.7
 (Enter /home1/apps/gaussian/16rA.03/g16/l601.exe)
 Copying SCF densities to generalized density rwf, IOpCl= 0 IROHF=1.

 **********************************************************************

            Population analysis using the SCF density.

 **********************************************************************

 Orbital symmetries:
       Occupied  (SG) (SG) (PI) (PI) (SG) (SG) (PI) (PI) (DLTA)
                 (DLTA) (SG) (PI) (PI)
       Virtual   (SG) (PI) (PI) (SG) (SG) (PI) (PI) (SG) (DLTA)
                 (DLTA) (PI) (PI) (SG) (SG) (PI) (PI) (SG) (PI)
                 (PI) (SG) (DLTA) (DLTA) (PI) (PI) (SG) (SG) (SG)
                 (DLTA) (DLTA) (PHI) (PHI) (PI) (PI) (PI) (PI)
                 (SG) (SG) (DLTA) (DLTA) (PI) (PI) (SG) (DLTA)
                 (DLTA) (PI) (PI) (SG) (PI) (PI) (SG) (SG) (SG)
                 (DLTA) (DLTA) (PHI) (PHI) (PI) (PI) (SG) (PHI)
                 (PHI) (DLTA) (DLTA) (PI) (PI) (DLTA) (DLTA) (PI)
                 (PI) (SG) (?A) (?A) (PI) (PI) (PHI) (PHI) (SG)
                 (DLTA) (DLTA) (SG) (PI) (PI) (DLTA) (DLTA) (SG)
                 (PI) (PI) (SG) (PI) (PI) (SG) (SG) (SG) (PHI)
                 (PHI) (DLTA) (DLTA) (PI) (PI) (PHI) (PHI) (SG)
                 (DLTA) (DLTA) (PI) (PI) (DLTA) (DLTA) (SG) (PI)
                 (PI) (DLTA) (DLTA) (SG) (PI) (PI) (SG) (PI) (PI)
                 (?A) (?A) (PHI) (PHI) (DLTA) (DLTA) (PI) (PI)
                 (SG) (SG) (SG) (DLTA) (DLTA) (PI) (PI) (SG) (PI)
                 (PI) (SG) (SG) (PHI) (PHI) (DLTA) (DLTA) (PI)
                 (PI) (SG) (PI) (PI) (SG) (?A) (?A) (PHI) (PHI)
                 (DLTA) (DLTA) (PI) (PI) (SG) (DLTA) (DLTA) (PI)
                 (PI) (SG) (SG) (PI) (PI) (SG) (SG) (DLTA) (DLTA)
                 (PI) (PI) (SG) (PI) (PI) (DLTA) (DLTA) (SG) (PI)
                 (PI) (SG) (SG) (PI) (PI) (SG) (SG) (DLTA) (DLTA)
                 (PI) (PI) (SG) (SG) (PI) (PI) (SG) (PI) (PI) (SG)
                 (SG) (SG) (PI) (PI) (SG) (SG) (PI) (PI) (SG) (SG)
                 (DLTA) (DLTA) (PI) (PI) (SG) (PI) (PI) (SG) (SG)
                 (SG) (PI) (PI) (SG) (SG) (SG) (PI) (PI) (SG) (SG)
                 (PI) (PI) (SG) (SG) (SG) (PI) (PI) (SG) (SG) (SG)
                 (SG) (PI) (PI) (SG) (SG) (SG) (SG) (SG)
 The electronic state is 6-SG.
 Alpha  occ. eigenvalues --   -4.14818  -2.78832  -2.78832  -2.77946  -1.14635
 Alpha  occ. eigenvalues --   -0.64501  -0.64501  -0.62635  -0.62635  -0.56725
 Alpha  occ. eigenvalues --   -0.35114  -0.35114  -0.34087
 Alpha virt. eigenvalues --   -0.03332   0.01787   0.01787   0.02263   0.03836
 Alpha virt. eigenvalues --    0.06914   0.06914   0.08318   0.08556   0.08556
 Alpha virt. eigenvalues --    0.09673   0.09673   0.13682   0.13932   0.23309
 Alpha virt. eigenvalues --    0.23309   0.25743   0.29320   0.29684   0.29684
 Alpha virt. eigenvalues --    0.29812   0.29812   0.34616   0.34616   0.40637
 Alpha virt. eigenvalues --    0.45703   0.56633   0.72220   0.72220   0.76792
 Alpha virt. eigenvalues --    0.76792   0.77107   0.77107   0.85550   0.85550
 Alpha virt. eigenvalues --    0.86468   0.88407   0.92335   0.92335   0.95803
 Alpha virt. eigenvalues --    0.95803   1.04143   1.04301   1.04301   1.13855
 Alpha virt. eigenvalues --    1.13855   1.18658   1.43920   1.43920   1.56642
 Alpha virt. eigenvalues --    1.76600   1.93839   2.12954   2.12954   2.16273
 Alpha virt. eigenvalues --    2.16273   2.16816   2.16816   2.32759   2.32759
 Alpha virt. eigenvalues --    2.34899   2.42412   2.42412   2.48566   2.48566
 Alpha virt. eigenvalues --    2.50929   2.50929   2.62252   2.62252   2.66311
 Alpha virt. eigenvalues --    2.77918   2.77918   2.88307   2.88307   2.89620
 Alpha virt. eigenvalues --    2.89620   2.90498   2.90498   2.91569   2.99930
 Alpha virt. eigenvalues --    3.26946   3.26946   3.34255   3.34255   3.42454
 Alpha virt. eigenvalues --    3.69263   3.69263   3.91390   4.38682   4.38682
 Alpha virt. eigenvalues --    4.93080   5.43946   5.77147   6.35353   6.35353
 Alpha virt. eigenvalues --    6.39590   6.39590   6.58379   6.58379   6.65567
 Alpha virt. eigenvalues --    6.65567   6.68925   6.72111   6.72111   6.80014
 Alpha virt. eigenvalues --    6.80014   6.85104   6.85104   7.07739   7.15482
 Alpha virt. eigenvalues --    7.15482   7.20567   7.20567   7.38988   7.48232
 Alpha virt. eigenvalues --    7.48232   7.73173   7.74237   7.74237   8.16313
 Alpha virt. eigenvalues --    8.16313   8.19473   8.19473   8.34474   8.34474
 Alpha virt. eigenvalues --    8.49337   8.49337   8.61285   9.33947  12.41499
 Alpha virt. eigenvalues --   13.72074  13.72074  13.86275  13.86275  14.06787
 Alpha virt. eigenvalues --   14.94890  14.94890  15.80404  16.63984  17.32002
 Alpha virt. eigenvalues --   17.32002  17.35127  17.35127  17.56858  17.56858
 Alpha virt. eigenvalues --   17.82342  17.86262  17.86262  18.75450  21.99904
 Alpha virt. eigenvalues --   21.99904  22.01111  22.01111  22.08945  22.08945
 Alpha virt. eigenvalues --   22.17091  22.17091  22.29283  25.43821  25.43821
 Alpha virt. eigenvalues --   25.57530  25.57530  25.65457  26.02014  36.97441
 Alpha virt. eigenvalues --   36.97441  37.68755  38.44072  43.79157  43.79157
 Alpha virt. eigenvalues --   43.90688  43.90688  44.02149  45.60530  45.60530
 Alpha virt. eigenvalues --   46.56095  46.56095  46.64090  46.68878  46.68878
 Alpha virt. eigenvalues --   46.87547  53.20093  70.87984  70.87984  71.68391
 Alpha virt. eigenvalues --   74.59774 104.24638 104.24638 104.34744 104.34744
 Alpha virt. eigenvalues --  104.48588 107.74805 118.99120 118.99120 119.84568
 Alpha virt. eigenvalues --  132.63056 132.63056 133.40630 136.81354 192.62496
 Alpha virt. eigenvalues --  248.53184 248.53184 249.27076 257.56853 286.28609
 Alpha virt. eigenvalues --  286.28609 287.05605 342.12735 360.44569 360.44569
 Alpha virt. eigenvalues --  360.51036 360.51036 360.60795 479.50694 479.50694
 Alpha virt. eigenvalues --  480.21457 555.05315 645.65383 973.65023 973.65023
 Alpha virt. eigenvalues --  974.302011292.110281529.583562127.999112127.99911
 Alpha virt. eigenvalues -- 2128.582092748.322405140.945255140.945255141.44935
 Alpha virt. eigenvalues -- 5659.749856220.83974******************************
 Alpha virt. eigenvalues -- **************************************************
 Alpha virt. eigenvalues -- **************************************************
     Molecular Orbital Coefficients:
                           4         5         6         7         8
                           O         O         O         O         O
     Eigenvalues --    -2.77946  -1.14635  -0.64501  -0.64501  -0.62635
   1 1   Mn 1S          0.00000   0.00000   0.00000   0.00000   0.00000
   2        2S          0.00000  -0.00000  -0.00000   0.00000   0.00000
   3        3S          0.00000   0.00000   0.00000   0.00000   0.00000
   4        4S          0.00000  -0.00000  -0.00000   0.00000   0.00000
   5        5S          0.00000   0.00000   0.00000   0.00000   0.00000
   6        6S          0.00000  -0.00000  -0.00001   0.00000   0.00000
   7        7S          0.00000   0.00002   0.00003   0.00000   0.00000
   8        8S          0.00000  -0.00006  -0.00009   0.00000   0.00000
   9        9S          0.00000   0.00017   0.00028   0.00000   0.00000
  10       10S          0.00000  -0.00050  -0.00082   0.00000   0.00000
  11       11S          0.00000   0.00148   0.00246   0.00000   0.00000
  12       12S          0.00000  -0.00470  -0.00787   0.00000   0.00000
  13       13S          0.00000  -0.00113  -0.00272   0.00000   0.00000
  14       14S          0.00000   0.05192   0.09524   0.00000   0.00000
  15       15S          0.00000  -0.01428  -0.00519   0.00000   0.00000
  16       16S          0.00000  -0.04762  -0.12900   0.00000   0.00000
  17       17S          0.00000  -0.02543  -0.11025   0.00000   0.00000
  18       18S          0.00000   0.02853   0.19776   0.00000   0.00000
  19       19S          0.00000  -0.01590   0.13855   0.00000   0.00000
  20       20S          0.00000  -0.00194   0.02875   0.00000   0.00000
  21       21S          0.00000  -0.01153  -0.03667   0.00000   0.00000
  22       22S          0.00000  -0.06232  -0.05638   0.00000   0.00000
  23       23S          0.00000   0.00050  -0.00141   0.00000   0.00000
  24       24PX         0.00000   0.00000   0.00000  -0.00000   0.00000
  25       24PY         0.00000   0.00000   0.00000   0.00000  -0.00000
  26       24PZ         0.00000   0.00000   0.00000   0.00000   0.00000
  27       25PX        -0.00000   0.00000   0.00000   0.00000   0.00000
  28       25PY         0.00000   0.00000   0.00000   0.00000   0.00000
  29       25PZ         0.00000  -0.00000  -0.00000   0.00000   0.00000
  30       26PX         0.00002   0.00000   0.00000  -0.00000   0.00000
  31       26PY         0.00000   0.00000   0.00000   0.00000  -0.00000
  32       26PZ         0.00000   0.00000   0.00000   0.00000   0.00000
  33       27PX        -0.00007   0.00000   0.00000   0.00001   0.00000
  34       27PY         0.00000   0.00000   0.00000   0.00000   0.00001
  35       27PZ         0.00000  -0.00001  -0.00001   0.00000   0.00000
  36       28PX         0.00027   0.00000   0.00000  -0.00003   0.00000
  37       28PY         0.00000   0.00000   0.00000   0.00000  -0.00003
  38       28PZ         0.00000   0.00005   0.00004   0.00000   0.00000
  39       29PX        -0.00099   0.00000   0.00000   0.00011   0.00000
  40       29PY         0.00000   0.00000   0.00000   0.00000   0.00011
  41       29PZ         0.00000  -0.00018  -0.00016   0.00000   0.00000
  42       30PX         0.00347   0.00000   0.00000  -0.00038   0.00000
  43       30PY         0.00000   0.00000   0.00000   0.00000  -0.00038
  44       30PZ         0.00000   0.00064   0.00054   0.00000   0.00000
  45       31PX         0.00354   0.00000   0.00000  -0.00004   0.00000
  46       31PY         0.00000   0.00000   0.00000   0.00000  -0.00004
  47       31PZ         0.00000   0.00015  -0.00023   0.00000   0.00000
  48       32PX        -0.10805   0.00000   0.00000   0.00874   0.00000
  49       32PY         0.00000   0.00000   0.00000   0.00000   0.00874
  50       32PZ         0.00000  -0.01531  -0.00936   0.00000   0.00000
  51       33PX        -0.01317   0.00000   0.00000  -0.01474   0.00000
  52       33PY         0.00000   0.00000   0.00000   0.00000  -0.01474
  53       33PZ         0.00000   0.02247   0.03960   0.00000   0.00000
  54       34PX         0.33865   0.00000   0.00000  -0.02918   0.00000
  55       34PY         0.00000   0.00000   0.00000   0.00000  -0.02918
  56       34PZ         0.00000   0.04993   0.03174   0.00000   0.00000
  57       35PX         0.21505   0.00000   0.00000  -0.02522   0.00000
  58       35PY         0.00000   0.00000   0.00000   0.00000  -0.02522
  59       35PZ         0.00000   0.03816   0.03403   0.00000   0.00000
  60       36PX         0.28145   0.00000   0.00000  -0.02930   0.00000
  61       36PY         0.00000   0.00000   0.00000   0.00000  -0.02930
  62       36PZ         0.00000   0.03505   0.01835   0.00000   0.00000
  63       37PX         0.03866   0.00000   0.00000   0.03665   0.00000
  64       37PY         0.00000   0.00000   0.00000   0.00000   0.03665
  65       37PZ         0.00000  -0.00097  -0.02092   0.00000   0.00000
  66       38PX        -0.00257   0.00000   0.00000   0.07810   0.00000
  67       38PY         0.00000   0.00000   0.00000   0.00000   0.07810
  68       38PZ         0.00000   0.00565  -0.00080   0.00000   0.00000
  69       39PX         0.00149   0.00000   0.00000   0.00855   0.00000
  70       39PY         0.00000   0.00000   0.00000   0.00000   0.00855
  71       39PZ         0.00000   0.00527   0.00567   0.00000   0.00000
  72       40PX         0.04867   0.00000   0.00000   0.01019   0.00000
  73       40PY         0.00000   0.00000   0.00000   0.00000   0.01019
  74       40PZ         0.00000  -0.01510  -0.03298   0.00000   0.00000
  75       41PX         0.24620   0.00000   0.00000  -0.02381   0.00000
  76       41PY         0.00000   0.00000   0.00000   0.00000  -0.02381
  77       41PZ         0.00000   0.04428   0.03028   0.00000   0.00000
  78       42PX        -0.00043   0.00000   0.00000  -0.00136   0.00000
  79       42PY         0.00000   0.00000   0.00000   0.00000  -0.00136
  80       42PZ         0.00000  -0.00102  -0.00130   0.00000   0.00000
  81       43D 0        0.00000   0.00002   0.00007   0.00000   0.00000
  82       43D+1        0.00000   0.00000   0.00000  -0.00004   0.00000
  83       43D-1        0.00000   0.00000   0.00000   0.00000  -0.00004
  84       43D+2        0.00000  -0.00000   0.00000   0.00000   0.00000
  85       43D-2        0.00000   0.00000   0.00000   0.00000   0.00000
  86       44D 0        0.00000   0.00206   0.00632   0.00000   0.00000
  87       44D+1        0.00027   0.00000   0.00000  -0.00383   0.00000
  88       44D-1        0.00000   0.00000   0.00000   0.00000  -0.00383
  89       44D+2        0.00000   0.00000   0.00000   0.00000   0.00000
  90       44D-2        0.00000   0.00000   0.00000   0.00000   0.00000
  91       45D 0        0.00000   0.00910   0.02842   0.00000   0.00000
  92       45D+1        0.00113   0.00000   0.00000  -0.01689   0.00000
  93       45D-1        0.00000   0.00000   0.00000   0.00000  -0.01689
  94       45D+2        0.00000   0.00000   0.00000   0.00000   0.00000
  95       45D-2        0.00000   0.00000   0.00000   0.00000   0.00000
  96       46D 0        0.00000   0.02812   0.07775   0.00000   0.00000
  97       46D+1        0.00404   0.00000   0.00000  -0.05397   0.00000
  98       46D-1        0.00000   0.00000   0.00000   0.00000  -0.05397
  99       46D+2        0.00000   0.00000   0.00000   0.00000   0.00000
 100       46D-2        0.00000   0.00000   0.00000   0.00000   0.00000
 101       47D 0        0.00000  -0.05731  -0.03826   0.00000   0.00000
 102       47D+1       -0.00344   0.00000   0.00000   0.14020   0.00000
 103       47D-1        0.00000   0.00000   0.00000   0.00000   0.14020
 104       47D+2        0.00000  -0.00000   0.00000   0.00000   0.00000
 105       47D-2        0.00000   0.00000   0.00000   0.00000   0.00000
 106       48D 0        0.00000   0.04784   0.13154   0.00000   0.00000
 107       48D+1        0.00917   0.00000   0.00000  -0.08228   0.00000
 108       48D-1        0.00000   0.00000   0.00000   0.00000  -0.08228
 109       48D+2        0.00000   0.00000   0.00000   0.00000   0.00000
 110       48D-2        0.00000   0.00000   0.00000   0.00000   0.00000
 111       49D 0        0.00000   0.01833   0.08574   0.00000   0.00000
 112       49D+1        0.00413   0.00000   0.00000  -0.06047   0.00000
 113       49D-1        0.00000   0.00000   0.00000   0.00000  -0.06047
 114       49D+2        0.00000  -0.00000   0.00000   0.00000   0.00000
 115       49D-2        0.00000   0.00000   0.00000   0.00000   0.00000
 116       50D 0        0.00000  -0.00315   0.00701   0.00000   0.00000
 117       50D+1        0.00002   0.00000   0.00000  -0.01932   0.00000
 118       50D-1        0.00000   0.00000   0.00000   0.00000  -0.01932
 119       50D+2        0.00000   0.00000  -0.00000   0.00000   0.00000
 120       50D-2        0.00000   0.00000   0.00000   0.00000   0.00000
 121       51D 0        0.00000  -0.00595  -0.00684   0.00000   0.00000
 122       51D+1       -0.00130   0.00000   0.00000   0.01333   0.00000
 123       51D-1        0.00000   0.00000   0.00000   0.00000   0.01333
 124       51D+2        0.00000  -0.00000   0.00000   0.00000   0.00000
 125       51D-2        0.00000   0.00000   0.00000   0.00000   0.00000
 126       52D 0        0.00000   0.09333   0.14829   0.00000   0.00000
 127       52D+1        0.00862   0.00000   0.00000  -0.20646   0.00000
 128       52D-1        0.00000   0.00000   0.00000   0.00000  -0.20646
 129       52D+2        0.00000   0.00000  -0.00000   0.00000   0.00000
 130       52D-2        0.00000   0.00000   0.00000   0.00000   0.00000
 131       53D 0        0.00000   0.00014   0.00083   0.00000   0.00000
 132       53D+1        0.00007   0.00000   0.00000   0.00379   0.00000
 133       53D-1        0.00000   0.00000   0.00000   0.00000   0.00379
 134       53D+2        0.00000  -0.00000   0.00000   0.00000   0.00000
 135       53D-2        0.00000   0.00000   0.00000   0.00000   0.00000
 136       54F 0        0.00000  -0.00045  -0.00064   0.00000   0.00000
 137       54F+1        0.00017   0.00000   0.00000   0.00058   0.00000
 138       54F-1        0.00000   0.00000   0.00000   0.00000   0.00058
 139       54F+2        0.00000   0.00000  -0.00000   0.00000   0.00000
 140       54F-2        0.00000   0.00000   0.00000   0.00000   0.00000
 141       54F+3       -0.00000   0.00000   0.00000   0.00000   0.00000
 142       54F-3        0.00000   0.00000   0.00000   0.00000   0.00000
 143       55F 0        0.00000  -0.00267  -0.00292   0.00000   0.00000
 144       55F+1        0.00010   0.00000   0.00000   0.00168   0.00000
 145       55F-1        0.00000   0.00000   0.00000   0.00000   0.00168
 146       55F+2        0.00000  -0.00000  -0.00000   0.00000   0.00000
 147       55F-2        0.00000   0.00000   0.00000   0.00000   0.00000
 148       55F+3       -0.00000   0.00000   0.00000   0.00000   0.00000
 149       55F-3        0.00000   0.00000   0.00000   0.00000   0.00000
 150       56F 0        0.00000  -0.00732  -0.00906   0.00000   0.00000
 151       56F+1       -0.00014   0.00000   0.00000   0.01226   0.00000
 152       56F-1        0.00000   0.00000   0.00000   0.00000   0.01226
 153       56F+2        0.00000   0.00000  -0.00000   0.00000   0.00000
 154       56F-2        0.00000   0.00000   0.00000   0.00000   0.00000
 155       56F+3       -0.00000   0.00000   0.00000  -0.00000   0.00000
 156       56F-3        0.00000   0.00000   0.00000   0.00000  -0.00000
 157       57F 0        0.00000  -0.00273  -0.00706   0.00000   0.00000
 158       57F+1       -0.00012   0.00000   0.00000   0.00677   0.00000
 159       57F-1        0.00000   0.00000   0.00000   0.00000   0.00677
 160       57F+2        0.00000   0.00000  -0.00000   0.00000   0.00000
 161       57F-2        0.00000   0.00000   0.00000   0.00000   0.00000
 162       57F+3       -0.00000   0.00000   0.00000   0.00000   0.00000
 163       57F-3        0.00000   0.00000   0.00000   0.00000   0.00000
 164       58G 0        0.00000   0.00002   0.00007   0.00000   0.00000
 165       58G+1       -0.00005   0.00000   0.00000  -0.00005   0.00000
 166       58G-1        0.00000   0.00000   0.00000   0.00000  -0.00005
 167       58G+2        0.00000  -0.00000  -0.00000   0.00000   0.00000
 168       58G-2        0.00000   0.00000   0.00000   0.00000   0.00000
 169       58G+3       -0.00000   0.00000   0.00000   0.00000   0.00000
 170       58G-3        0.00000   0.00000   0.00000   0.00000   0.00000
 171       58G+4        0.00000  -0.00000  -0.00000   0.00000   0.00000
 172       58G-4        0.00000   0.00000   0.00000   0.00000   0.00000
 173       59G 0        0.00000   0.00072   0.00063   0.00000   0.00000
 174       59G+1       -0.00001   0.00000   0.00000  -0.00065   0.00000
 175       59G-1        0.00000   0.00000   0.00000   0.00000  -0.00065
 176       59G+2        0.00000   0.00000  -0.00000   0.00000   0.00000
 177       59G-2        0.00000   0.00000   0.00000   0.00000   0.00000
 178       59G+3        0.00000   0.00000   0.00000   0.00000   0.00000
 179       59G-3        0.00000   0.00000   0.00000   0.00000   0.00000
 180       59G+4        0.00000   0.00000   0.00000   0.00000   0.00000
 181       59G-4        0.00000   0.00000   0.00000   0.00000   0.00000
 182       60G 0        0.00000   0.00137   0.00203   0.00000   0.00000
 183       60G+1       -0.00019   0.00000   0.00000  -0.00434   0.00000
 184       60G-1        0.00000   0.00000   0.00000   0.00000  -0.00434
 185       60G+2        0.00000  -0.00000  -0.00000   0.00000   0.00000
 186       60G-2        0.00000   0.00000   0.00000   0.00000   0.00000
 187       60G+3        0.00000   0.00000   0.00000   0.00000   0.00000
 188       60G-3        0.00000   0.00000   0.00000   0.00000   0.00000
 189       60G+4        0.00000  -0.00000  -0.00000   0.00000   0.00000
 190       60G-4        0.00000   0.00000   0.00000   0.00000   0.00000
 191 2   O  1S          0.00000  -0.00000   0.00000   0.00000   0.00000
 192        2S          0.00000   0.00001  -0.00000   0.00000   0.00000
 193        3S          0.00000  -0.00005   0.00001   0.00000   0.00000
 194        4S          0.00000   0.00031  -0.00008   0.00000   0.00000
 195        5S          0.00000  -0.00327   0.00079   0.00000   0.00000
 196        6S          0.00000  -0.04892   0.01317   0.00000   0.00000
 197        7S          0.00000  -0.16124   0.03793   0.00000   0.00000
 198        8S          0.00000   0.54053  -0.10972   0.00000   0.00000
 199        9S          0.00000   0.15376  -0.03674   0.00000   0.00000
 200       10S          0.00000   0.38838  -0.15806   0.00000   0.00000
 201       11S          0.00000  -0.00290  -0.00601   0.00000   0.00000
 202       12S          0.00000   0.04731  -0.01158   0.00000   0.00000
 203       13S          0.00000   0.05721  -0.08243   0.00000   0.00000
 204       14PX         0.00008   0.00000   0.00000   0.00755   0.00000
 205       14PY         0.00000   0.00000   0.00000   0.00000   0.00755
 206       14PZ         0.00000   0.00076   0.00714   0.00000   0.00000
 207       15PX         0.00078   0.00000   0.00000   0.07835   0.00000
 208       15PY         0.00000   0.00000   0.00000   0.00000   0.07835
 209       15PZ         0.00000   0.00724   0.07478   0.00000   0.00000
 210       16PX         0.00239   0.00000   0.00000   0.25154   0.00000
 211       16PY         0.00000   0.00000   0.00000   0.00000   0.25154
 212       16PZ         0.00000   0.02118   0.24159   0.00000   0.00000
 213       17PX         0.00429   0.00000   0.00000   0.40159   0.00000
 214       17PY         0.00000   0.00000   0.00000   0.00000   0.40159
 215       17PZ         0.00000   0.04475   0.38341   0.00000   0.00000
 216       18PX         0.00213   0.00000   0.00000   0.34263   0.00000
 217       18PY         0.00000   0.00000   0.00000   0.00000   0.34263
 218       18PZ         0.00000   0.05136   0.28304   0.00000   0.00000
 219       19PX         0.00004   0.00000   0.00000   0.00434   0.00000
 220       19PY         0.00000   0.00000   0.00000   0.00000   0.00434
 221       19PZ         0.00000   0.00028   0.00442   0.00000   0.00000
 222       20PX        -0.00002   0.00000   0.00000  -0.00199   0.00000
 223       20PY         0.00000   0.00000   0.00000   0.00000  -0.00199
 224       20PZ         0.00000  -0.00021  -0.00188   0.00000   0.00000
 225       21PX         0.00023   0.00000   0.00000   0.07172   0.00000
 226       21PY         0.00000   0.00000   0.00000   0.00000   0.07172
 227       21PZ         0.00000   0.00850   0.04536   0.00000   0.00000
 228       22D 0        0.00000   0.00164   0.00607   0.00000   0.00000
 229       22D+1        0.00045   0.00000   0.00000   0.00515   0.00000
 230       22D-1        0.00000   0.00000   0.00000   0.00000   0.00515
 231       22D+2        0.00000  -0.00000  -0.00000   0.00000   0.00000
 232       22D-2        0.00000   0.00000   0.00000   0.00000   0.00000
 233       23D 0        0.00000   0.01087   0.02002   0.00000   0.00000
 234       23D+1        0.00146   0.00000   0.00000   0.02224   0.00000
 235       23D-1        0.00000   0.00000   0.00000   0.00000   0.02224
 236       23D+2        0.00000   0.00000  -0.00000   0.00000   0.00000
 237       23D-2        0.00000   0.00000   0.00000   0.00000   0.00000
 238       24D 0        0.00000   0.00006   0.00029   0.00000   0.00000
 239       24D+1        0.00002   0.00000   0.00000   0.00027   0.00000
 240       24D-1        0.00000   0.00000   0.00000   0.00000   0.00027
 241       24D+2        0.00000   0.00000  -0.00000   0.00000   0.00000
 242       24D-2        0.00000   0.00000   0.00000   0.00000   0.00000
 243       25D 0        0.00000   0.01172   0.01383   0.00000   0.00000
 244       25D+1        0.00005   0.00000   0.00000   0.02393   0.00000
 245       25D-1        0.00000   0.00000   0.00000   0.00000   0.02393
 246       25D+2        0.00000   0.00000  -0.00000   0.00000   0.00000
 247       25D-2        0.00000   0.00000   0.00000   0.00000   0.00000
 248       26F 0        0.00000   0.00102   0.00279   0.00000   0.00000
 249       26F+1        0.00046   0.00000   0.00000   0.00273   0.00000
 250       26F-1        0.00000   0.00000   0.00000   0.00000   0.00273
 251       26F+2        0.00000  -0.00000  -0.00000   0.00000   0.00000
 252       26F-2        0.00000   0.00000   0.00000   0.00000   0.00000
 253       26F+3       -0.00000   0.00000   0.00000  -0.00000   0.00000
 254       26F-3        0.00000   0.00000   0.00000   0.00000  -0.00000
 255       27F 0        0.00000   0.00270   0.00448   0.00000   0.00000
 256       27F+1        0.00025   0.00000   0.00000   0.00571   0.00000
 257       27F-1        0.00000   0.00000   0.00000   0.00000   0.00571
 258       27F+2        0.00000   0.00000  -0.00000   0.00000   0.00000
 259       27F-2        0.00000   0.00000   0.00000   0.00000   0.00000
 260       27F+3       -0.00000   0.00000   0.00000  -0.00000   0.00000
 261       27F-3        0.00000   0.00000   0.00000   0.00000  -0.00000
                           9        10        11        12        13
                           O         O         O         O         O
     Eigenvalues --    -0.62635  -0.56725  -0.35114  -0.35114  -0.34087
   1 1   Mn 1S          0.00000   0.00000   0.00000   0.00000   0.00000
   2        2S          0.00000  -0.00000  -0.00000   0.00000   0.00000
   3        3S          0.00000   0.00000   0.00000   0.00000   0.00000
   4        4S          0.00000   0.00000  -0.00000   0.00000   0.00000
   5        5S          0.00000  -0.00000   0.00000   0.00000   0.00000
   6        6S          0.00000   0.00000  -0.00001   0.00000   0.00000
   7        7S          0.00000  -0.00000   0.00004   0.00000   0.00000
   8        8S          0.00000   0.00000  -0.00013   0.00000   0.00000
   9        9S          0.00000  -0.00000   0.00038   0.00000   0.00000
  10       10S          0.00000   0.00000  -0.00111   0.00000   0.00000
  11       11S          0.00000  -0.00000   0.00328   0.00000   0.00000
  12       12S          0.00000   0.00000  -0.01043   0.00000   0.00000
  13       13S          0.00000  -0.00000  -0.00010   0.00000   0.00000
  14       14S          0.00000  -0.00000   0.10048   0.00000   0.00000
  15       15S          0.00000   0.00000  -0.07244   0.00000   0.00000
  16       16S          0.00000  -0.00000  -0.05027   0.00000   0.00000
  17       17S          0.00000  -0.00000  -0.07044   0.00000   0.00000
  18       18S          0.00000   0.00000   0.37851   0.00000   0.00000
  19       19S          0.00000   0.00000   0.15296   0.00000   0.00000
  20       20S          0.00000   0.00000   0.03793   0.00000   0.00000
  21       21S          0.00000  -0.00000   0.00741   0.00000   0.00000
  22       22S          0.00000   0.00000  -0.20068   0.00000   0.00000
  23       23S          0.00000  -0.00000  -0.00427   0.00000   0.00000
  24       24PX         0.00000   0.00000   0.00000   0.00000  -0.00000
  25       24PY         0.00000   0.00000   0.00000  -0.00000   0.00000
  26       24PZ         0.00000  -0.00000   0.00000   0.00000   0.00000
  27       25PX         0.00000   0.00000   0.00000   0.00000   0.00000
  28       25PY         0.00000   0.00000   0.00000   0.00000   0.00000
  29       25PZ         0.00000   0.00000  -0.00000   0.00000   0.00000
  30       26PX         0.00000   0.00000   0.00000   0.00000  -0.00000
  31       26PY         0.00000   0.00000   0.00000  -0.00000   0.00000
  32       26PZ         0.00000  -0.00000   0.00000   0.00000   0.00000
  33       27PX         0.00000   0.00000   0.00000   0.00000   0.00001
  34       27PY         0.00000   0.00000   0.00000   0.00001   0.00000
  35       27PZ         0.00000   0.00000  -0.00001   0.00000   0.00000
  36       28PX         0.00000   0.00000   0.00000   0.00000  -0.00003
  37       28PY         0.00000   0.00000   0.00000  -0.00003   0.00000
  38       28PZ         0.00000  -0.00000   0.00002   0.00000   0.00000
  39       29PX         0.00000   0.00000   0.00000   0.00000   0.00011
  40       29PY         0.00000   0.00000   0.00000   0.00011   0.00000
  41       29PZ         0.00000   0.00000  -0.00008   0.00000   0.00000
  42       30PX         0.00000   0.00000   0.00000   0.00000  -0.00037
  43       30PY         0.00000   0.00000   0.00000  -0.00037   0.00000
  44       30PZ         0.00000  -0.00000   0.00027   0.00000   0.00000
  45       31PX         0.00000   0.00000   0.00000   0.00000  -0.00013
  46       31PY         0.00000   0.00000   0.00000  -0.00013   0.00000
  47       31PZ         0.00000   0.00000  -0.00014   0.00000   0.00000
  48       32PX         0.00000   0.00000   0.00000   0.00000   0.00962
  49       32PY         0.00000   0.00000   0.00000   0.00962   0.00000
  50       32PZ         0.00000  -0.00000  -0.00414   0.00000   0.00000
  51       33PX         0.00000   0.00000   0.00000   0.00000  -0.00876
  52       33PY         0.00000   0.00000   0.00000  -0.00876   0.00000
  53       33PZ         0.00000  -0.00000   0.01925   0.00000   0.00000
  54       34PX         0.00000   0.00000   0.00000   0.00000  -0.03314
  55       34PY         0.00000   0.00000   0.00000  -0.03314   0.00000
  56       34PZ         0.00000   0.00000   0.01506   0.00000   0.00000
  57       35PX         0.00000   0.00000   0.00000   0.00000  -0.02420
  58       35PY         0.00000   0.00000   0.00000  -0.02420   0.00000
[...]
  45       31PX         0.00095   0.00048   0.00047   0.00000
  46       31PY         0.00095   0.00048   0.00047   0.00000
  47       31PZ         0.00092   0.00046   0.00046  -0.00000
  48       32PX        -0.06781  -0.03403  -0.03377  -0.00026
  49       32PY        -0.06781  -0.03403  -0.03377  -0.00026
  50       32PZ        -0.06810  -0.03408  -0.03402  -0.00006
  51       33PX        -0.01351  -0.00655  -0.00696   0.00041
  52       33PY        -0.01351  -0.00655  -0.00696   0.00041
  53       33PZ        -0.00593  -0.00272  -0.00321   0.00049
  54       34PX         0.58764   0.29477   0.29286   0.00191
  55       34PY         0.58764   0.29477   0.29286   0.00191
  56       34PZ         0.59069   0.29560   0.29509   0.00050
  57       35PX         0.42771   0.21428   0.21344   0.00084
  58       35PY         0.42771   0.21428   0.21344   0.00084
  59       35PZ         0.43367   0.21684   0.21684   0.00000
  60       36PX         0.48639   0.24286   0.24353  -0.00067
  61       36PY         0.48639   0.24286   0.24353  -0.00067
  62       36PZ         0.48320   0.24157   0.24162  -0.00005
  63       37PX         0.07353   0.04304   0.03049   0.01255
  64       37PY         0.07353   0.04304   0.03049   0.01255
  65       37PZ         0.04312   0.02183   0.02130   0.00053
  66       38PX         0.07376   0.04488   0.02888   0.01600
  67       38PY         0.07376   0.04488   0.02888   0.01600
  68       38PZ        -0.01090  -0.00544  -0.00546   0.00002
  69       39PX         0.00506   0.00254   0.00252   0.00002
  70       39PY         0.00506   0.00254   0.00252   0.00002
  71       39PZ         0.00010   0.00045  -0.00036   0.00081
  72       40PX         0.05251   0.02616   0.02635  -0.00019
  73       40PY         0.05251   0.02616   0.02635  -0.00019
  74       40PZ         0.04584   0.02271   0.02312  -0.00041
  75       41PX         0.48938   0.24519   0.24419   0.00100
  76       41PY         0.48938   0.24519   0.24419   0.00100
  77       41PZ         0.48472   0.24272   0.24199   0.00073
  78       42PX        -0.00036  -0.00017  -0.00019   0.00002
  79       42PY        -0.00036  -0.00017  -0.00019   0.00002
  80       42PZ        -0.00018  -0.00014  -0.00004  -0.00011
  81       43D 0        0.00001   0.00001   0.00000   0.00001
  82       43D+1        0.00001   0.00001   0.00000   0.00001
  83       43D-1        0.00001   0.00001   0.00000   0.00001
  84       43D+2        0.00001   0.00001   0.00000   0.00001
  85       43D-2        0.00001   0.00001  -0.00000   0.00001
  86       44D 0        0.00322   0.00285   0.00037   0.00248
  87       44D+1        0.00390   0.00378   0.00012   0.00366
  88       44D-1        0.00390   0.00378   0.00012   0.00366
  89       44D+2        0.00373   0.00373  -0.00000   0.00373
  90       44D-2        0.00373   0.00373   0.00000   0.00373
  91       45D 0        0.03523   0.03117   0.00406   0.02712
  92       45D+1        0.04261   0.04129   0.00132   0.03997
  93       45D-1        0.04261   0.04129   0.00132   0.03997
  94       45D+2        0.04073   0.04073   0.00000   0.04073
  95       45D-2        0.04073   0.04073  -0.00000   0.04073
  96       46D 0        0.15194   0.13230   0.01964   0.11266
  97       46D+1        0.18162   0.17421   0.00741   0.16680
  98       46D-1        0.18162   0.17421   0.00741   0.16680
  99       46D+2        0.17475   0.17475   0.00000   0.17475
 100       46D-2        0.17475   0.17475   0.00000   0.17475
 101       47D 0        0.22848   0.24757  -0.01909   0.26666
 102       47D+1        0.31590   0.34400  -0.02810   0.37211
 103       47D-1        0.31590   0.34400  -0.02810   0.37211
 104       47D+2        0.30993   0.30993  -0.00000   0.30993
 105       47D-2        0.30993   0.30993  -0.00000   0.30993
 106       48D 0        0.34044   0.27636   0.06408   0.21227
 107       48D+1        0.33681   0.31204   0.02476   0.28728
 108       48D-1        0.33681   0.31204   0.02476   0.28728
 109       48D+2        0.31971   0.31971   0.00000   0.31971
 110       48D-2        0.31971   0.31971   0.00000   0.31971
 111       49D 0        0.14719   0.11896   0.02823   0.09073
 112       49D+1        0.14692   0.11832   0.02860   0.08972
 113       49D-1        0.14692   0.11832   0.02860   0.08972
 114       49D+2        0.12258   0.12258  -0.00000   0.12258
 115       49D-2        0.12258   0.12258   0.00000   0.12258
 116       50D 0        0.00631   0.00889  -0.00258   0.01147
 117       50D+1        0.01910   0.01101   0.00809   0.00292
 118       50D-1        0.01910   0.01101   0.00809   0.00292
 119       50D+2        0.00713   0.00713  -0.00000   0.00713
 120       50D-2        0.00713   0.00713  -0.00000   0.00713
 121       51D 0        0.00065   0.00277  -0.00212   0.00489
 122       51D+1        0.00115   0.00308  -0.00193   0.00501
 123       51D-1        0.00115   0.00308  -0.00193   0.00501
 124       51D+2       -0.00026  -0.00026   0.00000  -0.00026
 125       51D-2       -0.00026  -0.00026   0.00000  -0.00026
 126       52D 0        0.07028   0.01219   0.05809  -0.04590
 127       52D+1        0.02908  -0.01207   0.04115  -0.05321
 128       52D-1        0.02908  -0.01207   0.04115  -0.05321
 129       52D+2        0.02115   0.02115  -0.00000   0.02115
 130       52D-2        0.02115   0.02115  -0.00000   0.02115
 131       53D 0       -0.00023  -0.00013  -0.00010  -0.00003
 132       53D+1       -0.00126  -0.00062  -0.00064   0.00001
 133       53D-1       -0.00126  -0.00062  -0.00064   0.00001
 134       53D+2       -0.00012  -0.00012   0.00000  -0.00012
 135       53D-2       -0.00012  -0.00012   0.00000  -0.00012
 136       54F 0        0.00002   0.00001   0.00001   0.00000
 137       54F+1        0.00001   0.00001   0.00000   0.00000
 138       54F-1        0.00001   0.00001   0.00000   0.00000
 139       54F+2        0.00000   0.00000   0.00000   0.00000
 140       54F-2        0.00000   0.00000   0.00000   0.00000
 141       54F+3        0.00000   0.00000   0.00000  -0.00000
 142       54F-3        0.00000   0.00000   0.00000   0.00000
 143       55F 0        0.00038   0.00021   0.00017   0.00005
 144       55F+1        0.00014   0.00009   0.00005   0.00004
 145       55F-1        0.00014   0.00009   0.00005   0.00004
 146       55F+2        0.00001   0.00001  -0.00000   0.00001
 147       55F-2        0.00001   0.00001  -0.00000   0.00001
 148       55F+3        0.00000   0.00000   0.00000  -0.00000
 149       55F-3        0.00000   0.00000   0.00000   0.00000
 150       56F 0        0.00526   0.00294   0.00232   0.00061
 151       56F+1        0.00514   0.00305   0.00209   0.00096
 152       56F-1        0.00514   0.00305   0.00209   0.00096
 153       56F+2        0.00017   0.00017  -0.00000   0.00017
 154       56F-2        0.00017   0.00017  -0.00000   0.00017
 155       56F+3       -0.00000  -0.00000   0.00000  -0.00000
 156       56F-3       -0.00000  -0.00000   0.00000  -0.00000
 157       57F 0        0.00058   0.00052   0.00006   0.00046
 158       57F+1        0.00737   0.00468   0.00268   0.00200
 159       57F-1        0.00737   0.00468   0.00268   0.00200
 160       57F+2        0.00019   0.00019   0.00000   0.00019
 161       57F-2        0.00019   0.00019  -0.00000   0.00019
 162       57F+3        0.00000   0.00000   0.00000   0.00000
 163       57F-3        0.00000   0.00000   0.00000   0.00000
 164       58G 0        0.00000   0.00000   0.00000   0.00000
 165       58G+1        0.00000   0.00000   0.00000   0.00000
 166       58G-1        0.00000   0.00000   0.00000   0.00000
 167       58G+2        0.00000   0.00000  -0.00000   0.00000
 168       58G-2        0.00000   0.00000  -0.00000   0.00000
 169       58G+3        0.00000   0.00000   0.00000  -0.00000
 170       58G-3        0.00000   0.00000   0.00000  -0.00000
 171       58G+4       -0.00000   0.00000  -0.00000   0.00000
 172       58G-4        0.00000   0.00000  -0.00000   0.00000
 173       59G 0        0.00007   0.00003   0.00003   0.00000
 174       59G+1        0.00003   0.00002   0.00001   0.00000
 175       59G-1        0.00003   0.00002   0.00001   0.00000
 176       59G+2        0.00000   0.00000   0.00000   0.00000
 177       59G-2        0.00000   0.00000   0.00000   0.00000
 178       59G+3       -0.00000  -0.00000  -0.00000  -0.00000
 179       59G-3        0.00000   0.00000   0.00000   0.00000
 180       59G+4        0.00000   0.00000   0.00000   0.00000
 181       59G-4        0.00000   0.00000   0.00000   0.00000
 182       60G 0        0.00077   0.00040   0.00037   0.00003
 183       60G+1        0.00167   0.00090   0.00077   0.00014
 184       60G-1        0.00167   0.00090   0.00077   0.00014
 185       60G+2        0.00000   0.00000   0.00000   0.00000
 186       60G-2        0.00000   0.00000   0.00000   0.00000
 187       60G+3       -0.00000  -0.00000   0.00000  -0.00000
 188       60G-3        0.00000   0.00000   0.00000   0.00000
 189       60G+4       -0.00000  -0.00000  -0.00000   0.00000
 190       60G-4        0.00000   0.00000  -0.00000   0.00000
 191 2   O  1S         -0.00000  -0.00000  -0.00000  -0.00000
 192        2S          0.00000   0.00000   0.00000   0.00000
 193        3S         -0.00000  -0.00000  -0.00000  -0.00000
 194        4S          0.00001   0.00000   0.00000   0.00000
 195        5S         -0.00023  -0.00012  -0.00012  -0.00000
 196        6S         -0.01099  -0.00549  -0.00549  -0.00000
 197        7S         -0.09981  -0.04991  -0.04990  -0.00001
 198        8S          1.05858   0.52935   0.52923   0.00011
 199        9S          0.22885   0.11444   0.11441   0.00003
 200       10S          0.75028   0.37603   0.37425   0.00179
 201       11S         -0.00086  -0.00043  -0.00042  -0.00001
 202       12S          0.00822   0.00411   0.00411   0.00000
 203       13S          0.08604   0.04476   0.04129   0.00347
 204       14PX         0.00176   0.00091   0.00085   0.00006
 205       14PY         0.00176   0.00091   0.00085   0.00006
 206       14PZ         0.00158   0.00080   0.00078   0.00002
 207       15PX         0.05919   0.03061   0.02858   0.00203
 208       15PY         0.05919   0.03061   0.02858   0.00203
 209       15PZ         0.05382   0.02717   0.02665   0.00052
 210       16PX         0.35060   0.18106   0.16954   0.01151
 211       16PY         0.35060   0.18106   0.16954   0.01151
 212       16PZ         0.32352   0.16305   0.16047   0.00258
 213       17PX         0.72532   0.37196   0.35336   0.01860
 214       17PY         0.72532   0.37196   0.35336   0.01860
 215       17PZ         0.66971   0.33658   0.33312   0.00346
 216       18PX         0.57109   0.29217   0.27893   0.01324
 217       18PY         0.57109   0.29217   0.27893   0.01324
 218       18PZ         0.41706   0.21836   0.19869   0.01967
 219       19PX         0.00204   0.00105   0.00099   0.00007
 220       19PY         0.00204   0.00105   0.00099   0.00007
 221       19PZ         0.00196   0.00099   0.00098   0.00001
 222       20PX        -0.00028  -0.00015  -0.00014  -0.00001
 223       20PY        -0.00028  -0.00015  -0.00014  -0.00001
 224       20PZ        -0.00025  -0.00013  -0.00012  -0.00000
 225       21PX         0.07375   0.03998   0.03377   0.00622
 226       21PY         0.07375   0.03998   0.03377   0.00622
 227       21PZ         0.05232   0.03219   0.02013   0.01206
 228       22D 0        0.00066   0.00039   0.00027   0.00012
 229       22D+1        0.00037   0.00021   0.00016   0.00004
 230       22D-1        0.00037   0.00021   0.00016   0.00004
 231       22D+2        0.00001   0.00001   0.00000   0.00001
 232       22D-2        0.00001   0.00001   0.00000   0.00001
 233       23D 0        0.00565   0.00347   0.00218   0.00129
 234       23D+1        0.00507   0.00277   0.00229   0.00048
 235       23D-1        0.00507   0.00277   0.00229   0.00048
 236       23D+2        0.00014   0.00014  -0.00000   0.00014
 237       23D-2        0.00014   0.00014  -0.00000   0.00014
 238       24D 0        0.00000   0.00000   0.00000   0.00000
 239       24D+1        0.00000   0.00000   0.00000   0.00000
 240       24D-1        0.00000   0.00000   0.00000   0.00000
 241       24D+2        0.00000   0.00000   0.00000   0.00000
 242       24D-2        0.00000   0.00000   0.00000   0.00000
 243       25D 0       -0.00185  -0.00087  -0.00097   0.00010
 244       25D+1        0.00439   0.00151   0.00288  -0.00136
 245       25D-1        0.00439   0.00151   0.00288  -0.00136
 246       25D+2        0.00007   0.00007   0.00000   0.00007
 247       25D-2        0.00007   0.00007   0.00000   0.00007
 248       26F 0        0.00042   0.00028   0.00014   0.00014
 249       26F+1        0.00024   0.00016   0.00007   0.00009
 250       26F-1        0.00024   0.00016   0.00007   0.00009
 251       26F+2        0.00002   0.00002  -0.00000   0.00002
 252       26F-2        0.00002   0.00002   0.00000   0.00002
 253       26F+3        0.00000   0.00000   0.00000   0.00000
 254       26F-3        0.00000   0.00000   0.00000   0.00000
 255       27F 0       -0.00031  -0.00006  -0.00025   0.00020
 256       27F+1        0.00073   0.00036   0.00037  -0.00002
 257       27F-1        0.00073   0.00036   0.00037  -0.00002
 258       27F+2        0.00006   0.00006  -0.00000   0.00006
 259       27F-2        0.00006   0.00006  -0.00000   0.00006
 260       27F+3        0.00000   0.00000   0.00000  -0.00000
 261       27F-3        0.00000   0.00000   0.00000   0.00000
          Condensed to atoms (all electrons):
               1          2
     1  Mn  13.602445   0.264070
     2  O    0.264070   6.869414
          Atomic-Atomic Spin Densities.
               1          2
     1  Mn   4.885055  -0.033081
     2  O   -0.033081   0.181106
 Mulliken charges and spin densities:
               1          2
     1  Mn   1.133485   4.851975
     2  O   -1.133485   0.148025
 Sum of Mulliken charges =  -0.00000   5.00000
 Mulliken charges and spin densities with hydrogens summed into heavy atoms:
               1          2
     1  Mn   1.133485   4.851975
     2  O   -1.133485   0.148025
 Electronic spatial extent (au):  <R**2>=             84.6441
 Charge=             -0.0000 electrons
 Dipole moment (field-independent basis, Debye):
    X=              0.0000    Y=              0.0000    Z=              8.2605  Tot=              8.2605
 Quadrupole moment (field-independent basis, Debye-Ang):
   XX=            -18.8307   YY=            -18.8307   ZZ=            -23.0059
   XY=              0.0000   XZ=              0.0000   YZ=              0.0000
 Traceless Quadrupole moment (field-independent basis, Debye-Ang):
   XX=              1.3917   YY=              1.3917   ZZ=             -2.7834
   XY=              0.0000   XZ=              0.0000   YZ=              0.0000
 Octapole moment (field-independent basis, Debye-Ang**2):
  XXX=              0.0000  YYY=              0.0000  ZZZ=             22.0796  XYY=              0.0000
  XXY=              0.0000  XXZ=              5.2052  XZZ=              0.0000  YZZ=              0.0000
  YYZ=              5.2052  XYZ=              0.0000
 Hexadecapole moment (field-independent basis, Debye-Ang**3):
 XXXX=            -22.3538 YYYY=            -22.3538 ZZZZ=            -95.0320 XXXY=              0.0000
 XXXZ=              0.0000 YYYX=              0.0000 YYYZ=              0.0000 ZZZX=              0.0000
 ZZZY=              0.0000 XXYY=             -7.4513 XXZZ=            -19.1281 YYZZ=            -19.1281
 XXYZ=              0.0000 YYXZ=              0.0000 ZZXY=              0.0000
 N-N= 2.976621811425D+01 E-N=-3.363728383827D+02  KE= 6.918320275860D+01
 Symmetry A1   KE= 2.852986526324D+01
 Symmetry A2   KE= 6.174926821141D+00
 Symmetry B1   KE= 1.723920508223D+01
 Symmetry B2   KE= 1.723920559171D+01
 Symmetry A1   SP= 2.000000000000D+00
 Symmetry A2   SP= 1.000000000000D+00
 Symmetry B1   SP= 1.000000000000D+00
 Symmetry B2   SP= 1.000000000000D+00
 Orbital energies and kinetic energies (alpha):
                                 1                 2
   4         O                -2.779456          3.496973
   5         O                -1.146346          1.023178
   6         O                -0.645011          2.433198
   7         O                -0.645011          2.043281
   8         O                -0.626348          2.043281
   9         O                -0.626348          6.174927
  10         O                -0.567255          6.174927
  11         O                -0.351143          4.354508
  12         O                -0.351143          6.158698
  13         O                -0.340875          6.158698
  14         V                -0.033316          0.489980
  15         V                 0.017872          0.088850
  16         V                 0.017872          0.088849
  17         V                 0.022630          0.285868
  18         V                 0.038362          0.062723
 Total kinetic energy from orbitals= 9.820496098316D+01
                          Isotropic Fermi Contact Couplings
        Atom                 a.u.       MegaHertz       Gauss      10(-4) cm-1
     1  Mn(55)             0.00004       0.00871       0.00311       0.00291
     2  O(17)              0.00001      -0.00072      -0.00026      -0.00024
 --------------------------------------------------------
       Center         ----  Spin Dipole Couplings  ----
                      3XX-RR        3YY-RR        3ZZ-RR
 --------------------------------------------------------
     1   Atom        0.056482      0.056482     -0.112964
     2   Atom       -0.075899     -0.075899      0.151799
 --------------------------------------------------------
                        XY            XZ            YZ
 --------------------------------------------------------
     1   Atom        0.000000      0.000000      0.000000
     2   Atom        0.000000      0.000000      0.000000
 --------------------------------------------------------


 ---------------------------------------------------------------------------------
              Anisotropic Spin Dipole Couplings in Principal Axis System
 ---------------------------------------------------------------------------------

       Atom             a.u.   MegaHertz   Gauss  10(-4) cm-1        Axes

              Baa    -0.1130   -14.905    -5.318    -4.972  0.0000  0.0000  1.0000
     1 Mn(55) Bbb     0.0565     7.452     2.659     2.486  1.0000  0.0000  0.0000
              Bcc     0.0565     7.452     2.659     2.486 -0.0000  1.0000  0.0000
 
              Baa    -0.0759     5.492     1.960     1.832  1.0000  0.0000  0.0000
     2 O(17)  Bbb    -0.0759     5.492     1.960     1.832 -0.0000  1.0000  0.0000
              Bcc     0.1518   -10.984    -3.919    -3.664  0.0000  0.0000  1.0000
 

 ---------------------------------------------------------------------------------

 No NMR shielding tensors so no spin-rotation constants.
 Leave Link  601 at Fri Mar  9 17:35:55 2018, MaxMem= 10737418240 cpu:              53.5 elap:               3.5
 (Enter /home1/apps/gaussian/16rA.03/g16/l9999.exe)

 Test job not archived.
 1\1\GINC-C454-022\SP\ROCCSD(T)-Full\Gen\Mn1O1(6)\AANNABE\09-Mar-2018\0
 \\#P ROCCSD(T)=(maxcyc=150, Full, SaveAmplitudes, ReadAmplitudes)/Gen 
 5d 7f SCF=(maxcycles=300) Integral(NoXCTest) MaxDisk=500GB Pop=Regular
  Pseudo=Read Guess=Read IOp(5/15=2)\\MnO\\0,6\Mn,0,0.,0.,0.\O,0,0.,0.,
 1.6\\Version=ES64L-G16RevA.03\State=6-SG\HF=-119.1780263\MP2=-120.0829
 023\MP3=-120.0345081\PUHF=-119.1780263\PMP2-0=-120.0829023\MP4SDQ=-120
 .0784937\CCSD=-120.0690283\CCSD(T)=-120.1104399\RMSD=8.895e-09\PG=C*V 
 [C*(O1Mn1)]\\@


 NOTHING RESEMBLES A NEW PHENOMENON AS MUCH AS A MISTAKE.

                               -- ENRICO FERMI (?)
 Job cpu time:       0 days  7 hours 48 minutes 19.1 seconds.
 Elapsed time:       0 days  0 hours 29 minutes 22.0 seconds.
 File lengths (MBytes):  RWF=   4569 Int=      0 D2E=      0 Chk=     27 Scr=      1
 Normal termination of Gaussian 16 at Fri Mar  9 17:35:56 2018.
