
 Primary working directories    : /tmp/cmelton
 Secondary working directories  : /tmp/cmelton
 Wavefunction directory         : /remote/cmelton/wfu/
 Main file repository           : /tmp/cmelton/

 SHA1      : 4c1979699e6aeda0524d0210415ba82a958648b0
 NAME      : 2012.1.39
 ARCHNAME  : Linux/x86_64
 FC        : /projects/sems/install/rhel6-x86_64/sems/compiler/intel/16.0.1/base/bin/ifort
 FCVERSION : 16.0.1
 BLASLIB   : -L/projects/sems/install/rhel6-x86_64/sems/compiler/intel/16.0.1/base/compilers_and_libraries_2016.1.150/linux/mkl/lib/intel64 -lmkl_intel_ilp64 -lmkl_sequential -lmkl_core
 id        : sandiacon

 Nodes           nprocs
 breve.sandia.gov    1

 Using customized tuning parameters: mindgm=7; mindgv=16; mindgc=1; mindgr=1; noblas=0; minvec=7
 default implementation of scratch files=df  

 ***,Calculation for Be atom, singlet and triplet
 memory,512,m
 gthresh,twoint=1.e-12
 geometry={
 1
 V
 V  0.0 0.0 0.0
 }
 
 basis={
 ecp,V,10,2,0;
 4;
 1,20.2553013762707, 13.000 ;
 3,19.5088778400405, 263.318917891519;
 2,17.3088758203163,-114.916486604966 ;
 2,5.04502199681890,-0.68289799957596;
 2;
 2,15.4637410000600, 195.609510670332  ;
 2,6.10337317130682, 23.2299358975926  ;
 2;
 2,15.5891849786496, 126.699271677201;
 2,5.87628647826524, 15.8646131466216;
 Including file /remote/cmelton/data/corrECP/V/gani_cc105/basis/aug-cc-pwCVQZ-dk.basis
 }
 
 
 Including file /remote/cmelton/data/corrECP/V/gani_cc105/basis/states.proc
 
 do i=1,11
     if (i.eq.1) then
         Is2d3
     else if (i.eq.2) then
         Is1d4
     else if (i.eq.3) then
         Id5
     else if (i.eq.4) then
         IIs1d3
     else if (i.eq.5) then
         IId4
     else if (i.eq.6) then
         VI
     else if (i.eq.7) then
         XII
     else if (i.eq.8) then
         As2d4
     else if (i.eq.9) then
         IIId3
     else if (i.eq.10) then
         IVd2
     else if (i.eq.11) then
         Vd1
     endif
     scf(i)=energy
     _CC_NORM_MAX=2.0
     {rccsd(t),maxit=100;core}
     ccsd(i)=energy
 enddo
 
 table,scf,ccsd
 save
 type,csv

 Variables initialized (782), CPU time= 0.00 sec
 Commands  initialized (547), CPU time= 0.01 sec, 517 directives.
 Default parameters read. Elapsed time= 0.08 sec

 Checking input...
 Passed
1


                                         ***  PROGRAM SYSTEM MOLPRO  ***
                         Copyright, University College Cardiff Consultants Limited, 2008

                                    Version 2012.1 linked Aug  2 2016 14:07:26


 **********************************************************************************************************************************
 LABEL *   Calculation for Be atom, singlet and triplet                                  
 Linux-3.10.0-693.11.6.el7.x86_64/breve.sandia.gov(x86_64) 64 bit serial version         DATE: 25-Jan-18          TIME: 15:54:39  
 **********************************************************************************************************************************

 SHA1:             4c1979699e6aeda0524d0210415ba82a958648b0
 **********************************************************************************************************************************

 THRESHOLDS:

 ZERO    =  1.00D-12  ONEINT  =  1.00D-12  TWOINT  =  1.00D-12  PREFAC  =  1.00D-14  LOCALI  =  1.00D-09  EORDER  =  1.00D-04
 ENERGY  =  0.00D+00  ETEST   =  0.00D+00  EDENS   =  0.00D+00  THRDEDEF=  1.00D-06  GRADIENT=  1.00D-02  STEP    =  1.00D-03
 ORBITAL =  1.00D-05  CIVEC   =  1.00D-05  COEFF   =  1.00D-04  PRINTCI =  5.00D-02  PUNCHCI =  9.90D+01  OPTGRAD =  3.00D-04
 OPTENERG=  1.00D-06  OPTSTEP =  3.00D-04  THRGRAD =  1.00D-10  COMPRESS=  1.00D-11  VARMIN  =  1.00D-07  VARMAX  =  1.00D-03
 THRDOUB =  0.00D+00  THRDIV  =  1.00D-05  THRRED  =  1.00D-07  THRPSP  =  1.00D+00  THRDC   =  1.00D-10  THRCS   =  1.00D-10
 THRNRM  =  1.00D-08  THREQ   =  0.00D+00  THRDE   =  1.00D+00  THRREF  =  1.00D-05  SPARFAC =  1.00D+00  THRDLP  =  1.00D-07
 THRDIA  =  1.00D-10  THRDLS  =  1.00D-07  THRGPS  =  0.00D+00  THRKEX  =  0.00D+00  THRDIS  =  2.00D-01  THRVAR  =  1.00D-10
 THRLOC  =  1.00D-06  THRGAP  =  1.00D-06  THRLOCT = -1.00D+00  THRGAPT = -1.00D+00  THRORB  =  1.00D-06  THRMLTP =  0.00D+00
 THRCPQCI=  1.00D-10  KEXTA   =  0.00D+00  THRCOARS=  0.00D+00  SYMTOL  =  1.00D-06  GRADTOL =  1.00D-06  THROVL  =  1.00D-08
 THRORTH =  1.00D-08  GRID    =  1.00D-06  GRIDMAX =  1.00D-03  DTMAX   =  0.00D+00  THROCCDE=  1.00D-01  THROCCDE=  1.00D-01



Geometry recognized as XYZ


 Variable memory set to  512000000 words,  buffer space   230000 words

 SETTING BASIS          =    USERDEF

 DO I                   =         1.00000000   

 Running procedure=IS2D3


 Recomputing integrals since basis changed


 Using spherical harmonics


1PROGRAM * SEWARD (Integral evaluation for generally contracted gaussian basis sets)     Author: Roland Lindh, 1990

 Geometry written to block  1 of record 700

 Orientation using atomic masses  
 Molecule type: Atom
 Symmetry elements: X,Y,Z
 Rotational constants:       0.0000000      0.0000000      0.0000000 GHz  (calculated with average atomic masses)

 Point group  D2h 



 ATOMIC COORDINATES

 NR  ATOM    CHARGE       X              Y              Z

   1  V      13.00    0.000000000    0.000000000    0.000000000

 NUCLEAR CHARGE:                   13
 NUMBER OF PRIMITIVE AOS:         345
 NUMBER OF SYMMETRY AOS:          262
 NUMBER OF CONTRACTIONS:          262   (  65Ag  +  40B3u +  40B2u +  22B1g +  40B1u +  22B2g +  22B3g +  11Au  )
 NUMBER OF CORE ORBITALS:           4   (   1Ag  +   1B3u +   1B2u +   0B1g +   1B1u +   0B2g +   0B3g +   0Au  )
 NUMBER OF VALENCE ORBITALS:        6   (   3Ag  +   0B3u +   0B2u +   1B1g +   0B1u +   1B2g +   1B3g +   0Au  )


 NUCLEAR REPULSION ENERGY    0.00000000

 EXTRA SYMMETRY OF AOS IN SYMMETRY 1:   1 1 1 1 1 1 1 1 1 1   1 1 1 1 1 1 1 1 1 1   1 1 1 1 1 2 3 2 3 2   3 2 3 2 3 2 3 2 3 2
                                        3 2 3 2 3 2 3 2 3 2   3 2 3 4 5 6 4 5 6 4   5 6 4 5 6
 EXTRA SYMMETRY OF AOS IN SYMMETRY 2:   1 1 1 1 1 1 1 1 1 1   1 1 1 1 1 1 1 1 1 1   1 2 3 2 3 2 3 2 3 2   3 4 5 6 4 5 6 4 5 6
 EXTRA SYMMETRY OF AOS IN SYMMETRY 3:   1 1 1 1 1 1 1 1 1 1   1 1 1 1 1 1 1 1 1 1   1 2 3 2 3 2 3 2 3 2   3 4 5 6 4 5 6 4 5 6
 EXTRA SYMMETRY OF AOS IN SYMMETRY 4:   1 1 1 1 1 1 1 1 1 1   1 1 1 1 2 3 2 3 2 3   2 3
 EXTRA SYMMETRY OF AOS IN SYMMETRY 5:   1 1 1 1 1 1 1 1 1 1   1 1 1 1 1 1 1 1 1 1   1 2 3 2 3 2 3 2 3 2   3 4 5 6 4 5 6 4 5 6
 EXTRA SYMMETRY OF AOS IN SYMMETRY 6:   1 1 1 1 1 1 1 1 1 1   1 1 1 1 2 3 2 3 2 3   2 3
 EXTRA SYMMETRY OF AOS IN SYMMETRY 7:   1 1 1 1 1 1 1 1 1 1   1 1 1 1 2 3 2 3 2 3   2 3
 EXTRA SYMMETRY OF AOS IN SYMMETRY 8:   1 1 1 1 1 2 3 2 3 2   3

 Eigenvalues of metric

         1 0.337E-06 0.173E-04 0.263E-04 0.263E-04 0.302E-03 0.831E-03 0.890E-03 0.890E-03
         2 0.633E-07 0.440E-05 0.579E-03 0.193E-02 0.495E-02 0.108E-01 0.206E-01 0.341E-01
         3 0.633E-07 0.440E-05 0.579E-03 0.193E-02 0.495E-02 0.108E-01 0.206E-01 0.341E-01
         4 0.263E-04 0.890E-03 0.102E-01 0.334E-01 0.713E-01 0.139E+00 0.251E+00 0.251E+00
         5 0.633E-07 0.440E-05 0.579E-03 0.193E-02 0.495E-02 0.108E-01 0.206E-01 0.341E-01
         6 0.263E-04 0.890E-03 0.102E-01 0.334E-01 0.713E-01 0.139E+00 0.251E+00 0.251E+00
         7 0.263E-04 0.890E-03 0.102E-01 0.334E-01 0.713E-01 0.139E+00 0.251E+00 0.251E+00
         8 0.134E+00 0.392E+00 0.415E+00 0.415E+00 0.808E+00 0.951E+00 0.951E+00 0.147E+01


 Contracted 2-electron integrals neglected if value below      1.0D-13
 AO integral compression algorithm  1   Integral accuracy      1.0D-13

     444.334 MB (compressed) written to integral file ( 45.6%)


 NUMBER OF SORTED TWO-ELECTRON INTEGRALS:   76744857.     BUFFER LENGTH:  32768
 NUMBER OF SEGMENTS:   5  SEGMENT LENGTH:   15998535      RECORD LENGTH: 524288

 Memory used in sort:      16.56 MW

 SORT1 READ   121794176. AND WROTE    45538297. INTEGRALS IN    133 RECORDS. CPU TIME:     2.51 SEC, REAL TIME:     2.97 SEC
 SORT2 READ    45538297. AND WROTE    76744857. INTEGRALS IN   1695 RECORDS. CPU TIME:     1.06 SEC, REAL TIME:     1.40 SEC

 FILE SIZES:   FILE 1:   453.5 MBYTE,  FILE 4:   557.9 MBYTE,   TOTAL:   1011.4 MBYTE

 OPERATOR DM      FOR CENTER  0  COORDINATES:    0.000000    0.000000    0.000000


 **********************************************************************************************************************************
 DATASETS  * FILE   NREC   LENGTH (MB)   RECORD NAMES
              1      20      260.19       500      610      700      900      950      970     1000      129      960     1100   
                                          VAR    BASINP    GEOM    SYMINP    ZMAT    AOBASIS   BASIS     P2S    ABASIS      S 
                                         1400     1410     1420     1200     1210     1080     1600     1650     1300     1700   
                                           T        V       ECP      H0       H01     AOSYM     SMH    MOLCAS    ERIS     OPER   

 PROGRAMS   *        TOTAL       INT
 CPU TIMES  *        32.09     31.95
 REAL TIME  *        33.87 SEC
 DISK USED  *         1.01 GB      
 **********************************************************************************************************************************

1PROGRAM * RHF-SCF (OPEN SHELL)       Authors: W. Meyer, H.-J. Werner


 NUMBER OF ELECTRONS:       8+    5-    SPACE SYMMETRY=6    SPIN SYMMETRY: Quartet 
 CONVERGENCE THRESHOLDS:    1.00E-05 (Density)    1.00E-07 (Energy)
 MAX. NUMBER OF ITERATIONS:       60
 INTERPOLATION TYPE:            DIIS
 INTERPOLATION STEPS:              2 (START)      1 (STEP)
 LEVEL SHIFTS:                 -0.30 (CLOSED)  0.00 (OPEN) 


 Singly occupied orbitals:      3.1       4.1       1.6
 
 Extra symmetries of mos in symmetry 1:   1   1
 Orbital guess generated from atomic densities. Full valence occupancy:    4   1   1   1   1   1   1   0


 Molecular orbital dump at record        4202.2

 ITERATION    DDIFF          GRAD             ENERGY        2-EL.EN.            DIPOLE MOMENTS         DIIS   ORB.
    1      0.000D+00      0.000D+00       -70.63104539     93.342350    0.00000    0.00000    0.00000    0    start
    2      0.000D+00      0.169D-01       -70.81547491    102.411555    0.00000    0.00000    0.00000    1    diag,B
    3      0.185D-01      0.128D-01       -70.84135783    100.959719    0.00000    0.00000    0.00000    2    diag,B
    4      0.866D-02      0.400D-02       -70.84661017    100.562674    0.00000    0.00000    0.00000    3    diag,B
    5      0.740D-02      0.622D-03       -70.84708584    100.519667    0.00000    0.00000    0.00000    4    diag,B
    6      0.163D-02      0.179D-03       -70.84715704    100.467382    0.00000    0.00000    0.00000    5    diag,B
    7      0.717D-03      0.579D-04       -70.84716805    100.443055    0.00000    0.00000    0.00000    6    fixocc
    8      0.345D-03      0.209D-04       -70.84716958    100.439163    0.00000    0.00000    0.00000    7    diag,B
    9      0.239D-03      0.762D-05       -70.84716980    100.437664    0.00000    0.00000    0.00000    8    diag,B
   10      0.498D-04      0.306D-05       -70.84716985    100.437717    0.00000    0.00000    0.00000    9    orth
   11      0.330D-04      0.122D-05       -70.84716986    100.437701    0.00000    0.00000    0.00000    9    diag,B
   12      0.120D-04      0.603D-06       -70.84716986    100.437789    0.00000    0.00000    0.00000    9    diag,B
   13      0.232D-05      0.246D-06       -70.84716950    100.437442    0.00000    0.00000    0.00000    0    orth

 Final alpha occupancy:   4   1   1   0   1   1   0   0
 Final beta  occupancy:   2   1   1   0   1   0   0   0

 !RHF STATE 1.6 Energy                -70.847169500640
 Nuclear energy                         0.00000000
 One-electron energy                 -121.06589065
 Two-electron energy                   50.21872115
 Virial quotient                       -2.05613100
 !RHF STATE 1.6 Dipole moment           0.00000000     0.00000000     0.00000000
 Dipole moment /Debye                   0.00000000     0.00000000     0.00000000

 Orbital energies:

         1.1          2.1          3.1          4.1          5.1          6.1
     -3.219421    -0.232297    -0.536442    -0.480903     0.023500     0.049813

         1.2          2.2          3.2
     -2.034972     0.015206     0.051978

         1.3          2.3          3.3
     -2.043353     0.014255     0.050632

         1.4          2.4
      0.048879     0.108954

         1.5          2.5          3.5
     -2.034972     0.015206     0.051978

         1.6          2.6          3.6
     -0.480903     0.049987     0.157775

         1.7          2.7
      0.048879     0.108954

         1.8          2.8
      0.322453     1.004302

 HOMO      1.6    -0.480903 =     -13.0860eV
 LUMO      2.3     0.014255 =       0.3879eV
 LUMO-HOMO         0.495158 =      13.4739eV


 **********************************************************************************************************************************
 DATASETS  * FILE   NREC   LENGTH (MB)   RECORD NAMES
              1      20      260.19       500      610      700      900      950      970     1000      129      960     1100   
                                          VAR    BASINP    GEOM    SYMINP    ZMAT    AOBASIS   BASIS     P2S    ABASIS      S 
                                         1400     1410     1420     1200     1210     1080     1600     1650     1300     1700   
                                           T        V       ECP      H0       H01     AOSYM     SMH    MOLCAS    ERIS     OPER   

              2       5        5.68       200      700     1000      520     4202   
                                        OPTIONS   GEOM     BASIS   MCVARS     RHF  

 PROGRAMS   *        TOTAL       RHF       INT
 CPU TIMES  *        34.50      2.42     31.95
 REAL TIME  *        36.54 SEC
 DISK USED  *         1.01 GB      
 **********************************************************************************************************************************

1PROGRAM * MULTI (Direct Multiconfiguration SCF)       Authors: P.J. Knowles, H.-J. Werner (1984)     S.T. Elbert (1988)


 Number of closed-shell orbitals:   5 (   2   1   1   0   1   0   0   0 )
 Number of active  orbitals:        5 (   2   0   0   1   0   1   1   0 )
 Number of external orbitals:     252 (  61  39  39  21  39  21  21  11 )

 State symmetry 1

 Number of electrons:     3    Spin symmetry=Quartet   Space symmetry=1
 Number of states:        1
 Number of CSFs:          1   (1 determinants, 10 intermediate states)

 State symmetry 2

 Number of electrons:     3    Spin symmetry=Quartet   Space symmetry=4
 Number of states:        3
 Number of CSFs:          3   (3 determinants, 10 intermediate states)

 State symmetry 3

 Number of electrons:     3    Spin symmetry=Quartet   Space symmetry=6
 Number of states:        3
 Number of CSFs:          3   (3 determinants, 10 intermediate states)

 State symmetry 4

 Number of electrons:     3    Spin symmetry=Quartet   Space symmetry=7
 Number of states:        3
 Number of CSFs:          3   (3 determinants, 10 intermediate states)

 Molecular orbitals read from record     4202.2  Type=RHF/CANONICAL (state 1.6)
 *** IN SYMMETRY 1 ORBITAL  1 SYMMETRY CONTAMINATION OF 0.126D-01 HAS BEEN REMOVED
 *** IN SYMMETRY 1 ORBITAL  2 SYMMETRY CONTAMINATION OF 0.235D-01 HAS BEEN REMOVED
 *** IN SYMMETRY 1 ORBITAL  3 SYMMETRY CONTAMINATION OF 0.401D+00 HAS BEEN REMOVED
 *** IN SYMMETRY 1 ORBITAL  4 SYMMETRY CONTAMINATION OF 0.369D+00 HAS BEEN REMOVED

 EXTRA SYMMETRY OF MOS IN SYMMETRY 1:   1 1 3 2 1 3 2 1 3 2   3 2 1 5 4 6 3 2 1 3   2 5 4 6 1 3 2 5 4 6   2 2 1 3 3 5 4 6 1 3
                                        2 1 3 2 1 3 2 1 1 3   2 1 1 3 2 1 1 1 1 1   1 1 1 1 1
 *** IN SYMMETRY 2 ORBITAL  1 SYMMETRY CONTAMINATION OF 0.386D-02 HAS BEEN REMOVED
 EXTRA SYMMETRY OF MOS IN SYMMETRY 2:   1 1 1 1 3 2 1 2 3 1   6 5 4 2 3 1 2 3 1 6   5 4 1 3 2 6 5 4 1 1   1 1 1 1 1 1 1 1 1 1
 *** IN SYMMETRY 3 ORBITAL  1 SYMMETRY CONTAMINATION OF 0.141D-01 HAS BEEN REMOVED
 EXTRA SYMMETRY OF MOS IN SYMMETRY 3:   1 1 1 1 3 2 1 3 2 1   6 4 5 1 2 1 3 2 1 6   4 5 1 3 2 6 4 5 1 1   1 1 1 1 1 1 1 1 1 3
 *** IN SYMMETRY 4 ORBITAL  1 SYMMETRY CONTAMINATION OF 0.453D-03 HAS BEEN REMOVED
 EXTRA SYMMETRY OF MOS IN SYMMETRY 4:   1 1 1 1 3 2 1 1 3 2   1 3 2 1 1 3 2 1 1 1   1 1
 *** IN SYMMETRY 5 ORBITAL  1 SYMMETRY CONTAMINATION OF 0.447D-02 HAS BEEN REMOVED
 EXTRA SYMMETRY OF MOS IN SYMMETRY 5:   1 1 1 1 3 2 1 2 3 1   4 5 6 2 3 1 2 3 1 4   5 6 1 3 2 4 5 6 1 1   1 1 1 1 1 1 1 1 1 1
 *** IN SYMMETRY 6 ORBITAL  1 SYMMETRY CONTAMINATION OF 0.476D-02 HAS BEEN REMOVED
 EXTRA SYMMETRY OF MOS IN SYMMETRY 6:   1 1 1 1 3 2 1 1 3 2   1 3 2 1 1 3 2 1 1 1   1 1
 *** IN SYMMETRY 7 ORBITAL  1 SYMMETRY CONTAMINATION OF 0.496D-03 HAS BEEN REMOVED
 EXTRA SYMMETRY OF MOS IN SYMMETRY 7:   1 1 1 1 2 3 1 1 2 3   1 2 3 1 1 2 3 1 1 1   1 1
 EXTRA SYMMETRY OF MOS IN SYMMETRY 8:   1 1 2 3 1 1 2 3 1 2   3

 Wavefunction dump at record             5202.2

 Convergence thresholds  0.10E-01 (gradient)  0.10E-05 (energy)  0.10E-02 (step length)

 Weight factors for state symmetry  1:    0.10000
 Weight factors for state symmetry  2:    0.10000   0.10000   0.10000
 Weight factors for state symmetry  3:    0.10000   0.10000   0.10000
 Weight factors for state symmetry  4:    0.10000   0.10000   0.10000

 Number of orbital rotations:      428   (     4 Core/Active    239 Core/Virtual   0 Active/Active    185 Active/Virtual)
 Total number of variables:        456


 ITER. MIC  NCI  NEG     ENERGY(VAR)     ENERGY(PROJ)   ENERGY CHANGE     GRAD(0)  GRAD(ORB)   GRAD(CI)     STEP       TIME

   1   43   16    4     -70.15577001     -71.02099281   -0.86522280    0.67762784 0.00000000 0.00000000  0.14D+01      0.70
   2   36   20    0     -70.74256520     -70.83197225   -0.08940706    0.62644335 0.00000000 0.00000000  0.27D+00      1.36
   3   33   20    0     -70.83619007     -70.83691900   -0.00072893    0.03944097 0.00000000 0.00000000  0.29D-01      2.07
   4   30   20    0     -70.83692470     -70.83692481   -0.00000011    0.00039686 0.00000000 0.00000000  0.38D-03      2.78

 ** WVFN ****  CONVERGENCE REACHED, FINAL GRADIENT:  0.58D-07



 Results for state 1.1
 =====================

 !MCSCF STATE 1.1 Energy              -70.856213840554
 Nuclear energy                         0.00000000
 Kinetic energy                        34.42811072
 One electron energy                 -121.05404690
 Two electron energy                   50.19783306
 Virial ratio                           3.05809184

 !MCSCF STATE 1.1 Dipole moment         0.00000000     0.00000000     0.00000000
 Dipole moment /Debye                   0.00000000     0.00000000     0.00000000



 Results for state 1.4
 =====================

 !MCSCF STATE 1.4 Energy              -70.856213840592
 Nuclear energy                         0.00000000
 Kinetic energy                        34.42811074
 One electron energy                 -121.05404692
 Two electron energy                   50.19783308
 Virial ratio                           3.05809184

 !MCSCF STATE 1.4 Dipole moment         0.00000000     0.00000000     0.00000000
 Dipole moment /Debye                   0.00000000     0.00000000     0.00000000

 Results for state 2.4
 =====================

 !MCSCF STATE 2.4 Energy              -70.856213840569
 Nuclear energy                         0.00000000
 Kinetic energy                        34.42811074
 One electron energy                 -121.05404692
 Two electron energy                   50.19783308
 Virial ratio                           3.05809184

 !MCSCF STATE 2.4 Dipole moment         0.00000000     0.00000000     0.00000000
 Dipole moment /Debye                   0.00000000     0.00000000     0.00000000

 Results for state 3.4
 =====================

 !MCSCF STATE 3.4 Energy              -70.791917060804
 Nuclear energy                         0.00000000
 Kinetic energy                        34.42811073
 One electron energy                 -121.05404691
 Two electron energy                   50.26212985
 Virial ratio                           3.05622428

 !MCSCF STATE 3.4 Dipole moment         0.00000000     0.00000000     0.00000000
 Dipole moment /Debye                   0.00000000     0.00000000     0.00000000



 Results for state 1.6
 =====================

 !MCSCF STATE 1.6 Energy              -70.856213840582
 Nuclear energy                         0.00000000
 Kinetic energy                        34.42811075
 One electron energy                 -121.05404692
 Two electron energy                   50.19783308
 Virial ratio                           3.05809184

 !MCSCF STATE 1.6 Dipole moment         0.00000000     0.00000000     0.00000000
 Dipole moment /Debye                   0.00000000     0.00000000     0.00000000

 Results for state 2.6
 =====================

 !MCSCF STATE 2.6 Energy              -70.856213840558
 Nuclear energy                         0.00000000
 Kinetic energy                        34.42811072
 One electron energy                 -121.05404691
 Two electron energy                   50.19783306
 Virial ratio                           3.05809184

 !MCSCF STATE 2.6 Dipole moment         0.00000000     0.00000000     0.00000000
 Dipole moment /Debye                   0.00000000     0.00000000     0.00000000

 Results for state 3.6
 =====================

 !MCSCF STATE 3.6 Energy              -70.791917060809
 Nuclear energy                         0.00000000
 Kinetic energy                        34.42811073
 One electron energy                 -121.05404691
 Two electron energy                   50.26212985
 Virial ratio                           3.05622428

 !MCSCF STATE 3.6 Dipole moment         0.00000000     0.00000000     0.00000000
 Dipole moment /Debye                   0.00000000     0.00000000     0.00000000



 Results for state 1.7
 =====================

 !MCSCF STATE 1.7 Energy              -70.856213840594
 Nuclear energy                         0.00000000
 Kinetic energy                        34.42811074
 One electron energy                 -121.05404692
 Two electron energy                   50.19783308
 Virial ratio                           3.05809184

 !MCSCF STATE 1.7 Dipole moment         0.00000000     0.00000000     0.00000000
 Dipole moment /Debye                   0.00000000     0.00000000     0.00000000

 Results for state 2.7
 =====================

 !MCSCF STATE 2.7 Energy              -70.856213840570
 Nuclear energy                         0.00000000
 Kinetic energy                        34.42811073
 One electron energy                 -121.05404691
 Two electron energy                   50.19783307
 Virial ratio                           3.05809184

 !MCSCF STATE 2.7 Dipole moment         0.00000000     0.00000000     0.00000000
 Dipole moment /Debye                   0.00000000     0.00000000     0.00000000

 Results for state 3.7
 =====================

 !MCSCF STATE 3.7 Energy              -70.791917060801
 Nuclear energy                         0.00000000
 Kinetic energy                        34.42811074
 One electron energy                 -121.05404691
 Two electron energy                   50.26212985
 Virial ratio                           3.05622428

 !MCSCF STATE 3.7 Dipole moment         0.00000000     0.00000000     0.00000000
 Dipole moment /Debye                   0.00000000     0.00000000     0.00000000

 State-averaged charge density matrix saved on record  5202.2 (density set 1)


 NATURAL ORBITALS (state averaged)
 =================================

   Orb     Occ        Energy       Coefficients

                                   1 1s      1 1s      1 1s      1 1s      1 1s      1 1s      1 1s      1 1s      1 1s      1 1s   
                                   1 1s      1 1s      1 1s      1 1s      1 1s      1 1s      1 1s      1 1s      1 1s      1 1s   
                                   1 1s      1 1s      1 1s      1 1s      1 1s      1 3d0     1 3d2+    1 3d0     1 3d2+    1 3d0  
                                   1 3d2+    1 3d0     1 3d2+    1 3d0     1 3d2+    1 3d0     1 3d2+    1 3d0     1 3d2+    1 3d0  
                                   1 3d2+    1 3d0     1 3d2+    1 3d0     1 3d2+    1 3d0     1 3d2+    1 3d0     1 3d2+    1 3d0  
                                   1 3d2+    1 3d0     1 3d2+    1 5g0     1 5g4+    1 5g2+    1 5g0     1 5g4+    1 5g2+    1 5g0  
                                   1 5g4+    1 5g2+    1 5g0     1 5g4+    1 5g2+ 

   1.1  2.00000    -3.221185    -0.000000  0.000000 -0.000000  0.000000 -0.000001  0.000004 -0.000012  0.000041 -0.000125  0.000364
                                -0.001045  0.003180 -0.012541  0.080573 -0.129048 -0.601924  0.199398  0.657950  0.336136  0.011447
                                -0.005096  0.002003  0.257853  0.064808 -0.000506  0.000000  0.000000  0.000000  0.000000  0.000000
                                 0.000000  0.000000  0.000000  0.000000  0.000000  0.000000  0.000000  0.000000  0.000000  0.000000
                                 0.000000  0.000000  0.000000  0.000000  0.000000  0.000000  0.000000  0.000000  0.000000  0.000000
                                 0.000000  0.000000  0.000000  0.000000  0.000000  0.000000  0.000000  0.000000  0.000000  0.000000
                                 0.000000  0.000000  0.000000  0.000000  0.000000

   2.1  2.00000    -0.232349     0.000000 -0.000000  0.000000 -0.000000  0.000000 -0.000001  0.000003 -0.000010  0.000029 -0.000086
                                 0.000247 -0.000761  0.003085 -0.020837  0.035735  0.167882 -0.067538 -0.254962 -0.240785  0.353771
                                 0.589307  0.230073 -0.075451  0.004764  0.000166  0.000000  0.000000  0.000000  0.000000  0.000000
                                 0.000000  0.000000  0.000000  0.000000  0.000000  0.000000  0.000000  0.000000  0.000000  0.000000
                                 0.000000  0.000000  0.000000  0.000000  0.000000  0.000000  0.000000  0.000000  0.000000  0.000000
                                 0.000000  0.000000  0.000000  0.000000  0.000000  0.000000  0.000000  0.000000  0.000000  0.000000
                                 0.000000  0.000000  0.000000  0.000000  0.000000

   3.1  0.60000     0.023934     0.000000  0.000000  0.000000  0.000000  0.000000  0.000000  0.000000  0.000000  0.000000  0.000000
                                 0.000000  0.000000  0.000000  0.000000  0.000000  0.000000  0.000000  0.000000  0.000000  0.000000
                                 0.000000  0.000000  0.000000  0.000000  0.000000 -0.000011  0.000000 -0.000071  0.000000 -0.010513
                                 0.000000 -0.054322  0.000000 -0.131126  0.000000 -0.228581  0.000000 -0.316075  0.000000 -0.316388
                                 0.000000 -0.204585  0.000000 -0.062409  0.000000 -0.002484  0.000000 -0.011268  0.000000 -0.010006
                                 0.000000 -0.000193  0.000000  0.000000  0.000000  0.000000  0.000000  0.000000  0.000000  0.000000
                                 0.000000  0.000000  0.000000  0.000000  0.000000

   4.1  0.60000     0.023934     0.000000  0.000000  0.000000  0.000000  0.000000  0.000000  0.000000  0.000000  0.000000  0.000000
                                 0.000000  0.000000  0.000000  0.000000  0.000000  0.000000  0.000000  0.000000  0.000000  0.000000
                                 0.000000  0.000000  0.000000  0.000000  0.000000  0.000000  0.000011  0.000000  0.000071  0.000000
                                 0.010513  0.000000  0.054322  0.000000  0.131126  0.000000  0.228581  0.000000  0.316075  0.000000
                                 0.316388  0.000000  0.204585  0.000000  0.062409  0.000000  0.002484  0.000000  0.011268  0.000000
                                 0.010006  0.000000  0.000193  0.000000  0.000000  0.000000  0.000000  0.000000  0.000000  0.000000
                                 0.000000  0.000000  0.000000  0.000000  0.000000

                                   1 2px     1 2px     1 2px     1 2px     1 2px     1 2px     1 2px     1 2px     1 2px     1 2px  
                                   1 2px     1 2px     1 2px     1 2px     1 2px     1 2px     1 2px     1 2px     1 2px     1 2px  
                                   1 2px     1 4f1+    1 4f3+    1 4f1+    1 4f3+    1 4f1+    1 4f3+    1 4f1+    1 4f3+    1 4f1+ 
                                   1 4f3+    1 6h1+    1 6h3+    1 6h5+    1 6h1+    1 6h3+    1 6h5+    1 6h1+    1 6h3+    1 6h5+ 


   1.2  2.00000    -2.039024    -0.000000  0.000000 -0.000002  0.000010 -0.000036  0.000125 -0.000413  0.001203  0.006727 -0.069777
                                 0.297962  0.198602  0.367677  0.385899  0.161483  0.015003 -0.000168  0.000402 -0.337367  0.033097
                                -0.000098  0.000000  0.000000  0.000000  0.000000  0.000000  0.000000  0.000000  0.000000  0.000000
                                 0.000000  0.000000  0.000000  0.000000  0.000000  0.000000  0.000000  0.000000  0.000000  0.000000

                                   1 2py     1 2py     1 2py     1 2py     1 2py     1 2py     1 2py     1 2py     1 2py     1 2py  
                                   1 2py     1 2py     1 2py     1 2py     1 2py     1 2py     1 2py     1 2py     1 2py     1 2py  
                                   1 2py     1 4f1-    1 4f3-    1 4f1-    1 4f3-    1 4f1-    1 4f3-    1 4f1-    1 4f3-    1 4f1- 
                                   1 4f3-    1 6h1-    1 6h3-    1 6h5-    1 6h1-    1 6h3-    1 6h5-    1 6h1-    1 6h3-    1 6h5- 


   1.3  2.00000    -2.039024    -0.000000  0.000000 -0.000002  0.000010 -0.000036  0.000125 -0.000413  0.001203  0.006727 -0.069777
                                 0.297962  0.198602  0.367677  0.385899  0.161483  0.015003 -0.000168  0.000402 -0.337367  0.033097
                                -0.000098  0.000000  0.000000  0.000000  0.000000  0.000000  0.000000  0.000000  0.000000  0.000000
                                 0.000000  0.000000  0.000000  0.000000  0.000000  0.000000  0.000000  0.000000  0.000000  0.000000

                                   1 3d2-    1 3d2-    1 3d2-    1 3d2-    1 3d2-    1 3d2-    1 3d2-    1 3d2-    1 3d2-    1 3d2- 
                                   1 3d2-    1 3d2-    1 3d2-    1 3d2-    1 5g2-    1 5g4-    1 5g2-    1 5g4-    1 5g2-    1 5g4- 
                                   1 5g2-    1 5g4- 

   1.4  0.60000     0.023934     0.000011  0.000071  0.010513  0.054322  0.131126  0.228581  0.316075  0.316388  0.204585  0.062409
                                 0.002484  0.011268  0.010006  0.000193  0.000000  0.000000  0.000000  0.000000  0.000000  0.000000
                                 0.000000  0.000000

                                   1 2pz     1 2pz     1 2pz     1 2pz     1 2pz     1 2pz     1 2pz     1 2pz     1 2pz     1 2pz  
                                   1 2pz     1 2pz     1 2pz     1 2pz     1 2pz     1 2pz     1 2pz     1 2pz     1 2pz     1 2pz  
                                   1 2pz     1 4f0     1 4f2+    1 4f0     1 4f2+    1 4f0     1 4f2+    1 4f0     1 4f2+    1 4f0  
                                   1 4f2+    1 6h2+    1 6h4+    1 6h0     1 6h2+    1 6h4+    1 6h0     1 6h2+    1 6h4+    1 6h0  


   1.5  2.00000    -2.039024    -0.000000  0.000000 -0.000002  0.000010 -0.000036  0.000125 -0.000413  0.001203  0.006727 -0.069777
                                 0.297962  0.198602  0.367677  0.385899  0.161483  0.015003 -0.000168  0.000402 -0.337367  0.033097
                                -0.000098  0.000000  0.000000  0.000000  0.000000  0.000000  0.000000  0.000000  0.000000  0.000000
                                 0.000000  0.000000  0.000000  0.000000  0.000000  0.000000  0.000000  0.000000  0.000000  0.000000

                                   1 3d1+    1 3d1+    1 3d1+    1 3d1+    1 3d1+    1 3d1+    1 3d1+    1 3d1+    1 3d1+    1 3d1+ 
                                   1 3d1+    1 3d1+    1 3d1+    1 3d1+    1 5g1+    1 5g3+    1 5g1+    1 5g3+    1 5g1+    1 5g3+ 
                                   1 5g1+    1 5g3+ 

   1.6  0.60000     0.023934     0.000011  0.000071  0.010513  0.054322  0.131126  0.228581  0.316075  0.316388  0.204585  0.062409
                                 0.002484  0.011268  0.010006  0.000193  0.000000  0.000000  0.000000  0.000000  0.000000  0.000000
                                 0.000000  0.000000

                                   1 3d1-    1 3d1-    1 3d1-    1 3d1-    1 3d1-    1 3d1-    1 3d1-    1 3d1-    1 3d1-    1 3d1- 
                                   1 3d1-    1 3d1-    1 3d1-    1 3d1-    1 5g1-    1 5g3-    1 5g1-    1 5g3-    1 5g1-    1 5g3- 
                                   1 5g1-    1 5g3- 

   1.7  0.60000     0.023934     0.000011  0.000071  0.010513  0.054322  0.131126  0.228581  0.316075  0.316388  0.204585  0.062409
                                 0.002484  0.011268  0.010006  0.000193  0.000000  0.000000  0.000000  0.000000  0.000000  0.000000
                                 0.000000  0.000000
 

 EXTRA SYMMETRY OF MOS IN SYMMETRY 1:   1 1 2 3 1 2 3 1 3 2   1 3 2 6 5 4 2 3 1 2   3 4 6 5 1 3 2 6 5 4   3 2 1 2 3 5 4 6 1 3
                                        2 1 2 3 1 2 3 1 1 2   3 1 1 3 2 1 1 1 1 1   1 1 1 1 1
 EXTRA SYMMETRY OF MOS IN SYMMETRY 2:   1 1 1 1 2 3 1 3 2 1   4 5 6 3 2 1 2 3 1 6   4 5 1 3 2 5 6 4 1 1   1 1 1 1 1 1 1 1 1 1
 EXTRA SYMMETRY OF MOS IN SYMMETRY 3:   1 1 1 1 2 3 1 3 2 1   6 5 4 3 2 1 2 3 1 4   6 5 1 2 3 4 5 6 1 1   1 1 1 1 1 1 1 1 1 1
 EXTRA SYMMETRY OF MOS IN SYMMETRY 4:   1 1 1 1 3 2 1 1 3 2   1 2 3 1 1 2 3 1 1 1   1 1
 EXTRA SYMMETRY OF MOS IN SYMMETRY 5:   1 1 1 1 2 3 1 3 2 1   4 6 5 3 2 1 2 3 1 6   4 5 1 3 2 5 6 4 1 1   1 1 1 1 1 1 1 1 1 1
 EXTRA SYMMETRY OF MOS IN SYMMETRY 6:   1 1 1 1 2 3 1 1 2 3   1 3 2 1 1 3 2 1 1 1   1 1
 EXTRA SYMMETRY OF MOS IN SYMMETRY 7:   1 1 1 1 3 2 1 1 3 2   1 2 3 1 1 2 3 1 1 1   1 1
 EXTRA SYMMETRY OF MOS IN SYMMETRY 8:   1 1 2 3 1 1 2 3 1 3   2

 Natural orbital dump (state averaged) at molpro section  5202.2    (Orbital set 2)


 CI vector for state symmetry 1
 ==============================

 00 a a a          1.0000000

 TOTAL ENERGIES                       -70.85621384

 CI vector for state symmetry 2
 ==============================

 a0 0 a a         -0.3262168   0.3059127   0.8944272
 0a 0 a a          0.6840416   0.7294430   0.0000000
 aa a 0 0          0.6524336  -0.6118254   0.4472136

 TOTAL ENERGIES                       -70.85621384   -70.85621384   -70.79191706

 CI vector for state symmetry 3
 ==============================

 aa 0 a 0          0.8844214   0.1334123  -0.4472136
 a0 a 0 a         -0.3502813   0.8229842  -0.4472136
 0a a 0 a          0.3083859   0.5521758   0.7745967

 TOTAL ENERGIES                       -70.85621384   -70.85621384   -70.79191706

 CI vector for state symmetry 4
 ==============================

 a0 a a 0         -0.1235201   0.8858571   0.4472136
 aa 0 0 a          0.8268474   0.3410621  -0.4472136
 0a a a 0          0.5486949  -0.3145375   0.7745967

 TOTAL ENERGIES                       -70.85621384   -70.85621384   -70.79191706



 **********************************************************************************************************************************
 DATASETS  * FILE   NREC   LENGTH (MB)   RECORD NAMES
              1      21      266.37       500      610      700      900      950      970     1000      129      960     1100   
                                          VAR    BASINP    GEOM    SYMINP    ZMAT    AOBASIS   BASIS     P2S    ABASIS      S 
                                         1400     1410     1420     1200     1210     1080     1600     1650     1300     1700   
                                           T        V       ECP      H0       H01     AOSYM     SMH    MOLCAS    ERIS     OPER   
                                         1380   
                                         JKOP   

              2       6        8.52       200      700     1000      520     4202     5202   
                                        OPTIONS   GEOM     BASIS   MCVARS     RHF     MCSCF   

 PROGRAMS   *        TOTAL     MULTI       RHF       INT
 CPU TIMES  *        38.06      3.55      2.42     31.95
 REAL TIME  *        40.73 SEC
 DISK USED  *         1.01 GB      
 **********************************************************************************************************************************

1PROGRAM * RHF-SCF (OPEN SHELL)       Authors: W. Meyer, H.-J. Werner


 NUMBER OF ELECTRONS:       8+    5-    SPACE SYMMETRY=1    SPIN SYMMETRY: Quartet 
 CONVERGENCE THRESHOLDS:    1.00E-05 (Density)    1.00E-07 (Energy)
 MAX. NUMBER OF ITERATIONS:        0
 INTERPOLATION TYPE:            DIIS
 INTERPOLATION STEPS:              2 (START)      1 (STEP)
 LEVEL SHIFTS:                 -0.30 (CLOSED)  0.00 (OPEN) 


 Singly occupied orbitals:      1.4       1.6       1.7
 Molecular orbitals read from record     5202.2  Type=MCSCF/NATURAL  

 Molecular orbital dump at record        2101.2

 ITERATION    DDIFF          GRAD             ENERGY        2-EL.EN.            DIPOLE MOMENTS         DIIS   ORB.
    1      0.000D+00      0.000D+00       -70.85621384    100.395666    0.00000    0.00000    0.00000    0    start

 Final alpha occupancy:   2   1   1   1   1   1   1   0
 Final beta  occupancy:   2   1   1   0   1   0   0   0

 !RHF STATE 1.1 Energy                -70.856213840554
 Nuclear energy                         0.00000000
 One-electron energy                 -121.05404690
 Two-electron energy                   50.19783306
 Virial quotient                       -2.05809184
 !RHF STATE 1.1 Dipole moment           0.00000000     0.00000000     0.00000000
 Dipole moment /Debye                   0.00000000     0.00000000     0.00000000

 Orbital energies:

         1.1          2.1          3.1          4.1
     -3.221185    -0.232349     0.023934     0.023934

         1.2          2.2          3.2
     -2.039024     0.016067     0.054077

         1.3          2.3          3.3
     -2.039024     0.016067     0.054077

         1.4          2.4          3.4
      0.023934     0.050084     0.160525

         1.5          2.5          3.5
     -2.039024     0.016067     0.054077

         1.6          2.6          3.6
      0.023934     0.050084     0.160525

         1.7          2.7          3.7
      0.023934     0.050084     0.160525

         1.8          2.8
      0.323146     1.011657

 HOMO      1.6     0.023934 =       0.6513eV
 LUMO      2.2     0.016067 =       0.4372eV
 LUMO-HOMO        -0.007867 =      -0.2141eV


 **********************************************************************************************************************************
 DATASETS  * FILE   NREC   LENGTH (MB)   RECORD NAMES
              1      21      266.37       500      610      700      900      950      970     1000      129      960     1100   
                                          VAR    BASINP    GEOM    SYMINP    ZMAT    AOBASIS   BASIS     P2S    ABASIS      S 
                                         1400     1410     1420     1200     1210     1080     1600     1650     1300     1700   
                                           T        V       ECP      H0       H01     AOSYM     SMH    MOLCAS    ERIS     OPER   
                                         1380   
                                         JKOP   

              2       7       11.85       200      700     1000      520     4202     5202     2101   
                                        OPTIONS   GEOM     BASIS   MCVARS     RHF     MCSCF     RHF  

 PROGRAMS   *        TOTAL       RHF     MULTI       RHF       INT
 CPU TIMES  *        38.25      0.19      3.55      2.42     31.95
 REAL TIME  *        40.96 SEC
 DISK USED  *         1.01 GB      
 **********************************************************************************************************************************
 SETTING SCF(1)         =       -70.85621384  AU                              
 SETTING _CC_NORM_MAX   =         2.00000000                                  


1PROGRAM * CCSD (Restricted open-shell coupled cluster)     Authors: C. Hampel, H.-J. Werner, 1991, M. Deegan, P.J. Knowles, 1992


 Convergence thresholds:  THRVAR = 1.00D-08  THRDEN = 1.00D-06

 CCSD(T)     terms to be evaluated (factor= 1.000)


 Number of closed-shell orbitals:   5 (   2   1   1   0   1   0   0   0 )
 Number of active  orbitals:        3 (   0   0   0   1   0   1   1   0 )
 Number of external orbitals:     254 (  63  39  39  21  39  21  21  11 )

 Memory could be reduced to 32.70 Mwords without degradation in triples

 Number of N-1 electron functions:              13
 Number of N-2 electron functions:              78
 Number of singly external CSFs:               552
 Number of doubly external CSFs:            509784
 Total number of CSFs:                      510336

 Molecular orbitals read from record     2101.2  Type=RHF/CANONICAL (state 1.1)

 Integral transformation finished. Total CPU:   0.95 sec, npass=  1  Memory used:   6.16 MW

 Starting RMP2 calculation

 Wavefunction is spin-projected

 ITER.      SQ.NORM     CORR.ENERGY   TOTAL ENERGY   ENERGY CHANGE        DEN1      VAR(S)    VAR(P)  DIIS     TIME
   1      1.09944428    -0.48727258   -71.34348642    -0.48727258    -0.00160932  0.50D-05  0.12D-02  1  1     0.98
   2      1.10278658    -0.48903038   -71.34524422    -0.00175781    -0.00003811  0.73D-07  0.39D-04  2  2     1.01
   3      1.10347305    -0.48925777   -71.34547161    -0.00022739    -0.00000059  0.21D-08  0.44D-06  3  3     1.03
   4      1.10351470    -0.48926901   -71.34548285    -0.00001124    -0.00000002  0.20D-10  0.18D-07  4  4     1.06
   5      1.10350789    -0.48926711   -71.34548095     0.00000190    -0.00000000  0.13D-11  0.23D-09  5  5     1.09
   6      1.10350717    -0.48926699   -71.34548083     0.00000012    -0.00000000  0.72D-13  0.29D-11  6  6     1.12

 Norm of t1 vector:      0.04100841      S-energy:    -0.00726429      T1 diagnostic:  0.00406442
 Norm of t2 vector:      0.31910105      P-energy:    -0.48200270
                                         Alpha-Beta:  -0.35072196
                                         Alpha-Alpha: -0.08843134
                                         Beta-Beta:   -0.04284941

 Spin contamination <S**2-Sz**2-Sz>     0.00000000
  Reference energy                    -70.856213840554
  RHF-RMP2 correlation energy          -0.489266987873
 !RHF-RMP2 energy                     -71.345480828427
 (NB above energy spin projected)

 Starting RCCSD calculation

 ITER.      SQ.NORM     CORR.ENERGY   TOTAL ENERGY   ENERGY CHANGE        DEN1      VAR(S)    VAR(P)  DIIS     TIME
   1      1.10618551    -0.49160104   -71.34781488    -0.49160104    -0.00809430  0.23D-02  0.28D-02  1  1     2.49
   2      1.12178300    -0.49971073   -71.35592457    -0.00810969    -0.00106321  0.42D-03  0.66D-03  2  2     3.83
   3      1.13241259    -0.50210799   -71.35832183    -0.00239726    -0.00018706  0.12D-03  0.10D-03  3  3     5.25
   4      1.13952912    -0.50336749   -71.35958133    -0.00125950    -0.00001540  0.70D-05  0.80D-05  4  4     6.62
   5      1.14129778    -0.50359272   -71.35980656    -0.00022523    -0.00000227  0.35D-06  0.14D-05  5  5     7.98
   6      1.14153824    -0.50361064   -71.35982448    -0.00001792    -0.00000068  0.43D-07  0.47D-06  6  6     9.34
   7      1.14161107    -0.50361709   -71.35983093    -0.00000645    -0.00000019  0.18D-07  0.12D-06  6  2    10.72
   8      1.14155944    -0.50361028   -71.35982412     0.00000681    -0.00000004  0.65D-08  0.24D-07  6  1    12.09
   9      1.14156993    -0.50361394   -71.35982779    -0.00000366    -0.00000001  0.20D-08  0.38D-08  6  3    13.46
  10      1.14156653    -0.50361330   -71.35982715     0.00000064    -0.00000000  0.38D-09  0.68D-09  6  4    14.80

 Norm of t1 vector:      0.11263827      S-energy:    -0.00674634      T1 diagnostic:  0.02021886
                                                                       D1 diagnostic:  0.06893664
 Norm of t2 vector:      0.35899742      P-energy:    -0.49686696
                                         Alpha-Beta:  -0.37134778
                                         Alpha-Alpha: -0.08432722
                                         Beta-Beta:   -0.04119197

 Singles amplitudes (print threshold =  0.500E-01):

         I         SYM. A    A   T(IA) [Alpha-Alpha]

         2         1         6     -0.06523182

 Doubles amplitudes (print threshold =  0.500E-01):

         I         J         SYM. A    SYM. B    A         B      T(IJ, AB) [Alpha-Beta]

         2         2         2         2         2         2     -0.05358648
         2         2         3         3         2         2     -0.05358648
         2         2         5         5         2         2     -0.05358648

 Spin contamination <S**2-Sz**2-Sz>     0.00000000

 Memory could be reduced to 35.05 Mwords without degradation in triples
 

  Correlated core orbitals:             1.1       1.2       1.3       1.5
  Orbital energies:                    -3.3329   -2.1755   -2.1755   -2.1755
 
  RCCSD core-core energy               -0.238168468271
  RCCSD core-valence energy            -0.193676583811
  RCCSD valence correlation energy     -0.071768252770
 

 RESULTS
 =======

  Reference energy                    -70.856213840554
  RCCSD singles energy                 -0.006746342805
  RCCSD pair energy                    -0.496866962047
  RCCSD correlation energy             -0.503613304852
  Triples (T) contribution             -0.017548464253
  Total correlation energy             -0.521161769105
 
  RHF-RCCSD energy                    -71.359827145405
  RHF-RCCSD[T] energy                 -71.377530703825
  RHF-RCCSD-T energy                  -71.377339691618
 !RHF-RCCSD(T) energy                 -71.377375609658

 Program statistics:

 Available memory in ccsd:               511999308
 Min. memory needed in ccsd:               1690150
 Max. memory used in ccsd:                 2286066
 Max. memory used in cckext:               1792612 (10 integral passes)
 Max. memory used in cckint:               6155544 ( 1 integral passes)



 **********************************************************************************************************************************
 DATASETS  * FILE   NREC   LENGTH (MB)   RECORD NAMES
              1      21      266.37       500      610      700      900      950      970     1000      129      960     1100   
                                          VAR    BASINP    GEOM    SYMINP    ZMAT    AOBASIS   BASIS     P2S    ABASIS      S 
                                         1400     1410     1420     1200     1210     1080     1600     1650     1300     1700   
                                           T        V       ECP      H0       H01     AOSYM     SMH    MOLCAS    ERIS     OPER   
                                         1380   
                                         JKOP   

              2       7       11.85       200      700     1000      520     4202     5202     2101   
                                        OPTIONS   GEOM     BASIS   MCVARS     RHF     MCSCF     RHF  

 PROGRAMS   *        TOTAL  RCCSD(T)       RHF     MULTI       RHF       INT
 CPU TIMES  *        73.05     34.80      0.19      3.55      2.42     31.95
 REAL TIME  *        78.09 SEC
 DISK USED  *         1.01 GB      
 **********************************************************************************************************************************
 SETTING CCSD(1)        =       -71.37737561  AU                              

 DO I                   =         2.00000000   

 Running procedure=IS1D4

1PROGRAM * RHF-SCF (OPEN SHELL)       Authors: W. Meyer, H.-J. Werner


 NUMBER OF ELECTRONS:       9+    4-    SPACE SYMMETRY=4    SPIN SYMMETRY: Sextet  
 CONVERGENCE THRESHOLDS:    1.00E-05 (Density)    1.00E-07 (Energy)
 MAX. NUMBER OF ITERATIONS:       60
 INTERPOLATION TYPE:            DIIS
 INTERPOLATION STEPS:              2 (START)      1 (STEP)
 LEVEL SHIFTS:                 -0.30 (CLOSED)  0.00 (OPEN) 


 Singly occupied orbitals:      2.1       3.1       4.1       1.6       1.7
 
 Extra symmetries of mos in symmetry 1:   1   3   2   1
 Orbital guess generated from atomic densities. Full valence occupancy:    4   1   1   1   1   1   1   0


 Molecular orbital dump at record        4202.2

 ITERATION    DDIFF          GRAD             ENERGY        2-EL.EN.            DIPOLE MOMENTS         DIIS   ORB.
    1      0.000D+00      0.000D+00       -70.76781128     99.222635    0.00000    0.00000    0.00000    0    start
    2      0.000D+00      0.801D-02       -70.82821617    106.251506    0.00000    0.00000    0.00000    1    diag,B
    3      0.753D-02      0.976D-02       -70.84591486    104.815569    0.00000    0.00000    0.00000    2    diag,B
    4      0.307D-02      0.379D-02       -70.85084508    104.215117    0.00000    0.00000    0.00000    3    diag,B
    5      0.369D-02      0.299D-03       -70.85110386    104.267655    0.00000    0.00000    0.00000    4    diag,B
    6      0.591D-03      0.946D-04       -70.85113252    104.254995    0.00000    0.00000    0.00000    5    diag,B
    7      0.271D-03      0.160D-04       -70.85113397    104.249629    0.00000    0.00000    0.00000    6    fixocc
    8      0.836D-04      0.279D-05       -70.85113399    104.249744    0.00000    0.00000    0.00000    7    diag,B
    9      0.717D-05      0.431D-06       -70.85113399    104.249767    0.00000    0.00000    0.00000    0    orth

 Final alpha occupancy:   4   1   1   0   1   1   1   0
 Final beta  occupancy:   1   1   1   0   1   0   0   0

 !RHF STATE 1.4 Energy                -70.851133985843
 Nuclear energy                         0.00000000
 One-electron energy                 -122.97601772
 Two-electron energy                   52.12488373
 Virial quotient                       -1.98387318
 !RHF STATE 1.4 Dipole moment           0.00000000     0.00000000     0.00000000
 Dipole moment /Debye                   0.00000000     0.00000000     0.00000000

 Orbital energies:

         1.1          2.1          3.1          4.1          5.1          6.1
     -3.028853    -0.351854    -0.299482    -0.216970     0.024952     0.049749

         1.2          2.2          3.2
     -1.865076     0.014966     0.053999

         1.3          2.3          3.3
     -1.865076     0.014966     0.053999

         1.4          2.4
      0.048985     0.138564

         1.5          2.5          3.5
     -1.857699     0.016014     0.055293

         1.6          2.6          3.6
     -0.312274     0.050185     0.162077

         1.7          2.7          3.7
     -0.312274     0.050185     0.162077

         1.8          2.8
      0.323878     1.034791

 HOMO      4.1    -0.216970 =      -5.9041eV
 LUMO      2.2     0.014966 =       0.4072eV
 LUMO-HOMO         0.231936 =       6.3113eV


 **********************************************************************************************************************************
 DATASETS  * FILE   NREC   LENGTH (MB)   RECORD NAMES
              1      21      266.37       500      610      700      900      950      970     1000      129      960     1100   
                                          VAR    BASINP    GEOM    SYMINP    ZMAT    AOBASIS   BASIS     P2S    ABASIS      S 
                                         1400     1410     1420     1200     1210     1080     1600     1650     1300     1700   
                                           T        V       ECP      H0       H01     AOSYM     SMH    MOLCAS    ERIS     OPER   
                                         1380   
                                         JKOP   

              2       7       11.85       200      700     1000      520     4202     5202     2101   
                                        OPTIONS   GEOM     BASIS   MCVARS     RHF     MCSCF     RHF  

 PROGRAMS   *        TOTAL       RHF  RCCSD(T)       RHF     MULTI       RHF       INT
 CPU TIMES  *        74.80      1.74     34.80      0.19      3.55      2.42     31.95
 REAL TIME  *        80.03 SEC
 DISK USED  *         1.01 GB      
 **********************************************************************************************************************************

1PROGRAM * MULTI (Direct Multiconfiguration SCF)       Authors: P.J. Knowles, H.-J. Werner (1984)     S.T. Elbert (1988)


 Number of closed-shell orbitals:   4 (   1   1   1   0   1   0   0   0 )
 Number of active  orbitals:        6 (   3   0   0   1   0   1   1   0 )
 Number of external orbitals:     252 (  61  39  39  21  39  21  21  11 )

 State symmetry 1

 Orbital occupancy restrictions for symmetry 1
  1      1       002000                          

 Number of electrons:     5    Spin symmetry=Sextet    Space symmetry=1
 Number of states:        2
 Number of CSFs:          2

 State symmetry 2

 Orbital occupancy restrictions for symmetry 4
  1      1       002000                          

 Number of electrons:     5    Spin symmetry=Sextet    Space symmetry=4
 Number of states:        1
 Number of CSFs:          1

 State symmetry 3

 Orbital occupancy restrictions for symmetry 6
  1      1       002000                          

 Number of electrons:     5    Spin symmetry=Sextet    Space symmetry=6
 Number of states:        1
 Number of CSFs:          1

 State symmetry 4

 Orbital occupancy restrictions for symmetry 7
  1      1       002000                          

 Number of electrons:     5    Spin symmetry=Sextet    Space symmetry=7
 Number of states:        1
 Number of CSFs:          1
 
 Maximum number of shells:             1
 Maximum number of spin couplings:     1

 Storage for configuration lists      46, coupling coefficients      5, address lists    266

 Molecular orbitals read from record     4202.2  Type=RHF/CANONICAL (state 1.4)
 *** IN SYMMETRY 1 ORBITAL  1 SYMMETRY CONTAMINATION OF 0.774D-02 HAS BEEN REMOVED
 *** IN SYMMETRY 1 ORBITAL  2 SYMMETRY CONTAMINATION OF 0.269D-02 HAS BEEN REMOVED
 *** IN SYMMETRY 1 ORBITAL  3 SYMMETRY CONTAMINATION OF 0.385D-01 HAS BEEN REMOVED
 *** IN SYMMETRY 1 ORBITAL  4 SYMMETRY CONTAMINATION OF 0.140D-01 HAS BEEN REMOVED

 EXTRA SYMMETRY OF MOS IN SYMMETRY 1:   1 3 2 1 1 3 2 1 3 2   3 2 1 5 6 4 3 2 1 3   2 5 6 4 1 3 2 5 6 4   3 2 1 3 2 5 6 4 1 3
                                        2 1 3 2 1 3 2 1 1 3   2 1 1 3 2 1 1 1 1 1   1 1 1 1 1
 *** IN SYMMETRY 2 ORBITAL  1 SYMMETRY CONTAMINATION OF 0.678D-02 HAS BEEN REMOVED
 EXTRA SYMMETRY OF MOS IN SYMMETRY 2:   1 1 1 1 3 2 1 2 3 1   6 5 4 2 3 1 3 2 1 6   5 4 1 3 2 6 5 4 1 1   1 1 1 1 1 1 1 1 1 1
 *** IN SYMMETRY 3 ORBITAL  1 SYMMETRY CONTAMINATION OF 0.678D-02 HAS BEEN REMOVED
 EXTRA SYMMETRY OF MOS IN SYMMETRY 3:   1 1 1 1 3 2 1 2 3 1   6 5 4 2 3 1 3 2 1 6   5 4 1 3 2 6 5 4 1 1   1 1 1 1 1 1 1 1 1 1
 *** IN SYMMETRY 4 ORBITAL  1 SYMMETRY CONTAMINATION OF 0.183D-03 HAS BEEN REMOVED
 EXTRA SYMMETRY OF MOS IN SYMMETRY 4:   1 1 1 1 3 2 1 1 3 2   1 3 2 1 1 3 2 1 1 1   1 1
 *** IN SYMMETRY 5 ORBITAL  1 SYMMETRY CONTAMINATION OF 0.317D-02 HAS BEEN REMOVED
 EXTRA SYMMETRY OF MOS IN SYMMETRY 5:   1 1 1 1 3 2 1 3 2 1   5 4 6 3 2 1 3 2 1 5   4 6 1 3 2 5 4 6 1 1   1 1 1 1 1 1 1 1 1 1
 *** IN SYMMETRY 6 ORBITAL  1 SYMMETRY CONTAMINATION OF 0.576D-02 HAS BEEN REMOVED
 EXTRA SYMMETRY OF MOS IN SYMMETRY 6:   1 1 1 1 3 2 1 1 3 2   1 3 2 1 1 3 2 1 1 1   1 1
 *** IN SYMMETRY 7 ORBITAL  1 SYMMETRY CONTAMINATION OF 0.576D-02 HAS BEEN REMOVED
 EXTRA SYMMETRY OF MOS IN SYMMETRY 7:   1 1 1 1 3 2 1 1 3 2   1 3 2 1 1 3 2 1 1 1   1 1
 EXTRA SYMMETRY OF MOS IN SYMMETRY 8:   1 1 2 3 1 1 2 3 1 2   3

 Wavefunction dump at record             5202.2

 Convergence thresholds  0.10E-01 (gradient)  0.10E-05 (energy)  0.10E-02 (step length)

 Weight factors for state symmetry  1:    0.20000   0.20000
 Weight factors for state symmetry  2:    0.20000
 Weight factors for state symmetry  3:    0.20000
 Weight factors for state symmetry  4:    0.20000

 Eigenvalues of redundancy matrix
   1-  3   -0.000000    0.000000    1.000000

 Non-redundant active-active orbital rotations:
     1  2  3  4  5
  2   
  3     +
  4         
  5            
  6               

 Number of orbital rotations:      428   (     3 Core/Active    178 Core/Virtual   1 Active/Active    246 Active/Virtual)
 Total number of variables:        435


 ITER. MIC  NCI  NEG     ENERGY(VAR)     ENERGY(PROJ)   ENERGY CHANGE     GRAD(0)  GRAD(ORB)   GRAD(CI)     STEP       TIME

   1   37   28    0     -70.63492370     -70.89478686   -0.25986316    0.40873588 0.00000000 0.00000000  0.10D+01      0.73
   2   20   32    0     -70.80867986     -70.84701145   -0.03833159    0.37163915 0.00000000 0.00000000  0.21D+00      1.42
   3   20   32    0     -70.84850275     -70.84869185   -0.00018910    0.01689871 0.00000000 0.00000000  0.20D-01      2.12
   4   26   20    0     -70.84869268     -70.84869269   -0.00000001    0.00009420 0.00000000 0.00000000  0.15D-03      2.82

 ** WVFN ****  CONVERGENCE REACHED, FINAL GRADIENT:  0.50D-08



 Results for state 1.1
 =====================

 !MCSCF STATE 1.1 Energy              -70.848692689591
 Nuclear energy                         0.00000000
 Kinetic energy                        35.70426855
 One electron energy                 -122.97454433
 Two electron energy                   52.12585164
 Virial ratio                           2.98431996

 !MCSCF STATE 1.1 Dipole moment         0.00000000     0.00000000     0.00000000
 Dipole moment /Debye                   0.00000000     0.00000000     0.00000000

 Results for state 2.1
 =====================

 !MCSCF STATE 2.1 Energy              -70.848692689403
 Nuclear energy                         0.00000000
 Kinetic energy                        35.70426854
 One electron energy                 -122.97454432
 Two electron energy                   52.12585163
 Virial ratio                           2.98431996

 !MCSCF STATE 2.1 Dipole moment         0.00000000     0.00000000     0.00000000
 Dipole moment /Debye                   0.00000000     0.00000000     0.00000000



 Results for state 1.4
 =====================

 !MCSCF STATE 1.4 Energy              -70.848692689533
 Nuclear energy                         0.00000000
 Kinetic energy                        35.70426859
 One electron energy                 -122.97454435
 Two electron energy                   52.12585167
 Virial ratio                           2.98431996

 !MCSCF STATE 1.4 Dipole moment         0.00000000     0.00000000     0.00000000
 Dipole moment /Debye                   0.00000000     0.00000000     0.00000000



 Results for state 1.6
 =====================

 !MCSCF STATE 1.6 Energy              -70.848692689544
 Nuclear energy                         0.00000000
 Kinetic energy                        35.70426855
 One electron energy                 -122.97454433
 Two electron energy                   52.12585164
 Virial ratio                           2.98431996

 !MCSCF STATE 1.6 Dipole moment         0.00000000     0.00000000     0.00000000
 Dipole moment /Debye                   0.00000000     0.00000000     0.00000000



 Results for state 1.7
 =====================

 !MCSCF STATE 1.7 Energy              -70.848692689544
 Nuclear energy                         0.00000000
 Kinetic energy                        35.70426855
 One electron energy                 -122.97454433
 Two electron energy                   52.12585164
 Virial ratio                           2.98431996

 !MCSCF STATE 1.7 Dipole moment         0.00000000     0.00000000     0.00000000
 Dipole moment /Debye                   0.00000000     0.00000000     0.00000000

 State-averaged charge density matrix saved on record  5202.2 (density set 1)


 NATURAL ORBITALS (state averaged)
 =================================

   Orb     Occ        Energy       Coefficients

                                   1 1s      1 1s      1 1s      1 1s      1 1s      1 1s      1 1s      1 1s      1 1s      1 1s   
                                   1 1s      1 1s      1 1s      1 1s      1 1s      1 1s      1 1s      1 1s      1 1s      1 1s   
                                   1 1s      1 1s      1 1s      1 1s      1 1s      1 3d0     1 3d2+    1 3d0     1 3d2+    1 3d0  
                                   1 3d2+    1 3d0     1 3d2+    1 3d0     1 3d2+    1 3d0     1 3d2+    1 3d0     1 3d2+    1 3d0  
                                   1 3d2+    1 3d0     1 3d2+    1 3d0     1 3d2+    1 3d0     1 3d2+    1 3d0     1 3d2+    1 3d0  
                                   1 3d2+    1 3d0     1 3d2+    1 5g0     1 5g4+    1 5g2+    1 5g0     1 5g4+    1 5g2+    1 5g0  
                                   1 5g4+    1 5g2+    1 5g0     1 5g4+    1 5g2+ 

   1.1  2.00000    -3.029275    -0.000000  0.000000 -0.000000  0.000000 -0.000001  0.000003 -0.000012  0.000039 -0.000120  0.000351
                                -0.001011  0.003090 -0.012277  0.079252 -0.125577 -0.640636  0.176814  0.599483  0.360380  0.018338
                                -0.009156  0.003760  0.305163  0.110020 -0.001007  0.000000  0.000000  0.000000  0.000000  0.000000
                                 0.000000  0.000000  0.000000  0.000000  0.000000  0.000000  0.000000  0.000000  0.000000  0.000000
                                 0.000000  0.000000  0.000000  0.000000  0.000000  0.000000  0.000000  0.000000  0.000000  0.000000
                                 0.000000  0.000000  0.000000  0.000000  0.000000  0.000000  0.000000  0.000000  0.000000  0.000000
                                 0.000000  0.000000  0.000000  0.000000  0.000000

   2.1  1.00000    -0.078900     0.000000 -0.000000  0.000000 -0.000000  0.000000 -0.000001  0.000002 -0.000007  0.000021 -0.000063
                                 0.000187 -0.000601  0.002633 -0.018700  0.029724  0.251054 -0.019792 -0.123620 -0.251831  0.241289
                                 0.629730  0.277903 -0.174105 -0.115311  0.008724  0.000000  0.000000  0.000000  0.000000  0.000000
                                 0.000000  0.000000  0.000000  0.000000  0.000000  0.000000  0.000000  0.000000  0.000000  0.000000
                                 0.000000  0.000000  0.000000  0.000000  0.000000  0.000000  0.000000  0.000000  0.000000  0.000000
                                 0.000000  0.000000  0.000000  0.000000  0.000000  0.000000  0.000000  0.000000  0.000000  0.000000
                                 0.000000  0.000000  0.000000  0.000000  0.000000

   3.1  0.80000     0.101771     0.000000  0.000000  0.000000  0.000000  0.000000  0.000000  0.000000  0.000000  0.000000  0.000000
                                 0.000000  0.000000  0.000000  0.000000  0.000000  0.000000  0.000000  0.000000  0.000000  0.000000
                                 0.000000  0.000000  0.000000  0.000000  0.000000  0.000010  0.000000  0.000064  0.000000  0.009499
                                 0.000000  0.049040  0.000000  0.118275  0.000000  0.206780  0.000000  0.287189  0.000000  0.302730
                                 0.000000  0.248603  0.000000  0.133334  0.000000  0.021652  0.000000  0.010105  0.000000  0.009174
                                 0.000000 -0.000688  0.000000  0.000000  0.000000  0.000000  0.000000  0.000000  0.000000  0.000000
                                 0.000000  0.000000  0.000000  0.000000  0.000000

   4.1  0.80000     0.101771     0.000000  0.000000  0.000000  0.000000  0.000000  0.000000  0.000000  0.000000  0.000000  0.000000
                                 0.000000  0.000000  0.000000  0.000000  0.000000  0.000000  0.000000  0.000000  0.000000  0.000000
                                 0.000000  0.000000  0.000000  0.000000  0.000000  0.000000  0.000010  0.000000  0.000064  0.000000
                                 0.009499  0.000000  0.049040  0.000000  0.118275  0.000000  0.206780  0.000000  0.287189  0.000000
                                 0.302730  0.000000  0.248603  0.000000  0.133334  0.000000  0.021652  0.000000  0.010105  0.000000
                                 0.009174  0.000000 -0.000688  0.000000  0.000000  0.000000  0.000000  0.000000  0.000000  0.000000
                                 0.000000  0.000000  0.000000  0.000000  0.000000

                                   1 2px     1 2px     1 2px     1 2px     1 2px     1 2px     1 2px     1 2px     1 2px     1 2px  
                                   1 2px     1 2px     1 2px     1 2px     1 2px     1 2px     1 2px     1 2px     1 2px     1 2px  
                                   1 2px     1 4f1+    1 4f3+    1 4f1+    1 4f3+    1 4f1+    1 4f3+    1 4f1+    1 4f3+    1 4f1+ 
                                   1 4f3+    1 6h1+    1 6h3+    1 6h5+    1 6h1+    1 6h3+    1 6h5+    1 6h1+    1 6h3+    1 6h5+ 


   1.2  2.00000    -1.862806    -0.000000  0.000000 -0.000002  0.000009 -0.000035  0.000121 -0.000400  0.001165  0.006700 -0.069006
                                 0.309906  0.197002  0.350950  0.379592  0.177883  0.020762 -0.000970  0.000755 -0.349359  0.041163
                                -0.000206  0.000000  0.000000  0.000000  0.000000  0.000000  0.000000  0.000000  0.000000  0.000000
                                 0.000000  0.000000  0.000000  0.000000  0.000000  0.000000  0.000000  0.000000  0.000000  0.000000

                                   1 2py     1 2py     1 2py     1 2py     1 2py     1 2py     1 2py     1 2py     1 2py     1 2py  
                                   1 2py     1 2py     1 2py     1 2py     1 2py     1 2py     1 2py     1 2py     1 2py     1 2py  
                                   1 2py     1 4f1-    1 4f3-    1 4f1-    1 4f3-    1 4f1-    1 4f3-    1 4f1-    1 4f3-    1 4f1- 
                                   1 4f3-    1 6h1-    1 6h3-    1 6h5-    1 6h1-    1 6h3-    1 6h5-    1 6h1-    1 6h3-    1 6h5- 


   1.3  2.00000    -1.862806    -0.000000  0.000000 -0.000002  0.000009 -0.000035  0.000121 -0.000400  0.001165  0.006700 -0.069006
                                 0.309906  0.197002  0.350950  0.379592  0.177883  0.020762 -0.000970  0.000755 -0.349359  0.041163
                                -0.000206  0.000000  0.000000  0.000000  0.000000  0.000000  0.000000  0.000000  0.000000  0.000000
                                 0.000000  0.000000  0.000000  0.000000  0.000000  0.000000  0.000000  0.000000  0.000000  0.000000

                                   1 3d2-    1 3d2-    1 3d2-    1 3d2-    1 3d2-    1 3d2-    1 3d2-    1 3d2-    1 3d2-    1 3d2- 
                                   1 3d2-    1 3d2-    1 3d2-    1 3d2-    1 5g2-    1 5g4-    1 5g2-    1 5g4-    1 5g2-    1 5g4- 
                                   1 5g2-    1 5g4- 

   1.4  0.80000     0.101771     0.000010  0.000064  0.009499  0.049040  0.118275  0.206780  0.287189  0.302730  0.248603  0.133334
                                 0.021652  0.010105  0.009174 -0.000688  0.000000  0.000000  0.000000  0.000000  0.000000  0.000000
                                 0.000000  0.000000

                                   1 2pz     1 2pz     1 2pz     1 2pz     1 2pz     1 2pz     1 2pz     1 2pz     1 2pz     1 2pz  
                                   1 2pz     1 2pz     1 2pz     1 2pz     1 2pz     1 2pz     1 2pz     1 2pz     1 2pz     1 2pz  
                                   1 2pz     1 4f0     1 4f2+    1 4f0     1 4f2+    1 4f0     1 4f2+    1 4f0     1 4f2+    1 4f0  
                                   1 4f2+    1 6h2+    1 6h4+    1 6h0     1 6h2+    1 6h4+    1 6h0     1 6h2+    1 6h4+    1 6h0  


   1.5  2.00000    -1.862806    -0.000000  0.000000 -0.000002  0.000009 -0.000035  0.000121 -0.000400  0.001165  0.006700 -0.069006
                                 0.309906  0.197002  0.350950  0.379592  0.177883  0.020762 -0.000970  0.000755 -0.349359  0.041163
                                -0.000206  0.000000  0.000000  0.000000  0.000000  0.000000  0.000000  0.000000  0.000000  0.000000
                                 0.000000  0.000000  0.000000  0.000000  0.000000  0.000000  0.000000  0.000000  0.000000  0.000000

                                   1 3d1+    1 3d1+    1 3d1+    1 3d1+    1 3d1+    1 3d1+    1 3d1+    1 3d1+    1 3d1+    1 3d1+ 
                                   1 3d1+    1 3d1+    1 3d1+    1 3d1+    1 5g1+    1 5g3+    1 5g1+    1 5g3+    1 5g1+    1 5g3+ 
                                   1 5g1+    1 5g3+ 

   1.6  0.80000     0.101771     0.000010  0.000064  0.009499  0.049040  0.118275  0.206780  0.287189  0.302730  0.248603  0.133334
                                 0.021652  0.010105  0.009174 -0.000688  0.000000  0.000000  0.000000  0.000000  0.000000  0.000000
                                 0.000000  0.000000

                                   1 3d1-    1 3d1-    1 3d1-    1 3d1-    1 3d1-    1 3d1-    1 3d1-    1 3d1-    1 3d1-    1 3d1- 
                                   1 3d1-    1 3d1-    1 3d1-    1 3d1-    1 5g1-    1 5g3-    1 5g1-    1 5g3-    1 5g1-    1 5g3- 
                                   1 5g1-    1 5g3- 

   1.7  0.80000     0.101771     0.000010  0.000064  0.009499  0.049040  0.118275  0.206780  0.287189  0.302730  0.248603  0.133334
                                 0.021652  0.010105  0.009174 -0.000688  0.000000  0.000000  0.000000  0.000000  0.000000  0.000000
                                 0.000000  0.000000
 

 EXTRA SYMMETRY OF MOS IN SYMMETRY 1:   1 1 2 3 1 3 2 1 2 3   1 2 3 5 4 6 3 2 1 2   3 6 4 5 1 2 3 4 6 5   3 2 1 3 2 4 5 6 1 3
                                        2 1 3 2 1 3 2 1 1 3   2 1 1 3 2 1 1 1 1 1   1 1 1 1 1
 EXTRA SYMMETRY OF MOS IN SYMMETRY 2:   1 1 1 1 2 3 1 2 3 1   4 5 6 2 3 1 3 2 1 6   5 4 1 3 2 6 5 4 1 1   1 1 1 1 1 1 1 1 1 1
 EXTRA SYMMETRY OF MOS IN SYMMETRY 3:   1 1 1 1 2 3 1 2 3 1   4 5 6 2 3 1 3 2 1 6   5 4 1 3 2 6 5 4 1 1   1 1 1 1 1 1 1 1 1 1
 EXTRA SYMMETRY OF MOS IN SYMMETRY 4:   1 1 1 1 2 3 1 1 2 3   1 3 2 1 1 3 2 1 1 1   1 1
 EXTRA SYMMETRY OF MOS IN SYMMETRY 5:   1 1 1 1 2 3 1 2 3 1   4 6 5 3 2 1 3 2 1 5   6 4 1 3 2 5 6 4 1 1   1 1 1 1 1 1 1 1 1 1
 EXTRA SYMMETRY OF MOS IN SYMMETRY 6:   1 1 1 1 2 3 1 1 2 3   1 3 2 1 1 3 2 1 1 1   1 1
 EXTRA SYMMETRY OF MOS IN SYMMETRY 7:   1 1 1 1 2 3 1 1 2 3   1 3 2 1 1 3 2 1 1 1   1 1
 EXTRA SYMMETRY OF MOS IN SYMMETRY 8:   1 1 3 2 1 1 2 3 1 2   3

 Natural orbital dump (state averaged) at molpro section  5202.2    (Orbital set 2)


 CI vector for state symmetry 1
 ==============================

 0// / / /         -0.0000000   1.0000000
 /0/ / / /          1.0000000   0.0000000

 TOTAL ENERGIES                       -70.84869269   -70.65642944

 CI vector for state symmetry 2
 ==============================

 /// 0 / /          1.0000000

 TOTAL ENERGIES                       -70.84869269

 CI vector for state symmetry 3
 ==============================

 /// / 0 /          1.0000000

 TOTAL ENERGIES                       -70.84869269

 CI vector for state symmetry 4
 ==============================

 /// / / 0          1.0000000

 TOTAL ENERGIES                       -70.84869269



 **********************************************************************************************************************************
 DATASETS  * FILE   NREC   LENGTH (MB)   RECORD NAMES
              1      21      266.37       500      610      700      900      950      970     1000      129      960     1100   
                                          VAR    BASINP    GEOM    SYMINP    ZMAT    AOBASIS   BASIS     P2S    ABASIS      S 
                                         1400     1410     1420     1200     1210     1080     1600     1650     1300     1700   
                                           T        V       ECP      H0       H01     AOSYM     SMH    MOLCAS    ERIS     OPER   
                                         1380   
                                         JKOP   

              2       7       11.85       200      700     1000      520     4202     5202     2101   
                                        OPTIONS   GEOM     BASIS   MCVARS     RHF     MCSCF     RHF  

 PROGRAMS   *        TOTAL     MULTI       RHF  RCCSD(T)       RHF     MULTI       RHF       INT
 CPU TIMES  *        78.32      3.51      1.74     34.80      0.19      3.55      2.42     31.95
 REAL TIME  *        84.12 SEC
 DISK USED  *         1.01 GB      
 **********************************************************************************************************************************

1PROGRAM * RHF-SCF (OPEN SHELL)       Authors: W. Meyer, H.-J. Werner


 NUMBER OF ELECTRONS:       9+    4-    SPACE SYMMETRY=4    SPIN SYMMETRY: Sextet  
 CONVERGENCE THRESHOLDS:    1.00E-05 (Density)    1.00E-07 (Energy)
 MAX. NUMBER OF ITERATIONS:        0
 INTERPOLATION TYPE:            DIIS
 INTERPOLATION STEPS:              2 (START)      1 (STEP)
 LEVEL SHIFTS:                 -0.30 (CLOSED)  0.00 (OPEN) 


 Singly occupied orbitals:      2.1       3.1       4.1       1.6       1.7
 Molecular orbitals read from record     5202.2  Type=MCSCF/NATURAL  

 Molecular orbital dump at record        2103.2

 ITERATION    DDIFF          GRAD             ENERGY        2-EL.EN.            DIPOLE MOMENTS         DIIS   ORB.
    1      0.000D+00      0.000D+00       -70.84869269    104.251703    0.00000    0.00000    0.00000    0    start

 Final alpha occupancy:   4   1   1   0   1   1   1   0
 Final beta  occupancy:   1   1   1   0   1   0   0   0

 !RHF STATE 1.4 Energy                -70.848692689533
 Nuclear energy                         0.00000000
 One-electron energy                 -122.97454435
 Two-electron energy                   52.12585167
 Virial quotient                       -1.98431996
 !RHF STATE 1.4 Dipole moment           0.00000000     0.00000000     0.00000000
 Dipole moment /Debye                   0.00000000     0.00000000     0.00000000

 Orbital energies:

         1.1          2.1          3.1          4.1          5.1          6.1
     -3.029275    -0.078900     0.101771     0.101771     0.027168     0.050854

         1.2          2.2          3.2
     -1.862806     0.021192     0.070134

         1.3          2.3          3.3
     -1.862806     0.021192     0.070134

         1.4          2.4
      0.101771     0.050854

         1.5          2.5          3.5
     -1.862806     0.021192     0.070134

         1.6          2.6          3.6
      0.101771     0.050854     0.170922

         1.7          2.7          3.7
      0.101771     0.050854     0.170922

         1.8          2.8
      0.330251     1.060236

 HOMO      4.1     0.101771 =       2.7693eV
 LUMO      2.2     0.021192 =       0.5767eV
 LUMO-HOMO        -0.080578 =      -2.1927eV


 **********************************************************************************************************************************
 DATASETS  * FILE   NREC   LENGTH (MB)   RECORD NAMES
              1      21      266.37       500      610      700      900      950      970     1000      129      960     1100   
                                          VAR    BASINP    GEOM    SYMINP    ZMAT    AOBASIS   BASIS     P2S    ABASIS      S 
                                         1400     1410     1420     1200     1210     1080     1600     1650     1300     1700   
                                           T        V       ECP      H0       H01     AOSYM     SMH    MOLCAS    ERIS     OPER   
                                         1380   
                                         JKOP   

              2       8       14.78       200      700     1000      520     4202     5202     2101     2103   
                                        OPTIONS   GEOM     BASIS   MCVARS     RHF     MCSCF     RHF      RHF  

 PROGRAMS   *        TOTAL       RHF     MULTI       RHF  RCCSD(T)       RHF     MULTI       RHF       INT
 CPU TIMES  *        78.51      0.20      3.51      1.74     34.80      0.19      3.55      2.42     31.95
 REAL TIME  *        84.34 SEC
 DISK USED  *         1.01 GB      
 **********************************************************************************************************************************
 SETTING SCF(2)         =       -70.84869269  AU                              
 SETTING _CC_NORM_MAX   =         2.00000000                                  


1PROGRAM * CCSD (Restricted open-shell coupled cluster)     Authors: C. Hampel, H.-J. Werner, 1991, M. Deegan, P.J. Knowles, 1992


 Convergence thresholds:  THRVAR = 1.00D-08  THRDEN = 1.00D-06

 CCSD(T)     terms to be evaluated (factor= 1.000)


 Number of closed-shell orbitals:   4 (   1   1   1   0   1   0   0   0 )
 Number of active  orbitals:        5 (   3   0   0   0   0   1   1   0 )
 Number of external orbitals:     253 (  61  39  39  22  39  21  21  11 )

 Memory could be reduced to 35.91 Mwords without degradation in triples

 Number of N-1 electron functions:              13
 Number of N-2 electron functions:              78
 Number of singly external CSFs:               598
 Number of doubly external CSFs:            505933
 Total number of CSFs:                      506531

 Molecular orbitals read from record     2103.2  Type=RHF/CANONICAL (state 1.4)

 Integral transformation finished. Total CPU:   0.91 sec, npass=  1  Memory used:   6.29 MW

 Starting RMP2 calculation

 Wavefunction is spin-projected

 ITER.      SQ.NORM     CORR.ENERGY   TOTAL ENERGY   ENERGY CHANGE        DEN1      VAR(S)    VAR(P)  DIIS     TIME
   1      1.08301266    -0.49885630   -71.34754899    -0.49885630    -0.00103551  0.97D-05  0.41D-03  1  1     0.93
   2      1.08406338    -0.49998424   -71.34867693    -0.00112794    -0.00000607  0.29D-06  0.36D-05  2  2     0.95
   3      1.08414665    -0.50002764   -71.34872033    -0.00004340    -0.00000005  0.86D-08  0.31D-07  3  3     0.98
   4      1.08415158    -0.50002923   -71.34872192    -0.00000159    -0.00000000  0.29D-09  0.33D-09  4  4     1.00
   5      1.08415181    -0.50002924   -71.34872193    -0.00000001    -0.00000000  0.93D-11  0.27D-11  5  5     1.03

 Norm of t1 vector:      0.03281402      S-energy:    -0.00404069      T1 diagnostic:  0.00515902
 Norm of t2 vector:      0.28822742      P-energy:    -0.49598856
                                         Alpha-Beta:  -0.32826770
                                         Alpha-Alpha: -0.13141487
                                         Beta-Beta:   -0.03630599

 Spin contamination <S**2-Sz**2-Sz>     0.00000000
  Reference energy                    -70.848692689533
  RHF-RMP2 correlation energy          -0.500029241520
 !RHF-RMP2 energy                     -71.348721931053
 (NB above energy spin projected)

 Starting RCCSD calculation

 ITER.      SQ.NORM     CORR.ENERGY   TOTAL ENERGY   ENERGY CHANGE        DEN1      VAR(S)    VAR(P)  DIIS     TIME
   1      1.08151799    -0.49515403   -71.34384672    -0.49515403    -0.00593454  0.12D-02  0.81D-03  1  1     2.46
   2      1.08703585    -0.50092059   -71.34961328    -0.00576657    -0.00045739  0.25D-03  0.12D-03  2  2     3.90
   3      1.09025717    -0.50190781   -71.35060049    -0.00098721    -0.00009001  0.11D-03  0.12D-04  3  3     5.35
   4      1.09295676    -0.50241147   -71.35110415    -0.00050366    -0.00001171  0.12D-04  0.23D-05  4  4     6.79
   5      1.09400730    -0.50251519   -71.35120788    -0.00010372    -0.00000123  0.17D-05  0.20D-06  5  5     8.26
   6      1.09432271    -0.50254953   -71.35124222    -0.00003435    -0.00000013  0.92D-07  0.51D-07  6  6     9.79
   7      1.09435657    -0.50254922   -71.35124191     0.00000031    -0.00000002  0.17D-07  0.37D-08  6  2    11.34
   8      1.09437633    -0.50255122   -71.35124391    -0.00000200    -0.00000000  0.92D-09  0.51D-09  6  1    12.90
   9      1.09437948    -0.50255173   -71.35124442    -0.00000051    -0.00000000  0.35D-09  0.73D-10  6  3    14.34

[...]
                                   1 2px     1 2px     1 2px     1 2px     1 2px     1 2px     1 2px     1 2px     1 2px     1 2px  
                                   1 2px     1 4f1+    1 4f3+    1 4f1+    1 4f3+    1 4f1+    1 4f3+    1 4f1+    1 4f3+    1 4f1+ 
                                   1 4f3+    1 6h1+    1 6h3+    1 6h5+    1 6h1+    1 6h3+    1 6h5+    1 6h1+    1 6h3+    1 6h5+ 


   1.2  2.00000    -3.966199    -0.000000  0.000000 -0.000002  0.000011 -0.000040  0.000138 -0.000456  0.001338  0.006968 -0.073994
                                 0.284485  0.213052  0.414332  0.393738  0.097883 -0.001423  0.001116 -0.000510 -0.324915  0.026020
                                 0.000156  0.000000  0.000000  0.000000  0.000000  0.000000  0.000000  0.000000  0.000000  0.000000
                                 0.000000  0.000000  0.000000  0.000000  0.000000  0.000000  0.000000  0.000000  0.000000  0.000000

                                   1 2py     1 2py     1 2py     1 2py     1 2py     1 2py     1 2py     1 2py     1 2py     1 2py  
                                   1 2py     1 2py     1 2py     1 2py     1 2py     1 2py     1 2py     1 2py     1 2py     1 2py  
                                   1 2py     1 4f1-    1 4f3-    1 4f1-    1 4f3-    1 4f1-    1 4f3-    1 4f1-    1 4f3-    1 4f1- 
                                   1 4f3-    1 6h1-    1 6h3-    1 6h5-    1 6h1-    1 6h3-    1 6h5-    1 6h1-    1 6h3-    1 6h5- 


   1.3  2.00000    -3.966199    -0.000000  0.000000 -0.000002  0.000011 -0.000040  0.000138 -0.000456  0.001338  0.006968 -0.073994
                                 0.284485  0.213052  0.414332  0.393738  0.097883 -0.001423  0.001116 -0.000510 -0.324915  0.026020
                                 0.000156  0.000000  0.000000  0.000000  0.000000  0.000000  0.000000  0.000000  0.000000  0.000000
                                 0.000000  0.000000  0.000000  0.000000  0.000000  0.000000  0.000000  0.000000  0.000000  0.000000

                                   1 3d2-    1 3d2-    1 3d2-    1 3d2-    1 3d2-    1 3d2-    1 3d2-    1 3d2-    1 3d2-    1 3d2- 
                                   1 3d2-    1 3d2-    1 3d2-    1 3d2-    1 5g2-    1 5g4-    1 5g2-    1 5g4-    1 5g2-    1 5g4- 
                                   1 5g2-    1 5g4- 

   1.4  0.20000    -1.662947     0.000014  0.000084  0.012954  0.066827  0.163592  0.292498  0.381067  0.284403  0.061309 -0.002242
                                 0.000971  0.007685 -0.001021 -0.000298  0.000000  0.000000  0.000000  0.000000  0.000000  0.000000
                                 0.000000  0.000000

                                   1 2pz     1 2pz     1 2pz     1 2pz     1 2pz     1 2pz     1 2pz     1 2pz     1 2pz     1 2pz  
                                   1 2pz     1 2pz     1 2pz     1 2pz     1 2pz     1 2pz     1 2pz     1 2pz     1 2pz     1 2pz  
                                   1 2pz     1 4f0     1 4f2+    1 4f0     1 4f2+    1 4f0     1 4f2+    1 4f0     1 4f2+    1 4f0  
                                   1 4f2+    1 6h2+    1 6h4+    1 6h0     1 6h2+    1 6h4+    1 6h0     1 6h2+    1 6h4+    1 6h0  


   1.5  2.00000    -3.966199    -0.000000  0.000000 -0.000002  0.000011 -0.000040  0.000138 -0.000456  0.001338  0.006968 -0.073994
                                 0.284485  0.213052  0.414332  0.393738  0.097883 -0.001423  0.001116 -0.000510 -0.324915  0.026020
                                 0.000156  0.000000  0.000000  0.000000  0.000000  0.000000  0.000000  0.000000  0.000000  0.000000
                                 0.000000  0.000000  0.000000  0.000000  0.000000  0.000000  0.000000  0.000000  0.000000  0.000000

                                   1 3d1+    1 3d1+    1 3d1+    1 3d1+    1 3d1+    1 3d1+    1 3d1+    1 3d1+    1 3d1+    1 3d1+ 
                                   1 3d1+    1 3d1+    1 3d1+    1 3d1+    1 5g1+    1 5g3+    1 5g1+    1 5g3+    1 5g1+    1 5g3+ 
                                   1 5g1+    1 5g3+ 

   1.6  0.20000    -1.662947     0.000014  0.000084  0.012954  0.066827  0.163592  0.292498  0.381067  0.284403  0.061309 -0.002242
                                 0.000971  0.007685 -0.001021 -0.000298  0.000000  0.000000  0.000000  0.000000  0.000000  0.000000
                                 0.000000  0.000000

                                   1 3d1-    1 3d1-    1 3d1-    1 3d1-    1 3d1-    1 3d1-    1 3d1-    1 3d1-    1 3d1-    1 3d1- 
                                   1 3d1-    1 3d1-    1 3d1-    1 3d1-    1 5g1-    1 5g3-    1 5g1-    1 5g3-    1 5g1-    1 5g3- 
                                   1 5g1-    1 5g3- 

   1.7  0.20000    -1.662947     0.000014  0.000084  0.012954  0.066827  0.163592  0.292498  0.381067  0.284403  0.061309 -0.002242
                                 0.000971  0.007685 -0.001021 -0.000298  0.000000  0.000000  0.000000  0.000000  0.000000  0.000000
                                 0.000000  0.000000

 Total charge:   4.000000000000
 

 EXTRA SYMMETRY OF MOS IN SYMMETRY 1:   1 2 3 1 3 2 1 3 2 1   3 2 1 6 4 5 2 3 1 3   2 5 6 4 1 2 3 6 4 5   2 3 1 2 3 6 4 5 1 2
                                        3 1 2 3 1 2 3 1 1 3   2 1 1 3 2 1 1 1 1 1   1 1 1 1 1
 EXTRA SYMMETRY OF MOS IN SYMMETRY 2:   1 1 1 3 2 1 1 2 3 1   2 3 4 5 6 1 2 3 1 6   4 5 1 2 3 6 5 4 1 1   1 1 1 1 1 1 1 1 1 1
 EXTRA SYMMETRY OF MOS IN SYMMETRY 3:   1 1 1 3 2 1 1 3 2 1   3 2 5 6 4 1 3 2 1 5   4 6 1 2 3 5 4 6 1 1   1 1 1 1 1 1 1 1 1 1
 EXTRA SYMMETRY OF MOS IN SYMMETRY 4:   1 1 1 1 3 2 1 1 3 2   1 2 3 1 1 2 3 1 1 1   1 1
 EXTRA SYMMETRY OF MOS IN SYMMETRY 5:   1 1 1 2 3 1 1 3 2 1   2 3 5 4 6 1 3 2 1 6   4 5 1 3 2 5 4 6 1 1   1 1 1 1 1 1 1 1 1 1
 EXTRA SYMMETRY OF MOS IN SYMMETRY 6:   1 1 1 1 2 3 1 1 2 3   1 2 3 1 1 2 3 1 1 1   1 1

 Natural orbital dump (state averaged) at molpro section  5202.2    (Orbital set 2)


 CI vector for state symmetry 1
 ==============================

 0a 0 0 0         -0.2684068   0.9633056
 a0 0 0 0          0.9633056   0.2684068

 TOTAL ENERGIES                       -67.41551537   -67.41551537

 CI vector for state symmetry 2
 ==============================

 00 a 0 0          1.0000000

 TOTAL ENERGIES                       -67.41551537

 CI vector for state symmetry 3
 ==============================

 00 0 a 0          1.0000000

 TOTAL ENERGIES                       -67.41551537

 CI vector for state symmetry 4
 ==============================

 00 0 0 a          1.0000000

 TOTAL ENERGIES                       -67.41551537



 **********************************************************************************************************************************
 DATASETS  * FILE   NREC   LENGTH (MB)   RECORD NAMES
              1      21      266.37       500      610      700      900      950      970     1000      129      960     1100   
                                          VAR    BASINP    GEOM    SYMINP    ZMAT    AOBASIS   BASIS     P2S    ABASIS      S 
                                         1400     1410     1420     1200     1210     1080     1600     1650     1300     1700   
                                           T        V       ECP      H0       H01     AOSYM     SMH    MOLCAS    ERIS     OPER   
                                         1380   
                                         JKOP   

              2      16       38.21       200      700     1000      520     4202     5202     2101     2103     2105     2107   
                                        OPTIONS   GEOM     BASIS   MCVARS     RHF     MCSCF     RHF      RHF      RHF      RHF  
                                         2109     2110     2111     2113     2116     2118   
                                          RHF      RHF      RHF      RHF      RHF      RHF  

 PROGRAMS   *        TOTAL     MULTI       RHF  RCCSD(T)       RHF     MULTI       RHF  RCCSD(T)       RHF     MULTI       RHF
 CPU TIMES  *       328.26      2.66      3.40     15.96      0.17      2.69      1.54     20.40      0.18      2.71      1.55
 REAL TIME  *       354.80 SEC
 DISK USED  *         1.01 GB      
 **********************************************************************************************************************************

1PROGRAM * RHF-SCF (OPEN SHELL)       Authors: W. Meyer, H.-J. Werner


 NUMBER OF ELECTRONS:       5+    4-    SPACE SYMMETRY=4    SPIN SYMMETRY: Doublet 
 CONVERGENCE THRESHOLDS:    1.00E-05 (Density)    1.00E-07 (Energy)
 MAX. NUMBER OF ITERATIONS:        0
 INTERPOLATION TYPE:            DIIS
 INTERPOLATION STEPS:              2 (START)      1 (STEP)
 LEVEL SHIFTS:                 -0.30 (CLOSED)  0.00 (OPEN) 



 Molecular orbitals read from record     5202.2  Type=MCSCF/NATURAL  

 Molecular orbital dump at record        2120.2

 ITERATION    DDIFF          GRAD             ENERGY        2-EL.EN.            DIPOLE MOMENTS         DIIS   ORB.
    1      0.000D+00      0.000D+00       -67.41551537     61.666685    0.00000    0.00000    0.00000    0    start

 Final alpha occupancy:   1   1   1   1   1   0   0   0
 Final beta  occupancy:   1   1   1   0   1   0   0   0

 !RHF STATE 1.4 Energy                -67.415515369733
 Nuclear energy                         0.00000000
 One-electron energy                  -98.24885800
 Two-electron energy                   30.83334263
 Virial quotient                       -2.42653705
 !RHF STATE 1.4 Dipole moment           0.00000000     0.00000000     0.00000000
 Dipole moment /Debye                   0.00000000     0.00000000     0.00000000

 Orbital energies:

         1.1          2.1          3.1
     -5.188325    -1.662947    -1.662947

         1.2          2.2          3.2
     -3.966199    -1.017082    -0.543081

         1.3          2.3          3.3
     -3.966199    -1.017082    -0.543081

         1.4          2.4          3.4
     -1.662947    -0.699512    -0.411586

         1.5          2.5          3.5
     -3.966199    -1.017082    -0.543081

         1.6          2.6
     -1.662947    -0.699512

         1.7          2.7
     -1.662947    -0.699512

         1.8          2.8
     -0.502743    -0.167276

 HOMO      1.4    -1.662947 =     -45.2511eV
 LUMO      2.1    -1.662947 =     -45.2511eV
 LUMO-HOMO         0.000000 =       0.0000eV


 **********************************************************************************************************************************
 DATASETS  * FILE   NREC   LENGTH (MB)   RECORD NAMES
              1      21      266.37       500      610      700      900      950      970     1000      129      960     1100   
                                          VAR    BASINP    GEOM    SYMINP    ZMAT    AOBASIS   BASIS     P2S    ABASIS      S 
                                         1400     1410     1420     1200     1210     1080     1600     1650     1300     1700   
                                           T        V       ECP      H0       H01     AOSYM     SMH    MOLCAS    ERIS     OPER   
                                         1380   
                                         JKOP   

              2      17       41.14       200      700     1000      520     4202     5202     2101     2103     2105     2107   
                                        OPTIONS   GEOM     BASIS   MCVARS     RHF     MCSCF     RHF      RHF      RHF      RHF  
                                         2109     2110     2111     2113     2116     2118     2120   
                                          RHF      RHF      RHF      RHF      RHF      RHF      RHF  

 PROGRAMS   *        TOTAL       RHF     MULTI       RHF  RCCSD(T)       RHF     MULTI       RHF  RCCSD(T)       RHF     MULTI
 CPU TIMES  *       328.45      0.19      2.66      3.40     15.96      0.17      2.69      1.54     20.40      0.18      2.71
 REAL TIME  *       355.02 SEC
 DISK USED  *         1.01 GB      
 **********************************************************************************************************************************
 SETTING SCF(11)        =       -67.41551537  AU                              
 SETTING _CC_NORM_MAX   =         2.00000000                                  


1PROGRAM * CCSD (Restricted open-shell coupled cluster)     Authors: C. Hampel, H.-J. Werner, 1991, M. Deegan, P.J. Knowles, 1992


 Convergence thresholds:  THRVAR = 1.00D-08  THRDEN = 1.00D-06

 CCSD(T)     terms to be evaluated (factor= 1.000)


 Number of closed-shell orbitals:   4 (   1   1   1   0   1   0   0   0 )
 Number of active  orbitals:        1 (   0   0   0   1   0   0   0   0 )
 Number of external orbitals:     257 (  64  39  39  21  39  22  22  11 )

 Memory could be reduced to 26.55 Mwords without degradation in triples

 Number of N-1 electron functions:               9
 Number of N-2 electron functions:              36
 Number of singly external CSFs:               384
 Number of doubly external CSFs:            244321
 Total number of CSFs:                      244705

 Molecular orbitals read from record     2120.2  Type=RHF/CANONICAL (state 1.4)

 Integral transformation finished. Total CPU:   0.75 sec, npass=  1  Memory used:   3.98 MW

 Starting RMP2 calculation

 Wavefunction is spin-projected

 ITER.      SQ.NORM     CORR.ENERGY   TOTAL ENERGY   ENERGY CHANGE        DEN1      VAR(S)    VAR(P)  DIIS     TIME
   1      1.04810241    -0.35901591   -67.77453127    -0.35901591    -0.00036123  0.91D-06  0.52D-04  1  1     0.76
   2      1.04825325    -0.35939322   -67.77490859    -0.00037732    -0.00000072  0.58D-09  0.12D-06  2  2     0.77
   3      1.04825601    -0.35939770   -67.77491307    -0.00000447    -0.00000000  0.24D-11  0.12D-09  3  3     0.78
   4      1.04825605    -0.35939773   -67.77491310    -0.00000004    -0.00000000  0.10D-14  0.48D-13  4  4     0.78

 Norm of t1 vector:      0.02984567      S-energy:    -0.00534984      T1 diagnostic:  0.00460443
 Norm of t2 vector:      0.21763567      P-energy:    -0.35404789
                                         Alpha-Beta:  -0.27126848
                                         Alpha-Alpha: -0.04481369
                                         Beta-Beta:   -0.03796573

 Spin contamination <S**2-Sz**2-Sz>     0.00000000
  Reference energy                    -67.415515369733
  RHF-RMP2 correlation energy          -0.359397733891
 !RHF-RMP2 energy                     -67.774913103624
 (NB above energy spin projected)

 Starting RCCSD calculation

 ITER.      SQ.NORM     CORR.ENERGY   TOTAL ENERGY   ENERGY CHANGE        DEN1      VAR(S)    VAR(P)  DIIS     TIME
   1      1.05363202    -0.37543078   -67.79094615    -0.37543078    -0.00445079  0.10D-03  0.49D-03  1  1     1.96
   2      1.05551176    -0.38001065   -67.79552602    -0.00457988    -0.00010396  0.17D-05  0.16D-04  2  2     3.11
   3      1.05577616    -0.38040939   -67.79592476    -0.00039874    -0.00000389  0.73D-07  0.59D-06  3  3     4.26
   4      1.05581734    -0.38045643   -67.79597180    -0.00004703    -0.00000007  0.11D-08  0.11D-07  4  4     5.40
   5      1.05582111    -0.38046066   -67.79597603    -0.00000423    -0.00000000  0.29D-10  0.15D-09  5  5     6.57
   6      1.05582107    -0.38046051   -67.79597588     0.00000015    -0.00000000  0.26D-11  0.64D-11  6  6     7.72

 Norm of t1 vector:      0.03376095      S-energy:    -0.00559858      T1 diagnostic:  0.00538940
                                                                       D1 diagnostic:  0.00986649
 Norm of t2 vector:      0.23384026      P-energy:    -0.37486193
                                         Alpha-Beta:  -0.29375819
                                         Alpha-Alpha: -0.04372997
                                         Beta-Beta:   -0.03737377

 Spin contamination <S**2-Sz**2-Sz>     0.00000000

 Memory could be reduced to 26.99 Mwords without degradation in triples
 

  Correlated core orbitals:             1.1       1.2       1.3       1.5
  Orbital energies:                    -5.2339   -4.0393   -4.0393   -3.9844
 
  RCCSD core-core energy               -0.311148162320
  RCCSD core-valence energy            -0.069312350140
  RCCSD valence correlation energy     -0.000000000000
 

 RESULTS
 =======

  Reference energy                    -67.415515369733
  RCCSD singles energy                 -0.005598584370
  RCCSD pair energy                    -0.374861928091
  RCCSD correlation energy             -0.380460512461
  Triples (T) contribution             -0.009171290199
  Total correlation energy             -0.389631802660
 
  RHF-RCCSD energy                    -67.795975882194
  RHF-RCCSD[T] energy                 -67.805125153224
  RHF-RCCSD-T energy                  -67.805104820761
 !RHF-RCCSD(T) energy                 -67.805147172393

 Program statistics:

 Available memory in ccsd:               511999650
 Min. memory needed in ccsd:                939940
 Max. memory used in ccsd:                 1204394
 Max. memory used in cckext:               1033827 ( 6 integral passes)
 Max. memory used in cckint:               3983299 ( 1 integral passes)



 **********************************************************************************************************************************
 DATASETS  * FILE   NREC   LENGTH (MB)   RECORD NAMES
              1      21      266.37       500      610      700      900      950      970     1000      129      960     1100   
                                          VAR    BASINP    GEOM    SYMINP    ZMAT    AOBASIS   BASIS     P2S    ABASIS      S 
                                         1400     1410     1420     1200     1210     1080     1600     1650     1300     1700   
                                           T        V       ECP      H0       H01     AOSYM     SMH    MOLCAS    ERIS     OPER   
                                         1380   
                                         JKOP   

              2      17       41.14       200      700     1000      520     4202     5202     2101     2103     2105     2107   
                                        OPTIONS   GEOM     BASIS   MCVARS     RHF     MCSCF     RHF      RHF      RHF      RHF  
                                         2109     2110     2111     2113     2116     2118     2120   
                                          RHF      RHF      RHF      RHF      RHF      RHF      RHF  

 PROGRAMS   *        TOTAL  RCCSD(T)       RHF     MULTI       RHF  RCCSD(T)       RHF     MULTI       RHF  RCCSD(T)       RHF
 CPU TIMES  *       342.54     14.09      0.19      2.66      3.40     15.96      0.17      2.69      1.54     20.40      0.18
 REAL TIME  *       370.09 SEC
 DISK USED  *         1.01 GB      
 **********************************************************************************************************************************
 SETTING CCSD(11)       =       -67.80514717  AU                              
 Output type csv         
                                                                                                                                                                                                                                                                

       SCF,CCSD
   -70.85621384,   -71.37737561
   -70.84869269,   -71.36786428
   -70.73041475,   -71.28382623
   -70.64775371,   -71.11937020
   -70.63743068,   -71.12948688
   -65.04437499,   -65.40993411
   -23.36226984,   -23.45823216
   -70.83122335,   -71.39342412
   -70.14792460,   -70.59338794
   -69.10657462,   -69.51887800
   -67.41551537,   -67.80514717
                                                  

        RCCSD(T)        RHF-SCF         MULTI           RHF-SCF         RCCSD(T)        RHF-SCF         MULTI           RHF-SCF 
    -67.80514717    -67.41551537    -67.41551537    -67.41838367    -69.51887800    -69.10657462    -69.03151635    -69.10962183
 **********************************************************************************************************************************
 Variable memory released
