
 Primary working directories    : /global/cscratch1/sd/aannabe
 Secondary working directories  : /global/cscratch1/sd/aannabe
 Wavefunction directory         : /global/homes/a/aannabe/wfu/
 Main file repository           : /global/cscratch1/sd/aannabe/

 SHA1      : 2873118e99aab1bc19f5b6fc1784693c06d15c95
 NAME      : 2015.1.8
 ARCHNAME  : linux/x86_64
 FC        : /opt/cray/pe/craype/2.5.5/bin/ftn
 BLASLIB   : -Wl,-_start-group /opt/intel/compilers_and_libraries_2016.3.210/linux/mkl/lib/intel64/libmkl_intel_ilp64.a /opt/intel/compilers_and_libraries_2016.3.210/linux/mkl/lib/intel64/libmkl_intel_thread.a /opt/intel/compilers_and_libraries_2016.3.210/linux/mkl/lib/intel64/libmkl_core.a -Wl,-_end-group
 id        : lbl

 Nodes     nprocs
 nid00472     3
 Number of processes for MPI-2 version of Molpro:   nprocs(total)=    4   nprocs(compute)=    3   nprocs(helper)=    1

 Using customized tuning parameters: mindgm=8; mindgv=16; mindgc=4; mindgr=1; noblas=0; minvec=7
 default implementation of scratch files=sf  

 ***,Calculation of binding energy
 memory,512,m
 gthresh,twoint=1.0E-12
 
 basis={
 
 Including file /global/u1/a/aannabe/docs/tmecp/trans/NiH/5.4/Ni.pp
 Including file /global/u1/a/aannabe/docs/tmecp/trans/NiH/5.4/aug-cc-pwCV5Z-dk.basis
 
 ECP,H,0,1,0
 3;
 2,   21.77696655044365 ,     -10.85192405303825;
 1,   21.24359508259891 ,       1.00000000000000;
 3,   21.24359508259891 ,      21.24359508259891;
 1; 2,                   1.,                      0.;
 s, H , 402.0000000, 60.2400000, 13.7300000, 3.9050000, 1.2830000, 0.4655000, 0.1811000, 0.0727900, 0.0207000
 p, H , 4.5160000, 1.7120000, 0.6490000, 0.2460000, 0.0744000
 d, H , 2.9500000, 1.2060000, 0.4930000, 0.1560000
 f, H , 2.5060000, 0.8750000, 0.2740000
 g, H , 2.3580000, 0.5430000
 }
 
 ne    =19
 symm  =4
 ss    =1
 
 do i=11,20
     z(i) = 1.125 + 0.05*(i-1)
     geometry={
         2
         NiH
         Ni  0.0 0.0 0.0
         H  0.0 0.0 z(i)
     }
     {rhf
      wf,ne,symm,ss
      print,orbitals=3
     }
     scf(i)=energy
     _CC_NORM_MAX=2.0
     {rccsd(t);maxit,100;core}
     ccsd(i)=energy
 enddo
 
 table,z,scf,ccsd
 save, 5z_2.csv, new

 Variables initialized (889), CPU time= 0.01 sec
 Commands  initialized (702), CPU time= 0.01 sec, 572 directives.
 Default parameters read. Elapsed time= 0.58 sec

 Checking input...
 Passed
1


                                         ***  PROGRAM SYSTEM MOLPRO  ***
                                       Copyright, TTI GmbH Stuttgart, 2015
                                    Version 2015.1 linked Sep  7 2016 23:09:38


 **********************************************************************************************************************************
 LABEL *   Calculation of binding energy                                                 
  64 bit mpp version                                                                     DATE: 16-Aug-18          TIME: 13:12:13  
 **********************************************************************************************************************************

 SHA1:             2873118e99aab1bc19f5b6fc1784693c06d15c95
 **********************************************************************************************************************************

 THRESHOLDS:

 ZERO    =  1.00D-12  ONEINT  =  1.00D-12  TWOINT  =  1.00D-12  PREFAC  =  1.00D-14  LOCALI  =  1.00D-09  EORDER  =  1.00D-04
 ENERGY  =  0.00D+00  ETEST   =  0.00D+00  EDENS   =  0.00D+00  THRDEDEF=  1.00D-06  GRADIENT=  1.00D-02  STEP    =  1.00D-03
 ORBITAL =  1.00D-05  CIVEC   =  1.00D-05  COEFF   =  1.00D-04  PRINTCI =  5.00D-02  PUNCHCI =  9.90D+01  OPTGRAD =  3.00D-04
 OPTENERG=  1.00D-06  OPTSTEP =  3.00D-04  THRGRAD =  1.00D-10  COMPRESS=  1.00D-11  VARMIN  =  1.00D-07  VARMAX  =  1.00D-03
 THRDOUB =  0.00D+00  THRDIV  =  1.00D-05  THRRED  =  1.00D-07  THRPSP  =  1.00D+00  THRDC   =  1.00D-10  THRCS   =  1.00D-10
 THRNRM  =  1.00D-08  THREQ   =  0.00D+00  THRDE   =  1.00D+00  THRREF  =  1.00D-05  SPARFAC =  1.00D+00  THRDLP  =  1.00D-07
 THRDIA  =  1.00D-10  THRDLS  =  1.00D-07  THRGPS  =  0.00D+00  THRKEX  =  0.00D+00  THRDIS  =  2.00D-01  THRVAR  =  1.00D-10
 THRLOC  =  1.00D-06  THRGAP  =  1.00D-06  THRLOCT = -1.00D+00  THRGAPT = -1.00D+00  THRORB  =  1.00D-06  THRMLTP =  0.00D+00
 THRCPQCI=  1.00D-10  KEXTA   =  0.00D+00  THRCOARS=  0.00D+00  SYMTOL  =  1.00D-06  GRADTOL =  1.00D-06  THROVL  =  1.00D-08
 THRORTH =  1.00D-08  GRID    =  1.00D-06  GRIDMAX =  1.00D-03  DTMAX   =  0.00D+00  THROCCDE=  1.00D-01  THROCCDE=  1.00D-01



 Variable memory set to  512000000 words,  buffer space   230000 words

 SETTING BASIS          =    USERDEF
 SETTING NE             =        19.00000000                                  
 SETTING SYMM           =         4.00000000                                  
 SETTING SS             =         1.00000000                                  

 DO I                   =        11.00000000   
 SETTING Z(11)          =         1.62500000                                  

Geometry recognized as XYZ



 Recomputing integrals since basis changed


 Using spherical harmonics



 PROGRAM * SEWARD (Integral evaluation for generally contracted gaussian basis sets)     Author: Roland Lindh, 1990

 Geometry written to block  1 of record 700


 Point group  C2v 



 ATOMIC COORDINATES

 NR  ATOM    CHARGE       X              Y              Z

   1  NI     18.00    0.000000000    0.000000000    0.000000000
   2  H       1.00    0.000000000    0.000000000    3.070804952

 Bond lengths in Bohr (Angstrom)

 1-2  3.070804952
     ( 1.625000000)

 NUCLEAR CHARGE:                   19
 NUMBER OF PRIMITIVE AOS:         601
 NUMBER OF SYMMETRY AOS:          428
 NUMBER OF CONTRACTIONS:          428   ( 169A1  + 100B1  + 100B2  +  59A2  )
 NUMBER OF CORE ORBITALS:           4   (   2A1  +   1B1  +   1B2  +   0A2  )
 NUMBER OF VALENCE ORBITALS:        7   (   4A1  +   1B1  +   1B2  +   1A2  )


 NUCLEAR REPULSION ENERGY    5.86165526

 EXTRA SYMMETRY OF AOS IN SYMMETRY 1:   1 1 1 1 1 1 1 1 1 1   1 1 1 1 1 1 1 1 1 1   1 1 1 1 1 1 1 1 1 1   1 1 1 1 1 1 1 1 1 1
                                        1 1 1 1 1 1 1 1 1 1   1 1 1 1 1 2 1 2 1 2   1 2 1 2 1 2 1 2 1 2   1 2 1 2 1 2 1 2 1 2
                                        1 2 1 2 1 2 1 2 1 2   1 2 1 2 1 2 1 3 2 1   3 2 1 3 2 1 3 2 1 3   2 2 3 1 2 3 1 2 3 1
                                        2 3 1 4 3 2 1 4 3 2   1 4 3 2 1 1 1 1 1 1   1 1 1 1 1 1 1 1 1 1   2 1 2 1 2 1 2 1 2 1
                                        2 1 2 1 3 2 1 3 2
 EXTRA SYMMETRY OF AOS IN SYMMETRY 2:   1 1 1 1 1 1 1 1 1 1   1 1 1 1 1 1 1 1 1 1   1 1 1 1 1 1 1 1 1 1   1 1 1 1 1 1 1 1 1 2
                                        1 2 1 2 1 2 1 2 1 2   1 2 1 2 1 2 1 2 1 2   1 2 3 1 2 3 1 2 3 1   2 3 3 2 1 3 2 1 3 2
                                        1 1 1 1 1 1 1 1 1 1   1 2 1 2 1 2 1 2 1 2
 EXTRA SYMMETRY OF AOS IN SYMMETRY 3:   1 1 1 1 1 1 1 1 1 1   1 1 1 1 1 1 1 1 1 1   1 1 1 1 1 1 1 1 1 1   1 1 1 1 1 1 1 1 1 2
                                        1 2 1 2 1 2 1 2 1 2   1 2 1 2 1 2 1 2 1 2   1 2 3 1 2 3 1 2 3 1   2 3 3 2 1 3 2 1 3 2
                                        1 1 1 1 1 1 1 1 1 1   1 2 1 2 1 2 1 2 1 2
 EXTRA SYMMETRY OF AOS IN SYMMETRY 4:   1 1 1 1 1 1 1 1 1 1   1 1 1 1 1 1 1 1 1 1   1 1 2 1 2 1 2 1 2 1   2 2 1 2 1 2 1 2 1 1
                                        3 2 1 3 2 1 3 2 1 1   1 1 1 1 1 1 2 1 2

 Eigenvalues of metric

         1 0.170E-07 0.184E-07 0.238E-06 0.661E-06 0.674E-05 0.709E-05 0.321E-04 0.659E-04
         2 0.188E-07 0.253E-06 0.700E-05 0.212E-03 0.474E-03 0.800E-03 0.160E-02 0.226E-02
         3 0.188E-07 0.253E-06 0.700E-05 0.212E-03 0.474E-03 0.800E-03 0.160E-02 0.226E-02
         4 0.709E-05 0.483E-03 0.624E-02 0.198E-01 0.234E-01 0.472E-01 0.588E-01 0.724E-01


 Contracted 2-electron integrals neglected if value below      1.0D-13
 AO integral compression algorithm  1   Integral accuracy      1.0D-13

     2898.788 MB (compressed) written to integral file ( 34.4%)

     Node minimum: 773.587 MB, node maximum: 1333.002 MB


 NUMBER OF SORTED TWO-ELECTRON INTEGRALS:  357005319.     BUFFER LENGTH:  32768
 NUMBER OF SEGMENTS:  12  SEGMENT LENGTH:   31996800      RECORD LENGTH: 524288

 Memory used in sort:      32.55 MW

 SORT1 READ  1054872234. AND WROTE   150350861. INTEGRALS IN    436 RECORDS. CPU TIME:    34.29 SEC, REAL TIME:    56.54 SEC
 SORT2 READ   449699770. AND WROTE  1071064830. INTEGRALS IN   8853 RECORDS. CPU TIME:     6.09 SEC, REAL TIME:    40.94 SEC

 Node minimum:   356945875.  Node maximum:   357113636. integrals

 OPERATOR DM      FOR CENTER  0  COORDINATES:    0.000000    0.000000    0.000000


 **********************************************************************************************************************************
 DATASETS  * FILE   NREC   LENGTH (MB)   RECORD NAMES
              1      19       21.34       500      610      700      900      950      970     1000      129      960     1100   
                                          VAR    BASINP    GEOM    SYMINP    ZMAT    AOBASIS   BASIS     P2S    ABASIS      S 
                                         1400     1410     1420     1200     1210     1080     1600     1650     1700   
                                           T        V       ECP      H0       H01     AOSYM     SMH    MOLCAS    OPER   

 PROGRAMS   *        TOTAL       INT
 CPU TIMES  *       209.91    209.73
 REAL TIME  *       276.98 SEC
 DISK USED  *         8.30 GB      
 GA USED    *         0.00 MB       (max)       0.00 MB       (current)
 **********************************************************************************************************************************


 PROGRAM * RHF-SCF (OPEN SHELL)       Authors: W. Meyer, H.-J. Werner


 NUMBER OF ELECTRONS:      10+    9-    SPACE SYMMETRY=4    SPIN SYMMETRY: Doublet 
 CONVERGENCE THRESHOLDS:    1.00E-05 (Density)    1.00E-07 (Energy)
 MAX. NUMBER OF ITERATIONS:       60
 INTERPOLATION TYPE:            DIIS
 INTERPOLATION STEPS:              2 (START)      1 (STEP)
 LEVEL SHIFTS:                 -0.60 (CLOSED) -0.30 (OPEN) 



 Orbital guess generated from atomic densities. Full valence occupancy:    6   2   2   1

 Molecular orbital dump at record        2100.2

 Initial alpha occupancy:   5   2   2   1
 Initial beta  occupancy:   5   2   2   0
 Wave function symmetry:    4

 ITERATION    DDIFF          GRAD             ENERGY        2-EL.EN.            DIPOLE MOMENTS         DIIS   ORB.
    1      0.000D+00      0.000D+00      -167.23583236    238.686304    0.00000    0.00000   -1.97587    0    start
    2      0.000D+00      0.591D-01      -167.79220853    310.036130    0.00000    0.00000   -0.68337    1    diag,B
    3      0.978D-02      0.617D-01      -168.92024763    285.051708    0.00000    0.00000   -0.99787    2    diag,B
    4      0.548D-02      0.901D-02      -168.95761024    281.577808    0.00000    0.00000   -1.12594    3    diag,B
    5      0.214D-02      0.147D-02      -168.96513725    281.765530    0.00000    0.00000   -1.23956    4    diag,B
    6      0.843D-03      0.706D-03      -168.96895329    282.204768    0.00000    0.00000   -1.37093    5    diag,B
    7      0.555D-03      0.431D-03      -168.97092606    282.394452    0.00000    0.00000   -1.48709    6    fixocc
    8      0.402D-03      0.304D-03      -168.97214193    282.513406    0.00000    0.00000   -1.57133    7    diag,B
    9      0.455D-03      0.196D-03      -168.97270860    282.608305    0.00000    0.00000   -1.61932    8    diag,B
   10      0.254D-03      0.114D-03      -168.97288040    282.702766    0.00000    0.00000   -1.63195    9    orth
   11      0.275D-03      0.608D-04      -168.97292294    282.723013    0.00000    0.00000   -1.63928    9    diag,B
   12      0.110D-03      0.268D-04      -168.97292755    282.735465    0.00000    0.00000   -1.63737    9    diag,B
   13      0.978D-04      0.137D-04      -168.97292836    282.730059    0.00000    0.00000   -1.63819    9    diag,B
   14      0.434D-04      0.608D-05      -168.97292846    282.732211    0.00000    0.00000   -1.63782    9    diag,B
   15      0.122D-04      0.194D-05      -168.97292849    282.732655    0.00000    0.00000   -1.63779    9    diag,B
   16      0.128D-04      0.756D-06      -168.97292849    282.732578    0.00000    0.00000   -1.63780    9    diag,B
   17      0.351D-05      0.301D-06      -168.97292849    282.732569    0.00000    0.00000   -1.63781    0    orth

 Final alpha occupancy:   5   2   2   1
 Final beta  occupancy:   5   2   2   0

 !RHF STATE 1.4 Energy               -168.972928491507
 Nuclear energy                         5.86165526
 One-electron energy                 -316.20086827
 Two-electron energy                  141.36628452
 Virial quotient                       -1.55437611
 !RHF STATE 1.4 Dipole moment           0.00000000     0.00000000    -1.63780670
 Dipole moment /Debye                   0.00000000     0.00000000    -4.16261676

 ELECTRON ORBITALS
 =================


   Orb  Occ    Energy  Couls-En    Coefficients

                                   1 1s      1 1s      1 1s      1 1s      1 1s      1 1s      1 1s      1 1s      1 1s      1 1s   
                                   1 1s      1 1s      1 1s      1 1s      1 1s      1 1s      1 1s      1 1s      1 1s      1 1s   
                                   1 1s      1 1s      1 1s      1 1s      1 1s      1 1s      1 1s      1 1s      1 1s      1 1s   
                                   1 1s      1 2pz     1 2pz     1 2pz     1 2pz     1 2pz     1 2pz     1 2pz     1 2pz     1 2pz  
                                   1 2pz     1 2pz     1 2pz     1 2pz     1 2pz     1 2pz     1 2pz     1 2pz     1 2pz     1 2pz  
                                   1 2pz     1 2pz     1 2pz     1 2pz     1 3d0     1 3d2+    1 3d0     1 3d2+    1 3d0     1 3d2+ 
                                   1 3d0     1 3d2+    1 3d0     1 3d2+    1 3d0     1 3d2+    1 3d0     1 3d2+    1 3d0     1 3d2+ 
                                   1 3d0     1 3d2+    1 3d0     1 3d2+    1 3d0     1 3d2+    1 3d0     1 3d2+    1 3d0     1 3d2+ 
                                   1 3d0     1 3d2+    1 3d0     1 3d2+    1 4f0     1 4f2+    1 4f0     1 4f2+    1 4f0     1 4f2+ 
                                   1 4f0     1 4f2+    1 4f0     1 4f2+    1 4f0     1 4f2+    1 5g0     1 5g4+    1 5g2+    1 5g0  
                                   1 5g4+    1 5g2+    1 5g0     1 5g4+    1 5g2+    1 5g0     1 5g4+    1 5g2+    1 5g0     1 5g4+ 
                                   1 5g2+    1 6h2+    1 6h4+    1 6h0     1 6h2+    1 6h4+    1 6h0     1 6h2+    1 6h4+    1 6h0  
                                   1 6h2+    1 6h4+    1 6h0     1 7i6+    1 7i4+    1 7i2+    1 7i0     1 7i6+    1 7i4+    1 7i2+ 
                                   1 7i0     1 7i6+    1 7i4+    1 7i2+    1 7i0     2 1s      2 1s      2 1s      2 1s      2 1s   
                                   2 1s      2 1s      2 1s      2 1s      2 2pz     2 2pz     2 2pz     2 2pz     2 2pz     2 3d0  
                                   2 3d2+    2 3d0     2 3d2+    2 3d0     2 3d2+    2 3d0     2 3d2+    2 4f0     2 4f2+    2 4f0  
                                   2 4f2+    2 4f0     2 4f2+    2 5g0     2 5g4+    2 5g2+    2 5g0     2 5g4+    2 5g2+ 

   1.1   2    -4.8550  -26.5269 -0.000000  0.000000 -0.000000  0.000000 -0.000000  0.000000 -0.000000  0.000001 -0.000002  0.000006
                                -0.000015  0.000040 -0.000105  0.000278 -0.000799  0.002946 -0.017893  0.097912 -0.091214 -0.672476
                                -0.045991  0.423475  0.557249  0.210089  0.012367 -0.004222  0.002088 -0.000984  0.318093  0.071989
                                 0.000008  0.000000 -0.000000  0.000000 -0.000000  0.000000 -0.000000  0.000000 -0.000001  0.000007
                                -0.000057  0.000147  0.001740  0.000077  0.004827 -0.003374 -0.003709 -0.002403 -0.000013  0.000215
                                -0.000083 -0.001118 -0.007226 -0.000093 -0.000000  0.000000  0.000001 -0.000000 -0.000012  0.000000
                                -0.000084  0.000000 -0.000120  0.000000 -0.001175 -0.000000 -0.001781  0.000000 -0.001034  0.000000
                                -0.000223  0.000000 -0.000095 -0.000000  0.000094 -0.000000  0.000032  0.000000  0.000379  0.000000
                                 0.000449  0.000000 -0.000042  0.000000 -0.000014 -0.000000  0.000003 -0.000000 -0.000055 -0.000000
                                -0.000023 -0.000000  0.000055  0.000000  0.000034  0.000000 -0.000048  0.000153 -0.000000 -0.000012
                                 0.000034 -0.000000 -0.000135  0.000438 -0.000000 -0.000087  0.000477 -0.000000  0.000001  0.000066
                                 0.000000  0.000000 -0.000000  0.000001 -0.000000  0.000000 -0.000002 -0.000000 -0.000003  0.000014
                                 0.000000 -0.000006  0.000017  0.000000  0.000000  0.000000  0.000001 -0.000000  0.000000 -0.000000
                                -0.000003 -0.000000  0.000000  0.000000  0.000008 -0.000000  0.000001  0.000021  0.000065  0.000110
                                 0.000438 -0.000019 -0.000176  0.000407 -0.000016 -0.000020 -0.000299 -0.000074  0.000014 -0.000002
                                -0.000000  0.000071  0.000000  0.000168  0.000000  0.000040 -0.000000 -0.000003  0.000000 -0.000068
                                -0.000000 -0.000062  0.000000  0.000012 -0.000000  0.000000  0.000023  0.000000 -0.000000

   2.1   2    -3.1308  -22.9085 -0.000000  0.000000 -0.000000  0.000000 -0.000000  0.000000 -0.000000  0.000000 -0.000000  0.000000
                                -0.000000  0.000000 -0.000000  0.000001 -0.000003  0.000021 -0.000184  0.001137 -0.000817 -0.018511
                                -0.004258 -0.002686  0.011022 -0.002263 -0.004805  0.001557 -0.003418  0.000684  0.015255  0.010906
                                 0.000022 -0.000000  0.000000 -0.000000  0.000002 -0.000006  0.000022 -0.000069  0.000233 -0.001000
                                 0.007449 -0.022445 -0.093260  0.032519  0.169887  0.403247  0.313126  0.115696  0.009106 -0.001818
                                 0.000011  0.015885  0.109442  0.000071 -0.000000  0.000000  0.000002 -0.000000 -0.000042  0.000000
                                -0.000325  0.000000 -0.000501  0.000000  0.000092 -0.000000 -0.001631  0.000000 -0.003113  0.000000
                                -0.002463  0.000000 -0.000986  0.000000  0.000273  0.000000 -0.000320  0.000000 -0.000786  0.000000
                                -0.001313  0.000000  0.000084 -0.000000 -0.000161 -0.000000 -0.000959 -0.000000 -0.002076 -0.000000
                                -0.001420 -0.000000 -0.000443 -0.000000  0.000092 -0.000000  0.000003  0.000002 -0.000000  0.000036
                                -0.000001 -0.000000 -0.000016  0.000004 -0.000000  0.000114  0.000005 -0.000000 -0.000021 -0.000001
                                -0.000000  0.000000 -0.000024  0.000017 -0.000000 -0.000104  0.000045 -0.000000 -0.000032  0.000046
                                 0.000000  0.000044  0.000023 -0.000000  0.000000 -0.000000  0.000002  0.000000  0.000001  0.000000
                                -0.000010 -0.000000  0.000000 -0.000000  0.000025 -0.000000  0.000007  0.000143  0.000439  0.001114
                                 0.003190  0.000859  0.003167 -0.000282 -0.000061 -0.000183 -0.001394 -0.000842 -0.001078  0.000011
                                -0.000000  0.000266  0.000000  0.000460  0.000000  0.000339  0.000000 -0.000041  0.000000 -0.000130
                                -0.000000 -0.000102  0.000000  0.000035 -0.000000  0.000000  0.000029  0.000001  0.000000

   3.1   2    -0.5026  -16.3732  0.000000 -0.000000  0.000000 -0.000000 -0.000000  0.000000 -0.000000  0.000000 -0.000000  0.000000
                                -0.000000  0.000000 -0.000000  0.000000 -0.000000  0.000000 -0.000000  0.000000 -0.000000  0.000000
                                 0.000000  0.000000 -0.000000 -0.000000  0.000000  0.000000  0.000000  0.000000 -0.000000 -0.000000
                                -0.000000  0.000000 -0.000000  0.000000 -0.000000  0.000000 -0.000000  0.000000 -0.000000  0.000000
                                -0.000000  0.000000 -0.000000 -0.000000 -0.000000 -0.000000 -0.000000  0.000000  0.000000  0.000000
                                -0.000000  0.000000  0.000000 -0.000000  0.000000  0.000026 -0.000000 -0.000221  0.000000  0.005580
                                 0.000000  0.041078  0.000000  0.075037  0.000000  0.110853  0.000000  0.252722  0.000000  0.296077
                                 0.000000  0.258531  0.000000  0.180178  0.000000  0.075064  0.000000  0.008758  0.000000  0.045351
                                 0.000000  0.043788 -0.000000 -0.000334 -0.000000 -0.000071  0.000000 -0.000341 -0.000000 -0.000608
                                 0.000000 -0.002244  0.000000 -0.005963  0.000000 -0.003573 -0.000000 -0.000000 -0.000172  0.000000
                                 0.000000 -0.000328 -0.000000 -0.000000 -0.000769  0.000000  0.000000 -0.000838  0.000000 -0.000000
                                -0.000510  0.000007  0.000000 -0.000000  0.000012 -0.000000  0.000000 -0.000013  0.000000 -0.000000
                                 0.000001 -0.000000  0.000000 -0.000105  0.000000  0.000015 -0.000000 -0.000156 -0.000000  0.000012
                                 0.000000 -0.000314  0.000000  0.000048  0.000000 -0.000000  0.000000  0.000000  0.000000  0.000000
                                 0.000000  0.000000  0.000000  0.000000 -0.000000 -0.000000  0.000000  0.000000 -0.000000  0.000000
                                 0.000010 -0.000000  0.000139 -0.000000  0.000497  0.000000  0.000220 -0.000000  0.000000  0.000000
                                -0.000247  0.000000 -0.000024 -0.000000  0.000000  0.000029 -0.000000 -0.000000  0.000096

   4.1   2    -0.4470  -14.0660 -0.000000  0.000000 -0.000000  0.000000 -0.000000  0.000000 -0.000000  0.000000 -0.000000  0.000000
                                -0.000001  0.000002 -0.000005  0.000012 -0.000032  0.000097 -0.000459  0.002340 -0.003263  0.013550
                                 0.010176  0.037431  0.010564  0.017540  0.008902 -0.004201 -0.001496  0.000133 -0.024564 -0.029729
                                 0.002736 -0.000000  0.000000 -0.000000  0.000000 -0.000000  0.000000 -0.000000  0.000002 -0.000015
                                 0.000196 -0.000563 -0.012047 -0.000663 -0.042385  0.016573  0.012456  0.003666 -0.019443 -0.022703
                                -0.002002  0.010085  0.052832  0.001131 -0.000022  0.000000  0.000187 -0.000000 -0.004722  0.000000
                                -0.034783  0.000000 -0.063414  0.000000 -0.092903  0.000000 -0.213672  0.000000 -0.252022  0.000000
                                -0.225898  0.000000 -0.169416  0.000000 -0.083581  0.000000 -0.015056  0.000000 -0.038725  0.000000
                                -0.037599  0.000000  0.000882 -0.000000  0.000065 -0.000000  0.000203 -0.000000  0.000450 -0.000000
                                 0.001255 -0.000000  0.004186 -0.000000  0.003705 -0.000000  0.000229  0.000055 -0.000000  0.000436
                                 0.000050 -0.000000  0.000997  0.000192 -0.000000  0.000695  0.000319 -0.000000  0.000325  0.000269
                                -0.000000  0.000000 -0.000001 -0.000016  0.000000 -0.000005  0.000003 -0.000000 -0.000001 -0.000074
                                 0.000000  0.000021 -0.000060 -0.000000  0.000039  0.000000 -0.000033 -0.000000  0.000055  0.000000
                                -0.000019 -0.000000  0.000124  0.000000 -0.000137  0.000012 -0.000277 -0.005541 -0.019325 -0.057580
                                -0.121782 -0.143610 -0.063621 -0.006509  0.000563  0.001804  0.010673  0.012703  0.004172 -0.000048
                                 0.000000 -0.001462  0.000000 -0.002976  0.000000 -0.000715  0.000000  0.000053  0.000000  0.000939
                                -0.000000  0.000171 -0.000000 -0.000080 -0.000001  0.000000 -0.000244  0.000021  0.000000

   5.1   2    -0.3248   -8.4781  0.000000 -0.000000  0.000000 -0.000000  0.000000 -0.000000  0.000000 -0.000000  0.000000 -0.000001
                                 0.000002 -0.000005  0.000014 -0.000037  0.000108 -0.000412  0.002659 -0.015349  0.015763  0.111178
                                 0.005338 -0.076492 -0.131060 -0.101879  0.072293  0.220562  0.209718  0.041250 -0.054336 -0.013486
                                -0.003873  0.000000 -0.000000  0.000000 -0.000000  0.000001 -0.000003  0.000010 -0.000031  0.000116
                                -0.000711  0.002385 -0.013904 -0.008466 -0.141913 -0.028913 -0.034913  0.001530  0.055951  0.061170
                                 0.016286  0.021719  0.118573 -0.001564 -0.000011 -0.000000  0.000091  0.000000 -0.002302 -0.000000
                                -0.016954 -0.000000 -0.030939 -0.000000 -0.044929 -0.000000 -0.103539 -0.000000 -0.122644 -0.000000
                                -0.109150 -0.000000 -0.076882 -0.000000 -0.039875 -0.000000 -0.007275 -0.000000 -0.019040 -0.000000
                                -0.018685 -0.000000  0.000507 -0.000000  0.000079  0.000000  0.000411  0.000000  0.000821  0.000000
                                 0.002655  0.000000  0.008203  0.000000  0.005457  0.000000  0.000116  0.000015  0.000000  0.000226
                                 0.000057  0.000000  0.000525  0.000147  0.000000  0.001093  0.000133  0.000000  0.001168  0.000057
                                 0.000000 -0.000000  0.000003 -0.000005 -0.000000  0.000009 -0.000017  0.000000  0.000003  0.000038
                                 0.000000 -0.000062  0.000187  0.000000  0.000018 -0.000000 -0.000012  0.000000  0.000028 -0.000000
                                -0.000023  0.000000  0.000053 -0.000000 -0.000017 -0.000016  0.000366  0.007252  0.025627  0.076720
                                 0.163308  0.231287  0.143456  0.011786 -0.000159 -0.000399 -0.003921 -0.007639  0.003472 -0.000027
                                -0.000000  0.000068 -0.000000  0.000144 -0.000000 -0.002511 -0.000000  0.000000  0.000000  0.000148
                                 0.000000  0.000641 -0.000000 -0.000016  0.000000 -0.000000 -0.000129 -0.000012 -0.000000

   6.1   0    -0.0011   -3.4697 -0.000000  0.000000 -0.000000  0.000000 -0.000000  0.000000 -0.000000  0.000000 -0.000001  0.000003
                                -0.000007  0.000018 -0.000045  0.000112 -0.000278  0.000728 -0.002366  0.009201 -0.021933  0.374869
                                 0.163250  0.473678 -0.041727  0.082439 -0.123551  0.240958 -0.861658  0.640834 -0.445478 -0.491602
                                -1.050973  0.000000 -0.000000  0.000000 -0.000000  0.000000 -0.000000  0.000002 -0.000006  0.000038
                                -0.000388  0.001137  0.016580  0.000084  0.048472 -0.029512 -0.021713 -0.009991  0.060627  0.011091
                                 0.018370 -0.012597 -0.067050  0.473238 -0.000003  0.000000  0.000024 -0.000000 -0.000580  0.000000
                                -0.004131 -0.000000 -0.008233  0.000000 -0.019937  0.000000 -0.029334  0.000000 -0.027991 -0.000000
                                -0.029672  0.000000 -0.010532 -0.000000 -0.016030  0.000000 -0.059623 -0.000000 -0.000650 -0.000000
                                 0.003142 -0.000000 -0.048443  0.000000  0.000035 -0.000000  0.000074  0.000000  0.000404 -0.000000
                                -0.000027  0.000000  0.003136 -0.000000  0.000268  0.000000  0.000031 -0.000022  0.000000  0.000102
                                -0.000078 -0.000000  0.000138 -0.000095  0.000000  0.000437  0.000064 -0.000000  0.000211  0.000290
                                 0.000000 -0.000000  0.000009  0.000001  0.000000  0.000016 -0.000025 -0.000000  0.000003  0.000060
                                 0.000000 -0.000116 -0.000025  0.000000  0.000009  0.000000 -0.000005 -0.000000  0.000014 -0.000000
                                -0.000008  0.000000  0.000025  0.000000 -0.000009 -0.000005  0.000116  0.002111  0.007937  0.022095
                                 0.055834  0.034348  0.421616  0.044115  0.000145 -0.000075  0.002096  0.009865 -0.083107 -0.000040
                                -0.000000  0.000157  0.000000 -0.001600 -0.000000  0.002717 -0.000000 -0.000014  0.000000  0.000178
                                -0.000000 -0.001449  0.000000 -0.000048  0.000001 -0.000000  0.000444 -0.000014 -0.000000

   7.1   0     0.0275   -1.6632  0.000000 -0.000000  0.000000 -0.000000  0.000000 -0.000000  0.000000 -0.000000  0.000000 -0.000001
                                 0.000002 -0.000006  0.000015 -0.000036  0.000084 -0.000183  0.000209  0.000657  0.004492 -0.187691
                                -0.069193 -0.178147  0.063094 -0.037100  0.228788  0.225844  0.836692  2.216092  0.200334  0.210271
                                 5.438823  0.000000 -0.000000  0.000000 -0.000001  0.000002 -0.000007  0.000021 -0.000061  0.000181
                                -0.000615  0.002622 -0.091735 -0.023681 -0.588686  0.024855 -0.029798  0.032252  0.181185  0.248667
                                 1.146421  0.099769  0.585288  2.760439  0.000001 -0.000000 -0.000006  0.000000  0.000061 -0.000000
                                 0.000114  0.000000  0.001918 -0.000000  0.022379 -0.000000  0.010633 -0.000000 -0.004290  0.000000
                                 0.007663 -0.000000  0.037189  0.000000  0.022388 -0.000000 -0.032622  0.000000 -0.009609  0.000000
                                -0.019089  0.000000  0.587516 -0.000001 -0.000022 -0.000000  0.000061  0.000000 -0.000248 -0.000000
                                 0.000088  0.000000  0.013322 -0.000000 -0.024465  0.000000 -0.000063 -0.000003 -0.000000  0.000226
                                -0.000017  0.000000 -0.000553  0.000004 -0.000000  0.002211  0.000090  0.000000 -0.001005  0.000097
                                -0.000000  0.000000  0.000001  0.000018 -0.000000  0.000001 -0.000064  0.000000  0.000001  0.000193
                                -0.000000 -0.000017  0.000119 -0.000000 -0.000000 -0.000000  0.000003 -0.000000 -0.000001  0.000000
                                -0.000010 -0.000000 -0.000001 -0.000000  0.000037  0.000004 -0.000054 -0.000028 -0.002631  0.002581
                                 0.008855 -0.035667 -1.291109 -7.805987 -0.000159  0.001382 -0.014147  0.158146  0.679628 -0.000632
                                 0.000000  0.004352 -0.000000 -0.026200  0.000000 -0.154670  0.000000 -0.000438 -0.000000  0.003062
                                 0.000000  0.031910 -0.000000 -0.000031  0.000000 -0.000000 -0.004315 -0.000001  0.000000

   8.1   0     0.0389   -3.0980 -0.000000  0.000000 -0.000000  0.000000 -0.000000  0.000000 -0.000000  0.000001 -0.000003  0.000009
                                -0.000025  0.000064 -0.000161  0.000394 -0.000949  0.002261 -0.005086  0.011172 -0.062252  1.717337
                                 0.674480  1.801783 -0.394049  0.165114 -0.466051  1.362013 -3.524945  4.942789 -1.907671 -2.028559
                                -0.553319 -0.000000  0.000000 -0.000000  0.000001 -0.000002  0.000007 -0.000022  0.000065 -0.000212
                                 0.000967 -0.003604  0.070339  0.021444  0.450200  0.011054  0.038255 -0.011099  0.040022 -0.650280
                                -0.674603 -0.081566 -0.430995  1.878636  0.000002 -0.000000 -0.000016  0.000000  0.000522  0.000000
                                 0.004285  0.000000  0.005607  0.000000 -0.016484 -0.000000  0.014212 -0.000000  0.036631  0.000000
                                 0.015110 -0.000000  0.043340  0.000000 -0.024135 -0.000000 -0.219532  0.000000  0.017203  0.000000
                                 0.028669  0.000000  0.236030 -0.000000  0.000022 -0.000000 -0.000297  0.000000  0.000255 -0.000000
                                -0.001486  0.000000  0.005256 -0.000000 -0.027660  0.000000 -0.000060  0.000025 -0.000000  0.000007
                                 0.000092 -0.000000 -0.000385  0.000093 -0.000000  0.000483 -0.000136 -0.000000 -0.002997 -0.000379
                                 0.000000 -0.000000 -0.000009  0.000029  0.000000 -0.000016 -0.000076 -0.000000 -0.000003  0.000271
                                 0.000000  0.000125 -0.000931  0.000000 -0.000009  0.000000 -0.000001 -0.000000 -0.000014 -0.000000
                                 0.000028  0.000000 -0.000024  0.000000 -0.000035  0.000003 -0.000082 -0.002235 -0.006478 -0.026814
                                -0.021238 -0.147150  1.348968 -3.080446  0.000003 -0.000840 -0.002656  0.025298 -0.355975 -0.000233
                                -0.000000  0.001547  0.000000 -0.006453 -0.000000 -0.017086 -0.000000 -0.000087  0.000000  0.000418
                                -0.000000  0.001142  0.000000 -0.000123 -0.000001 -0.000000  0.000790  0.000015 -0.000000

                                   1 2px     1 2px     1 2px     1 2px     1 2px     1 2px     1 2px     1 2px     1 2px     1 2px  
                                   1 2px     1 2px     1 2px     1 2px     1 2px     1 2px     1 2px     1 2px     1 2px     1 2px  
                                   1 2px     1 2px     1 2px     1 3d1+    1 3d1+    1 3d1+    1 3d1+    1 3d1+    1 3d1+    1 3d1+ 
                                   1 3d1+    1 3d1+    1 3d1+    1 3d1+    1 3d1+    1 3d1+    1 3d1+    1 3d1+    1 4f1+    1 4f3+ 
                                   1 4f1+    1 4f3+    1 4f1+    1 4f3+    1 4f1+    1 4f3+    1 4f1+    1 4f3+    1 4f1+    1 4f3+ 
                                   1 5g1+    1 5g3+    1 5g1+    1 5g3+    1 5g1+    1 5g3+    1 5g1+    1 5g3+    1 5g1+    1 5g3+ 
                                   1 6h1+    1 6h3+    1 6h5+    1 6h1+    1 6h3+    1 6h5+    1 6h1+    1 6h3+    1 6h5+    1 6h1+ 
                                   1 6h3+    1 6h5+    1 7i5+    1 7i3+    1 7i1+    1 7i5+    1 7i3+    1 7i1+    1 7i5+    1 7i3+ 
                                   1 7i1+    2 2px     2 2px     2 2px     2 2px     2 2px     2 3d1+    2 3d1+    2 3d1+    2 3d1+ 
                                   2 4f1+    2 4f3+    2 4f1+    2 4f3+    2 4f1+    2 4f3+    2 5g1+    2 5g3+    2 5g1+    2 5g3+ 


   1.2   2    -3.1350  -22.8964 -0.000000  0.000000 -0.000000  0.000002 -0.000006  0.000021 -0.000068  0.000229 -0.000986  0.007398
                                -0.022166 -0.100027  0.030337  0.132627  0.405019  0.312218  0.116349  0.010734 -0.000465  0.000392
                                 0.023170  0.146761 -0.000112 -0.000000  0.000001 -0.000023 -0.000172 -0.000276 -0.000208 -0.001040
                                -0.001793 -0.002313 -0.000818  0.000256 -0.000004 -0.000296 -0.000494  0.000012  0.000041  0.000343
                                -0.000316  0.001015 -0.000720  0.001943 -0.000132  0.002690  0.000140  0.001414  0.000099  0.000005
                                 0.000001 -0.000001  0.000024 -0.000002 -0.000024 -0.000010  0.000000 -0.000030  0.000037 -0.000016
                                 0.000011  0.000005 -0.000037  0.000037  0.000024 -0.000164  0.000018  0.000004 -0.000050  0.000016
                                -0.000006  0.000068  0.000000  0.000000  0.000001  0.000001 -0.000000 -0.000005  0.000000  0.000000
                                 0.000013  0.000015  0.000010  0.000280  0.000011 -0.000054 -0.000000 -0.000066 -0.000146  0.000096
                                 0.000007  0.000001  0.000062 -0.000002  0.000026 -0.000005 -0.000014 -0.000001 -0.000016  0.000013

   2.2   2    -0.4623  -16.1987 -0.000000  0.000000 -0.000000  0.000000 -0.000000  0.000001 -0.000003  0.000010 -0.000035  0.000173
                                -0.000615  0.009298  0.003157  0.063565  0.004043  0.007297 -0.004840 -0.016245 -0.006443  0.000045
                                -0.011271 -0.059355 -0.000047  0.000026 -0.000218  0.005510  0.040561  0.074095  0.109487  0.249282
                                 0.292472  0.257862  0.184706  0.085331  0.012557  0.044691  0.043036 -0.000486 -0.000091  0.000003
                                -0.000417  0.000006 -0.000777  0.000005 -0.002722 -0.000008 -0.007085 -0.000041 -0.004062 -0.000035
                                -0.000239  0.000037 -0.000455  0.000037 -0.001075  0.000139 -0.001046  0.000229 -0.000411  0.000183
                                 0.000014  0.000000 -0.000001  0.000011 -0.000000 -0.000003  0.000013  0.000001  0.000000  0.000024
                                -0.000011  0.000007 -0.000060  0.000014  0.000032 -0.000088  0.000021  0.000026 -0.000183  0.000043
                                 0.000112  0.000259  0.000702  0.004425  0.004192  0.000398 -0.000039 -0.000802 -0.001600  0.000477
                                 0.000049 -0.000000  0.000614  0.000000  0.000004  0.000014 -0.000066  0.000000 -0.000202 -0.000007

   3.2   0     0.0234   -2.1737  0.000000 -0.000000  0.000000 -0.000002  0.000007 -0.000022  0.000068 -0.000201  0.000602 -0.002082
                                 0.008691 -0.286692 -0.071795 -1.626009  0.049317 -0.056738  0.042960 -0.064158  0.194581 -0.416432
                                 0.312215  1.618834  1.197402  0.000000 -0.000001  0.000064  0.000605  0.000430 -0.006838  0.000105
                                 0.005808  0.001734  0.001234 -0.029184 -0.002280  0.004455  0.007865 -0.191035 -0.000013  0.000002
                                 0.000061  0.000016 -0.000137  0.000046  0.000294 -0.000019 -0.004476 -0.000126 -0.007609 -0.000206
                                 0.000013 -0.000001 -0.000073 -0.000003  0.000126 -0.000007 -0.000398 -0.000006 -0.001677  0.000006
                                 0.000009 -0.000001  0.000007 -0.000035 -0.000002  0.000011  0.000120  0.000001  0.000002 -0.000555
                                 0.000014 -0.000100 -0.000002  0.000000 -0.000004 -0.000003  0.000001  0.000016 -0.000003  0.000001
                                -0.000036  0.000315 -0.000703  0.003891  0.009352  0.079612 -0.000296  0.001344 -0.005940 -0.018927
                                 0.000004  0.000000  0.000124 -0.000002  0.008348  0.000017  0.000030  0.000000 -0.001023 -0.000004

   4.2   0     0.0739   -2.1665  0.000000 -0.000000  0.000000 -0.000002  0.000008 -0.000026  0.000079 -0.000231  0.000676 -0.002095
                                 0.009196 -0.354066 -0.084702 -1.955792  0.085172 -0.043780  0.043217 -0.005447  0.490225 -0.731053
                                 0.380416  1.965219  0.667038  0.000001 -0.000011 -0.000109 -0.002221  0.003084  0.084192  0.025374
                                -0.033194  0.015438 -0.034205  0.282902 -0.172841 -0.042643 -0.079578  1.100511  0.000123 -0.000002
                                -0.000485 -0.000012  0.001449 -0.000035 -0.003608  0.000015  0.025071  0.000109  0.072331  0.000156
                                 0.000035  0.000004 -0.000055  0.000010  0.000217  0.000020 -0.000429  0.000020  0.017300 -0.000031
                                -0.000035  0.000001 -0.000005  0.000125  0.000001 -0.000008 -0.000448 -0.000001 -0.000001  0.002360
                                -0.000011  0.000078  0.000004 -0.000001  0.000011  0.000008 -0.000002 -0.000051  0.000009 -0.000002
                                 0.000117  0.000605 -0.003177  0.017167 -0.139629 -0.392906  0.000898 -0.004802  0.023013  0.179276
                                 0.000162 -0.000001 -0.001333  0.000004 -0.040870 -0.000017  0.000033 -0.000000  0.005104  0.000001

   5.2   0     0.0823   -3.2518 -0.000000  0.000000 -0.000001  0.000004 -0.000015  0.000050 -0.000154  0.000447 -0.001299  0.003876
                                -0.017330  0.701239  0.165871  3.869768 -0.185168  0.078819 -0.117481  0.309968 -0.149071  1.753519
                                -0.750597 -3.897870 -1.061869  0.000001 -0.000012  0.000101  0.000039  0.003604  0.044545  0.019325
                                -0.007894  0.012889 -0.000998  0.145144 -0.139072 -0.019785 -0.037904  0.533403  0.000066  0.000006
                                -0.000227  0.000042  0.000881  0.000120 -0.002635 -0.000056  0.015951 -0.000372  0.038787 -0.000542
                                -0.000046 -0.000001  0.000153 -0.000002 -0.000356 -0.000006  0.001086 -0.000001  0.009387  0.000001
                                -0.000038 -0.000003  0.000019  0.000117 -0.000005  0.000029 -0.000434  0.000002  0.000003  0.002279
                                 0.000038 -0.000266 -0.000001  0.000000  0.000015 -0.000002  0.000001 -0.000055 -0.000001 -0.000000
                                 0.000136 -0.000176  0.002776  0.002296 -0.039495 -0.310159  0.000986 -0.005221  0.020790  0.101590
                                 0.000043  0.000001 -0.000519 -0.000004 -0.034365  0.000038 -0.000087  0.000001  0.004241 -0.000010

                                   1 2py     1 2py     1 2py     1 2py     1 2py     1 2py     1 2py     1 2py     1 2py     1 2py  
                                   1 2py     1 2py     1 2py     1 2py     1 2py     1 2py     1 2py     1 2py     1 2py     1 2py  
                                   1 2py     1 2py     1 2py     1 3d1-    1 3d1-    1 3d1-    1 3d1-    1 3d1-    1 3d1-    1 3d1- 
                                   1 3d1-    1 3d1-    1 3d1-    1 3d1-    1 3d1-    1 3d1-    1 3d1-    1 3d1-    1 4f1-    1 4f3- 
                                   1 4f1-    1 4f3-    1 4f1-    1 4f3-    1 4f1-    1 4f3-    1 4f1-    1 4f3-    1 4f1-    1 4f3- 
                                   1 5g1-    1 5g3-    1 5g1-    1 5g3-    1 5g1-    1 5g3-    1 5g1-    1 5g3-    1 5g1-    1 5g3- 
                                   1 6h1-    1 6h3-    1 6h5-    1 6h1-    1 6h3-    1 6h5-    1 6h1-    1 6h3-    1 6h5-    1 6h1- 
                                   1 6h3-    1 6h5-    1 7i5-    1 7i3-    1 7i1-    1 7i5-    1 7i3-    1 7i1-    1 7i5-    1 7i3- 
                                   1 7i1-    2 2py     2 2py     2 2py     2 2py     2 2py     2 3d1-    2 3d1-    2 3d1-    2 3d1- 
                                   2 4f1-    2 4f3-    2 4f1-    2 4f3-    2 4f1-    2 4f3-    2 5g1-    2 5g3-    2 5g1-    2 5g3- 


   1.3   2    -3.1350  -22.8964 -0.000000  0.000000 -0.000000  0.000002 -0.000006  0.000021 -0.000068  0.000229 -0.000986  0.007398
                                -0.022166 -0.100027  0.030337  0.132627  0.405019  0.312218  0.116349  0.010734 -0.000465  0.000392
                                 0.023170  0.146761 -0.000112 -0.000000  0.000001 -0.000023 -0.000172 -0.000276 -0.000208 -0.001040
                                -0.001793 -0.002313 -0.000818  0.000256 -0.000004 -0.000296 -0.000494  0.000012  0.000041 -0.000343
                                -0.000316 -0.001015 -0.000720 -0.001943 -0.000132 -0.002690  0.000140 -0.001414  0.000099 -0.000005
                                 0.000001  0.000001  0.000024  0.000002 -0.000024  0.000010  0.000000  0.000030  0.000037  0.000016
                                 0.000011 -0.000005 -0.000037  0.000037 -0.000024 -0.000164  0.000018 -0.000004 -0.000050  0.000016
                                 0.000006  0.000068  0.000000 -0.000000  0.000001  0.000001  0.000000 -0.000005  0.000000 -0.000000
                                 0.000013  0.000015  0.000010  0.000280  0.000011 -0.000054 -0.000000 -0.000066 -0.000146  0.000096
                                 0.000007 -0.000001  0.000062  0.000002  0.000026  0.000005 -0.000014  0.000001 -0.000016 -0.000013

   2.3   2    -0.4623  -16.1987 -0.000000  0.000000 -0.000000  0.000000 -0.000000  0.000001 -0.000003  0.000010 -0.000035  0.000173
                                -0.000615  0.009298  0.003157  0.063565  0.004043  0.007297 -0.004840 -0.016245 -0.006443  0.000045
                                -0.011271 -0.059355 -0.000047  0.000026 -0.000218  0.005510  0.040561  0.074095  0.109487  0.249282
                                 0.292472  0.257862  0.184706  0.085331  0.012557  0.044691  0.043036 -0.000486 -0.000091 -0.000003
                                -0.000417 -0.000006 -0.000777 -0.000005 -0.002722  0.000008 -0.007085  0.000041 -0.004062  0.000035
                                -0.000239 -0.000037 -0.000455 -0.000037 -0.001075 -0.000139 -0.001046 -0.000229 -0.000411 -0.000183
                                 0.000014 -0.000000 -0.000001  0.000011  0.000000 -0.000003  0.000013 -0.000001  0.000000  0.000024
                                 0.000011  0.000007 -0.000060 -0.000014  0.000032 -0.000088 -0.000021  0.000026 -0.000183 -0.000043
                                 0.000112  0.000259  0.000702  0.004425  0.004192  0.000398 -0.000039 -0.000802 -0.001600  0.000477
                                 0.000049  0.000000  0.000614 -0.000000  0.000004 -0.000014 -0.000066 -0.000000 -0.000202  0.000007

   3.3   0     0.0234   -2.1737  0.000000 -0.000000  0.000000 -0.000002  0.000007 -0.000022  0.000068 -0.000201  0.000602 -0.002082
                                 0.008691 -0.286692 -0.071795 -1.626009  0.049317 -0.056738  0.042960 -0.064158  0.194581 -0.416432
                                 0.312215  1.618835  1.197402  0.000000 -0.000001  0.000064  0.000605  0.000430 -0.006838  0.000105
                                 0.005808  0.001734  0.001234 -0.029184 -0.002280  0.004455  0.007865 -0.191035 -0.000013 -0.000002
                                 0.000061 -0.000016 -0.000137 -0.000046  0.000294  0.000019 -0.004476  0.000126 -0.007609  0.000206
                                 0.000013  0.000001 -0.000073  0.000003  0.000126  0.000007 -0.000398  0.000006 -0.001677 -0.000006
                                 0.000009  0.000001  0.000007 -0.000035  0.000002  0.000011  0.000120 -0.000001  0.000002 -0.000555
                                -0.000014 -0.000100 -0.000002 -0.000000 -0.000004 -0.000003 -0.000001  0.000016 -0.000003 -0.000001
                                -0.000036  0.000315 -0.000703  0.003891  0.009352  0.079612 -0.000296  0.001344 -0.005940 -0.018927
                                 0.000004 -0.000000  0.000124  0.000002  0.008348 -0.000017  0.000030 -0.000000 -0.001023  0.000004

   4.3   0     0.0739   -2.1665  0.000000 -0.000000  0.000000 -0.000002  0.000008 -0.000026  0.000079 -0.000231  0.000676 -0.002095
                                 0.009196 -0.354066 -0.084702 -1.955792  0.085172 -0.043780  0.043217 -0.005447  0.490225 -0.731053
                                 0.380416  1.965219  0.667038  0.000001 -0.000011 -0.000109 -0.002221  0.003084  0.084192  0.025374
                                -0.033194  0.015438 -0.034205  0.282902 -0.172841 -0.042643 -0.079578  1.100511  0.000123  0.000002
                                -0.000485  0.000012  0.001449  0.000035 -0.003608 -0.000015  0.025071 -0.000109  0.072331 -0.000156
                                 0.000035 -0.000004 -0.000055 -0.000010  0.000217 -0.000020 -0.000429 -0.000020  0.017300  0.000031
                                -0.000035 -0.000001 -0.000005  0.000125 -0.000001 -0.000008 -0.000448  0.000001 -0.000001  0.002360
                                 0.000011  0.000078  0.000004  0.000001  0.000011  0.000008  0.000002 -0.000051  0.000009  0.000002
                                 0.000117  0.000605 -0.003177  0.017167 -0.139629 -0.392906  0.000898 -0.004802  0.023013  0.179276
                                 0.000162  0.000001 -0.001333 -0.000004 -0.040870  0.000017  0.000033  0.000000  0.005104 -0.000001

   5.3   0     0.0823   -3.2518 -0.000000  0.000000 -0.000001  0.000004 -0.000015  0.000050 -0.000154  0.000447 -0.001299  0.003876
                                -0.017330  0.701239  0.165871  3.869768 -0.185168  0.078819 -0.117481  0.309968 -0.149071  1.753519
                                -0.750597 -3.897870 -1.061869  0.000001 -0.000012  0.000101  0.000039  0.003604  0.044545  0.019325
                                -0.007894  0.012889 -0.000998  0.145144 -0.139072 -0.019785 -0.037904  0.533403  0.000066 -0.000006
                                -0.000227 -0.000042  0.000881 -0.000120 -0.002635  0.000056  0.015951  0.000372  0.038787  0.000542
                                -0.000046  0.000001  0.000153  0.000002 -0.000356  0.000006  0.001086  0.000001  0.009387 -0.000001
                                -0.000038  0.000003  0.000019  0.000117  0.000005  0.000029 -0.000434 -0.000002  0.000003  0.002279
                                -0.000038 -0.000266 -0.000001 -0.000000  0.000015 -0.000002 -0.000001 -0.000055 -0.000001  0.000000
                                 0.000136 -0.000176  0.002776  0.002296 -0.039495 -0.310159  0.000986 -0.005221  0.020790  0.101590
                                 0.000043 -0.000001 -0.000519  0.000004 -0.034365 -0.000038 -0.000087 -0.000001  0.004241  0.000010

                                   1 3d2-    1 3d2-    1 3d2-    1 3d2-    1 3d2-    1 3d2-    1 3d2-    1 3d2-    1 3d2-    1 3d2- 
                                   1 3d2-    1 3d2-    1 3d2-    1 3d2-    1 3d2-    1 4f2-    1 4f2-    1 4f2-    1 4f2-    1 4f2- 
                                   1 4f2-    1 5g2-    1 5g4-    1 5g2-    1 5g4-    1 5g2-    1 5g4-    1 5g2-    1 5g4-    1 5g2- 
                                   1 5g4-    1 6h4-    1 6h2-    1 6h4-    1 6h2-    1 6h4-    1 6h2-    1 6h4-    1 6h2-    1 7i2- 
                                   1 7i6-    1 7i4-    1 7i2-    1 7i6-    1 7i4-    1 7i2-    1 7i6-    1 7i4-    2 3d2-    2 3d2- 
                                   2 3d2-    2 3d2-    2 4f2-    2 4f2-    2 4f2-    2 5g2-    2 5g4-    2 5g2-    2 5g4- 

   1.4   +    -0.5590  -16.5835  0.000027 -0.000224  0.005651  0.041597  0.075974  0.112704  0.257024  0.300467  0.258299  0.171441
                                 0.063582  0.005637  0.045816  0.044181 -0.000169 -0.000071 -0.000345 -0.000611 -0.002264 -0.005697
                                -0.002851 -0.000308 -0.000000 -0.000658 -0.000000 -0.001594 -0.000000 -0.001617  0.000000 -0.000681
                                 0.000000  0.000000  0.000008  0.000000  0.000014 -0.000000  0.000002 -0.000000  0.000000  0.000040
                                -0.000214  0.000000  0.000052 -0.000320  0.000000  0.000121 -0.000610  0.000000  0.000010  0.000120
                                 0.000484  0.000217  0.000005 -0.000254 -0.000058  0.000029  0.000000  0.000123 -0.000000

   2.4   0     0.0734   -2.0836  0.000003 -0.000022  0.000004 -0.001999  0.006549  0.123812  0.043965 -0.040143  0.035666 -0.078324
                                 0.159729 -0.403558 -0.059713 -0.112992  1.220860  0.000036 -0.000135  0.000407 -0.000894  0.003040
                                -0.009661  0.000013  0.000000  0.000000 -0.000000  0.000077  0.000000 -0.000092 -0.000000  0.000525
                                 0.000000 -0.000000 -0.000003 -0.000000  0.000008  0.000000 -0.000024 -0.000000  0.000072 -0.000001
                                 0.000005 -0.000000 -0.000000  0.000010 -0.000000 -0.000004  0.000009 -0.000000 -0.000086  0.000432
                                -0.001020  0.001783  0.000058 -0.000348  0.002131  0.000017  0.000000  0.000142 -0.000000

   3.4   0     0.2353   -3.1624 -0.000013  0.000107 -0.001126 -0.002516 -0.033635 -0.374825 -0.176096  0.056991 -0.153143  0.210009
                                -0.491034  1.746119  0.160853  0.313314 -0.881501  0.000042 -0.000146  0.000439 -0.001032  0.002894
                                -0.034444  0.000025  0.000000  0.000117 -0.000000  0.000075  0.000000  0.000410 -0.000000 -0.003518
                                 0.000000 -0.000000  0.000033 -0.000000 -0.000115  0.000000  0.000372 -0.000000 -0.001121 -0.000007
                                 0.000022 -0.000000  0.000003  0.000048 -0.000000 -0.000032  0.000027  0.000000  0.001922 -0.007991
                                 0.023870 -0.052973 -0.000417  0.002168 -0.014100 -0.000007  0.000000 -0.001017 -0.000000

   4.4   0     0.5565   -3.5870 -0.000005  0.000038 -0.000147  0.001915 -0.011606 -0.187228 -0.072798  0.053925 -0.065564  0.133161
                                -0.263503  0.029095  0.087555  0.167673 -0.037499 -0.001075  0.005293 -0.012241  0.037104 -0.087911
                                 0.760218 -0.000091 -0.000000  0.000298  0.000000 -0.000673 -0.000000  0.001291  0.000000  0.012889
                                -0.000000 -0.000000 -0.000252  0.000000  0.000856 -0.000000 -0.002879  0.000000  0.009112  0.000037
                                -0.000003 -0.000000 -0.000135 -0.000007  0.000000  0.000318  0.000000 -0.000000 -0.013895  0.062679
                                -0.172549  0.500932  0.002871 -0.014519  0.104588 -0.000282 -0.000000  0.002578  0.000000

 HOMO      5.1    -0.324761 =      -8.8372eV
 LUMO      6.1    -0.001126 =      -0.0306eV
 LUMO-HOMO         0.323635 =       8.8066eV


 **********************************************************************************************************************************
 DATASETS  * FILE   NREC   LENGTH (MB)   RECORD NAMES
              1      19       21.39       500      610      700      900      950      970     1000      129      960     1100   
                                          VAR    BASINP    GEOM    SYMINP    ZMAT    AOBASIS   BASIS     P2S    ABASIS      S 
                                         1400     1410     1420     1200     1210     1080     1600     1650     1700   
                                           T        V       ECP      H0       H01     AOSYM     SMH    MOLCAS    OPER   

              2       4        4.31       700     1000      520     2100   
                                         GEOM     BASIS   MCVARS     RHF  

 PROGRAMS   *        TOTAL       RHF       INT
 CPU TIMES  *       249.71     39.80    209.73
 REAL TIME  *       326.58 SEC
 DISK USED  *         8.40 GB      
 SF USED    *         0.21 MB      
 GA USED    *         0.00 MB       (max)       0.00 MB       (current)
 **********************************************************************************************************************************
 SETTING SCF(11)        =      -168.97292849  AU                              
 SETTING _CC_NORM_MAX   =         2.00000000                                  


 PROGRAM * CCSD (Restricted open-shell coupled cluster)     Authors: C. Hampel, H.-J. Werner, 1991, M. Deegan, P.J. Knowles, 1992


 Convergence thresholds:  THRVAR = 1.00D-08  THRDEN = 1.00D-06

 CCSD(T)     terms to be evaluated (factor= 1.000)


 Number of closed-shell orbitals:   9 (   5   2   2   0 )
 Number of active  orbitals:        1 (   0   0   0   1 )
 Number of external orbitals:     418 ( 164  98  98  58 )

 Memory could be reduced to 325.31 Mwords without degradation in triples

 Number of N-1 electron functions:              19
 Number of N-2 electron functions:             171
 Number of singly external CSFs:              2483
 Number of doubly external CSFs:           5862945
 Total number of CSFs:                     5865428

 Molecular orbitals read from record     2100.2  Type=RHF/CANONICAL (state 1.4)

 Integral transformation finished. Total CPU:  19.21 sec, npass=  1  Memory used:  29.32 MW

 Starting RMP2 calculation

 Wavefunction is spin-projected

 ITER.      SQ.NORM     CORR.ENERGY   TOTAL ENERGY   ENERGY CHANGE        DEN1      VAR(S)    VAR(P)  DIIS     TIME
   1      1.14796333    -1.03946113  -170.01238962    -1.03946113    -0.00133623  0.13D-05  0.61D-03  1  1    20.16
   2      1.14941181    -1.04087104  -170.01379954    -0.00140991    -0.00000577  0.33D-07  0.45D-05  2  2    21.00
   3      1.14952248    -1.04093093  -170.01385942    -0.00005989    -0.00000003  0.17D-08  0.29D-07  3  3    21.84
   4      1.14952703    -1.04093202  -170.01386051    -0.00000108    -0.00000000  0.87D-10  0.26D-09  4  4    22.76
   5      1.14952717    -1.04093202  -170.01386051    -0.00000000    -0.00000000  0.11D-11  0.43D-11  5  5    23.77

 Norm of t1 vector:      0.01948682      S-energy:    -0.00286472      T1 diagnostic:  0.00004282
 Norm of t2 vector:      0.38619610      P-energy:    -1.03806730
                                         Alpha-Beta:  -0.73129962
                                         Alpha-Alpha: -0.17321788
                                         Beta-Beta:   -0.13354980

 Spin contamination <S**2-Sz**2-Sz>     0.00000000
  Reference energy                   -168.972928491507
  RHF-RMP2 correlation energy          -1.040932020171
 !RHF-RMP2 energy                    -170.013860511678
 (NB above energy spin projected)

 Starting RCCSD calculation

 ITER.      SQ.NORM     CORR.ENERGY   TOTAL ENERGY   ENERGY CHANGE        DEN1      VAR(S)    VAR(P)  DIIS     TIME
   1      1.11480216    -0.90260203  -169.87553053    -0.90260203    -0.06451741  0.14D-01  0.11D-01  0  0    45.10
   2      1.13742168    -0.96007783  -169.93300632    -0.05747580    -0.01446128  0.32D-02  0.40D-02  1  1    64.28
   3      1.13931578    -0.94605710  -169.91898560     0.01402073    -0.00110772  0.11D-02  0.19D-03  2  2    85.14
   4      1.14495514    -0.94696017  -169.91988866    -0.00090307    -0.00049909  0.52D-03  0.87D-04  3  3   105.41
   5      1.15988818    -0.94940649  -169.92233498    -0.00244632    -0.00017241  0.23D-03  0.20D-04  4  4   124.97
   6      1.16794690    -0.94995384  -169.92288233    -0.00054735    -0.00009661  0.12D-03  0.13D-04  5  5   144.74
   7      1.18106491    -0.95039290  -169.92332139    -0.00043906    -0.00004582  0.53D-04  0.55D-05  6  6   164.95
   8      1.19116848    -0.95056957  -169.92349806    -0.00017667    -0.00002278  0.23D-04  0.36D-05  6  1   184.33
   9      1.20085172    -0.95077505  -169.92370354    -0.00020547    -0.00000784  0.60D-05  0.20D-05  6  2   203.42
  10      1.20490818    -0.95079804  -169.92372653    -0.00002300    -0.00000187  0.15D-05  0.50D-06  6  3   222.87
  11      1.20538287    -0.95079995  -169.92372845    -0.00000191    -0.00000058  0.49D-06  0.14D-06  6  6   242.68
  12      1.20580816    -0.95081038  -169.92373887    -0.00001042    -0.00000017  0.15D-06  0.43D-07  6  4   262.66
  13      1.20567795    -0.95079932  -169.92372782     0.00001105    -0.00000008  0.71D-07  0.19D-07  6  5   282.03
  14      1.20564583    -0.95079718  -169.92372567     0.00000215    -0.00000006  0.50D-07  0.13D-07  6  6   300.87
  15      1.20580550    -0.95079866  -169.92372715    -0.00000148    -0.00000005  0.44D-07  0.10D-07  6  1   320.58
  16      1.20570827    -0.95079555  -169.92372404     0.00000311    -0.00000002  0.16D-07  0.32D-08  6  3   340.56
  17      1.20574482    -0.95079479  -169.92372328     0.00000076    -0.00000001  0.10D-07  0.18D-08  6  2   361.05
  18      1.20574335    -0.95079505  -169.92372355    -0.00000027    -0.00000001  0.10D-07  0.17D-08  6  5   382.15
  19      1.20574908    -0.95079485  -169.92372335     0.00000020    -0.00000001  0.80D-08  0.13D-08  6  6   402.22

 Norm of t1 vector:      0.26658033      S-energy:    -0.00313480      T1 diagnostic:  0.04290504
                                                                       D1 diagnostic:  0.17564348
 Norm of t2 vector:      0.36699320      P-energy:    -0.94766005
                                         Alpha-Beta:  -0.69515320
                                         Alpha-Alpha: -0.14146849
                                         Beta-Beta:   -0.11103836

 Singles amplitudes (print threshold =  0.500E-01):

         I         SYM. A    A   T(IA) [Alpha-Alpha]

         5         1         1     -0.09360021
         5         1         3      0.08794412
         5         1         7      0.07102183
 
         I         SYM. A    A   T(IA) [Beta-Beta]

         4         1         1     -0.05755733
         5         1         1     -0.09851733
         5         1         3      0.09127573
         5         1         7      0.07097293

 Spin contamination <S**2-Sz**2-Sz>     0.00000000

 Memory could be reduced to 332.37 Mwords without degradation in triples
 

  Correlated core orbitals:             1.1       2.1       1.2       1.3
  Orbital energies:                    -4.9045   -3.1424   -3.2185   -3.2185
 
  RCCSD core-core energy               -0.139977709951
  RCCSD core-valence energy            -0.366927771750
  RCCSD valence correlation energy     -0.443889372538
 

 RESULTS
 =======

  Reference energy                   -168.972928491507
  RCCSD singles energy                 -0.003134803621
  RCCSD pair energy                    -0.947660050617
  RCCSD correlation energy             -0.950794854238
  Triples (T) contribution             -0.037862022104
  Total correlation energy             -0.988656876343
 
  RHF-RCCSD energy                   -169.923723345745
  RHF-RCCSD[T] energy                -169.970099729193
  RHF-RCCSD-T energy                 -169.961504085421
 !RHF-RCCSD(T) energy                -169.961585367849

 Program statistics:

 Available memory in ccsd:               511999000
 Min. memory needed in ccsd:              17182553
 Max. memory used in ccsd:                24375640
 Max. memory used in cckext:              20381348 (19 integral passes)
 Max. memory used in cckint:              29321671 ( 1 integral passes)



 **********************************************************************************************************************************
 DATASETS  * FILE   NREC   LENGTH (MB)   RECORD NAMES
              1      19       21.39       500      610      700      900      950      970     1000      129      960     1100   
                                          VAR    BASINP    GEOM    SYMINP    ZMAT    AOBASIS   BASIS     P2S    ABASIS      S 
                                         1400     1410     1420     1200     1210     1080     1600     1650     1700   
                                           T        V       ECP      H0       H01     AOSYM     SMH    MOLCAS    OPER   

              2       4        4.31       700     1000      520     2100   
                                         GEOM     BASIS   MCVARS     RHF  

 PROGRAMS   *        TOTAL  RCCSD(T)       RHF       INT
 CPU TIMES  *      1325.13   1075.41     39.80    209.73
 REAL TIME  *      2031.32 SEC
 DISK USED  *        10.58 GB      
 SF USED    *         5.09 GB      
 GA USED    *         0.00 MB       (max)       0.00 MB       (current)
 **********************************************************************************************************************************
 SETTING CCSD(11)       =      -169.96158537  AU                              

 DO I                   =        12.00000000   
 SETTING Z(12)          =         1.67500000                                  

Geometry recognized as XYZ



 Recomputing integrals since geometry changed


 PROGRAM * SEWARD (Integral evaluation for generally contracted gaussian basis sets)     Author: Roland Lindh, 1990

 Geometry written to block  1 of record 700


 Point group  C2v 



 ATOMIC COORDINATES

 NR  ATOM    CHARGE       X              Y              Z

   1  NI     18.00    0.000000000    0.000000000    0.000000000
   2  H       1.00    0.000000000    0.000000000    3.165291259

 Bond lengths in Bohr (Angstrom)

 1-2  3.165291259
     ( 1.675000000)

 NUCLEAR CHARGE:                   19
 NUMBER OF PRIMITIVE AOS:         601
 NUMBER OF SYMMETRY AOS:          428
 NUMBER OF CONTRACTIONS:          428   ( 169A1  + 100B1  + 100B2  +  59A2  )
 NUMBER OF CORE ORBITALS:           4   (   2A1  +   1B1  +   1B2  +   0A2  )
 NUMBER OF VALENCE ORBITALS:        7   (   4A1  +   1B1  +   1B2  +   1A2  )


 NUCLEAR REPULSION ENERGY    5.68668048

 EXTRA SYMMETRY OF AOS IN SYMMETRY 1:   1 1 1 1 1 1 1 1 1 1   1 1 1 1 1 1 1 1 1 1   1 1 1 1 1 1 1 1 1 1   1 1 1 1 1 1 1 1 1 1
                                        1 1 1 1 1 1 1 1 1 1   1 1 1 1 1 2 1 2 1 2   1 2 1 2 1 2 1 2 1 2   1 2 1 2 1 2 1 2 1 2
                                        1 2 1 2 1 2 1 2 1 2   1 2 1 2 1 2 1 3 2 1   3 2 1 3 2 1 3 2 1 3   2 2 3 1 2 3 1 2 3 1
                                        2 3 1 4 3 2 1 4 3 2   1 4 3 2 1 1 1 1 1 1   1 1 1 1 1 1 1 1 1 1   2 1 2 1 2 1 2 1 2 1
                                        2 1 2 1 3 2 1 3 2
 EXTRA SYMMETRY OF AOS IN SYMMETRY 2:   1 1 1 1 1 1 1 1 1 1   1 1 1 1 1 1 1 1 1 1   1 1 1 1 1 1 1 1 1 1   1 1 1 1 1 1 1 1 1 2
                                        1 2 1 2 1 2 1 2 1 2   1 2 1 2 1 2 1 2 1 2   1 2 3 1 2 3 1 2 3 1   2 3 3 2 1 3 2 1 3 2
                                        1 1 1 1 1 1 1 1 1 1   1 2 1 2 1 2 1 2 1 2
 EXTRA SYMMETRY OF AOS IN SYMMETRY 3:   1 1 1 1 1 1 1 1 1 1   1 1 1 1 1 1 1 1 1 1   1 1 1 1 1 1 1 1 1 1   1 1 1 1 1 1 1 1 1 2
                                        1 2 1 2 1 2 1 2 1 2   1 2 1 2 1 2 1 2 1 2   1 2 3 1 2 3 1 2 3 1   2 3 3 2 1 3 2 1 3 2
                                        1 1 1 1 1 1 1 1 1 1   1 2 1 2 1 2 1 2 1 2
 EXTRA SYMMETRY OF AOS IN SYMMETRY 4:   1 1 1 1 1 1 1 1 1 1   1 1 1 1 1 1 1 1 1 1   1 1 2 1 2 1 2 1 2 1   2 2 1 2 1 2 1 2 1 1
                                        3 2 1 3 2 1 3 2 1 1   1 1 1 1 1 1 2 1 2

 Eigenvalues of metric

         1 0.171E-07 0.185E-07 0.239E-06 0.666E-06 0.675E-05 0.709E-05 0.322E-04 0.801E-04
         2 0.189E-07 0.253E-06 0.701E-05 0.212E-03 0.476E-03 0.802E-03 0.181E-02 0.228E-02
         3 0.189E-07 0.253E-06 0.701E-05 0.212E-03 0.476E-03 0.802E-03 0.181E-02 0.228E-02
         4 0.709E-05 0.483E-03 0.625E-02 0.201E-01 0.274E-01 0.479E-01 0.597E-01 0.744E-01


 Contracted 2-electron integrals neglected if value below      1.0D-13
 AO integral compression algorithm  1   Integral accuracy      1.0D-13

     2862.088 MB (compressed) written to integral file ( 33.9%)

     Node minimum: 740.557 MB, node maximum: 1258.291 MB


 NUMBER OF SORTED TWO-ELECTRON INTEGRALS:  357005319.     BUFFER LENGTH:  32768
 NUMBER OF SEGMENTS:  12  SEGMENT LENGTH:   31996800      RECORD LENGTH: 524288

 Memory used in sort:      32.55 MW

 SORT1 READ  1054872234. AND WROTE   148936514. INTEGRALS IN    431 RECORDS. CPU TIME:    36.16 SEC, REAL TIME:    59.13 SEC
 SORT2 READ   445415575. AND WROTE  1071064830. INTEGRALS IN   8475 RECORDS. CPU TIME:     5.93 SEC, REAL TIME:    35.92 SEC

 Node minimum:   356945875.  Node maximum:   357113636. integrals

 OPERATOR DM      FOR CENTER  0  COORDINATES:    0.000000    0.000000    0.000000


 **********************************************************************************************************************************
 DATASETS  * FILE   NREC   LENGTH (MB)   RECORD NAMES
              1      19       21.34       500      610      700      900      950      970     1000      129      960     1100   
                                          VAR    BASINP    GEOM    SYMINP    ZMAT    AOBASIS   BASIS     P2S    ABASIS      S 
                                         1400     1410     1420     1200     1210     1080     1600     1650     1700   
                                           T        V       ECP      H0       H01     AOSYM     SMH    MOLCAS    OPER   

              2       4        4.31       700     1000      520     2100   
                                         GEOM     BASIS   MCVARS     RHF  

 PROGRAMS   *        TOTAL       INT  RCCSD(T)       RHF       INT
 CPU TIMES  *      1523.40    198.26   1075.41     39.80    209.73
 REAL TIME  *      2290.82 SEC
 DISK USED  *        10.61 GB      
 SF USED    *         5.09 GB      
 GA USED    *         0.00 MB       (max)       0.00 MB       (current)
 **********************************************************************************************************************************


 PROGRAM * RHF-SCF (OPEN SHELL)       Authors: W. Meyer, H.-J. Werner


 NUMBER OF ELECTRONS:      10+    9-    SPACE SYMMETRY=4    SPIN SYMMETRY: Doublet 
 CONVERGENCE THRESHOLDS:    1.00E-05 (Density)    1.00E-07 (Energy)
 MAX. NUMBER OF ITERATIONS:       60
 INTERPOLATION TYPE:            DIIS
 INTERPOLATION STEPS:              2 (START)      1 (STEP)
 LEVEL SHIFTS:                 -0.60 (CLOSED) -0.30 (OPEN) 



 Molecular orbitals read from record     2100.2  Type=RHF/CANONICAL (state 1.4)

 Molecular orbital dump at record        2100.2

 ITERATION    DDIFF          GRAD             ENERGY        2-EL.EN.            DIPOLE MOMENTS         DIIS   ORB.
    1      0.000D+00      0.000D+00      -168.97088942    282.379942    0.00000    0.00000   -1.66577    0    start
    2      0.000D+00      0.118D-02      -168.97099056    282.413260    0.00000    0.00000   -1.66342    1    diag,B
    3      0.147D-03      0.955D-04      -168.97100913    282.390684    0.00000    0.00000   -1.66567    2    diag,B
    4      0.235D-04      0.543D-04      -168.97101871    282.412740    0.00000    0.00000   -1.66837    3    diag,B
    5      0.199D-04      0.456D-04      -168.97102652    282.404064    0.00000    0.00000   -1.67181    4    diag,B
    6      0.202D-04      0.272D-04      -168.97103457    282.409770    0.00000    0.00000   -1.67751    5    diag,B
    7      0.259D-04      0.177D-04      -168.97103877    282.415075    0.00000    0.00000   -1.68141    6    diag,B
    8      0.168D-04      0.108D-04      -168.97104060    282.420675    0.00000    0.00000   -1.68354    7    orth
    9      0.134D-04      0.542D-05      -168.97104101    282.423830    0.00000    0.00000   -1.68401    8    diag,B
   10      0.108D-04      0.222D-05      -168.97104105    282.424564    0.00000    0.00000   -1.68394    9    diag,B
   11      0.454D-05      0.848D-06      -168.97104106    282.424573    0.00000    0.00000   -1.68392    0    orth

 Final alpha occupancy:   5   2   2   1
 Final beta  occupancy:   5   2   2   0

 !RHF STATE 1.4 Energy               -168.971041057006
 Nuclear energy                         5.68668048
 One-electron energy                 -315.87000795
 Two-electron energy                  141.21228642
 Virial quotient                       -1.55388070
 !RHF STATE 1.4 Dipole moment           0.00000000     0.00000000    -1.68391993
 Dipole moment /Debye                   0.00000000     0.00000000    -4.27981721

 ELECTRON ORBITALS
 =================


   Orb  Occ    Energy  Couls-En    Coefficients

                                   1 1s      1 1s      1 1s      1 1s      1 1s      1 1s      1 1s      1 1s      1 1s      1 1s   
                                   1 1s      1 1s      1 1s      1 1s      1 1s      1 1s      1 1s      1 1s      1 1s      1 1s   
                                   1 1s      1 1s      1 1s      1 1s      1 1s      1 1s      1 1s      1 1s      1 1s      1 1s   
                                   1 1s      1 2pz     1 2pz     1 2pz     1 2pz     1 2pz     1 2pz     1 2pz     1 2pz     1 2pz  
                                   1 2pz     1 2pz     1 2pz     1 2pz     1 2pz     1 2pz     1 2pz     1 2pz     1 2pz     1 2pz  
                                   1 2pz     1 2pz     1 2pz     1 2pz     1 3d0     1 3d2+    1 3d0     1 3d2+    1 3d0     1 3d2+ 
                                   1 3d0     1 3d2+    1 3d0     1 3d2+    1 3d0     1 3d2+    1 3d0     1 3d2+    1 3d0     1 3d2+ 
                                   1 3d0     1 3d2+    1 3d0     1 3d2+    1 3d0     1 3d2+    1 3d0     1 3d2+    1 3d0     1 3d2+ 
                                   1 3d0     1 3d2+    1 3d0     1 3d2+    1 4f0     1 4f2+    1 4f0     1 4f2+    1 4f0     1 4f2+ 
                                   1 4f0     1 4f2+    1 4f0     1 4f2+    1 4f0     1 4f2+    1 5g0     1 5g4+    1 5g2+    1 5g0  
                                   1 5g4+    1 5g2+    1 5g0     1 5g4+    1 5g2+    1 5g0     1 5g4+    1 5g2+    1 5g0     1 5g4+ 
                                   1 5g2+    1 6h2+    1 6h4+    1 6h0     1 6h2+    1 6h4+    1 6h0     1 6h2+    1 6h4+    1 6h0  
                                   1 6h2+    1 6h4+    1 6h0     1 7i6+    1 7i4+    1 7i2+    1 7i0     1 7i6+    1 7i4+    1 7i2+ 
                                   1 7i0     1 7i6+    1 7i4+    1 7i2+    1 7i0     2 1s      2 1s      2 1s      2 1s      2 1s   
                                   2 1s      2 1s      2 1s      2 1s      2 2pz     2 2pz     2 2pz     2 2pz     2 2pz     2 3d0  
                                   2 3d2+    2 3d0     2 3d2+    2 3d0     2 3d2+    2 3d0     2 3d2+    2 4f0     2 4f2+    2 4f0  
                                   2 4f2+    2 4f0     2 4f2+    2 5g0     2 5g4+    2 5g2+    2 5g0     2 5g4+    2 5g2+ 

   1.1   2    -4.8538  -26.5152 -0.000000  0.000000 -0.000000  0.000000 -0.000000  0.000000 -0.000000  0.000001 -0.000002  0.000006
                                -0.000015  0.000041 -0.000105  0.000279 -0.000799  0.002947 -0.017894  0.097905 -0.091233 -0.671330
                                -0.045612  0.424084  0.557031  0.210390  0.012490 -0.004250  0.002165 -0.000961  0.316889  0.071017
                                 0.000025  0.000000 -0.000000  0.000000 -0.000000  0.000000 -0.000000  0.000000 -0.000002  0.000008
                                -0.000061  0.000161  0.001381 -0.000026  0.002213 -0.003341 -0.003749 -0.002355 -0.000001  0.000249
                                -0.000065 -0.000711 -0.004697 -0.000089 -0.000000  0.000000  0.000001 -0.000000 -0.000013  0.000000
                                -0.000093  0.000000 -0.000127  0.000000 -0.001087  0.000000 -0.001803  0.000000 -0.001123  0.000000
                                -0.000255  0.000000 -0.000067 -0.000000  0.000102 -0.000000  0.000042 -0.000000  0.000319  0.000000
                                 0.000344  0.000000 -0.000041  0.000000 -0.000012 -0.000000  0.000003 -0.000000 -0.000044 -0.000000
                                -0.000034 -0.000000  0.000059  0.000000  0.000039  0.000000 -0.000046  0.000153 -0.000000 -0.000010
                                 0.000034 -0.000000 -0.000131  0.000438 -0.000000 -0.000088  0.000477 -0.000000  0.000006  0.000066
                                -0.000000  0.000000 -0.000000  0.000001  0.000000  0.000000 -0.000002 -0.000000 -0.000003  0.000011
                                 0.000000 -0.000006  0.000016 -0.000000  0.000000  0.000000  0.000001 -0.000000  0.000000  0.000000
                                -0.000002  0.000000  0.000000  0.000000  0.000007 -0.000000  0.000001  0.000016  0.000053  0.000089
                                 0.000343 -0.000049 -0.000255  0.000364 -0.000013 -0.000014 -0.000229 -0.000034  0.000046 -0.000002
                                 0.000000  0.000054  0.000000  0.000135  0.000000  0.000028 -0.000000 -0.000000 -0.000000 -0.000057
                                -0.000000 -0.000056  0.000000  0.000007 -0.000000  0.000000  0.000022  0.000000 -0.000000

   2.1   2    -3.1294  -22.8964 -0.000000  0.000000 -0.000000  0.000000 -0.000000  0.000000 -0.000000  0.000000 -0.000000  0.000000
                                -0.000000  0.000000 -0.000000  0.000001 -0.000005  0.000024 -0.000194  0.001169 -0.000905 -0.016733
                                -0.003569 -0.001151  0.010958 -0.001991 -0.004786  0.001493 -0.003246  0.000662  0.013209  0.009080
                                 0.000032 -0.000000  0.000000 -0.000000  0.000002 -0.000006  0.000021 -0.000069  0.000233 -0.000998
                                 0.007443 -0.022421 -0.094084  0.032301  0.164422  0.403388  0.313069  0.115986  0.009096 -0.001796
                                 0.000036  0.016787  0.114849  0.000071 -0.000000  0.000000  0.000001 -0.000000 -0.000041  0.000000
                                -0.000316  0.000000 -0.000469  0.000000  0.000292  0.000000 -0.001528  0.000000 -0.003050  0.000000
                                -0.002446  0.000000 -0.001034  0.000000  0.000218  0.000000 -0.000322  0.000000 -0.000858 -0.000000
                                -0.001456 -0.000000  0.000089 -0.000000 -0.000156 -0.000000 -0.000954 -0.000000 -0.002064 -0.000000
                                -0.001460 -0.000000 -0.000460 -0.000000  0.000081 -0.000000  0.000002  0.000002 -0.000000  0.000034
                                -0.000001 -0.000000 -0.000019  0.000004 -0.000000  0.000091  0.000005 -0.000000 -0.000022 -0.000001
                                -0.000000  0.000000 -0.000024  0.000015  0.000000 -0.000104  0.000044 -0.000000 -0.000032  0.000039
                                -0.000000  0.000044  0.000018 -0.000000  0.000000 -0.000000  0.000002 -0.000000  0.000001  0.000000
                                -0.000008 -0.000000  0.000000  0.000000  0.000021 -0.000000  0.000006  0.000117  0.000380  0.000894
                                 0.002779  0.000961  0.002941 -0.000288 -0.000054 -0.000124 -0.001227 -0.000849 -0.001037  0.000003
                                 0.000000  0.000217  0.000000  0.000445  0.000000  0.000327  0.000000 -0.000031  0.000000 -0.000108
                                -0.000000 -0.000099 -0.000000  0.000031 -0.000000  0.000000  0.000015  0.000001  0.000000

   3.1   2    -0.5021  -16.3577  0.000000 -0.000000 -0.000000  0.000000 -0.000000  0.000000 -0.000000  0.000000 -0.000000  0.000000
                                -0.000000  0.000000 -0.000000  0.000000 -0.000000  0.000000 -0.000000  0.000000 -0.000000 -0.000000
                                -0.000000  0.000000  0.000000  0.000000 -0.000000 -0.000000 -0.000000 -0.000000  0.000000  0.000000
                                 0.000000 -0.000000  0.000000 -0.000000  0.000000 -0.000000  0.000000 -0.000000  0.000000 -0.000000
                                 0.000000 -0.000000 -0.000000  0.000000  0.000000  0.000000  0.000000 -0.000000 -0.000000 -0.000000
                                -0.000000  0.000000 -0.000000  0.000000  0.000000  0.000026 -0.000000 -0.000221  0.000000  0.005575
                                 0.000000  0.041046  0.000000  0.074977  0.000000  0.110759  0.000000  0.252533  0.000000  0.295918
                                 0.000000  0.258619  0.000000  0.180604  0.000000  0.075387  0.000000  0.008811  0.000000  0.045319
                                 0.000000  0.043763 -0.000000 -0.000336 -0.000000 -0.000073 -0.000000 -0.000346 -0.000000 -0.000619
                                -0.000000 -0.002210 -0.000000 -0.005931 -0.000000 -0.003616 -0.000000  0.000000 -0.000175 -0.000000
                                -0.000000 -0.000333 -0.000000  0.000000 -0.000787 -0.000000 -0.000000 -0.000895 -0.000000  0.000000
                                -0.000568  0.000006 -0.000000 -0.000000  0.000012 -0.000000  0.000000 -0.000016  0.000000 -0.000000
                                -0.000002  0.000000 -0.000000 -0.000105 -0.000000  0.000014  0.000000 -0.000155  0.000000  0.000012
                                 0.000000 -0.000315 -0.000000  0.000042 -0.000000  0.000000 -0.000000 -0.000000 -0.000000 -0.000000
                                -0.000000 -0.000000 -0.000000 -0.000000  0.000000  0.000000  0.000000  0.000000 -0.000000  0.000000
                                 0.000009 -0.000000  0.000111  0.000000  0.000451  0.000000  0.000191  0.000000  0.000003  0.000000
                                -0.000220 -0.000000 -0.000013 -0.000000 -0.000000  0.000025  0.000000  0.000000  0.000086

   4.1   2    -0.4437  -14.3028 -0.000000  0.000000 -0.000000  0.000000 -0.000000  0.000000 -0.000000  0.000000 -0.000000  0.000000
                                -0.000001  0.000002 -0.000004  0.000010 -0.000026  0.000077 -0.000338  0.001657 -0.002531  0.017320
                                 0.010104  0.034294  0.004349  0.014312  0.012047  0.000027  0.001295  0.000158 -0.025736 -0.030136
                                 0.002862  0.000000 -0.000000  0.000000 -0.000000  0.000000 -0.000000  0.000000 -0.000000 -0.000008
[...]
                                 0.000001  0.000002 -0.000034  0.000004  0.000023  0.000009 -0.000139  0.000009  0.000175 -0.000013
                                 0.000002  0.000001  0.000007 -0.000013  0.000002  0.000011  0.000036 -0.000000  0.000003 -0.000087
                                -0.000017 -0.000109 -0.000002 -0.000000 -0.000000 -0.000004 -0.000001  0.000003 -0.000004 -0.000001
                                -0.000004  0.000296 -0.000811  0.004525 -0.005480  0.032461 -0.000118  0.000458 -0.001619  0.002014
                                 0.000012 -0.000000 -0.000042  0.000002  0.001571 -0.000011  0.000024 -0.000000 -0.000390  0.000003

   4.3   0     0.0732   -2.2868  0.000000 -0.000000  0.000001 -0.000003  0.000011 -0.000036  0.000111 -0.000324  0.000949 -0.002928
                                 0.012875 -0.498265 -0.119023 -2.750001  0.120986 -0.061419  0.071341 -0.140539  0.389765 -1.034125
                                 0.535123  2.764041  0.886620  0.000001 -0.000007 -0.000151 -0.002260  0.001661  0.067167  0.017955
                                -0.030678  0.012693 -0.053891  0.172667 -0.144931 -0.035121 -0.065225  0.976328  0.000070  0.000003
                                -0.000286  0.000018  0.000777  0.000053 -0.001753 -0.000023  0.007697 -0.000169  0.049474 -0.000243
                                 0.000102 -0.000004 -0.000291 -0.000011  0.000776 -0.000022 -0.002252 -0.000023  0.013213  0.000038
                                -0.000045 -0.000001 -0.000008  0.000161 -0.000002 -0.000012 -0.000525  0.000000 -0.000002  0.001707
                                 0.000019  0.000121  0.000005  0.000001  0.000005  0.000009  0.000002 -0.000026  0.000010  0.000002
                                 0.000050 -0.000172  0.000643 -0.000023 -0.011310 -0.234750  0.000453 -0.001815  0.004304  0.087679
                                -0.000660  0.000001  0.003451 -0.000003 -0.031341  0.000014 -0.000161  0.000000  0.002538 -0.000002

   5.3   0     0.0794   -3.1034 -0.000000  0.000000 -0.000001  0.000003 -0.000013  0.000044 -0.000135  0.000392 -0.001137  0.003373
                                -0.015132  0.617261  0.145824  3.410429 -0.165502  0.068267 -0.101536  0.217083 -0.181358  1.539827
                                -0.660344 -3.436302 -0.925338  0.000002 -0.000016  0.000117 -0.000202  0.004985  0.067175  0.028169
                                -0.014849  0.023409 -0.038991  0.121772 -0.243097 -0.030377 -0.058253  0.728894  0.000044 -0.000006
                                -0.000118 -0.000039  0.000568 -0.000112 -0.001473  0.000053  0.002888  0.000358  0.020153  0.000525
                                 0.000020  0.000001 -0.000086  0.000001  0.000182  0.000004 -0.000707  0.000002  0.005985 -0.000006
                                -0.000033  0.000003  0.000017  0.000102  0.000004  0.000026 -0.000345 -0.000000  0.000004  0.001186
                                -0.000042 -0.000256 -0.000001 -0.000000  0.000005 -0.000002 -0.000000 -0.000018 -0.000001 -0.000000
                                 0.000042 -0.000578  0.004242 -0.007389  0.036104 -0.198247  0.000406 -0.001908  0.003975  0.036280
                                -0.000328 -0.000001  0.001812  0.000003 -0.019220 -0.000019 -0.000176 -0.000001  0.002641  0.000008

                                   1 3d2-    1 3d2-    1 3d2-    1 3d2-    1 3d2-    1 3d2-    1 3d2-    1 3d2-    1 3d2-    1 3d2- 
                                   1 3d2-    1 3d2-    1 3d2-    1 3d2-    1 3d2-    1 4f2-    1 4f2-    1 4f2-    1 4f2-    1 4f2- 
                                   1 4f2-    1 5g2-    1 5g4-    1 5g2-    1 5g4-    1 5g2-    1 5g4-    1 5g2-    1 5g4-    1 5g2- 
                                   1 5g4-    1 6h4-    1 6h2-    1 6h4-    1 6h2-    1 6h4-    1 6h2-    1 6h4-    1 6h2-    1 7i2- 
                                   1 7i6-    1 7i4-    1 7i2-    1 7i6-    1 7i4-    1 7i2-    1 7i6-    1 7i4-    2 3d2-    2 3d2- 
                                   2 3d2-    2 3d2-    2 4f2-    2 4f2-    2 4f2-    2 5g2-    2 5g4-    2 5g2-    2 5g4- 

   1.4   +    -0.5662  -16.4944  0.000027 -0.000223  0.005626  0.041416  0.075633  0.112197  0.255957  0.299623  0.259252  0.174037
                                 0.064323  0.005480  0.045616  0.044003 -0.000151 -0.000075 -0.000329 -0.000610 -0.001788 -0.005092
                                -0.002993 -0.000319  0.000000 -0.000677  0.000000 -0.001695 -0.000000 -0.001930 -0.000000 -0.001056
                                -0.000000 -0.000000  0.000002 -0.000000  0.000009  0.000000 -0.000002  0.000000 -0.000035  0.000033
                                -0.000212 -0.000000  0.000050 -0.000317 -0.000000  0.000096 -0.000615 -0.000000  0.000005  0.000013
                                 0.000176  0.000077  0.000007 -0.000078  0.000020  0.000004 -0.000000  0.000024  0.000000

   2.4   0     0.0718   -2.0938  0.000003 -0.000021 -0.000007 -0.002036  0.006277  0.121135  0.042619 -0.039917  0.034465 -0.077282
                                 0.155589 -0.384680 -0.058607 -0.110828  1.211823  0.000032 -0.000117  0.000353 -0.000790  0.002534
                                -0.009407  0.000011 -0.000000  0.000012  0.000000  0.000060 -0.000000 -0.000018  0.000000  0.000187
                                -0.000000  0.000000 -0.000003  0.000000  0.000010 -0.000000 -0.000031  0.000000  0.000092 -0.000001
                                 0.000005 -0.000000 -0.000003  0.000011  0.000000  0.000001  0.000009  0.000000  0.000218 -0.000845
                                 0.002361 -0.004664 -0.000076  0.000348 -0.000365  0.000043  0.000000 -0.000564 -0.000000

   3.4   0     0.2299   -3.1673 -0.000013  0.000107 -0.001135 -0.002626 -0.033643 -0.372723 -0.175751  0.055721 -0.153303  0.207580
                                -0.479534  1.733841  0.159660  0.311151 -0.887800  0.000088 -0.000332  0.000967 -0.002355  0.007484
                                -0.042472  0.000037 -0.000000  0.000087  0.000000  0.000168 -0.000000  0.000205  0.000000 -0.001055
                                -0.000000  0.000000  0.000020  0.000000 -0.000068 -0.000000  0.000217  0.000000 -0.000564 -0.000006
                                 0.000022  0.000000  0.000002  0.000048  0.000000 -0.000024  0.000028  0.000000  0.001250 -0.005205
                                 0.015642 -0.047470  0.000059 -0.000292 -0.004935 -0.000186  0.000000  0.002543 -0.000000

   4.4   0     0.5379   -3.4157 -0.000003  0.000025 -0.000077  0.001494 -0.007676 -0.128413 -0.048940  0.038099 -0.042901  0.087979
                                -0.196411  0.003752  0.060489  0.115551 -0.040851 -0.001121  0.005385 -0.012844  0.037944 -0.099009
                                 0.693104 -0.000157  0.000000  0.000539 -0.000000 -0.001210  0.000000  0.003285 -0.000000 -0.010126
                                 0.000000  0.000000 -0.000102 -0.000000  0.000339  0.000000 -0.001144 -0.000000  0.002849  0.000015
                                -0.000002  0.000000 -0.000051 -0.000007 -0.000000  0.000111  0.000000  0.000000 -0.013591  0.060872
                                -0.164820  0.613004  0.002304 -0.011805  0.078741  0.000394  0.000000 -0.005511 -0.000000

 HOMO      5.1    -0.305547 =      -8.3144eV
 LUMO      6.1    -0.011551 =      -0.3143eV
 LUMO-HOMO         0.293997 =       8.0001eV


 **********************************************************************************************************************************
 DATASETS  * FILE   NREC   LENGTH (MB)   RECORD NAMES
              1      19       21.39       500      610      700      900      950      970     1000      129      960     1100   
                                          VAR    BASINP    GEOM    SYMINP    ZMAT    AOBASIS   BASIS     P2S    ABASIS      S 
                                         1400     1410     1420     1200     1210     1080     1600     1650     1700   
                                           T        V       ECP      H0       H01     AOSYM     SMH    MOLCAS    OPER   

              2       4        4.31       700     1000      520     2100   
                                         GEOM     BASIS   MCVARS     RHF  

 PROGRAMS   *        TOTAL       RHF       INT  RCCSD(T)       RHF       INT  RCCSD(T)       RHF       INT  RCCSD(T)       RHF
 CPU TIMES  *     12492.77     21.38    188.28   1149.55     21.13    195.32   1193.60     23.61    199.83   1207.58     23.94
 REAL TIME  *     19913.54 SEC
 DISK USED  *        10.67 GB      
 SF USED    *         5.09 GB      
 GA USED    *         0.00 MB       (max)       0.00 MB       (current)
 **********************************************************************************************************************************
 SETTING SCF(20)        =      -168.94437738  AU                              
 SETTING _CC_NORM_MAX   =         2.00000000                                  


 PROGRAM * CCSD (Restricted open-shell coupled cluster)     Authors: C. Hampel, H.-J. Werner, 1991, M. Deegan, P.J. Knowles, 1992


 Convergence thresholds:  THRVAR = 1.00D-08  THRDEN = 1.00D-06

 CCSD(T)     terms to be evaluated (factor= 1.000)


 Number of closed-shell orbitals:   9 (   5   2   2   0 )
 Number of active  orbitals:        1 (   0   0   0   1 )
 Number of external orbitals:     418 ( 164  98  98  58 )

 Memory could be reduced to 332.99 Mwords without degradation in triples

 Number of N-1 electron functions:              19
 Number of N-2 electron functions:             171
 Number of singly external CSFs:              2483
 Number of doubly external CSFs:           5862945
 Total number of CSFs:                     5865428

 Molecular orbitals read from record     2100.2  Type=RHF/CANONICAL (state 1.4)

 Integral transformation finished. Total CPU:  16.93 sec, npass=  1  Memory used:  29.32 MW

 Starting RMP2 calculation

 Wavefunction is spin-projected

 ITER.      SQ.NORM     CORR.ENERGY   TOTAL ENERGY   ENERGY CHANGE        DEN1      VAR(S)    VAR(P)  DIIS     TIME
   1      1.14283816    -1.02094459  -169.96532196    -1.02094459    -0.00132815  0.11D-05  0.67D-03  1  1    17.89
   2      1.14446518    -1.02234666  -169.96672404    -0.00140207    -0.00000871  0.28D-07  0.81D-05  2  2    18.62
   3      1.14463282    -1.02242344  -169.96680082    -0.00007678    -0.00000007  0.16D-08  0.70D-07  3  3    19.41
   4      1.14464188    -1.02242530  -169.96680268    -0.00000186    -0.00000000  0.12D-09  0.56D-09  4  4    20.30
   5      1.14464214    -1.02242531  -169.96680269    -0.00000001    -0.00000000  0.29D-11  0.99D-11  5  5    21.29

 Norm of t1 vector:      0.01902594      S-energy:    -0.00281729      T1 diagnostic:  0.00003792
 Norm of t2 vector:      0.37984227      P-energy:    -1.01960802
                                         Alpha-Beta:  -0.72123362
                                         Alpha-Alpha: -0.16876780
                                         Beta-Beta:   -0.12960660

 Spin contamination <S**2-Sz**2-Sz>     0.00000000
  Reference energy                   -168.944377375552
  RHF-RMP2 correlation energy          -1.022425310417
 !RHF-RMP2 energy                    -169.966802685969
 (NB above energy spin projected)

 Starting RCCSD calculation

 ITER.      SQ.NORM     CORR.ENERGY   TOTAL ENERGY   ENERGY CHANGE        DEN1      VAR(S)    VAR(P)  DIIS     TIME
   1      1.11641838    -0.89511115  -169.83948853    -0.89511115    -0.05934537  0.12D-01  0.11D-01  0  0    39.52
   2      1.14142907    -0.94786704  -169.89224441    -0.05275588    -0.01234121  0.27D-02  0.36D-02  1  1    58.81
   3      1.14612317    -0.93640754  -169.88078492     0.01145950    -0.00132069  0.11D-02  0.40D-03  2  2    76.61
   4      1.15462046    -0.93789221  -169.88226959    -0.00148467    -0.00062039  0.59D-03  0.20D-03  3  3    94.39
   5      1.17545320    -0.94112962  -169.88550700    -0.00323741    -0.00018859  0.24D-03  0.40D-04  4  4   112.85
   6      1.18596465    -0.94186189  -169.88623927    -0.00073227    -0.00009338  0.10D-03  0.20D-04  5  5   131.57
   7      1.19826324    -0.94232523  -169.88670260    -0.00046333    -0.00004595  0.54D-04  0.66D-05  6  6   149.70
   8      1.20594506    -0.94248380  -169.88686118    -0.00015857    -0.00002903  0.32D-04  0.42D-05  6  1   168.68
   9      1.21544777    -0.94268157  -169.88705894    -0.00019776    -0.00001604  0.16D-04  0.34D-05  6  2   187.21
  10      1.22367698    -0.94276863  -169.88714601    -0.00008707    -0.00000660  0.62D-05  0.18D-05  6  3   206.00
  11      1.22676553    -0.94279833  -169.88717570    -0.00002970    -0.00000326  0.30D-05  0.10D-05  6  2   224.32
  12      1.22853542    -0.94280931  -169.88718669    -0.00001098    -0.00000068  0.61D-06  0.20D-06  6  4   242.36
  13      1.22899319    -0.94280397  -169.88718134     0.00000534    -0.00000032  0.27D-06  0.97D-07  6  2   261.36
  14      1.22898707    -0.94278738  -169.88716476     0.00001659    -0.00000013  0.11D-06  0.34D-07  6  5   280.11
  15      1.22900863    -0.94278209  -169.88715946     0.00000529    -0.00000005  0.42D-07  0.14D-07  6  1   297.83
  16      1.22891948    -0.94277831  -169.88715568     0.00000378    -0.00000004  0.28D-07  0.96D-08  6  6   316.87
  17      1.22888491    -0.94277546  -169.88715283     0.00000285    -0.00000003  0.20D-07  0.66D-08  6  2   334.42
  18      1.22899902    -0.94277458  -169.88715196     0.00000087    -0.00000002  0.14D-07  0.38D-08  6  3   353.18
  19      1.22898885    -0.94277415  -169.88715153     0.00000043    -0.00000001  0.12D-07  0.32D-08  6  5   371.84
  20      1.22899221    -0.94277390  -169.88715128     0.00000025    -0.00000001  0.11D-07  0.29D-08  6  1   390.14
  21      1.22894167    -0.94277395  -169.88715133    -0.00000005    -0.00000001  0.11D-07  0.25D-08  6  4   408.90
  22      1.22894380    -0.94277359  -169.88715096     0.00000036    -0.00000001  0.10D-07  0.21D-08  6  5   426.57
  23      1.22894080    -0.94277315  -169.88715052     0.00000044    -0.00000001  0.89D-08  0.18D-08  6  6   445.35
  24      1.22893770    -0.94277301  -169.88715039     0.00000014    -0.00000001  0.84D-08  0.17D-08  6  1   464.17
  25      1.22893767    -0.94277271  -169.88715009     0.00000030    -0.00000001  0.73D-08  0.14D-08  6  5   482.31

 Norm of t1 vector:      0.28079964      S-energy:    -0.00304176      T1 diagnostic:  0.04526668
                                                                       D1 diagnostic:  0.18579471
 Norm of t2 vector:      0.38741351      P-energy:    -0.93973095
                                         Alpha-Beta:  -0.69188097
                                         Alpha-Alpha: -0.13903321
                                         Beta-Beta:   -0.10881677

 Singles amplitudes (print threshold =  0.500E-01):

         I         SYM. A    A   T(IA) [Alpha-Alpha]

         4         1         1     -0.06870934
         5         1         1     -0.11154071
         5         1         2     -0.07250757
         5         1         7      0.06713395
 
         I         SYM. A    A   T(IA) [Beta-Beta]

         4         1         1     -0.08489613
         5         1         1     -0.10700424
         5         1         2     -0.06889950
         5         1         7      0.06211326

 Doubles amplitudes (print threshold =  0.500E-01):

         I         J         SYM. A    SYM. B    A         B      T(IJ, AB) [Alpha-Beta]

         5         5         1         1         1         1     -0.06240266

 Spin contamination <S**2-Sz**2-Sz>     0.00000000

 Memory could be reduced to 332.37 Mwords without degradation in triples
 

  Correlated core orbitals:             1.1       2.1       1.2       1.3
  Orbital energies:                    -4.9071   -3.1453   -3.2246   -3.2246
 
  RCCSD core-core energy               -0.139661356243
  RCCSD core-valence energy            -0.366483488815
  RCCSD valence correlation energy     -0.436627869555
 

 RESULTS
 =======

  Reference energy                   -168.944377375552
  RCCSD singles energy                 -0.003041760033
  RCCSD pair energy                    -0.939730954581
  RCCSD correlation energy             -0.942772714614
  Triples (T) contribution             -0.036359712300
  Total correlation energy             -0.979132426914
 
  RHF-RCCSD energy                   -169.887150090166
  RHF-RCCSD[T] energy                -169.931106991107
  RHF-RCCSD-T energy                 -169.923186409117
 !RHF-RCCSD(T) energy                -169.923509802466

 Program statistics:

 Available memory in ccsd:               511999000
 Min. memory needed in ccsd:              17182553
 Max. memory used in ccsd:                24375640
 Max. memory used in cckext:              20381348 (25 integral passes)
 Max. memory used in cckint:              29321671 ( 1 integral passes)



 **********************************************************************************************************************************
 DATASETS  * FILE   NREC   LENGTH (MB)   RECORD NAMES
              1      19       21.39       500      610      700      900      950      970     1000      129      960     1100   
                                          VAR    BASINP    GEOM    SYMINP    ZMAT    AOBASIS   BASIS     P2S    ABASIS      S 
                                         1400     1410     1420     1200     1210     1080     1600     1650     1700   
                                           T        V       ECP      H0       H01     AOSYM     SMH    MOLCAS    OPER   

              2       4        4.31       700     1000      520     2100   
                                         GEOM     BASIS   MCVARS     RHF  

 PROGRAMS   *        TOTAL  RCCSD(T)       RHF       INT  RCCSD(T)       RHF       INT  RCCSD(T)       RHF       INT  RCCSD(T)
 CPU TIMES  *     13633.01   1140.23     21.38    188.28   1149.55     21.13    195.32   1193.60     23.61    199.83   1207.58
 REAL TIME  *     21663.75 SEC
 DISK USED  *        10.67 GB      
 SF USED    *         5.09 GB      
 GA USED    *         0.00 MB       (max)       0.00 MB       (current)
 **********************************************************************************************************************************
 SETTING CCSD(20)       =      -169.92350980  AU                              
                                                                                                                                                                                                                                                                

      Z          SCF            CCSD
    0.000      0.0000000      0.0000000
    0.000      0.0000000      0.0000000
    0.000      0.0000000      0.0000000
    0.000      0.0000000      0.0000000
    0.000      0.0000000      0.0000000
    0.000      0.0000000      0.0000000
    0.000      0.0000000      0.0000000
    0.000      0.0000000      0.0000000
    0.000      0.0000000      0.0000000
    0.000      0.0000000      0.0000000
    1.625   -168.9729285   -169.9615854
    1.675   -168.9710411   -169.9581432
    1.725   -168.9686451   -169.9542942
    1.775   -168.9658435   -169.9501559
    1.825   -168.9627211   -169.9458246
    1.875   -168.9593481   -169.9413743
    1.925   -168.9557829   -169.9368655
    1.975   -168.9520738   -169.9323567
    2.025   -168.9482608   -169.9278926
    2.075   -168.9443774   -169.9235098
                                                  

 RCCSD(T)/USERDEF energy=   -169.923509802466

        RCCSD(T)        RHF-SCF         RCCSD(T)        RHF-SCF         RCCSD(T)        RHF-SCF         RCCSD(T)        RHF-SCF 
   -169.92350980   -168.94437738   -169.92789264   -168.94826084   -169.93235674   -168.95207380   -169.93686553   -168.95578293
 **********************************************************************************************************************************
 Variable memory released
