 Entering Gaussian System, Link 0=g16
 Initial command:
 /home1/apps/gaussian/16rA.03/g16/l1.exe "/tmp/Gau-48920.inp" -scrdir="/tmp/"
 Entering Link 1 = /home1/apps/gaussian/16rA.03/g16/l1.exe PID=     48921.
  
 Copyright (c) 1988,1990,1992,1993,1995,1998,2003,2009,2016,
            Gaussian, Inc.  All Rights Reserved.
  
 This is part of the Gaussian(R) 16 program.  It is based on
 the Gaussian(R) 09 system (copyright 2009, Gaussian, Inc.),
 the Gaussian(R) 03 system (copyright 2003, Gaussian, Inc.),
 the Gaussian(R) 98 system (copyright 1998, Gaussian, Inc.),
 the Gaussian(R) 94 system (copyright 1995, Gaussian, Inc.),
 the Gaussian 92(TM) system (copyright 1992, Gaussian, Inc.),
 the Gaussian 90(TM) system (copyright 1990, Gaussian, Inc.),
 the Gaussian 88(TM) system (copyright 1988, Gaussian, Inc.),
 the Gaussian 86(TM) system (copyright 1986, Carnegie Mellon
 University), and the Gaussian 82(TM) system (copyright 1983,
 Carnegie Mellon University). Gaussian is a federally registered
 trademark of Gaussian, Inc.
  
 This software contains proprietary and confidential information,
 including trade secrets, belonging to Gaussian, Inc.
  
 This software is provided under written license and may be
 used, copied, transmitted, or stored only in accord with that
 written license.
  
 The following legend is applicable only to US Government
 contracts under FAR:
  
                    RESTRICTED RIGHTS LEGEND
  
 Use, reproduction and disclosure by the US Government is
 subject to restrictions as set forth in subparagraphs (a)
 and (c) of the Commercial Computer Software - Restricted
 Rights clause in FAR 52.227-19.
  
 Gaussian, Inc.
 340 Quinnipiac St., Bldg. 40, Wallingford CT 06492
  
  
 ---------------------------------------------------------------
 Warning -- This program may not be used in any manner that
 competes with the business of Gaussian, Inc. or will provide
 assistance to any competitor of Gaussian, Inc.  The licensee
 of this program is prohibited from giving any competitor of
 Gaussian, Inc. access to this program.  By using this program,
 the user acknowledges that Gaussian, Inc. is engaged in the
 business of creating and licensing software in the field of
 computational chemistry and represents and warrants to the
 licensee that it is not a competitor of Gaussian, Inc. and that
 it will not use this program in any manner prohibited above.
 ---------------------------------------------------------------
  

 Cite this work as:
 Gaussian 16, Revision A.03,
 M. J. Frisch, G. W. Trucks, H. B. Schlegel, G. E. Scuseria, 
 M. A. Robb, J. R. Cheeseman, G. Scalmani, V. Barone, 
 G. A. Petersson, H. Nakatsuji, X. Li, M. Caricato, A. V. Marenich, 
 J. Bloino, B. G. Janesko, R. Gomperts, B. Mennucci, H. P. Hratchian, 
 J. V. Ortiz, A. F. Izmaylov, J. L. Sonnenberg, D. Williams-Young, 
 F. Ding, F. Lipparini, F. Egidi, J. Goings, B. Peng, A. Petrone, 
 T. Henderson, D. Ranasinghe, V. G. Zakrzewski, J. Gao, N. Rega, 
 G. Zheng, W. Liang, M. Hada, M. Ehara, K. Toyota, R. Fukuda, 
 J. Hasegawa, M. Ishida, T. Nakajima, Y. Honda, O. Kitao, H. Nakai, 
 T. Vreven, K. Throssell, J. A. Montgomery, Jr., J. E. Peralta, 
 F. Ogliaro, M. J. Bearpark, J. J. Heyd, E. N. Brothers, K. N. Kudin, 
 V. N. Staroverov, T. A. Keith, R. Kobayashi, J. Normand, 
 K. Raghavachari, A. P. Rendell, J. C. Burant, S. S. Iyengar, 
 J. Tomasi, M. Cossi, J. M. Millam, M. Klene, C. Adamo, R. Cammi, 
 J. W. Ochterski, R. L. Martin, K. Morokuma, O. Farkas, 
 J. B. Foresman, and D. J. Fox, Gaussian, Inc., Wallingford CT, 2016.
 
 ******************************************
 Gaussian 16:  ES64L-G16RevA.03 25-Dec-2016
                25-Feb-2018 
 ******************************************
 %MEM=64GB
 %CPU=0-15
 SetSPE:  set environment variable "MP_BIND" = "yes"
 SetSPE:  set environment variable "MP_BLIST" = "0,1,2,3,4,5,6,7,8,9,10,11,12,13,14,15"
 Will use up to   16 processors via shared memory.
 %RWF=/scratch/04843/aannabe/gaussian/
 %Int=/scratch/04843/aannabe/gaussian/
 %D2E=/scratch/04843/aannabe/gaussian/
 %NoSave
 %CHK=CrH
 ----------------------------------------------------------------------
 #P ROCCSD(T)=(maxcyc=150, Full, SaveAmplitudes, ReadAmplitudes)/Gen 5d
  7f SCF=(maxcycles=300) Integral(NoXCTest) MaxDisk=500GB Pop=Regular P
 seudo=Read Guess=Read IOp(5/15=2)
 ----------------------------------------------------------------------
 1/38=1,172=1/1;
 2/12=2,17=6,18=5,40=1/2;
 3/5=7,8=11,11=2,16=1,17=8,25=1,30=1,47=8,116=101/1,2,3;
 4/5=1/1;
 5/5=2,7=300,15=2,38=6/2;
 8/5=-1,6=4,9=120000,10=90,24=1/1,4;
 9/5=7,6=150,14=2,77=1/13;
 6//1;
 99/5=1,9=1/99;
 Leave Link    1 at Sun Feb 25 23:03:52 2018, MaxMem=  8589934592 cpu:               4.5 elap:               0.3
 (Enter /home1/apps/gaussian/16rA.03/g16/l101.exe)
 ---
 CrH
 ---
 Symbolic Z-matrix:
 Charge =  0 Multiplicity = 6
 Cr                    0.        0.        0. 
 H                     0.        0.        1.3 
 
 ITRead=  0  0
 MicOpt= -1 -1
 NAtoms=      2 NQM=        2 NQMF=       0 NMMI=      0 NMMIF=      0
                NMic=       0 NMicF=      0.
                    Isotopes and Nuclear Properties:
 (Nuclear quadrupole moments (NQMom) in fm**2, nuclear magnetic moments (NMagM)
  in nuclear magnetons)

  Atom         1           2
 IAtWgt=          52           1
 AtmWgt=  51.9405097   1.0078250
 NucSpn=           0           1
 AtZEff=  -0.0000000  -0.0000000
 NQMom=    0.0000000   0.0000000
 NMagM=    0.0000000   2.7928460
 AtZNuc=  24.0000000   1.0000000
 Leave Link  101 at Sun Feb 25 23:03:52 2018, MaxMem=  8589934592 cpu:               1.5 elap:               0.1
 (Enter /home1/apps/gaussian/16rA.03/g16/l202.exe)
                          Input orientation:                          
 ---------------------------------------------------------------------
 Center     Atomic      Atomic             Coordinates (Angstroms)
 Number     Number       Type             X           Y           Z
 ---------------------------------------------------------------------
      1         24           0        0.000000    0.000000    0.000000
      2          1           0        0.000000    0.000000    1.300000
 ---------------------------------------------------------------------
 Stoichiometry    CrH(6)
 Framework group  C*V[C*(HCr)]
 Deg. of freedom     1
 Full point group                 C*V     NOp   4
 Largest Abelian subgroup         C2V     NOp   4
 Largest concise Abelian subgroup C1      NOp   1
                         Standard orientation:                         
 ---------------------------------------------------------------------
 Center     Atomic      Atomic             Coordinates (Angstroms)
 Number     Number       Type             X           Y           Z
 ---------------------------------------------------------------------
      1         24           0        0.000000    0.000000    0.052000
      2          1           0        0.000000    0.000000   -1.248000
 ---------------------------------------------------------------------
 Rotational constants (GHZ):           0.0000000         302.4763687         302.4763687
 Leave Link  202 at Sun Feb 25 23:03:53 2018, MaxMem=  8589934592 cpu:               0.4 elap:               0.1
 (Enter /home1/apps/gaussian/16rA.03/g16/l301.exe)
 General basis read from cards:  (5D, 7F)
 Centers:       1
 S 1 1.00
     Exponent=  6.1771940000D+06 Coefficients=  1.0000000000D+00
 S 1 1.00
     Exponent=  9.2492950000D+05 Coefficients=  1.0000000000D+00
 S 1 1.00
     Exponent=  2.1048650000D+05 Coefficients=  1.0000000000D+00
 S 1 1.00
     Exponent=  5.9620050000D+04 Coefficients=  1.0000000000D+00
 S 1 1.00
     Exponent=  1.9450760000D+04 Coefficients=  1.0000000000D+00
 S 1 1.00
     Exponent=  7.0220560000D+03 Coefficients=  1.0000000000D+00
 S 1 1.00
     Exponent=  2.7387630000D+03 Coefficients=  1.0000000000D+00
 S 1 1.00
     Exponent=  1.1358140000D+03 Coefficients=  1.0000000000D+00
 S 1 1.00
     Exponent=  4.9509230000D+02 Coefficients=  1.0000000000D+00
 S 1 1.00
     Exponent=  2.2474870000D+02 Coefficients=  1.0000000000D+00
 S 1 1.00
     Exponent=  1.0538360000D+02 Coefficients=  1.0000000000D+00
 S 1 1.00
     Exponent=  5.0193590000D+01 Coefficients=  1.0000000000D+00
 S 1 1.00
     Exponent=  2.2249570000D+01 Coefficients=  1.0000000000D+00
 S 1 1.00
     Exponent=  1.0982650000D+01 Coefficients=  1.0000000000D+00
 S 1 1.00
     Exponent=  5.3836650000D+00 Coefficients=  1.0000000000D+00
 S 1 1.00
     Exponent=  2.3436850000D+00 Coefficients=  1.0000000000D+00
 S 1 1.00
     Exponent=  1.1052020000D+00 Coefficients=  1.0000000000D+00
 S 1 1.00
     Exponent=  4.8784800000D-01 Coefficients=  1.0000000000D+00
 S 1 1.00
     Exponent=  8.9599000000D-02 Coefficients=  1.0000000000D+00
 S 1 1.00
     Exponent=  3.3423000000D-02 Coefficients=  1.0000000000D+00
 S 1 1.00
     Exponent=  4.8281000000D+00 Coefficients=  1.0000000000D+00
 S 1 1.00
     Exponent=  1.1499000000D+00 Coefficients=  1.0000000000D+00
 S 1 1.00
     Exponent=  1.2470000000D-02 Coefficients=  1.0000000000D+00
 P 1 1.00
     Exponent=  1.4454200000D+04 Coefficients=  1.0000000000D+00
 P 1 1.00
     Exponent=  3.4216760000D+03 Coefficients=  1.0000000000D+00
 P 1 1.00
     Exponent=  1.1113870000D+03 Coefficients=  1.0000000000D+00
 P 1 1.00
     Exponent=  4.2519180000D+02 Coefficients=  1.0000000000D+00
 P 1 1.00
     Exponent=  1.8026230000D+02 Coefficients=  1.0000000000D+00
 P 1 1.00
     Exponent=  8.2061170000D+01 Coefficients=  1.0000000000D+00
 P 1 1.00
     Exponent=  3.9297260000D+01 Coefficients=  1.0000000000D+00
 P 1 1.00
     Exponent=  1.9419590000D+01 Coefficients=  1.0000000000D+00
 P 1 1.00
     Exponent=  9.8288990000D+00 Coefficients=  1.0000000000D+00
 P 1 1.00
     Exponent=  5.0168100000D+00 Coefficients=  1.0000000000D+00
 P 1 1.00
     Exponent=  2.4870910000D+00 Coefficients=  1.0000000000D+00
 P 1 1.00
     Exponent=  1.1987800000D+00 Coefficients=  1.0000000000D+00
 P 1 1.00
     Exponent=  5.5869500000D-01 Coefficients=  1.0000000000D+00
 P 1 1.00
     Exponent=  2.0936600000D-01 Coefficients=  1.0000000000D+00
 P 1 1.00
     Exponent=  8.4722000000D-02 Coefficients=  1.0000000000D+00
 P 1 1.00
     Exponent=  3.3278000000D-02 Coefficients=  1.0000000000D+00
 P 1 1.00
     Exponent=  5.2718000000D+00 Coefficients=  1.0000000000D+00
 P 1 1.00
     Exponent=  1.2083000000D+00 Coefficients=  1.0000000000D+00
 P 1 1.00
     Exponent=  1.3070000000D-02 Coefficients=  1.0000000000D+00
 D 1 1.00
     Exponent=  8.9474500000D+01 Coefficients=  1.0000000000D+00
 D 1 1.00
     Exponent=  2.6336800000D+01 Coefficients=  1.0000000000D+00
 D 1 1.00
     Exponent=  9.5342900000D+00 Coefficients=  1.0000000000D+00
 D 1 1.00
     Exponent=  3.8211800000D+00 Coefficients=  1.0000000000D+00
 D 1 1.00
     Exponent=  1.5716900000D+00 Coefficients=  1.0000000000D+00
 D 1 1.00
     Exponent=  6.2642200000D-01 Coefficients=  1.0000000000D+00
 D 1 1.00
     Exponent=  2.3305500000D-01 Coefficients=  1.0000000000D+00
 D 1 1.00
     Exponent=  7.6303000000D-02 Coefficients=  1.0000000000D+00
 D 1 1.00
     Exponent=  3.4093000000D+00 Coefficients=  1.0000000000D+00
 D 1 1.00
     Exponent=  1.5874000000D+00 Coefficients=  1.0000000000D+00
 D 1 1.00
     Exponent=  2.4980000000D-02 Coefficients=  1.0000000000D+00
 F 1 1.00
     Exponent=  4.3629000000D+00 Coefficients=  1.0000000000D+00
 F 1 1.00
     Exponent=  1.5864000000D+00 Coefficients=  1.0000000000D+00
 F 1 1.00
     Exponent=  5.2310000000D-01 Coefficients=  1.0000000000D+00
 F 1 1.00
     Exponent=  1.7249000000D-01 Coefficients=  1.0000000000D+00
 G 1 1.00
     Exponent=  4.0406000000D+00 Coefficients=  1.0000000000D+00
 G 1 1.00
     Exponent=  1.4199000000D+00 Coefficients=  1.0000000000D+00
 G 1 1.00
     Exponent=  4.9896000000D-01 Coefficients=  1.0000000000D+00
 ****
 Centers:       2
 S 1 1.00
     Exponent=  3.3870000000D+01 Coefficients=  1.0000000000D+00
 S 1 1.00
     Exponent=  5.0950000000D+00 Coefficients=  1.0000000000D+00
 S 1 1.00
     Exponent=  1.1590000000D+00 Coefficients=  1.0000000000D+00
 S 1 1.00
     Exponent=  3.2580000000D-01 Coefficients=  1.0000000000D+00
 S 1 1.00
     Exponent=  1.0270000000D-01 Coefficients=  1.0000000000D+00
 S 1 1.00
     Exponent=  2.5260000000D-02 Coefficients=  1.0000000000D+00
 P 1 1.00
     Exponent=  1.4070000000D+00 Coefficients=  1.0000000000D+00
 P 1 1.00
     Exponent=  3.8800000000D-01 Coefficients=  1.0000000000D+00
 P 1 1.00
     Exponent=  1.0200000000D-01 Coefficients=  1.0000000000D+00
 D 1 1.00
     Exponent=  1.0570000000D+00 Coefficients=  1.0000000000D+00
 D 1 1.00
     Exponent=  2.4700000000D-01 Coefficients=  1.0000000000D+00
 ****
 ======================================================================================================
                                       Pseudopotential Parameters
 ======================================================================================================
  Center     Atomic      Valence      Angular      Power
  Number     Number     Electrons     Momentum     of R      Exponent        Coefficient   SO-Coeffient
 ======================================================================================================
    1         24           14
                                      D and up 
                                                     1        2.9433766       14.00000000    0.00000000
                                                     3        3.4075035       41.20727267    0.00000000
                                                     2        3.3358711      -55.51413840    0.00000000
                                      S - D
                                                     2        9.1423178      103.26274052    0.00000000
                                      P - D
                                                     2        7.2122077       45.80124572    0.00000000
    2          1            1
                                      P and up 
                                                     2       21.7769666      -10.85192405    0.00000000
                                                     1       21.2435951        1.00000000    0.00000000
                                                     3       21.2435951       21.24359508    0.00000000
                                      S - P
                                                     2        1.0000000        0.00000000    0.00000000
 ======================================================================================================
 Ernie: Thresh=  0.10000D-02 Tol=  0.10000D-05 Strict=F.
 There are   120 symmetry adapted cartesian basis functions of A1  symmetry.
 There are    26 symmetry adapted cartesian basis functions of A2  symmetry.
 There are    56 symmetry adapted cartesian basis functions of B1  symmetry.
 There are    56 symmetry adapted cartesian basis functions of B2  symmetry.
 There are    94 symmetry adapted basis functions of A1  symmetry.
 There are    23 symmetry adapted basis functions of A2  symmetry.
 There are    49 symmetry adapted basis functions of B1  symmetry.
 There are    49 symmetry adapted basis functions of B2  symmetry.
   215 basis functions,   258 primitive gaussians,   258 cartesian basis functions
    10 alpha electrons        5 beta electrons
       nuclear repulsion energy         5.6988315022 Hartrees.
 IExCor=    0 DFT=F Ex=HF Corr=None ExCW=0 ScaHFX=  1.000000
 ScaDFX=  1.000000  1.000000  1.000000  1.000000 ScalE2=  1.000000  1.000000
 IRadAn=      5 IRanWt=     -1 IRanGd=            0 ICorTp=0 IEmpDi=  4
 NAtoms=    2 NActive=    2 NUniq=    2 SFac= 1.00D+00 NAtFMM=   60 NAOKFM=F Big=F
 Integral buffers will be    131072 words long.
 Raffenetti 2 integral format.
 Two-electron integral symmetry is turned on.
 Leave Link  301 at Sun Feb 25 23:03:53 2018, MaxMem=  8589934592 cpu:               3.6 elap:               0.3
 (Enter /home1/apps/gaussian/16rA.03/g16/l302.exe)
 NPDir=0 NMtPBC=     1 NCelOv=     1 NCel=       1 NClECP=     1 NCelD=      1
         NCelK=      1 NCelE2=     1 NClLst=     1 CellRange=     0.0.
 One-electron integrals computed using PRISM.
 One-electron integral symmetry used in STVInt
   4 Symmetry operations used in ECPInt.
 ECPInt:  NShTT=    2556 NPrTT=    2556 LenC2=    2535 LenP2D=    2534.
 LDataN:  DoStor=T MaxTD1= 8 Len=  415
 NBasis=   215 RedAO= T EigKep=  1.80D-06  NBF=    94    23    49    49
 NBsUse=   206 1.00D-06 EigRej=  4.93D-07 NBFU=    90    22    47    47
 Leave Link  302 at Sun Feb 25 23:03:55 2018, MaxMem=  8589934592 cpu:              14.5 elap:               1.0
 (Enter /home1/apps/gaussian/16rA.03/g16/l303.exe)
 DipDrv:  MaxL=1.
 Leave Link  303 at Sun Feb 25 23:03:55 2018, MaxMem=  8589934592 cpu:               1.1 elap:               0.2
 (Enter /home1/apps/gaussian/16rA.03/g16/l401.exe)
 Initial guess from the checkpoint file:  "CrH.chk"
 B after Tr=     0.000000    0.000000    0.000000
         Rot=    1.000000    0.000000    0.000000    0.000000 Ang=   0.00 deg.
 Guess basis will be translated and rotated to current coordinates.
 GSVD:  received Info=                   1 from GESDD.
 JPrj=2 DoOrth=T DoCkMO=T.
 Initial guess orbital symmetries:
       Occupied  (SG) (SG) (PI) (PI) (SG) (PI) (PI) (SG) (DLTA)
                 (DLTA)
       Virtual   (PI) (PI) (SG) (SG) (PI) (PI) (SG) (DLTA) (DLTA)
                 (PI) (PI) (SG) (SG) (SG) (PI) (PI) (SG) (SG) (DLTA)
                 (DLTA) (PI) (PI) (PI) (PI) (SG) (SG) (PHI) (PHI)
                 (DLTA) (DLTA) (SG) (PI) (PI) (SG) (PI) (PI) (SG)
                 (PI) (PI) (DLTA) (DLTA) (DLTA) (DLTA) (SG) (PI)
                 (PI) (SG) (PI) (PI) (SG) (SG) (PHI) (PHI) (DLTA)
                 (DLTA) (PI) (PI) (SG) (PI) (PI) (?A) (?A) (PHI)
                 (PHI) (SG) (DLTA) (DLTA) (PI) (PI) (SG) (SG) (DLTA)
                 (DLTA) (PI) (PI) (SG) (DLTA) (DLTA) (PI) (PI)
                 (PI) (PI) (SG) (SG) (DLTA) (DLTA) (PHI) (PHI)
                 (PI) (PI) (SG) (SG) (PI) (PI) (SG) (PHI) (PHI)
                 (?A) (?A) (DLTA) (DLTA) (PI) (PI) (SG) (DLTA)
                 (DLTA) (PI) (PI) (SG) (SG) (DLTA) (DLTA) (PHI)
                 (PHI) (PI) (PI) (SG) (PI) (PI) (SG) (SG) (DLTA)
                 (DLTA) (PI) (PI) (SG) (PHI) (PHI) (?A) (?A) (DLTA)
                 (DLTA) (PI) (PI) (SG) (PI) (PI) (SG) (SG) (DLTA)
                 (DLTA) (PI) (PI) (SG) (PI) (PI) (SG) (SG) (SG)
                 (DLTA) (DLTA) (PI) (PI) (SG) (PI) (PI) (SG) (SG)
                 (PI) (PI) (SG) (SG) (DLTA) (DLTA) (PI) (PI) (SG)
                 (PI) (PI) (SG) (SG) (PI) (PI) (SG) (SG) (PI) (PI)
                 (SG) (SG) (SG) (PI) (PI) (SG) (SG) (PI) (PI) (SG)
                 (SG) (PI) (PI) (SG) (SG) (SG) (SG) (SG) (SG)
 The electronic state of the initial guess is 6-SG.
 Leave Link  401 at Sun Feb 25 23:03:56 2018, MaxMem=  8589934592 cpu:               5.3 elap:               0.4
 (Enter /home1/apps/gaussian/16rA.03/g16/l502.exe)
 Keep R1 and R2 ints in memory in symmetry-blocked form, NReq=338797193.
 FoFCou: FMM=F IPFlag=           8 FMFlag=           0 FMFlg1=           0
         NFxFlg=           0 DoJE=F BraDBF=F KetDBF=F FulRan=T
         wScrn=  0.000000 ICntrl=       600 IOpCl=  0 I1Cent=           0 NGrid=           0
         NMat0=    1 NMatS0=  23220 NMatT0=    0 NMatD0=    1 NMtDS0=    0 NMtDT0=    0
 Petite list used in FoFCou.
 Restricted open shell SCF:
 Using DIIS extrapolation, IDIIS=  1040.
 NGot=  8589934592 LenX=  8451450423 LenY=  8451383418
 Requested convergence on RMS density matrix=1.00D-08 within 300 cycles.
 Requested convergence on MAX density matrix=1.00D-06.
 Requested convergence on             energy=1.00D-06.
 No special actions if energy rises.

 Cycle   1  Pass 1  IDiag  1:
 E= -86.7981725352975    
 DIIS: error= 6.43D-02 at cycle   1 NSaved=   1.
 NSaved= 1 IEnMin= 1 EnMin= -86.7981725352975     IErMin= 1 ErrMin= 6.43D-02
 ErrMax= 6.43D-02  0.00D+00 EMaxC= 1.00D-01 BMatC= 3.21D-01 BMatP= 3.21D-01
 IDIUse=3 WtCom= 3.57D-01 WtEn= 6.43D-01
 Coeff-Com:  0.100D+01
 Coeff-En:   0.100D+01
 Coeff:      0.100D+01
 Gap=     0.067 Goal=   None    Shift=    0.000
 GapD=    0.067 DampG=0.500 DampE=0.250 DampFc=0.1250 IDamp=-1.
 Damping current iteration by 1.25D-01
 RMSDP=2.10D-03 MaxDP=1.80D-01              OVMax= 7.34D-02

 Cycle   2  Pass 1  IDiag  1:
 E= -86.7998376155369     Delta-E=       -0.001665080239 Rises=F Damp=T
 DIIS: error= 5.63D-02 at cycle   2 NSaved=   2.
 NSaved= 2 IEnMin= 2 EnMin= -86.7998376155369     IErMin= 2 ErrMin= 5.63D-02
 ErrMax= 5.63D-02  0.00D+00 EMaxC= 1.00D-01 BMatC= 2.46D-01 BMatP= 3.21D-01
 IDIUse=3 WtCom= 4.37D-01 WtEn= 5.63D-01
 Coeff-Com: -0.641D+01 0.741D+01
 Coeff-En:   0.000D+00 0.100D+01
 Coeff:     -0.280D+01 0.380D+01
 Gap=     0.060 Goal=   None    Shift=    0.000
 RMSDP=2.20D-03 MaxDP=1.41D-01 DE=-1.67D-03 OVMax= 2.88D-01

 Cycle   3  Pass 1  IDiag  1:
 E= -86.7612107993373     Delta-E=        0.038626816200 Rises=F Damp=F
 DIIS: error= 2.43D-02 at cycle   3 NSaved=   3.
 NSaved= 3 IEnMin= 2 EnMin= -86.7998376155369     IErMin= 3 ErrMin= 2.43D-02
 ErrMax= 2.43D-02  0.00D+00 EMaxC= 1.00D-01 BMatC= 2.13D-02 BMatP= 2.46D-01
 IDIUse=3 WtCom= 7.57D-01 WtEn= 2.43D-01
 Coeff-Com: -0.340D+01 0.389D+01 0.504D+00
 Coeff-En:   0.000D+00 0.802D+00 0.198D+00
 Coeff:     -0.257D+01 0.314D+01 0.430D+00
 Gap=     0.078 Goal=   None    Shift=    0.000
 RMSDP=1.94D-03 MaxDP=1.54D-01 DE= 3.86D-02 OVMax= 2.47D-01

 Cycle   4  Pass 1  IDiag  1:
 E= -86.8015863745720     Delta-E=       -0.040375575235 Rises=F Damp=F
 DIIS: error= 7.74D-03 at cycle   4 NSaved=   4.
 NSaved= 4 IEnMin= 4 EnMin= -86.8015863745720     IErMin= 4 ErrMin= 7.74D-03
 ErrMax= 7.74D-03  0.00D+00 EMaxC= 1.00D-01 BMatC= 6.62D-03 BMatP= 2.13D-02
 IDIUse=3 WtCom= 9.23D-01 WtEn= 7.74D-02
 EnCoef did     3 forward-backward iterations
 Coeff-Com: -0.226D+01 0.258D+01 0.274D+00 0.404D+00
 Coeff-En:   0.000D+00 0.780D-01 0.234D+00 0.688D+00
 Coeff:     -0.209D+01 0.239D+01 0.271D+00 0.426D+00
 Gap=     0.068 Goal=   None    Shift=    0.000
 RMSDP=9.79D-04 MaxDP=7.43D-02 DE=-4.04D-02 OVMax= 1.40D-01

 Cycle   5  Pass 1  IDiag  1:
 E= -86.8073613024048     Delta-E=       -0.005774927833 Rises=F Damp=F
 DIIS: error= 8.79D-03 at cycle   5 NSaved=   5.
 NSaved= 5 IEnMin= 5 EnMin= -86.8073613024048     IErMin= 4 ErrMin= 7.74D-03
 ErrMax= 8.79D-03  0.00D+00 EMaxC= 1.00D-01 BMatC= 3.29D-03 BMatP= 6.62D-03
 IDIUse=3 WtCom= 9.12D-01 WtEn= 8.79D-02
 Coeff-Com: -0.190D+01 0.217D+01 0.148D+00 0.290D+00 0.292D+00
 Coeff-En:   0.000D+00 0.000D+00 0.000D+00 0.400D+00 0.600D+00
 Coeff:     -0.174D+01 0.198D+01 0.135D+00 0.300D+00 0.319D+00
 Gap=     0.063 Goal=   None    Shift=    0.000
 RMSDP=7.88D-04 MaxDP=4.96D-02 DE=-5.77D-03 OVMax= 7.23D-02

 Cycle   6  Pass 1  IDiag  1:
 E= -86.8125705383773     Delta-E=       -0.005209235973 Rises=F Damp=F
 DIIS: error= 6.03D-03 at cycle   6 NSaved=   6.
 NSaved= 6 IEnMin= 6 EnMin= -86.8125705383773     IErMin= 6 ErrMin= 6.03D-03
 ErrMax= 6.03D-03  0.00D+00 EMaxC= 1.00D-01 BMatC= 1.32D-03 BMatP= 3.29D-03
 IDIUse=3 WtCom= 9.40D-01 WtEn= 6.03D-02
 Coeff-Com: -0.134D+01 0.153D+01 0.144D-01-0.151D-01 0.129D+00 0.682D+00
 Coeff-En:   0.000D+00 0.000D+00 0.000D+00 0.000D+00 0.165D+00 0.835D+00
 Coeff:     -0.126D+01 0.144D+01 0.135D-01-0.142D-01 0.131D+00 0.692D+00
 Gap=     0.058 Goal=   None    Shift=    0.000
 RMSDP=3.70D-04 MaxDP=1.96D-02 DE=-5.21D-03 OVMax= 3.25D-02

 Cycle   7  Pass 1  IDiag  1:
 E= -86.8152665448179     Delta-E=       -0.002696006441 Rises=F Damp=F
 DIIS: error= 4.36D-03 at cycle   7 NSaved=   7.
 NSaved= 7 IEnMin= 7 EnMin= -86.8152665448179     IErMin= 7 ErrMin= 4.36D-03
 ErrMax= 4.36D-03  0.00D+00 EMaxC= 1.00D-01 BMatC= 7.75D-04 BMatP= 1.32D-03
 IDIUse=3 WtCom= 9.56D-01 WtEn= 4.36D-02
 Coeff-Com: -0.101D+01 0.115D+01 0.235D-01-0.104D+00-0.841D-01 0.263D+00
 Coeff-Com:  0.759D+00
 Coeff-En:   0.000D+00 0.000D+00 0.000D+00 0.000D+00 0.000D+00 0.000D+00
 Coeff-En:   0.100D+01
 Coeff:     -0.964D+00 0.110D+01 0.225D-01-0.999D-01-0.805D-01 0.252D+00
 Coeff:      0.769D+00
 Gap=     0.056 Goal=   None    Shift=    0.000
 RMSDP=4.56D-04 MaxDP=3.57D-02 DE=-2.70D-03 OVMax= 3.57D-02

 Cycle   8  Pass 1  IDiag  1:
 E= -86.8166412863114     Delta-E=       -0.001374741494 Rises=F Damp=F
 DIIS: error= 3.89D-03 at cycle   8 NSaved=   8.
 NSaved= 8 IEnMin= 8 EnMin= -86.8166412863114     IErMin= 8 ErrMin= 3.89D-03
 ErrMax= 3.89D-03  0.00D+00 EMaxC= 1.00D-01 BMatC= 6.25D-04 BMatP= 7.75D-04
 IDIUse=3 WtCom= 9.61D-01 WtEn= 3.89D-02
 Coeff-Com: -0.756D+00 0.863D+00 0.366D-01-0.102D+00-0.203D+00-0.181D+00
 Coeff-Com:  0.759D+00 0.583D+00
 Coeff-En:   0.000D+00 0.000D+00 0.000D+00 0.000D+00 0.000D+00 0.000D+00
 Coeff-En:   0.000D+00 0.100D+01
 Coeff:     -0.727D+00 0.829D+00 0.352D-01-0.977D-01-0.195D+00-0.174D+00
 Coeff:      0.730D+00 0.599D+00
 Gap=     0.053 Goal=   None    Shift=    0.000
 RMSDP=1.76D-04 MaxDP=9.73D-03 DE=-1.37D-03 OVMax= 3.37D-02

 Cycle   9  Pass 1  IDiag  1:
 E= -86.8180622654495     Delta-E=       -0.001420979138 Rises=F Damp=F
 DIIS: error= 3.14D-03 at cycle   9 NSaved=   9.
 NSaved= 9 IEnMin= 9 EnMin= -86.8180622654495     IErMin= 9 ErrMin= 3.14D-03
 ErrMax= 3.14D-03  0.00D+00 EMaxC= 1.00D-01 BMatC= 3.54D-04 BMatP= 6.25D-04
 IDIUse=3 WtCom= 9.69D-01 WtEn= 3.14D-02
 Coeff-Com: -0.614D+00 0.701D+00 0.281D-01-0.448D-01-0.144D+00-0.205D+00
 Coeff-Com:  0.236D+00 0.328D+00 0.715D+00
 Coeff-En:   0.000D+00 0.000D+00 0.000D+00 0.000D+00 0.000D+00 0.000D+00
 Coeff-En:   0.000D+00 0.000D+00 0.100D+01
 Coeff:     -0.595D+00 0.679D+00 0.272D-01-0.434D-01-0.140D+00-0.198D+00
 Coeff:      0.228D+00 0.318D+00 0.724D+00
 Gap=     0.051 Goal=   None    Shift=    0.000
 RMSDP=2.61D-04 MaxDP=2.27D-02 DE=-1.42D-03 OVMax= 2.94D-02

 Cycle  10  Pass 1  IDiag  1:
 E= -86.8189255110116     Delta-E=       -0.000863245562 Rises=F Damp=F
 DIIS: error= 2.21D-03 at cycle  10 NSaved=  10.
 NSaved=10 IEnMin=10 EnMin= -86.8189255110116     IErMin=10 ErrMin= 2.21D-03
 ErrMax= 2.21D-03  0.00D+00 EMaxC= 1.00D-01 BMatC= 2.44D-04 BMatP= 3.54D-04
 IDIUse=3 WtCom= 9.78D-01 WtEn= 2.21D-02
 Coeff-Com: -0.409D+00 0.466D+00 0.195D-01 0.373D-01 0.100D+00 0.188D+00
 Coeff-Com: -0.558D+00-0.107D+01 0.464D+00 0.176D+01
 Coeff-En:   0.000D+00 0.000D+00 0.000D+00 0.000D+00 0.000D+00 0.000D+00
 Coeff-En:   0.000D+00 0.000D+00 0.000D+00 0.100D+01
 Coeff:     -0.400D+00 0.456D+00 0.191D-01 0.365D-01 0.980D-01 0.183D+00
 Coeff:     -0.546D+00-0.104D+01 0.454D+00 0.174D+01
 Gap=     0.047 Goal=   None    Shift=    0.000
 RMSDP=5.25D-04 MaxDP=3.96D-02 DE=-8.63D-04 OVMax= 7.13D-02

 Cycle  11  Pass 1  IDiag  1:
 E= -86.8201012788725     Delta-E=       -0.001175767861 Rises=F Damp=F
 DIIS: error= 1.91D-03 at cycle  11 NSaved=  11.
 NSaved=11 IEnMin=11 EnMin= -86.8201012788725     IErMin=11 ErrMin= 1.91D-03
 ErrMax= 1.91D-03  0.00D+00 EMaxC= 1.00D-01 BMatC= 1.42D-04 BMatP= 2.44D-04
 IDIUse=3 WtCom= 9.81D-01 WtEn= 1.91D-02
 Coeff-Com: -0.341D+00 0.390D+00 0.144D-01 0.734D-02 0.681D-01 0.262D+00
 Coeff-Com: -0.253D+00-0.101D+01-0.208D+00 0.145D+01 0.620D+00
 Coeff-En:   0.000D+00 0.000D+00 0.000D+00 0.000D+00 0.000D+00 0.000D+00
 Coeff-En:   0.000D+00 0.000D+00 0.000D+00 0.000D+00 0.100D+01
 Coeff:     -0.335D+00 0.382D+00 0.142D-01 0.720D-02 0.668D-01 0.257D+00
 Coeff:     -0.249D+00-0.988D+00-0.204D+00 0.142D+01 0.627D+00
 Gap=     0.045 Goal=   None    Shift=    0.000
 RMSDP=6.64D-04 MaxDP=6.18D-02 DE=-1.18D-03 OVMax= 2.77D-02

 Cycle  12  Pass 1  IDiag  1:
 E= -86.8203406237571     Delta-E=       -0.000239344885 Rises=F Damp=F
 DIIS: error= 1.54D-03 at cycle  12 NSaved=  12.
 NSaved=12 IEnMin=12 EnMin= -86.8203406237571     IErMin=12 ErrMin= 1.54D-03
 ErrMax= 1.54D-03  0.00D+00 EMaxC= 1.00D-01 BMatC= 1.38D-04 BMatP= 1.42D-04
 IDIUse=3 WtCom= 9.85D-01 WtEn= 1.54D-02
 Coeff-Com: -0.314D+00 0.358D+00 0.133D-01-0.822D-02 0.361D-01 0.238D+00
 Coeff-Com: -0.755D-01-0.820D+00-0.424D+00 0.110D+01 0.679D+00 0.213D+00
 Coeff-En:   0.000D+00 0.000D+00 0.000D+00 0.000D+00 0.000D+00 0.000D+00
 Coeff-En:   0.000D+00 0.000D+00 0.000D+00 0.000D+00 0.103D+00 0.897D+00
 Coeff:     -0.309D+00 0.353D+00 0.131D-01-0.810D-02 0.356D-01 0.234D+00
 Coeff:     -0.743D-01-0.807D+00-0.417D+00 0.109D+01 0.670D+00 0.224D+00
 Gap=     0.043 Goal=   None    Shift=    0.000
 RMSDP=7.87D-04 MaxDP=7.57D-02 DE=-2.39D-04 OVMax= 3.04D-02

 Cycle  13  Pass 1  IDiag  1:
 E= -86.8205709484276     Delta-E=       -0.000230324670 Rises=F Damp=F
 DIIS: error= 1.33D-03 at cycle  13 NSaved=  13.
 NSaved=13 IEnMin=13 EnMin= -86.8205709484276     IErMin=13 ErrMin= 1.33D-03
 ErrMax= 1.33D-03  0.00D+00 EMaxC= 1.00D-01 BMatC= 7.53D-05 BMatP= 1.38D-04
 IDIUse=3 WtCom= 9.87D-01 WtEn= 1.33D-02
 Coeff-Com: -0.284D+00 0.324D+00 0.135D-01-0.173D-01-0.161D-02 0.145D+00
 Coeff-Com:  0.779D-01-0.486D+00-0.461D+00 0.596D+00 0.458D+00 0.285D+00
 Coeff-Com:  0.349D+00
 Coeff-En:   0.000D+00 0.000D+00 0.000D+00 0.000D+00 0.000D+00 0.000D+00
 Coeff-En:   0.000D+00 0.000D+00 0.000D+00 0.000D+00 0.000D+00 0.310D+00
 Coeff-En:   0.690D+00
 Coeff:     -0.280D+00 0.320D+00 0.133D-01-0.171D-01-0.159D-02 0.144D+00
 Coeff:      0.769D-01-0.480D+00-0.455D+00 0.589D+00 0.452D+00 0.285D+00
 Coeff:      0.354D+00
 Gap=     0.042 Goal=   None    Shift=    0.000
 RMSDP=3.44D-04 MaxDP=3.20D-02 DE=-2.30D-04 OVMax= 1.27D-02

 Cycle  14  Pass 1  IDiag  1:
 E= -86.8207193779721     Delta-E=       -0.000148429545 Rises=F Damp=F
 DIIS: error= 1.07D-03 at cycle  14 NSaved=  14.
 NSaved=14 IEnMin=14 EnMin= -86.8207193779721     IErMin=14 ErrMin= 1.07D-03
 ErrMax= 1.07D-03  0.00D+00 EMaxC= 1.00D-01 BMatC= 4.09D-05 BMatP= 7.53D-05
 IDIUse=3 WtCom= 9.89D-01 WtEn= 1.07D-02
 Coeff-Com: -0.218D+00 0.249D+00 0.139D-01 0.236D-02-0.232D-01-0.680D-01
 Coeff-Com:  0.800D-01 0.922D-01-0.691D-01-0.191D+00-0.249D+00 0.272D-01
 Coeff-Com:  0.340D+00 0.101D+01
 Coeff-En:   0.000D+00 0.000D+00 0.000D+00 0.000D+00 0.000D+00 0.000D+00
 Coeff-En:   0.000D+00 0.000D+00 0.000D+00 0.000D+00 0.000D+00 0.000D+00
 Coeff-En:   0.000D+00 0.100D+01
 Coeff:     -0.215D+00 0.246D+00 0.137D-01 0.233D-02-0.229D-01-0.673D-01
 Coeff:      0.791D-01 0.912D-01-0.684D-01-0.189D+00-0.246D+00 0.269D-01
 Coeff:      0.336D+00 0.101D+01
 Gap=     0.041 Goal=   None    Shift=    0.000
 RMSDP=1.58D-04 MaxDP=9.03D-03 DE=-1.48D-04 OVMax= 2.40D-02

 Cycle  15  Pass 1  IDiag  1:
 E= -86.8208522697297     Delta-E=       -0.000132891758 Rises=F Damp=F
 DIIS: error= 9.48D-04 at cycle  15 NSaved=  15.
 NSaved=15 IEnMin=15 EnMin= -86.8208522697297     IErMin=15 ErrMin= 9.48D-04
 ErrMax= 9.48D-04  0.00D+00 EMaxC= 1.00D-01 BMatC= 3.51D-05 BMatP= 4.09D-05
 IDIUse=3 WtCom= 9.91D-01 WtEn= 9.48D-03
 Coeff-Com: -0.196D+00 0.223D+00 0.127D-01 0.303D-02-0.250D-01-0.836D-01
 Coeff-Com:  0.717D-01 0.138D+00-0.104D-01-0.248D+00-0.324D+00-0.333D-01
 Coeff-Com:  0.257D+00 0.102D+01 0.195D+00
 Coeff-En:   0.000D+00 0.000D+00 0.000D+00 0.000D+00 0.000D+00 0.000D+00
 Coeff-En:   0.000D+00 0.000D+00 0.000D+00 0.000D+00 0.000D+00 0.000D+00
 Coeff-En:   0.000D+00 0.000D+00 0.100D+01
 Coeff:     -0.194D+00 0.221D+00 0.126D-01 0.300D-02-0.248D-01-0.828D-01
 Coeff:      0.710D-01 0.137D+00-0.103D-01-0.246D+00-0.321D+00-0.330D-01
 Coeff:      0.254D+00 0.101D+01 0.203D+00
 Gap=     0.041 Goal=   None    Shift=    0.000
 RMSDP=1.25D-04 MaxDP=7.20D-03 DE=-1.33D-04 OVMax= 1.05D-02

 Cycle  16  Pass 1  IDiag  1:
 E= -86.8209082641766     Delta-E=       -0.000055994447 Rises=F Damp=F
 DIIS: error= 8.70D-04 at cycle  16 NSaved=  16.
 NSaved=16 IEnMin=16 EnMin= -86.8209082641766     IErMin=16 ErrMin= 8.70D-04
 ErrMax= 8.70D-04  0.00D+00 EMaxC= 1.00D-01 BMatC= 2.37D-05 BMatP= 3.51D-05
 IDIUse=3 WtCom= 9.91D-01 WtEn= 8.70D-03
 Coeff-Com: -0.856D-01 0.978D-01 0.435D-02-0.990D-02-0.242D-01-0.317D-01
 Coeff-Com:  0.358D-01 0.405D-01 0.733D-01-0.780D-01-0.294D+00-0.223D+00
 Coeff-Com: -0.224D+00 0.317D+00 0.438D+00 0.963D+00
 Coeff-En:   0.000D+00 0.000D+00 0.000D+00 0.000D+00 0.000D+00 0.000D+00
 Coeff-En:   0.000D+00 0.000D+00 0.000D+00 0.000D+00 0.000D+00 0.000D+00
 Coeff-En:   0.000D+00 0.000D+00 0.272D-01 0.973D+00
 Coeff:     -0.849D-01 0.970D-01 0.431D-02-0.981D-02-0.240D-01-0.314D-01
 Coeff:      0.354D-01 0.402D-01 0.727D-01-0.774D-01-0.292D+00-0.221D+00
 Coeff:     -0.222D+00 0.314D+00 0.435D+00 0.963D+00
 Gap=     0.038 Goal=   None    Shift=    0.000
 RMSDP=1.38D-04 MaxDP=7.28D-03 DE=-5.60D-05 OVMax= 3.08D-02

 Cycle  17  Pass 1  IDiag  1:
 E= -86.8210331336505     Delta-E=       -0.000124869474 Rises=F Damp=F
 DIIS: error= 3.68D-04 at cycle  17 NSaved=  17.
 NSaved=17 IEnMin=17 EnMin= -86.8210331336505     IErMin=17 ErrMin= 3.68D-04
 ErrMax= 3.68D-04  0.00D+00 EMaxC= 1.00D-01 BMatC= 4.99D-06 BMatP= 2.37D-05
 IDIUse=3 WtCom= 9.96D-01 WtEn= 3.68D-03
 Coeff-Com: -0.249D-01 0.284D-01 0.316D-02-0.101D-01-0.882D-02-0.822D-03
 Coeff-Com:  0.877D-02-0.293D-01 0.577D-01 0.175D-01-0.155D+00-0.157D+00
 Coeff-Com: -0.207D+00 0.722D-01 0.149D+00 0.424D+00 0.831D+00
 Coeff-En:   0.000D+00 0.000D+00 0.000D+00 0.000D+00 0.000D+00 0.000D+00
 Coeff-En:   0.000D+00 0.000D+00 0.000D+00 0.000D+00 0.000D+00 0.000D+00
 Coeff-En:   0.000D+00 0.000D+00 0.000D+00 0.000D+00 0.100D+01
 Coeff:     -0.248D-01 0.283D-01 0.315D-02-0.100D-01-0.879D-02-0.819D-03
 Coeff:      0.873D-02-0.292D-01 0.575D-01 0.174D-01-0.154D+00-0.156D+00
 Coeff:     -0.206D+00 0.720D-01 0.149D+00 0.422D+00 0.832D+00
 Gap=     0.037 Goal=   None    Shift=    0.000
 RMSDP=1.50D-04 MaxDP=1.35D-02 DE=-1.25D-04 OVMax= 1.74D-02

 Cycle  18  Pass 1  IDiag  1:
 E= -86.8210575948422     Delta-E=       -0.000024461192 Rises=F Damp=F
 DIIS: error= 1.75D-04 at cycle  18 NSaved=  18.
 NSaved=18 IEnMin=18 EnMin= -86.8210575948422     IErMin=18 ErrMin= 1.75D-04
 ErrMax= 1.75D-04  0.00D+00 EMaxC= 1.00D-01 BMatC= 1.34D-06 BMatP= 4.99D-06
 IDIUse=3 WtCom= 9.98D-01 WtEn= 1.75D-03
 Coeff-Com:  0.932D-02-0.106D-01 0.168D-02-0.979D-02-0.561D-02 0.119D-01
 Coeff-Com:  0.151D-01-0.336D-01 0.210D-01 0.291D-01-0.652D-01-0.797D-01
 Coeff-Com: -0.119D+00-0.429D-02-0.597D-02 0.372D-01 0.632D+00 0.576D+00
 Coeff-En:   0.000D+00 0.000D+00 0.000D+00 0.000D+00 0.000D+00 0.000D+00
 Coeff-En:   0.000D+00 0.000D+00 0.000D+00 0.000D+00 0.000D+00 0.000D+00
 Coeff-En:   0.000D+00 0.000D+00 0.000D+00 0.000D+00 0.000D+00 0.100D+01
 Coeff:      0.930D-02-0.106D-01 0.167D-02-0.977D-02-0.560D-02 0.119D-01
 Coeff:      0.151D-01-0.336D-01 0.209D-01 0.290D-01-0.650D-01-0.795D-01
 Coeff:     -0.118D+00-0.428D-02-0.596D-02 0.371D-01 0.631D+00 0.577D+00
 Gap=     0.036 Goal=   None    Shift=    0.000
 RMSDP=4.87D-05 MaxDP=2.85D-03 DE=-2.45D-05 OVMax= 1.01D-02

 Cycle  19  Pass 1  IDiag  1:
 E= -86.8210583849720     Delta-E=       -0.000000790130 Rises=F Damp=F
 DIIS: error= 1.12D-04 at cycle  19 NSaved=  19.
 NSaved=19 IEnMin=19 EnMin= -86.8210583849720     IErMin=19 ErrMin= 1.12D-04
 ErrMax= 1.12D-04  0.00D+00 EMaxC= 1.00D-01 BMatC= 7.42D-07 BMatP= 1.34D-06
 IDIUse=3 WtCom= 9.99D-01 WtEn= 1.12D-03
 Coeff-Com:  0.319D-01-0.364D-01 0.137D-03-0.791D-02-0.355D-02 0.185D-01
 Coeff-Com:  0.184D-01-0.288D-01-0.667D-02 0.329D-01 0.703D-02-0.148D-01
 Coeff-Com: -0.409D-01-0.572D-01-0.819D-01-0.175D+00 0.238D+00 0.747D+00
 Coeff-Com:  0.359D+00
 Coeff-En:   0.000D+00 0.000D+00 0.000D+00 0.000D+00 0.000D+00 0.000D+00
 Coeff-En:   0.000D+00 0.000D+00 0.000D+00 0.000D+00 0.000D+00 0.000D+00
 Coeff-En:   0.000D+00 0.000D+00 0.000D+00 0.000D+00 0.000D+00 0.000D+00
 Coeff-En:   0.100D+01
 Coeff:      0.319D-01-0.364D-01 0.136D-03-0.791D-02-0.355D-02 0.185D-01
 Coeff:      0.183D-01-0.288D-01-0.666D-02 0.328D-01 0.702D-02-0.148D-01
 Coeff:     -0.409D-01-0.571D-01-0.818D-01-0.175D+00 0.237D+00 0.747D+00
 Coeff:      0.360D+00
 Gap=     0.036 Goal=   None    Shift=    0.000
 RMSDP=4.13D-05 MaxDP=2.49D-03 DE=-7.90D-07 OVMax= 6.57D-03

 Cycle  20  Pass 1  IDiag  1:
 E= -86.8210540690734     Delta-E=        0.000004315899 Rises=F Damp=F
 DIIS: error= 1.74D-04 at cycle  20 NSaved=  20.
 NSaved=20 IEnMin=19 EnMin= -86.8210583849720     IErMin=19 ErrMin= 1.12D-04
 ErrMax= 1.74D-04  0.00D+00 EMaxC= 1.00D-01 BMatC= 1.04D-06 BMatP= 7.42D-07
 IDIUse=3 WtCom= 9.99D-01 WtEn= 1.12D-03
 Rare condition: small coef for last iteration:  0.000D+00
 Coeff-Com:  0.135D-01-0.154D-01-0.854D-03-0.766D-03-0.153D-02 0.674D-02
 Coeff-Com:  0.158D-03-0.124D-01 0.495D-02 0.295D-01 0.213D-01-0.794D-03
 Coeff-Com: -0.206D-01-0.499D-01 0.708D-01 0.151D+00-0.406D+00-0.661D-02
 Coeff-Com:  0.560D+00 0.657D+00
 Coeff-En:   0.000D+00 0.000D+00 0.000D+00 0.000D+00 0.000D+00 0.000D+00
 Coeff-En:   0.000D+00 0.000D+00 0.000D+00 0.000D+00 0.000D+00 0.000D+00
 Coeff-En:   0.000D+00 0.000D+00 0.000D+00 0.000D+00 0.000D+00 0.000D+00
 Coeff-En:   0.000D+00 0.100D+01
 Coeff:      0.135D-01-0.154D-01-0.854D-03-0.766D-03-0.153D-02 0.674D-02
 Coeff:      0.158D-03-0.124D-01 0.495D-02 0.295D-01 0.213D-01-0.794D-03
 Coeff:     -0.206D-01-0.499D-01 0.708D-01 0.151D+00-0.406D+00-0.661D-02
 Coeff:      0.560D+00 0.657D+00
 Gap=     0.036 Goal=   None    Shift=    0.000
 RMSDP=3.76D-05 MaxDP=2.19D-03 DE= 4.32D-06 OVMax= 6.55D-03

 Cycle  21  Pass 1  IDiag  1:
 E= -86.8210592886687     Delta-E=       -0.000005219595 Rises=F Damp=F
 DIIS: error= 8.45D-05 at cycle  21 NSaved=  20.
 NSaved=20 IEnMin=20 EnMin= -86.8210592886687     IErMin=20 ErrMin= 8.45D-05
 ErrMax= 8.45D-05  0.00D+00 EMaxC= 1.00D-01 BMatC= 4.25D-07 BMatP= 7.42D-07
 IDIUse=1 WtCom= 1.00D+00 WtEn= 0.00D+00
 Coeff-Com: -0.213D-02 0.243D-02 0.614D-03-0.961D-03 0.141D-02-0.262D-02
 Coeff-Com: -0.105D-01 0.484D-02 0.229D-01 0.119D-01-0.178D-02-0.133D-01
 Coeff-Com: -0.198D-01 0.723D-01 0.157D+00-0.283D+00-0.265D-01 0.357D+00
 Coeff-Com:  0.441D+00 0.289D+00
 Coeff:     -0.213D-02 0.243D-02 0.614D-03-0.961D-03 0.141D-02-0.262D-02
 Coeff:     -0.105D-01 0.484D-02 0.229D-01 0.119D-01-0.178D-02-0.133D-01
 Coeff:     -0.198D-01 0.723D-01 0.157D+00-0.283D+00-0.265D-01 0.357D+00
 Coeff:      0.441D+00 0.289D+00
 Gap=     0.037 Goal=   None    Shift=    0.000
 RMSDP=2.82D-05 MaxDP=1.45D-03 DE=-5.22D-06 OVMax= 4.65D-03

 Cycle  22  Pass 1  IDiag  1:
 E= -86.8210606407138     Delta-E=       -0.000001352045 Rises=F Damp=F
 DIIS: error= 3.12D-05 at cycle  22 NSaved=  20.
 NSaved=20 IEnMin=20 EnMin= -86.8210606407138     IErMin=20 ErrMin= 3.12D-05
 ErrMax= 3.12D-05  0.00D+00 EMaxC= 1.00D-01 BMatC= 6.95D-08 BMatP= 4.25D-07
 IDIUse=1 WtCom= 1.00D+00 WtEn= 0.00D+00
 Coeff-Com: -0.165D-05 0.263D-03-0.126D-03 0.155D-02-0.174D-02-0.109D-01
 Coeff-Com: -0.340D-02 0.184D-01 0.210D-01 0.902D-02 0.175D-02-0.294D-01
 Coeff-Com:  0.344D-02 0.148D-01-0.609D-01 0.145D+00 0.128D+00 0.100D+00
 Coeff-Com:  0.166D+00 0.497D+00
 Coeff:     -0.165D-05 0.263D-03-0.126D-03 0.155D-02-0.174D-02-0.109D-01
 Coeff:     -0.340D-02 0.184D-01 0.210D-01 0.902D-02 0.175D-02-0.294D-01
 Coeff:      0.344D-02 0.148D-01-0.609D-01 0.145D+00 0.128D+00 0.100D+00
 Coeff:      0.166D+00 0.497D+00
 Gap=     0.037 Goal=   None    Shift=    0.000
 RMSDP=8.11D-06 MaxDP=4.98D-04 DE=-1.35D-06 OVMax= 4.78D-04

 Cycle  23  Pass 1  IDiag  1:
 E= -86.8210607389439     Delta-E=       -0.000000098230 Rises=F Damp=F
 DIIS: error= 8.06D-06 at cycle  23 NSaved=  20.
 NSaved=20 IEnMin=20 EnMin= -86.8210607389439     IErMin=20 ErrMin= 8.06D-06
 ErrMax= 8.06D-06  0.00D+00 EMaxC= 1.00D-01 BMatC= 5.04D-09 BMatP= 6.95D-08
 IDIUse=1 WtCom= 1.00D+00 WtEn= 0.00D+00
 Coeff-Com:  0.156D-04-0.365D-03-0.476D-03 0.162D-02 0.608D-03-0.422D-02
 Coeff-Com:  0.602D-03 0.796D-02 0.829D-02 0.104D-01-0.458D-02-0.815D-02
 Coeff-Com: -0.198D-01-0.236D-01 0.664D-01 0.327D-01 0.105D-01-0.136D-01
 Coeff-Com:  0.659D-01 0.870D+00
 Coeff:      0.156D-04-0.365D-03-0.476D-03 0.162D-02 0.608D-03-0.422D-02
 Coeff:      0.602D-03 0.796D-02 0.829D-02 0.104D-01-0.458D-02-0.815D-02
 Coeff:     -0.198D-01-0.236D-01 0.664D-01 0.327D-01 0.105D-01-0.136D-01
 Coeff:      0.659D-01 0.870D+00
 Gap=     0.037 Goal=   None    Shift=    0.000
 RMSDP=6.51D-06 MaxDP=5.33D-04 DE=-9.82D-08 OVMax= 2.73D-04

 Cycle  24  Pass 1  IDiag  1:
 E= -86.8210607431704     Delta-E=       -0.000000004226 Rises=F Damp=F
 DIIS: error= 7.84D-06 at cycle  24 NSaved=  20.
 NSaved=20 IEnMin=20 EnMin= -86.8210607431704     IErMin=20 ErrMin= 7.84D-06
 ErrMax= 7.84D-06  0.00D+00 EMaxC= 1.00D-01 BMatC= 3.30D-09 BMatP= 5.04D-09
 IDIUse=1 WtCom= 1.00D+00 WtEn= 0.00D+00
 Coeff-Com: -0.308D-03-0.680D-03 0.157D-02 0.217D-02-0.290D-02-0.208D-02
 Coeff-Com:  0.379D-02 0.567D-02 0.874D-02 0.553D-03-0.608D-02-0.169D-01
 Coeff-Com: -0.180D-01 0.339D-01 0.154D-01 0.192D-02-0.401D-01-0.476D-01
 Coeff-Com:  0.714D+00 0.346D+00
 Coeff:     -0.308D-03-0.680D-03 0.157D-02 0.217D-02-0.290D-02-0.208D-02
 Coeff:      0.379D-02 0.567D-02 0.874D-02 0.553D-03-0.608D-02-0.169D-01
 Coeff:     -0.180D-01 0.339D-01 0.154D-01 0.192D-02-0.401D-01-0.476D-01
 Coeff:      0.714D+00 0.346D+00
 Gap=     0.037 Goal=   None    Shift=    0.000
 RMSDP=4.26D-06 MaxDP=3.74D-04 DE=-4.23D-09 OVMax= 1.13D-04

 Cycle  25  Pass 1  IDiag  1:
 E= -86.8210607495477     Delta-E=       -0.000000006377 Rises=F Damp=F
 DIIS: error= 3.45D-06 at cycle  25 NSaved=  20.
 NSaved=20 IEnMin=20 EnMin= -86.8210607495477     IErMin=20 ErrMin= 3.45D-06
 ErrMax= 3.45D-06  0.00D+00 EMaxC= 1.00D-01 BMatC= 7.05D-10 BMatP= 3.30D-09
 IDIUse=1 WtCom= 1.00D+00 WtEn= 0.00D+00
 Coeff-Com:  0.678D-05 0.335D-03 0.257D-03-0.110D-02-0.203D-03 0.161D-02
 Coeff-Com:  0.205D-02 0.316D-02 0.304D-03-0.288D-02-0.859D-02-0.470D-02
 Coeff-Com:  0.131D-01 0.329D-02-0.317D-02-0.310D-01-0.683D-01 0.253D+00
 Coeff-Com:  0.229D+00 0.614D+00
 Coeff:      0.678D-05 0.335D-03 0.257D-03-0.110D-02-0.203D-03 0.161D-02
 Coeff:      0.205D-02 0.316D-02 0.304D-03-0.288D-02-0.859D-02-0.470D-02
 Coeff:      0.131D-01 0.329D-02-0.317D-02-0.310D-01-0.683D-01 0.253D+00
 Coeff:      0.229D+00 0.614D+00
 Gap=     0.037 Goal=   None    Shift=    0.000
 RMSDP=1.11D-06 MaxDP=1.15D-04 DE=-6.38D-09 OVMax= 7.10D-05

 Cycle  26  Pass 1  IDiag  1:
 E= -86.8210607506564     Delta-E=       -0.000000001109 Rises=F Damp=F
 DIIS: error= 1.09D-06 at cycle  26 NSaved=  20.
 NSaved=20 IEnMin=20 EnMin= -86.8210607506564     IErMin=20 ErrMin= 1.09D-06
 ErrMax= 1.09D-06  0.00D+00 EMaxC= 1.00D-01 BMatC= 1.05D-10 BMatP= 7.05D-10
 IDIUse=1 WtCom= 1.00D+00 WtEn= 0.00D+00
 Coeff-Com: -0.214D-04-0.312D-05 0.155D-03 0.670D-04 0.611D-04-0.952D-04
 Coeff-Com: -0.183D-03 0.237D-03 0.851D-03 0.120D-02-0.493D-02 0.527D-03
 Coeff-Com:  0.441D-02 0.420D-02-0.966D-02-0.403D-01-0.147D-01 0.559D-01
 Coeff-Com:  0.410D+00 0.593D+00
 Coeff:     -0.214D-04-0.312D-05 0.155D-03 0.670D-04 0.611D-04-0.952D-04
 Coeff:     -0.183D-03 0.237D-03 0.851D-03 0.120D-02-0.493D-02 0.527D-03
 Coeff:      0.441D-02 0.420D-02-0.966D-02-0.403D-01-0.147D-01 0.559D-01
 Coeff:      0.410D+00 0.593D+00
 Gap=     0.037 Goal=   None    Shift=    0.000
 RMSDP=1.05D-06 MaxDP=9.12D-05 DE=-1.11D-09 OVMax= 2.25D-05

 Cycle  27  Pass 1  IDiag  1:
 E= -86.8210607507787     Delta-E=       -0.000000000122 Rises=F Damp=F
 DIIS: error= 8.63D-07 at cycle  27 NSaved=  20.
 NSaved=20 IEnMin=20 EnMin= -86.8210607507787     IErMin=20 ErrMin= 8.63D-07
 ErrMax= 8.63D-07  0.00D+00 EMaxC= 1.00D-01 BMatC= 4.62D-11 BMatP= 1.05D-10
 IDIUse=1 WtCom= 1.00D+00 WtEn= 0.00D+00
 Coeff-Com:  0.826D-04 0.182D-03-0.173D-03-0.338D-03-0.349D-03-0.401D-03
 Coeff-Com:  0.412D-03 0.440D-03 0.682D-03-0.570D-03-0.810D-03 0.515D-03
 Coeff-Com:  0.575D-03-0.530D-02-0.227D-01-0.423D-01 0.589D-02 0.191D+00
 Coeff-Com:  0.442D+00 0.431D+00
 Coeff:      0.826D-04 0.182D-03-0.173D-03-0.338D-03-0.349D-03-0.401D-03
 Coeff:      0.412D-03 0.440D-03 0.682D-03-0.570D-03-0.810D-03 0.515D-03
 Coeff:      0.575D-03-0.530D-02-0.227D-01-0.423D-01 0.589D-02 0.191D+00
 Coeff:      0.442D+00 0.431D+00
 Gap=     0.037 Goal=   None    Shift=    0.000
 RMSDP=5.89D-07 MaxDP=5.27D-05 DE=-1.22D-10 OVMax= 1.26D-05

 Cycle  28  Pass 1  IDiag  1:
 E= -86.8210607508530     Delta-E=       -0.000000000074 Rises=F Damp=F
 DIIS: error= 2.38D-07 at cycle  28 NSaved=  20.
 NSaved=20 IEnMin=20 EnMin= -86.8210607508530     IErMin=20 ErrMin= 2.38D-07
 ErrMax= 2.38D-07  0.00D+00 EMaxC= 1.00D-01 BMatC= 4.57D-12 BMatP= 4.62D-11
 IDIUse=1 WtCom= 1.00D+00 WtEn= 0.00D+00
 Coeff-Com:  0.760D-04-0.221D-04-0.171D-03-0.224D-03-0.350D-03-0.553D-04
 Coeff-Com:  0.362D-03 0.791D-03 0.585D-04-0.436D-03 0.141D-03 0.284D-03
 Coeff-Com: -0.578D-03-0.285D-02-0.172D-01-0.102D-01 0.463D-02 0.121D+00
 Coeff-Com:  0.290D+00 0.615D+00
 Coeff:      0.760D-04-0.221D-04-0.171D-03-0.224D-03-0.350D-03-0.553D-04
 Coeff:      0.362D-03 0.791D-03 0.585D-04-0.436D-03 0.141D-03 0.284D-03
 Coeff:     -0.578D-03-0.285D-02-0.172D-01-0.102D-01 0.463D-02 0.121D+00
 Coeff:      0.290D+00 0.615D+00
 Gap=     0.037 Goal=   None    Shift=    0.000
 RMSDP=1.72D-07 MaxDP=1.20D-05 DE=-7.43D-11 OVMax= 7.00D-06

 Cycle  29  Pass 1  IDiag  1:
 E= -86.8210607508635     Delta-E=       -0.000000000011 Rises=F Damp=F
 DIIS: error= 1.12D-07 at cycle  29 NSaved=  20.
 NSaved=20 IEnMin=20 EnMin= -86.8210607508635     IErMin=20 ErrMin= 1.12D-07
 ErrMax= 1.12D-07  0.00D+00 EMaxC= 1.00D-01 BMatC= 1.60D-12 BMatP= 4.57D-12
 IDIUse=1 WtCom= 1.00D+00 WtEn= 0.00D+00
 Coeff-Com: -0.273D-05-0.264D-04-0.494D-04-0.101D-03-0.832D-04 0.113D-03
 Coeff-Com:  0.312D-03 0.448D-05-0.139D-03-0.263D-04 0.415D-04 0.388D-03
 Coeff-Com:  0.200D-02-0.537D-03-0.548D-02-0.230D-01 0.988D-02 0.121D+00
 Coeff-Com:  0.388D+00 0.507D+00
 Coeff:     -0.273D-05-0.264D-04-0.494D-04-0.101D-03-0.832D-04 0.113D-03
 Coeff:      0.312D-03 0.448D-05-0.139D-03-0.263D-04 0.415D-04 0.388D-03
 Coeff:      0.200D-02-0.537D-03-0.548D-02-0.230D-01 0.988D-02 0.121D+00
 Coeff:      0.388D+00 0.507D+00
 Gap=     0.037 Goal=   None    Shift=    0.000
 RMSDP=9.49D-08 MaxDP=5.72D-06 DE=-1.05D-11 OVMax= 2.30D-06

 Cycle  30  Pass 1  IDiag  1:
 E= -86.8210607508655     Delta-E=       -0.000000000002 Rises=F Damp=F
 DIIS: error= 6.73D-08 at cycle  30 NSaved=  20.
 NSaved=20 IEnMin=20 EnMin= -86.8210607508655     IErMin=20 ErrMin= 6.73D-08
 ErrMax= 6.73D-08  0.00D+00 EMaxC= 1.00D-01 BMatC= 3.85D-13 BMatP= 1.60D-12
 IDIUse=1 WtCom= 1.00D+00 WtEn= 0.00D+00
 Coeff-Com:  0.108D-04 0.496D-05-0.340D-05-0.137D-04 0.849D-04 0.158D-03
 Coeff-Com: -0.319D-03-0.213D-03 0.246D-03 0.392D-03 0.471D-03 0.141D-02
 Coeff-Com:  0.226D-02-0.815D-03-0.988D-02-0.735D-02 0.236D-01 0.104D+00
 Coeff-Com:  0.248D+00 0.638D+00
 Coeff:      0.108D-04 0.496D-05-0.340D-05-0.137D-04 0.849D-04 0.158D-03
 Coeff:     -0.319D-03-0.213D-03 0.246D-03 0.392D-03 0.471D-03 0.141D-02
 Coeff:      0.226D-02-0.815D-03-0.988D-02-0.735D-02 0.236D-01 0.104D+00
 Coeff:      0.248D+00 0.638D+00
 Gap=     0.037 Goal=   None    Shift=    0.000
 RMSDP=2.89D-08 MaxDP=2.49D-06 DE=-2.00D-12 OVMax= 1.48D-06

 Cycle  31  Pass 1  IDiag  1:
 E= -86.8210607508661     Delta-E=       -0.000000000001 Rises=F Damp=F
 DIIS: error= 3.35D-08 at cycle  31 NSaved=  20.
 NSaved=20 IEnMin=20 EnMin= -86.8210607508661     IErMin=20 ErrMin= 3.35D-08
 ErrMax= 3.35D-08  0.00D+00 EMaxC= 1.00D-01 BMatC= 6.59D-14 BMatP= 3.85D-13
 IDIUse=1 WtCom= 1.00D+00 WtEn= 0.00D+00
 Coeff-Com:  0.714D-05 0.141D-04 0.236D-04 0.236D-04 0.993D-05-0.117D-03
 Coeff-Com: -0.128D-03 0.923D-04 0.168D-03 0.913D-04 0.314D-03 0.194D-02
 Coeff-Com:  0.442D-03-0.385D-02-0.713D-02-0.242D-02 0.119D-01 0.108D+00
 Coeff-Com:  0.384D+00 0.507D+00
 Coeff:      0.714D-05 0.141D-04 0.236D-04 0.236D-04 0.993D-05-0.117D-03
 Coeff:     -0.128D-03 0.923D-04 0.168D-03 0.913D-04 0.314D-03 0.194D-02
 Coeff:      0.442D-03-0.385D-02-0.713D-02-0.242D-02 0.119D-01 0.108D+00
 Coeff:      0.384D+00 0.507D+00
 Gap=     0.037 Goal=   None    Shift=    0.000
 RMSDP=6.57D-09 MaxDP=4.98D-07 DE=-6.25D-13 OVMax= 3.81D-07

 SCF Done:  E(ROHF) =  -86.8210607509     A.U. after   31 cycles
            NFock= 31  Conv=0.66D-08     -V/T= 2.9248
 <Sx>= 0.0000 <Sy>= 0.0000 <Sz>= 2.5000 <S**2>= 8.7500 S= 2.5000
 <L.S>=  0.00000000000    
 KE= 4.510722105641D+01 PE=-2.073481642917D+02 EE= 6.972105098217D+01
 Annihilation of the first spin contaminant:
 S**2 before annihilation     8.7500,   after     8.7500
 Leave Link  502 at Sun Feb 25 23:04:16 2018, MaxMem=  8589934592 cpu:             273.7 elap:              19.9
 (Enter /home1/apps/gaussian/16rA.03/g16/l801.exe)
 Windowed orbitals will be sorted by symmetry type.
 GenMOA:  NOpAll=  4 NOp2=4 NOpUse=  4 JSym2X=1
 FoFJK:  IHMeth= 1 ICntrl=       0 DoSepK=F KAlg= 0 I1Cent=           0 FoldK=F
 IRaf=         0 NMat=       1 IRICut=       1 DoRegI=T DoRafI=F ISym2E= 1 IDoP0=0 IntGTp=1.
 FoFCou: FMM=F IPFlag=           8 FMFlag=      100000 FMFlg1=           0
         NFxFlg=           0 DoJE=F BraDBF=F KetDBF=F FulRan=T
         wScrn=  0.000000 ICntrl=         0 IOpCl=  1 I1Cent=           0 NGrid=           0
         NMat0=    1 NMatS0=      1 NMatT0=    0 NMatD0=    1 NMtDS0=    0 NMtDT0=    0
 Petite list used in FoFCou.
 <Sx>= 0.0000 <Sy>= 0.0000 <Sz>= 2.5000 <S**2>= 8.7500 S= 2.5000
 Range of M.O.s used for correlation:     1   206
 NBasis=   215 NAE=    10 NBE=     5 NFC=     0 NFV=     0
 NROrb=    206 NOA=    10 NOB=     5 NVA=   196 NVB=   201

 **** Warning!!: The largest alpha MO coefficient is  0.28341509D+03


 **** Warning!!: The largest beta MO coefficient is  0.28335959D+03

 Singles contribution to E2=   -0.4065683101D-02
 Leave Link  801 at Sun Feb 25 23:04:21 2018, MaxMem=  8589934592 cpu:              65.0 elap:               4.1
 (Enter /home1/apps/gaussian/16rA.03/g16/l804.exe)
 Open-shell transformation, MDV=  8589934592 ITran=4 ISComp=2.
 Unit  1 TFree=       1402814 TCopy=       1069682.
 Semi-Direct transformation.
 ModeAB=           2 MOrb=            10 LenV=    8588503233
 LASXX=     10847743 LTotXX=    10847743 LenRXX=    10847743
 LTotAB=    11067855 MaxLAS=    68826660 LenRXY=    68826660
 NonZer=    70281020 LenScr=   106188800 LnRSAI=           0
 LnScr1=           0 LExtra=     4209685 Total=    190072888
 MaxDsk= 67108864000 SrtSym=           F ITran=            4
 DoSDTr:  NPSUse= 16
 JobTyp=1 Pass  1:  I=   1 to  10.
 (rs|ai) integrals will be sorted in core.
 Complete sort for first half transformation.
 First half transformation complete.
 Begin second half transformation for I=  10.
 Begin second half transformation for I=  10.
 Complete sort for second half transformation.
 Second half transformation complete.
 ModeAB=           2 MOrb=             5 LenV=    8588503233
 LASXX=      5573031 LTotXX=     5573031 LenRXX=    34413330
 LTotAB=     5140906 MaxLAS=    34413330 LenRXY=     5140906
 NonZer=    35140510 LenScr=    53473280 LnRSAI=           0
 LnScr1=           0 LExtra=    83884088 Total=    176911604
 MaxDsk= 67108864000 SrtSym=           F ITran=            4
 DoSDTr:  NPSUse= 16
 JobTyp=2 Pass  1:  I=   1 to   5.
 (rs|ai) integrals will be sorted in core.
 Complete sort for first half transformation.
 First half transformation complete.
 Complete sort for second half transformation.
 Second half transformation complete.
 Spin components of T(2) and E(2):
     alpha-alpha T2 =       0.3246355958D-01 E2=     -0.1469628854D+00
     alpha-beta  T2 =       0.6139058301D-01 E2=     -0.3889796585D+00
     beta-beta   T2 =       0.7487029414D-02 E2=     -0.4474705305D-01
 ANorm=    0.1051002923D+01
 E2 =    -0.5847552801D+00 EUMP2 =    -0.87405816030966D+02
 (S**2,0)=  0.87500D+01           (S**2,1)=  0.87500D+01
 E(PUHF)=      -0.86821060751D+02        E(PMP2)=      -0.87405816031D+02
 Leave Link  804 at Sun Feb 25 23:05:47 2018, MaxMem=  8589934592 cpu:            1372.9 elap:              85.9
 (Enter /home1/apps/gaussian/16rA.03/g16/l913.exe)
 CIDS:  MDV=  8589934592.
 IFCWin=0 IBDFC=1 NFBD=     0     0 NFCmp=     0     0 NFFFC=     0     0
 Using original routines for 1st iteration.
 Using DD4UQ or CC4UQ for 2nd and later iterations.
 Keep R2 and R3 ints in memory in symmetry-blocked form, NReq=338807128.
 FoFCou: FMM=F IPFlag=           8 FMFlag=           0 FMFlg1=           0
         NFxFlg=           0 DoJE=F BraDBF=F KetDBF=F FulRan=T
         wScrn=  0.000000 ICntrl=       600 IOpCl=  0 I1Cent=           0 NGrid=           0
         NMat0=    1 NMatS0=  23220 NMatT0=    0 NMatD0=    1 NMtDS0=    0 NMtDT0=    0
 Petite list used in FoFCou.
 CIDS: In Core Option IDoMem=           1.
 CCSD(T)
 =======
 Iterations= 150 Convergence= 0.100D-06
 Produce multiple copies of IABC intergrals
 Iteration Nr.   1
 **********************
 DD1Dir will call FoFMem   1 times, MxPair=       156
 NAB=    50 NAA=    45 NBB=    10.
 DD1Dir will call FoFMem   1 times, MxPair=       156
 NAB=    50 NAA=    45 NBB=    10.
 MP4(R+Q)=  0.62243296D-02
 Maximum subspace dimension=  5
 A-vector RMS=  3.4290025D-04 Max=  3.2288464D-03 conv= 1.00D-05.
 RLE energy=       -0.5753654058
 E3=        0.30765754D-02        EROMP3=      -0.87402739456D+02
 E4(SDQ)=  -0.88594910D-02        ROMP4(SDQ)=  -0.87411598947D+02
 VARIATIONAL ENERGIES WITH THE FIRST-ORDER WAVEFUNCTION:
 DE(Corr)= -0.57520993     E(Corr)=     -87.396270677    
 NORM(A)=   0.10480200D+01
 Iteration Nr.   2
 **********************
 DD1Dir will call FoFMem   1 times, MxPair=       156
 NAB=    50 NAA=    45 NBB=    10.
 A-vector RMS=  3.2351969D-03 Max=  2.6659932D-02 conv= 1.00D-05.
 RLE energy=       -0.5745652295
 DE(Corr)= -0.57205727     E(CORR)=     -87.393118016     Delta= 3.15D-03
 NORM(A)=   0.10482032D+01
 Iteration Nr.   3
 **********************
 DD1Dir will call FoFMem   1 times, MxPair=       156
 NAB=    50 NAA=    45 NBB=    10.
 A-vector RMS=  2.5864835D-03 Max=  2.3886720D-02 conv= 1.00D-05.
 RLE energy=       -0.5819289528
 DE(Corr)= -0.57570741     E(CORR)=     -87.396768159     Delta=-3.65D-03
 NORM(A)=   0.10531987D+01
 Iteration Nr.   4
 **********************
 DD1Dir will call FoFMem   1 times, MxPair=       156
 NAB=    50 NAA=    45 NBB=    10.
 A-vector RMS=  2.0638645D-03 Max=  2.1619619D-02 conv= 1.00D-05.
 RLE energy=       -0.6317580204
 DE(Corr)= -0.58068490     E(CORR)=     -87.401745653     Delta=-4.98D-03
 NORM(A)=   0.12549074D+01
 Iteration Nr.   5
 **********************
 DD1Dir will call FoFMem   1 times, MxPair=       156
 NAB=    50 NAA=    45 NBB=    10.
 A-vector RMS=  6.1362314D-03 Max=  5.0257075D-02 conv= 1.00D-05.
 RLE energy=       -0.6086253719
 DE(Corr)= -0.63086442     E(CORR)=     -87.451925167     Delta=-5.02D-02
 NORM(A)=   0.11638090D+01
 Iteration Nr.   6
 **********************
 DD1Dir will call FoFMem   1 times, MxPair=       156
 NAB=    50 NAA=    45 NBB=    10.
 A-vector RMS=  2.2334006D-03 Max=  1.8784668D-02 conv= 1.00D-05.
 RLE energy=       -0.5934479746
 DE(Corr)= -0.61143254     E(CORR)=     -87.432493296     Delta= 1.94D-02
 NORM(A)=   0.10940954D+01
 Iteration Nr.   7
 **********************
 DD1Dir will call FoFMem   1 times, MxPair=       156
 NAB=    50 NAA=    45 NBB=    10.
 A-vector RMS=  3.2269340D-04 Max=  7.7555415D-03 conv= 1.00D-05.
 RLE energy=       -0.5956577858
 DE(Corr)= -0.59429513     E(CORR)=     -87.415355882     Delta= 1.71D-02
 NORM(A)=   0.11061371D+01
 Iteration Nr.   8
 **********************
 DD1Dir will call FoFMem   1 times, MxPair=       156
 NAB=    50 NAA=    45 NBB=    10.
 A-vector RMS=  1.4765210D-04 Max=  2.1939558D-03 conv= 1.00D-05.
 RLE energy=       -0.5952448607
 DE(Corr)= -0.59527463     E(CORR)=     -87.416335382     Delta=-9.79D-04
 NORM(A)=   0.11079232D+01
 Iteration Nr.   9
 **********************
 DD1Dir will call FoFMem   1 times, MxPair=       156
 NAB=    50 NAA=    45 NBB=    10.
 A-vector RMS=  1.2100664D-04 Max=  1.4550448D-03 conv= 1.00D-05.
 RLE energy=       -0.5953749793
 DE(Corr)= -0.59537974     E(CORR)=     -87.416440489     Delta=-1.05D-04
 NORM(A)=   0.11098791D+01
 Iteration Nr.  10
 **********************
 DD1Dir will call FoFMem   1 times, MxPair=       156
 NAB=    50 NAA=    45 NBB=    10.
 A-vector RMS=  5.6254778D-05 Max=  5.7116814D-04 conv= 1.00D-05.
 RLE energy=       -0.5953128372
 DE(Corr)= -0.59539743     E(CORR)=     -87.416458181     Delta=-1.77D-05
 NORM(A)=   0.11101046D+01
 Iteration Nr.  11
 **********************
 DD1Dir will call FoFMem   1 times, MxPair=       156
 NAB=    50 NAA=    45 NBB=    10.
 A-vector RMS=  3.6929857D-05 Max=  3.6070699D-04 conv= 1.00D-05.
 RLE energy=       -0.5952829756
 DE(Corr)= -0.59535747     E(CORR)=     -87.416418220     Delta= 4.00D-05
 NORM(A)=   0.11097712D+01
 Iteration Nr.  12
 **********************
 DD1Dir will call FoFMem   1 times, MxPair=       156
 NAB=    50 NAA=    45 NBB=    10.
 A-vector RMS=  1.3852729D-05 Max=  1.3366098D-04 conv= 1.00D-05.
 RLE energy=       -0.5952929736
 DE(Corr)= -0.59530473     E(CORR)=     -87.416365485     Delta= 5.27D-05
 NORM(A)=   0.11097292D+01
 Iteration Nr.  13
 **********************
 DD1Dir will call FoFMem   1 times, MxPair=       156
 NAB=    50 NAA=    45 NBB=    10.
 A-vector RMS=  8.8614931D-06 Max=  8.5593573D-05 conv= 1.00D-05.
 RLE energy=       -0.5953003944
 DE(Corr)= -0.59529735     E(CORR)=     -87.416358101     Delta= 7.38D-06
 NORM(A)=   0.11098547D+01
 Iteration Nr.  14
 **********************
 DD1Dir will call FoFMem   1 times, MxPair=       156
 NAB=    50 NAA=    45 NBB=    10.
 A-vector RMS=  4.3915657D-06 Max=  5.2692417D-05 conv= 1.00D-05.
 RLE energy=       -0.5953177733
 DE(Corr)= -0.59531186     E(CORR)=     -87.416372614     Delta=-1.45D-05
 NORM(A)=   0.11099069D+01
 Iteration Nr.  15
 **********************
 DD1Dir will call FoFMem   1 times, MxPair=       156
 NAB=    50 NAA=    45 NBB=    10.
 A-vector RMS=  1.9247788D-06 Max=  2.3755432D-05 conv= 1.00D-05.
 RLE energy=       -0.5953184364
 DE(Corr)= -0.59531486     E(CORR)=     -87.416375611     Delta=-3.00D-06
 NORM(A)=   0.11099391D+01
 Iteration Nr.  16
 **********************
 DD1Dir will call FoFMem   1 times, MxPair=       156
 NAB=    50 NAA=    45 NBB=    10.
 A-vector RMS=  9.6120215D-07 Max=  1.0263382D-05 conv= 1.00D-05.
 RLE energy=       -0.5953196867
 DE(Corr)= -0.59531848     E(CORR)=     -87.416379236     Delta=-3.62D-06
 NORM(A)=   0.11099494D+01
 Iteration Nr.  17
 **********************
 DD1Dir will call FoFMem   1 times, MxPair=       156
 NAB=    50 NAA=    45 NBB=    10.
 A-vector RMS=  5.7389161D-07 Max=  5.0414057D-06 conv= 1.00D-05.
 RLE energy=       -0.5953194807
 DE(Corr)= -0.59531914     E(CORR)=     -87.416379889     Delta=-6.53D-07
 NORM(A)=   0.11099525D+01
 Iteration Nr.  18
 **********************
 DD1Dir will call FoFMem   1 times, MxPair=       156
 NAB=    50 NAA=    45 NBB=    10.
 A-vector RMS=  3.2239620D-07 Max=  3.1371606D-06 conv= 1.00D-05.
 RLE energy=       -0.5953188108
 DE(Corr)= -0.59531911     E(CORR)=     -87.416379857     Delta= 3.26D-08
 NORM(A)=   0.11099509D+01
 CI/CC converged in   18 iterations to DelEn= 3.26D-08 Conv= 1.00D-07 ErrA1= 3.22D-07 Conv= 1.00D-05
 Wavefunction amplitudes converged. E(Corr)=     -87.416379857    
 Dominant configurations:
 ***********************
 Spin Case        I    J    A    B          Value
    AA           10        13            0.111979D+00
    AA           10        17            0.158370D+00
 Largest amplitude= 1.58D-01
 Time for triples=     4951.44 seconds.
 T4(CCSD)= -0.22656414D-01
 T5(CCSD)=  0.23830463D-02
 CCSD(T)= -0.87436653224D+02
 Discarding MO integrals.
 Leave Link  913 at Sun Feb 25 23:13:14 2018, MaxMem=  8589934592 cpu:            7134.6 elap:             446.7
 (Enter /home1/apps/gaussian/16rA.03/g16/l601.exe)
 Copying SCF densities to generalized density rwf, IOpCl= 0 IROHF=1.

 **********************************************************************

            Population analysis using the SCF density.

 **********************************************************************

 Orbital symmetries:
       Occupied  (SG) (SG) (PI) (PI) (SG) (SG) (PI) (PI) (DLTA)
                 (DLTA)
       Virtual   (PI) (PI) (SG) (SG) (SG) (PI) (PI) (DLTA) (DLTA)
                 (PI) (PI) (SG) (SG) (SG) (PI) (PI) (SG) (SG) (PI)
                 (PI) (DLTA) (DLTA) (PI) (PI) (SG) (SG) (PHI) (PHI)
                 (DLTA) (DLTA) (SG) (PI) (PI) (SG) (PI) (PI) (SG)
                 (PI) (PI) (DLTA) (DLTA) (SG) (DLTA) (DLTA) (PI)
                 (PI) (SG) (SG) (PI) (PI) (SG) (DLTA) (DLTA) (PHI)
                 (PHI) (PI) (PI) (PI) (PI) (SG) (?A) (?A) (PHI)
                 (PHI) (SG) (DLTA) (DLTA) (SG) (PI) (PI) (DLTA)
                 (DLTA) (PI) (PI) (SG) (SG) (DLTA) (DLTA) (PI)
                 (PI) (SG) (PI) (PI) (SG) (PHI) (PHI) (DLTA) (DLTA)
                 (PI) (PI) (SG) (PI) (PI) (SG) (PHI) (PHI) (?A)
                 (?A) (SG) (DLTA) (DLTA) (PI) (PI) (SG) (DLTA)
                 (DLTA) (PI) (PI) (SG) (SG) (DLTA) (DLTA) (PHI)
                 (PHI) (PI) (PI) (SG) (PI) (PI) (SG) (SG) (DLTA)
                 (DLTA) (PI) (PI) (SG) (PHI) (PHI) (?A) (?A) (DLTA)
                 (DLTA) (PI) (PI) (SG) (PI) (PI) (SG) (SG) (DLTA)
                 (DLTA) (PI) (PI) (SG) (PI) (PI) (SG) (SG) (SG)
                 (DLTA) (DLTA) (PI) (PI) (SG) (PI) (PI) (SG) (SG)
                 (PI) (PI) (SG) (SG) (DLTA) (DLTA) (PI) (PI) (SG)
                 (PI) (PI) (SG) (SG) (PI) (PI) (SG) (SG) (PI) (PI)
                 (SG) (SG) (SG) (PI) (PI) (SG) (SG) (PI) (PI) (SG)
                 (SG) (PI) (PI) (SG) (SG) (SG) (SG) (SG) (SG)
 The electronic state is 6-SG.
 Alpha  occ. eigenvalues --   -3.60936  -2.37129  -2.37129  -2.34548  -0.47826
 Alpha  occ. eigenvalues --   -0.47826  -0.45096  -0.44914  -0.44914  -0.25259
 Alpha virt. eigenvalues --    0.01633   0.01633   0.02087   0.02361   0.06006
 Alpha virt. eigenvalues --    0.06006   0.06117   0.07813   0.07813   0.08106
 Alpha virt. eigenvalues --    0.08106   0.08287   0.10042   0.19311   0.21782
 Alpha virt. eigenvalues --    0.21782   0.24859   0.25893   0.27550   0.27550
 Alpha virt. eigenvalues --    0.27904   0.27904   0.35520   0.35520   0.36569
 Alpha virt. eigenvalues --    0.47802   0.64134   0.64134   0.64469   0.64469
 Alpha virt. eigenvalues --    0.70841   0.70841   0.71304   0.73657   0.76263
 Alpha virt. eigenvalues --    0.76263   0.83609   0.88857   0.88857   0.91814
 Alpha virt. eigenvalues --    0.91814   1.08131   1.10178   1.10178   1.12288
 Alpha virt. eigenvalues --    1.12288   1.14877   1.50781   1.59657   1.59657
 Alpha virt. eigenvalues --    1.96224   1.96224   1.96361   1.96730   1.96730
 Alpha virt. eigenvalues --    2.24092   2.24092   2.27158   2.27158   2.28449
 Alpha virt. eigenvalues --    2.32453   2.32453   2.32894   2.32894   2.38749
 Alpha virt. eigenvalues --    2.53515   2.53515   2.65726   2.81825   2.81825
 Alpha virt. eigenvalues --    2.85910   2.85910   2.90486   2.90486   3.18362
 Alpha virt. eigenvalues --    3.30513   4.18031   4.18031   4.59109   4.59109
 Alpha virt. eigenvalues --    4.64416   5.05073   5.05073   5.35223   5.38501
 Alpha virt. eigenvalues --    5.38501   5.39510   5.39510   5.68832   5.68832
 Alpha virt. eigenvalues --    6.10639   6.38221   6.38221   6.49726   6.94648
 Alpha virt. eigenvalues --    6.94648   6.95178   6.95178   7.00451   7.04898
 Alpha virt. eigenvalues --    7.04898   7.20602   7.20602   7.73250   7.85422
 Alpha virt. eigenvalues --    7.85422   7.93165   7.93165   8.45544  11.03804
 Alpha virt. eigenvalues --   14.23114  14.23114  14.23956  14.23956  14.40136
 Alpha virt. eigenvalues --   14.40136  14.65292  14.95908  14.95908  15.11922
 Alpha virt. eigenvalues --   16.99224  18.01624  18.01624  18.04572  18.04572
 Alpha virt. eigenvalues --   18.38448  18.51815  18.51815  18.53017  18.53017
 Alpha virt. eigenvalues --   18.56766  18.56766  18.63281  18.63281  18.93318
 Alpha virt. eigenvalues --   30.15784  30.15784  30.32809  35.90388  38.83014
 Alpha virt. eigenvalues --   38.83014  38.85394  38.85394  39.13621  56.34307
 Alpha virt. eigenvalues --   56.34307  56.50851  64.44669  68.49595 103.06645
 Alpha virt. eigenvalues --  103.06645 103.08656 103.08656 103.18590 104.70902
 Alpha virt. eigenvalues --  104.70902 104.94825 123.92761 200.24142 200.24142
 Alpha virt. eigenvalues --  200.38092 230.94590 359.20809 359.20809 359.22424
 Alpha virt. eigenvalues --  359.22424 359.35009 398.45817 398.45817 398.59530
 Alpha virt. eigenvalues --  448.78244 833.15129 833.15129 833.27892 905.99799
 Alpha virt. eigenvalues -- 1859.278681859.278681859.393741901.952014166.96038
 Alpha virt. eigenvalues -- 4545.187744545.187744545.291289581.51423**********
 Alpha virt. eigenvalues -- **************************************************
 Alpha virt. eigenvalues -- **************************************************
 Alpha virt. eigenvalues -- **********
     Molecular Orbital Coefficients:
                           1         2         3         4         5
                           O         O         O         O         O
     Eigenvalues --    -3.60936  -2.37129  -2.37129  -2.34548  -0.47826
   1 1   Cr 1S         -0.00000   0.00000   0.00000   0.00000  -0.00000
   2        2S          0.00000  -0.00000   0.00000   0.00000   0.00000
   3        3S         -0.00000   0.00000   0.00000   0.00000  -0.00000
   4        4S          0.00000  -0.00000   0.00000   0.00000   0.00000
   5        5S         -0.00000   0.00000   0.00000   0.00000  -0.00000
   6        6S          0.00002  -0.00000   0.00000   0.00000   0.00000
   7        7S         -0.00005   0.00000   0.00000   0.00000  -0.00001
   8        8S          0.00017  -0.00000   0.00000   0.00000   0.00003
   9        9S         -0.00053   0.00001   0.00000   0.00000  -0.00010
  10       10S          0.00148  -0.00003   0.00000   0.00000   0.00027
  11       11S         -0.00393   0.00008   0.00000   0.00000  -0.00073
  12       12S          0.01004  -0.00019   0.00000   0.00000   0.00191
  13       13S         -0.02933   0.00057   0.00000   0.00000  -0.00601
  14       14S         -0.07568  -0.00120   0.00000   0.00000  -0.01189
  15       15S          1.57188   0.01363   0.00000   0.00000   0.32402
  16       16S         -0.20506   0.00599   0.00000   0.00000  -0.02952
  17       17S         -0.86025   0.01402   0.00000   0.00000  -0.21087
  18       18S         -0.26724   0.01196   0.00000   0.00000  -0.11451
  19       19S          0.00930   0.00278   0.00000   0.00000   0.05873
  20       20S          0.00182  -0.00620   0.00000   0.00000   0.01531
  21       21S         -1.13182  -0.01745   0.00000   0.00000  -0.24811
  22       22S          0.12256  -0.01779   0.00000   0.00000   0.00638
  23       23S          0.00028  -0.00204   0.00000   0.00000  -0.01268
  24       24PX         0.00000   0.00000  -0.00000   0.00000   0.00000
  25       24PY         0.00000   0.00000   0.00000  -0.00000   0.00000
  26       24PZ         0.00000  -0.00000   0.00000   0.00000  -0.00000
  27       25PX         0.00000   0.00000   0.00000   0.00000   0.00000
  28       25PY         0.00000   0.00000   0.00000   0.00000   0.00000
  29       25PZ        -0.00000   0.00000   0.00000   0.00000   0.00000
  30       26PX         0.00000   0.00000  -0.00001   0.00000   0.00000
  31       26PY         0.00000   0.00000   0.00000  -0.00001   0.00000
  32       26PZ         0.00000  -0.00001   0.00000   0.00000  -0.00000
  33       27PX         0.00000   0.00000   0.00003   0.00000   0.00000
  34       27PY         0.00000   0.00000   0.00000   0.00003   0.00000
  35       27PZ        -0.00000   0.00003   0.00000   0.00000   0.00001
  36       28PX         0.00000   0.00000  -0.00011   0.00000   0.00000
  37       28PY         0.00000   0.00000   0.00000  -0.00011   0.00000
  38       28PZ         0.00001  -0.00011   0.00000   0.00000  -0.00003
  39       29PX         0.00000   0.00000   0.00039   0.00000   0.00000
  40       29PY         0.00000   0.00000   0.00000   0.00039   0.00000
  41       29PZ        -0.00002   0.00037   0.00000   0.00000   0.00011
  42       30PX         0.00000   0.00000  -0.00139   0.00000   0.00000
  43       30PY         0.00000   0.00000   0.00000  -0.00139   0.00000
  44       30PZ         0.00005  -0.00133   0.00000   0.00000  -0.00038
  45       31PX         0.00000   0.00000   0.00696   0.00000   0.00000
  46       31PY         0.00000   0.00000   0.00000   0.00696   0.00000
  47       31PZ        -0.00014   0.00675   0.00000   0.00000   0.00172
  48       32PX         0.00000   0.00000  -0.04442   0.00000   0.00000
  49       32PY         0.00000   0.00000   0.00000  -0.04442   0.00000
  50       32PZ         0.00046  -0.04337   0.00000   0.00000  -0.01083
  51       33PX         0.00000   0.00000   0.50869   0.00000   0.00000
  52       33PY         0.00000   0.00000   0.00000   0.50869   0.00000
  53       33PZ         0.02024   0.52349   0.00000   0.00000   0.05111
  54       34PX         0.00000   0.00000   0.31428   0.00000   0.00000
  55       34PY         0.00000   0.00000   0.00000   0.31428   0.00000
  56       34PZ         0.00053   0.31043   0.00000   0.00000   0.06930
  57       35PX         0.00000   0.00000   0.31560   0.00000   0.00000
  58       35PY         0.00000   0.00000   0.00000   0.31560   0.00000
  59       35PZ        -0.00703   0.31268   0.00000   0.00000   0.05148
  60       36PX         0.00000   0.00000   0.27152   0.00000   0.00000
  61       36PY         0.00000   0.00000   0.00000   0.27152   0.00000
  62       36PZ        -0.00462   0.26565   0.00000   0.00000   0.05889
  63       37PX         0.00000   0.00000   0.04098   0.00000   0.00000
  64       37PY         0.00000   0.00000   0.00000   0.04098   0.00000
  65       37PZ        -0.00842   0.03797   0.00000   0.00000  -0.00188
  66       38PX         0.00000   0.00000  -0.00522   0.00000   0.00000
  67       38PY         0.00000   0.00000   0.00000  -0.00522   0.00000
  68       38PZ        -0.00389  -0.00314   0.00000   0.00000   0.02187
  69       39PX         0.00000   0.00000   0.00248   0.00000   0.00000
  70       39PY         0.00000   0.00000   0.00000   0.00248   0.00000
  71       39PZ        -0.00011   0.00486   0.00000   0.00000   0.00513
  72       40PX         0.00000   0.00000  -0.46221   0.00000   0.00000
  73       40PY         0.00000   0.00000   0.00000  -0.46221   0.00000
  74       40PZ        -0.01943  -0.47696   0.00000   0.00000  -0.04116
  75       41PX         0.00000   0.00000   0.13783   0.00000   0.00000
  76       41PY         0.00000   0.00000   0.00000   0.13783   0.00000
  77       41PZ         0.01132   0.14045   0.00000   0.00000   0.04149
  78       42PX         0.00000   0.00000  -0.00074   0.00000   0.00000
  79       42PY         0.00000   0.00000   0.00000  -0.00074   0.00000
  80       42PZ        -0.00019   0.00033   0.00000   0.00000   0.00594
  81       43D 0        0.00000   0.00000   0.00000   0.00000   0.00006
  82       43D+1        0.00000   0.00000  -0.00000   0.00000   0.00000
  83       43D-1        0.00000   0.00000   0.00000  -0.00000   0.00000
  84       43D+2       -0.00000  -0.00000   0.00000   0.00000  -0.00000
  85       43D-2        0.00000   0.00000   0.00000   0.00000   0.00000
  86       44D 0       -0.00002  -0.00003   0.00000   0.00000  -0.00040
  87       44D+1        0.00000   0.00000   0.00001   0.00000   0.00000
  88       44D-1        0.00000   0.00000   0.00000   0.00001   0.00000
  89       44D+2        0.00000   0.00000   0.00000   0.00000   0.00000
  90       44D-2        0.00000   0.00000   0.00000   0.00000   0.00000
  91       45D 0       -0.00006   0.00070   0.00000   0.00000   0.01710
  92       45D+1        0.00000   0.00000  -0.00037   0.00000   0.00000
  93       45D-1        0.00000   0.00000   0.00000  -0.00037   0.00000
  94       45D+2       -0.00000  -0.00000   0.00000   0.00000  -0.00000
  95       45D-2        0.00000   0.00000   0.00000   0.00000   0.00000
  96       46D 0       -0.00560   0.00234   0.00000   0.00000   0.12607
  97       46D+1        0.00000   0.00000  -0.00255   0.00000   0.00000
  98       46D-1        0.00000   0.00000   0.00000  -0.00255   0.00000
  99       46D+2       -0.00000  -0.00000   0.00000   0.00000  -0.00000
 100       46D-2        0.00000   0.00000   0.00000   0.00000   0.00000
 101       47D 0        0.04095   0.02557   0.00000   0.00000   0.07413
 102       47D+1        0.00000   0.00000   0.00061   0.00000   0.00000
 103       47D-1        0.00000   0.00000   0.00000   0.00061   0.00000
 104       47D+2       -0.00000  -0.00000   0.00000   0.00000  -0.00000
 105       47D-2        0.00000   0.00000   0.00000   0.00000   0.00000
 106       48D 0        0.00114   0.00261   0.00000   0.00000   0.11580
 107       48D+1        0.00000   0.00000   0.00166   0.00000   0.00000
 108       48D-1        0.00000   0.00000   0.00000   0.00166   0.00000
 109       48D+2       -0.00000   0.00000   0.00000   0.00000  -0.00000
 110       48D-2        0.00000   0.00000   0.00000   0.00000   0.00000
 111       49D 0        0.00449  -0.00117   0.00000   0.00000   0.07108
 112       49D+1        0.00000   0.00000   0.00184   0.00000   0.00000
 113       49D-1        0.00000   0.00000   0.00000   0.00184   0.00000
 114       49D+2       -0.00000   0.00000   0.00000   0.00000  -0.00000
 115       49D-2        0.00000   0.00000   0.00000   0.00000   0.00000
 116       50D 0        0.00084  -0.00061   0.00000   0.00000   0.00825
 117       50D+1        0.00000   0.00000   0.00041   0.00000   0.00000
 118       50D-1        0.00000   0.00000   0.00000   0.00041   0.00000
 119       50D+2       -0.00000   0.00000   0.00000   0.00000  -0.00000
 120       50D-2        0.00000   0.00000   0.00000   0.00000   0.00000
 121       51D 0        0.00493   0.00024   0.00000   0.00000  -0.05251
 122       51D+1        0.00000   0.00000   0.00077   0.00000   0.00000
 123       51D-1        0.00000   0.00000   0.00000   0.00077   0.00000
 124       51D+2        0.00000   0.00000   0.00000   0.00000   0.00000
 125       51D-2        0.00000   0.00000   0.00000   0.00000   0.00000
 126       52D 0       -0.04460  -0.02263   0.00000   0.00000   0.03568
 127       52D+1        0.00000   0.00000  -0.00266   0.00000   0.00000
 128       52D-1        0.00000   0.00000   0.00000  -0.00266   0.00000
 129       52D+2       -0.00000  -0.00000   0.00000   0.00000  -0.00000
 130       52D-2        0.00000   0.00000   0.00000   0.00000   0.00000
 131       53D 0        0.00000  -0.00057   0.00000   0.00000  -0.00165
 132       53D+1        0.00000   0.00000   0.00001   0.00000   0.00000
 133       53D-1        0.00000   0.00000   0.00000   0.00001   0.00000
 134       53D+2        0.00000  -0.00000   0.00000   0.00000   0.00000
 135       53D-2        0.00000   0.00000   0.00000   0.00000   0.00000
 136       54F 0       -0.00025  -0.00054   0.00000   0.00000  -0.00112
 137       54F+1        0.00000   0.00000   0.00126   0.00000   0.00000
 138       54F-1        0.00000   0.00000   0.00000   0.00126   0.00000
 139       54F+2        0.00000   0.00000   0.00000   0.00000   0.00000
 140       54F-2        0.00000   0.00000   0.00000   0.00000   0.00000
 141       54F+3        0.00000   0.00000   0.00000   0.00000   0.00000
 142       54F-3        0.00000   0.00000   0.00000   0.00000   0.00000
 143       55F 0       -0.00025  -0.00045   0.00000   0.00000  -0.00578
 144       55F+1        0.00000   0.00000   0.00246   0.00000   0.00000
 145       55F-1        0.00000   0.00000   0.00000   0.00246   0.00000
 146       55F+2        0.00000   0.00000   0.00000   0.00000   0.00000
 147       55F-2        0.00000   0.00000   0.00000   0.00000   0.00000
 148       55F+3        0.00000   0.00000   0.00000   0.00000   0.00000
 149       55F-3        0.00000   0.00000   0.00000   0.00000   0.00000
 150       56F 0       -0.00120  -0.00114   0.00000   0.00000  -0.00880
 151       56F+1        0.00000   0.00000   0.00099   0.00000   0.00000
 152       56F-1        0.00000   0.00000   0.00000   0.00099   0.00000
 153       56F+2       -0.00000   0.00000   0.00000   0.00000   0.00000
 154       56F-2        0.00000   0.00000   0.00000   0.00000   0.00000
 155       56F+3        0.00000   0.00000  -0.00000   0.00000   0.00000
 156       56F-3        0.00000   0.00000   0.00000  -0.00000   0.00000
 157       57F 0       -0.00087  -0.00032   0.00000   0.00000   0.00011
 158       57F+1        0.00000   0.00000  -0.00030   0.00000   0.00000
 159       57F-1        0.00000   0.00000   0.00000  -0.00030   0.00000
 160       57F+2       -0.00000   0.00000   0.00000   0.00000   0.00000
 161       57F-2        0.00000   0.00000   0.00000   0.00000   0.00000
 162       57F+3        0.00000   0.00000  -0.00000   0.00000   0.00000
 163       57F-3        0.00000   0.00000   0.00000  -0.00000   0.00000
 164       58G 0        0.00018  -0.00016   0.00000   0.00000   0.00026
 165       58G+1        0.00000   0.00000  -0.00010   0.00000   0.00000
 166       58G-1        0.00000   0.00000   0.00000  -0.00010   0.00000
 167       58G+2       -0.00000   0.00000   0.00000   0.00000   0.00000
 168       58G-2        0.00000   0.00000   0.00000   0.00000   0.00000
 169       58G+3        0.00000   0.00000   0.00000   0.00000   0.00000
 170       58G-3        0.00000   0.00000   0.00000   0.00000   0.00000
 171       58G+4        0.00000  -0.00000   0.00000   0.00000  -0.00000
 172       58G-4        0.00000   0.00000   0.00000   0.00000   0.00000
 173       59G 0        0.00027  -0.00030   0.00000   0.00000   0.00141
 174       59G+1        0.00000   0.00000  -0.00001   0.00000   0.00000
 175       59G-1        0.00000   0.00000   0.00000  -0.00001   0.00000
 176       59G+2       -0.00000  -0.00000   0.00000   0.00000   0.00000
 177       59G-2        0.00000   0.00000   0.00000   0.00000   0.00000
 178       59G+3        0.00000   0.00000  -0.00000   0.00000   0.00000
 179       59G-3        0.00000   0.00000   0.00000  -0.00000   0.00000
 180       59G+4        0.00000   0.00000   0.00000   0.00000   0.00000
 181       59G-4        0.00000   0.00000   0.00000   0.00000   0.00000
 182       60G 0        0.00060  -0.00034   0.00000   0.00000   0.00139
 183       60G+1        0.00000   0.00000   0.00009   0.00000   0.00000
 184       60G-1        0.00000   0.00000   0.00000   0.00009   0.00000
 185       60G+2       -0.00000   0.00000   0.00000   0.00000   0.00000
 186       60G-2        0.00000   0.00000   0.00000   0.00000   0.00000
 187       60G+3        0.00000   0.00000  -0.00000   0.00000   0.00000
 188       60G-3        0.00000   0.00000   0.00000  -0.00000   0.00000
 189       60G+4        0.00000   0.00000   0.00000   0.00000  -0.00000
 190       60G-4        0.00000   0.00000   0.00000   0.00000   0.00000
 191 2   H  1S         -0.00013  -0.00047   0.00000   0.00000   0.00386
 192        2S         -0.00103  -0.00435   0.00000   0.00000   0.04130
 193        3S         -0.00412  -0.01731   0.00000   0.00000   0.16061
 194        4S         -0.01396  -0.01900   0.00000   0.00000   0.40102
 195        5S         -0.01107   0.00153   0.00000   0.00000   0.41634
 196        6S         -0.00146   0.00860   0.00000   0.00000   0.05358
 197        7PX         0.00000   0.00000   0.00098   0.00000   0.00000
 198        7PY         0.00000   0.00000   0.00000   0.00098   0.00000
 199        7PZ        -0.00219  -0.00496   0.00000   0.00000   0.00887
 200        8PX         0.00000   0.00000   0.00087   0.00000   0.00000
 201        8PY         0.00000   0.00000   0.00000   0.00087   0.00000
 202        8PZ        -0.00575  -0.00424   0.00000   0.00000   0.04921
 203        9PX         0.00000   0.00000   0.00054   0.00000   0.00000
 204        9PY         0.00000   0.00000   0.00000   0.00054   0.00000
 205        9PZ        -0.00295   0.00204   0.00000   0.00000   0.05363
 206       10D 0       -0.00137  -0.00166   0.00000   0.00000   0.00442
 207       10D+1        0.00000   0.00000   0.00065   0.00000   0.00000
 208       10D-1        0.00000   0.00000   0.00000   0.00065   0.00000
 209       10D+2        0.00000   0.00000   0.00000   0.00000   0.00000
 210       10D-2        0.00000   0.00000   0.00000   0.00000   0.00000
 211       11D 0       -0.00053  -0.00019   0.00000   0.00000   0.00647
 212       11D+1        0.00000   0.00000   0.00003   0.00000   0.00000
 213       11D-1        0.00000   0.00000   0.00000   0.00003   0.00000
 214       11D+2        0.00000   0.00000   0.00000   0.00000   0.00000
[...]
 215       11D-2        0.00000   0.00000   0.00000   0.00000   0.00000
     Gross orbital populations:
                         Total     Alpha     Beta      Spin
   1 1   Cr 1S          0.00000   0.00000   0.00000   0.00000
   2        2S         -0.00000  -0.00000  -0.00000  -0.00000
   3        3S          0.00000   0.00000   0.00000   0.00000
   4        4S         -0.00000  -0.00000  -0.00000  -0.00000
   5        5S          0.00000   0.00000   0.00000   0.00000
   6        6S         -0.00000  -0.00000  -0.00000  -0.00000
   7        7S          0.00000   0.00000   0.00000   0.00000
   8        8S         -0.00000  -0.00000  -0.00000  -0.00000
   9        9S          0.00000   0.00000   0.00000   0.00000
  10       10S         -0.00002  -0.00001  -0.00001  -0.00000
  11       11S          0.00011   0.00005   0.00005   0.00000
  12       12S         -0.00061  -0.00031  -0.00030  -0.00001
  13       13S          0.00490   0.00249   0.00241   0.00008
  14       14S          0.03052   0.01550   0.01502   0.00048
  15       15S         -1.37158  -0.69790  -0.67368  -0.02421
  16       16S          0.31588   0.15889   0.15698   0.00191
  17       17S          1.68204   0.84680   0.83524   0.01155
  18       18S          0.45796   0.22027   0.23769  -0.01743
  19       19S          0.45924   0.43184   0.02740   0.40445
  20       20S          0.28179   0.27454   0.00725   0.26730
  21       21S          1.09190   0.55639   0.53551   0.02087
  22       22S         -0.23454  -0.11750  -0.11704  -0.00047
  23       23S         -0.00674  -0.00246  -0.00428   0.00182
  24       24PX        -0.00000  -0.00000  -0.00000   0.00000
  25       24PY        -0.00000  -0.00000  -0.00000   0.00000
  26       24PZ        -0.00000  -0.00000  -0.00000  -0.00000
  27       25PX         0.00000   0.00000   0.00000  -0.00000
  28       25PY         0.00000   0.00000   0.00000  -0.00000
  29       25PZ         0.00000   0.00000   0.00000   0.00000
  30       26PX        -0.00000  -0.00000  -0.00000   0.00000
  31       26PY        -0.00000  -0.00000  -0.00000   0.00000
  32       26PZ        -0.00000  -0.00000  -0.00000  -0.00000
  33       27PX         0.00000   0.00000   0.00000  -0.00000
  34       27PY         0.00000   0.00000   0.00000  -0.00000
  35       27PZ         0.00000   0.00000   0.00000   0.00000
  36       28PX        -0.00000  -0.00000  -0.00000   0.00000
  37       28PY        -0.00000  -0.00000  -0.00000   0.00000
  38       28PZ        -0.00000  -0.00000  -0.00000  -0.00000
  39       29PX         0.00002   0.00001   0.00001  -0.00000
  40       29PY         0.00002   0.00001   0.00001  -0.00000
  41       29PZ         0.00002   0.00001   0.00001   0.00000
  42       30PX        -0.00020  -0.00010  -0.00010   0.00000
  43       30PY        -0.00020  -0.00010  -0.00010   0.00000
  44       30PZ        -0.00021  -0.00010  -0.00010  -0.00000
  45       31PX         0.00239   0.00119   0.00119   0.00000
  46       31PY         0.00239   0.00119   0.00119   0.00000
  47       31PZ         0.00243   0.00122   0.00121   0.00001
  48       32PX        -0.03136  -0.01568  -0.01568  -0.00000
  49       32PY        -0.03136  -0.01568  -0.01568  -0.00000
  50       32PZ        -0.03202  -0.01612  -0.01591  -0.00021
  51       33PX         0.62392   0.31201   0.31190   0.00011
  52       33PY         0.62392   0.31201   0.31190   0.00011
  53       33PZ         0.65317   0.32862   0.32455   0.00407
  54       34PX         0.55083   0.27543   0.27540   0.00004
  55       34PY         0.55083   0.27543   0.27540   0.00004
  56       34PZ         0.56121   0.28197   0.27923   0.00274
  57       35PX         0.62330   0.31166   0.31164   0.00001
  58       35PY         0.62330   0.31166   0.31164   0.00001
  59       35PZ         0.62431   0.31292   0.31139   0.00153
  60       36PX         0.46673   0.23337   0.23336   0.00001
  61       36PY         0.46673   0.23337   0.23336   0.00001
  62       36PZ         0.44248   0.21994   0.22255  -0.00261
  63       37PX         0.04222   0.02148   0.02074   0.00074
  64       37PY         0.04222   0.02148   0.02074   0.00074
  65       37PZ         0.06969   0.04926   0.02044   0.02882
  66       38PX        -0.00183  -0.00060  -0.00123   0.00063
  67       38PY        -0.00183  -0.00060  -0.00123   0.00063
  68       38PZ         0.04754   0.05790  -0.01036   0.06826
  69       39PX         0.00048   0.00026   0.00022   0.00004
  70       39PY         0.00048   0.00026   0.00022   0.00004
  71       39PZ         0.02013   0.02113  -0.00100   0.02213
  72       40PX        -0.54792  -0.27401  -0.27391  -0.00010
  73       40PY        -0.54792  -0.27401  -0.27391  -0.00010
  74       40PZ        -0.57407  -0.28878  -0.28529  -0.00349
  75       41PX         0.27223   0.13612   0.13611   0.00000
  76       41PY         0.27223   0.13612   0.13611   0.00000
  77       41PZ         0.28295   0.14180   0.14115   0.00064
  78       42PX        -0.00005  -0.00002  -0.00002   0.00000
  79       42PY        -0.00005  -0.00002  -0.00002   0.00000
  80       42PZ        -0.00251  -0.00174  -0.00077  -0.00097
  81       43D 0        0.00000   0.00000   0.00000   0.00000
  82       43D+1        0.00001   0.00001   0.00000   0.00001
  83       43D-1        0.00001   0.00001   0.00000   0.00001
  84       43D+2        0.00000   0.00000   0.00000   0.00000
  85       43D-2        0.00000   0.00000   0.00000   0.00000
  86       44D 0       -0.00006  -0.00005  -0.00002  -0.00003
  87       44D+1       -0.00020  -0.00020  -0.00000  -0.00020
  88       44D-1       -0.00020  -0.00020  -0.00000  -0.00020
  89       44D+2       -0.00020  -0.00020  -0.00000  -0.00020
  90       44D-2       -0.00020  -0.00020  -0.00000  -0.00020
  91       45D 0        0.00774   0.00576   0.00198   0.00378
  92       45D+1        0.02376   0.02375   0.00000   0.02375
  93       45D-1        0.02376   0.02375   0.00000   0.02375
  94       45D+2        0.02336   0.02336   0.00000   0.02336
  95       45D-2        0.02336   0.02336   0.00000   0.02336
  96       46D 0        0.10224   0.07500   0.02724   0.04777
  97       46D+1        0.29624   0.29624   0.00001   0.29623
  98       46D-1        0.29624   0.29624   0.00001   0.29623
  99       46D+2        0.29067   0.29067   0.00000   0.29067
 100       46D-2        0.29067   0.29067   0.00000   0.29067
 101       47D 0        0.07729   0.05366   0.02363   0.03003
 102       47D+1        0.18665   0.18665  -0.00000   0.18665
 103       47D-1        0.18665   0.18665  -0.00000   0.18665
 104       47D+2        0.18389   0.18389   0.00000   0.18389
 105       47D-2        0.18389   0.18389   0.00000   0.18389
 106       48D 0        0.17415   0.12216   0.05199   0.07017
 107       48D+1        0.31079   0.31079   0.00000   0.31078
 108       48D-1        0.31079   0.31079   0.00000   0.31078
 109       48D+2        0.31305   0.31305   0.00000   0.31305
 110       48D-2        0.31305   0.31305   0.00000   0.31305
 111       49D 0        0.13159   0.09522   0.03637   0.05886
 112       49D+1        0.14067   0.14067   0.00000   0.14067
 113       49D-1        0.14067   0.14067   0.00000   0.14067
 114       49D+2        0.15019   0.15019   0.00000   0.15019
 115       49D-2        0.15019   0.15019   0.00000   0.15019
 116       50D 0        0.01838   0.01573   0.00265   0.01308
 117       50D+1        0.01207   0.01207   0.00000   0.01207
 118       50D-1        0.01207   0.01207   0.00000   0.01207
 119       50D+2        0.01411   0.01411   0.00000   0.01411
 120       50D-2        0.01411   0.01411   0.00000   0.01411
 121       51D 0       -0.04319  -0.03115  -0.01204  -0.01911
 122       51D+1       -0.12103  -0.12103  -0.00000  -0.12102
 123       51D-1       -0.12103  -0.12103  -0.00000  -0.12102
 124       51D+2       -0.11854  -0.11854  -0.00000  -0.11854
 125       51D-2       -0.11854  -0.11854  -0.00000  -0.11854
 126       52D 0        0.05061   0.03906   0.01155   0.02751
 127       52D+1        0.14621   0.14621   0.00001   0.14620
 128       52D-1        0.14621   0.14621   0.00001   0.14620
 129       52D+2        0.14374   0.14374   0.00000   0.14374
 130       52D-2        0.14374   0.14374   0.00000   0.14374
 131       53D 0       -0.00038  -0.00021  -0.00018  -0.00003
 132       53D+1       -0.00017  -0.00017   0.00000  -0.00017
 133       53D-1       -0.00017  -0.00017   0.00000  -0.00017
 134       53D+2       -0.00020  -0.00020  -0.00000  -0.00020
 135       53D-2       -0.00020  -0.00020  -0.00000  -0.00020
 136       54F 0        0.00002   0.00001   0.00001   0.00000
 137       54F+1        0.00001   0.00000   0.00000   0.00000
 138       54F-1        0.00001   0.00000   0.00000   0.00000
 139       54F+2       -0.00000  -0.00000   0.00000  -0.00000
 140       54F-2       -0.00000  -0.00000   0.00000  -0.00000
 141       54F+3        0.00000   0.00000   0.00000   0.00000
 142       54F-3        0.00000   0.00000   0.00000   0.00000
 143       55F 0        0.00050   0.00025   0.00025   0.00000
 144       55F+1        0.00002   0.00001   0.00001  -0.00000
 145       55F-1        0.00002   0.00001   0.00001  -0.00000
 146       55F+2        0.00000   0.00000   0.00000   0.00000
 147       55F-2        0.00000   0.00000   0.00000   0.00000
 148       55F+3        0.00000   0.00000   0.00000  -0.00000
 149       55F-3        0.00000   0.00000   0.00000  -0.00000
 150       56F 0        0.00288   0.00146   0.00142   0.00004
 151       56F+1        0.00000  -0.00000   0.00000  -0.00000
 152       56F-1        0.00000  -0.00000   0.00000  -0.00000
 153       56F+2        0.00004   0.00004   0.00000   0.00004
 154       56F-2        0.00004   0.00004   0.00000   0.00004
 155       56F+3        0.00000   0.00000  -0.00000   0.00000
 156       56F-3        0.00000   0.00000  -0.00000   0.00000
 157       57F 0       -0.00017  -0.00015  -0.00003  -0.00012
 158       57F+1       -0.00000  -0.00000  -0.00000  -0.00000
 159       57F-1       -0.00000  -0.00000  -0.00000  -0.00000
 160       57F+2        0.00008   0.00008   0.00000   0.00008
 161       57F-2        0.00008   0.00008   0.00000   0.00008
 162       57F+3        0.00000   0.00000  -0.00000   0.00000
 163       57F-3        0.00000   0.00000  -0.00000   0.00000
 164       58G 0        0.00000   0.00000   0.00000  -0.00000
 165       58G+1        0.00000   0.00000   0.00000   0.00000
 166       58G-1        0.00000   0.00000   0.00000   0.00000
 167       58G+2        0.00000   0.00000   0.00000   0.00000
 168       58G-2        0.00000   0.00000   0.00000   0.00000
 169       58G+3        0.00000   0.00000   0.00000   0.00000
 170       58G-3        0.00000   0.00000   0.00000   0.00000
 171       58G+4        0.00000   0.00000  -0.00000   0.00000
 172       58G-4        0.00000   0.00000  -0.00000   0.00000
 173       59G 0        0.00009   0.00004   0.00004   0.00000
 174       59G+1        0.00000   0.00000   0.00000   0.00000
 175       59G-1        0.00000   0.00000   0.00000   0.00000
 176       59G+2        0.00000   0.00000   0.00000   0.00000
 177       59G-2        0.00000   0.00000   0.00000   0.00000
 178       59G+3        0.00000   0.00000   0.00000   0.00000
 179       59G-3        0.00000   0.00000   0.00000   0.00000
 180       59G+4        0.00000   0.00000   0.00000   0.00000
 181       59G-4        0.00000   0.00000   0.00000   0.00000
 182       60G 0        0.00035   0.00020   0.00015   0.00005
 183       60G+1       -0.00000  -0.00000  -0.00000  -0.00000
 184       60G-1       -0.00000  -0.00000  -0.00000  -0.00000
 185       60G+2        0.00000   0.00000   0.00000   0.00000
 186       60G-2        0.00000   0.00000   0.00000   0.00000
 187       60G+3        0.00000   0.00000   0.00000   0.00000
 188       60G-3        0.00000   0.00000   0.00000   0.00000
 189       60G+4        0.00000   0.00000  -0.00000   0.00000
 190       60G-4        0.00000   0.00000  -0.00000   0.00000
 191 2   H  1S          0.00095   0.00049   0.00046   0.00003
 192        2S          0.03233   0.01663   0.01570   0.00094
 193        3S          0.24254   0.12485   0.11768   0.00717
 194        4S          0.71517   0.35916   0.35601   0.00314
 195        5S          0.64108   0.31341   0.32767  -0.01425
 196        6S          0.04320   0.01638   0.02682  -0.01044
 197        7PX         0.00103   0.00099   0.00003   0.00096
 198        7PY         0.00103   0.00099   0.00003   0.00096
 199        7PZ         0.00308   0.00167   0.00141   0.00026
 200        8PX         0.00249   0.00236   0.00013   0.00223
 201        8PY         0.00249   0.00236   0.00013   0.00223
 202        8PZ         0.00232   0.00147   0.00085   0.00061
 203        9PX         0.00010   0.00001   0.00009  -0.00008
 204        9PY         0.00010   0.00001   0.00009  -0.00008
 205        9PZ        -0.00798  -0.00737  -0.00061  -0.00676
 206       10D 0        0.00085   0.00044   0.00041   0.00003
 207       10D+1        0.00074   0.00067   0.00007   0.00061
 208       10D-1        0.00074   0.00067   0.00007   0.00061
 209       10D+2        0.00006   0.00006  -0.00000   0.00006
 210       10D-2        0.00006   0.00006  -0.00000   0.00006
 211       11D 0       -0.00155  -0.00076  -0.00079   0.00003
 212       11D+1       -0.00014  -0.00015   0.00001  -0.00016
 213       11D-1       -0.00014  -0.00015   0.00001  -0.00016
 214       11D+2       -0.00025  -0.00025  -0.00000  -0.00025
 215       11D-2       -0.00025  -0.00025  -0.00000  -0.00025
          Condensed to atoms (all electrons):
               1          2
     1  Cr  13.392843  -0.072877
     2  H   -0.072877   1.752911
          Atomic-Atomic Spin Densities.
               1          2
     1  Cr   5.044224  -0.031704
     2  H   -0.031704   0.019184
 Mulliken charges and spin densities:
               1          2
     1  Cr   0.680034   5.012520
     2  H   -0.680034  -0.012520
 Sum of Mulliken charges =  -0.00000   5.00000
 Mulliken charges and spin densities with hydrogens summed into heavy atoms:
               1          2
     1  Cr  -0.000000   5.000000
 Electronic spatial extent (au):  <R**2>=             45.3469
 Charge=             -0.0000 electrons
 Dipole moment (field-independent basis, Debye):
    X=              0.0000    Y=              0.0000    Z=              1.8135  Tot=              1.8135
 Quadrupole moment (field-independent basis, Debye-Ang):
   XX=            -16.6802   YY=            -16.6802   ZZ=            -19.9699
   XY=              0.0000   XZ=              0.0000   YZ=              0.0000
 Traceless Quadrupole moment (field-independent basis, Debye-Ang):
   XX=              1.0966   YY=              1.0966   ZZ=             -2.1932
   XY=              0.0000   XZ=              0.0000   YZ=              0.0000
 Octapole moment (field-independent basis, Debye-Ang**2):
  XXX=              0.0000  YYY=              0.0000  ZZZ=              4.7803  XYY=              0.0000
  XXY=              0.0000  XXZ=             -0.6262  XZZ=              0.0000  YZZ=              0.0000
  YYZ=             -0.6262  XYZ=              0.0000
 Hexadecapole moment (field-independent basis, Debye-Ang**3):
 XXXX=            -32.7164 YYYY=            -32.7164 ZZZZ=            -56.0942 XXXY=              0.0000
 XXXZ=              0.0000 YYYX=              0.0000 YYYZ=              0.0000 ZZZX=              0.0000
 ZZZY=              0.0000 XXYY=            -10.9055 XXZZ=            -14.3156 YYZZ=            -14.3156
 XXYZ=              0.0000 YYXZ=              0.0000 ZZXY=              0.0000
 N-N= 5.698831502215D+00 E-N=-2.073481643328D+02  KE= 4.510722105641D+01
 Symmetry A1   KE= 1.788726635729D+01
 Symmetry A2   KE= 4.822438432335D+00
 Symmetry B1   KE= 1.119875817654D+01
 Symmetry B2   KE= 1.119875809009D+01
 Symmetry A1   SP= 2.000000000000D+00
 Symmetry A2   SP= 1.000000000000D+00
 Symmetry B1   SP= 1.000000000000D+00
 Symmetry B2   SP= 1.000000000000D+00
 Orbital energies and kinetic energies (alpha):
                                 1                 2
   1         O                -3.609359          1.763534
   2         O                -2.371294          3.116638
   3         O                -2.371294          3.153654
   4         O                -2.345481          3.153654
   5         O                -0.478260          1.095096
   6         O                -0.478260          1.114292
   7         O                -0.450960          4.891450
   8         O                -0.449140          4.891450
   9         O                -0.449140          4.822438
  10         O                -0.252589          4.822438
  11         V                 0.016328          0.048223
  12         V                 0.016328          0.048223
  13         V                 0.020872          0.039444
  14         V                 0.023612          0.102533
  15         V                 0.060057          0.230997
 Total kinetic energy from orbitals= 6.564929075093D+01
                          Isotropic Fermi Contact Couplings
        Atom                 a.u.       MegaHertz       Gauss      10(-4) cm-1
     1  Cr(53)             0.00025      -0.01263      -0.00451      -0.00421
     2  H(1)               0.01362      12.17372       4.34389       4.06072
 --------------------------------------------------------
       Center         ----  Spin Dipole Couplings  ----
                      3XX-RR        3YY-RR        3ZZ-RR
 --------------------------------------------------------
     1   Atom        0.391591      0.391592     -0.783183
     2   Atom       -0.208207     -0.208207      0.416413
 --------------------------------------------------------
                        XY            XZ            YZ
 --------------------------------------------------------
     1   Atom        0.000000      0.000000      0.000000
     2   Atom        0.000000      0.000000      0.000000
 --------------------------------------------------------


 ---------------------------------------------------------------------------------
              Anisotropic Spin Dipole Couplings in Principal Axis System
 ---------------------------------------------------------------------------------

       Atom             a.u.   MegaHertz   Gauss  10(-4) cm-1        Axes

              Baa    -0.7832    23.667     8.445     7.894  0.0000  0.0000  1.0000
     1 Cr(53) Bbb     0.3916   -11.834    -4.222    -3.947  1.0000  0.0000  0.0000
              Bcc     0.3916   -11.834    -4.223    -3.947 -0.0000  1.0000  0.0000
 
              Baa    -0.2082  -111.089   -39.639   -37.055  1.0000  0.0000  0.0000
     2 H(1)   Bbb    -0.2082  -111.089   -39.639   -37.055 -0.0000  1.0000  0.0000
              Bcc     0.4164   222.178    79.279    74.111  0.0000  0.0000  1.0000
 

 ---------------------------------------------------------------------------------

 No NMR shielding tensors so no spin-rotation constants.
 Leave Link  601 at Sun Feb 25 23:13:17 2018, MaxMem=  8589934592 cpu:              42.8 elap:               2.8
 (Enter /home1/apps/gaussian/16rA.03/g16/l9999.exe)

 Test job not archived.
 1\1\GINC-C402-112\SP\ROCCSD(T)-Full\Gen\Cr1H1(6)\AANNABE\25-Feb-2018\0
 \\#P ROCCSD(T)=(maxcyc=150, Full, SaveAmplitudes, ReadAmplitudes)/Gen 
 5d 7f SCF=(maxcycles=300) Integral(NoXCTest) MaxDisk=500GB Pop=Regular
  Pseudo=Read Guess=Read IOp(5/15=2)\\CrH\\0,6\Cr,0,0.,0.,0.\H,0,0.,0.,
 1.3\\Version=ES64L-G16RevA.03\State=6-SG\HF=-86.8210608\MP2=-87.405816
 \MP3=-87.4027395\PUHF=-86.8210608\PMP2-0=-87.405816\MP4SDQ=-87.4115989
 \CCSD=-87.4163799\CCSD(T)=-87.4366532\RMSD=6.575e-09\PG=C*V [C*(H1Cr1)
 ]\\@


 BREAD HAS TO MOLD IN ORDER TO GET PENICILLIN.
          -- JERRY BOATZ
 Job cpu time:       0 days  2 hours 28 minutes 44.0 seconds.
 Elapsed time:       0 days  0 hours  9 minutes 21.9 seconds.
 File lengths (MBytes):  RWF=   2232 Int=      0 D2E=      0 Chk=     12 Scr=      1
 Normal termination of Gaussian 16 at Sun Feb 25 23:13:17 2018.
