 Entering Gaussian System, Link 0=g16
 Initial command:
 /home1/apps/gaussian/16rA.03/g16/l1.exe "/tmp/Gau-80516.inp" -scrdir="/tmp/"
 Entering Link 1 = /home1/apps/gaussian/16rA.03/g16/l1.exe PID=     80517.
  
 Copyright (c) 1988,1990,1992,1993,1995,1998,2003,2009,2016,
            Gaussian, Inc.  All Rights Reserved.
  
 This is part of the Gaussian(R) 16 program.  It is based on
 the Gaussian(R) 09 system (copyright 2009, Gaussian, Inc.),
 the Gaussian(R) 03 system (copyright 2003, Gaussian, Inc.),
 the Gaussian(R) 98 system (copyright 1998, Gaussian, Inc.),
 the Gaussian(R) 94 system (copyright 1995, Gaussian, Inc.),
 the Gaussian 92(TM) system (copyright 1992, Gaussian, Inc.),
 the Gaussian 90(TM) system (copyright 1990, Gaussian, Inc.),
 the Gaussian 88(TM) system (copyright 1988, Gaussian, Inc.),
 the Gaussian 86(TM) system (copyright 1986, Carnegie Mellon
 University), and the Gaussian 82(TM) system (copyright 1983,
 Carnegie Mellon University). Gaussian is a federally registered
 trademark of Gaussian, Inc.
  
 This software contains proprietary and confidential information,
 including trade secrets, belonging to Gaussian, Inc.
  
 This software is provided under written license and may be
 used, copied, transmitted, or stored only in accord with that
 written license.
  
 The following legend is applicable only to US Government
 contracts under FAR:
  
                    RESTRICTED RIGHTS LEGEND
  
 Use, reproduction and disclosure by the US Government is
 subject to restrictions as set forth in subparagraphs (a)
 and (c) of the Commercial Computer Software - Restricted
 Rights clause in FAR 52.227-19.
  
 Gaussian, Inc.
 340 Quinnipiac St., Bldg. 40, Wallingford CT 06492
  
  
 ---------------------------------------------------------------
 Warning -- This program may not be used in any manner that
 competes with the business of Gaussian, Inc. or will provide
 assistance to any competitor of Gaussian, Inc.  The licensee
 of this program is prohibited from giving any competitor of
 Gaussian, Inc. access to this program.  By using this program,
 the user acknowledges that Gaussian, Inc. is engaged in the
 business of creating and licensing software in the field of
 computational chemistry and represents and warrants to the
 licensee that it is not a competitor of Gaussian, Inc. and that
 it will not use this program in any manner prohibited above.
 ---------------------------------------------------------------
  

 Cite this work as:
 Gaussian 16, Revision A.03,
 M. J. Frisch, G. W. Trucks, H. B. Schlegel, G. E. Scuseria, 
 M. A. Robb, J. R. Cheeseman, G. Scalmani, V. Barone, 
 G. A. Petersson, H. Nakatsuji, X. Li, M. Caricato, A. V. Marenich, 
 J. Bloino, B. G. Janesko, R. Gomperts, B. Mennucci, H. P. Hratchian, 
 J. V. Ortiz, A. F. Izmaylov, J. L. Sonnenberg, D. Williams-Young, 
 F. Ding, F. Lipparini, F. Egidi, J. Goings, B. Peng, A. Petrone, 
 T. Henderson, D. Ranasinghe, V. G. Zakrzewski, J. Gao, N. Rega, 
 G. Zheng, W. Liang, M. Hada, M. Ehara, K. Toyota, R. Fukuda, 
 J. Hasegawa, M. Ishida, T. Nakajima, Y. Honda, O. Kitao, H. Nakai, 
 T. Vreven, K. Throssell, J. A. Montgomery, Jr., J. E. Peralta, 
 F. Ogliaro, M. J. Bearpark, J. J. Heyd, E. N. Brothers, K. N. Kudin, 
 V. N. Staroverov, T. A. Keith, R. Kobayashi, J. Normand, 
 K. Raghavachari, A. P. Rendell, J. C. Burant, S. S. Iyengar, 
 J. Tomasi, M. Cossi, J. M. Millam, M. Klene, C. Adamo, R. Cammi, 
 J. W. Ochterski, R. L. Martin, K. Morokuma, O. Farkas, 
 J. B. Foresman, and D. J. Fox, Gaussian, Inc., Wallingford CT, 2016.
 
 ******************************************
 Gaussian 16:  ES64L-G16RevA.03 25-Dec-2016
                21-Apr-2018 
 ******************************************
 %mem=80GB
 %cpu=0-31
 SetSPE:  set environment variable "MP_BIND" = "yes"
 SetSPE:  set environment variable "MP_BLIST" = "0,1,2,3,4,5,6,7,8,9,10,11,12,13,14,15,16,17,18,19,20,21,22,23,24,25,26,27,28,29,30,31"
 Will use up to   32 processors via shared memory.
 %chk=tz.chk
 %rwf=/scratch/04843/gwang18/znh/
 ----------------------------------------------------------------------
 #P ROCCSD(T)=(MaxCyc=150, Full)/Gen SCF=(maxcycle=400, vshift=200) Pse
 udo=Read Integral(NoXCTest) Pop=Regular MaxDisk=500GB Guess=Read IOp(5
 /15=2)
 ----------------------------------------------------------------------
 1/38=1,172=1/1;
 2/12=2,17=6,18=5,40=1/2;
 3/5=7,11=2,16=1,17=8,25=1,30=1,47=8,116=101/1,2,3;
 4/5=1/1;
 5/5=2,7=400,10=200,15=2,38=6/2;
 8/5=-1,6=4,9=120000,10=90/1,4;
 9/5=7,6=150,14=2/13;
 6//1;
 99/5=1,9=1/99;
 Leave Link    1 at Sat Apr 21 10:10:51 2018, MaxMem= 10737418240 cpu:               9.7 elap:               0.3
 (Enter /home1/apps/gaussian/16rA.03/g16/l101.exe)
 ---
 ZnH
 ---
 Symbolic Z-matrix:
 Charge =  0 Multiplicity = 2
 Zn                    0.        0.        0. 
 H                     0.        0.        1.7 
 
 ITRead=  0  0
 MicOpt= -1 -1
 NAtoms=      2 NQM=        2 NQMF=       0 NMMI=      0 NMMIF=      0
                NMic=       0 NMicF=      0.
                    Isotopes and Nuclear Properties:
 (Nuclear quadrupole moments (NQMom) in fm**2, nuclear magnetic moments (NMagM)
  in nuclear magnetons)

  Atom         1           2
 IAtWgt=          64           1
 AtmWgt=  63.9291454   1.0078250
 NucSpn=           0           1
 AtZEff=  -0.0000000  -0.0000000
 NQMom=    0.0000000   0.0000000
 NMagM=    0.0000000   2.7928460
 AtZNuc=  30.0000000   1.0000000
 Leave Link  101 at Sat Apr 21 10:10:51 2018, MaxMem= 10737418240 cpu:               3.4 elap:               0.1
 (Enter /home1/apps/gaussian/16rA.03/g16/l202.exe)
                          Input orientation:                          
 ---------------------------------------------------------------------
 Center     Atomic      Atomic             Coordinates (Angstroms)
 Number     Number       Type             X           Y           Z
 ---------------------------------------------------------------------
      1         30           0        0.000000    0.000000    0.000000
      2          1           0        0.000000    0.000000    1.700000
 ---------------------------------------------------------------------
 Stoichiometry    HZn(2)
 Framework group  C*V[C*(HZn)]
 Deg. of freedom     1
 Full point group                 C*V     NOp   4
 Largest Abelian subgroup         C2V     NOp   4
 Largest concise Abelian subgroup C1      NOp   1
                         Standard orientation:                         
 ---------------------------------------------------------------------
 Center     Atomic      Atomic             Coordinates (Angstroms)
 Number     Number       Type             X           Y           Z
 ---------------------------------------------------------------------
      1         30           0        0.000000    0.000000    0.054839
      2          1           0        0.000000    0.000000   -1.645161
 ---------------------------------------------------------------------
 Rotational constants (GHZ):           0.0000000         176.2492746         176.2492746
 Leave Link  202 at Sat Apr 21 10:10:52 2018, MaxMem= 10737418240 cpu:               0.8 elap:               0.1
 (Enter /home1/apps/gaussian/16rA.03/g16/l301.exe)
 General basis read from cards:  (5D, 7F)
 Centers:       1
 S 1 1.00
     Exponent=  5.8200210000D+06 Coefficients=  1.0000000000D+00
 S 1 1.00
     Exponent=  8.7152340000D+05 Coefficients=  1.0000000000D+00
 S 1 1.00
     Exponent=  1.9833500000D+05 Coefficients=  1.0000000000D+00
 S 1 1.00
     Exponent=  5.6176310000D+04 Coefficients=  1.0000000000D+00
 S 1 1.00
     Exponent=  1.8325820000D+04 Coefficients=  1.0000000000D+00
 S 1 1.00
     Exponent=  6.6149550000D+03 Coefficients=  1.0000000000D+00
 S 1 1.00
     Exponent=  2.5791990000D+03 Coefficients=  1.0000000000D+00
 S 1 1.00
     Exponent=  1.0688490000D+03 Coefficients=  1.0000000000D+00
 S 1 1.00
     Exponent=  4.6510450000D+02 Coefficients=  1.0000000000D+00
 S 1 1.00
     Exponent=  2.1041300000D+02 Coefficients=  1.0000000000D+00
 S 1 1.00
     Exponent=  9.7616290000D+01 Coefficients=  1.0000000000D+00
 S 1 1.00
     Exponent=  4.4380200000D+01 Coefficients=  1.0000000000D+00
 S 1 1.00
     Exponent=  2.1423080000D+01 Coefficients=  1.0000000000D+00
 S 1 1.00
     Exponent=  1.0308910000D+01 Coefficients=  1.0000000000D+00
 S 1 1.00
     Exponent=  4.5536450000D+00 Coefficients=  1.0000000000D+00
 S 1 1.00
     Exponent=  2.1328210000D+00 Coefficients=  1.0000000000D+00
 S 1 1.00
     Exponent=  9.2969700000D-01 Coefficients=  1.0000000000D+00
 S 1 1.00
     Exponent=  1.9214700000D-01 Coefficients=  1.0000000000D+00
 S 1 1.00
     Exponent=  8.7595000000D-02 Coefficients=  1.0000000000D+00
 S 1 1.00
     Exponent=  3.7702000000D-02 Coefficients=  1.0000000000D+00
 S 1 1.00
     Exponent=  7.0381000000D+00 Coefficients=  1.0000000000D+00
 S 1 1.00
     Exponent=  1.8099000000D+00 Coefficients=  1.0000000000D+00
 S 1 1.00
     Exponent=  1.6230000000D-02 Coefficients=  1.0000000000D+00
 P 1 1.00
     Exponent=  2.4411980000D+04 Coefficients=  1.0000000000D+00
 P 1 1.00
     Exponent=  5.7785180000D+03 Coefficients=  1.0000000000D+00
 P 1 1.00
     Exponent=  1.8768620000D+03 Coefficients=  1.0000000000D+00
 P 1 1.00
     Exponent=  7.1823610000D+02 Coefficients=  1.0000000000D+00
 P 1 1.00
     Exponent=  3.0483270000D+02 Coefficients=  1.0000000000D+00
 P 1 1.00
     Exponent=  1.3904530000D+02 Coefficients=  1.0000000000D+00
 P 1 1.00
     Exponent=  6.6804170000D+01 Coefficients=  1.0000000000D+00
 P 1 1.00
     Exponent=  3.3206990000D+01 Coefficients=  1.0000000000D+00
 P 1 1.00
     Exponent=  1.6928160000D+01 Coefficients=  1.0000000000D+00
 P 1 1.00
     Exponent=  8.6962290000D+00 Coefficients=  1.0000000000D+00
 P 1 1.00
     Exponent=  4.3505100000D+00 Coefficients=  1.0000000000D+00
 P 1 1.00
     Exponent=  2.1165230000D+00 Coefficients=  1.0000000000D+00
 P 1 1.00
     Exponent=  9.9538700000D-01 Coefficients=  1.0000000000D+00
 P 1 1.00
     Exponent=  3.7811200000D-01 Coefficients=  1.0000000000D+00
 P 1 1.00
     Exponent=  1.3457900000D-01 Coefficients=  1.0000000000D+00
 P 1 1.00
     Exponent=  4.6282000000D-02 Coefficients=  1.0000000000D+00
 P 1 1.00
     Exponent=  1.0150100000D+01 Coefficients=  1.0000000000D+00
 P 1 1.00
     Exponent=  2.3451000000D+00 Coefficients=  1.0000000000D+00
 P 1 1.00
     Exponent=  1.5920000000D-02 Coefficients=  1.0000000000D+00
 D 1 1.00
     Exponent=  2.0561770000D+02 Coefficients=  1.0000000000D+00
 D 1 1.00
     Exponent=  6.1449810000D+01 Coefficients=  1.0000000000D+00
 D 1 1.00
     Exponent=  2.3056890000D+01 Coefficients=  1.0000000000D+00
 D 1 1.00
     Exponent=  9.5777390000D+00 Coefficients=  1.0000000000D+00
 D 1 1.00
     Exponent=  4.1337340000D+00 Coefficients=  1.0000000000D+00
 D 1 1.00
     Exponent=  1.7475180000D+00 Coefficients=  1.0000000000D+00
 D 1 1.00
     Exponent=  6.9956000000D-01 Coefficients=  1.0000000000D+00
 D 1 1.00
     Exponent=  2.5160800000D-01 Coefficients=  1.0000000000D+00
 D 1 1.00
     Exponent=  7.7440000000D+00 Coefficients=  1.0000000000D+00
 D 1 1.00
     Exponent=  3.9663000000D+00 Coefficients=  1.0000000000D+00
 D 1 1.00
     Exponent=  9.0490000000D-02 Coefficients=  1.0000000000D+00
 F 1 1.00
     Exponent=  1.0327000000D+01 Coefficients=  1.0000000000D+00
 F 1 1.00
     Exponent=  4.0202000000D+00 Coefficients=  1.0000000000D+00
 F 1 1.00
     Exponent=  1.4851000000D+00 Coefficients=  1.0000000000D+00
 F 1 1.00
     Exponent=  5.4861000000D-01 Coefficients=  1.0000000000D+00
 G 1 1.00
     Exponent=  9.2538000000D+00 Coefficients=  1.0000000000D+00
 G 1 1.00
     Exponent=  4.1144000000D+00 Coefficients=  1.0000000000D+00
 G 1 1.00
     Exponent=  1.8293300000D+00 Coefficients=  1.0000000000D+00
 ****
 Centers:       2
 S 1 1.00
     Exponent=  3.3870000000D+01 Coefficients=  1.0000000000D+00
 S 1 1.00
     Exponent=  5.0950000000D+00 Coefficients=  1.0000000000D+00
 S 1 1.00
     Exponent=  1.1590000000D+00 Coefficients=  1.0000000000D+00
 S 1 1.00
     Exponent=  3.2580000000D-01 Coefficients=  1.0000000000D+00
 S 1 1.00
     Exponent=  1.0270000000D-01 Coefficients=  1.0000000000D+00
 S 1 1.00
     Exponent=  2.5260000000D-02 Coefficients=  1.0000000000D+00
 P 1 1.00
     Exponent=  1.4070000000D+00 Coefficients=  1.0000000000D+00
 P 1 1.00
     Exponent=  3.8800000000D-01 Coefficients=  1.0000000000D+00
 P 1 1.00
     Exponent=  1.0200000000D-01 Coefficients=  1.0000000000D+00
 D 1 1.00
     Exponent=  1.0570000000D+00 Coefficients=  1.0000000000D+00
 D 1 1.00
     Exponent=  2.4700000000D-01 Coefficients=  1.0000000000D+00
 ****
 ======================================================================================================
                                       Pseudopotential Parameters
 ======================================================================================================
  Center     Atomic      Valence      Angular      Power
  Number     Number     Electrons     Momentum     of R      Exponent        Coefficient   SO-Coeffient
 ======================================================================================================
    1         30           20
                                      G and up 
                                                     2        1.0000000        0.00000000    0.00000000
                                      S - G
                                                     2       34.1740010      399.98639900    0.00000000
                                                     2       14.4563710       85.48975000    0.00000000
                                      P - G
                                                     2       39.8886830       92.38107700    0.00000000
                                                     2       39.6550170      184.77117600    0.00000000
                                                     2       15.2905460       23.00254100    0.00000000
                                                     2       14.9035240       46.05742700    0.00000000
                                      D - G
                                                     2       43.7082960      -13.69073400    0.00000000
                                                     2       43.6985360      -20.54398000    0.00000000
                                                     2       15.1507180       -1.31615400    0.00000000
                                                     2       15.2824410       -1.83871500    0.00000000
                                      F - G
                                                     2        8.1600140       -0.37036000    0.00000000
                                                     2       12.2284220       -1.06294300    0.00000000
    2          1            1
                                      P and up 
                                                     2       21.7769666      -10.85192405    0.00000000
                                                     1       21.2435951        1.00000000    0.00000000
                                                     3       21.2435951       21.24359508    0.00000000
                                      S - P
                                                     2        1.0000000        0.00000000    0.00000000
 ======================================================================================================
 Ernie: Thresh=  0.10000D-02 Tol=  0.10000D-05 Strict=F.
 There are   120 symmetry adapted cartesian basis functions of A1  symmetry.
 There are    26 symmetry adapted cartesian basis functions of A2  symmetry.
 There are    56 symmetry adapted cartesian basis functions of B1  symmetry.
 There are    56 symmetry adapted cartesian basis functions of B2  symmetry.
 There are    94 symmetry adapted basis functions of A1  symmetry.
 There are    23 symmetry adapted basis functions of A2  symmetry.
 There are    49 symmetry adapted basis functions of B1  symmetry.
 There are    49 symmetry adapted basis functions of B2  symmetry.
   215 basis functions,   258 primitive gaussians,   258 cartesian basis functions
    11 alpha electrons       10 beta electrons
       nuclear repulsion energy         6.2256142461 Hartrees.
 IExCor=    0 DFT=F Ex=HF Corr=None ExCW=0 ScaHFX=  1.000000
 ScaDFX=  1.000000  1.000000  1.000000  1.000000 ScalE2=  1.000000  1.000000
 IRadAn=      5 IRanWt=     -1 IRanGd=            0 ICorTp=0 IEmpDi=  4
 NAtoms=    2 NActive=    2 NUniq=    2 SFac= 1.00D+00 NAtFMM=   60 NAOKFM=F Big=F
 Integral buffers will be    131072 words long.
 Raffenetti 2 integral format.
 Two-electron integral symmetry is turned on.
 Leave Link  301 at Sat Apr 21 10:10:52 2018, MaxMem= 10737418240 cpu:               7.8 elap:               0.3
 (Enter /home1/apps/gaussian/16rA.03/g16/l302.exe)
 NPDir=0 NMtPBC=     1 NCelOv=     1 NCel=       1 NClECP=     1 NCelD=      1
         NCelK=      1 NCelE2=     1 NClLst=     1 CellRange=     0.0.
 One-electron integrals computed using PRISM.
 One-electron integral symmetry used in STVInt
   4 Symmetry operations used in ECPInt.
 ECPInt:  NShTT=    2556 NPrTT=    2556 LenC2=    2528 LenP2D=    2527.
 LDataN:  DoStor=T MaxTD1= 8 Len=  415
 NBasis=   215 RedAO= T EigKep=  3.44D-06  NBF=    94    23    49    49
 NBsUse=   215 1.00D-06 EigRej= -1.00D+00 NBFU=    94    23    49    49
 Leave Link  302 at Sat Apr 21 10:10:54 2018, MaxMem= 10737418240 cpu:              42.0 elap:               1.4
 (Enter /home1/apps/gaussian/16rA.03/g16/l303.exe)
 DipDrv:  MaxL=1.
 Leave Link  303 at Sat Apr 21 10:10:55 2018, MaxMem= 10737418240 cpu:               2.0 elap:               0.1
 (Enter /home1/apps/gaussian/16rA.03/g16/l401.exe)
 Initial guess from the checkpoint file:  "tz.chk"
 B after Tr=     0.000000    0.000000    0.000000
         Rot=    1.000000    0.000000    0.000000    0.000000 Ang=   0.00 deg.
 Guess basis will be translated and rotated to current coordinates.
 JPrj=2 DoOrth=T DoCkMO=T.
 Initial guess orbital symmetries:
       Occupied  (SG) (PI) (PI) (SG) (DLTA) (DLTA) (SG) (PI) (PI)
                 (SG) (SG)
       Virtual   (PI) (PI) (SG) (SG) (PI) (PI) (SG) (SG) (SG) (PI)
                 (PI) (DLTA) (DLTA) (SG) (PI) (PI) (SG) (PI) (PI)
                 (SG) (SG) (SG) (DLTA) (DLTA) (PI) (PI) (DLTA)
                 (DLTA) (SG) (PI) (PI) (PI) (PI) (SG) (PI) (PI)
                 (SG) (SG) (PHI) (PHI) (DLTA) (DLTA) (PI) (PI)
                 (SG) (SG) (SG) (DLTA) (DLTA) (PI) (PI) (SG) (PI)
                 (PI) (SG) (DLTA) (DLTA) (PI) (PI) (PI) (PI) (SG)
                 (SG) (PHI) (PHI) (DLTA) (DLTA) (PI) (PI) (SG)
                 (DLTA) (DLTA) (PI) (PI) (SG) (?A) (?A) (PHI) (PHI)
                 (DLTA) (DLTA) (PI) (PI) (SG) (SG) (PI) (PI) (SG)
                 (SG) (PHI) (PHI) (DLTA) (DLTA) (PI) (PI) (SG)
                 (DLTA) (DLTA) (PI) (PI) (SG) (PI) (PI) (SG) (SG)
                 (?A) (?A) (PHI) (PHI) (DLTA) (DLTA) (PI) (PI)
                 (SG) (DLTA) (DLTA) (PI) (PI) (SG) (PHI) (PHI)
                 (DLTA) (DLTA) (PI) (PI) (SG) (PI) (PI) (SG) (SG)
                 (?A) (?A) (PHI) (PHI) (DLTA) (DLTA) (PI) (PI)
                 (SG) (DLTA) (DLTA) (PI) (PI) (SG) (SG) (PI) (PI)
                 (SG) (SG) (DLTA) (DLTA) (PI) (PI) (SG) (PI) (PI)
                 (SG) (SG) (PI) (PI) (SG) (DLTA) (DLTA) (PI) (PI)
                 (SG) (SG) (PI) (PI) (SG) (SG) (DLTA) (DLTA) (PI)
                 (PI) (SG) (PI) (PI) (SG) (SG) (PI) (PI) (SG) (SG)
                 (PI) (PI) (SG) (SG) (PI) (PI) (SG) (SG) (PI) (PI)
                 (SG) (SG) (SG) (PI) (PI) (SG) (SG) (SG) (SG) (SG)
 The electronic state of the initial guess is 2-SG.
 Leave Link  401 at Sat Apr 21 10:10:55 2018, MaxMem= 10737418240 cpu:              10.4 elap:               0.4
 (Enter /home1/apps/gaussian/16rA.03/g16/l502.exe)
 Keep R1 and R2 ints in memory in symmetry-blocked form, NReq=338797193.
 FoFCou: FMM=F IPFlag=           8 FMFlag=           0 FMFlg1=           0
         NFxFlg=           0 DoJE=F BraDBF=F KetDBF=F FulRan=T
         wScrn=  0.000000 ICntrl=       600 IOpCl=  0 I1Cent=           0 NGrid=           0
         NMat0=    1 NMatS0=  23220 NMatT0=    0 NMatD0=    1 NMtDS0=    0 NMtDT0=    0
 Petite list used in FoFCou.
 Restricted open shell SCF:
 Using DIIS extrapolation, IDIIS=  1040.
 NGot= 10737418240 LenX= 10598929943 LenY= 10598862938
 Requested convergence on RMS density matrix=1.00D-08 within 400 cycles.
 Requested convergence on MAX density matrix=1.00D-06.
 Requested convergence on             energy=1.00D-06.
 Virtual orbitals will be shifted by   0.200 hartree.
 No special actions if energy rises.

 Cycle   1  Pass 1  IDiag  1:
 E= -226.276888682054    
 DIIS: error= 5.14D-01 at cycle   1 NSaved=   1.
 NSaved= 1 IEnMin= 1 EnMin= -226.276888682054     IErMin= 1 ErrMin= 5.14D-01
 ErrMax= 5.14D-01  0.00D+00 EMaxC= 1.00D-01 BMatC= 1.70D+01 BMatP= 1.70D+01
 IDIUse=3 WtCom= 0.00D+00 WtEn= 1.00D+00
 Coeff-Com:  0.100D+01
 Coeff-En:   0.100D+01
 Coeff:      0.100D+01
 Gap=     0.105 Goal=   None    Shift=    0.200
 GapD=    0.105 DampG=1.000 DampE=0.125 DampFc=0.1250 IDamp=-1.
 Damping current iteration by 1.25D-01
 RMSDP=1.72D-03 MaxDP=8.59D-02              OVMax= 1.91D-02

 Cycle   2  Pass 1  IDiag  1:
 E= -226.303279023592     Delta-E=       -0.026390341538 Rises=F Damp=T
 DIIS: error= 4.50D-01 at cycle   2 NSaved=   2.
 NSaved= 2 IEnMin= 2 EnMin= -226.303279023592     IErMin= 2 ErrMin= 4.50D-01
 ErrMax= 4.50D-01  0.00D+00 EMaxC= 1.00D-01 BMatC= 1.30D+01 BMatP= 1.70D+01
 IDIUse=3 WtCom= 0.00D+00 WtEn= 1.00D+00
 Coeff-Com: -0.706D+01 0.806D+01
 Coeff-En:   0.000D+00 0.100D+01
 Coeff:      0.000D+00 0.100D+01
 Gap=     0.104 Goal=   None    Shift=    0.200
 RMSDP=1.52D-03 MaxDP=7.52D-02 DE=-2.64D-02 OVMax= 1.79D-03

 Cycle   3  Pass 1  IDiag  1:
 E= -226.486582746987     Delta-E=       -0.183303723395 Rises=F Damp=F
 DIIS: error= 1.07D-02 at cycle   3 NSaved=   3.
 NSaved= 3 IEnMin= 3 EnMin= -226.486582746987     IErMin= 3 ErrMin= 1.07D-02
 ErrMax= 1.07D-02  0.00D+00 EMaxC= 1.00D-01 BMatC= 9.74D-03 BMatP= 1.30D+01
 IDIUse=3 WtCom= 8.93D-01 WtEn= 1.07D-01
 Large coefficients: NSaved=  3 BigCof=   27.01 CofMax=   10.00 Det=-8.43D-06
 Inversion failed.  Reducing to  2 matrices.
 Coeff-Com: -0.586D-02 0.101D+01
 Coeff-En:   0.000D+00 0.100D+01
 Coeff:     -0.523D-02 0.101D+01
 Gap=     0.102 Goal=   None    Shift=    0.200
 RMSDP=1.64D-04 MaxDP=1.03D-02 DE=-1.83D-01 OVMax= 8.98D-03

 Cycle   4  Pass 1  IDiag  1:
 E= -226.486753882098     Delta-E=       -0.000171135111 Rises=F Damp=F
 DIIS: error= 1.20D-02 at cycle   4 NSaved=   3.
 NSaved= 3 IEnMin= 3 EnMin= -226.486753882098     IErMin= 2 ErrMin= 1.07D-02
 ErrMax= 1.20D-02  0.00D+00 EMaxC= 1.00D-01 BMatC= 6.98D-03 BMatP= 9.74D-03
 IDIUse=3 WtCom= 8.80D-01 WtEn= 1.20D-01
 Coeff-Com: -0.357D-02 0.467D+00 0.537D+00
 Coeff-En:   0.000D+00 0.472D+00 0.528D+00
 Coeff:     -0.314D-02 0.467D+00 0.536D+00
 Gap=     0.104 Goal=   None    Shift=    0.200
 RMSDP=8.21D-05 MaxDP=6.54D-03 DE=-1.71D-04 OVMax= 4.69D-03

 Cycle   5  Pass 1  IDiag  1:
 E= -226.488205955027     Delta-E=       -0.001452072929 Rises=F Damp=F
 DIIS: error= 2.14D-04 at cycle   5 NSaved=   4.
 NSaved= 4 IEnMin= 4 EnMin= -226.488205955027     IErMin= 4 ErrMin= 2.14D-04
 ErrMax= 2.14D-04  0.00D+00 EMaxC= 1.00D-01 BMatC= 3.95D-06 BMatP= 6.98D-03
 IDIUse=3 WtCom= 9.98D-01 WtEn= 2.14D-03
 Coeff-Com:  0.325D-03-0.451D-01-0.444D-01 0.109D+01
 Coeff-En:   0.000D+00 0.000D+00 0.000D+00 0.100D+01
 Coeff:      0.325D-03-0.450D-01-0.443D-01 0.109D+01
 Gap=     0.104 Goal=   None    Shift=    0.200
 RMSDP=1.17D-05 MaxDP=8.14D-04 DE=-1.45D-03 OVMax= 1.81D-03

 Cycle   6  Pass 1  IDiag  1:
 E= -226.488211594050     Delta-E=       -0.000005639024 Rises=F Damp=F
 DIIS: error= 1.26D-04 at cycle   6 NSaved=   5.
 NSaved= 5 IEnMin= 5 EnMin= -226.488211594050     IErMin= 5 ErrMin= 1.26D-04
 ErrMax= 1.26D-04  0.00D+00 EMaxC= 1.00D-01 BMatC= 1.45D-06 BMatP= 3.95D-06
 IDIUse=3 WtCom= 9.99D-01 WtEn= 1.26D-03
 Coeff-Com: -0.454D-04 0.586D-02 0.198D-01-0.249D+00 0.122D+01
 Coeff-En:   0.000D+00 0.000D+00 0.000D+00 0.000D+00 0.100D+01
 Coeff:     -0.453D-04 0.585D-02 0.197D-01-0.249D+00 0.122D+01
 Gap=     0.104 Goal=   None    Shift=    0.200
 RMSDP=7.32D-06 MaxDP=4.17D-04 DE=-5.64D-06 OVMax= 1.00D-03

 Cycle   7  Pass 1  IDiag  1:
 E= -226.488213083499     Delta-E=       -0.000001489449 Rises=F Damp=F
 DIIS: error= 4.72D-05 at cycle   7 NSaved=   6.
 NSaved= 6 IEnMin= 6 EnMin= -226.488213083499     IErMin= 6 ErrMin= 4.72D-05
 ErrMax= 4.72D-05  0.00D+00 EMaxC= 1.00D-01 BMatC= 1.09D-07 BMatP= 1.45D-06
 IDIUse=1 WtCom= 1.00D+00 WtEn= 0.00D+00
 Coeff-Com:  0.573D-05-0.383D-03-0.907D-02 0.822D-02-0.592D+00 0.159D+01
 Coeff:      0.573D-05-0.383D-03-0.907D-02 0.822D-02-0.592D+00 0.159D+01
 Gap=     0.104 Goal=   None    Shift=    0.200
 RMSDP=3.73D-06 MaxDP=1.62D-04 DE=-1.49D-06 OVMax= 6.14D-04

 Cycle   8  Pass 1  IDiag  1:
 E= -226.488213483489     Delta-E=       -0.000000399990 Rises=F Damp=F
 DIIS: error= 2.47D-05 at cycle   8 NSaved=   7.
 NSaved= 7 IEnMin= 7 EnMin= -226.488213483489     IErMin= 7 ErrMin= 2.47D-05
 ErrMax= 2.47D-05  0.00D+00 EMaxC= 1.00D-01 BMatC= 2.39D-08 BMatP= 1.09D-07
 IDIUse=1 WtCom= 1.00D+00 WtEn= 0.00D+00
 Coeff-Com:  0.272D-05-0.367D-03-0.945D-03 0.142D-01-0.312D-01-0.576D+00
 Coeff-Com:  0.159D+01
 Coeff:      0.272D-05-0.367D-03-0.945D-03 0.142D-01-0.312D-01-0.576D+00
 Coeff:      0.159D+01
 Gap=     0.104 Goal=   None    Shift=    0.200
 RMSDP=1.98D-06 MaxDP=1.14D-04 DE=-4.00D-07 OVMax= 3.54D-04

 Cycle   9  Pass 1  IDiag  1:
 E= -226.488213566864     Delta-E=       -0.000000083375 Rises=F Damp=F
 DIIS: error= 1.05D-05 at cycle   9 NSaved=   8.
 NSaved= 8 IEnMin= 8 EnMin= -226.488213566864     IErMin= 8 ErrMin= 1.05D-05
 ErrMax= 1.05D-05  0.00D+00 EMaxC= 1.00D-01 BMatC= 4.66D-09 BMatP= 2.39D-08
 IDIUse=1 WtCom= 1.00D+00 WtEn= 0.00D+00
 Coeff-Com: -0.163D-05 0.179D-03 0.110D-02-0.341D-02 0.669D-01-0.267D+00
 Coeff-Com: -0.281D-01 0.123D+01
 Coeff:     -0.163D-05 0.179D-03 0.110D-02-0.341D-02 0.669D-01-0.267D+00
 Coeff:     -0.281D-01 0.123D+01
 Gap=     0.104 Goal=   None    Shift=    0.200
 RMSDP=1.03D-06 MaxDP=8.55D-05 DE=-8.34D-08 OVMax= 1.61D-04

 Cycle  10  Pass 1  IDiag  1:
 E= -226.488213582053     Delta-E=       -0.000000015189 Rises=F Damp=F
 DIIS: error= 4.43D-06 at cycle  10 NSaved=   9.
 NSaved= 9 IEnMin= 9 EnMin= -226.488213582053     IErMin= 9 ErrMin= 4.43D-06
 ErrMax= 4.43D-06  0.00D+00 EMaxC= 1.00D-01 BMatC= 1.06D-09 BMatP= 4.66D-09
 IDIUse=1 WtCom= 1.00D+00 WtEn= 0.00D+00
 Coeff-Com:  0.646D-06-0.584D-04-0.578D-03-0.119D-02-0.327D-01 0.207D+00
 Coeff-Com: -0.252D+00-0.804D+00 0.188D+01
 Coeff:      0.646D-06-0.584D-04-0.578D-03-0.119D-02-0.327D-01 0.207D+00
 Coeff:     -0.252D+00-0.804D+00 0.188D+01
 Gap=     0.104 Goal=   None    Shift=    0.200
 RMSDP=4.69D-07 MaxDP=2.90D-05 DE=-1.52D-08 OVMax= 6.73D-05

 Cycle  11  Pass 1  IDiag  1:
 E= -226.488213585521     Delta-E=       -0.000000003468 Rises=F Damp=F
 DIIS: error= 2.18D-06 at cycle  11 NSaved=  10.
 NSaved=10 IEnMin=10 EnMin= -226.488213585521     IErMin=10 ErrMin= 2.18D-06
 ErrMax= 2.18D-06  0.00D+00 EMaxC= 1.00D-01 BMatC= 2.28D-10 BMatP= 1.06D-09
 IDIUse=1 WtCom= 1.00D+00 WtEn= 0.00D+00
 Coeff-Com:  0.173D-06-0.111D-04-0.216D-03-0.716D-03-0.151D-01 0.847D-01
 Coeff-Com: -0.142D+00-0.140D+00-0.199D-01 0.123D+01
 Coeff:      0.173D-06-0.111D-04-0.216D-03-0.716D-03-0.151D-01 0.847D-01
 Coeff:     -0.142D+00-0.140D+00-0.199D-01 0.123D+01
 Gap=     0.104 Goal=   None    Shift=    0.200
 RMSDP=3.47D-07 MaxDP=3.24D-05 DE=-3.47D-09 OVMax= 3.56D-05

 Cycle  12  Pass 1  IDiag  1:
 E= -226.488213586316     Delta-E=       -0.000000000794 Rises=F Damp=F
 DIIS: error= 9.64D-07 at cycle  12 NSaved=  11.
 NSaved=11 IEnMin=11 EnMin= -226.488213586316     IErMin=11 ErrMin= 9.64D-07
 ErrMax= 9.64D-07  0.00D+00 EMaxC= 1.00D-01 BMatC= 5.09D-11 BMatP= 2.28D-10
 IDIUse=1 WtCom= 1.00D+00 WtEn= 0.00D+00
 Coeff-Com: -0.241D-07 0.423D-05-0.177D-04-0.293D-05-0.206D-02 0.646D-02
 Coeff-Com: -0.341D-02-0.267D-01 0.941D-01-0.894D+00 0.183D+01
 Coeff:     -0.241D-07 0.423D-05-0.177D-04-0.293D-05-0.206D-02 0.646D-02
 Coeff:     -0.341D-02-0.267D-01 0.941D-01-0.894D+00 0.183D+01
 Gap=     0.104 Goal=   None    Shift=    0.200
 RMSDP=1.74D-07 MaxDP=1.57D-05 DE=-7.94D-10 OVMax= 1.69D-05

 Cycle  13  Pass 1  IDiag  1:
 E= -226.488213586496     Delta-E=       -0.000000000181 Rises=F Damp=F
 DIIS: error= 4.69D-07 at cycle  13 NSaved=  12.
 NSaved=12 IEnMin=12 EnMin= -226.488213586496     IErMin=12 ErrMin= 4.69D-07
 ErrMax= 4.69D-07  0.00D+00 EMaxC= 1.00D-01 BMatC= 1.24D-11 BMatP= 5.09D-11
 IDIUse=1 WtCom= 1.00D+00 WtEn= 0.00D+00
 Coeff-Com: -0.207D-07 0.343D-05-0.488D-05-0.159D-03-0.739D-03 0.499D-02
 Coeff-Com: -0.514D-02-0.362D-01 0.823D-01 0.122D+00-0.121D+01 0.204D+01
 Coeff:     -0.207D-07 0.343D-05-0.488D-05-0.159D-03-0.739D-03 0.499D-02
 Coeff:     -0.514D-02-0.362D-01 0.823D-01 0.122D+00-0.121D+01 0.204D+01
 Gap=     0.104 Goal=   None    Shift=    0.200
 RMSDP=1.15D-07 MaxDP=1.09D-05 DE=-1.81D-10 OVMax= 8.63D-06

 Cycle  14  Pass 1  IDiag  1:
 E= -226.488213586542     Delta-E=       -0.000000000046 Rises=F Damp=F
 DIIS: error= 2.39D-07 at cycle  14 NSaved=  13.
 NSaved=13 IEnMin=13 EnMin= -226.488213586542     IErMin=13 ErrMin= 2.39D-07
 ErrMax= 2.39D-07  0.00D+00 EMaxC= 1.00D-01 BMatC= 3.12D-12 BMatP= 1.24D-11
 IDIUse=1 WtCom= 1.00D+00 WtEn= 0.00D+00
 Coeff-Com:  0.165D-07-0.203D-05-0.780D-05 0.617D-04-0.171D-03 0.959D-03
 Coeff-Com: -0.517D-03-0.294D-02-0.919D-02-0.628D-01 0.640D+00-0.222D+01
 Coeff-Com:  0.266D+01
 Coeff:      0.165D-07-0.203D-05-0.780D-05 0.617D-04-0.171D-03 0.959D-03
 Coeff:     -0.517D-03-0.294D-02-0.919D-02-0.628D-01 0.640D+00-0.222D+01
 Coeff:      0.266D+01
 Gap=     0.104 Goal=   None    Shift=    0.200
 RMSDP=5.08D-08 MaxDP=4.55D-06 DE=-4.60D-11 OVMax= 3.87D-06

 Cycle  15  Pass 1  IDiag  1:
 E= -226.488213586552     Delta-E=       -0.000000000010 Rises=F Damp=F
 DIIS: error= 1.34D-07 at cycle  15 NSaved=  14.
 NSaved=14 IEnMin=14 EnMin= -226.488213586552     IErMin=14 ErrMin= 1.34D-07
 ErrMax= 1.34D-07  0.00D+00 EMaxC= 1.00D-01 BMatC= 9.62D-13 BMatP= 3.12D-12
 IDIUse=1 WtCom= 1.00D+00 WtEn= 0.00D+00
 Coeff-Com:  0.790D-08-0.895D-06-0.490D-05 0.215D-04-0.245D-04 0.625D-03
 Coeff-Com:  0.503D-04-0.147D-02-0.667D-02-0.610D-01 0.456D+00-0.144D+01
 Coeff-Com:  0.129D+01 0.763D+00
 Coeff:      0.790D-08-0.895D-06-0.490D-05 0.215D-04-0.245D-04 0.625D-03
 Coeff:      0.503D-04-0.147D-02-0.667D-02-0.610D-01 0.456D+00-0.144D+01
 Coeff:      0.129D+01 0.763D+00
 Gap=     0.104 Goal=   None    Shift=    0.200
 RMSDP=3.34D-08 MaxDP=3.23D-06 DE=-9.98D-12 OVMax= 2.19D-06

 Cycle  16  Pass 1  IDiag  1:
 E= -226.488213586556     Delta-E=       -0.000000000004 Rises=F Damp=F
 DIIS: error= 7.23D-08 at cycle  16 NSaved=  15.
 NSaved=15 IEnMin=15 EnMin= -226.488213586556     IErMin=15 ErrMin= 7.23D-08
 ErrMax= 7.23D-08  0.00D+00 EMaxC= 1.00D-01 BMatC= 3.10D-13 BMatP= 9.62D-13
 IDIUse=1 WtCom= 1.00D+00 WtEn= 0.00D+00
 Coeff-Com:  0.828D-08-0.104D-05-0.373D-05 0.307D-04-0.284D-03 0.129D-02
 Coeff-Com: -0.267D-02-0.423D-03 0.849D-02-0.520D-02-0.189D-01 0.446D-01
 Coeff-Com:  0.464D+00-0.254D+01 0.305D+01
 Coeff:      0.828D-08-0.104D-05-0.373D-05 0.307D-04-0.284D-03 0.129D-02
 Coeff:     -0.267D-02-0.423D-03 0.849D-02-0.520D-02-0.189D-01 0.446D-01
 Coeff:      0.464D+00-0.254D+01 0.305D+01
 Gap=     0.104 Goal=   None    Shift=    0.200
 RMSDP=1.92D-08 MaxDP=1.83D-06 DE=-3.58D-12 OVMax= 1.11D-06

 Cycle  17  Pass 1  IDiag  1:
 E= -226.488213586557     Delta-E=       -0.000000000001 Rises=F Damp=F
 DIIS: error= 4.30D-08 at cycle  17 NSaved=  16.
 NSaved=16 IEnMin=16 EnMin= -226.488213586557     IErMin=16 ErrMin= 4.30D-08
 ErrMax= 4.30D-08  0.00D+00 EMaxC= 1.00D-01 BMatC= 1.08D-13 BMatP= 3.10D-13
 IDIUse=1 WtCom= 1.00D+00 WtEn= 0.00D+00
 Large coefficients: NSaved= 16 BigCof=    0.00 CofMax=   10.00 Det=-6.51D-16
 Inversion failed.  Reducing to 15 matrices.
 Coeff-Com: -0.175D-06-0.117D-05 0.165D-04-0.121D-03 0.475D-03-0.857D-03
 Coeff-Com: -0.580D-03 0.380D-02-0.106D-01 0.624D-01-0.198D+00 0.518D+00
 Coeff-Com: -0.139D+01 0.875D+00 0.114D+01
 Coeff:     -0.175D-06-0.117D-05 0.165D-04-0.121D-03 0.475D-03-0.857D-03
 Coeff:     -0.580D-03 0.380D-02-0.106D-01 0.624D-01-0.198D+00 0.518D+00
 Coeff:     -0.139D+01 0.875D+00 0.114D+01
 Gap=     0.104 Goal=   None    Shift=    0.200
 RMSDP=1.09D-08 MaxDP=1.02D-06 DE=-5.97D-13 OVMax= 6.67D-07

 Cycle  18  Pass 1  IDiag  1:
 E= -226.488213586557     Delta-E=       -0.000000000000 Rises=F Damp=F
 DIIS: error= 2.56D-08 at cycle  18 NSaved=  16.
 NSaved=16 IEnMin=16 EnMin= -226.488213586557     IErMin=16 ErrMin= 2.56D-08
 ErrMax= 2.56D-08  0.00D+00 EMaxC= 1.00D-01 BMatC= 3.89D-14 BMatP= 1.08D-13
 IDIUse=1 WtCom= 1.00D+00 WtEn= 0.00D+00
 Large coefficients: NSaved= 16 BigCof=    0.00 CofMax=   10.00 Det=-2.31D-16
 Inversion failed.  Reducing to 15 matrices.
 Coeff-Com:  0.759D-07 0.763D-05-0.119D-04-0.941D-05-0.139D-03 0.559D-03
 Coeff-Com:  0.632D-03-0.436D-02 0.599D-02 0.149D-01 0.963D-01-0.721D+00
 Coeff-Com:  0.140D+01-0.243D+01 0.263D+01
 Coeff:      0.759D-07 0.763D-05-0.119D-04-0.941D-05-0.139D-03 0.559D-03
 Coeff:      0.632D-03-0.436D-02 0.599D-02 0.149D-01 0.963D-01-0.721D+00
 Coeff:      0.140D+01-0.243D+01 0.263D+01
 Gap=     0.104 Goal=   None    Shift=    0.200
 RMSDP=7.21D-09 MaxDP=7.01D-07 DE=-3.41D-13 OVMax= 3.82D-07

 SCF Done:  E(ROHF) =  -226.488213587     A.U. after   18 cycles
            NFock= 18  Conv=0.72D-08     -V/T= 2.4701
 <Sx>= 0.0000 <Sy>= 0.0000 <Sz>= 0.5000 <S**2>= 0.7500 S= 0.5000
 <L.S>=  0.00000000000    
 KE= 1.540584262038D+02 PE=-5.747802927529D+02 EE= 1.880080387165D+02
 Annihilation of the first spin contaminant:
 S**2 before annihilation     0.7500,   after     0.7500
 Leave Link  502 at Sat Apr 21 10:11:08 2018, MaxMem= 10737418240 cpu:             331.4 elap:              12.0
 (Enter /home1/apps/gaussian/16rA.03/g16/l801.exe)
 Windowed orbitals will be sorted by symmetry type.
 GenMOA:  NOpAll=  4 NOp2=4 NOpUse=  4 JSym2X=1
 FoFJK:  IHMeth= 1 ICntrl=       0 DoSepK=F KAlg= 0 I1Cent=           0 FoldK=F
 IRaf=         0 NMat=       1 IRICut=       1 DoRegI=T DoRafI=F ISym2E= 1 IDoP0=0 IntGTp=1.
 FoFCou: FMM=F IPFlag=           8 FMFlag=      100000 FMFlg1=           0
         NFxFlg=           0 DoJE=F BraDBF=F KetDBF=F FulRan=T
         wScrn=  0.000000 ICntrl=         0 IOpCl=  1 I1Cent=           0 NGrid=           0
         NMat0=    1 NMatS0=      1 NMatT0=    0 NMatD0=    1 NMtDS0=    0 NMtDT0=    0
 Petite list used in FoFCou.
 <Sx>= 0.0000 <Sy>= 0.0000 <Sz>= 0.5000 <S**2>= 0.7500 S= 0.5000
 Range of M.O.s used for correlation:     1   215
 NBasis=   215 NAE=    11 NBE=    10 NFC=     0 NFV=     0
 NROrb=    215 NOA=    11 NOB=    10 NVA=   204 NVB=   205

 **** Warning!!: The largest alpha MO coefficient is  0.19944163D+03


 **** Warning!!: The largest beta MO coefficient is  0.19944250D+03

 Singles contribution to E2=   -0.1214095186D-02
 Leave Link  801 at Sat Apr 21 10:11:11 2018, MaxMem= 10737418240 cpu:              97.7 elap:               3.1
 (Enter /home1/apps/gaussian/16rA.03/g16/l804.exe)
 Open-shell transformation, MDV= 10737418240 ITran=4 ISComp=2.
 Unit  1 TFree=       1390938 TCopy=       1201445.
 Semi-Direct transformation.
 ModeAB=           2 MOrb=            11 LenV=   10735914061
 LASXX=     13597211 LTotXX=    13597211 LenRXX=    13597211
 LTotAB=    13870998 MaxLAS=    79017015 LenRXY=    79017015
 NonZer=    80490410 LenScr=   121500160 LnRSAI=           0
 LnScr1=           0 LExtra=     7890945 Total=    222005331
 MaxDsk= 67108864000 SrtSym=           F ITran=            4
 DoSDTr:  NPSUse= 32
 JobTyp=1 Pass  1:  I=   1 to  11.
 (rs|ai) integrals will be sorted in core.
 Complete sort for first half transformation.
 First half transformation complete.
 Begin second half transformation for I=  10.
 Begin second half transformation for I=  10.
 Complete sort for second half transformation.
 Second half transformation complete.
 ModeAB=           2 MOrb=            10 LenV=   10735914061
 LASXX=     12352723 LTotXX=    12352723 LenRXX=    71833650
 LTotAB=    11326585 MaxLAS=    71833650 LenRXY=    11326585
 NonZer=    73173100 LenScr=   110525952 LnRSAI=           0
 LnScr1=           0 LExtra=   100505171 Total=    294191358
 MaxDsk= 67108864000 SrtSym=           F ITran=            4
 DoSDTr:  NPSUse= 32
 JobTyp=2 Pass  1:  I=   1 to  10.
 (rs|ai) integrals will be sorted in core.
 Complete sort for first half transformation.
 First half transformation complete.
 Begin second half transformation for I=  10.
 Begin second half transformation for I=  10.
 Complete sort for second half transformation.
 Second half transformation complete.
 Spin components of T(2) and E(2):
     alpha-alpha T2 =       0.1813937117D-01 E2=     -0.1628831895D+00
     alpha-beta  T2 =       0.7845822981D-01 E2=     -0.7152584752D+00
     beta-beta   T2 =       0.1549278878D-01 E2=     -0.1540638919D+00
 ANorm=    0.1055216873D+01
 E2 =    -0.1033419652D+01 EUMP2 =    -0.22752163323833D+03
 (S**2,0)=  0.75000D+00           (S**2,1)=  0.75000D+00
 E(PUHF)=      -0.22648821359D+03        E(PMP2)=      -0.22752163324D+03
 Leave Link  804 at Sat Apr 21 10:13:08 2018, MaxMem= 10737418240 cpu:            3720.0 elap:             116.4
 (Enter /home1/apps/gaussian/16rA.03/g16/l913.exe)
 CIDS:  MDV= 10737418240.
 IFCWin=0 IBDFC=1 NFBD=     0     0 NFCmp=     0     0 NFFFC=     0     0
 Using original routines for 1st iteration.
 Using DD4UQ or CC4UQ for 2nd and later iterations.
 Keep R2 and R3 ints in memory in symmetry-blocked form, NReq=338810218.
 FoFCou: FMM=F IPFlag=           8 FMFlag=           0 FMFlg1=           0
         NFxFlg=           0 DoJE=F BraDBF=F KetDBF=F FulRan=T
         wScrn=  0.000000 ICntrl=       600 IOpCl=  0 I1Cent=           0 NGrid=           0
         NMat0=    1 NMatS0=  23220 NMatT0=    0 NMatD0=    1 NMtDS0=    0 NMtDT0=    0
 Petite list used in FoFCou.
 CIDS: In Core Option IDoMem=           1.
 CCSD(T)
 =======
 Iterations= 150 Convergence= 0.100D-06
 Produce multiple copies of IABC intergrals
 Iteration Nr.   1
 **********************
 DD1Dir will call FoFMem   1 times, MxPair=       320
 NAB=   110 NAA=    55 NBB=    45.
 DD1Dir will call FoFMem   1 times, MxPair=       320
 NAB=   110 NAA=    55 NBB=    45.
 MP4(R+Q)= -0.13458207D+00
 Maximum subspace dimension=  5
 A-vector RMS=  1.2119927D-04 Max=  1.2141902D-03 conv= 1.00D-05.
 RLE energy=       -1.0405634799
 E3=        0.12744911D+00        EROMP3=      -0.22739418413D+03
 E4(SDQ)=  -0.81893462D-01        ROMP4(SDQ)=  -0.22747607759D+03
 VARIATIONAL ENERGIES WITH THE FIRST-ORDER WAVEFUNCTION:
 DE(Corr)=  -1.0405151     E(Corr)=     -227.52872866    
 NORM(A)=   0.10554471D+01
 Iteration Nr.   2
 **********************
 DD1Dir will call FoFMem   1 times, MxPair=       320
 NAB=   110 NAA=    55 NBB=    45.
 A-vector RMS=  3.4140424D-03 Max=  2.8297085D-02 conv= 1.00D-05.
 RLE energy=       -1.0213945176
 DE(Corr)= -0.90716408     E(CORR)=     -227.39537767     Delta= 1.33D-01
 NORM(A)=   0.10533133D+01
 Iteration Nr.   3
 **********************
 DD1Dir will call FoFMem   1 times, MxPair=       320
 NAB=   110 NAA=    55 NBB=    45.
 A-vector RMS=  2.8237092D-03 Max=  2.6217650D-02 conv= 1.00D-05.
 RLE energy=       -0.9782014751
 DE(Corr)= -0.91564146     E(CORR)=     -227.40385505     Delta=-8.48D-03
 NORM(A)=   0.10540093D+01
 Iteration Nr.   4
 **********************
 DD1Dir will call FoFMem   1 times, MxPair=       320
 NAB=   110 NAA=    55 NBB=    45.
 A-vector RMS=  1.5695106D-03 Max=  1.8242779D-02 conv= 1.00D-05.
 RLE energy=       -0.8624758935
 DE(Corr)= -0.93974221     E(CORR)=     -227.42795579     Delta=-2.41D-02
 NORM(A)=   0.11030718D+01
 Iteration Nr.   5
 **********************
 DD1Dir will call FoFMem   1 times, MxPair=       320
 NAB=   110 NAA=    55 NBB=    45.
 A-vector RMS=  3.9070867D-03 Max=  2.4358701D-02 conv= 1.00D-05.
 RLE energy=       -0.9585051030
 DE(Corr)=  -1.0220630     E(CORR)=     -227.51027658     Delta=-8.23D-02
 NORM(A)=   0.10697345D+01
 Iteration Nr.   6
 **********************
 DD1Dir will call FoFMem   1 times, MxPair=       320
 NAB=   110 NAA=    55 NBB=    45.
 A-vector RMS=  2.3311700D-04 Max=  3.7539569D-03 conv= 1.00D-05.
 RLE energy=       -0.9589856835
 DE(Corr)= -0.95920221     E(CORR)=     -227.44741580     Delta= 6.29D-02
 NORM(A)=   0.10692830D+01
 Iteration Nr.   7
 **********************
 DD1Dir will call FoFMem   1 times, MxPair=       320
 NAB=   110 NAA=    55 NBB=    45.
 A-vector RMS=  1.2293455D-04 Max=  2.5639070D-03 conv= 1.00D-05.
 RLE energy=       -0.9581917236
 DE(Corr)= -0.95824024     E(CORR)=     -227.44645383     Delta= 9.62D-04
 NORM(A)=   0.10709346D+01
 Iteration Nr.   8
 **********************
 DD1Dir will call FoFMem   1 times, MxPair=       320
 NAB=   110 NAA=    55 NBB=    45.
 A-vector RMS=  6.1871185D-05 Max=  7.8777020D-04 conv= 1.00D-05.
 RLE energy=       -0.9585634750
 DE(Corr)= -0.95880757     E(CORR)=     -227.44702116     Delta=-5.67D-04
 NORM(A)=   0.10712084D+01
 Iteration Nr.   9
 **********************
 DD1Dir will call FoFMem   1 times, MxPair=       320
 NAB=   110 NAA=    55 NBB=    45.
 A-vector RMS=  2.6248526D-05 Max=  2.5755070D-04 conv= 1.00D-05.
 RLE energy=       -0.9586282883
 DE(Corr)= -0.95859771     E(CORR)=     -227.44681130     Delta= 2.10D-04
 NORM(A)=   0.10714284D+01
 Iteration Nr.  10
 **********************
 DD1Dir will call FoFMem   1 times, MxPair=       320
 NAB=   110 NAA=    55 NBB=    45.
 A-vector RMS=  1.0732656D-05 Max=  1.5169470D-04 conv= 1.00D-05.
 RLE energy=       -0.9586164780
 DE(Corr)= -0.95864177     E(CORR)=     -227.44685535     Delta=-4.41D-05
 NORM(A)=   0.10713902D+01
 Iteration Nr.  11
 **********************
 DD1Dir will call FoFMem   1 times, MxPair=       320
 NAB=   110 NAA=    55 NBB=    45.
 A-vector RMS=  4.8899136D-06 Max=  4.8219484D-05 conv= 1.00D-05.
 RLE energy=       -0.9586158228
 DE(Corr)= -0.95862979     E(CORR)=     -227.44684338     Delta= 1.20D-05
 NORM(A)=   0.10713592D+01
 Iteration Nr.  12
 **********************
 DD1Dir will call FoFMem   1 times, MxPair=       320
 NAB=   110 NAA=    55 NBB=    45.
 A-vector RMS=  1.8277235D-06 Max=  3.5829947D-05 conv= 1.00D-05.
 RLE energy=       -0.9586205840
 DE(Corr)= -0.95862157     E(CORR)=     -227.44683516     Delta= 8.22D-06
 NORM(A)=   0.10713509D+01
 Iteration Nr.  13
 **********************
 DD1Dir will call FoFMem   1 times, MxPair=       320
 NAB=   110 NAA=    55 NBB=    45.
 A-vector RMS=  7.4578157D-07 Max=  1.2648872D-05 conv= 1.00D-05.
 RLE energy=       -0.9586163938
 DE(Corr)= -0.95861749     E(CORR)=     -227.44683107     Delta= 4.09D-06
 NORM(A)=   0.10713487D+01
 Iteration Nr.  14
 **********************
 DD1Dir will call FoFMem   1 times, MxPair=       320
 NAB=   110 NAA=    55 NBB=    45.
 A-vector RMS=  4.0957743D-07 Max=  4.9710311D-06 conv= 1.00D-05.
 RLE energy=       -0.9586175071
 DE(Corr)= -0.95861816     E(CORR)=     -227.44683175     Delta=-6.78D-07
 NORM(A)=   0.10713490D+01
 Iteration Nr.  15
 **********************
 DD1Dir will call FoFMem   1 times, MxPair=       320
 NAB=   110 NAA=    55 NBB=    45.
 A-vector RMS=  2.4007768D-07 Max=  4.2298923D-06 conv= 1.00D-05.
 RLE energy=       -0.9586180122
 DE(Corr)= -0.95861780     E(CORR)=     -227.44683139     Delta= 3.61D-07
 NORM(A)=   0.10713504D+01
 Iteration Nr.  16
 **********************
 DD1Dir will call FoFMem   1 times, MxPair=       320
 NAB=   110 NAA=    55 NBB=    45.
 A-vector RMS=  1.3224171D-07 Max=  2.6080872D-06 conv= 1.00D-05.
 RLE energy=       -0.9586182123
 DE(Corr)= -0.95861808     E(CORR)=     -227.44683167     Delta=-2.81D-07
 NORM(A)=   0.10713518D+01
 Iteration Nr.  17
 **********************
 DD1Dir will call FoFMem   1 times, MxPair=       320
 NAB=   110 NAA=    55 NBB=    45.
 A-vector RMS=  8.0885915D-08 Max=  1.3044835D-06 conv= 1.00D-05.
 RLE energy=       -0.9586183796
 DE(Corr)= -0.95861825     E(CORR)=     -227.44683183     Delta=-1.63D-07
 NORM(A)=   0.10713527D+01
 Iteration Nr.  18
 **********************
 DD1Dir will call FoFMem   1 times, MxPair=       320
 NAB=   110 NAA=    55 NBB=    45.
 A-vector RMS=  4.2317567D-08 Max=  6.5832288D-07 conv= 1.00D-05.
 RLE energy=       -0.9586184431
 DE(Corr)= -0.95861839     E(CORR)=     -227.44683198     Delta=-1.48D-07
 NORM(A)=   0.10713530D+01
 Iteration Nr.  19
 **********************
 DD1Dir will call FoFMem   1 times, MxPair=       320
 NAB=   110 NAA=    55 NBB=    45.
 A-vector RMS=  1.9489259D-08 Max=  1.8943205D-07 conv= 1.00D-05.
 RLE energy=       -0.9586184185
 DE(Corr)= -0.95861841     E(CORR)=     -227.44683200     Delta=-1.54D-08
 NORM(A)=   0.10713531D+01
 CI/CC converged in   19 iterations to DelEn=-1.54D-08 Conv= 1.00D-07 ErrA1= 1.95D-08 Conv= 1.00D-05
 Wavefunction amplitudes converged. E(Corr)=     -227.44683200    
 Largest amplitude= 9.63D-02
 Time for triples=    19302.11 seconds.
 T4(CCSD)= -0.29878976D-01
 T5(CCSD)=  0.31079369D-02
 CCSD(T)= -0.22747360304D+03
 Discarding MO integrals.
 Leave Link  913 at Sat Apr 21 10:27:38 2018, MaxMem= 10737418240 cpu:           27780.8 elap:             869.6
 (Enter /home1/apps/gaussian/16rA.03/g16/l601.exe)
 Copying SCF densities to generalized density rwf, IOpCl= 0 IROHF=1.

 **********************************************************************

            Population analysis using the SCF density.

 **********************************************************************

 Orbital symmetries:
       Occupied  (SG) (PI) (PI) (SG) (DLTA) (DLTA) (PI) (PI) (SG)
                 (SG) (SG)
       Virtual   (PI) (PI) (SG) (SG) (PI) (PI) (SG) (SG) (SG) (PI)
                 (PI) (DLTA) (DLTA) (SG) (PI) (PI) (SG) (PI) (PI)
                 (SG) (SG) (SG) (DLTA) (DLTA) (PI) (PI) (DLTA)
                 (DLTA) (SG) (PI) (PI) (PI) (PI) (SG) (PI) (PI)
                 (SG) (SG) (PHI) (PHI) (DLTA) (DLTA) (PI) (PI)
                 (SG) (SG) (DLTA) (DLTA) (SG) (PI) (PI) (SG) (PI)
                 (PI) (SG) (DLTA) (DLTA) (PI) (PI) (PI) (PI) (SG)
                 (SG) (PHI) (PHI) (DLTA) (DLTA) (PI) (PI) (SG)
                 (DLTA) (DLTA) (PI) (PI) (SG) (?A) (?A) (PHI) (PHI)
                 (DLTA) (DLTA) (PI) (PI) (SG) (SG) (PI) (PI) (SG)
                 (SG) (PHI) (PHI) (DLTA) (DLTA) (PI) (PI) (SG)
                 (DLTA) (DLTA) (PI) (PI) (SG) (PI) (PI) (SG) (SG)
                 (?A) (?A) (PHI) (PHI) (DLTA) (DLTA) (PI) (PI)
                 (SG) (DLTA) (DLTA) (PI) (PI) (SG) (PHI) (PHI)
                 (DLTA) (DLTA) (PI) (PI) (PI) (PI) (SG) (SG) (SG)
                 (?A) (?A) (PHI) (PHI) (DLTA) (DLTA) (PI) (PI)
                 (SG) (DLTA) (DLTA) (PI) (PI) (SG) (SG) (PI) (PI)
                 (SG) (SG) (DLTA) (DLTA) (PI) (PI) (SG) (PI) (PI)
                 (SG) (SG) (PI) (PI) (SG) (DLTA) (DLTA) (PI) (PI)
                 (SG) (SG) (PI) (PI) (SG) (SG) (DLTA) (DLTA) (PI)
                 (PI) (SG) (PI) (PI) (SG) (SG) (PI) (PI) (SG) (SG)
                 (PI) (PI) (SG) (SG) (PI) (PI) (SG) (SG) (SG) (PI)
                 (PI) (SG) (SG) (PI) (PI) (SG) (SG) (SG) (SG) (SG)
 The electronic state is 2-SG.
 Alpha  occ. eigenvalues --   -5.90108  -3.97310  -3.97310  -3.97047  -0.80223
 Alpha  occ. eigenvalues --   -0.80223  -0.79942  -0.79708  -0.79708  -0.44678
 Alpha  occ. eigenvalues --   -0.28143
 Alpha virt. eigenvalues --    0.02021   0.02021   0.02951   0.03850   0.07583
 Alpha virt. eigenvalues --    0.07583   0.08790   0.15885   0.17636   0.23957
 Alpha virt. eigenvalues --    0.23957   0.24882   0.24882   0.25220   0.29465
 Alpha virt. eigenvalues --    0.29465   0.35056   0.37291   0.37291   0.52027
 Alpha virt. eigenvalues --    0.60428   0.65011   0.85671   0.85671   0.85872
 Alpha virt. eigenvalues --    0.85872   0.90529   0.90529   0.95175   1.05415
 Alpha virt. eigenvalues --    1.05415   1.11800   1.11800   1.13965   1.21412
 Alpha virt. eigenvalues --    1.21412   1.22804   1.66122   1.84964   1.84964
 Alpha virt. eigenvalues --    1.93003   1.93003   2.20459   2.20459   2.31766
 Alpha virt. eigenvalues --    2.52338   2.73980   2.73980   2.74115   2.77984
 Alpha virt. eigenvalues --    2.77984   2.88424   3.47822   3.47822   3.83007
 Alpha virt. eigenvalues --    3.94473   3.94473   4.06398   4.06398   4.26834
 Alpha virt. eigenvalues --    4.26834   4.49882   4.92532   5.34635   5.34635
 Alpha virt. eigenvalues --    5.38903   5.38903   5.57572   5.57572   5.76252
 Alpha virt. eigenvalues --    7.19380   7.19380   7.24161   7.24161   7.45085
 Alpha virt. eigenvalues --    7.75196   7.75196   7.75821   7.75821   7.76548
 Alpha virt. eigenvalues --    7.76548   7.80845   7.80845   7.92086   8.14259
 Alpha virt. eigenvalues --    8.82083   8.82083   9.12324  10.22288  13.77836
 Alpha virt. eigenvalues --   13.77836  13.80685  13.80685  13.92588  13.92588
 Alpha virt. eigenvalues --   14.07565  15.84837  15.84837  15.88573  15.88573
 Alpha virt. eigenvalues --   16.08885  18.67843  18.67843  18.72628  18.97788
 Alpha virt. eigenvalues --   20.22777  20.22777  20.23223  20.23223  20.23695
 Alpha virt. eigenvalues --   20.23695  20.25619  20.25619  20.37909  30.79680
 Alpha virt. eigenvalues --   30.79680  30.82951  30.82951  31.00371  36.21350
 Alpha virt. eigenvalues --   36.21350  36.23419  36.23419  36.27796  36.27796
 Alpha virt. eigenvalues --   36.32270  36.32270  36.36293  36.57984  39.69645
 Alpha virt. eigenvalues --   47.44943  47.44943  47.45424  47.45424  47.45847
 Alpha virt. eigenvalues --   47.45847  47.47017  47.47017  47.53671  55.57418
 Alpha virt. eigenvalues --   55.57418  55.60497  55.60497  55.76551  63.84517
 Alpha virt. eigenvalues --   67.08636  67.08636  67.30788  81.40175 100.16825
 Alpha virt. eigenvalues --  100.16825 100.19639 100.19639 100.34106 120.42542
 Alpha virt. eigenvalues --  120.42542 120.62359 162.34706 215.25537 215.25537
 Alpha virt. eigenvalues --  215.42333 217.69606 217.69606 217.71788 217.71788
 Alpha virt. eigenvalues --  217.83497 251.29388 384.08563 384.08563 384.23735
 Alpha virt. eigenvalues --  429.93940 689.43734 689.43734 689.45034 689.45034
 Alpha virt. eigenvalues --  689.52508 708.91681 708.91681 709.06360 822.32180
 Alpha virt. eigenvalues -- 1394.706901394.706901394.845711656.665772995.67407
 Alpha virt. eigenvalues -- 2995.674072995.799913569.291137234.330787234.33078
 Alpha virt. eigenvalues -- 7234.439808256.19233******************************
 Alpha virt. eigenvalues -- **************************************************
 Alpha virt. eigenvalues -- ****************************************
     Molecular Orbital Coefficients:
                           6         7         8         9        10
                           O         O         O         O         O
     Eigenvalues --    -0.80223  -0.79942  -0.79708  -0.79708  -0.44678
   1 1   Zn 1S          0.00000   0.00000   0.00000   0.00000  -0.00000
   2        2S          0.00000   0.00000   0.00000   0.00000  -0.00000
   3        3S          0.00000   0.00000   0.00000  -0.00000  -0.00000
   4        4S          0.00000   0.00000   0.00000   0.00000  -0.00000
   5        5S          0.00000   0.00000   0.00000  -0.00000   0.00000
   6        6S          0.00000   0.00000   0.00000   0.00000  -0.00001
   7        7S          0.00000   0.00000   0.00000  -0.00000   0.00001
   8        8S          0.00000   0.00000   0.00000   0.00001  -0.00008
   9        9S          0.00000   0.00000   0.00000  -0.00001   0.00014
  10       10S          0.00000   0.00000   0.00000   0.00004  -0.00063
  11       11S          0.00000   0.00000   0.00000  -0.00012   0.00193
  12       12S          0.00000   0.00000   0.00000   0.00050  -0.00913
  13       13S          0.00000   0.00000   0.00000  -0.00070   0.00598
  14       14S          0.00000   0.00000   0.00000  -0.00066   0.07674
  15       15S          0.00000   0.00000   0.00000   0.00953  -0.03743
  16       16S          0.00000   0.00000   0.00000  -0.02941  -0.09693
  17       17S          0.00000   0.00000   0.00000  -0.00790  -0.12125
  18       18S          0.00000   0.00000   0.00000  -0.02479   0.23800
  19       19S          0.00000   0.00000   0.00000  -0.00104   0.21139
  20       20S          0.00000   0.00000   0.00000  -0.01159   0.04231
  21       21S          0.00000   0.00000   0.00000  -0.00572  -0.00847
  22       22S          0.00000   0.00000   0.00000   0.04131  -0.05780
  23       23S          0.00000   0.00000   0.00000  -0.00032  -0.01515
  24       24PX         0.00000  -0.00000   0.00000   0.00000   0.00000
  25       24PY         0.00000   0.00000  -0.00000   0.00000   0.00000
  26       24PZ         0.00000   0.00000   0.00000  -0.00000   0.00000
  27       25PX         0.00000  -0.00000   0.00000   0.00000   0.00000
  28       25PY         0.00000   0.00000  -0.00000   0.00000   0.00000
  29       25PZ         0.00000   0.00000   0.00000   0.00000  -0.00000
  30       26PX         0.00000  -0.00000   0.00000   0.00000   0.00000
  31       26PY         0.00000   0.00000  -0.00000   0.00000   0.00000
  32       26PZ         0.00000   0.00000   0.00000  -0.00000   0.00000
  33       27PX         0.00000  -0.00000   0.00000   0.00000   0.00000
  34       27PY         0.00000   0.00000  -0.00000   0.00000   0.00000
  35       27PZ         0.00000   0.00000   0.00000   0.00000  -0.00000
  36       28PX         0.00000  -0.00000   0.00000   0.00000   0.00000
  37       28PY         0.00000   0.00000  -0.00000   0.00000   0.00000
  38       28PZ         0.00000   0.00000   0.00000  -0.00000   0.00003
  39       29PX         0.00000  -0.00000   0.00000   0.00000   0.00000
  40       29PY         0.00000   0.00000  -0.00000   0.00000   0.00000
  41       29PZ         0.00000   0.00000   0.00000   0.00000  -0.00005
  42       30PX         0.00000  -0.00001   0.00000   0.00000   0.00000
  43       30PY         0.00000   0.00000  -0.00001   0.00000   0.00000
  44       30PZ         0.00000   0.00000   0.00000   0.00000   0.00053
  45       31PX         0.00000   0.00002   0.00000   0.00000   0.00000
  46       31PY         0.00000   0.00000   0.00002   0.00000   0.00000
  47       31PZ         0.00000   0.00000   0.00000   0.00001  -0.00149
  48       32PX         0.00000   0.00024   0.00000   0.00000   0.00000
  49       32PY         0.00000   0.00000   0.00024   0.00000   0.00000
  50       32PZ         0.00000   0.00000   0.00000  -0.00058  -0.00468
  51       33PX         0.00000   0.00038   0.00000   0.00000   0.00000
  52       33PY         0.00000   0.00000   0.00038   0.00000   0.00000
  53       33PZ         0.00000   0.00000   0.00000  -0.00214   0.01759
  54       34PX         0.00000  -0.00119   0.00000   0.00000   0.00000
  55       34PY         0.00000   0.00000  -0.00119   0.00000   0.00000
  56       34PZ         0.00000   0.00000   0.00000   0.00273   0.02181
  57       35PX         0.00000  -0.00416   0.00000   0.00000   0.00000
  58       35PY         0.00000   0.00000  -0.00416   0.00000   0.00000
  59       35PZ         0.00000   0.00000   0.00000   0.00818  -0.00634
  60       36PX         0.00000  -0.00008   0.00000   0.00000   0.00000
  61       36PY         0.00000   0.00000  -0.00008   0.00000   0.00000
  62       36PZ         0.00000   0.00000   0.00000   0.00177   0.03392
  63       37PX         0.00000   0.00140   0.00000   0.00000   0.00000
  64       37PY         0.00000   0.00000   0.00140   0.00000   0.00000
  65       37PZ         0.00000   0.00000   0.00000   0.00064  -0.05338
  66       38PX         0.00000   0.00028   0.00000   0.00000   0.00000
  67       38PY         0.00000   0.00000   0.00028   0.00000   0.00000
  68       38PZ         0.00000   0.00000   0.00000  -0.00463  -0.09342
  69       39PX         0.00000   0.00095   0.00000   0.00000   0.00000
  70       39PY         0.00000   0.00000   0.00095   0.00000   0.00000
  71       39PZ         0.00000   0.00000   0.00000   0.00141  -0.02216
  72       40PX         0.00000  -0.00039   0.00000   0.00000   0.00000
  73       40PY         0.00000   0.00000  -0.00039   0.00000   0.00000
  74       40PZ         0.00000   0.00000   0.00000   0.00204  -0.01230
  75       41PX         0.00000   0.00286   0.00000   0.00000   0.00000
  76       41PY         0.00000   0.00000   0.00286   0.00000   0.00000
  77       41PZ         0.00000   0.00000   0.00000  -0.00720   0.04502
  78       42PX         0.00000  -0.00018   0.00000   0.00000   0.00000
  79       42PY         0.00000   0.00000  -0.00018   0.00000   0.00000
  80       42PZ         0.00000   0.00000   0.00000   0.00052   0.00405
  81       43D 0        0.00000   0.00000   0.00000   0.00142  -0.00017
  82       43D+1        0.00000   0.00144   0.00000   0.00000   0.00000
  83       43D-1        0.00000   0.00000   0.00144   0.00000   0.00000
  84       43D+2        0.00000   0.00000   0.00000   0.00000  -0.00000
  85       43D-2        0.00144   0.00000   0.00000   0.00000   0.00000
  86       44D 0        0.00000   0.00000   0.00000   0.01742  -0.00206
  87       44D+1        0.00000   0.01762   0.00000   0.00000   0.00000
  88       44D-1        0.00000   0.00000   0.01762   0.00000   0.00000
  89       44D+2        0.00000   0.00000   0.00000   0.00000  -0.00000
  90       44D-2        0.01761   0.00000   0.00000   0.00000   0.00000
  91       45D 0        0.00000   0.00000   0.00000   0.07922  -0.00930
  92       45D+1        0.00000   0.08009   0.00000   0.00000   0.00000
  93       45D-1        0.00000   0.00000   0.08009   0.00000   0.00000
  94       45D+2        0.00000   0.00000   0.00000   0.00000  -0.00000
  95       45D-2        0.08006   0.00000   0.00000   0.00000   0.00000
  96       46D 0        0.00000   0.00000   0.00000   0.18855  -0.02371
  97       46D+1        0.00000   0.19103   0.00000   0.00000   0.00000
  98       46D-1        0.00000   0.00000   0.19103   0.00000   0.00000
  99       46D+2        0.00000   0.00000   0.00000   0.00000  -0.00000
 100       46D-2        0.19062   0.00000   0.00000   0.00000   0.00000
 101       47D 0        0.00000   0.00000   0.00000   0.22918  -0.05428
 102       47D+1        0.00000   0.23910   0.00000   0.00000   0.00000
 103       47D-1        0.00000   0.00000   0.23910   0.00000   0.00000
 104       47D+2        0.00000   0.00000   0.00000   0.00000  -0.00000
 105       47D-2        0.23368   0.00000   0.00000   0.00000   0.00000
 106       48D 0        0.00000   0.00000   0.00000   0.35305  -0.04342
 107       48D+1        0.00000   0.35747   0.00000   0.00000   0.00000
 108       48D-1        0.00000   0.00000   0.35747   0.00000   0.00000
 109       48D+2        0.00000   0.00000   0.00000   0.00000  -0.00000
 110       48D-2        0.35696   0.00000   0.00000   0.00000   0.00000
 111       49D 0        0.00000   0.00000   0.00000   0.27154  -0.02592
 112       49D+1        0.00000   0.27346   0.00000   0.00000   0.00000
 113       49D-1        0.00000   0.00000   0.27346   0.00000   0.00000
 114       49D+2        0.00000   0.00000   0.00000   0.00000   0.00000
 115       49D-2        0.27532   0.00000   0.00000   0.00000   0.00000
 116       50D 0        0.00000   0.00000   0.00000   0.10387   0.00113
 117       50D+1        0.00000   0.10329   0.00000   0.00000   0.00000
 118       50D-1        0.00000   0.00000   0.10329   0.00000   0.00000
 119       50D+2        0.00000   0.00000   0.00000  -0.00000  -0.00000
 120       50D-2        0.10187   0.00000   0.00000   0.00000   0.00000
 121       51D 0        0.00000   0.00000   0.00000   0.01715   0.00057
 122       51D+1        0.00000   0.01668   0.00000   0.00000   0.00000
 123       51D-1        0.00000   0.00000   0.01668   0.00000   0.00000
 124       51D+2        0.00000   0.00000   0.00000   0.00000   0.00000
 125       51D-2        0.01723   0.00000   0.00000   0.00000   0.00000
 126       52D 0        0.00000   0.00000   0.00000   0.09144   0.01646
 127       52D+1        0.00000   0.08508   0.00000   0.00000   0.00000
 128       52D-1        0.00000   0.00000   0.08508   0.00000   0.00000
 129       52D+2        0.00000   0.00000   0.00000   0.00000   0.00000
 130       52D-2        0.09028   0.00000   0.00000   0.00000   0.00000
 131       53D 0        0.00000   0.00000   0.00000   0.00457   0.00812
 132       53D+1        0.00000   0.00441   0.00000   0.00000   0.00000
 133       53D-1        0.00000   0.00000   0.00441   0.00000   0.00000
 134       53D+2        0.00000   0.00000   0.00000   0.00000   0.00000
 135       53D-2        0.00372   0.00000   0.00000   0.00000   0.00000
 136       54F 0        0.00000   0.00000   0.00000   0.00011  -0.00008
 137       54F+1        0.00000   0.00011   0.00000   0.00000   0.00000
 138       54F-1        0.00000   0.00000   0.00011   0.00000   0.00000
 139       54F+2        0.00000   0.00000   0.00000   0.00000   0.00000
 140       54F-2        0.00008   0.00000   0.00000   0.00000   0.00000
 141       54F+3        0.00000  -0.00000   0.00000   0.00000   0.00000
 142       54F-3        0.00000   0.00000   0.00000   0.00000   0.00000
 143       55F 0        0.00000   0.00000   0.00000   0.00021  -0.00026
 144       55F+1        0.00000   0.00021   0.00000   0.00000   0.00000
 145       55F-1        0.00000   0.00000   0.00021   0.00000   0.00000
 146       55F+2        0.00000   0.00000   0.00000  -0.00000  -0.00000
 147       55F-2        0.00021   0.00000   0.00000   0.00000   0.00000
 148       55F+3        0.00000  -0.00000   0.00000   0.00000   0.00000
 149       55F-3        0.00000   0.00000  -0.00000   0.00000   0.00000
 150       56F 0        0.00000   0.00000   0.00000   0.00075  -0.00090
 151       56F+1        0.00000   0.00086   0.00000   0.00000   0.00000
 152       56F-1        0.00000   0.00000   0.00086   0.00000   0.00000
 153       56F+2        0.00000   0.00000   0.00000   0.00000   0.00000
 154       56F-2        0.00043   0.00000   0.00000   0.00000   0.00000
 155       56F+3        0.00000  -0.00000   0.00000   0.00000   0.00000
 156       56F-3        0.00000   0.00000   0.00000   0.00000   0.00000
 157       57F 0        0.00000   0.00000   0.00000  -0.00004  -0.00402
 158       57F+1        0.00000   0.00050   0.00000   0.00000   0.00000
 159       57F-1        0.00000   0.00000   0.00050   0.00000   0.00000
 160       57F+2        0.00000   0.00000   0.00000  -0.00000  -0.00000
 161       57F-2        0.00096   0.00000   0.00000   0.00000   0.00000
 162       57F+3        0.00000  -0.00000   0.00000   0.00000   0.00000
 163       57F-3        0.00000   0.00000  -0.00000   0.00000   0.00000
 164       58G 0        0.00000   0.00000   0.00000  -0.00010   0.00007
 165       58G+1        0.00000  -0.00010   0.00000   0.00000   0.00000
 166       58G-1        0.00000   0.00000  -0.00010   0.00000   0.00000
 167       58G+2        0.00000   0.00000   0.00000   0.00000   0.00000
 168       58G-2       -0.00008   0.00000   0.00000   0.00000   0.00000
 169       58G+3        0.00000   0.00000   0.00000   0.00000   0.00000
 170       58G-3        0.00000   0.00000   0.00000   0.00000   0.00000
 171       58G+4        0.00000   0.00000   0.00000  -0.00000   0.00000
 172       58G-4        0.00000   0.00000   0.00000   0.00000   0.00000
 173       59G 0        0.00000   0.00000   0.00000   0.00004  -0.00018
 174       59G+1        0.00000   0.00008   0.00000   0.00000   0.00000
 175       59G-1        0.00000   0.00000   0.00008   0.00000   0.00000
 176       59G+2        0.00000   0.00000   0.00000  -0.00000   0.00000
 177       59G-2        0.00008   0.00000   0.00000   0.00000   0.00000
 178       59G+3        0.00000  -0.00000   0.00000   0.00000   0.00000
 179       59G-3        0.00000   0.00000  -0.00000   0.00000   0.00000
 180       59G+4        0.00000   0.00000   0.00000   0.00000  -0.00000
 181       59G-4       -0.00000   0.00000   0.00000   0.00000   0.00000
 182       60G 0        0.00000   0.00000   0.00000  -0.00063   0.00061
 183       60G+1        0.00000  -0.00070   0.00000   0.00000   0.00000
 184       60G-1        0.00000   0.00000  -0.00070   0.00000   0.00000
 185       60G+2        0.00000   0.00000   0.00000   0.00000   0.00000
 186       60G-2       -0.00055   0.00000   0.00000   0.00000   0.00000
 187       60G+3        0.00000   0.00000   0.00000   0.00000   0.00000
 188       60G-3        0.00000   0.00000   0.00000   0.00000   0.00000
 189       60G+4        0.00000   0.00000   0.00000  -0.00000   0.00000
 190       60G-4        0.00000   0.00000   0.00000   0.00000   0.00000
 191 2   H  1S          0.00000   0.00000   0.00000   0.00052   0.00301
 192        2S          0.00000   0.00000   0.00000   0.00530   0.03285
 193        3S          0.00000   0.00000   0.00000   0.02158   0.12517
 194        4S          0.00000   0.00000   0.00000   0.03638   0.30334
 195        5S          0.00000   0.00000   0.00000   0.02411   0.27747
 196        6S          0.00000   0.00000   0.00000   0.00437   0.03216
 197        7PX         0.00000  -0.00129   0.00000   0.00000   0.00000
 198        7PY         0.00000   0.00000  -0.00129   0.00000   0.00000
 199        7PZ         0.00000   0.00000   0.00000   0.00320   0.00389
 200        8PX         0.00000  -0.00118   0.00000   0.00000   0.00000
 201        8PY         0.00000   0.00000  -0.00118   0.00000   0.00000
 202        8PZ         0.00000   0.00000   0.00000   0.00560   0.02570
 203        9PX         0.00000  -0.00129   0.00000   0.00000   0.00000
 204        9PY         0.00000   0.00000  -0.00129   0.00000   0.00000
 205        9PZ         0.00000   0.00000   0.00000   0.00345   0.01957
 206       10D 0        0.00000   0.00000   0.00000   0.00110   0.00204
 207       10D+1        0.00000  -0.00093   0.00000   0.00000   0.00000
 208       10D-1        0.00000   0.00000  -0.00093   0.00000   0.00000
 209       10D+2        0.00000   0.00000   0.00000   0.00000   0.00000
 210       10D-2        0.00019   0.00000   0.00000   0.00000   0.00000
 211       11D 0        0.00000   0.00000   0.00000   0.00216   0.00222
 212       11D+1        0.00000   0.00099   0.00000   0.00000   0.00000
 213       11D-1        0.00000   0.00000   0.00099   0.00000   0.00000
 214       11D+2        0.00000   0.00000   0.00000  -0.00000  -0.00000
 215       11D-2       -0.00053   0.00000   0.00000   0.00000   0.00000
                          11        12        13        14        15
                           O         V         V         V         V
     Eigenvalues --    -0.28143   0.02021   0.02021   0.02951   0.03850
   1 1   Zn 1S         -0.00000   0.00000   0.00000   0.00000   0.00000
   2        2S         -0.00000   0.00000   0.00000   0.00000   0.00000
   3        3S         -0.00000   0.00000   0.00000   0.00000   0.00000
   4        4S         -0.00000   0.00000   0.00000  -0.00000  -0.00000
   5        5S          0.00000   0.00000   0.00000   0.00000   0.00000
   6        6S         -0.00001   0.00000   0.00000  -0.00000  -0.00000
   7        7S          0.00001   0.00000   0.00000   0.00001   0.00001
   8        8S         -0.00008   0.00000   0.00000  -0.00001  -0.00001
   9        9S          0.00013   0.00000   0.00000   0.00006   0.00004
  10       10S         -0.00061   0.00000   0.00000  -0.00009  -0.00008
  11       11S          0.00190   0.00000   0.00000   0.00017   0.00017
  12       12S         -0.00921   0.00000   0.00000   0.00035   0.00003
  13       13S          0.00488   0.00000   0.00000   0.00551   0.00403
  14       14S          0.08991   0.00000   0.00000  -0.06262  -0.04236
  15       15S         -0.01447   0.00000   0.00000  -0.10817  -0.07734
  16       16S         -0.20162   0.00000   0.00000   0.46484   0.32694
  17       17S         -0.16245   0.00000   0.00000   0.14333   0.09872
  18       18S          0.24374   0.00000   0.00000  -0.28334  -0.18641
  19       19S          0.55203   0.00000   0.00000   0.73725   0.44399
  20       20S          0.22100   0.00000   0.00000  -1.36925  -1.22740
  21       21S         -0.02951   0.00000   0.00000   0.09989   0.07032
  22       22S          0.04388   0.00000   0.00000  -0.44529  -0.31718
  23       23S          0.01420   0.00000   0.00000   3.12099  -0.76840
  24       24PX         0.00000   0.00000   0.00000   0.00000   0.00000
  25       24PY         0.00000   0.00000   0.00000   0.00000   0.00000
  26       24PZ        -0.00000   0.00000   0.00000   0.00000   0.00000
  27       25PX         0.00000  -0.00000   0.00000   0.00000   0.00000
  28       25PY         0.00000   0.00000  -0.00000   0.00000   0.00000
  29       25PZ         0.00000   0.00000   0.00000  -0.00000  -0.00000
  30       26PX         0.00000   0.00000   0.00000   0.00000   0.00000
  31       26PY         0.00000   0.00000   0.00000   0.00000   0.00000
  32       26PZ        -0.00000   0.00000   0.00000   0.00000   0.00000
  33       27PX         0.00000  -0.00001   0.00000   0.00000   0.00000
  34       27PY         0.00000   0.00000  -0.00001   0.00000   0.00000
  35       27PZ         0.00000   0.00000   0.00000  -0.00000  -0.00001
  36       28PX         0.00000   0.00001   0.00000   0.00000   0.00000
  37       28PY         0.00000   0.00000   0.00001   0.00000   0.00000
  38       28PZ        -0.00005   0.00000   0.00000   0.00000   0.00003
  39       29PX         0.00000  -0.00006   0.00000   0.00000   0.00000
  40       29PY         0.00000   0.00000  -0.00006   0.00000   0.00000
  41       29PZ         0.00008   0.00000   0.00000  -0.00000  -0.00008
  42       30PX         0.00000  -0.00007   0.00000   0.00000   0.00000
  43       30PY         0.00000   0.00000  -0.00007   0.00000   0.00000
  44       30PZ        -0.00082   0.00000   0.00000   0.00002   0.00032
  45       31PX         0.00000  -0.00004   0.00000   0.00000   0.00000
  46       31PY         0.00000   0.00000  -0.00004   0.00000   0.00000
  47       31PZ         0.00230   0.00000   0.00000  -0.00006  -0.00107
  48       32PX         0.00000   0.00927   0.00000   0.00000   0.00000
  49       32PY         0.00000   0.00000   0.00927   0.00000   0.00000
  50       32PZ         0.00745   0.00000   0.00000  -0.00023   0.00294
  51       33PX         0.00000   0.03363   0.00000   0.00000   0.00000
  52       33PY         0.00000   0.00000   0.03363   0.00000   0.00000
  53       33PZ        -0.02636   0.00000   0.00000   0.00055   0.03473
  54       34PX         0.00000  -0.04665   0.00000   0.00000   0.00000
  55       34PY         0.00000   0.00000  -0.04665   0.00000   0.00000
  56       34PZ        -0.03496   0.00000   0.00000   0.00114  -0.01586
  57       35PX         0.00000  -0.18844   0.00000   0.00000   0.00000
  58       35PY         0.00000   0.00000  -0.18844   0.00000   0.00000
  59       35PZ         0.00366   0.00000   0.00000   0.00149  -0.12820
  60       36PX         0.00000   0.00810   0.00000   0.00000   0.00000
  61       36PY         0.00000   0.00000   0.00810   0.00000   0.00000
  62       36PZ        -0.05245   0.00000   0.00000   0.00107   0.02809
  63       37PX         0.00000  -0.00239   0.00000   0.00000   0.00000
  64       37PY         0.00000   0.00000  -0.00239   0.00000   0.00000
  65       37PZ         0.08180   0.00000   0.00000   0.00047  -0.03381
  66       38PX         0.00000   0.19990   0.00000   0.00000   0.00000
  67       38PY         0.00000   0.00000   0.19990   0.00000   0.00000
  68       38PZ         0.28198   0.00000   0.00000  -0.10218  -0.02140
  69       39PX         0.00000  -0.02481   0.00000   0.00000   0.00000
  70       39PY         0.00000   0.00000  -0.02481   0.00000   0.00000
  71       39PZ         0.17801   0.00000   0.00000  -0.23268  -0.33542
  72       40PX         0.00000  -0.03195   0.00000   0.00000   0.00000
  73       40PY         0.00000   0.00000  -0.03195   0.00000   0.00000
  74       40PZ         0.01817   0.00000   0.00000  -0.00035  -0.02992
  75       41PX         0.00000   0.16058   0.00000   0.00000   0.00000
  76       41PY         0.00000   0.00000   0.16058   0.00000   0.00000
  77       41PZ        -0.06459   0.00000   0.00000   0.00029   0.13696
  78       42PX         0.00000   0.94411   0.00000   0.00000   0.00000
  79       42PY         0.00000   0.00000   0.94411   0.00000   0.00000
  80       42PZ        -0.00440   0.00000   0.00000  -0.67876   1.93401
  81       43D 0        0.00010   0.00000   0.00000   0.00001  -0.00003
  82       43D+1        0.00000  -0.00000   0.00000   0.00000   0.00000
  83       43D-1        0.00000   0.00000  -0.00000   0.00000   0.00000
  84       43D+2        0.00000   0.00000   0.00000  -0.00000  -0.00000
  85       43D-2        0.00000   0.00000   0.00000   0.00000   0.00000
  86       44D 0        0.00121   0.00000   0.00000   0.00013  -0.00039
  87       44D+1        0.00000  -0.00006   0.00000   0.00000   0.00000
  88       44D-1        0.00000   0.00000  -0.00006   0.00000   0.00000
  89       44D+2        0.00000   0.00000   0.00000  -0.00000   0.00000
  90       44D-2        0.00000   0.00000   0.00000   0.00000   0.00000
  91       45D 0        0.00547   0.00000   0.00000   0.00056  -0.00187
  92       45D+1        0.00000  -0.00017   0.00000   0.00000   0.00000
  93       45D-1        0.00000   0.00000  -0.00017   0.00000   0.00000
  94       45D+2        0.00000   0.00000   0.00000  -0.00000  -0.00000
  95       45D-2        0.00000   0.00000   0.00000   0.00000   0.00000
  96       46D 0        0.01367   0.00000   0.00000   0.00209  -0.00296
  97       46D+1        0.00000  -0.00184   0.00000   0.00000   0.00000
  98       46D-1        0.00000   0.00000  -0.00184   0.00000   0.00000
  99       46D+2        0.00000   0.00000   0.00000   0.00000   0.00000
 100       46D-2        0.00000   0.00000   0.00000   0.00000   0.00000
 101       47D 0        0.02747   0.00000   0.00000   0.01421   0.01857
 102       47D+1        0.00000  -0.02390   0.00000   0.00000   0.00000
 103       47D-1        0.00000   0.00000  -0.02390   0.00000   0.00000
 104       47D+2        0.00000   0.00000   0.00000   0.00000   0.00000
 105       47D-2        0.00000   0.00000   0.00000   0.00000   0.00000
 106       48D 0        0.02504   0.00000   0.00000   0.00346  -0.00634
 107       48D+1        0.00000  -0.00262   0.00000   0.00000   0.00000
 108       48D-1        0.00000   0.00000  -0.00262   0.00000   0.00000
 109       48D+2        0.00000   0.00000   0.00000   0.00000   0.00000
 110       48D-2        0.00000   0.00000   0.00000   0.00000   0.00000
 111       49D 0        0.01678   0.00000   0.00000   0.00015  -0.00749
 112       49D+1        0.00000   0.00136   0.00000   0.00000   0.00000
 113       49D-1        0.00000   0.00000   0.00136   0.00000   0.00000
 114       49D+2       -0.00000   0.00000   0.00000  -0.00000  -0.00000
 115       49D-2        0.00000   0.00000   0.00000   0.00000   0.00000
 116       50D 0        0.01426   0.00000   0.00000   0.00947   0.00915
 117       50D+1        0.00000  -0.00417   0.00000   0.00000   0.00000
 118       50D-1        0.00000   0.00000  -0.00417   0.00000   0.00000
 119       50D+2       -0.00000   0.00000   0.00000   0.00000   0.00000
 120       50D-2        0.00000   0.00000   0.00000   0.00000   0.00000
 121       51D 0        0.00011   0.00000   0.00000  -0.00113  -0.00284
 122       51D+1        0.00000   0.00229   0.00000   0.00000   0.00000
 123       51D-1        0.00000   0.00000   0.00229   0.00000   0.00000
 124       51D+2       -0.00000   0.00000   0.00000  -0.00000  -0.00000
 125       51D-2        0.00000   0.00000   0.00000   0.00000   0.00000
 126       52D 0       -0.00528   0.00000   0.00000  -0.01175  -0.02559
 127       52D+1        0.00000   0.02275   0.00000   0.00000   0.00000
 128       52D-1        0.00000   0.00000   0.02275   0.00000   0.00000
 129       52D+2       -0.00000   0.00000   0.00000  -0.00000  -0.00000
 130       52D-2        0.00000   0.00000   0.00000   0.00000   0.00000
 131       53D 0        0.02548   0.00000   0.00000   0.03891   0.03899
 132       53D+1        0.00000   0.01824   0.00000   0.00000   0.00000
 133       53D-1        0.00000   0.00000   0.01824   0.00000   0.00000
 134       53D+2       -0.00000   0.00000   0.00000   0.00000  -0.00000
 135       53D-2        0.00000   0.00000   0.00000   0.00000   0.00000
 136       54F 0        0.00007   0.00000   0.00000   0.00004  -0.00001
 137       54F+1        0.00000  -0.00001   0.00000   0.00000   0.00000
 138       54F-1        0.00000   0.00000  -0.00001   0.00000   0.00000
 139       54F+2        0.00000   0.00000   0.00000  -0.00000  -0.00000
 140       54F-2        0.00000   0.00000   0.00000   0.00000   0.00000
 141       54F+3        0.00000   0.00000   0.00000   0.00000   0.00000
 142       54F-3        0.00000   0.00000   0.00000   0.00000   0.00000
 143       55F 0        0.00017   0.00000   0.00000  -0.00013  -0.00007
 144       55F+1        0.00000   0.00002   0.00000   0.00000   0.00000
 145       55F-1        0.00000   0.00000   0.00002   0.00000   0.00000
 146       55F+2       -0.00000   0.00000   0.00000   0.00000   0.00000
 147       55F-2        0.00000   0.00000   0.00000   0.00000   0.00000
 148       55F+3        0.00000  -0.00000   0.00000   0.00000   0.00000
 149       55F-3        0.00000   0.00000  -0.00000   0.00000   0.00000
 150       56F 0        0.00073   0.00000   0.00000   0.00064  -0.00007
 151       56F+1        0.00000  -0.00017   0.00000   0.00000   0.00000
 152       56F-1        0.00000   0.00000  -0.00017   0.00000   0.00000
 153       56F+2        0.00000   0.00000   0.00000  -0.00000  -0.00000
 154       56F-2        0.00000   0.00000   0.00000   0.00000   0.00000
 155       56F+3        0.00000   0.00000   0.00000   0.00000   0.00000
 156       56F-3        0.00000   0.00000   0.00000   0.00000   0.00000
 157       57F 0        0.00214   0.00000   0.00000  -0.00188  -0.00091
 158       57F+1        0.00000   0.00050   0.00000   0.00000   0.00000
 159       57F-1        0.00000   0.00000   0.00050   0.00000   0.00000
 160       57F+2       -0.00000   0.00000   0.00000   0.00000   0.00000
 161       57F-2        0.00000   0.00000   0.00000   0.00000   0.00000
 162       57F+3        0.00000  -0.00000   0.00000   0.00000   0.00000
 163       57F-3        0.00000   0.00000  -0.00000   0.00000   0.00000
 164       58G 0       -0.00002   0.00000   0.00000   0.00000   0.00000
 165       58G+1        0.00000  -0.00000   0.00000   0.00000   0.00000
 166       58G-1        0.00000   0.00000  -0.00000   0.00000   0.00000
 167       58G+2       -0.00000   0.00000   0.00000   0.00000   0.00000
 168       58G-2        0.00000   0.00000   0.00000   0.00000   0.00000
 169       58G+3        0.00000  -0.00000   0.00000   0.00000   0.00000
 170       58G-3        0.00000   0.00000  -0.00000   0.00000   0.00000
 171       58G+4        0.00000   0.00000   0.00000  -0.00000  -0.00000
 172       58G-4        0.00000   0.00000   0.00000   0.00000   0.00000
 173       59G 0        0.00005   0.00000   0.00000  -0.00002  -0.00001
 174       59G+1        0.00000   0.00002   0.00000   0.00000   0.00000
 175       59G-1        0.00000   0.00000   0.00002   0.00000   0.00000
 176       59G+2        0.00000   0.00000   0.00000  -0.00000  -0.00000
 177       59G-2        0.00000   0.00000   0.00000   0.00000   0.00000
 178       59G+3        0.00000   0.00000   0.00000   0.00000   0.00000
 179       59G-3        0.00000   0.00000   0.00000   0.00000   0.00000
 180       59G+4       -0.00000   0.00000   0.00000   0.00000   0.00000
 181       59G-4        0.00000   0.00000   0.00000   0.00000   0.00000
 182       60G 0       -0.00021   0.00000   0.00000   0.00002   0.00005
 183       60G+1        0.00000  -0.00004   0.00000   0.00000   0.00000
 184       60G-1        0.00000   0.00000  -0.00004   0.00000   0.00000
 185       60G+2        0.00000   0.00000   0.00000   0.00000   0.00000
 186       60G-2        0.00000   0.00000   0.00000   0.00000   0.00000
[...]
                         211       212       213       214       215
 211       11D 0        0.00004
 212       11D+1        0.00000   0.00000
 213       11D-1        0.00000   0.00000   0.00000
 214       11D+2       -0.00000   0.00000   0.00000   0.00000
 215       11D-2        0.00000   0.00000   0.00000   0.00000   0.00000
     Gross orbital populations:
                         Total     Alpha     Beta      Spin
   1 1   Zn 1S          0.00000   0.00000   0.00000   0.00000
   2        2S          0.00000   0.00000   0.00000   0.00000
   3        3S          0.00000   0.00000   0.00000   0.00000
   4        4S          0.00000   0.00000   0.00000   0.00000
   5        5S         -0.00000  -0.00000  -0.00000  -0.00000
   6        6S          0.00000   0.00000   0.00000   0.00000
   7        7S         -0.00000  -0.00000  -0.00000  -0.00000
   8        8S          0.00000   0.00000   0.00000   0.00000
   9        9S         -0.00001  -0.00000  -0.00000  -0.00000
  10       10S          0.00005   0.00003   0.00002   0.00000
  11       11S         -0.00038  -0.00019  -0.00019  -0.00000
  12       12S          0.00586   0.00297   0.00290   0.00007
  13       13S         -0.00841  -0.00426  -0.00415  -0.00011
  14       14S         -0.37913  -0.19184  -0.18729  -0.00454
  15       15S          0.19066   0.09591   0.09475   0.00115
  16       16S          1.53490   0.77290   0.76199   0.01091
  17       17S          0.63707   0.31164   0.32543  -0.01379
  18       18S          0.40444   0.26456   0.13988   0.12468
  19       19S          0.62477   0.47866   0.14611   0.33255
  20       20S          0.17663   0.14894   0.02769   0.12125
  21       21S          0.11235   0.05717   0.05518   0.00198
  22       22S         -0.11367  -0.05764  -0.05603  -0.00161
  23       23S         -0.00864  -0.00144  -0.00719   0.00575
  24       24PX         0.00000   0.00000   0.00000   0.00000
  25       24PY         0.00000   0.00000   0.00000   0.00000
  26       24PZ         0.00000   0.00000   0.00000   0.00000
  27       25PX         0.00000   0.00000   0.00000   0.00000
  28       25PY         0.00000   0.00000   0.00000   0.00000
  29       25PZ         0.00000   0.00000   0.00000  -0.00000
  30       26PX         0.00000   0.00000   0.00000   0.00000
  31       26PY         0.00000   0.00000   0.00000   0.00000
  32       26PZ         0.00000   0.00000   0.00000   0.00000
  33       27PX        -0.00000  -0.00000  -0.00000   0.00000
  34       27PY        -0.00000  -0.00000  -0.00000   0.00000
  35       27PZ        -0.00000  -0.00000  -0.00000  -0.00000
  36       28PX         0.00000   0.00000   0.00000   0.00000
  37       28PY         0.00000   0.00000   0.00000   0.00000
  38       28PZ         0.00000   0.00000   0.00000   0.00000
  39       29PX        -0.00002  -0.00001  -0.00001   0.00000
  40       29PY        -0.00002  -0.00001  -0.00001   0.00000
  41       29PZ        -0.00002  -0.00001  -0.00001  -0.00000
  42       30PX         0.00068   0.00034   0.00034   0.00000
  43       30PY         0.00068   0.00034   0.00034   0.00000
  44       30PZ         0.00069   0.00035   0.00034   0.00001
  45       31PX        -0.00488  -0.00244  -0.00244   0.00000
  46       31PY        -0.00488  -0.00244  -0.00244   0.00000
  47       31PZ        -0.00495  -0.00249  -0.00245  -0.00004
  48       32PX        -0.05027  -0.02513  -0.02513   0.00000
  49       32PY        -0.05027  -0.02513  -0.02513   0.00000
  50       32PZ        -0.05126  -0.02577  -0.02549  -0.00027
  51       33PX         0.12367   0.06184   0.06184   0.00000
  52       33PY         0.12367   0.06184   0.06184   0.00000
  53       33PZ         0.12286   0.06224   0.06062   0.00162
  54       34PX         0.60142   0.30071   0.30071   0.00000
  55       34PY         0.60142   0.30071   0.30071   0.00000
  56       34PZ         0.61207   0.30729   0.30477   0.00252
  57       35PX         0.78221   0.39110   0.39110   0.00000
  58       35PY         0.78221   0.39110   0.39110   0.00000
  59       35PZ         0.81291   0.40640   0.40651  -0.00011
  60       36PX         0.45303   0.22651   0.22651   0.00000
  61       36PY         0.45303   0.22651   0.22651   0.00000
  62       36PZ         0.43618   0.21540   0.22078  -0.00539
  63       37PX         0.03480   0.01740   0.01740   0.00000
  64       37PY         0.03480   0.01740   0.01740   0.00000
  65       37PZ         0.09782   0.06544   0.03238   0.03306
  66       38PX        -0.00093  -0.00046  -0.00046   0.00000
  67       38PY        -0.00093  -0.00046  -0.00046   0.00000
  68       38PZ         0.28773   0.24172   0.04601   0.19571
  69       39PX         0.00014   0.00007   0.00007   0.00000
  70       39PY         0.00014   0.00007   0.00007   0.00000
  71       39PZ         0.13216   0.12270   0.00945   0.11325
  72       40PX        -0.06208  -0.03104  -0.03104   0.00000
  73       40PY        -0.06208  -0.03104  -0.03104   0.00000
  74       40PZ        -0.06076  -0.03089  -0.02987  -0.00102
  75       41PX         0.12220   0.06110   0.06110   0.00000
  76       41PY         0.12220   0.06110   0.06110   0.00000
  77       41PZ         0.09900   0.05084   0.04816   0.00268
  78       42PX        -0.00001  -0.00001  -0.00001   0.00000
  79       42PY        -0.00001  -0.00001  -0.00001   0.00000
  80       42PZ        -0.00325  -0.00238  -0.00087  -0.00151
  81       43D 0        0.00011   0.00006   0.00005   0.00000
  82       43D+1        0.00011   0.00006   0.00006   0.00000
  83       43D-1        0.00011   0.00006   0.00006   0.00000
  84       43D+2        0.00011   0.00006   0.00006   0.00000
  85       43D-2        0.00011   0.00006   0.00006   0.00000
  86       44D 0        0.00559   0.00280   0.00279   0.00001
  87       44D+1        0.00562   0.00281   0.00281   0.00000
  88       44D-1        0.00562   0.00281   0.00281   0.00000
  89       44D+2        0.00561   0.00281   0.00281   0.00000
  90       44D-2        0.00561   0.00281   0.00281   0.00000
  91       45D 0        0.06070   0.03042   0.03028   0.00014
  92       45D+1        0.06106   0.03053   0.03053   0.00000
  93       45D-1        0.06106   0.03053   0.03053   0.00000
  94       45D+2        0.06101   0.03050   0.03050   0.00000
  95       45D-2        0.06101   0.03050   0.03050   0.00000
  96       46D 0        0.24637   0.12348   0.12288   0.00060
  97       46D+1        0.24809   0.12404   0.12404   0.00000
  98       46D-1        0.24809   0.12404   0.12404   0.00000
  99       46D+2        0.24748   0.12374   0.12374   0.00000
 100       46D-2        0.24748   0.12374   0.12374   0.00000
 101       47D 0        0.39931   0.20043   0.19888   0.00154
 102       47D+1        0.40851   0.20425   0.20425   0.00000
 103       47D-1        0.40851   0.20425   0.20425   0.00000
 104       47D+2        0.39925   0.19962   0.19962   0.00000
 105       47D-2        0.39925   0.19962   0.19962   0.00000
 106       48D 0        0.63110   0.31620   0.31490   0.00130
 107       48D+1        0.63533   0.31767   0.31767   0.00000
 108       48D-1        0.63533   0.31767   0.31767   0.00000
 109       48D+2        0.63475   0.31738   0.31738   0.00000
 110       48D-2        0.63475   0.31738   0.31738   0.00000
 111       49D 0        0.38727   0.19373   0.19354   0.00020
 112       49D+1        0.38788   0.19394   0.19394   0.00000
 113       49D-1        0.38788   0.19394   0.19394   0.00000
 114       49D+2        0.39069   0.19534   0.19534  -0.00000
 115       49D-2        0.39069   0.19534   0.19534   0.00000
 116       50D 0        0.08695   0.04282   0.04413  -0.00130
 117       50D+1        0.08160   0.04080   0.04080   0.00000
 118       50D-1        0.08160   0.04080   0.04080   0.00000
 119       50D+2        0.08013   0.04007   0.04007  -0.00000
 120       50D-2        0.08013   0.04007   0.04007   0.00000
 121       51D 0        0.02407   0.01204   0.01203   0.00001
 122       51D+1        0.02373   0.01187   0.01187   0.00000
 123       51D-1        0.02373   0.01187   0.01187   0.00000
 124       51D+2        0.02451   0.01226   0.01226   0.00000
 125       51D-2        0.02451   0.01226   0.01226   0.00000
 126       52D 0        0.15248   0.07609   0.07639  -0.00030
 127       52D+1        0.14645   0.07323   0.07323   0.00000
 128       52D-1        0.14645   0.07323   0.07323   0.00000
 129       52D+2        0.15540   0.07770   0.07770   0.00000
 130       52D-2        0.15540   0.07770   0.07770   0.00000
 131       53D 0        0.00268  -0.00043   0.00311  -0.00354
 132       53D+1        0.00135   0.00067   0.00067   0.00000
 133       53D-1        0.00135   0.00067   0.00067   0.00000
 134       53D+2        0.00112   0.00056   0.00056   0.00000
 135       53D-2        0.00112   0.00056   0.00056   0.00000
 136       54F 0        0.00000   0.00000   0.00000   0.00000
 137       54F+1        0.00000   0.00000   0.00000   0.00000
 138       54F-1        0.00000   0.00000   0.00000   0.00000
 139       54F+2        0.00000   0.00000   0.00000   0.00000
 140       54F-2        0.00000   0.00000   0.00000   0.00000
 141       54F+3       -0.00000  -0.00000  -0.00000   0.00000
 142       54F-3       -0.00000  -0.00000  -0.00000   0.00000
 143       55F 0        0.00000   0.00000   0.00000   0.00000
 144       55F+1        0.00000   0.00000   0.00000   0.00000
 145       55F-1        0.00000   0.00000   0.00000   0.00000
 146       55F+2        0.00000   0.00000   0.00000   0.00000
 147       55F-2        0.00000   0.00000   0.00000   0.00000
 148       55F+3        0.00000   0.00000   0.00000   0.00000
 149       55F-3       -0.00000  -0.00000  -0.00000   0.00000
 150       56F 0        0.00004   0.00002   0.00002   0.00001
 151       56F+1        0.00000   0.00000   0.00000   0.00000
 152       56F-1        0.00000   0.00000   0.00000   0.00000
 153       56F+2        0.00000   0.00000   0.00000  -0.00000
 154       56F-2        0.00000   0.00000   0.00000   0.00000
 155       56F+3        0.00000   0.00000   0.00000   0.00000
 156       56F-3        0.00000   0.00000   0.00000   0.00000
 157       57F 0        0.00083   0.00046   0.00036   0.00010
 158       57F+1        0.00000   0.00000   0.00000   0.00000
 159       57F-1        0.00000   0.00000   0.00000   0.00000
 160       57F+2        0.00000   0.00000   0.00000   0.00000
 161       57F-2        0.00000   0.00000   0.00000   0.00000
 162       57F+3        0.00000   0.00000   0.00000   0.00000
 163       57F-3        0.00000   0.00000   0.00000   0.00000
 164       58G 0        0.00000   0.00000   0.00000   0.00000
 165       58G+1        0.00000   0.00000   0.00000   0.00000
 166       58G-1        0.00000   0.00000   0.00000   0.00000
 167       58G+2        0.00000   0.00000   0.00000  -0.00000
 168       58G-2        0.00000   0.00000   0.00000   0.00000
 169       58G+3       -0.00000  -0.00000  -0.00000   0.00000
 170       58G-3        0.00000   0.00000   0.00000   0.00000
 171       58G+4        0.00000   0.00000   0.00000  -0.00000
 172       58G-4        0.00000   0.00000   0.00000   0.00000
 173       59G 0       -0.00000  -0.00000  -0.00000  -0.00000
 174       59G+1       -0.00000  -0.00000  -0.00000   0.00000
 175       59G-1       -0.00000  -0.00000  -0.00000   0.00000
 176       59G+2       -0.00000  -0.00000  -0.00000   0.00000
 177       59G-2       -0.00000  -0.00000  -0.00000   0.00000
 178       59G+3       -0.00000  -0.00000  -0.00000   0.00000
 179       59G-3        0.00000   0.00000   0.00000   0.00000
 180       59G+4       -0.00000  -0.00000  -0.00000  -0.00000
 181       59G-4       -0.00000  -0.00000  -0.00000   0.00000
 182       60G 0        0.00001   0.00000   0.00000   0.00000
 183       60G+1        0.00000   0.00000   0.00000   0.00000
 184       60G-1        0.00000   0.00000   0.00000   0.00000
 185       60G+2        0.00000   0.00000   0.00000  -0.00000
 186       60G-2        0.00000   0.00000   0.00000   0.00000
 187       60G+3        0.00000   0.00000   0.00000   0.00000
 188       60G-3        0.00000   0.00000   0.00000   0.00000
 189       60G+4        0.00000   0.00000   0.00000  -0.00000
 190       60G-4        0.00000   0.00000   0.00000   0.00000
 191 2   H  1S          0.00064   0.00035   0.00029   0.00006
 192        2S          0.02231   0.01227   0.01004   0.00223
 193        3S          0.17071   0.09370   0.07701   0.01669
 194        4S          0.57524   0.31184   0.26339   0.04845
 195        5S          0.53598   0.28617   0.24981   0.03636
 196        6S          0.03137   0.01164   0.01973  -0.00810
 197        7PX         0.00006   0.00003   0.00003   0.00000
 198        7PY         0.00006   0.00003   0.00003   0.00000
 199        7PZ         0.00093   0.00047   0.00046   0.00001
 200        8PX         0.00023   0.00011   0.00011   0.00000
 201        8PY         0.00023   0.00011   0.00011   0.00000
 202        8PZ         0.00938   0.00433   0.00504  -0.00071
 203        9PX         0.00022   0.00011   0.00011   0.00000
 204        9PY         0.00022   0.00011   0.00011   0.00000
 205        9PZ        -0.00175  -0.00688   0.00514  -0.01202
 206       10D 0        0.00026   0.00013   0.00013  -0.00001
 207       10D+1        0.00009   0.00005   0.00005   0.00000
 208       10D-1        0.00009   0.00005   0.00005   0.00000
 209       10D+2        0.00000   0.00000   0.00000  -0.00000
 210       10D-2        0.00000   0.00000   0.00000   0.00000
 211       11D 0       -0.00023  -0.00038   0.00015  -0.00053
 212       11D+1       -0.00031  -0.00015  -0.00015   0.00000
 213       11D-1       -0.00031  -0.00015  -0.00015   0.00000
 214       11D+2       -0.00007  -0.00004  -0.00004  -0.00000
 215       11D-2       -0.00007  -0.00004  -0.00004   0.00000
          Condensed to atoms (all electrons):
               1          2
     1  Zn  19.417911   0.236802
     2  H    0.236802   1.108484
          Atomic-Atomic Spin Densities.
               1          2
     1  Zn   1.044607  -0.127029
     2  H   -0.127029   0.209450
 Mulliken charges and spin densities:
               1          2
     1  Zn   0.345287   0.917579
     2  H   -0.345287   0.082421
 Sum of Mulliken charges =  -0.00000   1.00000
 Mulliken charges and spin densities with hydrogens summed into heavy atoms:
               1          2
     1  Zn  -0.000000   1.000000
 Electronic spatial extent (au):  <R**2>=             47.7017
 Charge=             -0.0000 electrons
 Dipole moment (field-independent basis, Debye):
    X=              0.0000    Y=              0.0000    Z=              1.0927  Tot=              1.0927
 Quadrupole moment (field-independent basis, Debye-Ang):
   XX=            -14.6830   YY=            -14.6830   ZZ=            -21.5053
   XY=              0.0000   XZ=              0.0000   YZ=              0.0000
 Traceless Quadrupole moment (field-independent basis, Debye-Ang):
   XX=              2.2741   YY=              2.2741   ZZ=             -4.5482
   XY=              0.0000   XZ=              0.0000   YZ=              0.0000
 Octapole moment (field-independent basis, Debye-Ang**2):
  XXX=              0.0000  YYY=              0.0000  ZZZ=              6.5975  XYY=              0.0000
  XXY=              0.0000  XXZ=              0.9965  XZZ=              0.0000  YZZ=              0.0000
  YYZ=              0.9965  XYZ=              0.0000
 Hexadecapole moment (field-independent basis, Debye-Ang**3):
 XXXX=            -20.4460 YYYY=            -20.4460 ZZZZ=            -74.8257 XXXY=              0.0000
 XXXZ=              0.0000 YYYX=              0.0000 YYYZ=              0.0000 ZZZX=              0.0000
 ZZZY=              0.0000 XXYY=             -6.8153 XXZZ=            -15.2465 YYZZ=            -15.2465
 XXYZ=              0.0000 YYXZ=              0.0000 ZZXY=              0.0000
 N-N= 6.225614246118D+00 E-N=-5.747802934230D+02  KE= 1.540584262038D+02
 Symmetry A1   KE= 6.409130528886D+01
 Symmetry A2   KE= 2.242013610267D+01
 Symmetry B1   KE= 3.377349240580D+01
 Symmetry B2   KE= 3.377349240499D+01
 Symmetry A1   SP= 1.000000000000D+00
 Symmetry A2   SP= 0.000000000000D+00
 Symmetry B1   SP= 0.000000000000D+00
 Symmetry B2   SP= 0.000000000000D+00
 Orbital energies and kinetic energies (alpha):
                                 1                 2
   6         O                -0.802235         11.210068
   7         O                -0.799418         11.215348
   8         O                -0.797078         11.215348
   9         O                -0.797078         10.986003
  10         O                -0.446781          0.617241
  11         O                -0.281434          0.521475
  12         V                 0.020211          0.072190
  13         V                 0.020211          0.072190
  14         V                 0.029508          0.047445
  15         V                 0.038498          0.058283
  16         V                 0.075826          0.225809
 Total kinetic energy from orbitals= 1.545799013742D+02
                          Isotropic Fermi Contact Couplings
        Atom                 a.u.       MegaHertz       Gauss      10(-4) cm-1
     1  Zn(67)             0.00056       0.15567       0.05555       0.05193
     2  H(1)               0.03146     140.63844      50.18329      46.91194
 --------------------------------------------------------
       Center         ----  Spin Dipole Couplings  ----
                      3XX-RR        3YY-RR        3ZZ-RR
 --------------------------------------------------------
     1   Atom        0.002032      0.002032     -0.004065
     2   Atom       -0.003965     -0.003965      0.007930
 --------------------------------------------------------
                        XY            XZ            YZ
 --------------------------------------------------------
     1   Atom        0.000000      0.000000      0.000000
     2   Atom        0.000000      0.000000      0.000000
 --------------------------------------------------------


 ---------------------------------------------------------------------------------
              Anisotropic Spin Dipole Couplings in Principal Axis System
 ---------------------------------------------------------------------------------

       Atom             a.u.   MegaHertz   Gauss  10(-4) cm-1        Axes

              Baa    -0.0041    -0.136    -0.049    -0.045  0.0000  0.0000  1.0000
     1 Zn(67) Bbb     0.0020     0.068     0.024     0.023  1.0000  0.0000  0.0000
              Bcc     0.0020     0.068     0.024     0.023 -0.0000  1.0000  0.0000
 
              Baa    -0.0040    -2.116    -0.755    -0.706 -0.0000  1.0000  0.0000
     2 H(1)   Bbb    -0.0040    -2.116    -0.755    -0.706  1.0000  0.0000  0.0000
              Bcc     0.0079     4.231     1.510     1.411  0.0000  0.0000  1.0000
 

 ---------------------------------------------------------------------------------

 No NMR shielding tensors so no spin-rotation constants.
 Leave Link  601 at Sat Apr 21 10:27:41 2018, MaxMem= 10737418240 cpu:              89.3 elap:               2.9
 (Enter /home1/apps/gaussian/16rA.03/g16/l9999.exe)

 Test job not archived.
 1\1\GINC-C402-133\SP\ROCCSD(T)-Full\Gen\H1Zn1(2)\GWANG18\21-Apr-2018\0
 \\#P ROCCSD(T)=(MaxCyc=150, Full)/Gen SCF=(maxcycle=400, vshift=200) P
 seudo=Read Integral(NoXCTest) Pop=Regular MaxDisk=500GB Guess=Read IOp
 (5/15=2)\\ZnH\\0,2\Zn,0,0.,0.,0.\H,0,0.,0.,1.7\\Version=ES64L-G16RevA.
 03\State=2-SG\HF=-226.4882136\MP2=-227.5216332\MP3=-227.3941841\PUHF=-
 226.4882136\PMP2-0=-227.5216332\MP4SDQ=-227.4760776\CCSD=-227.446832\C
 CSD(T)=-227.473603\RMSD=7.208e-09\PG=C*V [C*(H1Zn1)]\\@


 BOOKS ARE LIGHTHOUSES ERECTED IN THE GREAT SEA OF TIME.
     -- E.P.WHIPPLE
 Job cpu time:       0 days  8 hours 55 minutes  1.2 seconds.
 Elapsed time:       0 days  0 hours 16 minutes 46.9 seconds.
 File lengths (MBytes):  RWF=   3417 Int=      0 D2E=      0 Chk=      6 Scr=      1
 Normal termination of Gaussian 16 at Sat Apr 21 10:27:42 2018.
