 Entering Gaussian System, Link 0=g16
 Initial command:
 /home1/apps/gaussian/16rA.03/g16/l1.exe "/tmp/Gau-199046.inp" -scrdir="/tmp/"
 Entering Link 1 = /home1/apps/gaussian/16rA.03/g16/l1.exe PID=    199047.
  
 Copyright (c) 1988,1990,1992,1993,1995,1998,2003,2009,2016,
            Gaussian, Inc.  All Rights Reserved.
  
 This is part of the Gaussian(R) 16 program.  It is based on
 the Gaussian(R) 09 system (copyright 2009, Gaussian, Inc.),
 the Gaussian(R) 03 system (copyright 2003, Gaussian, Inc.),
 the Gaussian(R) 98 system (copyright 1998, Gaussian, Inc.),
 the Gaussian(R) 94 system (copyright 1995, Gaussian, Inc.),
 the Gaussian 92(TM) system (copyright 1992, Gaussian, Inc.),
 the Gaussian 90(TM) system (copyright 1990, Gaussian, Inc.),
 the Gaussian 88(TM) system (copyright 1988, Gaussian, Inc.),
 the Gaussian 86(TM) system (copyright 1986, Carnegie Mellon
 University), and the Gaussian 82(TM) system (copyright 1983,
 Carnegie Mellon University). Gaussian is a federally registered
 trademark of Gaussian, Inc.
  
 This software contains proprietary and confidential information,
 including trade secrets, belonging to Gaussian, Inc.
  
 This software is provided under written license and may be
 used, copied, transmitted, or stored only in accord with that
 written license.
  
 The following legend is applicable only to US Government
 contracts under FAR:
  
                    RESTRICTED RIGHTS LEGEND
  
 Use, reproduction and disclosure by the US Government is
 subject to restrictions as set forth in subparagraphs (a)
 and (c) of the Commercial Computer Software - Restricted
 Rights clause in FAR 52.227-19.
  
 Gaussian, Inc.
 340 Quinnipiac St., Bldg. 40, Wallingford CT 06492
  
  
 ---------------------------------------------------------------
 Warning -- This program may not be used in any manner that
 competes with the business of Gaussian, Inc. or will provide
 assistance to any competitor of Gaussian, Inc.  The licensee
 of this program is prohibited from giving any competitor of
 Gaussian, Inc. access to this program.  By using this program,
 the user acknowledges that Gaussian, Inc. is engaged in the
 business of creating and licensing software in the field of
 computational chemistry and represents and warrants to the
 licensee that it is not a competitor of Gaussian, Inc. and that
 it will not use this program in any manner prohibited above.
 ---------------------------------------------------------------
  

 Cite this work as:
 Gaussian 16, Revision A.03,
 M. J. Frisch, G. W. Trucks, H. B. Schlegel, G. E. Scuseria, 
 M. A. Robb, J. R. Cheeseman, G. Scalmani, V. Barone, 
 G. A. Petersson, H. Nakatsuji, X. Li, M. Caricato, A. V. Marenich, 
 J. Bloino, B. G. Janesko, R. Gomperts, B. Mennucci, H. P. Hratchian, 
 J. V. Ortiz, A. F. Izmaylov, J. L. Sonnenberg, D. Williams-Young, 
 F. Ding, F. Lipparini, F. Egidi, J. Goings, B. Peng, A. Petrone, 
 T. Henderson, D. Ranasinghe, V. G. Zakrzewski, J. Gao, N. Rega, 
 G. Zheng, W. Liang, M. Hada, M. Ehara, K. Toyota, R. Fukuda, 
 J. Hasegawa, M. Ishida, T. Nakajima, Y. Honda, O. Kitao, H. Nakai, 
 T. Vreven, K. Throssell, J. A. Montgomery, Jr., J. E. Peralta, 
 F. Ogliaro, M. J. Bearpark, J. J. Heyd, E. N. Brothers, K. N. Kudin, 
 V. N. Staroverov, T. A. Keith, R. Kobayashi, J. Normand, 
 K. Raghavachari, A. P. Rendell, J. C. Burant, S. S. Iyengar, 
 J. Tomasi, M. Cossi, J. M. Millam, M. Klene, C. Adamo, R. Cammi, 
 J. W. Ochterski, R. L. Martin, K. Morokuma, O. Farkas, 
 J. B. Foresman, and D. J. Fox, Gaussian, Inc., Wallingford CT, 2016.
 
 ******************************************
 Gaussian 16:  ES64L-G16RevA.03 25-Dec-2016
                 4-Apr-2018 
 ******************************************
 %mem=80GB
 %cpu=0-31
 SetSPE:  set environment variable "MP_BIND" = "yes"
 SetSPE:  set environment variable "MP_BLIST" = "0,1,2,3,4,5,6,7,8,9,10,11,12,13,14,15,16,17,18,19,20,21,22,23,24,25,26,27,28,29,30,31"
 Will use up to   32 processors via shared memory.
 %chk=5z.chk
 %rwf=/scratch/04843/gwang18/cuh/
 ----------------------------------------------------------------------
 #P ROCCSD(T)=(MaxCyc=150, Full)/Gen SCF=(maxcycle=400) Pseudo=Read Int
 egral(NoXCTest) Pop=Regular MaxDisk=500GB Guess=Read IOp(5/15=2)
 ----------------------------------------------------------------------
 1/38=1,172=1/1;
 2/12=2,17=6,18=5,40=1/2;
 3/5=7,11=2,16=1,17=8,25=1,30=1,47=8,116=101/1,2,3;
 4/5=1/1;
 5/5=2,7=400,15=2,38=6/2;
 8/5=-1,6=4,9=120000,10=90/1,4;
 9/5=7,6=150,14=2/13;
 6//1;
 99/5=1,9=1/99;
 Leave Link    1 at Wed Apr  4 19:52:59 2018, MaxMem= 10737418240 cpu:               6.5 elap:               0.2
 (Enter /home1/apps/gaussian/16rA.03/g16/l101.exe)
 ---
 CuH
 ---
 Symbolic Z-matrix:
 Charge =  0 Multiplicity = 1
 Cu                    0.        0.        0. 
 H                     0.        0.        1.2 
 
 ITRead=  0  0
 MicOpt= -1 -1
 NAtoms=      2 NQM=        2 NQMF=       0 NMMI=      0 NMMIF=      0
                NMic=       0 NMicF=      0.
                    Isotopes and Nuclear Properties:
 (Nuclear quadrupole moments (NQMom) in fm**2, nuclear magnetic moments (NMagM)
  in nuclear magnetons)

  Atom         1           2
 IAtWgt=          63           1
 AtmWgt=  62.9295992   1.0078250
 NucSpn=           3           1
 AtZEff=  -0.0000000  -0.0000000
 NQMom=  -22.0000000   0.0000000
 NMagM=    2.2233000   2.7928460
 AtZNuc=  29.0000000   1.0000000
 Leave Link  101 at Wed Apr  4 19:52:59 2018, MaxMem= 10737418240 cpu:               3.1 elap:               0.1
 (Enter /home1/apps/gaussian/16rA.03/g16/l202.exe)
                          Input orientation:                          
 ---------------------------------------------------------------------
 Center     Atomic      Atomic             Coordinates (Angstroms)
 Number     Number       Type             X           Y           Z
 ---------------------------------------------------------------------
      1         29           0        0.000000    0.000000    0.000000
      2          1           0        0.000000    0.000000    1.200000
 ---------------------------------------------------------------------
 Stoichiometry    CuH
 Framework group  C*V[C*(HCu)]
 Deg. of freedom     1
 Full point group                 C*V     NOp   4
 Largest Abelian subgroup         C2V     NOp   4
 Largest concise Abelian subgroup C1      NOp   1
                         Standard orientation:                         
 ---------------------------------------------------------------------
 Center     Atomic      Atomic             Coordinates (Angstroms)
 Number     Number       Type             X           Y           Z
 ---------------------------------------------------------------------
      1         29           0        0.000000    0.000000    0.040000
      2          1           0        0.000000    0.000000   -1.160000
 ---------------------------------------------------------------------
 Rotational constants (GHZ):           0.0000000         353.8096998         353.8096998
 Leave Link  202 at Wed Apr  4 19:52:59 2018, MaxMem= 10737418240 cpu:               0.8 elap:               0.1
 (Enter /home1/apps/gaussian/16rA.03/g16/l301.exe)
 General basis read from cards:  (5D, 7F)
 Centers:       1
 S 1 1.00
     Exponent=  1.9318800000D+08 Coefficients=  1.0000000000D+00
 S 1 1.00
     Exponent=  3.3945200000D+07 Coefficients=  1.0000000000D+00
 S 1 1.00
     Exponent=  7.5104600000D+06 Coefficients=  1.0000000000D+00
 S 1 1.00
     Exponent=  2.0019900000D+06 Coefficients=  1.0000000000D+00
 S 1 1.00
     Exponent=  6.1937800000D+05 Coefficients=  1.0000000000D+00
 S 1 1.00
     Exponent=  2.1560600000D+05 Coefficients=  1.0000000000D+00
 S 1 1.00
     Exponent=  8.2327100000D+04 Coefficients=  1.0000000000D+00
 S 1 1.00
     Exponent=  3.3788400000D+04 Coefficients=  1.0000000000D+00
 S 1 1.00
     Exponent=  1.4670000000D+04 Coefficients=  1.0000000000D+00
 S 1 1.00
     Exponent=  6.6574400000D+03 Coefficients=  1.0000000000D+00
 S 1 1.00
     Exponent=  3.1302600000D+03 Coefficients=  1.0000000000D+00
 S 1 1.00
     Exponent=  1.5156100000D+03 Coefficients=  1.0000000000D+00
 S 1 1.00
     Exponent=  7.5258800000D+02 Coefficients=  1.0000000000D+00
 S 1 1.00
     Exponent=  3.8224900000D+02 Coefficients=  1.0000000000D+00
 S 1 1.00
     Exponent=  1.9823700000D+02 Coefficients=  1.0000000000D+00
 S 1 1.00
     Exponent=  1.0481000000D+02 Coefficients=  1.0000000000D+00
 S 1 1.00
     Exponent=  5.6388500000D+01 Coefficients=  1.0000000000D+00
 S 1 1.00
     Exponent=  3.0783000000D+01 Coefficients=  1.0000000000D+00
 S 1 1.00
     Exponent=  1.6977000000D+01 Coefficients=  1.0000000000D+00
 S 1 1.00
     Exponent=  9.3972500000D+00 Coefficients=  1.0000000000D+00
 S 1 1.00
     Exponent=  5.1723800000D+00 Coefficients=  1.0000000000D+00
 S 1 1.00
     Exponent=  2.7953500000D+00 Coefficients=  1.0000000000D+00
 S 1 1.00
     Exponent=  1.4589000000D+00 Coefficients=  1.0000000000D+00
 S 1 1.00
     Exponent=  7.2871100000D-01 Coefficients=  1.0000000000D+00
 S 1 1.00
     Exponent=  2.3764200000D-01 Coefficients=  1.0000000000D+00
 S 1 1.00
     Exponent=  1.2782100000D-01 Coefficients=  1.0000000000D+00
 S 1 1.00
     Exponent=  6.1815000000D-02 Coefficients=  1.0000000000D+00
 S 1 1.00
     Exponent=  2.9303000000D-02 Coefficients=  1.0000000000D+00
 S 1 1.00
     Exponent=  9.3455000000D+00 Coefficients=  1.0000000000D+00
 S 1 1.00
     Exponent=  3.3051000000D+00 Coefficients=  1.0000000000D+00
 S 1 1.00
     Exponent=  1.3890000000D-02 Coefficients=  1.0000000000D+00
 P 1 1.00
     Exponent=  1.1029400000D+05 Coefficients=  1.0000000000D+00
 P 1 1.00
     Exponent=  2.6939100000D+04 Coefficients=  1.0000000000D+00
 P 1 1.00
     Exponent=  8.5507100000D+03 Coefficients=  1.0000000000D+00
 P 1 1.00
     Exponent=  3.2461900000D+03 Coefficients=  1.0000000000D+00
 P 1 1.00
     Exponent=  1.3884600000D+03 Coefficients=  1.0000000000D+00
 P 1 1.00
     Exponent=  6.4247400000D+02 Coefficients=  1.0000000000D+00
 P 1 1.00
     Exponent=  3.1357000000D+02 Coefficients=  1.0000000000D+00
 P 1 1.00
     Exponent=  1.5916100000D+02 Coefficients=  1.0000000000D+00
 P 1 1.00
     Exponent=  8.3441400000D+01 Coefficients=  1.0000000000D+00
 P 1 1.00
     Exponent=  4.5019600000D+01 Coefficients=  1.0000000000D+00
 P 1 1.00
     Exponent=  2.4889400000D+01 Coefficients=  1.0000000000D+00
 P 1 1.00
     Exponent=  1.3973100000D+01 Coefficients=  1.0000000000D+00
 P 1 1.00
     Exponent=  7.8257100000D+00 Coefficients=  1.0000000000D+00
 P 1 1.00
     Exponent=  4.2863200000D+00 Coefficients=  1.0000000000D+00
 P 1 1.00
     Exponent=  2.2903400000D+00 Coefficients=  1.0000000000D+00
 P 1 1.00
     Exponent=  1.1934200000D+00 Coefficients=  1.0000000000D+00
 P 1 1.00
     Exponent=  5.9376500000D-01 Coefficients=  1.0000000000D+00
 P 1 1.00
     Exponent=  2.2398700000D-01 Coefficients=  1.0000000000D+00
 P 1 1.00
     Exponent=  8.9026000000D-02 Coefficients=  1.0000000000D+00
 P 1 1.00
     Exponent=  3.5213000000D-02 Coefficients=  1.0000000000D+00
 P 1 1.00
     Exponent=  1.4003500000D+01 Coefficients=  1.0000000000D+00
 P 1 1.00
     Exponent=  4.5398000000D+00 Coefficients=  1.0000000000D+00
 P 1 1.00
     Exponent=  1.3930000000D-02 Coefficients=  1.0000000000D+00
 D 1 1.00
     Exponent=  7.3289300000D+02 Coefficients=  1.0000000000D+00
 D 1 1.00
     Exponent=  2.2075300000D+02 Coefficients=  1.0000000000D+00
 D 1 1.00
     Exponent=  8.5626800000D+01 Coefficients=  1.0000000000D+00
 D 1 1.00
     Exponent=  3.7717800000D+01 Coefficients=  1.0000000000D+00
 D 1 1.00
     Exponent=  1.7764700000D+01 Coefficients=  1.0000000000D+00
 D 1 1.00
     Exponent=  8.7641500000D+00 Coefficients=  1.0000000000D+00
 D 1 1.00
     Exponent=  4.4178660000D+00 Coefficients=  1.0000000000D+00
 D 1 1.00
     Exponent=  2.2180390000D+00 Coefficients=  1.0000000000D+00
 D 1 1.00
     Exponent=  1.0935310000D+00 Coefficients=  1.0000000000D+00
 D 1 1.00
     Exponent=  5.2309100000D-01 Coefficients=  1.0000000000D+00
 D 1 1.00
     Exponent=  2.3847500000D-01 Coefficients=  1.0000000000D+00
 D 1 1.00
     Exponent=  1.0002600000D-01 Coefficients=  1.0000000000D+00
 D 1 1.00
     Exponent=  1.0853400000D+01 Coefficients=  1.0000000000D+00
 D 1 1.00
     Exponent=  6.4396000000D+00 Coefficients=  1.0000000000D+00
 D 1 1.00
     Exponent=  4.1950000000D-02 Coefficients=  1.0000000000D+00
 F 1 1.00
     Exponent=  1.6409600000D+01 Coefficients=  1.0000000000D+00
 F 1 1.00
     Exponent=  7.3000000000D+00 Coefficients=  1.0000000000D+00
 F 1 1.00
     Exponent=  3.2475000000D+00 Coefficients=  1.0000000000D+00
 F 1 1.00
     Exponent=  1.4447000000D+00 Coefficients=  1.0000000000D+00
 F 1 1.00
     Exponent=  5.0050000000D-01 Coefficients=  1.0000000000D+00
 F 1 1.00
     Exponent=  1.7339000000D-01 Coefficients=  1.0000000000D+00
 G 1 1.00
     Exponent=  1.1598400000D+01 Coefficients=  1.0000000000D+00
 G 1 1.00
     Exponent=  5.7591000000D+00 Coefficients=  1.0000000000D+00
 G 1 1.00
     Exponent=  2.8596000000D+00 Coefficients=  1.0000000000D+00
 G 1 1.00
     Exponent=  1.1042000000D+00 Coefficients=  1.0000000000D+00
 G 1 1.00
     Exponent=  4.2637000000D-01 Coefficients=  1.0000000000D+00
 H 1 1.00
     Exponent=  1.0031900000D+01 Coefficients=  1.0000000000D+00
 H 1 1.00
     Exponent=  4.8836000000D+00 Coefficients=  1.0000000000D+00
 H 1 1.00
     Exponent=  2.1024000000D+00 Coefficients=  1.0000000000D+00
 H 1 1.00
     Exponent=  9.0509000000D-01 Coefficients=  1.0000000000D+00
 I 1 1.00
     Exponent=  9.9825000000D+00 Coefficients=  1.0000000000D+00
 I 1 1.00
     Exponent=  4.9428000000D+00 Coefficients=  1.0000000000D+00
 I 1 1.00
     Exponent=  2.4474100000D+00 Coefficients=  1.0000000000D+00
 ****
 Centers:       2
 S 1 1.00
     Exponent=  4.0200000000D+02 Coefficients=  1.0000000000D+00
 S 1 1.00
     Exponent=  6.0240000000D+01 Coefficients=  1.0000000000D+00
 S 1 1.00
     Exponent=  1.3730000000D+01 Coefficients=  1.0000000000D+00
 S 1 1.00
     Exponent=  3.9050000000D+00 Coefficients=  1.0000000000D+00
 S 1 1.00
     Exponent=  1.2830000000D+00 Coefficients=  1.0000000000D+00
 S 1 1.00
     Exponent=  4.6550000000D-01 Coefficients=  1.0000000000D+00
 S 1 1.00
     Exponent=  1.8110000000D-01 Coefficients=  1.0000000000D+00
 S 1 1.00
     Exponent=  7.2790000000D-02 Coefficients=  1.0000000000D+00
 S 1 1.00
     Exponent=  2.0700000000D-02 Coefficients=  1.0000000000D+00
 P 1 1.00
     Exponent=  4.5160000000D+00 Coefficients=  1.0000000000D+00
 P 1 1.00
     Exponent=  1.7120000000D+00 Coefficients=  1.0000000000D+00
 P 1 1.00
     Exponent=  6.4900000000D-01 Coefficients=  1.0000000000D+00
 P 1 1.00
     Exponent=  2.4600000000D-01 Coefficients=  1.0000000000D+00
 P 1 1.00
     Exponent=  7.4400000000D-02 Coefficients=  1.0000000000D+00
 D 1 1.00
     Exponent=  2.9500000000D+00 Coefficients=  1.0000000000D+00
 D 1 1.00
     Exponent=  1.2060000000D+00 Coefficients=  1.0000000000D+00
 D 1 1.00
     Exponent=  4.9300000000D-01 Coefficients=  1.0000000000D+00
 D 1 1.00
     Exponent=  1.5600000000D-01 Coefficients=  1.0000000000D+00
 F 1 1.00
     Exponent=  2.5060000000D+00 Coefficients=  1.0000000000D+00
 F 1 1.00
     Exponent=  8.7500000000D-01 Coefficients=  1.0000000000D+00
 F 1 1.00
     Exponent=  2.7400000000D-01 Coefficients=  1.0000000000D+00
 G 1 1.00
     Exponent=  2.3580000000D+00 Coefficients=  1.0000000000D+00
 G 1 1.00
     Exponent=  5.4300000000D-01 Coefficients=  1.0000000000D+00
 ****
 ======================================================================================================
                                       Pseudopotential Parameters
 ======================================================================================================
  Center     Atomic      Valence      Angular      Power
  Number     Number     Electrons     Momentum     of R      Exponent        Coefficient   SO-Coeffient
 ======================================================================================================
    1         29           19
                                      D and up 
                                                     1        6.2514963       19.00000000    0.00000000
                                                     3        6.7272533      118.77842940    0.00000000
                                                     2        6.6102459     -105.89982403    0.00000000
                                      S - D
                                                     2       12.3656871      127.35069424    0.00000000
                                      P - D
                                                     2       11.1607294       71.22984900    0.00000000
    2          1            1
                                      P and up 
                                                     2       21.7769666      -10.85192405    0.00000000
                                                     1       21.2435951        1.00000000    0.00000000
                                                     3       21.2435951       21.24359508    0.00000000
                                      S - P
                                                     2        1.0000000        0.00000000    0.00000000
 ======================================================================================================
 Ernie: Thresh=  0.10000D-02 Tol=  0.10000D-05 Strict=F.
 There are   248 symmetry adapted cartesian basis functions of A1  symmetry.
 There are    79 symmetry adapted cartesian basis functions of A2  symmetry.
 There are   137 symmetry adapted cartesian basis functions of B1  symmetry.
 There are   137 symmetry adapted cartesian basis functions of B2  symmetry.
 There are   169 symmetry adapted basis functions of A1  symmetry.
 There are    59 symmetry adapted basis functions of A2  symmetry.
 There are   100 symmetry adapted basis functions of B1  symmetry.
 There are   100 symmetry adapted basis functions of B2  symmetry.
   428 basis functions,   601 primitive gaussians,   601 cartesian basis functions
    10 alpha electrons       10 beta electrons
       nuclear repulsion energy         8.3786391729 Hartrees.
 IExCor=    0 DFT=F Ex=HF Corr=None ExCW=0 ScaHFX=  1.000000
 ScaDFX=  1.000000  1.000000  1.000000  1.000000 ScalE2=  1.000000  1.000000
 IRadAn=      5 IRanWt=     -1 IRanGd=            0 ICorTp=0 IEmpDi=  4
 NAtoms=    2 NActive=    2 NUniq=    2 SFac= 1.00D+00 NAtFMM=   60 NAOKFM=F Big=F
 Integral buffers will be    131072 words long.
 Raffenetti 2 integral format.
 Two-electron integral symmetry is turned on.
 Leave Link  301 at Wed Apr  4 19:52:59 2018, MaxMem= 10737418240 cpu:               9.2 elap:               0.3
 (Enter /home1/apps/gaussian/16rA.03/g16/l302.exe)
 NPDir=0 NMtPBC=     1 NCelOv=     1 NCel=       1 NClECP=     1 NCelD=      1
         NCelK=      1 NCelE2=     1 NClLst=     1 CellRange=     0.0.
 One-electron integrals computed using PRISM.
 One-electron integral symmetry used in STVInt
   4 Symmetry operations used in ECPInt.
 ECPInt:  NShTT=    6105 NPrTT=    6105 LenC2=    6020 LenP2D=    6019.
 LDataN:  DoStor=T MaxTD1=12 Len= 1566
 NBasis=   428 RedAO= T EigKep=  4.97D-06  NBF=   169    59   100   100
 NBsUse=   420 1.00D-06 EigRej=  7.88D-07 NBFU=   165    59    98    98
 Leave Link  302 at Wed Apr  4 19:53:09 2018, MaxMem= 10737418240 cpu:             294.4 elap:               9.3
 (Enter /home1/apps/gaussian/16rA.03/g16/l303.exe)
 DipDrv:  MaxL=1.
 Leave Link  303 at Wed Apr  4 19:53:09 2018, MaxMem= 10737418240 cpu:               4.9 elap:               0.3
 (Enter /home1/apps/gaussian/16rA.03/g16/l401.exe)
 Initial guess from the checkpoint file:  "5z.chk"
 B after Tr=     0.000000    0.000000    0.000000
         Rot=    1.000000    0.000000    0.000000    0.000000 Ang=   0.00 deg.
 Guess basis will be translated and rotated to current coordinates.
 JPrj=2 DoOrth=T DoCkMO=T.
 Initial guess orbital symmetries:
       Occupied  (SG) (SG) (PI) (PI) (SG) (PI) (PI) (DLTA) (DLTA)
                 (SG)
       Virtual   (SG) (PI) (PI) (SG) (SG) (PI) (PI) (SG) (PI) (PI)
                 (SG) (DLTA) (DLTA) (SG) (SG) (PI) (PI) (SG) (PI)
                 (PI) (SG) (DLTA) (DLTA) (PI) (PI) (SG) (SG) (SG)
                 (DLTA) (DLTA) (PI) (PI) (PI) (PI) (SG) (PHI) (PHI)
                 (SG) (PI) (PI) (DLTA) (DLTA) (PI) (PI) (SG) (DLTA)
                 (DLTA) (SG) (PI) (PI) (SG) (PHI) (PHI) (SG) (PI)
                 (PI) (DLTA) (DLTA) (SG) (PI) (PI) (SG) (DLTA)
                 (DLTA) (PI) (PI) (SG) (PHI) (PHI) (SG) (DLTA)
                 (DLTA) (PI) (PI) (DLTA) (DLTA) (PI) (PI) (?A)
                 (?A) (SG) (PHI) (PHI) (SG) (PI) (PI) (DLTA) (DLTA)
                 (SG) (PI) (PI) (SG) (PI) (PI) (SG) (PHI) (PHI)
                 (SG) (DLTA) (DLTA) (PI) (PI) (SG) (DLTA) (DLTA)
                 (PHI) (PHI) (PI) (PI) (DLTA) (DLTA) (SG) (SG)
                 (PI) (PI) (DLTA) (DLTA) (PI) (PI) (SG) (PI) (PI)
                 (?A) (?A) (PHI) (PHI) (?A) (?A) (?B) (?B) (PHI)
                 (PHI) (SG) (DLTA) (DLTA) (PI) (PI) (DLTA) (DLTA)
                 (SG) (SG) (PI) (PI) (SG) (PI) (PI) (SG) (DLTA)
                 (DLTA) (PI) (PI) (SG) (PHI) (PHI) (DLTA) (DLTA)
                 (PI) (PI) (SG) (?A) (?A) (PHI) (PHI) (DLTA) (DLTA)
                 (SG) (PI) (PI) (SG) (?A) (?A) (?B) (?B) (PHI)
                 (PHI) (DLTA) (DLTA) (PI) (PI) (SG) (PI) (PI) (SG)
                 (DLTA) (DLTA) (PI) (PI) (SG) (SG) (SG) (PHI) (PHI)
                 (DLTA) (DLTA) (PI) (PI) (PI) (PI) (SG) (SG) (?A)
                 (?A) (PHI) (PHI) (DLTA) (DLTA) (DLTA) (DLTA) (PI)
                 (PI) (PI) (PI) (SG) (SG) (?B) (?B) (?A) (?A) (PHI)
                 (PHI) (DLTA) (DLTA) (PI) (PI) (SG) (PI) (PI) (SG)
                 (DLTA) (DLTA) (PI) (PI) (SG) (SG) (PI) (PI) (SG)
                 (DLTA) (DLTA) (PI) (PI) (SG) (SG) (SG) (PI) (PI)
                 (SG) (SG) (DLTA) (DLTA) (PI) (PI) (SG) (PI) (PI)
                 (SG) (SG) (PI) (PI) (SG) (DLTA) (DLTA) (PI) (PI)
                 (SG) (SG) (PI) (PI) (SG) (DLTA) (DLTA) (PI) (PI)
                 (SG) (SG) (PI) (PI) (SG) (SG) (PI) (PI) (SG) (SG)
                 (PI) (PI) (SG) (SG) (PI) (PI) (SG) (SG) (PI) (PI)
                 (SG) (SG) (SG) (SG) (SG) (SG) (DLTA) (DLTA) (SG)
                 (SG) (SG) (DLTA) (SG) (SG) (SG) (SG) (DLTA) (DLTA)
                 (SG) (?A) (SG) (DLTA) (SG) (DLTA) (SG) (?A) (SG)
                 (SG) (DLTA) (?A) (SG) (DLTA) (SG) (DLTA) (SG)
                 (SG) (?A) (SG) (?A) (SG) (DLTA) (SG) (?A) (SG)
                 (?A) (SG) (DLTA) (DLTA) (DLTA) (DLTA) (DLTA) (?A)
                 (DLTA) (DLTA) (?A) (DLTA) (?A) (SG) (DLTA) (DLTA)
                 (?A) (?A) (DLTA) (SG) (?A) (SG) (?A) (PI) (PI)
                 (PI) (PHI) (PI) (PI) (PHI) (PI) (PI) (PHI) (PI)
                 (?B) (PI) (PHI) (PI) (PHI) (?B) (PI) (PHI) (PI)
                 (PHI) (PHI) (PHI) (?B) (?B) (PI) (PI) (PI) (PHI)
                 (PI) (PI) (PHI) (PI) (PI) (PHI) (PI) (?B) (PI)
                 (PHI) (PI) (PHI) (?B) (PI) (PHI) (PI) (PHI) (PHI)
                 (PHI) (?B) (?B)
 The electronic state of the initial guess is 1-SG.
 Leave Link  401 at Wed Apr  4 19:53:11 2018, MaxMem= 10737418240 cpu:              40.2 elap:               1.5
 (Enter /home1/apps/gaussian/16rA.03/g16/l502.exe)
 Keep R1 and R2 ints in memory in symmetry-blocked form, NReq=5277864979.
 FoFCou: FMM=F IPFlag=           8 FMFlag=           0 FMFlg1=           0
         NFxFlg=           0 DoJE=F BraDBF=F KetDBF=F FulRan=T
         wScrn=  0.000000 ICntrl=       600 IOpCl=  0 I1Cent=           0 NGrid=           0
         NMat0=    1 NMatS0=  91806 NMatT0=    0 NMatD0=    1 NMtDS0=    0 NMtDT0=    0
 Petite list used in FoFCou.
 Restricted open shell SCF:
 Using DIIS extrapolation, IDIIS=  1040.
 NGot= 10737418240 LenX=  8609582347 LenY=  8609220545
 Requested convergence on RMS density matrix=1.00D-08 within 400 cycles.
 Requested convergence on MAX density matrix=1.00D-06.
 Requested convergence on             energy=1.00D-06.
 No special actions if energy rises.

 Cycle   1  Pass 1  IDiag  1:
 E= -196.743398703464    
 DIIS: error= 4.66D-01 at cycle   1 NSaved=   1.
 NSaved= 1 IEnMin= 1 EnMin= -196.743398703464     IErMin= 1 ErrMin= 4.66D-01
 ErrMax= 4.66D-01  0.00D+00 EMaxC= 1.00D-01 BMatC= 4.13D+01 BMatP= 4.13D+01
 IDIUse=3 WtCom= 0.00D+00 WtEn= 1.00D+00
 Coeff-Com:  0.100D+01
 Coeff-En:   0.100D+01
 Coeff:      0.100D+01
 Gap=     0.342 Goal=   None    Shift=    0.000
 GapD=    0.342 DampG=1.000 DampE=0.125 DampFc=0.1250 IDamp=-1.
 Damping current iteration by 1.25D-01
 RMSDP=2.40D-04 MaxDP=1.99D-02              OVMax= 6.78D-04

 Cycle   2  Pass 1  IDiag  1:
 E= -196.743408563067     Delta-E=       -0.000009859603 Rises=F Damp=T
 DIIS: error= 4.08D-01 at cycle   2 NSaved=   2.
 NSaved= 2 IEnMin= 2 EnMin= -196.743408563067     IErMin= 2 ErrMin= 4.08D-01
 ErrMax= 4.08D-01  0.00D+00 EMaxC= 1.00D-01 BMatC= 3.16D+01 BMatP= 4.13D+01
 IDIUse=3 WtCom= 0.00D+00 WtEn= 1.00D+00
 Coeff-Com: -0.700D+01 0.800D+01
 Coeff-En:   0.000D+00 0.100D+01
 Coeff:      0.000D+00 0.100D+01
 Gap=     0.339 Goal=   None    Shift=    0.000
 RMSDP=2.11D-04 MaxDP=1.76D-02 DE=-9.86D-06 OVMax= 1.20D-05

 Cycle   3  Pass 1  IDiag  1:
 E= -196.743479003210     Delta-E=       -0.000070440143 Rises=F Damp=F
 DIIS: error= 5.11D-05 at cycle   3 NSaved=   3.
 NSaved= 3 IEnMin= 3 EnMin= -196.743479003210     IErMin= 3 ErrMin= 5.11D-05
 ErrMax= 5.11D-05  0.00D+00 EMaxC= 1.00D-01 BMatC= 3.45D-07 BMatP= 3.16D+01
 IDIUse=1 WtCom= 1.00D+00 WtEn= 0.00D+00
 Large coefficients: NSaved=  3 BigCof=   51.64 CofMax=   10.00 Det=-1.13D-10
 Inversion failed.  Reducing to  2 matrices.
 Coeff-Com: -0.954D-06 0.100D+01
 Coeff:     -0.954D-06 0.100D+01
 Gap=     0.339 Goal=   None    Shift=    0.000
 RMSDP=1.29D-05 MaxDP=1.45D-03 DE=-7.04D-05 OVMax= 8.56D-05

 Cycle   4  Pass 1  IDiag  1:
 E= -196.743479091156     Delta-E=       -0.000000087946 Rises=F Damp=F
 DIIS: error= 2.69D-06 at cycle   4 NSaved=   3.
 NSaved= 3 IEnMin= 3 EnMin= -196.743479091156     IErMin= 3 ErrMin= 2.69D-06
 ErrMax= 2.69D-06  0.00D+00 EMaxC= 1.00D-01 BMatC= 1.44D-09 BMatP= 3.45D-07
 IDIUse=1 WtCom= 1.00D+00 WtEn= 0.00D+00
 Coeff-Com:  0.281D-07-0.397D-01 0.104D+01
 Coeff:      0.281D-07-0.397D-01 0.104D+01
 Gap=     0.339 Goal=   None    Shift=    0.000
 RMSDP=1.96D-06 MaxDP=2.56D-04 DE=-8.79D-08 OVMax= 1.50D-05

 Cycle   5  Pass 1  IDiag  1:
 E= -196.743479092986     Delta-E=       -0.000000001830 Rises=F Damp=F
 DIIS: error= 1.65D-06 at cycle   5 NSaved=   4.
 NSaved= 4 IEnMin= 4 EnMin= -196.743479092986     IErMin= 4 ErrMin= 1.65D-06
 ErrMax= 1.65D-06  0.00D+00 EMaxC= 1.00D-01 BMatC= 1.87D-10 BMatP= 1.44D-09
 IDIUse=1 WtCom= 1.00D+00 WtEn= 0.00D+00
 Coeff-Com:  0.621D-08-0.792D-02 0.150D+00 0.858D+00
 Coeff:      0.621D-08-0.792D-02 0.150D+00 0.858D+00
 Gap=     0.339 Goal=   None    Shift=    0.000
 RMSDP=2.27D-07 MaxDP=3.31D-05 DE=-1.83D-09 OVMax= 2.81D-06

 Cycle   6  Pass 1  IDiag  1:
 E= -196.743479093065     Delta-E=       -0.000000000079 Rises=F Damp=F
 DIIS: error= 1.41D-06 at cycle   6 NSaved=   5.
 NSaved= 5 IEnMin= 5 EnMin= -196.743479093065     IErMin= 5 ErrMin= 1.41D-06
 ErrMax= 1.41D-06  0.00D+00 EMaxC= 1.00D-01 BMatC= 1.58D-10 BMatP= 1.87D-10
 IDIUse=1 WtCom= 1.00D+00 WtEn= 0.00D+00
 Coeff-Com: -0.134D-08 0.236D-02-0.956D-01 0.505D+00 0.588D+00
 Coeff:     -0.134D-08 0.236D-02-0.956D-01 0.505D+00 0.588D+00
 Gap=     0.339 Goal=   None    Shift=    0.000
 RMSDP=8.40D-08 MaxDP=1.27D-05 DE=-7.88D-11 OVMax= 2.68D-06

 Cycle   7  Pass 1  IDiag  1:
 E= -196.743479093127     Delta-E=       -0.000000000062 Rises=F Damp=F
 DIIS: error= 3.29D-07 at cycle   7 NSaved=   6.
 NSaved= 6 IEnMin= 6 EnMin= -196.743479093127     IErMin= 6 ErrMin= 3.29D-07
 ErrMax= 3.29D-07  0.00D+00 EMaxC= 1.00D-01 BMatC= 7.14D-12 BMatP= 1.58D-10
 IDIUse=1 WtCom= 1.00D+00 WtEn= 0.00D+00
 Coeff-Com: -0.703D-09 0.101D-02-0.279D-01-0.724D-02 0.127D+00 0.907D+00
 Coeff:     -0.703D-09 0.101D-02-0.279D-01-0.724D-02 0.127D+00 0.907D+00
 Gap=     0.339 Goal=   None    Shift=    0.000
 RMSDP=1.35D-08 MaxDP=2.10D-06 DE=-6.24D-11 OVMax= 1.60D-06

 Cycle   8  Pass 1  IDiag  1:
 E= -196.743479093139     Delta-E=       -0.000000000012 Rises=F Damp=F
 DIIS: error= 2.66D-07 at cycle   8 NSaved=   7.
 NSaved= 7 IEnMin= 7 EnMin= -196.743479093139     IErMin= 7 ErrMin= 2.66D-07
 ErrMax= 2.66D-07  0.00D+00 EMaxC= 1.00D-01 BMatC= 1.77D-12 BMatP= 7.14D-12
 IDIUse=1 WtCom= 1.00D+00 WtEn= 0.00D+00
 Coeff-Com:  0.531D-09-0.930D-03 0.317D-01-0.117D+00-0.133D+00-0.586D+00
 Coeff-Com:  0.180D+01
 Coeff:      0.531D-09-0.930D-03 0.317D-01-0.117D+00-0.133D+00-0.586D+00
 Coeff:      0.180D+01
 Gap=     0.339 Goal=   None    Shift=    0.000
 RMSDP=7.93D-09 MaxDP=6.99D-07 DE=-1.22D-11 OVMax= 2.59D-06

 SCF Done:  E(ROHF) =  -196.743479093     A.U. after    8 cycles
            NFock=  8  Conv=0.79D-08     -V/T= 2.5642
 <Sx>= 0.0000 <Sy>= 0.0000 <Sz>= 0.0000 <S**2>=-0.0000 S=-0.0000
 <L.S>=  0.00000000000    
 KE= 1.257824968188D+02 PE=-4.999414686454D+02 EE= 1.690368535605D+02
 Annihilation of the first spin contaminant:
 S**2 before annihilation    -0.0000,   after     0.0000
 Leave Link  502 at Wed Apr  4 19:55:36 2018, MaxMem= 10737418240 cpu:            4470.6 elap:             145.3
 (Enter /home1/apps/gaussian/16rA.03/g16/l801.exe)
 Windowed orbitals will be sorted by symmetry type.
 GenMOA:  NOpAll=  4 NOp2=4 NOpUse=  4 JSym2X=1
 FoFJK:  IHMeth= 1 ICntrl=       0 DoSepK=F KAlg= 0 I1Cent=           0 FoldK=F
 IRaf=         0 NMat=       1 IRICut=       1 DoRegI=T DoRafI=F ISym2E= 1 IDoP0=0 IntGTp=1.
 FoFCou: FMM=F IPFlag=           8 FMFlag=      100000 FMFlg1=           0
         NFxFlg=           0 DoJE=F BraDBF=F KetDBF=F FulRan=T
         wScrn=  0.000000 ICntrl=         0 IOpCl=  1 I1Cent=           0 NGrid=           0
         NMat0=    1 NMatS0=      1 NMatT0=    0 NMatD0=    1 NMtDS0=    0 NMtDT0=    0
 Petite list used in FoFCou.
 <Sx>= 0.0000 <Sy>= 0.0000 <Sz>= 0.0000 <S**2>=-0.0000 S=-0.0000
 Range of M.O.s used for correlation:     1   420
 NBasis=   428 NAE=    10 NBE=    10 NFC=     0 NFV=     0
 NROrb=    420 NOA=    10 NOB=    10 NVA=   410 NVB=   410

 **** Warning!!: The largest alpha MO coefficient is  0.18374385D+03


 **** Warning!!: The largest beta MO coefficient is  0.18374385D+03

 Singles contribution to E2=   -0.6583940431D-12
 Leave Link  801 at Wed Apr  4 19:56:35 2018, MaxMem= 10737418240 cpu:            1882.8 elap:              58.9
 (Enter /home1/apps/gaussian/16rA.03/g16/l804.exe)
 Open-shell transformation, MDV= 10737418240 ITran=4 ISComp=2.
 Unit  1 TFree=       5559593 TCopy=       4040200.
 Semi-Direct transformation.
 ModeAB=           2 MOrb=            10 LenV=   10732030318
 LASXX=     92246279 LTotXX=    92246279 LenRXX=    92246279
 LTotAB=    93071561 MaxLAS=   759784200 LenRXY=   759784200
 NonZer=   773228400 LenScr=  1164391424 LnRSAI=           0
 LnScr1=           0 LExtra=    28413589 Total=   2044835492
 MaxDsk= 67108864000 SrtSym=           F ITran=            4
 DoSDTr:  NPSUse= 32
 JobTyp=1 Pass  1:  I=   1 to  10.
 (rs|ai) integrals will be sorted in core.
 Complete sort for first half transformation.
 First half transformation complete.
 Begin second half transformation for I=  10.
 Begin second half transformation for I=  10.
 Complete sort for second half transformation.
 Second half transformation complete.
 ModeAB=           2 MOrb=            10 LenV=   10732030318
 LASXX=     92246279 LTotXX=    92246279 LenRXX=   759784200
 LTotAB=    88666064 MaxLAS=   759784200 LenRXY=    88666064
 NonZer=   773228400 LenScr=  1164391424 LnRSAI=           0
 LnScr1=           0 LExtra=   880444068 Total=   2893285756
 MaxDsk= 67108864000 SrtSym=           F ITran=            4
 DoSDTr:  NPSUse= 32
 JobTyp=2 Pass  1:  I=   1 to  10.
 (rs|ai) integrals will be sorted in core.
 Complete sort for first half transformation.
 First half transformation complete.
 Begin second half transformation for I=  10.
 Begin second half transformation for I=  10.
 Complete sort for second half transformation.
 Second half transformation complete.
 Spin components of T(2) and E(2):
     alpha-alpha T2 =       0.2533469721D-01 E2=     -0.1816808917D+00
     alpha-beta  T2 =       0.1101815457D+00 E2=     -0.8435457649D+00
     beta-beta   T2 =       0.2533469721D-01 E2=     -0.1816808917D+00
 ANorm=    0.1077427928D+01
 E2 =    -0.1206907548D+01 EUMP2 =    -0.19795038664141D+03
 (S**2,0)=  0.00000D+00           (S**2,1)=  0.00000D+00
 E(PUHF)=      -0.19674347909D+03        E(PMP2)=      -0.19795038664D+03
 Leave Link  804 at Wed Apr  4 20:32:06 2018, MaxMem= 10737418240 cpu:           68136.0 elap:            2130.0
 (Enter /home1/apps/gaussian/16rA.03/g16/l913.exe)
 CIDS:  MDV= 10737418240.
 IFCWin=0 IBDFC=1 NFBD=     0     0 NFCmp=     0     0 NFFFC=     0     0
 Using original routines for 1st iteration.
 Using DD4UQ or CC4UQ for 2nd and later iterations.
 Keep R2 and R3 ints in memory in symmetry-blocked form, NReq=5277887473.
 FoFCou: FMM=F IPFlag=           8 FMFlag=           0 FMFlg1=           0
         NFxFlg=           0 DoJE=F BraDBF=F KetDBF=F FulRan=T
         wScrn=  0.000000 ICntrl=       600 IOpCl=  0 I1Cent=           0 NGrid=           0
         NMat0=    1 NMatS0=  91806 NMatT0=    0 NMatD0=    1 NMtDS0=    0 NMtDT0=    0
 Petite list used in FoFCou.
 CIDS: In Core Option IDoMem=           1.
 CCSD(T)
 =======
 Iterations= 150 Convergence= 0.100D-06
 Produce multiple copies of IABC intergrals
 Iteration Nr.   1
 **********************
 DD1Dir will call FoFMem   1 times, MxPair=       290
 NAB=   100 NAA=    45 NBB=    45.
 DD1Dir will call FoFMem   1 times, MxPair=       290
 NAB=   100 NAA=    45 NBB=    45.
 MP4(R+Q)= -0.22857819D+00
 Maximum subspace dimension=  5
 A-vector RMS=  1.8550974D-05 Max=  2.6863261D-03 conv= 1.00D-05.
 RLE energy=       -1.2204991689
 E3=        0.21513793D+00        EROMP3=      -0.19773524871D+03
 E4(SDQ)=  -0.16350001D+00        ROMP4(SDQ)=  -0.19789874872D+03
 VARIATIONAL ENERGIES WITH THE FIRST-ORDER WAVEFUNCTION:
 DE(Corr)=  -1.2203478     E(Corr)=     -197.96382690    
 NORM(A)=   0.10792540D+01
 Iteration Nr.   2
 **********************
 DD1Dir will call FoFMem   1 times, MxPair=       290
 NAB=   100 NAA=    45 NBB=    45.
 A-vector RMS=  4.0113169D-03 Max=  3.5775716D-02 conv= 1.00D-05.
 RLE energy=       -1.1813863847
 DE(Corr)= -0.99051549     E(CORR)=     -197.73399459     Delta= 2.30D-01
 NORM(A)=   0.10719344D+01
 Iteration Nr.   3
 **********************
 DD1Dir will call FoFMem   1 times, MxPair=       290
 NAB=   100 NAA=    45 NBB=    45.
 A-vector RMS=  2.8536329D-03 Max=  2.4710147D-02 conv= 1.00D-05.
 RLE energy=       -1.1317790202
 DE(Corr)=  -1.0104122     E(CORR)=     -197.75389127     Delta=-1.99D-02
 NORM(A)=   0.10666523D+01
 Iteration Nr.   4
 **********************
 DD1Dir will call FoFMem   1 times, MxPair=       290
 NAB=   100 NAA=    45 NBB=    45.
 A-vector RMS=  2.1038324D-03 Max=  1.9228935D-02 conv= 1.00D-05.
 RLE energy=       -1.0226215618
 DE(Corr)=  -1.0371132     E(CORR)=     -197.78059234     Delta=-2.67D-02
 NORM(A)=   0.10715575D+01
 Iteration Nr.   5
 **********************
 DD1Dir will call FoFMem   1 times, MxPair=       290
 NAB=   100 NAA=    45 NBB=    45.
 A-vector RMS=  1.5047310D-03 Max=  1.3711576D-02 conv= 1.00D-05.
 RLE energy=       -1.0612309542
 DE(Corr)=  -1.1105934     E(CORR)=     -197.85407247     Delta=-7.35D-02
 NORM(A)=   0.10769707D+01
 Iteration Nr.   6
 **********************
 DD1Dir will call FoFMem   1 times, MxPair=       290
 NAB=   100 NAA=    45 NBB=    45.
 A-vector RMS=  4.4554198D-04 Max=  4.0664317D-03 conv= 1.00D-05.
 RLE energy=       -1.0795086876
 DE(Corr)=  -1.0874585     E(CORR)=     -197.83093756     Delta= 2.31D-02
 NORM(A)=   0.10754908D+01
 Iteration Nr.   7
 **********************
 DD1Dir will call FoFMem   1 times, MxPair=       290
 NAB=   100 NAA=    45 NBB=    45.
 A-vector RMS=  1.7135941D-04 Max=  2.7138787D-03 conv= 1.00D-05.
 RLE energy=       -1.0766147135
 DE(Corr)=  -1.0754390     E(CORR)=     -197.81891814     Delta= 1.20D-02
 NORM(A)=   0.10764473D+01
 Iteration Nr.   8
 **********************
 DD1Dir will call FoFMem   1 times, MxPair=       290
 NAB=   100 NAA=    45 NBB=    45.
 A-vector RMS=  1.4292130D-04 Max=  2.3582042D-03 conv= 1.00D-05.
 RLE energy=       -1.0766384352
 DE(Corr)=  -1.0770915     E(CORR)=     -197.82057060     Delta=-1.65D-03
 NORM(A)=   0.10775803D+01
 Iteration Nr.   9
 **********************
 DD1Dir will call FoFMem   1 times, MxPair=       290
 NAB=   100 NAA=    45 NBB=    45.
 A-vector RMS=  7.3000359D-05 Max=  1.1453351D-03 conv= 1.00D-05.
 RLE energy=       -1.0768656522
 DE(Corr)=  -1.0768242     E(CORR)=     -197.82030327     Delta= 2.67D-04
 NORM(A)=   0.10786670D+01
 Iteration Nr.  10
 **********************
 DD1Dir will call FoFMem   1 times, MxPair=       290
 NAB=   100 NAA=    45 NBB=    45.
 A-vector RMS=  3.5691710D-05 Max=  5.9557689D-04 conv= 1.00D-05.
 RLE energy=       -1.0769083879
 DE(Corr)=  -1.0768645     E(CORR)=     -197.82034361     Delta=-4.03D-05
 NORM(A)=   0.10788813D+01
 Iteration Nr.  11
 **********************
 DD1Dir will call FoFMem   1 times, MxPair=       290
 NAB=   100 NAA=    45 NBB=    45.
 A-vector RMS=  2.4491924D-05 Max=  5.1657751D-04 conv= 1.00D-05.
 RLE energy=       -1.0767674245
 DE(Corr)=  -1.0768305     E(CORR)=     -197.82030957     Delta= 3.40D-05
 NORM(A)=   0.10789161D+01
 Iteration Nr.  12
 **********************
 DD1Dir will call FoFMem   1 times, MxPair=       290
 NAB=   100 NAA=    45 NBB=    45.
 A-vector RMS=  1.4258950D-05 Max=  2.0201950D-04 conv= 1.00D-05.
 RLE energy=       -1.0769184554
 DE(Corr)=  -1.0769149     E(CORR)=     -197.82039403     Delta=-8.45D-05
 NORM(A)=   0.10788808D+01
 Iteration Nr.  13
 **********************
 DD1Dir will call FoFMem   1 times, MxPair=       290
 NAB=   100 NAA=    45 NBB=    45.
 A-vector RMS=  7.2637438D-06 Max=  8.4050143D-05 conv= 1.00D-05.
 RLE energy=       -1.0768329960
 DE(Corr)=  -1.0767992     E(CORR)=     -197.82027825     Delta= 1.16D-04
 NORM(A)=   0.10788688D+01
 Iteration Nr.  14
 **********************
 DD1Dir will call FoFMem   1 times, MxPair=       290
 NAB=   100 NAA=    45 NBB=    45.
 A-vector RMS=  3.4857914D-06 Max=  3.6434923D-05 conv= 1.00D-05.
 RLE energy=       -1.0768472713
 DE(Corr)=  -1.0768592     E(CORR)=     -197.82033827     Delta=-6.00D-05
 NORM(A)=   0.10788601D+01
 Iteration Nr.  15
 **********************
 DD1Dir will call FoFMem   1 times, MxPair=       290
 NAB=   100 NAA=    45 NBB=    45.
 A-vector RMS=  2.1296077D-06 Max=  3.7672903D-05 conv= 1.00D-05.
 RLE energy=       -1.0768419836
 DE(Corr)=  -1.0768399     E(CORR)=     -197.82031895     Delta= 1.93D-05
 NORM(A)=   0.10788512D+01
 Iteration Nr.  16
 **********************
 DD1Dir will call FoFMem   1 times, MxPair=       290
 NAB=   100 NAA=    45 NBB=    45.
 A-vector RMS=  1.1158861D-06 Max=  2.1713876D-05 conv= 1.00D-05.
 RLE energy=       -1.0768415744
 DE(Corr)=  -1.0768423     E(CORR)=     -197.82032137     Delta=-2.43D-06
 NORM(A)=   0.10788442D+01
 Iteration Nr.  17
 **********************
 DD1Dir will call FoFMem   1 times, MxPair=       290
 NAB=   100 NAA=    45 NBB=    45.
 A-vector RMS=  8.4519259D-07 Max=  1.6911480D-05 conv= 1.00D-05.
 RLE energy=       -1.0768401419
 DE(Corr)=  -1.0768412     E(CORR)=     -197.82032033     Delta= 1.04D-06
 NORM(A)=   0.10788366D+01
 Iteration Nr.  18
 **********************
 DD1Dir will call FoFMem   1 times, MxPair=       290
 NAB=   100 NAA=    45 NBB=    45.
 A-vector RMS=  6.8758323D-07 Max=  1.2158218D-05 conv= 1.00D-05.
 RLE energy=       -1.0768415604
 DE(Corr)=  -1.0768411     E(CORR)=     -197.82032017     Delta= 1.68D-07
 NORM(A)=   0.10788289D+01
 Iteration Nr.  19
 **********************
 DD1Dir will call FoFMem   1 times, MxPair=       290
 NAB=   100 NAA=    45 NBB=    45.
 A-vector RMS=  4.2631510D-07 Max=  4.9988135D-06 conv= 1.00D-05.
 RLE energy=       -1.0768385368
 DE(Corr)=  -1.0768388     E(CORR)=     -197.82031792     Delta= 2.24D-06
 NORM(A)=   0.10788261D+01
 Iteration Nr.  20
 **********************
 DD1Dir will call FoFMem   1 times, MxPair=       290
 NAB=   100 NAA=    45 NBB=    45.
 A-vector RMS=  3.0891691D-07 Max=  4.1063692D-06 conv= 1.00D-05.
 RLE energy=       -1.0768407996
 DE(Corr)=  -1.0768415     E(CORR)=     -197.82032059     Delta=-2.66D-06
 NORM(A)=   0.10788240D+01
 Iteration Nr.  21
 **********************
 DD1Dir will call FoFMem   1 times, MxPair=       290
 NAB=   100 NAA=    45 NBB=    45.
 A-vector RMS=  1.9440647D-07 Max=  2.5925226D-06 conv= 1.00D-05.
 RLE energy=       -1.0768399464
 DE(Corr)=  -1.0768394     E(CORR)=     -197.82031851     Delta= 2.08D-06
 NORM(A)=   0.10788228D+01
 Iteration Nr.  22
 **********************
 DD1Dir will call FoFMem   1 times, MxPair=       290
 NAB=   100 NAA=    45 NBB=    45.
 A-vector RMS=  1.3891033D-07 Max=  1.7625850D-06 conv= 1.00D-05.
 RLE energy=       -1.0768399623
 DE(Corr)=  -1.0768401     E(CORR)=     -197.82031923     Delta=-7.23D-07
 NORM(A)=   0.10788223D+01
 Iteration Nr.  23
 **********************
 DD1Dir will call FoFMem   1 times, MxPair=       290
 NAB=   100 NAA=    45 NBB=    45.
 A-vector RMS=  9.1310156D-08 Max=  1.4788925D-06 conv= 1.00D-05.
 RLE energy=       -1.0768400622
 DE(Corr)=  -1.0768402     E(CORR)=     -197.82031925     Delta=-2.36D-08
 NORM(A)=   0.10788221D+01
 CI/CC converged in   23 iterations to DelEn=-2.36D-08 Conv= 1.00D-07 ErrA1= 9.13D-08 Conv= 1.00D-05
 Wavefunction amplitudes converged. E(Corr)=     -197.82031925    
 Largest amplitude= 6.43D-02
 Time for triples=   190670.85 seconds.
 T4(CCSD)= -0.49734021D-01
 T5(CCSD)=  0.79495730D-02
 CCSD(T)= -0.19786210370D+03
 Discarding MO integrals.
 Leave Link  913 at Wed Apr  4 22:38:57 2018, MaxMem= 10737418240 cpu:          242391.9 elap:            7610.9
 (Enter /home1/apps/gaussian/16rA.03/g16/l601.exe)
 Copying SCF densities to generalized density rwf, IOpCl= 0 IROHF=1.

 **********************************************************************

            Population analysis using the SCF density.

 **********************************************************************

 Orbital symmetries:
       Occupied  (SG) (SG) (PI) (PI) (SG) (PI) (PI) (DLTA) (DLTA)
                 (SG)
       Virtual   (SG) (PI) (PI) (SG) (SG) (SG) (PI) (PI) (PI) (PI)
                 (SG) (DLTA) (DLTA) (SG) (SG) (PI) (PI) (SG) (PI)
                 (PI) (SG) (SG) (DLTA) (DLTA) (PI) (PI) (SG) (SG)
                 (DLTA) (DLTA) (PI) (PI) (SG) (PHI) (PHI) (PI)
                 (PI) (DLTA) (DLTA) (PI) (PI) (SG) (SG) (PI) (PI)
                 (DLTA) (DLTA) (SG) (SG) (PI) (PI) (PHI) (PHI)
                 (SG) (PI) (PI) (SG) (DLTA) (DLTA) (SG) (DLTA)
                 (DLTA) (PI) (PI) (?A) (?A) (PHI) (PHI) (SG) (PI)
                 (PI) (DLTA) (DLTA) (PI) (PI) (PHI) (PHI) (SG)
                 (DLTA) (DLTA) (SG) (PI) (PI) (SG) (SG) (PI) (PI)
                 (DLTA) (DLTA) (?A) (?A) (PI) (PI) (SG) (DLTA)
                 (DLTA) (PHI) (PHI) (SG) (PI) (PI) (SG) (PHI) (PHI)
                 (SG) (DLTA) (DLTA) (PI) (PI) (SG) (?B) (?B) (PHI)
                 (PHI) (?A) (?A) (SG) (DLTA) (DLTA) (DLTA) (DLTA)
                 (PI) (PI) (PI) (PI) (PI) (PI) (SG) (?A) (?A) (DLTA)
                 (DLTA) (PHI) (PHI) (SG) (DLTA) (DLTA) (PI) (PI)
                 (PHI) (PHI) (SG) (PI) (PI) (DLTA) (DLTA) (PI)
                 (PI) (SG) (SG) (PI) (PI) (SG) (SG) (SG) (SG) (DLTA)
                 (DLTA) (PI) (PI) (DLTA) (DLTA) (PHI) (PHI) (PI)
                 (PI) (DLTA) (DLTA) (SG) (PHI) (PHI) (PI) (PI)
                 (?A) (?A) (PHI) (PHI) (?B) (?B) (?A) (?A) (SG)
                 (PHI) (PHI) (PI) (PI) (DLTA) (DLTA) (DLTA) (DLTA)
                 (?A) (?A) (SG) (PHI) (PHI) (PI) (PI) (PI) (PI)
                 (DLTA) (DLTA) (DLTA) (DLTA) (SG) (PI) (PI) (SG)
                 (?B) (?B) (SG) (SG) (?A) (?A) (SG) (PHI) (PHI)
                 (PI) (PI) (SG) (PI) (PI) (DLTA) (DLTA) (SG) (PI)
                 (PI) (SG) (SG) (DLTA) (DLTA) (PI) (PI) (SG) (PHI)
                 (PHI) (DLTA) (DLTA) (PI) (PI) (SG) (PI) (PI) (?A)
                 (?A) (?B) (?B) (PHI) (PHI) (?A) (?A) (PHI) (PHI)
                 (DLTA) (DLTA) (DLTA) (DLTA) (SG) (PI) (PI) (PI)
                 (PI) (SG) (SG) (SG) (?B) (?B) (SG) (SG) (?A) (?A)
                 (PHI) (PHI) (DLTA) (DLTA) (PI) (PI) (SG) (DLTA)
                 (DLTA) (PI) (PI) (SG) (SG) (PI) (PI) (SG) (?A)
                 (?A) (PHI) (PHI) (DLTA) (DLTA) (PI) (PI) (SG)
                 (?B) (?B) (?A) (?A) (PHI) (PHI) (DLTA) (DLTA)
                 (PI) (PI) (SG) (PHI) (PHI) (DLTA) (DLTA) (PI)
                 (PI) (SG) (DLTA) (DLTA) (PI) (PI) (SG) (SG) (SG)
                 (?B) (?B) (?A) (?A) (PHI) (PHI) (DLTA) (DLTA)
                 (PI) (PI) (SG) (SG) (PI) (PI) (SG) (DLTA) (DLTA)
                 (PI) (PI) (SG) (SG) (SG) (DLTA) (DLTA) (PI) (PI)
                 (SG) (PI) (PI) (SG) (SG) (PI) (PI) (SG) (DLTA)
                 (DLTA) (PI) (PI) (SG) (SG) (PI) (PI) (SG) (SG)
                 (SG) (DLTA) (DLTA) (PI) (PI) (SG) (PI) (PI) (SG)
                 (SG) (PI) (PI) (SG) (DLTA) (DLTA) (PI) (PI) (SG)
                 (SG) (SG) (PI) (PI) (SG) (SG) (PI) (PI) (SG) (SG)
                 (PI) (PI) (SG) (SG) (PI) (PI) (SG) (SG) (SG) (PI)
                 (PI) (SG) (SG) (SG) (SG) (SG) (SG) (SG)
 The electronic state is 1-SG.
 Alpha  occ. eigenvalues --   -4.96501  -3.38080  -3.36624  -3.36624  -0.55741
 Alpha  occ. eigenvalues --   -0.52442  -0.52442  -0.51181  -0.51181  -0.33448
 Alpha virt. eigenvalues --    0.00489   0.02584   0.02584   0.02751   0.04669
 Alpha virt. eigenvalues --    0.07890   0.08552   0.08552   0.11930   0.11930
 Alpha virt. eigenvalues --    0.12003   0.12601   0.12601   0.15096   0.18762
 Alpha virt. eigenvalues --    0.23340   0.23340   0.25402   0.28333   0.28333
 Alpha virt. eigenvalues --    0.35978   0.36876   0.39222   0.39222   0.39431
 Alpha virt. eigenvalues --    0.39431   0.45804   0.57621   0.59321   0.59321
 Alpha virt. eigenvalues --    0.63244   0.63244   0.63447   0.69157   0.69157
 Alpha virt. eigenvalues --    0.71783   0.71783   0.78482   0.78482   0.78579
 Alpha virt. eigenvalues --    0.78579   0.85326   0.91116   0.98229   0.98229
 Alpha virt. eigenvalues --    1.02952   1.02952   1.07367   1.11940   1.29672
 Alpha virt. eigenvalues --    1.29672   1.30143   1.30143   1.30783   1.47903
 Alpha virt. eigenvalues --    1.47903   1.47932   1.49218   1.49218   1.81360
 Alpha virt. eigenvalues --    1.85374   1.85374   1.94979   1.94979   2.08354
 Alpha virt. eigenvalues --    2.08354   2.09054   2.09054   2.10312   2.18293
 Alpha virt. eigenvalues --    2.18293   2.19974   2.19974   2.25832   2.25832
 Alpha virt. eigenvalues --    2.30802   2.30802   2.34901   2.45230   2.45230
 Alpha virt. eigenvalues --    2.46542   2.55089   2.55089   2.63596   2.84132
 Alpha virt. eigenvalues --    2.88810   2.88810   2.91991   2.91991   3.06348
 Alpha virt. eigenvalues --    3.06348   3.30753   3.30753   3.47301   3.49298
 Alpha virt. eigenvalues --    3.49298   3.49759   3.49759   3.65995   3.87356
 Alpha virt. eigenvalues --    3.87356   3.88922   4.24321   4.24321   4.58870
 Alpha virt. eigenvalues --    4.75756   4.75756   4.85089   4.85089   5.14965
 Alpha virt. eigenvalues --    5.21723   5.21723   5.38122   5.38122   5.38144
 Alpha virt. eigenvalues --    5.38144   5.39572   5.44427   5.44427   5.50767
 Alpha virt. eigenvalues --    5.50767   5.51234   5.51234   5.60670   5.60670
 Alpha virt. eigenvalues --    5.77143   5.77143   5.78129   5.82090   5.82090
 Alpha virt. eigenvalues --    5.82206   5.82206   5.90488   5.90488   5.90727
 Alpha virt. eigenvalues --    6.05247   6.05247   6.05545   6.05545   6.12130
 Alpha virt. eigenvalues --    6.12130   6.58745   6.72049   6.72049   7.35772
 Alpha virt. eigenvalues --    7.35772   7.39329   7.39329   7.42923   8.10695
 Alpha virt. eigenvalues --    8.41836   8.41836   9.05640   9.87498  11.16342
 Alpha virt. eigenvalues --   11.62025  11.69883  11.69883  11.80952  11.80952
 Alpha virt. eigenvalues --   12.27752  12.27752  12.29190  12.29190  12.44490
 Alpha virt. eigenvalues --   12.44490  12.64539  12.64539  12.77422  12.88261
 Alpha virt. eigenvalues --   12.88261  12.93974  12.93974  13.18307  13.18307
 Alpha virt. eigenvalues --   13.20394  13.20394  13.31917  13.31917  13.39192
 Alpha virt. eigenvalues --   13.39192  13.63930  13.74766  13.74766  13.88443
 Alpha virt. eigenvalues --   13.88443  13.88765  13.88765  14.12374  14.12374
 Alpha virt. eigenvalues --   14.13613  14.13613  14.19697  14.24119  14.24119
 Alpha virt. eigenvalues --   14.37189  14.37189  14.53404  14.53404  14.60184
 Alpha virt. eigenvalues --   14.60184  14.71178  14.71178  14.92209  15.23607
 Alpha virt. eigenvalues --   15.23607  15.52763  15.87175  15.87175  15.87726
 Alpha virt. eigenvalues --   15.87726  15.88880  15.88880  15.92064  16.28645
 Alpha virt. eigenvalues --   16.28645  16.67970  16.67970  17.37615  17.68011
 Alpha virt. eigenvalues --   17.68011  17.85537  17.85537  19.69931  19.75726
 Alpha virt. eigenvalues --   19.75726  21.02512  21.51593  23.27829  23.27829
 Alpha virt. eigenvalues --   23.48347  23.48347  24.05015  27.63392  27.63392
 Alpha virt. eigenvalues --   27.78726  27.78726  28.86893  28.86893  29.63919
 Alpha virt. eigenvalues --   30.17109  30.17109  30.47986  30.47986  30.52080
 Alpha virt. eigenvalues --   30.52080  30.53253  30.53253  30.55836  30.55836
 Alpha virt. eigenvalues --   30.70608  30.70608  30.77572  30.77572  30.88801
 Alpha virt. eigenvalues --   30.88801  30.93624  31.27326  31.27326  31.42718
 Alpha virt. eigenvalues --   31.42718  31.56625  32.78065  35.87914  36.71868
 Alpha virt. eigenvalues --   36.71868  36.72082  36.72082  36.72247  36.72247
 Alpha virt. eigenvalues --   36.82031  36.82031  37.27416  37.27416  37.78535
 Alpha virt. eigenvalues --   37.78535  38.11303  42.65588  42.65588  42.86216
 Alpha virt. eigenvalues --   42.86216  42.97351  43.88799  61.06120  61.06120
 Alpha virt. eigenvalues --   62.20556  63.85910  63.85910  63.90006  63.90006
 Alpha virt. eigenvalues --   64.11432  64.11432  64.40378  64.40378  64.96168
 Alpha virt. eigenvalues --   65.31332  65.31332  65.33947  65.33947  65.43266
 Alpha virt. eigenvalues --   65.43266  65.50519  65.50519  65.66558  65.66558
 Alpha virt. eigenvalues --   65.72638  68.20663  68.20663  68.32355  68.32355
 Alpha virt. eigenvalues --   69.19664  69.19664  70.34117  73.42942  73.42942
 Alpha virt. eigenvalues --   73.63657  73.63657  73.88681  77.41292  77.41292
 Alpha virt. eigenvalues --   77.41473  77.41473  77.41729  77.41729  77.46638
 Alpha virt. eigenvalues --   77.46638  77.70718  77.70718  77.99064  77.99064
 Alpha virt. eigenvalues --   78.03777  82.16594 118.68902 118.68902 119.87584
 Alpha virt. eigenvalues --  122.20483 122.20483 122.39138 122.39138 122.63257
 Alpha virt. eigenvalues --  140.63019 149.49372 214.79017 214.79017 214.95249
 Alpha virt. eigenvalues --  214.95249 215.12657 225.65703 225.65703 226.81178
 Alpha virt. eigenvalues --  271.46533 425.55541 425.55541 426.63517 437.89259
 Alpha virt. eigenvalues --  437.89259 438.03335 438.03335 438.19262 494.14840
 Alpha virt. eigenvalues --  807.17579 807.17579 808.19771 818.06913 907.72230
 Alpha virt. eigenvalues -- 1058.285851058.285851058.395381058.395381058.51950
 Alpha virt. eigenvalues -- 1559.688351559.688351560.650401694.872303106.73006
 Alpha virt. eigenvalues -- 3106.730063107.619643214.255623214.255623214.32985
 Alpha virt. eigenvalues -- 3214.329853214.408533232.019946311.265496465.34985
 Alpha virt. eigenvalues -- 6465.349856466.16204******************************
 Alpha virt. eigenvalues -- **************************************************
 Alpha virt. eigenvalues -- **************************************************
 Alpha virt. eigenvalues -- **************************************************
 Alpha virt. eigenvalues -- **************************************************
     Molecular Orbital Coefficients:
                           6         7         8         9        10
                           O         O         O         O         O
     Eigenvalues --    -0.52442  -0.52442  -0.51181  -0.51181  -0.33448
   1 1   Cu 1S          0.00000   0.00000  -0.00000   0.00000   0.00000
   2        2S          0.00000   0.00000   0.00000   0.00000  -0.00000
   3        3S          0.00000   0.00000  -0.00000   0.00000   0.00000
   4        4S          0.00000   0.00000   0.00000   0.00000  -0.00000
   5        5S          0.00000   0.00000  -0.00000   0.00000   0.00000
   6        6S          0.00000   0.00000  -0.00000   0.00000  -0.00000
   7        7S          0.00000   0.00000   0.00000   0.00000   0.00000
   8        8S          0.00000   0.00000  -0.00000   0.00000  -0.00000
   9        9S          0.00000   0.00000   0.00000   0.00000   0.00000
  10       10S          0.00000   0.00000  -0.00000   0.00000  -0.00001
  11       11S          0.00000   0.00000   0.00000   0.00000   0.00002
  12       12S          0.00000   0.00000  -0.00000   0.00000  -0.00004
  13       13S          0.00000   0.00000   0.00000   0.00000   0.00011
  14       14S          0.00000   0.00000  -0.00000   0.00000  -0.00027
  15       15S          0.00000   0.00000   0.00000   0.00000   0.00065
  16       16S          0.00000   0.00000  -0.00000   0.00000  -0.00157
  17       17S          0.00000   0.00000   0.00000   0.00000   0.00395
  18       18S          0.00000   0.00000  -0.00000   0.00000  -0.01012
  19       19S          0.00000   0.00000   0.00000   0.00000   0.00610
  20       20S          0.00000   0.00000  -0.00000   0.00000   0.03261
  21       21S          0.00000   0.00000   0.00000   0.00000  -0.00161
  22       22S          0.00000   0.00000  -0.00000   0.00000  -0.05799
  23       23S          0.00000   0.00000  -0.00000   0.00000  -0.16796
  24       24S          0.00000   0.00000   0.00000   0.00000  -0.10737
  25       25S          0.00000   0.00000   0.00000   0.00000   0.05571
  26       26S          0.00000   0.00000  -0.00000   0.00000   0.23397
  27       27S          0.00000   0.00000   0.00000   0.00000   0.22904
  28       28S          0.00000   0.00000  -0.00000   0.00000   0.04434
  29       29S          0.00000   0.00000  -0.00000   0.00000   0.03259
  30       30S          0.00000   0.00000  -0.00000   0.00000  -0.04031
  31       31S          0.00000   0.00000  -0.00000   0.00000  -0.00348
  32       32PX         0.00000   0.00000   0.00000   0.00000   0.00000
  33       32PY         0.00000   0.00000   0.00000   0.00000   0.00000
  34       32PZ         0.00000   0.00000   0.00000   0.00000  -0.00000
  35       33PX        -0.00000   0.00000   0.00000   0.00000   0.00000
  36       33PY         0.00000  -0.00000   0.00000   0.00000   0.00000
  37       33PZ         0.00000   0.00000  -0.00000   0.00000   0.00000
  38       34PX         0.00000   0.00000   0.00000   0.00000   0.00000
  39       34PY         0.00000   0.00000   0.00000   0.00000   0.00000
  40       34PZ         0.00000   0.00000   0.00000   0.00000  -0.00000
  41       35PX        -0.00000   0.00000   0.00000   0.00000   0.00000
  42       35PY         0.00000  -0.00000   0.00000   0.00000   0.00000
  43       35PZ         0.00000   0.00000  -0.00000   0.00000   0.00000
  44       36PX         0.00000   0.00000   0.00000   0.00000   0.00000
  45       36PY         0.00000   0.00000   0.00000   0.00000   0.00000
  46       36PZ         0.00000   0.00000   0.00000   0.00000  -0.00000
  47       37PX        -0.00000   0.00000   0.00000   0.00000   0.00000
  48       37PY         0.00000  -0.00000   0.00000   0.00000   0.00000
  49       37PZ         0.00000   0.00000  -0.00000   0.00000   0.00000
  50       38PX         0.00000   0.00000   0.00000   0.00000   0.00000
  51       38PY         0.00000   0.00000   0.00000   0.00000   0.00000
  52       38PZ         0.00000   0.00000   0.00000   0.00000  -0.00001
  53       39PX        -0.00001   0.00000   0.00000   0.00000   0.00000
  54       39PY         0.00000  -0.00001   0.00000   0.00000   0.00000
  55       39PZ         0.00000   0.00000  -0.00000   0.00000   0.00002
  56       40PX         0.00002   0.00000   0.00000   0.00000   0.00000
  57       40PY         0.00000   0.00002   0.00000   0.00000   0.00000
  58       40PZ         0.00000   0.00000   0.00000   0.00000  -0.00004
  59       41PX        -0.00005   0.00000   0.00000   0.00000   0.00000
  60       41PY         0.00000  -0.00005   0.00000   0.00000   0.00000
  61       41PZ         0.00000   0.00000  -0.00000   0.00000   0.00011
  62       42PX         0.00011   0.00000   0.00000   0.00000   0.00000
  63       42PY         0.00000   0.00011   0.00000   0.00000   0.00000
  64       42PZ         0.00000   0.00000   0.00000   0.00000  -0.00009
  65       43PX         0.00005   0.00000   0.00000   0.00000   0.00000
  66       43PY         0.00000   0.00005   0.00000   0.00000   0.00000
  67       43PZ         0.00000   0.00000  -0.00000   0.00000  -0.00180
  68       44PX        -0.00019   0.00000   0.00000   0.00000   0.00000
  69       44PY         0.00000  -0.00019   0.00000   0.00000   0.00000
  70       44PZ         0.00000   0.00000   0.00000   0.00000   0.00653
  71       45PX        -0.00132   0.00000   0.00000   0.00000   0.00000
  72       45PY         0.00000  -0.00132   0.00000   0.00000   0.00000
  73       45PZ         0.00000   0.00000  -0.00000   0.00000   0.01518
  74       46PX        -0.00272   0.00000   0.00000   0.00000   0.00000
  75       46PY         0.00000  -0.00272   0.00000   0.00000   0.00000
  76       46PZ         0.00000   0.00000   0.00000   0.00000   0.04101
  77       47PX        -0.00362   0.00000   0.00000   0.00000   0.00000
  78       47PY         0.00000  -0.00362   0.00000   0.00000   0.00000
  79       47PZ         0.00000   0.00000  -0.00000   0.00000   0.03243
  80       48PX         0.00491   0.00000   0.00000   0.00000   0.00000
  81       48PY         0.00000   0.00491   0.00000   0.00000   0.00000
  82       48PZ         0.00000   0.00000   0.00000   0.00000   0.00059
  83       49PX         0.00966   0.00000   0.00000   0.00000   0.00000
  84       49PY         0.00000   0.00966   0.00000   0.00000   0.00000
  85       49PZ         0.00000   0.00000   0.00000   0.00000  -0.03020
  86       50PX         0.00062   0.00000   0.00000   0.00000   0.00000
  87       50PY         0.00000   0.00062   0.00000   0.00000   0.00000
  88       50PZ         0.00000   0.00000   0.00000   0.00000  -0.04405
  89       51PX        -0.00063   0.00000   0.00000   0.00000   0.00000
  90       51PY         0.00000  -0.00063   0.00000   0.00000   0.00000
  91       51PZ         0.00000   0.00000   0.00000   0.00000  -0.00988
  92       52PX         0.00005   0.00000   0.00000   0.00000   0.00000
  93       52PY         0.00000   0.00005   0.00000   0.00000   0.00000
  94       52PZ         0.00000   0.00000  -0.00000   0.00000  -0.00183
  95       53PX        -0.00162   0.00000   0.00000   0.00000   0.00000
  96       53PY         0.00000  -0.00162   0.00000   0.00000   0.00000
  97       53PZ         0.00000   0.00000  -0.00000   0.00000   0.01260
  98       54PX         0.00010   0.00000   0.00000   0.00000   0.00000
  99       54PY         0.00000   0.00010   0.00000   0.00000   0.00000
 100       54PZ         0.00000   0.00000   0.00000   0.00000   0.00086
 101       55D 0        0.00000   0.00000   0.00000   0.00000   0.00000
 102       55D+1       -0.00000   0.00000   0.00000   0.00000   0.00000
 103       55D-1        0.00000  -0.00000   0.00000   0.00000   0.00000
 104       55D+2        0.00000   0.00000  -0.00000   0.00000  -0.00000
 105       55D-2        0.00000   0.00000   0.00000  -0.00000   0.00000
 106       56D 0        0.00000   0.00000  -0.00000   0.00000  -0.00000
 107       56D+1        0.00000   0.00000   0.00000   0.00000   0.00000
 108       56D-1        0.00000   0.00000   0.00000   0.00000   0.00000
 109       56D+2        0.00000   0.00000   0.00000   0.00000   0.00000
 110       56D-2        0.00000   0.00000   0.00000   0.00000   0.00000
 111       57D 0        0.00000   0.00000   0.00000   0.00000   0.00001
 112       57D+1       -0.00003   0.00000   0.00000   0.00000   0.00000
 113       57D-1        0.00000  -0.00003   0.00000   0.00000   0.00000
 114       57D+2        0.00000   0.00000  -0.00003   0.00000  -0.00000
 115       57D-2        0.00000   0.00000   0.00000  -0.00003   0.00000
 116       58D 0        0.00000   0.00000  -0.00000   0.00000  -0.00050
 117       58D+1        0.00105   0.00000   0.00000   0.00000   0.00000
 118       58D-1        0.00000   0.00105   0.00000   0.00000   0.00000
 119       58D+2        0.00000   0.00000   0.00105   0.00000   0.00000
 120       58D-2        0.00000   0.00000   0.00000   0.00105   0.00000
 121       59D 0        0.00000   0.00000  -0.00000   0.00000  -0.02004
 122       59D+1        0.04333   0.00000   0.00000   0.00000   0.00000
 123       59D-1        0.00000   0.04333   0.00000   0.00000   0.00000
 124       59D+2        0.00000   0.00000   0.04363   0.00000  -0.00000
 125       59D-2        0.00000   0.00000   0.00000   0.04363   0.00000
 126       60D 0        0.00000   0.00000  -0.00000   0.00000  -0.05085
 127       60D+1        0.11213   0.00000   0.00000   0.00000   0.00000
 128       60D-1        0.00000   0.11213   0.00000   0.00000   0.00000
 129       60D+2        0.00000   0.00000   0.11314   0.00000  -0.00000
 130       60D-2        0.00000   0.00000   0.00000   0.11314   0.00000
 131       61D 0        0.00000   0.00000  -0.00000   0.00000  -0.10714
 132       61D+1        0.23184   0.00000   0.00000   0.00000   0.00000
 133       61D-1        0.00000   0.23184   0.00000   0.00000   0.00000
 134       61D+2        0.00000   0.00000   0.23330   0.00000  -0.00000
 135       61D-2        0.00000   0.00000   0.00000   0.23330   0.00000
 136       62D 0        0.00000   0.00000  -0.00000   0.00000  -0.13092
 137       62D+1        0.28076   0.00000   0.00000   0.00000   0.00000
 138       62D-1        0.00000   0.28076   0.00000   0.00000   0.00000
 139       62D+2        0.00000   0.00000   0.28230   0.00000   0.00000
 140       62D-2        0.00000   0.00000   0.00000   0.28230   0.00000
 141       63D 0        0.00000   0.00000  -0.00000   0.00000  -0.12097
 142       63D+1        0.26165   0.00000   0.00000   0.00000   0.00000
 143       63D-1        0.00000   0.26165   0.00000   0.00000   0.00000
 144       63D+2        0.00000   0.00000   0.26223   0.00000  -0.00000
 145       63D-2        0.00000   0.00000   0.00000   0.26223   0.00000
 146       64D 0        0.00000   0.00000  -0.00000   0.00000  -0.09764
 147       64D+1        0.20055   0.00000   0.00000   0.00000   0.00000
 148       64D-1        0.00000   0.20055   0.00000   0.00000   0.00000
 149       64D+2        0.00000   0.00000   0.20096   0.00000   0.00000
 150       64D-2        0.00000   0.00000   0.00000   0.20096   0.00000
 151       65D 0        0.00000   0.00000  -0.00000   0.00000  -0.06421
 152       65D+1        0.11287   0.00000   0.00000   0.00000   0.00000
 153       65D-1        0.00000   0.11287   0.00000   0.00000   0.00000
 154       65D+2        0.00000   0.00000   0.11296   0.00000  -0.00000
 155       65D-2        0.00000   0.00000   0.00000   0.11296   0.00000
 156       66D 0        0.00000   0.00000  -0.00000   0.00000  -0.02337
 157       66D+1        0.02974   0.00000   0.00000   0.00000   0.00000
 158       66D-1        0.00000   0.02974   0.00000   0.00000   0.00000
 159       66D+2        0.00000   0.00000   0.02945   0.00000  -0.00000
 160       66D-2        0.00000   0.00000   0.00000   0.02945   0.00000
 161       67D 0        0.00000   0.00000  -0.00000   0.00000  -0.02780
 162       67D+1        0.05855   0.00000   0.00000   0.00000   0.00000
 163       67D-1        0.00000   0.05855   0.00000   0.00000   0.00000
 164       67D+2        0.00000   0.00000   0.05873   0.00000   0.00000
 165       67D-2        0.00000   0.00000   0.00000   0.05873   0.00000
 166       68D 0        0.00000   0.00000  -0.00000   0.00000  -0.01466
 167       68D+1        0.02962   0.00000   0.00000   0.00000   0.00000
 168       68D-1        0.00000   0.02962   0.00000   0.00000   0.00000
 169       68D+2        0.00000   0.00000   0.02955   0.00000   0.00000
 170       68D-2        0.00000   0.00000   0.00000   0.02955   0.00000
 171       69D 0        0.00000   0.00000  -0.00000   0.00000  -0.00206
 172       69D+1        0.00062   0.00000   0.00000   0.00000   0.00000
 173       69D-1        0.00000   0.00062   0.00000   0.00000   0.00000
 174       69D+2        0.00000   0.00000   0.00026   0.00000  -0.00000
 175       69D-2        0.00000   0.00000   0.00000   0.00026   0.00000
 176       70F 0        0.00000   0.00000   0.00000   0.00000  -0.00006
 177       70F+1        0.00004   0.00000   0.00000   0.00000   0.00000
 178       70F-1        0.00000   0.00004   0.00000   0.00000   0.00000
 179       70F+2        0.00000   0.00000   0.00003   0.00000   0.00000
 180       70F-2        0.00000   0.00000   0.00000   0.00003   0.00000
 181       70F+3       -0.00000   0.00000   0.00000   0.00000   0.00000
 182       70F-3        0.00000   0.00000   0.00000   0.00000   0.00000
 183       71F 0        0.00000   0.00000  -0.00000   0.00000  -0.00039
 184       71F+1        0.00019   0.00000   0.00000   0.00000   0.00000
 185       71F-1        0.00000   0.00019   0.00000   0.00000   0.00000
 186       71F+2        0.00000   0.00000   0.00022   0.00000  -0.00000
 187       71F-2        0.00000   0.00000   0.00000   0.00022   0.00000
 188       71F+3       -0.00000   0.00000   0.00000   0.00000   0.00000
 189       71F-3        0.00000   0.00000   0.00000   0.00000   0.00000
 190       72F 0        0.00000   0.00000   0.00000   0.00000  -0.00064
 191       72F+1        0.00040   0.00000   0.00000   0.00000   0.00000
 192       72F-1        0.00000   0.00040   0.00000   0.00000   0.00000
 193       72F+2        0.00000   0.00000   0.00032   0.00000   0.00000
 194       72F-2        0.00000   0.00000   0.00000   0.00032   0.00000
 195       72F+3       -0.00000   0.00000   0.00000   0.00000   0.00000
 196       72F-3        0.00000   0.00000   0.00000   0.00000   0.00000
 197       73F 0        0.00000   0.00000  -0.00000   0.00000  -0.00288
 198       73F+1        0.00127   0.00000   0.00000   0.00000   0.00000
 199       73F-1        0.00000   0.00127   0.00000   0.00000   0.00000
 200       73F+2        0.00000   0.00000   0.00162   0.00000   0.00000
 201       73F-2        0.00000   0.00000   0.00000   0.00162   0.00000
 202       73F+3       -0.00000   0.00000   0.00000   0.00000   0.00000
 203       73F-3        0.00000   0.00000   0.00000   0.00000   0.00000
 204       74F 0        0.00000   0.00000   0.00000   0.00000  -0.00455
 205       74F+1        0.00480   0.00000   0.00000   0.00000   0.00000
 206       74F-1        0.00000   0.00480   0.00000   0.00000   0.00000
 207       74F+2        0.00000   0.00000   0.00498   0.00000   0.00000
 208       74F-2        0.00000   0.00000   0.00000   0.00498   0.00000
 209       74F+3       -0.00000   0.00000   0.00000   0.00000   0.00000
 210       74F-3        0.00000   0.00000   0.00000   0.00000   0.00000
 211       75F 0        0.00000   0.00000   0.00000   0.00000  -0.00437
 212       75F+1        0.00363   0.00000   0.00000   0.00000   0.00000
 213       75F-1        0.00000   0.00363   0.00000   0.00000   0.00000
 214       75F+2        0.00000   0.00000   0.00380   0.00000   0.00000
 215       75F-2        0.00000   0.00000   0.00000   0.00380   0.00000
 216       75F+3       -0.00000   0.00000   0.00000   0.00000   0.00000
 217       75F-3        0.00000   0.00000   0.00000   0.00000   0.00000
 218       76G 0        0.00000   0.00000   0.00000   0.00000   0.00001
 219       76G+1        0.00003   0.00000   0.00000   0.00000   0.00000
 220       76G-1        0.00000   0.00003   0.00000   0.00000   0.00000
 221       76G+2        0.00000   0.00000   0.00003   0.00000  -0.00000
 222       76G-2        0.00000   0.00000   0.00000   0.00003   0.00000
 223       76G+3        0.00000   0.00000   0.00000   0.00000   0.00000
 224       76G-3        0.00000   0.00000   0.00000   0.00000   0.00000
 225       76G+4        0.00000   0.00000  -0.00000   0.00000   0.00000
 226       76G-4        0.00000   0.00000   0.00000   0.00000   0.00000
 227       77G 0        0.00000   0.00000  -0.00000   0.00000  -0.00003
 228       77G+1        0.00001   0.00000   0.00000   0.00000   0.00000
 229       77G-1        0.00000   0.00001   0.00000   0.00000   0.00000
 230       77G+2        0.00000   0.00000   0.00003   0.00000   0.00000
 231       77G-2        0.00000   0.00000   0.00000   0.00003   0.00000
 232       77G+3        0.00000   0.00000   0.00000   0.00000   0.00000
 233       77G-3        0.00000   0.00000   0.00000   0.00000   0.00000
 234       77G+4        0.00000   0.00000   0.00000   0.00000  -0.00000
 235       77G-4        0.00000   0.00000   0.00000   0.00000   0.00000
 236       78G 0        0.00000   0.00000   0.00000   0.00000  -0.00000
 237       78G+1        0.00039   0.00000   0.00000   0.00000   0.00000
 238       78G-1        0.00000   0.00039   0.00000   0.00000   0.00000
 239       78G+2        0.00000   0.00000   0.00026   0.00000  -0.00000
 240       78G-2        0.00000   0.00000   0.00000   0.00026   0.00000
 241       78G+3       -0.00000   0.00000   0.00000   0.00000   0.00000
 242       78G-3        0.00000   0.00000   0.00000   0.00000   0.00000
 243       78G+4        0.00000   0.00000  -0.00000   0.00000   0.00000
 244       78G-4        0.00000   0.00000   0.00000   0.00000   0.00000
 245       79G 0        0.00000   0.00000  -0.00000   0.00000  -0.00038
 246       79G+1        0.00131   0.00000   0.00000   0.00000   0.00000
 247       79G-1        0.00000   0.00131   0.00000   0.00000   0.00000
 248       79G+2        0.00000   0.00000   0.00073   0.00000   0.00000
 249       79G-2        0.00000   0.00000   0.00000   0.00073   0.00000
 250       79G+3       -0.00000   0.00000   0.00000   0.00000   0.00000
 251       79G-3        0.00000  -0.00000   0.00000   0.00000   0.00000
 252       79G+4        0.00000   0.00000  -0.00000   0.00000   0.00000
 253       79G-4        0.00000   0.00000   0.00000  -0.00000   0.00000
 254       80G 0        0.00000   0.00000  -0.00000   0.00000  -0.00059
 255       80G+1        0.00086   0.00000   0.00000   0.00000   0.00000
 256       80G-1        0.00000   0.00086   0.00000   0.00000   0.00000
 257       80G+2        0.00000   0.00000   0.00046   0.00000  -0.00000
 258       80G-2        0.00000   0.00000   0.00000   0.00046   0.00000
 259       80G+3       -0.00000   0.00000   0.00000   0.00000   0.00000
 260       80G-3        0.00000  -0.00000   0.00000   0.00000   0.00000
 261       80G+4        0.00000   0.00000   0.00000   0.00000  -0.00000
 262       80G-4        0.00000   0.00000   0.00000  -0.00000   0.00000
 263       81H 0        0.00000   0.00000  -0.00000   0.00000   0.00002
 264       81H+1       -0.00003   0.00000   0.00000   0.00000   0.00000
 265       81H-1        0.00000  -0.00003   0.00000   0.00000   0.00000
 266       81H+2        0.00000   0.00000  -0.00002   0.00000  -0.00000
 267       81H-2        0.00000   0.00000   0.00000  -0.00002   0.00000
 268       81H+3       -0.00000   0.00000   0.00000   0.00000   0.00000
 269       81H-3        0.00000  -0.00000   0.00000   0.00000   0.00000
 270       81H+4        0.00000   0.00000   0.00000   0.00000   0.00000
 271       81H-4        0.00000   0.00000   0.00000  -0.00000   0.00000
 272       81H+5        0.00000   0.00000   0.00000   0.00000   0.00000
 273       81H-5        0.00000  -0.00000   0.00000   0.00000   0.00000
 274       82H 0        0.00000   0.00000   0.00000   0.00000  -0.00001
 275       82H+1       -0.00000   0.00000   0.00000   0.00000   0.00000
 276       82H-1        0.00000  -0.00000   0.00000   0.00000   0.00000
 277       82H+2        0.00000   0.00000  -0.00001   0.00000   0.00000
 278       82H-2        0.00000   0.00000   0.00000  -0.00001   0.00000
 279       82H+3       -0.00000   0.00000   0.00000   0.00000   0.00000
 280       82H-3        0.00000   0.00000   0.00000   0.00000   0.00000
 281       82H+4        0.00000   0.00000  -0.00000   0.00000   0.00000
 282       82H-4        0.00000   0.00000   0.00000  -0.00000   0.00000
 283       82H+5       -0.00000   0.00000   0.00000   0.00000   0.00000
 284       82H-5        0.00000  -0.00000   0.00000   0.00000   0.00000
 285       83H 0        0.00000   0.00000  -0.00000   0.00000   0.00006
 286       83H+1       -0.00018   0.00000   0.00000   0.00000   0.00000
 287       83H-1        0.00000  -0.00018   0.00000   0.00000   0.00000
 288       83H+2        0.00000   0.00000  -0.00007   0.00000  -0.00000
 289       83H-2        0.00000   0.00000   0.00000  -0.00007   0.00000
 290       83H+3        0.00000   0.00000   0.00000   0.00000   0.00000
 291       83H-3        0.00000  -0.00000   0.00000   0.00000   0.00000
 292       83H+4        0.00000   0.00000  -0.00000   0.00000   0.00000
 293       83H-4        0.00000   0.00000   0.00000  -0.00000   0.00000
 294       83H+5        0.00000   0.00000   0.00000   0.00000   0.00000
 295       83H-5        0.00000   0.00000   0.00000   0.00000   0.00000
 296       84H 0        0.00000   0.00000   0.00000   0.00000   0.00010
 297       84H+1       -0.00016   0.00000   0.00000   0.00000   0.00000
 298       84H-1        0.00000  -0.00016   0.00000   0.00000   0.00000
 299       84H+2        0.00000   0.00000  -0.00006   0.00000   0.00000
 300       84H-2        0.00000   0.00000   0.00000  -0.00006   0.00000
 301       84H+3       -0.00000   0.00000   0.00000   0.00000   0.00000
 302       84H-3        0.00000   0.00000   0.00000   0.00000   0.00000
 303       84H+4        0.00000   0.00000   0.00000   0.00000  -0.00000
 304       84H-4        0.00000   0.00000   0.00000  -0.00000   0.00000
 305       84H+5       -0.00000   0.00000   0.00000   0.00000   0.00000
 306       84H-5        0.00000  -0.00000   0.00000   0.00000   0.00000
 307       85I 0        0.00000   0.00000  -0.00000   0.00000  -0.00002
 308       85I+1        0.00003   0.00000   0.00000   0.00000   0.00000
 309       85I-1        0.00000   0.00003   0.00000   0.00000   0.00000
 310       85I+2        0.00000   0.00000   0.00002   0.00000  -0.00000
 311       85I-2        0.00000   0.00000   0.00000   0.00002   0.00000
 312       85I+3       -0.00000   0.00000   0.00000   0.00000   0.00000
 313       85I-3        0.00000  -0.00000   0.00000   0.00000   0.00000
 314       85I+4        0.00000   0.00000  -0.00000   0.00000  -0.00000
 315       85I-4        0.00000   0.00000   0.00000  -0.00000   0.00000
 316       85I+5       -0.00000   0.00000   0.00000   0.00000   0.00000
 317       85I-5        0.00000  -0.00000   0.00000   0.00000   0.00000
 318       85I+6        0.00000   0.00000  -0.00000   0.00000  -0.00000
 319       85I-6        0.00000   0.00000   0.00000  -0.00000   0.00000
 320       86I 0        0.00000   0.00000   0.00000   0.00000   0.00002
 321       86I+1       -0.00001   0.00000   0.00000   0.00000   0.00000
 322       86I-1        0.00000  -0.00001   0.00000   0.00000   0.00000
 323       86I+2        0.00000   0.00000  -0.00001   0.00000   0.00000
 324       86I-2        0.00000   0.00000   0.00000  -0.00001   0.00000
 325       86I+3       -0.00000   0.00000   0.00000   0.00000   0.00000
 326       86I-3        0.00000   0.00000   0.00000   0.00000   0.00000
 327       86I+4        0.00000   0.00000   0.00000   0.00000   0.00000
 328       86I-4        0.00000   0.00000   0.00000   0.00000   0.00000
 329       86I+5       -0.00000   0.00000   0.00000   0.00000   0.00000
 330       86I-5        0.00000  -0.00000   0.00000   0.00000   0.00000
 331       86I+6        0.00000   0.00000  -0.00000   0.00000   0.00000
 332       86I-6        0.00000   0.00000   0.00000  -0.00000   0.00000
 333       87I 0        0.00000   0.00000  -0.00000   0.00000  -0.00010
 334       87I+1        0.00017   0.00000   0.00000   0.00000   0.00000
 335       87I-1        0.00000   0.00017   0.00000   0.00000   0.00000
 336       87I+2        0.00000   0.00000   0.00009   0.00000   0.00000
 337       87I-2        0.00000   0.00000   0.00000   0.00009   0.00000
 338       87I+3        0.00000   0.00000   0.00000   0.00000   0.00000
 339       87I-3        0.00000  -0.00000   0.00000   0.00000   0.00000
 340       87I+4        0.00000   0.00000  -0.00000   0.00000  -0.00000
 341       87I-4        0.00000   0.00000   0.00000  -0.00000   0.00000
 342       87I+5       -0.00000   0.00000   0.00000   0.00000   0.00000
 343       87I-5        0.00000  -0.00000   0.00000   0.00000   0.00000
 344       87I+6        0.00000   0.00000  -0.00000   0.00000  -0.00000
 345       87I-6        0.00000   0.00000   0.00000   0.00000   0.00000
 346 2   H  1S          0.00000   0.00000   0.00000   0.00000  -0.00001
 347        2S          0.00000   0.00000  -0.00000   0.00000   0.00032
 348        3S          0.00000   0.00000  -0.00000   0.00000   0.00645
 349        4S          0.00000   0.00000  -0.00000   0.00000   0.02263
 350        5S          0.00000   0.00000   0.00000   0.00000   0.06771
 351        6S          0.00000   0.00000  -0.00000   0.00000   0.16361
 352        7S          0.00000   0.00000  -0.00000   0.00000   0.22378
 353        8S          0.00000   0.00000   0.00000   0.00000   0.11274
 354        9S          0.00000   0.00000   0.00000   0.00000   0.00904
 355       10PX        -0.00067   0.00000   0.00000   0.00000   0.00000
 356       10PY         0.00000  -0.00067   0.00000   0.00000   0.00000
 357       10PZ         0.00000   0.00000  -0.00000   0.00000  -0.00024
 358       11PX        -0.00314   0.00000   0.00000   0.00000   0.00000
 359       11PY         0.00000  -0.00314   0.00000   0.00000   0.00000
 360       11PZ         0.00000   0.00000   0.00000   0.00000  -0.00058
 361       12PX        -0.00872   0.00000   0.00000   0.00000   0.00000
 362       12PY         0.00000  -0.00872   0.00000   0.00000   0.00000
 363       12PZ         0.00000   0.00000  -0.00000   0.00000   0.00775
 364       13PX        -0.00547   0.00000   0.00000   0.00000   0.00000
 365       13PY         0.00000  -0.00547   0.00000   0.00000   0.00000
 366       13PZ         0.00000   0.00000  -0.00000   0.00000   0.01314
 367       14PX         0.00151   0.00000   0.00000   0.00000   0.00000
 368       14PY         0.00000   0.00151   0.00000   0.00000   0.00000
 369       14PZ         0.00000   0.00000  -0.00000   0.00000  -0.00474
 370       15D 0        0.00000   0.00000  -0.00000   0.00000  -0.00033
 371       15D+1       -0.00043   0.00000   0.00000   0.00000   0.00000
 372       15D-1        0.00000  -0.00043   0.00000   0.00000   0.00000
 373       15D+2        0.00000   0.00000   0.00007   0.00000   0.00000
 374       15D-2        0.00000   0.00000   0.00000   0.00007   0.00000
 375       16D 0        0.00000   0.00000   0.00000   0.00000   0.00029
 376       16D+1       -0.00209   0.00000   0.00000   0.00000   0.00000
 377       16D-1        0.00000  -0.00209   0.00000   0.00000   0.00000
 378       16D+2        0.00000   0.00000   0.00064   0.00000  -0.00000
 379       16D-2        0.00000   0.00000   0.00000   0.00064   0.00000
 380       17D 0        0.00000   0.00000  -0.00000   0.00000   0.00036
 381       17D+1       -0.00150   0.00000   0.00000   0.00000   0.00000
 382       17D-1        0.00000  -0.00150   0.00000   0.00000   0.00000
 383       17D+2        0.00000   0.00000   0.00085   0.00000   0.00000
[...]
 207       74F+2        0.00007   0.00004   0.00004   0.00000
 208       74F-2        0.00007   0.00004   0.00004   0.00000
 209       74F+3        0.00000   0.00000   0.00000   0.00000
 210       74F-3        0.00000   0.00000   0.00000   0.00000
 211       75F 0        0.00068   0.00034   0.00034   0.00000
 212       75F+1       -0.00000  -0.00000  -0.00000   0.00000
 213       75F-1       -0.00000  -0.00000  -0.00000   0.00000
 214       75F+2        0.00004   0.00002   0.00002   0.00000
 215       75F-2        0.00004   0.00002   0.00002   0.00000
 216       75F+3        0.00000   0.00000   0.00000   0.00000
 217       75F-3        0.00000   0.00000   0.00000   0.00000
 218       76G 0        0.00000   0.00000   0.00000   0.00000
 219       76G+1        0.00000   0.00000   0.00000   0.00000
 220       76G-1        0.00000   0.00000   0.00000   0.00000
 221       76G+2        0.00000   0.00000   0.00000   0.00000
 222       76G-2        0.00000   0.00000   0.00000   0.00000
 223       76G+3        0.00000   0.00000   0.00000   0.00000
 224       76G-3        0.00000   0.00000   0.00000   0.00000
 225       76G+4       -0.00000  -0.00000  -0.00000   0.00000
 226       76G-4        0.00000   0.00000   0.00000   0.00000
 227       77G 0       -0.00000  -0.00000  -0.00000   0.00000
 228       77G+1        0.00000   0.00000   0.00000   0.00000
 229       77G-1        0.00000   0.00000   0.00000   0.00000
 230       77G+2        0.00000   0.00000   0.00000   0.00000
 231       77G-2        0.00000   0.00000   0.00000   0.00000
 232       77G+3        0.00000   0.00000   0.00000   0.00000
 233       77G-3        0.00000   0.00000   0.00000   0.00000
 234       77G+4        0.00000   0.00000   0.00000   0.00000
 235       77G-4        0.00000   0.00000   0.00000   0.00000
 236       78G 0        0.00001   0.00000   0.00000   0.00000
 237       78G+1        0.00000   0.00000   0.00000   0.00000
 238       78G-1        0.00000   0.00000   0.00000   0.00000
 239       78G+2        0.00000   0.00000   0.00000   0.00000
 240       78G-2        0.00000   0.00000   0.00000   0.00000
 241       78G+3        0.00000   0.00000   0.00000   0.00000
 242       78G-3       -0.00000  -0.00000  -0.00000   0.00000
 243       78G+4       -0.00000  -0.00000  -0.00000   0.00000
 244       78G-4       -0.00000  -0.00000  -0.00000   0.00000
 245       79G 0        0.00013   0.00006   0.00006   0.00000
 246       79G+1        0.00001   0.00001   0.00001   0.00000
 247       79G-1        0.00001   0.00001   0.00001   0.00000
 248       79G+2        0.00000   0.00000   0.00000   0.00000
 249       79G-2        0.00000   0.00000   0.00000   0.00000
 250       79G+3        0.00000   0.00000   0.00000   0.00000
 251       79G-3        0.00000   0.00000   0.00000   0.00000
 252       79G+4       -0.00000  -0.00000  -0.00000   0.00000
 253       79G-4        0.00000   0.00000   0.00000   0.00000
 254       80G 0        0.00011   0.00005   0.00005   0.00000
 255       80G+1        0.00001   0.00001   0.00001   0.00000
 256       80G-1        0.00001   0.00001   0.00001   0.00000
 257       80G+2        0.00000   0.00000   0.00000   0.00000
 258       80G-2        0.00000   0.00000   0.00000   0.00000
 259       80G+3        0.00000   0.00000   0.00000   0.00000
 260       80G-3        0.00000   0.00000   0.00000   0.00000
 261       80G+4        0.00000   0.00000   0.00000   0.00000
 262       80G-4        0.00000   0.00000   0.00000   0.00000
 263       81H 0        0.00000   0.00000   0.00000   0.00000
 264       81H+1        0.00000   0.00000   0.00000   0.00000
 265       81H-1        0.00000   0.00000   0.00000   0.00000
 266       81H+2        0.00000   0.00000   0.00000   0.00000
 267       81H-2        0.00000   0.00000   0.00000   0.00000
 268       81H+3        0.00000   0.00000   0.00000   0.00000
 269       81H-3       -0.00000  -0.00000  -0.00000   0.00000
 270       81H+4       -0.00000  -0.00000  -0.00000   0.00000
 271       81H-4        0.00000   0.00000   0.00000   0.00000
 272       81H+5        0.00000   0.00000   0.00000   0.00000
 273       81H-5        0.00000   0.00000   0.00000   0.00000
 274       82H 0        0.00000   0.00000   0.00000   0.00000
 275       82H+1        0.00000   0.00000   0.00000   0.00000
 276       82H-1        0.00000   0.00000   0.00000   0.00000
 277       82H+2        0.00000   0.00000   0.00000   0.00000
 278       82H-2        0.00000   0.00000   0.00000   0.00000
 279       82H+3        0.00000   0.00000   0.00000   0.00000
 280       82H-3        0.00000   0.00000   0.00000   0.00000
 281       82H+4        0.00000   0.00000   0.00000   0.00000
 282       82H-4        0.00000   0.00000   0.00000   0.00000
 283       82H+5       -0.00000  -0.00000  -0.00000   0.00000
 284       82H-5       -0.00000  -0.00000  -0.00000   0.00000
 285       83H 0        0.00000   0.00000   0.00000   0.00000
 286       83H+1        0.00000   0.00000   0.00000   0.00000
 287       83H-1        0.00000   0.00000   0.00000   0.00000
 288       83H+2        0.00000   0.00000   0.00000   0.00000
 289       83H-2        0.00000   0.00000   0.00000   0.00000
 290       83H+3        0.00000   0.00000   0.00000   0.00000
 291       83H-3       -0.00000  -0.00000  -0.00000   0.00000
 292       83H+4       -0.00000  -0.00000  -0.00000   0.00000
 293       83H-4        0.00000   0.00000   0.00000   0.00000
 294       83H+5        0.00000   0.00000   0.00000   0.00000
 295       83H-5        0.00000   0.00000   0.00000   0.00000
 296       84H 0        0.00002   0.00001   0.00001   0.00000
 297       84H+1        0.00000   0.00000   0.00000   0.00000
 298       84H-1        0.00000   0.00000   0.00000   0.00000
 299       84H+2        0.00000   0.00000   0.00000   0.00000
 300       84H-2        0.00000   0.00000   0.00000   0.00000
 301       84H+3        0.00000   0.00000   0.00000   0.00000
 302       84H-3        0.00000   0.00000   0.00000   0.00000
 303       84H+4       -0.00000  -0.00000  -0.00000   0.00000
 304       84H-4        0.00000   0.00000   0.00000   0.00000
 305       84H+5        0.00000   0.00000   0.00000   0.00000
 306       84H-5        0.00000   0.00000   0.00000   0.00000
 307       85I 0        0.00000   0.00000   0.00000   0.00000
 308       85I+1        0.00000   0.00000   0.00000   0.00000
 309       85I-1        0.00000   0.00000   0.00000   0.00000
 310       85I+2        0.00000   0.00000   0.00000   0.00000
 311       85I-2        0.00000   0.00000   0.00000   0.00000
 312       85I+3        0.00000   0.00000   0.00000   0.00000
 313       85I-3        0.00000   0.00000   0.00000   0.00000
 314       85I+4        0.00000   0.00000   0.00000   0.00000
 315       85I-4        0.00000   0.00000   0.00000   0.00000
 316       85I+5        0.00000   0.00000   0.00000   0.00000
 317       85I-5        0.00000   0.00000   0.00000   0.00000
 318       85I+6        0.00000   0.00000   0.00000   0.00000
 319       85I-6        0.00000   0.00000   0.00000   0.00000
 320       86I 0       -0.00000  -0.00000  -0.00000   0.00000
 321       86I+1       -0.00000  -0.00000  -0.00000   0.00000
 322       86I-1       -0.00000  -0.00000  -0.00000   0.00000
 323       86I+2       -0.00000  -0.00000  -0.00000   0.00000
 324       86I-2       -0.00000  -0.00000  -0.00000   0.00000
 325       86I+3        0.00000   0.00000   0.00000   0.00000
 326       86I-3        0.00000   0.00000   0.00000   0.00000
 327       86I+4       -0.00000  -0.00000  -0.00000   0.00000
 328       86I-4       -0.00000  -0.00000  -0.00000   0.00000
 329       86I+5        0.00000   0.00000   0.00000   0.00000
 330       86I-5        0.00000   0.00000   0.00000   0.00000
 331       86I+6       -0.00000  -0.00000  -0.00000   0.00000
 332       86I-6        0.00000   0.00000   0.00000   0.00000
 333       87I 0        0.00000   0.00000   0.00000   0.00000
 334       87I+1        0.00000   0.00000   0.00000   0.00000
 335       87I-1        0.00000   0.00000   0.00000   0.00000
 336       87I+2        0.00000   0.00000   0.00000   0.00000
 337       87I-2        0.00000   0.00000   0.00000   0.00000
 338       87I+3        0.00000   0.00000   0.00000   0.00000
 339       87I-3        0.00000   0.00000   0.00000   0.00000
 340       87I+4        0.00000   0.00000   0.00000   0.00000
 341       87I-4        0.00000   0.00000   0.00000   0.00000
 342       87I+5        0.00000   0.00000   0.00000   0.00000
 343       87I-5        0.00000   0.00000   0.00000   0.00000
 344       87I+6       -0.00000  -0.00000  -0.00000   0.00000
 345       87I-6       -0.00000  -0.00000  -0.00000   0.00000
 346 2   H  1S         -0.00000  -0.00000  -0.00000   0.00000
 347        2S          0.00008   0.00004   0.00004   0.00000
 348        3S          0.00418   0.00209   0.00209   0.00000
 349        4S          0.02956   0.01478   0.01478   0.00000
 350        5S          0.14779   0.07390   0.07390   0.00000
 351        6S          0.39121   0.19560   0.19560   0.00000
 352        7S          0.48133   0.24066   0.24066   0.00000
 353        8S          0.19860   0.09930   0.09930   0.00000
 354        9S          0.01058   0.00529   0.00529   0.00000
 355       10PX         0.00005   0.00003   0.00003   0.00000
 356       10PY         0.00005   0.00003   0.00003   0.00000
 357       10PZ         0.00018   0.00009   0.00009   0.00000
 358       11PX         0.00071   0.00035   0.00035   0.00000
 359       11PY         0.00071   0.00035   0.00035   0.00000
 360       11PZ         0.00209   0.00104   0.00104   0.00000
 361       12PX         0.00415   0.00207   0.00207   0.00000
 362       12PY         0.00415   0.00207   0.00207   0.00000
 363       12PZ         0.00884   0.00442   0.00442   0.00000
 364       13PX         0.00232   0.00116   0.00116   0.00000
 365       13PY         0.00232   0.00116   0.00116   0.00000
 366       13PZ         0.00512   0.00256   0.00256   0.00000
 367       14PX        -0.00026  -0.00013  -0.00013   0.00000
 368       14PY        -0.00026  -0.00013  -0.00013   0.00000
 369       14PZ        -0.00095  -0.00047  -0.00047   0.00000
 370       15D 0        0.00012   0.00006   0.00006   0.00000
 371       15D+1        0.00005   0.00002   0.00002   0.00000
 372       15D-1        0.00005   0.00002   0.00002   0.00000
 373       15D+2        0.00000   0.00000   0.00000   0.00000
 374       15D-2        0.00000   0.00000   0.00000   0.00000
 375       16D 0        0.00130   0.00065   0.00065   0.00000
 376       16D+1        0.00082   0.00041   0.00041   0.00000
 377       16D-1        0.00082   0.00041   0.00041   0.00000
 378       16D+2        0.00007   0.00004   0.00004   0.00000
 379       16D-2        0.00007   0.00004   0.00004   0.00000
 380       17D 0        0.00362   0.00181   0.00181   0.00000
 381       17D+1        0.00070   0.00035   0.00035   0.00000
 382       17D-1        0.00070   0.00035   0.00035   0.00000
 383       17D+2        0.00026   0.00013   0.00013   0.00000
 384       17D-2        0.00026   0.00013   0.00013   0.00000
 385       18D 0        0.00093   0.00046   0.00046   0.00000
 386       18D+1       -0.00017  -0.00008  -0.00008   0.00000
 387       18D-1       -0.00017  -0.00008  -0.00008   0.00000
 388       18D+2        0.00027   0.00014   0.00014   0.00000
 389       18D-2        0.00027   0.00014   0.00014   0.00000
 390       19F 0        0.00008   0.00004   0.00004   0.00000
 391       19F+1        0.00005   0.00002   0.00002   0.00000
 392       19F-1        0.00005   0.00002   0.00002   0.00000
 393       19F+2        0.00001   0.00000   0.00000   0.00000
 394       19F-2        0.00001   0.00000   0.00000   0.00000
 395       19F+3        0.00000   0.00000   0.00000   0.00000
 396       19F-3        0.00000   0.00000   0.00000   0.00000
 397       20F 0        0.00118   0.00059   0.00059   0.00000
 398       20F+1        0.00031   0.00016   0.00016   0.00000
 399       20F-1        0.00031   0.00016   0.00016   0.00000
 400       20F+2        0.00013   0.00007   0.00007   0.00000
 401       20F-2        0.00013   0.00007   0.00007   0.00000
 402       20F+3       -0.00000  -0.00000  -0.00000   0.00000
 403       20F-3       -0.00000  -0.00000  -0.00000   0.00000
 404       21F 0        0.00127   0.00063   0.00063   0.00000
 405       21F+1       -0.00003  -0.00001  -0.00001   0.00000
 406       21F-1       -0.00003  -0.00001  -0.00001   0.00000
 407       21F+2        0.00003   0.00001   0.00001   0.00000
 408       21F-2        0.00003   0.00001   0.00001   0.00000
 409       21F+3       -0.00000  -0.00000  -0.00000   0.00000
 410       21F-3       -0.00000  -0.00000  -0.00000   0.00000
 411       22G 0        0.00004   0.00002   0.00002   0.00000
 412       22G+1        0.00002   0.00001   0.00001   0.00000
 413       22G-1        0.00002   0.00001   0.00001   0.00000
 414       22G+2        0.00001   0.00000   0.00000   0.00000
 415       22G-2        0.00001   0.00000   0.00000   0.00000
 416       22G+3        0.00000   0.00000   0.00000   0.00000
 417       22G-3        0.00000   0.00000   0.00000   0.00000
 418       22G+4       -0.00000  -0.00000  -0.00000   0.00000
 419       22G-4       -0.00000  -0.00000  -0.00000   0.00000
 420       23G 0        0.00037   0.00018   0.00018   0.00000
 421       23G+1        0.00003   0.00002   0.00002   0.00000
 422       23G-1        0.00003   0.00002   0.00002   0.00000
 423       23G+2        0.00005   0.00002   0.00002   0.00000
 424       23G-2        0.00005   0.00002   0.00002   0.00000
 425       23G+3       -0.00000  -0.00000  -0.00000   0.00000
 426       23G-3       -0.00000  -0.00000  -0.00000   0.00000
 427       23G+4        0.00000   0.00000   0.00000   0.00000
 428       23G-4        0.00000   0.00000   0.00000   0.00000
          Condensed to atoms (all electrons):
               1          2
     1  Cu  18.262611   0.430712
     2  H    0.430712   0.875964
          Atomic-Atomic Spin Densities.
               1          2
     1  Cu   0.000000   0.000000
     2  H    0.000000   0.000000
 Mulliken charges and spin densities:
               1          2
     1  Cu   0.306677   0.000000
     2  H   -0.306677   0.000000
 Sum of Mulliken charges =  -0.00000   0.00000
 Mulliken charges and spin densities with hydrogens summed into heavy atoms:
               1          2
     1  Cu  -0.000000   0.000000
 Electronic spatial extent (au):  <R**2>=             36.4242
 Charge=             -0.0000 electrons
 Dipole moment (field-independent basis, Debye):
    X=              0.0000    Y=              0.0000    Z=              3.4030  Tot=              3.4030
 Quadrupole moment (field-independent basis, Debye-Ang):
   XX=            -13.8891   YY=            -13.8891   ZZ=            -14.6044
   XY=              0.0000   XZ=              0.0000   YZ=              0.0000
 Traceless Quadrupole moment (field-independent basis, Debye-Ang):
   XX=              0.2384   YY=              0.2384   ZZ=             -0.4768
   XY=              0.0000   XZ=              0.0000   YZ=              0.0000
 Octapole moment (field-independent basis, Debye-Ang**2):
  XXX=              0.0000  YYY=              0.0000  ZZZ=             10.3795  XYY=              0.0000
  XXY=              0.0000  XXZ=              2.9880  XZZ=              0.0000  YZZ=              0.0000
  YYZ=              2.9880  XYZ=              0.0000
 Hexadecapole moment (field-independent basis, Debye-Ang**3):
 XXXX=            -17.7072 YYYY=            -17.7072 ZZZZ=            -31.2384 XXXY=              0.0000
 XXXZ=              0.0000 YYYX=              0.0000 YYYZ=              0.0000 ZZZX=              0.0000
 ZZZY=              0.0000 XXYY=             -5.9024 XXZZ=             -8.1052 YYZZ=             -8.1052
 XXYZ=              0.0000 YYXZ=              0.0000 ZZXY=              0.0000
 N-N= 8.378639172900D+00 E-N=-4.999414629246D+02  KE= 1.257824968188D+02
 Symmetry A1   KE= 5.073095945534D+01
 Symmetry A2   KE= 1.804523172642D+01
 Symmetry B1   KE= 2.850315282635D+01
 Symmetry B2   KE= 2.850315281280D+01
 Symmetry A1   SP= 0.000000000000D+00
 Symmetry A2   SP= 0.000000000000D+00
 Symmetry B1   SP= 0.000000000000D+00
 Symmetry B2   SP= 0.000000000000D+00
 Orbital energies and kinetic energies (alpha):
                                 1                 2
   6         O                -0.524419          8.936879
   7         O                -0.524419          8.936879
   8         O                -0.511806          9.022616
   9         O                -0.511806          9.022616
  10         O                -0.334478          2.312326
  11         V                 0.004886          0.157036
  12         V                 0.025840          0.037966
  13         V                 0.025840          0.037966
  14         V                 0.027510          0.030503
  15         V                 0.046693          0.259682
 Total kinetic energy from orbitals= 1.257824968188D+02
                          Isotropic Fermi Contact Couplings
        Atom                 a.u.       MegaHertz       Gauss      10(-4) cm-1
     1  Cu(63)             0.00000       0.00000       0.00000       0.00000
     2  H(1)               0.00000       0.00000       0.00000       0.00000
 --------------------------------------------------------
       Center         ----  Spin Dipole Couplings  ----
                      3XX-RR        3YY-RR        3ZZ-RR
 --------------------------------------------------------
     1   Atom        0.000000      0.000000      0.000000
     2   Atom        0.000000      0.000000      0.000000
 --------------------------------------------------------
                        XY            XZ            YZ
 --------------------------------------------------------
     1   Atom        0.000000      0.000000      0.000000
     2   Atom        0.000000      0.000000      0.000000
 --------------------------------------------------------


 ---------------------------------------------------------------------------------
              Anisotropic Spin Dipole Couplings in Principal Axis System
 ---------------------------------------------------------------------------------

       Atom             a.u.   MegaHertz   Gauss  10(-4) cm-1        Axes

              Baa     0.0000     0.000     0.000     0.000  1.0000  0.0000  0.0000
     1 Cu(63) Bbb     0.0000     0.000     0.000     0.000 -0.0000  1.0000  0.0000
              Bcc     0.0000     0.000     0.000     0.000  0.0000  0.0000  1.0000
 
              Baa     0.0000     0.000     0.000     0.000  1.0000  0.0000  0.0000
     2 H(1)   Bbb     0.0000     0.000     0.000     0.000 -0.0000  1.0000  0.0000
              Bcc     0.0000     0.000     0.000     0.000  0.0000  0.0000  1.0000
 

 ---------------------------------------------------------------------------------

 No NMR shielding tensors so no spin-rotation constants.
 Leave Link  601 at Wed Apr  4 22:39:08 2018, MaxMem= 10737418240 cpu:             319.8 elap:              10.5
 (Enter /home1/apps/gaussian/16rA.03/g16/l9999.exe)

 Test job not archived.
 1\1\GINC-C454-001\SP\ROCCSD(T)-Full\Gen\Cu1H1\GWANG18\04-Apr-2018\0\\#
 P ROCCSD(T)=(MaxCyc=150, Full)/Gen SCF=(maxcycle=400) Pseudo=Read Inte
 gral(NoXCTest) Pop=Regular MaxDisk=500GB Guess=Read IOp(5/15=2)\\CuH\\
 0,1\Cu,0,0.,0.,0.\H,0,0.,0.,1.2\\Version=ES64L-G16RevA.03\State=1-SG\H
 F=-196.7434791\MP2=-197.9503866\MP3=-197.7352487\PUHF=-196.7434791\PMP
 2-0=-197.9503866\MP4SDQ=-197.8987487\CCSD=-197.8203193\CCSD(T)=-197.86
 21037\RMSD=7.928e-09\PG=C*V [C*(H1Cu1)]\\@


 TRUTH, IN SCIENCE, CAN BE DEFINED AS THE WORKING HYPOTHESIS 
 BEST FITTED TO OPEN THE WAY TO THE NEXT BETTER ONE.

                              -- KONRAD LORENZ
 Job cpu time:       3 days 16 hours 12 minutes 47.0 seconds.
 Elapsed time:       0 days  2 hours 46 minutes  7.6 seconds.
 File lengths (MBytes):  RWF=  27410 Int=      0 D2E=      0 Chk=     23 Scr=      1
 Normal termination of Gaussian 16 at Wed Apr  4 22:39:09 2018.
