 Entering Gaussian System, Link 0=g16
 Initial command:
 /home1/apps/gaussian/16rA.03/g16/l1.exe "/tmp/Gau-182153.inp" -scrdir="/tmp/"
 Entering Link 1 = /home1/apps/gaussian/16rA.03/g16/l1.exe PID=    182154.
  
 Copyright (c) 1988,1990,1992,1993,1995,1998,2003,2009,2016,
            Gaussian, Inc.  All Rights Reserved.
  
 This is part of the Gaussian(R) 16 program.  It is based on
 the Gaussian(R) 09 system (copyright 2009, Gaussian, Inc.),
 the Gaussian(R) 03 system (copyright 2003, Gaussian, Inc.),
 the Gaussian(R) 98 system (copyright 1998, Gaussian, Inc.),
 the Gaussian(R) 94 system (copyright 1995, Gaussian, Inc.),
 the Gaussian 92(TM) system (copyright 1992, Gaussian, Inc.),
 the Gaussian 90(TM) system (copyright 1990, Gaussian, Inc.),
 the Gaussian 88(TM) system (copyright 1988, Gaussian, Inc.),
 the Gaussian 86(TM) system (copyright 1986, Carnegie Mellon
 University), and the Gaussian 82(TM) system (copyright 1983,
 Carnegie Mellon University). Gaussian is a federally registered
 trademark of Gaussian, Inc.
  
 This software contains proprietary and confidential information,
 including trade secrets, belonging to Gaussian, Inc.
  
 This software is provided under written license and may be
 used, copied, transmitted, or stored only in accord with that
 written license.
  
 The following legend is applicable only to US Government
 contracts under FAR:
  
                    RESTRICTED RIGHTS LEGEND
  
 Use, reproduction and disclosure by the US Government is
 subject to restrictions as set forth in subparagraphs (a)
 and (c) of the Commercial Computer Software - Restricted
 Rights clause in FAR 52.227-19.
  
 Gaussian, Inc.
 340 Quinnipiac St., Bldg. 40, Wallingford CT 06492
  
  
 ---------------------------------------------------------------
 Warning -- This program may not be used in any manner that
 competes with the business of Gaussian, Inc. or will provide
 assistance to any competitor of Gaussian, Inc.  The licensee
 of this program is prohibited from giving any competitor of
 Gaussian, Inc. access to this program.  By using this program,
 the user acknowledges that Gaussian, Inc. is engaged in the
 business of creating and licensing software in the field of
 computational chemistry and represents and warrants to the
 licensee that it is not a competitor of Gaussian, Inc. and that
 it will not use this program in any manner prohibited above.
 ---------------------------------------------------------------
  

 Cite this work as:
 Gaussian 16, Revision A.03,
 M. J. Frisch, G. W. Trucks, H. B. Schlegel, G. E. Scuseria, 
 M. A. Robb, J. R. Cheeseman, G. Scalmani, V. Barone, 
 G. A. Petersson, H. Nakatsuji, X. Li, M. Caricato, A. V. Marenich, 
 J. Bloino, B. G. Janesko, R. Gomperts, B. Mennucci, H. P. Hratchian, 
 J. V. Ortiz, A. F. Izmaylov, J. L. Sonnenberg, D. Williams-Young, 
 F. Ding, F. Lipparini, F. Egidi, J. Goings, B. Peng, A. Petrone, 
 T. Henderson, D. Ranasinghe, V. G. Zakrzewski, J. Gao, N. Rega, 
 G. Zheng, W. Liang, M. Hada, M. Ehara, K. Toyota, R. Fukuda, 
 J. Hasegawa, M. Ishida, T. Nakajima, Y. Honda, O. Kitao, H. Nakai, 
 T. Vreven, K. Throssell, J. A. Montgomery, Jr., J. E. Peralta, 
 F. Ogliaro, M. J. Bearpark, J. J. Heyd, E. N. Brothers, K. N. Kudin, 
 V. N. Staroverov, T. A. Keith, R. Kobayashi, J. Normand, 
 K. Raghavachari, A. P. Rendell, J. C. Burant, S. S. Iyengar, 
 J. Tomasi, M. Cossi, J. M. Millam, M. Klene, C. Adamo, R. Cammi, 
 J. W. Ochterski, R. L. Martin, K. Morokuma, O. Farkas, 
 J. B. Foresman, and D. J. Fox, Gaussian, Inc., Wallingford CT, 2016.
 
 ******************************************
 Gaussian 16:  ES64L-G16RevA.03 25-Dec-2016
                 4-Apr-2018 
 ******************************************
 %mem=80GB
 %cpu=0-31
 SetSPE:  set environment variable "MP_BIND" = "yes"
 SetSPE:  set environment variable "MP_BLIST" = "0,1,2,3,4,5,6,7,8,9,10,11,12,13,14,15,16,17,18,19,20,21,22,23,24,25,26,27,28,29,30,31"
 Will use up to   32 processors via shared memory.
 %chk=tz.chk
 %rwf=/scratch/04843/gwang18/cuh/
 ----------------------------------------------------------------------
 #P ROCCSD(T)=(MaxCyc=150, Full)/Gen SCF=(maxcycle=400) Pseudo=Read Int
 egral(NoXCTest) Pop=Regular MaxDisk=500GB Guess=Read IOp(5/15=2)
 ----------------------------------------------------------------------
 1/38=1,172=1/1;
 2/12=2,17=6,18=5,40=1/2;
 3/5=7,11=2,16=1,17=8,25=1,30=1,47=8,116=101/1,2,3;
 4/5=1/1;
 5/5=2,7=400,15=2,38=6/2;
 8/5=-1,6=4,9=120000,10=90/1,4;
 9/5=7,6=150,14=2/13;
 6//1;
 99/5=1,9=1/99;
 Leave Link    1 at Wed Apr  4 18:43:37 2018, MaxMem= 10737418240 cpu:               8.5 elap:               0.3
 (Enter /home1/apps/gaussian/16rA.03/g16/l101.exe)
 ---
 CuH
 ---
 Symbolic Z-matrix:
 Charge =  0 Multiplicity = 1
 Cu                    0.        0.        0. 
 H                     0.        0.        1.1 
 
 ITRead=  0  0
 MicOpt= -1 -1
 NAtoms=      2 NQM=        2 NQMF=       0 NMMI=      0 NMMIF=      0
                NMic=       0 NMicF=      0.
                    Isotopes and Nuclear Properties:
 (Nuclear quadrupole moments (NQMom) in fm**2, nuclear magnetic moments (NMagM)
  in nuclear magnetons)

  Atom         1           2
 IAtWgt=          63           1
 AtmWgt=  62.9295992   1.0078250
 NucSpn=           3           1
 AtZEff=  -0.0000000  -0.0000000
 NQMom=  -22.0000000   0.0000000
 NMagM=    2.2233000   2.7928460
 AtZNuc=  29.0000000   1.0000000
 Leave Link  101 at Wed Apr  4 18:43:38 2018, MaxMem= 10737418240 cpu:               3.1 elap:               0.1
 (Enter /home1/apps/gaussian/16rA.03/g16/l202.exe)
                          Input orientation:                          
 ---------------------------------------------------------------------
 Center     Atomic      Atomic             Coordinates (Angstroms)
 Number     Number       Type             X           Y           Z
 ---------------------------------------------------------------------
      1         29           0        0.000000    0.000000    0.000000
      2          1           0        0.000000    0.000000    1.100000
 ---------------------------------------------------------------------
 Stoichiometry    CuH
 Framework group  C*V[C*(HCu)]
 Deg. of freedom     1
 Full point group                 C*V     NOp   4
 Largest Abelian subgroup         C2V     NOp   4
 Largest concise Abelian subgroup C1      NOp   1
                         Standard orientation:                         
 ---------------------------------------------------------------------
 Center     Atomic      Atomic             Coordinates (Angstroms)
 Number     Number       Type             X           Y           Z
 ---------------------------------------------------------------------
      1         29           0        0.000000    0.000000    0.036667
      2          1           0        0.000000    0.000000   -1.063333
 ---------------------------------------------------------------------
 Rotational constants (GHZ):           0.0000000         421.0627833         421.0627833
 Leave Link  202 at Wed Apr  4 18:43:38 2018, MaxMem= 10737418240 cpu:               0.8 elap:               0.1
 (Enter /home1/apps/gaussian/16rA.03/g16/l301.exe)
 General basis read from cards:  (5D, 7F)
 Centers:       1
 S 1 1.00
     Exponent=  5.4303210000D+06 Coefficients=  1.0000000000D+00
 S 1 1.00
     Exponent=  8.1316650000D+05 Coefficients=  1.0000000000D+00
 S 1 1.00
     Exponent=  1.8505440000D+05 Coefficients=  1.0000000000D+00
 S 1 1.00
     Exponent=  5.2414660000D+04 Coefficients=  1.0000000000D+00
 S 1 1.00
     Exponent=  1.7098680000D+04 Coefficients=  1.0000000000D+00
 S 1 1.00
     Exponent=  6.1719940000D+03 Coefficients=  1.0000000000D+00
 S 1 1.00
     Exponent=  2.4064810000D+03 Coefficients=  1.0000000000D+00
 S 1 1.00
     Exponent=  9.9725840000D+02 Coefficients=  1.0000000000D+00
 S 1 1.00
     Exponent=  4.3392890000D+02 Coefficients=  1.0000000000D+00
 S 1 1.00
     Exponent=  1.9628690000D+02 Coefficients=  1.0000000000D+00
 S 1 1.00
     Exponent=  9.1042800000D+01 Coefficients=  1.0000000000D+00
 S 1 1.00
     Exponent=  4.1384250000D+01 Coefficients=  1.0000000000D+00
 S 1 1.00
     Exponent=  1.9932780000D+01 Coefficients=  1.0000000000D+00
 S 1 1.00
     Exponent=  9.5818910000D+00 Coefficients=  1.0000000000D+00
 S 1 1.00
     Exponent=  4.2345160000D+00 Coefficients=  1.0000000000D+00
 S 1 1.00
     Exponent=  1.9858140000D+00 Coefficients=  1.0000000000D+00
 S 1 1.00
     Exponent=  8.6708300000D-01 Coefficients=  1.0000000000D+00
 S 1 1.00
     Exponent=  1.8133900000D-01 Coefficients=  1.0000000000D+00
 S 1 1.00
     Exponent=  8.3657000000D-02 Coefficients=  1.0000000000D+00
 S 1 1.00
     Exponent=  3.6267000000D-02 Coefficients=  1.0000000000D+00
 S 1 1.00
     Exponent=  6.3233000000D+00 Coefficients=  1.0000000000D+00
 S 1 1.00
     Exponent=  1.6459000000D+00 Coefficients=  1.0000000000D+00
 S 1 1.00
     Exponent=  1.5720000000D-02 Coefficients=  1.0000000000D+00
 P 1 1.00
     Exponent=  2.2760570000D+04 Coefficients=  1.0000000000D+00
 P 1 1.00
     Exponent=  5.3876790000D+03 Coefficients=  1.0000000000D+00
 P 1 1.00
     Exponent=  1.7499450000D+03 Coefficients=  1.0000000000D+00
 P 1 1.00
     Exponent=  6.6966530000D+02 Coefficients=  1.0000000000D+00
 P 1 1.00
     Exponent=  2.8419480000D+02 Coefficients=  1.0000000000D+00
 P 1 1.00
     Exponent=  1.2960770000D+02 Coefficients=  1.0000000000D+00
 P 1 1.00
     Exponent=  6.2254150000D+01 Coefficients=  1.0000000000D+00
 P 1 1.00
     Exponent=  3.0929640000D+01 Coefficients=  1.0000000000D+00
 P 1 1.00
     Exponent=  1.5758270000D+01 Coefficients=  1.0000000000D+00
 P 1 1.00
     Exponent=  8.0942110000D+00 Coefficients=  1.0000000000D+00
 P 1 1.00
     Exponent=  4.0469210000D+00 Coefficients=  1.0000000000D+00
 P 1 1.00
     Exponent=  1.9678690000D+00 Coefficients=  1.0000000000D+00
 P 1 1.00
     Exponent=  9.2529500000D-01 Coefficients=  1.0000000000D+00
 P 1 1.00
     Exponent=  3.5299200000D-01 Coefficients=  1.0000000000D+00
 P 1 1.00
     Exponent=  1.2730700000D-01 Coefficients=  1.0000000000D+00
 P 1 1.00
     Exponent=  4.4356000000D-02 Coefficients=  1.0000000000D+00
 P 1 1.00
     Exponent=  9.6845000000D+00 Coefficients=  1.0000000000D+00
 P 1 1.00
     Exponent=  2.2065000000D+00 Coefficients=  1.0000000000D+00
 P 1 1.00
     Exponent=  1.5450000000D-02 Coefficients=  1.0000000000D+00
 D 1 1.00
     Exponent=  1.7389700000D+02 Coefficients=  1.0000000000D+00
 D 1 1.00
     Exponent=  5.1886900000D+01 Coefficients=  1.0000000000D+00
 D 1 1.00
     Exponent=  1.9341900000D+01 Coefficients=  1.0000000000D+00
 D 1 1.00
     Exponent=  7.9757200000D+00 Coefficients=  1.0000000000D+00
 D 1 1.00
     Exponent=  3.3982300000D+00 Coefficients=  1.0000000000D+00
 D 1 1.00
     Exponent=  1.4093200000D+00 Coefficients=  1.0000000000D+00
 D 1 1.00
     Exponent=  5.4885800000D-01 Coefficients=  1.0000000000D+00
 D 1 1.00
     Exponent=  1.9019900000D-01 Coefficients=  1.0000000000D+00
 D 1 1.00
     Exponent=  6.9242000000D+00 Coefficients=  1.0000000000D+00
 D 1 1.00
     Exponent=  3.3410000000D+00 Coefficients=  1.0000000000D+00
 D 1 1.00
     Exponent=  6.5910000000D-02 Coefficients=  1.0000000000D+00
 F 1 1.00
     Exponent=  9.2215000000D+00 Coefficients=  1.0000000000D+00
 F 1 1.00
     Exponent=  3.5468000000D+00 Coefficients=  1.0000000000D+00
 F 1 1.00
     Exponent=  1.2797000000D+00 Coefficients=  1.0000000000D+00
 F 1 1.00
     Exponent=  4.6172000000D-01 Coefficients=  1.0000000000D+00
 G 1 1.00
     Exponent=  8.3127000000D+00 Coefficients=  1.0000000000D+00
 G 1 1.00
     Exponent=  3.4835000000D+00 Coefficients=  1.0000000000D+00
 G 1 1.00
     Exponent=  1.4597900000D+00 Coefficients=  1.0000000000D+00
 ****
 Centers:       2
 S 1 1.00
     Exponent=  3.3870000000D+01 Coefficients=  1.0000000000D+00
 S 1 1.00
     Exponent=  5.0950000000D+00 Coefficients=  1.0000000000D+00
 S 1 1.00
     Exponent=  1.1590000000D+00 Coefficients=  1.0000000000D+00
 S 1 1.00
     Exponent=  3.2580000000D-01 Coefficients=  1.0000000000D+00
 S 1 1.00
     Exponent=  1.0270000000D-01 Coefficients=  1.0000000000D+00
 S 1 1.00
     Exponent=  2.5260000000D-02 Coefficients=  1.0000000000D+00
 P 1 1.00
     Exponent=  1.4070000000D+00 Coefficients=  1.0000000000D+00
 P 1 1.00
     Exponent=  3.8800000000D-01 Coefficients=  1.0000000000D+00
 P 1 1.00
     Exponent=  1.0200000000D-01 Coefficients=  1.0000000000D+00
 D 1 1.00
     Exponent=  1.0570000000D+00 Coefficients=  1.0000000000D+00
 D 1 1.00
     Exponent=  2.4700000000D-01 Coefficients=  1.0000000000D+00
 ****
 ======================================================================================================
                                       Pseudopotential Parameters
 ======================================================================================================
  Center     Atomic      Valence      Angular      Power
  Number     Number     Electrons     Momentum     of R      Exponent        Coefficient   SO-Coeffient
 ======================================================================================================
    1         29           19
                                      D and up 
                                                     1        6.2514963       19.00000000    0.00000000
                                                     3        6.7272533      118.77842940    0.00000000
                                                     2        6.6102459     -105.89982403    0.00000000
                                      S - D
                                                     2       12.3656871      127.35069424    0.00000000
                                      P - D
                                                     2       11.1607294       71.22984900    0.00000000
    2          1            1
                                      P and up 
                                                     2       21.7769666      -10.85192405    0.00000000
                                                     1       21.2435951        1.00000000    0.00000000
                                                     3       21.2435951       21.24359508    0.00000000
                                      S - P
                                                     2        1.0000000        0.00000000    0.00000000
 ======================================================================================================
 Ernie: Thresh=  0.10000D-02 Tol=  0.10000D-05 Strict=F.
 There are   120 symmetry adapted cartesian basis functions of A1  symmetry.
 There are    26 symmetry adapted cartesian basis functions of A2  symmetry.
 There are    56 symmetry adapted cartesian basis functions of B1  symmetry.
 There are    56 symmetry adapted cartesian basis functions of B2  symmetry.
 There are    94 symmetry adapted basis functions of A1  symmetry.
 There are    23 symmetry adapted basis functions of A2  symmetry.
 There are    49 symmetry adapted basis functions of B1  symmetry.
 There are    49 symmetry adapted basis functions of B2  symmetry.
   215 basis functions,   258 primitive gaussians,   258 cartesian basis functions
    10 alpha electrons       10 beta electrons
       nuclear repulsion energy         9.1403336432 Hartrees.
 IExCor=    0 DFT=F Ex=HF Corr=None ExCW=0 ScaHFX=  1.000000
 ScaDFX=  1.000000  1.000000  1.000000  1.000000 ScalE2=  1.000000  1.000000
 IRadAn=      5 IRanWt=     -1 IRanGd=            0 ICorTp=0 IEmpDi=  4
 NAtoms=    2 NActive=    2 NUniq=    2 SFac= 1.00D+00 NAtFMM=   60 NAOKFM=F Big=F
 Integral buffers will be    131072 words long.
 Raffenetti 2 integral format.
 Two-electron integral symmetry is turned on.
 Leave Link  301 at Wed Apr  4 18:43:39 2018, MaxMem= 10737418240 cpu:               7.2 elap:               0.3
 (Enter /home1/apps/gaussian/16rA.03/g16/l302.exe)
 NPDir=0 NMtPBC=     1 NCelOv=     1 NCel=       1 NClECP=     1 NCelD=      1
         NCelK=      1 NCelE2=     1 NClLst=     1 CellRange=     0.0.
 One-electron integrals computed using PRISM.
 One-electron integral symmetry used in STVInt
   4 Symmetry operations used in ECPInt.
 ECPInt:  NShTT=    2556 NPrTT=    2556 LenC2=    2536 LenP2D=    2535.
 LDataN:  DoStor=T MaxTD1= 8 Len=  415
 NBasis=   215 RedAO= T EigKep=  4.22D-06  NBF=    94    23    49    49
 NBsUse=   210 1.00D-06 EigRej=  9.81D-07 NBFU=    92    22    48    48
 Leave Link  302 at Wed Apr  4 18:43:40 2018, MaxMem= 10737418240 cpu:              29.1 elap:               1.0
 (Enter /home1/apps/gaussian/16rA.03/g16/l303.exe)
 DipDrv:  MaxL=1.
 Leave Link  303 at Wed Apr  4 18:43:41 2018, MaxMem= 10737418240 cpu:               2.0 elap:               0.2
 (Enter /home1/apps/gaussian/16rA.03/g16/l401.exe)
 Initial guess from the checkpoint file:  "tz.chk"
 B after Tr=     0.000000    0.000000    0.000000
         Rot=    1.000000    0.000000    0.000000    0.000000 Ang=   0.00 deg.
 Guess basis will be translated and rotated to current coordinates.
 JPrj=2 DoOrth=T DoCkMO=T.
 Initial guess orbital symmetries:
       Occupied  (SG) (SG) (PI) (PI) (SG) (PI) (PI) (DLTA) (DLTA)
                 (SG)
       Virtual   (SG) (PI) (PI) (SG) (SG) (SG) (PI) (PI) (SG) (PI)
                 (PI) (DLTA) (DLTA) (SG) (SG) (PI) (PI) (SG) (PI)
                 (PI) (SG) (SG) (SG) (PI) (PI) (DLTA) (DLTA) (SG)
                 (DLTA) (DLTA) (PI) (PI) (SG) (PI) (PI) (SG) (PI)
                 (PI) (PHI) (PHI) (SG) (DLTA) (DLTA) (PI) (PI)
                 (SG) (DLTA) (DLTA) (PI) (PI) (SG) (SG) (SG) (PI)
                 (PI) (SG) (DLTA) (DLTA) (PI) (PI) (PI) (PI) (SG)
                 (PHI) (PHI) (SG) (DLTA) (DLTA) (PI) (PI) (SG)
                 (DLTA) (DLTA) (PHI) (PHI) (?A) (?A) (PI) (PI)
                 (DLTA) (DLTA) (SG) (PI) (PI) (SG) (SG) (PI) (PI)
                 (SG) (SG) (PHI) (PHI) (DLTA) (DLTA) (PI) (PI)
                 (SG) (DLTA) (DLTA) (PI) (PI) (SG) (PI) (PI) (PHI)
                 (PHI) (?A) (?A) (DLTA) (DLTA) (PI) (PI) (SG) (SG)
                 (SG) (PHI) (PHI) (DLTA) (DLTA) (PI) (PI) (SG)
                 (PI) (PI) (SG) (DLTA) (DLTA) (PI) (PI) (SG) (SG)
                 (?A) (?A) (PHI) (PHI) (DLTA) (DLTA) (PI) (PI)
                 (SG) (PI) (PI) (SG) (SG) (DLTA) (DLTA) (PI) (PI)
                 (SG) (SG) (PI) (PI) (SG) (SG) (DLTA) (DLTA) (PI)
                 (PI) (SG) (PI) (PI) (SG) (SG) (PI) (PI) (SG) (SG)
                 (DLTA) (DLTA) (PI) (PI) (SG) (PI) (PI) (SG) (SG)
                 (PI) (PI) (SG) (SG) (PI) (PI) (SG) (SG) (PI) (PI)
                 (SG) (SG) (PI) (PI) (SG) (SG) (SG) (PI) (PI) (SG)
                 (SG) (SG) (SG) (SG)
 The electronic state of the initial guess is 1-SG.
 Leave Link  401 at Wed Apr  4 18:43:42 2018, MaxMem= 10737418240 cpu:              10.0 elap:               0.5
 (Enter /home1/apps/gaussian/16rA.03/g16/l502.exe)
 Keep R1 and R2 ints in memory in symmetry-blocked form, NReq=338797193.
 FoFCou: FMM=F IPFlag=           8 FMFlag=           0 FMFlg1=           0
         NFxFlg=           0 DoJE=F BraDBF=F KetDBF=F FulRan=T
         wScrn=  0.000000 ICntrl=       600 IOpCl=  0 I1Cent=           0 NGrid=           0
         NMat0=    1 NMatS0=  23220 NMatT0=    0 NMatD0=    1 NMtDS0=    0 NMtDT0=    0
 Petite list used in FoFCou.
 Restricted open shell SCF:
 Using DIIS extrapolation, IDIIS=  1040.
 NGot= 10737418240 LenX= 10598929943 LenY= 10598862938
 Requested convergence on RMS density matrix=1.00D-08 within 400 cycles.
 Requested convergence on MAX density matrix=1.00D-06.
 Requested convergence on             energy=1.00D-06.
 No special actions if energy rises.

 Cycle   1  Pass 1  IDiag  1:
 E= -195.423128795709    
 DIIS: error= 6.00D-01 at cycle   1 NSaved=   1.
 NSaved= 1 IEnMin= 1 EnMin= -195.423128795709     IErMin= 1 ErrMin= 6.00D-01
 ErrMax= 6.00D-01  0.00D+00 EMaxC= 1.00D-01 BMatC= 4.93D+01 BMatP= 4.93D+01
 IDIUse=3 WtCom= 0.00D+00 WtEn= 1.00D+00
 Coeff-Com:  0.100D+01
 Coeff-En:   0.100D+01
 Coeff:      0.100D+01
 Gap=     0.360 Goal=   None    Shift=    0.000
 GapD=    0.360 DampG=1.000 DampE=0.125 DampFc=0.1250 IDamp=-1.
 Damping current iteration by 1.25D-01
 RMSDP=4.24D-03 MaxDP=3.37D-01              OVMax= 7.21D-02

 Cycle   2  Pass 1  IDiag  1:
 E= -195.579442118357     Delta-E=       -0.156313322648 Rises=F Damp=T
 DIIS: error= 5.28D-01 at cycle   2 NSaved=   2.
 NSaved= 2 IEnMin= 2 EnMin= -195.579442118357     IErMin= 2 ErrMin= 5.28D-01
 ErrMax= 5.28D-01  0.00D+00 EMaxC= 1.00D-01 BMatC= 3.79D+01 BMatP= 4.93D+01
 IDIUse=3 WtCom= 0.00D+00 WtEn= 1.00D+00
 Coeff-Com: -0.714D+01 0.814D+01
 Coeff-En:   0.000D+00 0.100D+01
 Coeff:      0.000D+00 0.100D+01
 Gap=     0.354 Goal=   None    Shift=    0.000
 RMSDP=3.69D-03 MaxDP=2.95D-01 DE=-1.56D-01 OVMax= 7.32D-03

 Cycle   3  Pass 1  IDiag  1:
 E= -196.691357983308     Delta-E=       -1.111915864951 Rises=F Damp=F
 DIIS: error= 2.14D-02 at cycle   3 NSaved=   3.
 NSaved= 3 IEnMin= 3 EnMin= -196.691357983308     IErMin= 3 ErrMin= 2.14D-02
 ErrMax= 2.14D-02  0.00D+00 EMaxC= 1.00D-01 BMatC= 4.18D-02 BMatP= 3.79D+01
 IDIUse=3 WtCom= 7.86D-01 WtEn= 2.14D-01
 Large coefficients: NSaved=  3 BigCof=   18.45 CofMax=   10.00 Det=-8.32D-05
 Inversion failed.  Reducing to  2 matrices.
 Coeff-Com: -0.164D-01 0.102D+01
 Coeff-En:   0.000D+00 0.100D+01
 Coeff:     -0.129D-01 0.101D+01
 Gap=     0.316 Goal=   None    Shift=    0.000
 RMSDP=3.78D-04 MaxDP=1.69D-02 DE=-1.11D+00 OVMax= 5.54D-02

 Cycle   4  Pass 1  IDiag  1:
 E= -196.686522851066     Delta-E=        0.004835132241 Rises=F Damp=F
 DIIS: error= 3.01D-02 at cycle   4 NSaved=   3.
 NSaved= 3 IEnMin= 2 EnMin= -196.691357983308     IErMin= 2 ErrMin= 2.14D-02
 ErrMax= 3.01D-02  0.00D+00 EMaxC= 1.00D-01 BMatC= 5.94D-02 BMatP= 4.18D-02
 IDIUse=2 WtCom= 0.00D+00 WtEn= 1.00D+00
 Coeff-En:   0.000D+00 0.604D+00 0.396D+00
 Coeff:      0.000D+00 0.604D+00 0.396D+00
 Gap=     0.336 Goal=   None    Shift=    0.000
 RMSDP=2.09D-04 MaxDP=8.04D-03 DE= 4.84D-03 OVMax= 1.76D-02

 Cycle   5  Pass 1  IDiag  1:
 E= -196.701483663649     Delta-E=       -0.014960812582 Rises=F Damp=F
 DIIS: error= 2.40D-03 at cycle   5 NSaved=   4.
 NSaved= 4 IEnMin= 4 EnMin= -196.701483663649     IErMin= 4 ErrMin= 2.40D-03
 ErrMax= 2.40D-03  0.00D+00 EMaxC= 1.00D-01 BMatC= 2.27D-04 BMatP= 4.18D-02
 IDIUse=3 WtCom= 9.76D-01 WtEn= 2.40D-02
 Coeff-Com:  0.525D-03-0.501D-01-0.511D-01 0.110D+01
 Coeff-En:   0.000D+00 0.000D+00 0.000D+00 0.100D+01
 Coeff:      0.512D-03-0.489D-01-0.499D-01 0.110D+01
 Gap=     0.336 Goal=   None    Shift=    0.000
 RMSDP=8.87D-05 MaxDP=6.09D-03 DE=-1.50D-02 OVMax= 1.64D-02

 Cycle   6  Pass 1  IDiag  1:
 E= -196.702100477841     Delta-E=       -0.000616814193 Rises=F Damp=F
 DIIS: error= 1.34D-03 at cycle   6 NSaved=   5.
 NSaved= 5 IEnMin= 5 EnMin= -196.702100477841     IErMin= 5 ErrMin= 1.34D-03
 ErrMax= 1.34D-03  0.00D+00 EMaxC= 1.00D-01 BMatC= 1.01D-04 BMatP= 2.27D-04
 IDIUse=3 WtCom= 9.87D-01 WtEn= 1.34D-02
 Coeff-Com:  0.519D-04 0.609D-02-0.269D-01-0.444D+00 0.147D+01
 Coeff-En:   0.000D+00 0.000D+00 0.000D+00 0.000D+00 0.100D+01
 Coeff:      0.512D-04 0.601D-02-0.266D-01-0.438D+00 0.146D+01
 Gap=     0.336 Goal=   None    Shift=    0.000
 RMSDP=7.59D-05 MaxDP=5.26D-03 DE=-6.17D-04 OVMax= 1.63D-02

 Cycle   7  Pass 1  IDiag  1:
 E= -196.702464236900     Delta-E=       -0.000363759058 Rises=F Damp=F
 DIIS: error= 8.83D-04 at cycle   7 NSaved=   6.
 NSaved= 6 IEnMin= 6 EnMin= -196.702464236900     IErMin= 6 ErrMin= 8.83D-04
 ErrMax= 8.83D-04  0.00D+00 EMaxC= 1.00D-01 BMatC= 2.77D-05 BMatP= 1.01D-04
 IDIUse=3 WtCom= 9.91D-01 WtEn= 8.83D-03
 Coeff-Com: -0.304D-03 0.266D-01 0.145D-01-0.499D+00-0.199D-01 0.148D+01
 Coeff-En:   0.000D+00 0.000D+00 0.000D+00 0.000D+00 0.000D+00 0.100D+01
 Coeff:     -0.301D-03 0.264D-01 0.143D-01-0.494D+00-0.197D-01 0.147D+01
 Gap=     0.337 Goal=   None    Shift=    0.000
 RMSDP=7.41D-05 MaxDP=5.00D-03 DE=-3.64D-04 OVMax= 1.57D-02

 Cycle   8  Pass 1  IDiag  1:
 E= -196.702624859339     Delta-E=       -0.000160622440 Rises=F Damp=F
 DIIS: error= 2.40D-04 at cycle   8 NSaved=   7.
 NSaved= 7 IEnMin= 7 EnMin= -196.702624859339     IErMin= 7 ErrMin= 2.40D-04
 ErrMax= 2.40D-04  0.00D+00 EMaxC= 1.00D-01 BMatC= 1.34D-06 BMatP= 2.77D-05
 IDIUse=3 WtCom= 9.98D-01 WtEn= 2.40D-03
 Coeff-Com:  0.554D-04-0.617D-02 0.654D-03 0.159D+00-0.117D+00-0.491D+00
 Coeff-Com:  0.145D+01
 Coeff-En:   0.000D+00 0.000D+00 0.000D+00 0.000D+00 0.000D+00 0.000D+00
 Coeff-En:   0.100D+01
 Coeff:      0.553D-04-0.615D-02 0.653D-03 0.158D+00-0.116D+00-0.489D+00
 Coeff:      0.145D+01
 Gap=     0.337 Goal=   None    Shift=    0.000
 RMSDP=1.93D-05 MaxDP=1.11D-03 DE=-1.61D-04 OVMax= 4.36D-03

 Cycle   9  Pass 1  IDiag  1:
 E= -196.702635867517     Delta-E=       -0.000011008178 Rises=F Damp=F
 DIIS: error= 5.56D-05 at cycle   9 NSaved=   8.
 NSaved= 8 IEnMin= 8 EnMin= -196.702635867517     IErMin= 8 ErrMin= 5.56D-05
 ErrMax= 5.56D-05  0.00D+00 EMaxC= 1.00D-01 BMatC= 8.12D-08 BMatP= 1.34D-06
 IDIUse=1 WtCom= 1.00D+00 WtEn= 0.00D+00
 Coeff-Com:  0.402D-05-0.813D-04-0.119D-02-0.730D-02 0.563D-02 0.749D-01
 Coeff-Com: -0.406D+00 0.133D+01
 Coeff:      0.402D-05-0.813D-04-0.119D-02-0.730D-02 0.563D-02 0.749D-01
 Coeff:     -0.406D+00 0.133D+01
 Gap=     0.337 Goal=   None    Shift=    0.000
 RMSDP=3.17D-06 MaxDP=1.11D-04 DE=-1.10D-05 OVMax= 5.52D-04

 Cycle  10  Pass 1  IDiag  1:
 E= -196.702636225959     Delta-E=       -0.000000358442 Rises=F Damp=F
 DIIS: error= 1.07D-05 at cycle  10 NSaved=   9.
 NSaved= 9 IEnMin= 9 EnMin= -196.702636225959     IErMin= 9 ErrMin= 1.07D-05
 ErrMax= 1.07D-05  0.00D+00 EMaxC= 1.00D-01 BMatC= 7.59D-09 BMatP= 8.12D-08
 IDIUse=1 WtCom= 1.00D+00 WtEn= 0.00D+00
 Coeff-Com: -0.480D-05 0.477D-03-0.148D-03-0.107D-01 0.797D-02 0.289D-01
 Coeff-Com: -0.578D-01-0.214D+00 0.124D+01
 Coeff:     -0.480D-05 0.477D-03-0.148D-03-0.107D-01 0.797D-02 0.289D-01
 Coeff:     -0.578D-01-0.214D+00 0.124D+01
 Gap=     0.337 Goal=   None    Shift=    0.000
 RMSDP=7.91D-07 MaxDP=2.98D-05 DE=-3.58D-07 OVMax= 9.34D-05

 Cycle  11  Pass 1  IDiag  1:
 E= -196.702636244664     Delta-E=       -0.000000018705 Rises=F Damp=F
 DIIS: error= 2.25D-06 at cycle  11 NSaved=  10.
 NSaved=10 IEnMin=10 EnMin= -196.702636244664     IErMin=10 ErrMin= 2.25D-06
 ErrMax= 2.25D-06  0.00D+00 EMaxC= 1.00D-01 BMatC= 2.96D-10 BMatP= 7.59D-09
 IDIUse=1 WtCom= 1.00D+00 WtEn= 0.00D+00
 Coeff-Com:  0.103D-05-0.115D-03 0.965D-04 0.297D-02-0.350D-02-0.695D-02
 Coeff-Com:  0.249D-01 0.284D-01-0.428D+00 0.138D+01
 Coeff:      0.103D-05-0.115D-03 0.965D-04 0.297D-02-0.350D-02-0.695D-02
 Coeff:      0.249D-01 0.284D-01-0.428D+00 0.138D+01
 Gap=     0.337 Goal=   None    Shift=    0.000
 RMSDP=1.45D-07 MaxDP=4.61D-06 DE=-1.87D-08 OVMax= 1.85D-05

 Cycle  12  Pass 1  IDiag  1:
 E= -196.702636245617     Delta-E=       -0.000000000953 Rises=F Damp=F
 DIIS: error= 5.57D-07 at cycle  12 NSaved=  11.
 NSaved=11 IEnMin=11 EnMin= -196.702636245617     IErMin=11 ErrMin= 5.57D-07
 ErrMax= 5.57D-07  0.00D+00 EMaxC= 1.00D-01 BMatC= 1.36D-11 BMatP= 2.96D-10
 IDIUse=1 WtCom= 1.00D+00 WtEn= 0.00D+00
 Coeff-Com: -0.179D-06 0.214D-04-0.207D-04-0.591D-03 0.688D-03 0.189D-02
 Coeff-Com: -0.735D-02 0.700D-02 0.704D-01-0.458D+00 0.139D+01
 Coeff:     -0.179D-06 0.214D-04-0.207D-04-0.591D-03 0.688D-03 0.189D-02
 Coeff:     -0.735D-02 0.700D-02 0.704D-01-0.458D+00 0.139D+01
 Gap=     0.337 Goal=   None    Shift=    0.000
 RMSDP=4.42D-08 MaxDP=2.80D-06 DE=-9.53D-10 OVMax= 8.48D-06

 Cycle  13  Pass 1  IDiag  1:
 E= -196.702636245675     Delta-E=       -0.000000000058 Rises=F Damp=F
 DIIS: error= 8.60D-08 at cycle  13 NSaved=  12.
 NSaved=12 IEnMin=12 EnMin= -196.702636245675     IErMin=12 ErrMin= 8.60D-08
 ErrMax= 8.60D-08  0.00D+00 EMaxC= 1.00D-01 BMatC= 3.97D-13 BMatP= 1.36D-11
 IDIUse=1 WtCom= 1.00D+00 WtEn= 0.00D+00
 Coeff-Com:  0.300D-07-0.353D-05 0.494D-05 0.966D-04-0.146D-03-0.285D-03
 Coeff-Com:  0.104D-02-0.524D-03-0.175D-01 0.127D+00-0.503D+00 0.139D+01
 Coeff:      0.300D-07-0.353D-05 0.494D-05 0.966D-04-0.146D-03-0.285D-03
 Coeff:      0.104D-02-0.524D-03-0.175D-01 0.127D+00-0.503D+00 0.139D+01
 Gap=     0.337 Goal=   None    Shift=    0.000
 RMSDP=9.91D-09 MaxDP=6.90D-07 DE=-5.76D-11 OVMax= 5.97D-07

 SCF Done:  E(ROHF) =  -196.702636246     A.U. after   13 cycles
            NFock= 13  Conv=0.99D-08     -V/T= 2.5642
 <Sx>= 0.0000 <Sy>= 0.0000 <Sz>= 0.0000 <S**2>=-0.0000 S=-0.0000
 <L.S>=  0.00000000000    
 KE= 1.257492735499D+02 PE=-5.010179491378D+02 EE= 1.694257056990D+02
 Annihilation of the first spin contaminant:
 S**2 before annihilation    -0.0000,   after    -0.0000
 Leave Link  502 at Wed Apr  4 18:43:55 2018, MaxMem= 10737418240 cpu:             375.8 elap:              12.5
 (Enter /home1/apps/gaussian/16rA.03/g16/l801.exe)
 Windowed orbitals will be sorted by symmetry type.
 GenMOA:  NOpAll=  4 NOp2=4 NOpUse=  4 JSym2X=1
 FoFJK:  IHMeth= 1 ICntrl=       0 DoSepK=F KAlg= 0 I1Cent=           0 FoldK=F
 IRaf=         0 NMat=       1 IRICut=       1 DoRegI=T DoRafI=F ISym2E= 1 IDoP0=0 IntGTp=1.
 FoFCou: FMM=F IPFlag=           8 FMFlag=      100000 FMFlg1=           0
         NFxFlg=           0 DoJE=F BraDBF=F KetDBF=F FulRan=T
         wScrn=  0.000000 ICntrl=         0 IOpCl=  1 I1Cent=           0 NGrid=           0
         NMat0=    1 NMatS0=      1 NMatT0=    0 NMatD0=    1 NMtDS0=    0 NMtDT0=    0
 Petite list used in FoFCou.
 <Sx>= 0.0000 <Sy>= 0.0000 <Sz>= 0.0000 <S**2>=-0.0000 S=-0.0000
 Range of M.O.s used for correlation:     1   210
 NBasis=   215 NAE=    10 NBE=    10 NFC=     0 NFV=     0
 NROrb=    210 NOA=    10 NOB=    10 NVA=   200 NVB=   200

 **** Warning!!: The largest alpha MO coefficient is  0.13871819D+03


 **** Warning!!: The largest beta MO coefficient is  0.13871819D+03

 Singles contribution to E2=   -0.2556454307D-13
 Leave Link  801 at Wed Apr  4 18:43:59 2018, MaxMem= 10737418240 cpu:              98.2 elap:               3.1
 (Enter /home1/apps/gaussian/16rA.03/g16/l804.exe)
 Open-shell transformation, MDV= 10737418240 ITran=4 ISComp=2.
 Unit  1 TFree=       1397496 TCopy=       1185160.
 Semi-Direct transformation.
 ModeAB=           2 MOrb=            10 LenV=   10735959723
 LASXX=     11509746 LTotXX=    11509746 LenRXX=    11509746
 LTotAB=    11738602 MaxLAS=    70163100 LenRXY=    70163100
 NonZer=    71635200 LenScr=   108215808 LnRSAI=           0
 LnScr1=           0 LExtra=     6985099 Total=    196873753
 MaxDsk= 67108864000 SrtSym=           F ITran=            4
 DoSDTr:  NPSUse= 32
 JobTyp=1 Pass  1:  I=   1 to  10.
 (rs|ai) integrals will be sorted in core.
 Complete sort for first half transformation.
 First half transformation complete.
 Begin second half transformation for I=  10.
 Begin second half transformation for I=  10.
 Complete sort for second half transformation.
 Second half transformation complete.
 ModeAB=           2 MOrb=            10 LenV=   10735959723
 LASXX=     11509746 LTotXX=    11509746 LenRXX=    70163100
 LTotAB=    10644101 MaxLAS=    70163100 LenRXY=    10644101
 NonZer=    71635200 LenScr=   108215808 LnRSAI=           0
 LnScr1=           0 LExtra=    88657945 Total=    277680954
 MaxDsk= 67108864000 SrtSym=           F ITran=            4
 DoSDTr:  NPSUse= 32
 JobTyp=2 Pass  1:  I=   1 to  10.
 (rs|ai) integrals will be sorted in core.
 Complete sort for first half transformation.
 First half transformation complete.
 Begin second half transformation for I=  10.
 Begin second half transformation for I=  10.
 Complete sort for second half transformation.
 Second half transformation complete.
 Spin components of T(2) and E(2):
     alpha-alpha T2 =       0.2510973573D-01 E2=     -0.1765302460D+00
     alpha-beta  T2 =       0.1086392374D+00 E2=     -0.7810139489D+00
     beta-beta   T2 =       0.2510973573D-01 E2=     -0.1765302460D+00
 ANorm=    0.1076503000D+01
 E2 =    -0.1134074441D+01 EUMP2 =    -0.19783671068658D+03
 (S**2,0)=  0.00000D+00           (S**2,1)=  0.00000D+00
 E(PUHF)=      -0.19670263625D+03        E(PMP2)=      -0.19783671069D+03
 Leave Link  804 at Wed Apr  4 18:45:47 2018, MaxMem= 10737418240 cpu:            3450.6 elap:             107.9
 (Enter /home1/apps/gaussian/16rA.03/g16/l913.exe)
 CIDS:  MDV= 10737418240.
 IFCWin=0 IBDFC=1 NFBD=     0     0 NFCmp=     0     0 NFFFC=     0     0
 Using original routines for 1st iteration.
 Using DD4UQ or CC4UQ for 2nd and later iterations.
 Keep R2 and R3 ints in memory in symmetry-blocked form, NReq=338809507.
 FoFCou: FMM=F IPFlag=           8 FMFlag=           0 FMFlg1=           0
         NFxFlg=           0 DoJE=F BraDBF=F KetDBF=F FulRan=T
         wScrn=  0.000000 ICntrl=       600 IOpCl=  0 I1Cent=           0 NGrid=           0
         NMat0=    1 NMatS0=  23220 NMatT0=    0 NMatD0=    1 NMtDS0=    0 NMtDT0=    0
 Petite list used in FoFCou.
 CIDS: In Core Option IDoMem=           1.
 CCSD(T)
 =======
 Iterations= 150 Convergence= 0.100D-06
 Produce multiple copies of IABC intergrals
 Iteration Nr.   1
 **********************
 DD1Dir will call FoFMem   1 times, MxPair=       290
 NAB=   100 NAA=    45 NBB=    45.
 DD1Dir will call FoFMem   1 times, MxPair=       290
 NAB=   100 NAA=    45 NBB=    45.
 MP4(R+Q)= -0.22494568D+00
 Maximum subspace dimension=  5
 A-vector RMS=  3.8574443D-05 Max=  3.7538381D-03 conv= 1.00D-05.
 RLE energy=       -1.1498625950
 E3=        0.20937430D+00        EROMP3=      -0.19762733638D+03
 E4(SDQ)=  -0.16264394D+00        ROMP4(SDQ)=  -0.19778998032D+03
 VARIATIONAL ENERGIES WITH THE FIRST-ORDER WAVEFUNCTION:
 DE(Corr)=  -1.1496458     E(Corr)=     -197.85228206    
 NORM(A)=   0.10786338D+01
 Iteration Nr.   2
 **********************
 DD1Dir will call FoFMem   1 times, MxPair=       290
 NAB=   100 NAA=    45 NBB=    45.
 A-vector RMS=  5.6873485D-03 Max=  3.6193725D-02 conv= 1.00D-05.
 RLE energy=       -1.1115996583
 DE(Corr)= -0.92508804     E(CORR)=     -197.62772429     Delta= 2.25D-01
 NORM(A)=   0.10714890D+01
 Iteration Nr.   3
 **********************
 DD1Dir will call FoFMem   1 times, MxPair=       290
 NAB=   100 NAA=    45 NBB=    45.
 A-vector RMS=  4.0849742D-03 Max=  2.5578641D-02 conv= 1.00D-05.
 RLE energy=       -1.0601048085
 DE(Corr)= -0.94443834     E(CORR)=     -197.64707459     Delta=-1.94D-02
 NORM(A)=   0.10660801D+01
 Iteration Nr.   4
 **********************
 DD1Dir will call FoFMem   1 times, MxPair=       290
 NAB=   100 NAA=    45 NBB=    45.
 A-vector RMS=  2.8384710D-03 Max=  1.8845284D-02 conv= 1.00D-05.
 RLE energy=       -0.9573233835
 DE(Corr)= -0.97280283     E(CORR)=     -197.67543907     Delta=-2.84D-02
 NORM(A)=   0.10716021D+01
 Iteration Nr.   5
 **********************
 DD1Dir will call FoFMem   1 times, MxPair=       290
 NAB=   100 NAA=    45 NBB=    45.
 A-vector RMS=  2.1466132D-03 Max=  1.3332943D-02 conv= 1.00D-05.
 RLE energy=       -0.9962603792
 DE(Corr)=  -1.0433254     E(CORR)=     -197.74596167     Delta=-7.05D-02
 NORM(A)=   0.10757436D+01
 Iteration Nr.   6
 **********************
 DD1Dir will call FoFMem   1 times, MxPair=       290
 NAB=   100 NAA=    45 NBB=    45.
 A-vector RMS=  5.4814525D-04 Max=  4.2556897D-03 conv= 1.00D-05.
 RLE energy=       -1.0122533371
 DE(Corr)=  -1.0195842     E(CORR)=     -197.72222042     Delta= 2.37D-02
 NORM(A)=   0.10741642D+01
 Iteration Nr.   7
 **********************
 DD1Dir will call FoFMem   1 times, MxPair=       290
 NAB=   100 NAA=    45 NBB=    45.
 A-vector RMS=  2.0831494D-04 Max=  2.6741318D-03 conv= 1.00D-05.
 RLE energy=       -1.0096876446
 DE(Corr)=  -1.0087767     E(CORR)=     -197.71141290     Delta= 1.08D-02
 NORM(A)=   0.10748920D+01
 Iteration Nr.   8
 **********************
 DD1Dir will call FoFMem   1 times, MxPair=       290
 NAB=   100 NAA=    45 NBB=    45.
 A-vector RMS=  1.5618024D-04 Max=  2.0455511D-03 conv= 1.00D-05.
 RLE energy=       -1.0097907068
 DE(Corr)=  -1.0101819     E(CORR)=     -197.71281820     Delta=-1.41D-03
 NORM(A)=   0.10756791D+01
 Iteration Nr.   9
 **********************
 DD1Dir will call FoFMem   1 times, MxPair=       290
 NAB=   100 NAA=    45 NBB=    45.
 A-vector RMS=  8.2879010D-05 Max=  9.5593650D-04 conv= 1.00D-05.
 RLE energy=       -1.0099569399
 DE(Corr)=  -1.0099229     E(CORR)=     -197.71255910     Delta= 2.59D-04
 NORM(A)=   0.10764297D+01
 Iteration Nr.  10
 **********************
 DD1Dir will call FoFMem   1 times, MxPair=       290
 NAB=   100 NAA=    45 NBB=    45.
 A-vector RMS=  4.6229142D-05 Max=  5.4625631D-04 conv= 1.00D-05.
 RLE energy=       -1.0099840371
 DE(Corr)=  -1.0099604     E(CORR)=     -197.71259663     Delta=-3.75D-05
 NORM(A)=   0.10765496D+01
 Iteration Nr.  11
 **********************
 DD1Dir will call FoFMem   1 times, MxPair=       290
 NAB=   100 NAA=    45 NBB=    45.
 A-vector RMS=  2.5304632D-05 Max=  3.4952654D-04 conv= 1.00D-05.
 RLE energy=       -1.0098861708
 DE(Corr)=  -1.0099331     E(CORR)=     -197.71256935     Delta= 2.73D-05
 NORM(A)=   0.10765663D+01
 Iteration Nr.  12
 **********************
 DD1Dir will call FoFMem   1 times, MxPair=       290
 NAB=   100 NAA=    45 NBB=    45.
 A-vector RMS=  1.3019088D-05 Max=  1.1143152D-04 conv= 1.00D-05.
 RLE energy=       -1.0099960726
 DE(Corr)=  -1.0099886     E(CORR)=     -197.71262489     Delta=-5.55D-05
 NORM(A)=   0.10765370D+01
 Iteration Nr.  13
 **********************
 DD1Dir will call FoFMem   1 times, MxPair=       290
 NAB=   100 NAA=    45 NBB=    45.
 A-vector RMS=  8.4218839D-06 Max=  9.1935626D-05 conv= 1.00D-05.
 RLE energy=       -1.0099318323
 DE(Corr)=  -1.0099031     E(CORR)=     -197.71253939     Delta= 8.55D-05
 NORM(A)=   0.10765333D+01
 Iteration Nr.  14
 **********************
 DD1Dir will call FoFMem   1 times, MxPair=       290
 NAB=   100 NAA=    45 NBB=    45.
 A-vector RMS=  3.2440705D-06 Max=  2.9511410D-05 conv= 1.00D-05.
 RLE energy=       -1.0099406557
 DE(Corr)=  -1.0099492     E(CORR)=     -197.71258543     Delta=-4.60D-05
 NORM(A)=   0.10765243D+01
 Iteration Nr.  15
 **********************
 DD1Dir will call FoFMem   1 times, MxPair=       290
 NAB=   100 NAA=    45 NBB=    45.
 A-vector RMS=  1.8163027D-06 Max=  2.5895810D-05 conv= 1.00D-05.
 RLE energy=       -1.0099368059
 DE(Corr)=  -1.0099363     E(CORR)=     -197.71257253     Delta= 1.29D-05
 NORM(A)=   0.10765196D+01
 Iteration Nr.  16
 **********************
 DD1Dir will call FoFMem   1 times, MxPair=       290
 NAB=   100 NAA=    45 NBB=    45.
 A-vector RMS=  1.0009337D-06 Max=  1.4504121D-05 conv= 1.00D-05.
 RLE energy=       -1.0099374233
 DE(Corr)=  -1.0099381     E(CORR)=     -197.71257439     Delta=-1.86D-06
 NORM(A)=   0.10765151D+01
 Iteration Nr.  17
 **********************
 DD1Dir will call FoFMem   1 times, MxPair=       290
 NAB=   100 NAA=    45 NBB=    45.
 A-vector RMS=  7.8056563D-07 Max=  1.0938336D-05 conv= 1.00D-05.
 RLE energy=       -1.0099361135
 DE(Corr)=  -1.0099368     E(CORR)=     -197.71257302     Delta= 1.37D-06
 NORM(A)=   0.10765112D+01
 Iteration Nr.  18
 **********************
 DD1Dir will call FoFMem   1 times, MxPair=       290
 NAB=   100 NAA=    45 NBB=    45.
 A-vector RMS=  5.1395488D-07 Max=  6.1468555D-06 conv= 1.00D-05.
 RLE energy=       -1.0099371414
 DE(Corr)=  -1.0099372     E(CORR)=     -197.71257342     Delta=-4.05D-07
 NORM(A)=   0.10765071D+01
 Iteration Nr.  19
 **********************
 DD1Dir will call FoFMem   1 times, MxPair=       290
 NAB=   100 NAA=    45 NBB=    45.
 A-vector RMS=  3.2209204D-07 Max=  2.3525040D-06 conv= 1.00D-05.
 RLE energy=       -1.0099354262
 DE(Corr)=  -1.0099356     E(CORR)=     -197.71257181     Delta= 1.61D-06
 NORM(A)=   0.10765059D+01
 Iteration Nr.  20
 **********************
 DD1Dir will call FoFMem   1 times, MxPair=       290
 NAB=   100 NAA=    45 NBB=    45.
 A-vector RMS=  2.8601726D-07 Max=  3.5540744D-06 conv= 1.00D-05.
 RLE energy=       -1.0099368310
 DE(Corr)=  -1.0099372     E(CORR)=     -197.71257348     Delta=-1.67D-06
 NORM(A)=   0.10765047D+01
 Iteration Nr.  21
 **********************
 DD1Dir will call FoFMem   1 times, MxPair=       290
 NAB=   100 NAA=    45 NBB=    45.
 A-vector RMS=  1.2929587D-07 Max=  1.1145171D-06 conv= 1.00D-05.
 RLE energy=       -1.0099362742
 DE(Corr)=  -1.0099360     E(CORR)=     -197.71257225     Delta= 1.23D-06
 NORM(A)=   0.10765044D+01
 Iteration Nr.  22
 **********************
 DD1Dir will call FoFMem   1 times, MxPair=       290
 NAB=   100 NAA=    45 NBB=    45.
 A-vector RMS=  9.9412051D-08 Max=  1.0580472D-06 conv= 1.00D-05.
 RLE energy=       -1.0099363784
 DE(Corr)=  -1.0099364     E(CORR)=     -197.71257269     Delta=-4.38D-07
 NORM(A)=   0.10765042D+01
 Iteration Nr.  23
 **********************
 DD1Dir will call FoFMem   1 times, MxPair=       290
 NAB=   100 NAA=    45 NBB=    45.
 A-vector RMS=  5.3106098D-08 Max=  6.1679451D-07 conv= 1.00D-05.
 RLE energy=       -1.0099363840
 DE(Corr)=  -1.0099364     E(CORR)=     -197.71257264     Delta= 5.07D-08
 NORM(A)=   0.10765042D+01
 CI/CC converged in   23 iterations to DelEn= 5.07D-08 Conv= 1.00D-07 ErrA1= 5.31D-08 Conv= 1.00D-05
 Wavefunction amplitudes converged. E(Corr)=     -197.71257264    
 Largest amplitude= 6.34D-02
 Time for triples=    16890.97 seconds.
 T4(CCSD)= -0.46740345D-01
 T5(CCSD)=  0.76056932D-02
 CCSD(T)= -0.19775170729D+03
 Discarding MO integrals.
 Leave Link  913 at Wed Apr  4 18:59:25 2018, MaxMem= 10737418240 cpu:           26131.5 elap:             818.2
 (Enter /home1/apps/gaussian/16rA.03/g16/l601.exe)
 Copying SCF densities to generalized density rwf, IOpCl= 0 IROHF=1.

 **********************************************************************

            Population analysis using the SCF density.

 **********************************************************************

 Orbital symmetries:
       Occupied  (SG) (SG) (PI) (PI) (SG) (PI) (PI) (DLTA) (DLTA)
                 (SG)
       Virtual   (SG) (PI) (PI) (SG) (SG) (PI) (PI) (SG) (SG) (PI)
                 (PI) (DLTA) (DLTA) (SG) (SG) (PI) (PI) (SG) (PI)
                 (PI) (SG) (SG) (SG) (PI) (PI) (DLTA) (DLTA) (DLTA)
                 (DLTA) (SG) (PI) (PI) (PI) (PI) (SG) (SG) (PI)
                 (PI) (SG) (PHI) (PHI) (DLTA) (DLTA) (PI) (PI)
                 (SG) (DLTA) (DLTA) (SG) (PI) (PI) (SG) (PI) (PI)
                 (SG) (SG) (DLTA) (DLTA) (PI) (PI) (SG) (PI) (PI)
                 (PHI) (PHI) (DLTA) (DLTA) (SG) (PI) (PI) (SG)
                 (PHI) (PHI) (?A) (?A) (DLTA) (DLTA) (PI) (PI)
                 (DLTA) (DLTA) (SG) (SG) (PI) (PI) (PI) (PI) (SG)
                 (SG) (SG) (PHI) (PHI) (DLTA) (DLTA) (PI) (PI)
                 (SG) (PI) (PI) (SG) (SG) (DLTA) (DLTA) (PI) (PI)
                 (PHI) (PHI) (?A) (?A) (DLTA) (DLTA) (PI) (PI)
                 (SG) (SG) (PHI) (PHI) (DLTA) (DLTA) (PI) (PI)
                 (PI) (PI) (SG) (SG) (SG) (DLTA) (DLTA) (PI) (PI)
                 (SG) (PHI) (PHI) (?A) (?A) (DLTA) (DLTA) (PI)
                 (PI) (SG) (PI) (PI) (SG) (SG) (SG) (DLTA) (DLTA)
                 (PI) (PI) (SG) (PI) (PI) (SG) (SG) (PI) (PI) (SG)
                 (SG) (DLTA) (DLTA) (PI) (PI) (SG) (PI) (PI) (SG)
                 (SG) (PI) (PI) (SG) (DLTA) (DLTA) (PI) (PI) (SG)
                 (SG) (PI) (PI) (SG) (SG) (PI) (PI) (SG) (SG) (PI)
                 (PI) (SG) (SG) (PI) (PI) (SG) (SG) (SG) (PI) (PI)
                 (SG) (SG) (SG) (SG) (SG)
 The electronic state is 1-SG.
 Alpha  occ. eigenvalues --   -4.98366  -3.40379  -3.38158  -3.38158  -0.59143
 Alpha  occ. eigenvalues --   -0.54399  -0.54399  -0.52465  -0.52465  -0.32932
 Alpha virt. eigenvalues --    0.00815   0.02945   0.02945   0.03233   0.06113
 Alpha virt. eigenvalues --    0.10110   0.10110   0.10110   0.17284   0.19095
 Alpha virt. eigenvalues --    0.19095   0.20603   0.20603   0.22201   0.26020
 Alpha virt. eigenvalues --    0.31451   0.31451   0.35863   0.42353   0.42353
 Alpha virt. eigenvalues --    0.52985   0.66103   0.68968   0.70237   0.70237
 Alpha virt. eigenvalues --    0.73349   0.73349   0.93853   0.93853   0.95637
 Alpha virt. eigenvalues --    1.07278   1.07278   1.11381   1.11381   1.11946
 Alpha virt. eigenvalues --    1.46003   1.50288   1.50288   1.64816   1.67769
 Alpha virt. eigenvalues --    1.67769   1.90225   1.90225   2.03872   2.03872
 Alpha virt. eigenvalues --    2.10819   2.29798   2.29798   2.31139   2.67877
 Alpha virt. eigenvalues --    2.67877   2.93246   3.37486   3.37486   3.40504
 Alpha virt. eigenvalues --    3.60692   3.94368   3.94368   4.14969   4.14969
 Alpha virt. eigenvalues --    4.43780   4.61422   4.61422   4.80893   4.80893
 Alpha virt. eigenvalues --    4.94917   4.94917   5.08573   5.42531   5.42531
 Alpha virt. eigenvalues --    5.91506   6.48414   6.48414   6.49679   6.49679
 Alpha virt. eigenvalues --    6.54243   6.54243   6.71556   6.71556   6.75786
 Alpha virt. eigenvalues --    6.75786   7.52173   7.71363   7.75177   7.75177
 Alpha virt. eigenvalues --    8.20557   8.20557   8.23951   8.66392  11.37081
 Alpha virt. eigenvalues --   12.16850  12.16850  12.24912  12.24912  12.45718
 Alpha virt. eigenvalues --   12.45718  13.38179  16.80286  16.80286  16.96579
 Alpha virt. eigenvalues --   17.04447  17.06641  17.06641  17.20198  17.20198
 Alpha virt. eigenvalues --   17.26210  17.26210  17.27008  17.27008  17.37027
 Alpha virt. eigenvalues --   17.37027  17.83505  17.83505  18.01186  18.29078
 Alpha virt. eigenvalues --   31.14711  31.14711  31.20690  31.20690  31.32971
 Alpha virt. eigenvalues --   31.32971  31.63996  31.63996  31.64844  31.86277
 Alpha virt. eigenvalues --   33.16907  38.08987  38.08987  38.20393  38.20393
 Alpha virt. eigenvalues --   38.89462  40.59315  40.59315  40.59616  40.59616
 Alpha virt. eigenvalues --   40.65602  40.65602  40.93826  40.93826  41.09415
 Alpha virt. eigenvalues --   56.56782  56.56782  56.73306  60.11250  64.67656
 Alpha virt. eigenvalues --   80.93674  80.93674  81.03976  81.03976  81.60548
 Alpha virt. eigenvalues --   98.62584  98.62584  98.78811 107.90354 174.47264
 Alpha virt. eigenvalues --  174.47264 174.61882 200.10716 208.76037 208.76037
 Alpha virt. eigenvalues --  208.84190 208.84190 209.27645 323.27096 323.27096
 Alpha virt. eigenvalues --  323.41176 388.10550 633.29811 633.29811 633.42898
 Alpha virt. eigenvalues --  705.99963 705.99963 706.05298 706.05298 706.33372
 Alpha virt. eigenvalues --  785.611381315.894041315.894041316.015511656.54064
 Alpha virt. eigenvalues -- 2929.873682929.873682929.982933643.114497156.87961
 Alpha virt. eigenvalues -- 7156.879617156.974658398.55133********************
 Alpha virt. eigenvalues -- **************************************************
 Alpha virt. eigenvalues -- **************************************************
     Molecular Orbital Coefficients:
                           6         7         8         9        10
                           O         O         O         O         O
     Eigenvalues --    -0.54399  -0.54399  -0.52465  -0.52465  -0.32932
   1 1   Cu 1S          0.00000   0.00000   0.00000   0.00000   0.00000
   2        2S          0.00000   0.00000  -0.00000   0.00000  -0.00000
   3        3S          0.00000   0.00000   0.00000   0.00000   0.00000
   4        4S          0.00000   0.00000  -0.00000   0.00000  -0.00000
   5        5S          0.00000   0.00000   0.00000   0.00000   0.00000
   6        6S          0.00000   0.00000  -0.00000   0.00000  -0.00000
   7        7S          0.00000   0.00000   0.00000   0.00000   0.00001
   8        8S          0.00000   0.00000  -0.00000   0.00000  -0.00002
   9        9S          0.00000   0.00000   0.00000   0.00000   0.00007
  10       10S          0.00000   0.00000  -0.00000   0.00000  -0.00018
  11       11S          0.00000   0.00000   0.00000   0.00000   0.00048
  12       12S          0.00000   0.00000  -0.00000   0.00000  -0.00114
  13       13S          0.00000   0.00000   0.00000   0.00000  -0.00871
  14       14S          0.00000   0.00000  -0.00000   0.00000   0.08935
  15       15S          0.00000   0.00000  -0.00000   0.00000  -0.03113
  16       16S          0.00000   0.00000   0.00000   0.00000  -0.17285
  17       17S          0.00000   0.00000   0.00000   0.00000  -0.17210
  18       18S          0.00000   0.00000  -0.00000   0.00000   0.20666
  19       19S          0.00000   0.00000  -0.00000   0.00000   0.30659
  20       20S          0.00000   0.00000  -0.00000   0.00000   0.11402
  21       21S          0.00000   0.00000   0.00000   0.00000  -0.01762
  22       22S          0.00000   0.00000  -0.00000   0.00000  -0.01625
  23       23S          0.00000   0.00000  -0.00000   0.00000  -0.01196
  24       24PX        -0.00000   0.00000   0.00000   0.00000   0.00000
  25       24PY         0.00000  -0.00000   0.00000   0.00000   0.00000
  26       24PZ         0.00000   0.00000   0.00000   0.00000  -0.00000
  27       25PX         0.00000   0.00000   0.00000   0.00000   0.00000
  28       25PY         0.00000   0.00000   0.00000   0.00000   0.00000
  29       25PZ         0.00000   0.00000  -0.00000   0.00000   0.00000
  30       26PX        -0.00000   0.00000   0.00000   0.00000   0.00000
  31       26PY         0.00000  -0.00000   0.00000   0.00000   0.00000
  32       26PZ         0.00000   0.00000   0.00000   0.00000  -0.00000
  33       27PX         0.00000   0.00000   0.00000   0.00000   0.00000
  34       27PY         0.00000   0.00000   0.00000   0.00000   0.00000
  35       27PZ         0.00000   0.00000  -0.00000   0.00000   0.00000
  36       28PX        -0.00000   0.00000   0.00000   0.00000   0.00000
  37       28PY         0.00000  -0.00000   0.00000   0.00000   0.00000
  38       28PZ         0.00000   0.00000   0.00000   0.00000  -0.00000
  39       29PX         0.00000   0.00000   0.00000   0.00000   0.00000
  40       29PY         0.00000   0.00000   0.00000   0.00000   0.00000
  41       29PZ         0.00000   0.00000  -0.00000   0.00000   0.00001
  42       30PX        -0.00001   0.00000   0.00000   0.00000   0.00000
  43       30PY         0.00000  -0.00001   0.00000   0.00000   0.00000
  44       30PZ         0.00000   0.00000   0.00000   0.00000  -0.00005
  45       31PX         0.00003   0.00000   0.00000   0.00000   0.00000
  46       31PY         0.00000   0.00003   0.00000   0.00000   0.00000
  47       31PZ         0.00000   0.00000  -0.00000   0.00000   0.00028
  48       32PX        -0.00013   0.00000   0.00000   0.00000   0.00000
  49       32PY         0.00000  -0.00013   0.00000   0.00000   0.00000
  50       32PZ         0.00000   0.00000   0.00000   0.00000  -0.00285
  51       33PX        -0.00255   0.00000   0.00000   0.00000   0.00000
  52       33PY         0.00000  -0.00255   0.00000   0.00000   0.00000
  53       33PZ         0.00000   0.00000   0.00000   0.00000   0.01040
  54       34PX         0.00018   0.00000   0.00000   0.00000   0.00000
  55       34PY         0.00000   0.00018   0.00000   0.00000   0.00000
  56       34PZ         0.00000   0.00000  -0.00000   0.00000   0.03336
  57       35PX         0.01186   0.00000   0.00000   0.00000   0.00000
  58       35PY         0.00000   0.01186   0.00000   0.00000   0.00000
  59       35PZ         0.00000   0.00000  -0.00000   0.00000   0.05423
  60       36PX        -0.00354   0.00000   0.00000   0.00000   0.00000
  61       36PY         0.00000  -0.00354   0.00000   0.00000   0.00000
  62       36PZ         0.00000   0.00000   0.00000   0.00000   0.02587
  63       37PX         0.01338   0.00000   0.00000   0.00000   0.00000
  64       37PY         0.00000   0.01338   0.00000   0.00000   0.00000
  65       37PZ         0.00000   0.00000   0.00000   0.00000  -0.03497
  66       38PX         0.00164   0.00000   0.00000   0.00000   0.00000
  67       38PY         0.00000   0.00164   0.00000   0.00000   0.00000
  68       38PZ         0.00000   0.00000   0.00000   0.00000  -0.04389
  69       39PX        -0.00345   0.00000   0.00000   0.00000   0.00000
  70       39PY         0.00000  -0.00345   0.00000   0.00000   0.00000
  71       39PZ         0.00000   0.00000   0.00000   0.00000  -0.01205
  72       40PX         0.00187   0.00000   0.00000   0.00000   0.00000
  73       40PY         0.00000   0.00187   0.00000   0.00000   0.00000
  74       40PZ         0.00000   0.00000  -0.00000   0.00000  -0.00384
  75       41PX        -0.01342   0.00000   0.00000   0.00000   0.00000
  76       41PY         0.00000  -0.01342   0.00000   0.00000   0.00000
  77       41PZ         0.00000   0.00000   0.00000   0.00000  -0.00803
  78       42PX         0.00087   0.00000   0.00000   0.00000   0.00000
  79       42PY         0.00000   0.00087   0.00000   0.00000   0.00000
  80       42PZ         0.00000   0.00000   0.00000   0.00000   0.00163
  81       43D 0        0.00000   0.00000  -0.00000   0.00000  -0.00008
  82       43D+1        0.00019   0.00000   0.00000   0.00000   0.00000
  83       43D-1        0.00000   0.00019   0.00000   0.00000   0.00000
  84       43D+2        0.00000   0.00000   0.00018   0.00000  -0.00000
  85       43D-2        0.00000   0.00000   0.00000   0.00018   0.00000
  86       44D 0        0.00000   0.00000   0.00000   0.00000   0.00063
  87       44D+1       -0.00139   0.00000   0.00000   0.00000   0.00000
  88       44D-1        0.00000  -0.00139   0.00000   0.00000   0.00000
  89       44D+2        0.00000   0.00000  -0.00139   0.00000   0.00000
  90       44D-2        0.00000   0.00000   0.00000  -0.00139   0.00000
  91       45D 0        0.00000   0.00000  -0.00000   0.00000  -0.02262
  92       45D+1        0.04977   0.00000   0.00000   0.00000   0.00000
  93       45D-1        0.00000   0.04977   0.00000   0.00000   0.00000
  94       45D+2        0.00000   0.00000   0.05005   0.00000   0.00000
  95       45D-2        0.00000   0.00000   0.00000   0.05005   0.00000
  96       46D 0        0.00000   0.00000  -0.00000   0.00000  -0.14896
  97       46D+1        0.32447   0.00000   0.00000   0.00000   0.00000
  98       46D-1        0.00000   0.32447   0.00000   0.00000   0.00000
  99       46D+2        0.00000   0.00000   0.32838   0.00000   0.00000
 100       46D-2        0.00000   0.00000   0.00000   0.32838   0.00000
 101       47D 0        0.00000   0.00000  -0.00000   0.00000  -0.06934
 102       47D+1        0.14803   0.00000   0.00000   0.00000   0.00000
 103       47D-1        0.00000   0.14803   0.00000   0.00000   0.00000
 104       47D+2        0.00000   0.00000   0.14919   0.00000   0.00000
 105       47D-2        0.00000   0.00000   0.00000   0.14919   0.00000
 106       48D 0        0.00000   0.00000  -0.00000   0.00000  -0.15657
 107       48D+1        0.34219   0.00000   0.00000   0.00000   0.00000
 108       48D-1        0.00000   0.34219   0.00000   0.00000   0.00000
 109       48D+2        0.00000   0.00000   0.34219   0.00000   0.00000
 110       48D-2        0.00000   0.00000   0.00000   0.34219   0.00000
 111       49D 0        0.00000   0.00000  -0.00000   0.00000  -0.12294
 112       49D+1        0.27181   0.00000   0.00000   0.00000   0.00000
 113       49D-1        0.00000   0.27181   0.00000   0.00000   0.00000
 114       49D+2        0.00000   0.00000   0.27443   0.00000   0.00000
 115       49D-2        0.00000   0.00000   0.00000   0.27443   0.00000
 116       50D 0        0.00000   0.00000  -0.00000   0.00000  -0.06619
 117       50D+1        0.10848   0.00000   0.00000   0.00000   0.00000
 118       50D-1        0.00000   0.10848   0.00000   0.00000   0.00000
 119       50D+2        0.00000   0.00000   0.11227   0.00000  -0.00000
 120       50D-2        0.00000   0.00000   0.00000   0.11227   0.00000
 121       51D 0        0.00000   0.00000   0.00000   0.00000   0.04145
 122       51D+1       -0.08789   0.00000   0.00000   0.00000   0.00000
 123       51D-1        0.00000  -0.08789   0.00000   0.00000   0.00000
 124       51D+2        0.00000   0.00000  -0.09057   0.00000  -0.00000
 125       51D-2        0.00000   0.00000   0.00000  -0.09057   0.00000
 126       52D 0        0.00000   0.00000  -0.00000   0.00000  -0.08644
 127       52D+1        0.19218   0.00000   0.00000   0.00000   0.00000
 128       52D-1        0.00000   0.19218   0.00000   0.00000   0.00000
 129       52D+2        0.00000   0.00000   0.19424   0.00000   0.00000
 130       52D-2        0.00000   0.00000   0.00000   0.19424   0.00000
 131       53D 0        0.00000   0.00000  -0.00000   0.00000  -0.01523
 132       53D+1        0.01056   0.00000   0.00000   0.00000   0.00000
 133       53D-1        0.00000   0.01056   0.00000   0.00000   0.00000
 134       53D+2        0.00000   0.00000   0.00762   0.00000   0.00000
 135       53D-2        0.00000   0.00000   0.00000   0.00762   0.00000
 136       54F 0        0.00000   0.00000   0.00000   0.00000  -0.00029
 137       54F+1       -0.00002   0.00000   0.00000   0.00000   0.00000
 138       54F-1        0.00000  -0.00002   0.00000   0.00000   0.00000
 139       54F+2        0.00000   0.00000   0.00004   0.00000   0.00000
 140       54F-2        0.00000   0.00000   0.00000   0.00004   0.00000
 141       54F+3       -0.00000   0.00000   0.00000   0.00000   0.00000
 142       54F-3        0.00000  -0.00000   0.00000   0.00000   0.00000
 143       55F 0        0.00000   0.00000   0.00000   0.00000  -0.00068
 144       55F+1        0.00029   0.00000   0.00000   0.00000   0.00000
 145       55F-1        0.00000   0.00029   0.00000   0.00000   0.00000
 146       55F+2        0.00000   0.00000   0.00030   0.00000  -0.00000
 147       55F-2        0.00000   0.00000   0.00000   0.00030   0.00000
 148       55F+3       -0.00000   0.00000   0.00000   0.00000   0.00000
 149       55F-3        0.00000  -0.00000   0.00000   0.00000   0.00000
 150       56F 0        0.00000   0.00000   0.00000   0.00000  -0.00330
 151       56F+1       -0.00018   0.00000   0.00000   0.00000   0.00000
 152       56F-1        0.00000  -0.00018   0.00000   0.00000   0.00000
 153       56F+2        0.00000   0.00000   0.00115   0.00000   0.00000
 154       56F-2        0.00000   0.00000   0.00000   0.00115   0.00000
 155       56F+3        0.00000   0.00000   0.00000   0.00000   0.00000
 156       56F-3        0.00000  -0.00000   0.00000   0.00000   0.00000
 157       57F 0        0.00000   0.00000   0.00000   0.00000  -0.00852
 158       57F+1        0.00668   0.00000   0.00000   0.00000   0.00000
 159       57F-1        0.00000   0.00668   0.00000   0.00000   0.00000
 160       57F+2        0.00000   0.00000   0.00504   0.00000  -0.00000
 161       57F-2        0.00000   0.00000   0.00000   0.00504   0.00000
 162       57F+3        0.00000   0.00000   0.00000   0.00000   0.00000
 163       57F-3        0.00000  -0.00000   0.00000   0.00000   0.00000
 164       58G 0        0.00000   0.00000  -0.00000   0.00000  -0.00000
 165       58G+1        0.00013   0.00000   0.00000   0.00000   0.00000
 166       58G-1        0.00000   0.00013   0.00000   0.00000   0.00000
 167       58G+2        0.00000   0.00000   0.00013   0.00000  -0.00000
 168       58G-2        0.00000   0.00000   0.00000   0.00013   0.00000
 169       58G+3        0.00000   0.00000   0.00000   0.00000   0.00000
 170       58G-3        0.00000   0.00000   0.00000   0.00000   0.00000
 171       58G+4        0.00000   0.00000  -0.00000   0.00000   0.00000
 172       58G-4        0.00000   0.00000   0.00000  -0.00000   0.00000
 173       59G 0        0.00000   0.00000  -0.00000   0.00000  -0.00016
 174       59G+1        0.00014   0.00000   0.00000   0.00000   0.00000
 175       59G-1        0.00000   0.00014   0.00000   0.00000   0.00000
 176       59G+2        0.00000   0.00000   0.00006   0.00000   0.00000
 177       59G-2        0.00000   0.00000   0.00000   0.00006   0.00000
 178       59G+3       -0.00000   0.00000   0.00000   0.00000   0.00000
 179       59G-3        0.00000  -0.00000   0.00000   0.00000   0.00000
 180       59G+4        0.00000   0.00000  -0.00000   0.00000  -0.00000
 181       59G-4        0.00000   0.00000   0.00000  -0.00000   0.00000
 182       60G 0        0.00000   0.00000  -0.00000   0.00000  -0.00017
 183       60G+1        0.00201   0.00000   0.00000   0.00000   0.00000
 184       60G-1        0.00000   0.00201   0.00000   0.00000   0.00000
 185       60G+2        0.00000   0.00000   0.00132   0.00000  -0.00000
 186       60G-2        0.00000   0.00000   0.00000   0.00132   0.00000
 187       60G+3        0.00000   0.00000   0.00000   0.00000   0.00000
 188       60G-3        0.00000   0.00000   0.00000   0.00000   0.00000
 189       60G+4        0.00000   0.00000  -0.00000   0.00000   0.00000
 190       60G-4        0.00000   0.00000   0.00000  -0.00000   0.00000
 191 2   H  1S          0.00000   0.00000  -0.00000   0.00000   0.00201
 192        2S          0.00000   0.00000  -0.00000   0.00000   0.02229
 193        3S          0.00000   0.00000  -0.00000   0.00000   0.08582
 194        4S          0.00000   0.00000  -0.00000   0.00000   0.20840
 195        5S          0.00000   0.00000  -0.00000   0.00000   0.19963
 196        6S          0.00000   0.00000  -0.00000   0.00000   0.02883
 197        7PX        -0.00909   0.00000   0.00000   0.00000   0.00000
 198        7PY         0.00000  -0.00909   0.00000   0.00000   0.00000
 199        7PZ         0.00000   0.00000  -0.00000   0.00000  -0.00309
 200        8PX        -0.01475   0.00000   0.00000   0.00000   0.00000
 201        8PY         0.00000  -0.01475   0.00000   0.00000   0.00000
 202        8PZ         0.00000   0.00000  -0.00000   0.00000  -0.00300
 203        9PX         0.00481   0.00000   0.00000   0.00000   0.00000
 204        9PY         0.00000   0.00481   0.00000   0.00000   0.00000
 205        9PZ         0.00000   0.00000  -0.00000   0.00000  -0.00900
 206       10D 0        0.00000   0.00000  -0.00000   0.00000  -0.00261
 207       10D+1       -0.00419   0.00000   0.00000   0.00000   0.00000
 208       10D-1        0.00000  -0.00419   0.00000   0.00000   0.00000
 209       10D+2        0.00000   0.00000   0.00174   0.00000  -0.00000
 210       10D-2        0.00000   0.00000   0.00000   0.00174   0.00000
 211       11D 0        0.00000   0.00000  -0.00000   0.00000  -0.00261
 212       11D+1       -0.00177   0.00000   0.00000   0.00000   0.00000
 213       11D-1        0.00000  -0.00177   0.00000   0.00000   0.00000
 214       11D+2        0.00000   0.00000  -0.00105   0.00000  -0.00000
 215       11D-2        0.00000   0.00000   0.00000  -0.00105   0.00000
                          11        12        13        14        15
                           V         V         V         V         V
     Eigenvalues --     0.00815   0.02945   0.02945   0.03233   0.06113
   1 1   Cu 1S          0.00000   0.00000   0.00000   0.00000  -0.00000
   2        2S         -0.00000   0.00000   0.00000  -0.00000   0.00000
   3        3S          0.00000   0.00000   0.00000   0.00000  -0.00000
   4        4S         -0.00000   0.00000   0.00000  -0.00000   0.00000
   5        5S          0.00000   0.00000   0.00000   0.00000  -0.00000
   6        6S         -0.00000   0.00000   0.00000  -0.00000   0.00000
   7        7S          0.00000   0.00000   0.00000   0.00000  -0.00000
   8        8S         -0.00000   0.00000   0.00000  -0.00000   0.00001
   9        9S          0.00001   0.00000   0.00000   0.00000  -0.00004
  10       10S         -0.00003   0.00000   0.00000  -0.00001   0.00010
  11       11S          0.00007   0.00000   0.00000   0.00003  -0.00026
  12       12S         -0.00017   0.00000   0.00000  -0.00004   0.00086
  13       13S         -0.00027   0.00000   0.00000  -0.00165  -0.00581
  14       14S          0.00416   0.00000   0.00000   0.01517   0.04160
  15       15S         -0.00608   0.00000   0.00000   0.00518   0.05811
  16       16S         -0.00765   0.00000   0.00000  -0.06364  -0.23180
  17       17S         -0.01346   0.00000   0.00000  -0.03282  -0.09088
  18       18S         -0.11568   0.00000   0.00000  -0.28712   0.30029
  19       19S          1.12944   0.00000   0.00000  -1.34946  -3.17916
  20       20S         -0.80375   0.00000   0.00000  -1.71454   3.43796
  21       21S          0.00295   0.00000   0.00000  -0.00948  -0.05735
  22       22S         -0.00092   0.00000   0.00000   0.04183   0.19570
  23       23S          1.09083   0.00000   0.00000  -4.14838  -0.64494
  24       24PX         0.00000   0.00000   0.00000   0.00000   0.00000
  25       24PY         0.00000   0.00000   0.00000   0.00000   0.00000
  26       24PZ        -0.00000   0.00000   0.00000   0.00000   0.00000
  27       25PX         0.00000  -0.00000   0.00000   0.00000   0.00000
  28       25PY         0.00000   0.00000  -0.00000   0.00000   0.00000
  29       25PZ         0.00000   0.00000   0.00000  -0.00000  -0.00000
  30       26PX         0.00000   0.00000   0.00000   0.00000   0.00000
  31       26PY         0.00000   0.00000   0.00000   0.00000   0.00000
  32       26PZ        -0.00000   0.00000   0.00000   0.00000   0.00000
  33       27PX         0.00000  -0.00001   0.00000   0.00000   0.00000
  34       27PY         0.00000   0.00000  -0.00001   0.00000   0.00000
  35       27PZ         0.00000   0.00000   0.00000  -0.00001  -0.00000
  36       28PX         0.00000   0.00003   0.00000   0.00000   0.00000
  37       28PY         0.00000   0.00000   0.00003   0.00000   0.00000
  38       28PZ        -0.00001   0.00000   0.00000   0.00003   0.00001
  39       29PX         0.00000  -0.00010   0.00000   0.00000   0.00000
  40       29PY         0.00000   0.00000  -0.00010   0.00000   0.00000
  41       29PZ         0.00004   0.00000   0.00000  -0.00010  -0.00003
  42       30PX         0.00000   0.00034   0.00000   0.00000   0.00000
  43       30PY         0.00000   0.00000   0.00034   0.00000   0.00000
  44       30PZ        -0.00013   0.00000   0.00000   0.00032   0.00009
  45       31PX         0.00000  -0.00124   0.00000   0.00000   0.00000
  46       31PY         0.00000   0.00000  -0.00124   0.00000   0.00000
  47       31PZ         0.00038   0.00000   0.00000  -0.00116  -0.00043
  48       32PX         0.00000   0.00709   0.00000   0.00000   0.00000
  49       32PY         0.00000   0.00000   0.00709   0.00000   0.00000
  50       32PZ        -0.00099   0.00000   0.00000   0.00623   0.00376
  51       33PX         0.00000   0.03571   0.00000   0.00000   0.00000
  52       33PY         0.00000   0.00000   0.03571   0.00000   0.00000
  53       33PZ        -0.02873   0.00000   0.00000   0.04020  -0.00614
  54       34PX         0.00000  -0.04206   0.00000   0.00000   0.00000
  55       34PY         0.00000   0.00000  -0.04206   0.00000   0.00000
  56       34PZ        -0.00924   0.00000   0.00000  -0.03238  -0.03883
  57       35PX         0.00000  -0.18494   0.00000   0.00000   0.00000
  58       35PY         0.00000   0.00000  -0.18494   0.00000   0.00000
  59       35PZ         0.05194   0.00000   0.00000  -0.18450  -0.07373
  60       36PX         0.00000   0.02071   0.00000   0.00000   0.00000
  61       36PY         0.00000   0.00000   0.02071   0.00000   0.00000
  62       36PZ        -0.03919   0.00000   0.00000   0.03181  -0.02156
  63       37PX         0.00000  -0.02272   0.00000   0.00000   0.00000
  64       37PY         0.00000   0.00000  -0.02272   0.00000   0.00000
  65       37PZ         0.06682   0.00000   0.00000   0.02499  -0.04074
  66       38PX         0.00000   0.09300   0.00000   0.00000   0.00000
  67       38PY         0.00000   0.00000   0.09300   0.00000   0.00000
  68       38PZ        -0.18320   0.00000   0.00000   0.53913   0.83519
  69       39PX         0.00000  -0.27625   0.00000   0.00000   0.00000
  70       39PY         0.00000   0.00000  -0.27625   0.00000   0.00000
  71       39PZ         0.00162   0.00000   0.00000   0.77852   0.95703
  72       40PX         0.00000  -0.03333   0.00000   0.00000   0.00000
  73       40PY         0.00000   0.00000  -0.03333   0.00000   0.00000
  74       40PZ         0.02112   0.00000   0.00000  -0.03535  -0.00028
  75       41PX         0.00000   0.16931   0.00000   0.00000   0.00000
  76       41PY         0.00000   0.00000   0.16931   0.00000   0.00000
  77       41PZ        -0.08675   0.00000   0.00000   0.18257   0.02546
  78       42PX         0.00000   1.12080   0.00000   0.00000   0.00000
  79       42PY         0.00000   0.00000   1.12080   0.00000   0.00000
  80       42PZ         0.61166   0.00000   0.00000   1.76373  -1.30234
  81       43D 0        0.00002   0.00000   0.00000  -0.00000   0.00001
  82       43D+1        0.00000  -0.00000   0.00000   0.00000   0.00000
  83       43D-1        0.00000   0.00000  -0.00000   0.00000   0.00000
  84       43D+2       -0.00000   0.00000   0.00000   0.00000   0.00000
  85       43D-2        0.00000   0.00000   0.00000   0.00000   0.00000
  86       44D 0       -0.00017   0.00000   0.00000   0.00002  -0.00010
  87       44D+1        0.00000   0.00001   0.00000   0.00000   0.00000
  88       44D-1        0.00000   0.00000   0.00001   0.00000   0.00000
  89       44D+2        0.00000   0.00000   0.00000  -0.00000  -0.00000
  90       44D-2        0.00000   0.00000   0.00000   0.00000   0.00000
  91       45D 0        0.00551   0.00000   0.00000  -0.00088   0.00570
  92       45D+1        0.00000  -0.00030   0.00000   0.00000   0.00000
  93       45D-1        0.00000   0.00000  -0.00030   0.00000   0.00000
  94       45D+2        0.00000   0.00000   0.00000  -0.00000   0.00000
  95       45D-2        0.00000   0.00000   0.00000   0.00000   0.00000
  96       46D 0        0.03246   0.00000   0.00000  -0.00731   0.05030
  97       46D+1        0.00000  -0.00072   0.00000   0.00000   0.00000
  98       46D-1        0.00000   0.00000  -0.00072   0.00000   0.00000
  99       46D+2        0.00000   0.00000   0.00000  -0.00000  -0.00000
 100       46D-2        0.00000   0.00000   0.00000   0.00000   0.00000
 101       47D 0        0.00919   0.00000   0.00000   0.00383   0.03313
 102       47D+1        0.00000   0.00154   0.00000   0.00000   0.00000
 103       47D-1        0.00000   0.00000   0.00154   0.00000   0.00000
 104       47D+2        0.00000   0.00000   0.00000  -0.00000  -0.00000
 105       47D-2        0.00000   0.00000   0.00000   0.00000   0.00000
 106       48D 0        0.03956   0.00000   0.00000  -0.00394   0.03401
 107       48D+1        0.00000  -0.00238   0.00000   0.00000   0.00000
 108       48D-1        0.00000   0.00000  -0.00238   0.00000   0.00000
 109       48D+2       -0.00000   0.00000   0.00000   0.00000   0.00000
 110       48D-2        0.00000   0.00000   0.00000   0.00000   0.00000
 111       49D 0        0.01970   0.00000   0.00000  -0.02423   0.06501
 112       49D+1        0.00000  -0.00042   0.00000   0.00000   0.00000
 113       49D-1        0.00000   0.00000  -0.00042   0.00000   0.00000
 114       49D+2        0.00000   0.00000   0.00000  -0.00000  -0.00000
 115       49D-2        0.00000   0.00000   0.00000   0.00000   0.00000
 116       50D 0        0.06485   0.00000   0.00000  -0.05087  -0.09748
 117       50D+1        0.00000   0.00266   0.00000   0.00000   0.00000
 118       50D-1        0.00000   0.00000   0.00266   0.00000   0.00000
 119       50D+2       -0.00000   0.00000   0.00000   0.00000   0.00000
 120       50D-2        0.00000   0.00000   0.00000   0.00000   0.00000
 121       51D 0       -0.00619   0.00000   0.00000   0.00309  -0.02339
 122       51D+1        0.00000  -0.00074   0.00000   0.00000   0.00000
 123       51D-1        0.00000   0.00000  -0.00074   0.00000   0.00000
 124       51D+2       -0.00000   0.00000   0.00000   0.00000   0.00000
 125       51D-2        0.00000   0.00000   0.00000   0.00000   0.00000
 126       52D 0        0.02620   0.00000   0.00000  -0.01119   0.01487
 127       52D+1        0.00000  -0.00277   0.00000   0.00000   0.00000
 128       52D-1        0.00000   0.00000  -0.00277   0.00000   0.00000
 129       52D+2        0.00000   0.00000   0.00000  -0.00000  -0.00000
 130       52D-2        0.00000   0.00000   0.00000   0.00000   0.00000
 131       53D 0        0.10121   0.00000   0.00000  -0.17255  -0.01470
 132       53D+1        0.00000   0.11164   0.00000   0.00000   0.00000
 133       53D-1        0.00000   0.00000   0.11164   0.00000   0.00000
 134       53D+2        0.00000   0.00000   0.00000  -0.00000  -0.00000
 135       53D-2        0.00000   0.00000   0.00000   0.00000   0.00000
 136       54F 0        0.00013   0.00000   0.00000  -0.00001  -0.00018
 137       54F+1        0.00000  -0.00001   0.00000   0.00000   0.00000
 138       54F-1        0.00000   0.00000  -0.00001   0.00000   0.00000
 139       54F+2        0.00000   0.00000   0.00000   0.00000   0.00000
 140       54F-2        0.00000   0.00000   0.00000   0.00000   0.00000
 141       54F+3        0.00000   0.00000   0.00000   0.00000   0.00000
 142       54F-3        0.00000   0.00000  -0.00000   0.00000   0.00000
 143       55F 0       -0.00022   0.00000   0.00000  -0.00021   0.00110
 144       55F+1        0.00000  -0.00008   0.00000   0.00000   0.00000
 145       55F-1        0.00000   0.00000  -0.00008   0.00000   0.00000
 146       55F+2        0.00000   0.00000   0.00000  -0.00000  -0.00000
 147       55F-2        0.00000   0.00000   0.00000   0.00000   0.00000
 148       55F+3        0.00000  -0.00000   0.00000   0.00000   0.00000
 149       55F-3        0.00000   0.00000   0.00000   0.00000   0.00000
 150       56F 0        0.00190   0.00000   0.00000   0.00018  -0.00345
 151       56F+1        0.00000   0.00004   0.00000   0.00000   0.00000
 152       56F-1        0.00000   0.00000   0.00004   0.00000   0.00000
 153       56F+2       -0.00000   0.00000   0.00000   0.00000   0.00000
 154       56F-2        0.00000   0.00000   0.00000   0.00000   0.00000
 155       56F+3        0.00000   0.00000   0.00000   0.00000   0.00000
 156       56F-3        0.00000   0.00000  -0.00000   0.00000   0.00000
 157       57F 0        0.00010   0.00000   0.00000   0.00792   0.01129
 158       57F+1        0.00000   0.00063   0.00000   0.00000   0.00000
 159       57F-1        0.00000   0.00000   0.00063   0.00000   0.00000
 160       57F+2        0.00000   0.00000   0.00000  -0.00000  -0.00000
 161       57F-2        0.00000   0.00000   0.00000   0.00000   0.00000
 162       57F+3        0.00000   0.00000   0.00000   0.00000   0.00000
 163       57F-3        0.00000   0.00000   0.00000   0.00000   0.00000
 164       58G 0       -0.00001   0.00000   0.00000  -0.00005   0.00003
 165       58G+1        0.00000  -0.00002   0.00000   0.00000   0.00000
 166       58G-1        0.00000   0.00000  -0.00002   0.00000   0.00000
 167       58G+2        0.00000   0.00000   0.00000  -0.00000  -0.00000
 168       58G-2        0.00000   0.00000   0.00000   0.00000   0.00000
 169       58G+3        0.00000   0.00000   0.00000   0.00000   0.00000
 170       58G-3        0.00000   0.00000   0.00000   0.00000   0.00000
 171       58G+4        0.00000   0.00000   0.00000  -0.00000  -0.00000
 172       58G-4        0.00000   0.00000   0.00000   0.00000   0.00000
 173       59G 0        0.00008   0.00000   0.00000   0.00022  -0.00011
 174       59G+1        0.00000   0.00006   0.00000   0.00000   0.00000
 175       59G-1        0.00000   0.00000   0.00006   0.00000   0.00000
 176       59G+2       -0.00000   0.00000   0.00000   0.00000   0.00000
 177       59G-2        0.00000   0.00000   0.00000   0.00000   0.00000
 178       59G+3        0.00000  -0.00000   0.00000   0.00000   0.00000
 179       59G-3        0.00000   0.00000  -0.00000   0.00000   0.00000
 180       59G+4        0.00000   0.00000   0.00000  -0.00000  -0.00000
 181       59G-4        0.00000   0.00000   0.00000   0.00000   0.00000
 182       60G 0       -0.00022   0.00000   0.00000  -0.00084   0.00057
 183       60G+1        0.00000  -0.00023   0.00000   0.00000   0.00000
 184       60G-1        0.00000   0.00000  -0.00023   0.00000   0.00000
 185       60G+2        0.00000   0.00000   0.00000  -0.00000  -0.00000
 186       60G-2        0.00000   0.00000   0.00000   0.00000   0.00000
 187       60G+3        0.00000   0.00000   0.00000   0.00000   0.00000
 188       60G-3        0.00000   0.00000   0.00000   0.00000   0.00000
 189       60G+4        0.00000   0.00000   0.00000  -0.00000  -0.00000
 190       60G-4        0.00000   0.00000   0.00000   0.00000   0.00000
 191 2   H  1S         -0.00064   0.00000   0.00000   0.00019  -0.00076
 192        2S         -0.00730   0.00000   0.00000   0.00126  -0.00849
 193        3S         -0.02776   0.00000   0.00000   0.00722  -0.03220
 194        4S         -0.07410   0.00000   0.00000   0.11853  -0.07270
 195        5S         -0.82482   0.00000   0.00000   1.72896   1.97621
 196        6S          0.04397   0.00000   0.00000   5.64536  -1.68649
 197        7PX         0.00000   0.00272   0.00000   0.00000   0.00000
 198        7PY         0.00000   0.00000   0.00272   0.00000   0.00000
 199        7PZ         0.00213   0.00000   0.00000   0.00141  -0.00064
 200        8PX         0.00000  -0.00361   0.00000   0.00000   0.00000
 201        8PY         0.00000   0.00000  -0.00361   0.00000   0.00000
 202        8PZ         0.01834   0.00000   0.00000   0.06826  -0.02137
 203        9PX         0.00000   0.12407   0.00000   0.00000   0.00000
 204        9PY         0.00000   0.00000   0.12407   0.00000   0.00000
 205        9PZ        -0.15489   0.00000   0.00000   0.50305   0.55451
 206       10D 0        0.00155   0.00000   0.00000   0.00429  -0.00262
 207       10D+1        0.00000  -0.00051   0.00000   0.00000   0.00000
 208       10D-1        0.00000   0.00000  -0.00051   0.00000   0.00000
 209       10D+2        0.00000   0.00000   0.00000  -0.00000  -0.00000
 210       10D-2        0.00000   0.00000   0.00000   0.00000   0.00000
 211       11D 0        0.01517   0.00000   0.00000   0.02487  -0.03178
 212       11D+1        0.00000   0.00902   0.00000   0.00000   0.00000
 213       11D-1        0.00000   0.00000   0.00902   0.00000   0.00000
 214       11D+2       -0.00000   0.00000   0.00000   0.00000   0.00000
 215       11D-2        0.00000   0.00000   0.00000   0.00000   0.00000
     Alpha Density Matrix:
                           1         2         3         4         5
   1 1   Cu 1S          0.00000
   2        2S         -0.00000   0.00000
   3        3S          0.00000  -0.00000   0.00000
   4        4S         -0.00000   0.00000  -0.00000   0.00000
   5        5S          0.00000  -0.00000   0.00000  -0.00000   0.00000
   6        6S         -0.00000   0.00000  -0.00000   0.00000  -0.00000
   7        7S          0.00000  -0.00000   0.00000  -0.00000   0.00000
   8        8S         -0.00000   0.00000  -0.00000   0.00000  -0.00000
   9        9S          0.00000  -0.00000   0.00000  -0.00000   0.00000
  10       10S         -0.00000   0.00000  -0.00000   0.00000  -0.00000
  11       11S          0.00000  -0.00000   0.00000  -0.00000   0.00000
  12       12S         -0.00000   0.00000  -0.00000   0.00000  -0.00000
  13       13S         -0.00000   0.00000  -0.00000   0.00000  -0.00000
  14       14S          0.00000  -0.00000   0.00000  -0.00000   0.00000
  15       15S         -0.00000   0.00000  -0.00000   0.00000  -0.00000
  16       16S         -0.00000   0.00000  -0.00000   0.00000  -0.00000
  17       17S         -0.00000   0.00000  -0.00000   0.00000  -0.00000
  18       18S          0.00000  -0.00000   0.00000  -0.00000   0.00000
  19       19S          0.00000  -0.00000   0.00000  -0.00000   0.00000
  20       20S          0.00000  -0.00000   0.00000  -0.00000   0.00000
  21       21S         -0.00000   0.00000  -0.00000   0.00000  -0.00000
  22       22S         -0.00000   0.00000  -0.00000   0.00000  -0.00000
  23       23S         -0.00000   0.00000  -0.00000   0.00000  -0.00000
  24       24PX         0.00000   0.00000   0.00000   0.00000   0.00000
  25       24PY         0.00000   0.00000   0.00000   0.00000   0.00000
  26       24PZ        -0.00000   0.00000  -0.00000   0.00000  -0.00000
  27       25PX         0.00000   0.00000   0.00000   0.00000   0.00000
[...]
                         211       212       213       214       215
 211       11D 0        0.00002
 212       11D+1        0.00000   0.00001
 213       11D-1        0.00000   0.00000   0.00001
 214       11D+2        0.00000   0.00000   0.00000   0.00000
 215       11D-2        0.00000   0.00000   0.00000   0.00000   0.00000
     Gross orbital populations:
                         Total     Alpha     Beta      Spin
   1 1   Cu 1S         -0.00000  -0.00000  -0.00000   0.00000
   2        2S          0.00000   0.00000   0.00000   0.00000
   3        3S         -0.00000  -0.00000  -0.00000   0.00000
   4        4S          0.00000   0.00000   0.00000   0.00000
   5        5S         -0.00000  -0.00000  -0.00000   0.00000
   6        6S          0.00000   0.00000   0.00000   0.00000
   7        7S         -0.00000  -0.00000  -0.00000   0.00000
   8        8S          0.00000   0.00000   0.00000   0.00000
   9        9S         -0.00000  -0.00000  -0.00000   0.00000
  10       10S          0.00002   0.00001   0.00001   0.00000
  11       11S         -0.00012  -0.00006  -0.00006   0.00000
  12       12S          0.00039   0.00020   0.00020   0.00000
  13       13S          0.02308   0.01154   0.01154   0.00000
  14       14S         -0.35854  -0.17927  -0.17927   0.00000
  15       15S          0.17181   0.08590   0.08590   0.00000
  16       16S          1.35715   0.67858   0.67858   0.00000
  17       17S          0.70659   0.35329   0.35329   0.00000
  18       18S          0.27532   0.13766   0.13766   0.00000
  19       19S          0.48363   0.24182   0.24182   0.00000
  20       20S          0.16439   0.08219   0.08219   0.00000
  21       21S          0.07451   0.03725   0.03725   0.00000
  22       22S         -0.00122  -0.00061  -0.00061   0.00000
  23       23S         -0.01152  -0.00576  -0.00576   0.00000
  24       24PX        -0.00000  -0.00000  -0.00000   0.00000
  25       24PY        -0.00000  -0.00000  -0.00000   0.00000
  26       24PZ        -0.00000  -0.00000  -0.00000   0.00000
  27       25PX         0.00000   0.00000   0.00000   0.00000
  28       25PY         0.00000   0.00000   0.00000   0.00000
  29       25PZ         0.00000   0.00000   0.00000   0.00000
  30       26PX        -0.00000  -0.00000  -0.00000   0.00000
  31       26PY        -0.00000  -0.00000  -0.00000   0.00000
  32       26PZ        -0.00000  -0.00000  -0.00000   0.00000
  33       27PX         0.00000   0.00000   0.00000   0.00000
  34       27PY         0.00000   0.00000   0.00000   0.00000
  35       27PZ         0.00000   0.00000   0.00000   0.00000
  36       28PX        -0.00000  -0.00000  -0.00000   0.00000
  37       28PY        -0.00000  -0.00000  -0.00000   0.00000
  38       28PZ        -0.00000  -0.00000  -0.00000   0.00000
  39       29PX         0.00001   0.00000   0.00000   0.00000
  40       29PY         0.00001   0.00000   0.00000   0.00000
  41       29PZ         0.00001   0.00000   0.00000   0.00000
  42       30PX        -0.00005  -0.00003  -0.00003   0.00000
  43       30PY        -0.00005  -0.00003  -0.00003   0.00000
  44       30PZ        -0.00006  -0.00003  -0.00003   0.00000
  45       31PX         0.00080   0.00040   0.00040   0.00000
  46       31PY         0.00080   0.00040   0.00040   0.00000
  47       31PZ         0.00088   0.00044   0.00044   0.00000
  48       32PX        -0.01776  -0.00888  -0.00888   0.00000
  49       32PY        -0.01776  -0.00888  -0.00888   0.00000
  50       32PZ        -0.01870  -0.00935  -0.00935   0.00000
  51       33PX         0.18531   0.09265   0.09265   0.00000
  52       33PY         0.18531   0.09265   0.09265   0.00000
  53       33PZ         0.17946   0.08973   0.08973   0.00000
  54       34PX         0.53163   0.26582   0.26582   0.00000
  55       34PY         0.53163   0.26582   0.26582   0.00000
  56       34PZ         0.54450   0.27225   0.27225   0.00000
  57       35PX         0.67351   0.33676   0.33676   0.00000
  58       35PY         0.67351   0.33676   0.33676   0.00000
  59       35PZ         0.72007   0.36003   0.36003   0.00000
  60       36PX         0.47352   0.23676   0.23676   0.00000
  61       36PY         0.47352   0.23676   0.23676   0.00000
  62       36PZ         0.46356   0.23178   0.23178   0.00000
  63       37PX         0.04492   0.02246   0.02246   0.00000
  64       37PY         0.04492   0.02246   0.02246   0.00000
  65       37PZ         0.05701   0.02851   0.02851   0.00000
  66       38PX        -0.00075  -0.00038  -0.00038   0.00000
  67       38PY        -0.00075  -0.00038  -0.00038   0.00000
  68       38PZ         0.03816   0.01908   0.01908   0.00000
  69       39PX         0.00016   0.00008   0.00008   0.00000
  70       39PY         0.00016   0.00008   0.00008   0.00000
  71       39PZ         0.00870   0.00435   0.00435   0.00000
  72       40PX        -0.09280  -0.04640  -0.04640   0.00000
  73       40PY        -0.09280  -0.04640  -0.04640   0.00000
  74       40PZ        -0.08762  -0.04381  -0.04381   0.00000
  75       41PX         0.20138   0.10069   0.10069   0.00000
  76       41PY         0.20138   0.10069   0.10069   0.00000
  77       41PZ         0.15616   0.07808   0.07808   0.00000
  78       42PX        -0.00001  -0.00001  -0.00001   0.00000
  79       42PY        -0.00001  -0.00001  -0.00001   0.00000
  80       42PZ        -0.00040  -0.00020  -0.00020   0.00000
  81       43D 0        0.00001   0.00000   0.00000   0.00000
  82       43D+1        0.00001   0.00000   0.00000   0.00000
  83       43D-1        0.00001   0.00000   0.00000   0.00000
  84       43D+2        0.00001   0.00000   0.00000   0.00000
  85       43D-2        0.00001   0.00000   0.00000   0.00000
  86       44D 0       -0.00031  -0.00015  -0.00015   0.00000
  87       44D+1       -0.00036  -0.00018  -0.00018   0.00000
  88       44D-1       -0.00036  -0.00018  -0.00018   0.00000
  89       44D+2       -0.00036  -0.00018  -0.00018   0.00000
  90       44D-2       -0.00036  -0.00018  -0.00018   0.00000
  91       45D 0        0.03082   0.01541   0.01541   0.00000
  92       45D+1        0.03631   0.01816   0.01816   0.00000
  93       45D-1        0.03631   0.01816   0.01816   0.00000
  94       45D+2        0.03675   0.01838   0.01838   0.00000
  95       45D-2        0.03675   0.01838   0.01838   0.00000
  96       46D 0        0.36105   0.18053   0.18053   0.00000
  97       46D+1        0.42227   0.21114   0.21114   0.00000
  98       46D-1        0.42227   0.21114   0.21114   0.00000
  99       46D+2        0.42980   0.21490   0.21490   0.00000
 100       46D-2        0.42980   0.21490   0.21490   0.00000
 101       47D 0        0.22145   0.11072   0.11072   0.00000
 102       47D+1        0.25226   0.12613   0.12613   0.00000
 103       47D-1        0.25226   0.12613   0.12613   0.00000
 104       47D+2        0.25530   0.12765   0.12765   0.00000
 105       47D-2        0.25530   0.12765   0.12765   0.00000
 106       48D 0        0.54314   0.27157   0.27157   0.00000
 107       48D+1        0.60024   0.30012   0.30012   0.00000
 108       48D-1        0.60024   0.30012   0.30012   0.00000
 109       48D+2        0.60036   0.30018   0.30018   0.00000
 110       48D-2        0.60036   0.30018   0.30018   0.00000
 111       49D 0        0.36749   0.18375   0.18375   0.00000
 112       49D+1        0.38117   0.19059   0.19059   0.00000
 113       49D-1        0.38117   0.19059   0.19059   0.00000
 114       49D+2        0.38189   0.19095   0.19095   0.00000
 115       49D-2        0.38189   0.19095   0.19095   0.00000
 116       50D 0        0.08301   0.04151   0.04151   0.00000
 117       50D+1        0.08531   0.04266   0.04266   0.00000
 118       50D-1        0.08531   0.04266   0.04266   0.00000
 119       50D+2        0.08696   0.04348   0.04348   0.00000
 120       50D-2        0.08696   0.04348   0.04348   0.00000
 121       51D 0       -0.10483  -0.05241  -0.05241   0.00000
 122       51D+1       -0.12180  -0.06090  -0.06090   0.00000
 123       51D-1       -0.12180  -0.06090  -0.06090   0.00000
 124       51D+2       -0.12622  -0.06311  -0.06311   0.00000
 125       51D-2       -0.12622  -0.06311  -0.06311   0.00000
 126       52D 0        0.28049   0.14024   0.14024   0.00000
 127       52D+1        0.32844   0.16422   0.16422   0.00000
 128       52D-1        0.32844   0.16422   0.16422   0.00000
 129       52D+2        0.33331   0.16666   0.16666   0.00000
 130       52D-2        0.33331   0.16666   0.16666   0.00000
 131       53D 0        0.00311   0.00155   0.00155   0.00000
 132       53D+1        0.00319   0.00159   0.00159   0.00000
 133       53D-1        0.00319   0.00159   0.00159   0.00000
 134       53D+2        0.00226   0.00113   0.00113   0.00000
 135       53D-2        0.00226   0.00113   0.00113   0.00000
 136       54F 0        0.00000   0.00000   0.00000   0.00000
 137       54F+1        0.00000   0.00000   0.00000   0.00000
 138       54F-1        0.00000   0.00000   0.00000   0.00000
 139       54F+2        0.00000   0.00000   0.00000   0.00000
 140       54F-2        0.00000   0.00000   0.00000   0.00000
 141       54F+3        0.00000   0.00000   0.00000   0.00000
 142       54F-3        0.00000   0.00000   0.00000   0.00000
 143       55F 0        0.00004   0.00002   0.00002   0.00000
 144       55F+1        0.00000   0.00000   0.00000   0.00000
 145       55F-1        0.00000   0.00000   0.00000   0.00000
 146       55F+2        0.00000   0.00000   0.00000   0.00000
 147       55F-2        0.00000   0.00000   0.00000   0.00000
 148       55F+3        0.00000   0.00000   0.00000   0.00000
 149       55F-3        0.00000   0.00000   0.00000   0.00000
 150       56F 0        0.00060   0.00030   0.00030   0.00000
 151       56F+1        0.00001   0.00000   0.00000   0.00000
 152       56F-1        0.00001   0.00000   0.00000   0.00000
 153       56F+2        0.00001   0.00000   0.00000   0.00000
 154       56F-2        0.00001   0.00000   0.00000   0.00000
 155       56F+3        0.00000   0.00000   0.00000   0.00000
 156       56F-3       -0.00000  -0.00000  -0.00000   0.00000
 157       57F 0        0.00120   0.00060   0.00060   0.00000
 158       57F+1       -0.00005  -0.00002  -0.00002   0.00000
 159       57F-1       -0.00005  -0.00002  -0.00002   0.00000
 160       57F+2        0.00006   0.00003   0.00003   0.00000
 161       57F-2        0.00006   0.00003   0.00003   0.00000
 162       57F+3       -0.00000  -0.00000  -0.00000   0.00000
 163       57F-3        0.00000   0.00000   0.00000   0.00000
 164       58G 0        0.00000   0.00000   0.00000   0.00000
 165       58G+1        0.00000   0.00000   0.00000   0.00000
 166       58G-1        0.00000   0.00000   0.00000   0.00000
 167       58G+2        0.00000   0.00000   0.00000   0.00000
 168       58G-2        0.00000   0.00000   0.00000   0.00000
 169       58G+3        0.00000   0.00000   0.00000   0.00000
 170       58G-3       -0.00000  -0.00000  -0.00000   0.00000
 171       58G+4        0.00000   0.00000   0.00000   0.00000
 172       58G-4       -0.00000  -0.00000  -0.00000   0.00000
 173       59G 0        0.00000   0.00000   0.00000   0.00000
 174       59G+1        0.00000   0.00000   0.00000   0.00000
 175       59G-1        0.00000   0.00000   0.00000   0.00000
 176       59G+2        0.00000   0.00000   0.00000   0.00000
 177       59G-2        0.00000   0.00000   0.00000   0.00000
 178       59G+3        0.00000   0.00000   0.00000   0.00000
 179       59G-3        0.00000   0.00000   0.00000   0.00000
 180       59G+4        0.00000   0.00000   0.00000   0.00000
 181       59G-4        0.00000   0.00000   0.00000   0.00000
 182       60G 0        0.00011   0.00005   0.00005   0.00000
 183       60G+1        0.00002   0.00001   0.00001   0.00000
 184       60G-1        0.00002   0.00001   0.00001   0.00000
 185       60G+2        0.00000   0.00000   0.00000   0.00000
 186       60G-2        0.00000   0.00000   0.00000   0.00000
 187       60G+3        0.00000   0.00000   0.00000   0.00000
 188       60G-3       -0.00000  -0.00000  -0.00000   0.00000
 189       60G+4        0.00000   0.00000   0.00000   0.00000
 190       60G-4       -0.00000  -0.00000  -0.00000   0.00000
 191 2   H  1S          0.00090   0.00045   0.00045   0.00000
 192        2S          0.03030   0.01515   0.01515   0.00000
 193        3S          0.23258   0.11629   0.11629   0.00000
 194        4S          0.56170   0.28085   0.28085   0.00000
 195        5S          0.39198   0.19599   0.19599   0.00000
 196        6S          0.03422   0.01711   0.01711   0.00000
 197        7PX         0.00329   0.00164   0.00164   0.00000
 198        7PY         0.00329   0.00164   0.00164   0.00000
 199        7PZ         0.00860   0.00430   0.00430   0.00000
 200        8PX         0.00838   0.00419   0.00419   0.00000
 201        8PY         0.00838   0.00419   0.00419   0.00000
 202        8PZ         0.00540   0.00270   0.00270   0.00000
 203        9PX        -0.00100  -0.00050  -0.00050   0.00000
 204        9PY        -0.00100  -0.00050  -0.00050   0.00000
 205        9PZ        -0.00490  -0.00245  -0.00245   0.00000
 206       10D 0        0.00295   0.00148   0.00148   0.00000
 207       10D+1        0.00230   0.00115   0.00115   0.00000
 208       10D-1        0.00230   0.00115   0.00115   0.00000
 209       10D+2        0.00034   0.00017   0.00017   0.00000
 210       10D-2        0.00034   0.00017   0.00017   0.00000
 211       11D 0        0.00169   0.00084   0.00084   0.00000
 212       11D+1        0.00014   0.00007   0.00007   0.00000
 213       11D-1        0.00014   0.00007   0.00007   0.00000
 214       11D+2       -0.00047  -0.00024  -0.00024   0.00000
 215       11D-2       -0.00047  -0.00024  -0.00024   0.00000
          Condensed to atoms (all electrons):
               1          2
     1  Cu  18.273810   0.434854
     2  H    0.434854   0.856483
          Atomic-Atomic Spin Densities.
               1          2
     1  Cu   0.000000   0.000000
     2  H    0.000000   0.000000
 Mulliken charges and spin densities:
               1          2
     1  Cu   0.291337   0.000000
     2  H   -0.291337   0.000000
 Sum of Mulliken charges =   0.00000   0.00000
 Mulliken charges and spin densities with hydrogens summed into heavy atoms:
               1          2
     1  Cu   0.000000   0.000000
 Electronic spatial extent (au):  <R**2>=             35.7981
 Charge=             -0.0000 electrons
 Dipole moment (field-independent basis, Debye):
    X=              0.0000    Y=              0.0000    Z=              3.1677  Tot=              3.1677
 Quadrupole moment (field-independent basis, Debye-Ang):
   XX=            -14.1374   YY=            -14.1374   ZZ=            -14.3214
   XY=              0.0000   XZ=              0.0000   YZ=              0.0000
 Traceless Quadrupole moment (field-independent basis, Debye-Ang):
   XX=              0.0613   YY=              0.0613   ZZ=             -0.1227
   XY=              0.0000   XZ=              0.0000   YZ=              0.0000
 Octapole moment (field-independent basis, Debye-Ang**2):
  XXX=              0.0000  YYY=              0.0000  ZZZ=              9.1944  XYY=              0.0000
  XXY=              0.0000  XXZ=              2.6891  XZZ=              0.0000  YZZ=              0.0000
  YYZ=              2.6891  XYZ=              0.0000
 Hexadecapole moment (field-independent basis, Debye-Ang**3):
 XXXX=            -18.8100 YYYY=            -18.8100 ZZZZ=            -28.4084 XXXY=              0.0000
 XXXZ=              0.0000 YYYX=              0.0000 YYYZ=              0.0000 ZZZX=              0.0000
 ZZZY=              0.0000 XXYY=             -6.2700 XXZZ=             -7.8333 YYZZ=             -7.8333
 XXYZ=              0.0000 YYXZ=              0.0000 ZZXY=              0.0000
 N-N= 9.140333643164D+00 E-N=-5.010179462536D+02  KE= 1.257492735499D+02
 Symmetry A1   KE= 5.049535540880D+01
 Symmetry A2   KE= 1.811944098390D+01
 Symmetry B1   KE= 2.856723857882D+01
 Symmetry B2   KE= 2.856723857854D+01
 Symmetry A1   SP= 0.000000000000D+00
 Symmetry A2   SP= 0.000000000000D+00
 Symmetry B1   SP= 0.000000000000D+00
 Symmetry B2   SP= 0.000000000000D+00
 Orbital energies and kinetic energies (alpha):
                                 1                 2
   6         O                -0.543987          8.965092
   7         O                -0.543987          8.965092
   8         O                -0.524647          9.059720
   9         O                -0.524647          9.059720
  10         O                -0.329323          2.257383
  11         V                 0.008147          0.189852
  12         V                 0.029445          0.045576
  13         V                 0.029445          0.045576
  14         V                 0.032326          0.038381
  15         V                 0.061129          0.337756
 Total kinetic energy from orbitals= 1.257492735499D+02
                          Isotropic Fermi Contact Couplings
        Atom                 a.u.       MegaHertz       Gauss      10(-4) cm-1
     1  Cu(63)             0.00000       0.00000       0.00000       0.00000
     2  H(1)               0.00000       0.00000       0.00000       0.00000
 --------------------------------------------------------
       Center         ----  Spin Dipole Couplings  ----
                      3XX-RR        3YY-RR        3ZZ-RR
 --------------------------------------------------------
     1   Atom        0.000000      0.000000      0.000000
     2   Atom        0.000000      0.000000      0.000000
 --------------------------------------------------------
                        XY            XZ            YZ
 --------------------------------------------------------
     1   Atom        0.000000      0.000000      0.000000
     2   Atom        0.000000      0.000000      0.000000
 --------------------------------------------------------


 ---------------------------------------------------------------------------------
              Anisotropic Spin Dipole Couplings in Principal Axis System
 ---------------------------------------------------------------------------------

       Atom             a.u.   MegaHertz   Gauss  10(-4) cm-1        Axes

              Baa     0.0000     0.000     0.000     0.000  1.0000  0.0000  0.0000
     1 Cu(63) Bbb     0.0000     0.000     0.000     0.000 -0.0000  1.0000  0.0000
              Bcc     0.0000     0.000     0.000     0.000  0.0000  0.0000  1.0000
 
              Baa     0.0000     0.000     0.000     0.000  1.0000  0.0000  0.0000
     2 H(1)   Bbb     0.0000     0.000     0.000     0.000 -0.0000  1.0000  0.0000
              Bcc     0.0000     0.000     0.000     0.000  0.0000  0.0000  1.0000
 

 ---------------------------------------------------------------------------------

 No NMR shielding tensors so no spin-rotation constants.
 Leave Link  601 at Wed Apr  4 18:59:28 2018, MaxMem= 10737418240 cpu:              69.9 elap:               2.3
 (Enter /home1/apps/gaussian/16rA.03/g16/l9999.exe)

 Test job not archived.
 1\1\GINC-C448-071\SP\ROCCSD(T)-Full\Gen\Cu1H1\GWANG18\04-Apr-2018\0\\#
 P ROCCSD(T)=(MaxCyc=150, Full)/Gen SCF=(maxcycle=400) Pseudo=Read Inte
 gral(NoXCTest) Pop=Regular MaxDisk=500GB Guess=Read IOp(5/15=2)\\CuH\\
 0,1\Cu,0,0.,0.,0.\H,0,0.,0.,1.1\\Version=ES64L-G16RevA.03\State=1-SG\H
 F=-196.7026362\MP2=-197.8367107\MP3=-197.6273364\PUHF=-196.7026362\PMP
 2-0=-197.8367107\MP4SDQ=-197.7899803\CCSD=-197.7125726\CCSD(T)=-197.75
 17073\RMSD=9.908e-09\PG=C*V [C*(H1Cu1)]\\@


 MARY HAD A LITTLE LAMB
      HIS FEET WERE BLACK AS SOOT,
           AND EVERYWHERE THAT MARY WENT
                HIS SOOTY FOOT HE PUT.

                    -- NONAME
 Job cpu time:       0 days  8 hours 23 minutes 11.6 seconds.
 Elapsed time:       0 days  0 hours 15 minutes 46.6 seconds.
 File lengths (MBytes):  RWF=   3082 Int=      0 D2E=      0 Chk=      6 Scr=      1
 Normal termination of Gaussian 16 at Wed Apr  4 18:59:29 2018.
