 Entering Gaussian System, Link 0=g16
 Initial command:
 /home1/apps/gaussian/16rA.03/g16/l1.exe "/tmp/Gau-185609.inp" -scrdir="/tmp/"
 Entering Link 1 = /home1/apps/gaussian/16rA.03/g16/l1.exe PID=    185610.
  
 Copyright (c) 1988,1990,1992,1993,1995,1998,2003,2009,2016,
            Gaussian, Inc.  All Rights Reserved.
  
 This is part of the Gaussian(R) 16 program.  It is based on
 the Gaussian(R) 09 system (copyright 2009, Gaussian, Inc.),
 the Gaussian(R) 03 system (copyright 2003, Gaussian, Inc.),
 the Gaussian(R) 98 system (copyright 1998, Gaussian, Inc.),
 the Gaussian(R) 94 system (copyright 1995, Gaussian, Inc.),
 the Gaussian 92(TM) system (copyright 1992, Gaussian, Inc.),
 the Gaussian 90(TM) system (copyright 1990, Gaussian, Inc.),
 the Gaussian 88(TM) system (copyright 1988, Gaussian, Inc.),
 the Gaussian 86(TM) system (copyright 1986, Carnegie Mellon
 University), and the Gaussian 82(TM) system (copyright 1983,
 Carnegie Mellon University). Gaussian is a federally registered
 trademark of Gaussian, Inc.
  
 This software contains proprietary and confidential information,
 including trade secrets, belonging to Gaussian, Inc.
  
 This software is provided under written license and may be
 used, copied, transmitted, or stored only in accord with that
 written license.
  
 The following legend is applicable only to US Government
 contracts under FAR:
  
                    RESTRICTED RIGHTS LEGEND
  
 Use, reproduction and disclosure by the US Government is
 subject to restrictions as set forth in subparagraphs (a)
 and (c) of the Commercial Computer Software - Restricted
 Rights clause in FAR 52.227-19.
  
 Gaussian, Inc.
 340 Quinnipiac St., Bldg. 40, Wallingford CT 06492
  
  
 ---------------------------------------------------------------
 Warning -- This program may not be used in any manner that
 competes with the business of Gaussian, Inc. or will provide
 assistance to any competitor of Gaussian, Inc.  The licensee
 of this program is prohibited from giving any competitor of
 Gaussian, Inc. access to this program.  By using this program,
 the user acknowledges that Gaussian, Inc. is engaged in the
 business of creating and licensing software in the field of
 computational chemistry and represents and warrants to the
 licensee that it is not a competitor of Gaussian, Inc. and that
 it will not use this program in any manner prohibited above.
 ---------------------------------------------------------------
  

 Cite this work as:
 Gaussian 16, Revision A.03,
 M. J. Frisch, G. W. Trucks, H. B. Schlegel, G. E. Scuseria, 
 M. A. Robb, J. R. Cheeseman, G. Scalmani, V. Barone, 
 G. A. Petersson, H. Nakatsuji, X. Li, M. Caricato, A. V. Marenich, 
 J. Bloino, B. G. Janesko, R. Gomperts, B. Mennucci, H. P. Hratchian, 
 J. V. Ortiz, A. F. Izmaylov, J. L. Sonnenberg, D. Williams-Young, 
 F. Ding, F. Lipparini, F. Egidi, J. Goings, B. Peng, A. Petrone, 
 T. Henderson, D. Ranasinghe, V. G. Zakrzewski, J. Gao, N. Rega, 
 G. Zheng, W. Liang, M. Hada, M. Ehara, K. Toyota, R. Fukuda, 
 J. Hasegawa, M. Ishida, T. Nakajima, Y. Honda, O. Kitao, H. Nakai, 
 T. Vreven, K. Throssell, J. A. Montgomery, Jr., J. E. Peralta, 
 F. Ogliaro, M. J. Bearpark, J. J. Heyd, E. N. Brothers, K. N. Kudin, 
 V. N. Staroverov, T. A. Keith, R. Kobayashi, J. Normand, 
 K. Raghavachari, A. P. Rendell, J. C. Burant, S. S. Iyengar, 
 J. Tomasi, M. Cossi, J. M. Millam, M. Klene, C. Adamo, R. Cammi, 
 J. W. Ochterski, R. L. Martin, K. Morokuma, O. Farkas, 
 J. B. Foresman, and D. J. Fox, Gaussian, Inc., Wallingford CT, 2016.
 
 ******************************************
 Gaussian 16:  ES64L-G16RevA.03 25-Dec-2016
                 6-Mar-2018 
 ******************************************
 %MEM=80GB
 %CPU=0-15
 SetSPE:  set environment variable "MP_BIND" = "yes"
 SetSPE:  set environment variable "MP_BLIST" = "0,1,2,3,4,5,6,7,8,9,10,11,12,13,14,15"
 Will use up to   16 processors via shared memory.
 %RWF=/scratch/04843/aannabe/gaussian/
 %Int=/scratch/04843/aannabe/gaussian/
 %D2E=/scratch/04843/aannabe/gaussian/
 %NoSave
 %CHK=Sc
 ----------------------------------------------------------------------
 #P ROCCSD(T)=(maxcyc=150, Full)/Gen 5d 7f SCF=(maxcycles=300, NoVarAcc
 , VShift=200) MaxDisk=100GB Pop=Regular Pseudo=Read Guess=Read
 ----------------------------------------------------------------------
 1/38=1,172=1/1;
 2/12=2,17=6,18=5,40=1/2;
 3/5=7,8=11,11=2,16=1,17=8,25=1,30=1,116=101/1,2,3;
 4/5=1/1;
 5/5=2,7=300,10=200,38=6/2;
 8/5=-1,6=4,9=120000,10=90/1,4;
 9/5=7,6=150,14=2/13;
 6//1;
 99/5=1,9=1/99;
 Leave Link    1 at Tue Mar  6 11:20:20 2018, MaxMem= 10737418240 cpu:               3.8 elap:               0.2
 (Enter /home1/apps/gaussian/16rA.03/g16/l101.exe)
 --
 Sc
 --
 Symbolic Z-matrix:
 Charge =  0 Multiplicity = 2
 Sc                    0.        0.        0. 
 
 ITRead=  0
 MicOpt= -1
 NAtoms=      1 NQM=        1 NQMF=       0 NMMI=      0 NMMIF=      0
                NMic=       0 NMicF=      0.
                    Isotopes and Nuclear Properties:
 (Nuclear quadrupole moments (NQMom) in fm**2, nuclear magnetic moments (NMagM)
  in nuclear magnetons)

  Atom         1
 IAtWgt=          45
 AtmWgt=  44.9559136
 NucSpn=           7
 AtZEff=  -0.0000000
 NQMom=  -22.0000000
 NMagM=    4.7564830
 AtZNuc=  21.0000000
 Leave Link  101 at Tue Mar  6 11:20:20 2018, MaxMem= 10737418240 cpu:               1.5 elap:               0.1
 (Enter /home1/apps/gaussian/16rA.03/g16/l202.exe)
                          Input orientation:                          
 ---------------------------------------------------------------------
 Center     Atomic      Atomic             Coordinates (Angstroms)
 Number     Number       Type             X           Y           Z
 ---------------------------------------------------------------------
      1         21           0        0.000000    0.000000    0.000000
 ---------------------------------------------------------------------
 Stoichiometry    Sc(2)
 Framework group  OH[O(Sc)]
 Deg. of freedom     0
 Full point group                 OH      NOp  48
 Largest Abelian subgroup         D2H     NOp   8
 Largest concise Abelian subgroup C1      NOp   1
                         Standard orientation:                         
 ---------------------------------------------------------------------
 Center     Atomic      Atomic             Coordinates (Angstroms)
 Number     Number       Type             X           Y           Z
 ---------------------------------------------------------------------
      1         21           0        0.000000    0.000000    0.000000
 ---------------------------------------------------------------------
 Leave Link  202 at Tue Mar  6 11:20:20 2018, MaxMem= 10737418240 cpu:               0.6 elap:               0.1
 (Enter /home1/apps/gaussian/16rA.03/g16/l301.exe)
 General basis read from cards:  (5D, 7F)
 Centers:       1
 S 1 1.00
     Exponent=  8.4179090000D+06 Coefficients=  1.0000000000D+00
 S 1 1.00
     Exponent=  1.2603120000D+06 Coefficients=  1.0000000000D+00
 S 1 1.00
     Exponent=  2.8679840000D+05 Coefficients=  1.0000000000D+00
 S 1 1.00
     Exponent=  8.1234690000D+04 Coefficients=  1.0000000000D+00
 S 1 1.00
     Exponent=  2.6503110000D+04 Coefficients=  1.0000000000D+00
 S 1 1.00
     Exponent=  9.5687010000D+03 Coefficients=  1.0000000000D+00
 S 1 1.00
     Exponent=  3.7324970000D+03 Coefficients=  1.0000000000D+00
 S 1 1.00
     Exponent=  1.5484220000D+03 Coefficients=  1.0000000000D+00
 S 1 1.00
     Exponent=  6.7554200000D+02 Coefficients=  1.0000000000D+00
 S 1 1.00
     Exponent=  3.0725220000D+02 Coefficients=  1.0000000000D+00
 S 1 1.00
     Exponent=  1.4466720000D+02 Coefficients=  1.0000000000D+00
 S 1 1.00
     Exponent=  7.0043870000D+01 Coefficients=  1.0000000000D+00
 S 1 1.00
     Exponent=  3.4322500000D+01 Coefficients=  1.0000000000D+00
 S 1 1.00
     Exponent=  1.5612240000D+01 Coefficients=  1.0000000000D+00
 S 1 1.00
     Exponent=  7.7437220000D+00 Coefficients=  1.0000000000D+00
 S 1 1.00
     Exponent=  3.8442600000D+00 Coefficients=  1.0000000000D+00
 S 1 1.00
     Exponent=  1.7197660000D+00 Coefficients=  1.0000000000D+00
 S 1 1.00
     Exponent=  8.3252300000D-01 Coefficients=  1.0000000000D+00
 S 1 1.00
     Exponent=  3.8556400000D-01 Coefficients=  1.0000000000D+00
 S 1 1.00
     Exponent=  9.6700000000D-02 Coefficients=  1.0000000000D+00
 S 1 1.00
     Exponent=  4.7778000000D-02 Coefficients=  1.0000000000D+00
 S 1 1.00
     Exponent=  2.2363000000D-02 Coefficients=  1.0000000000D+00
 S 1 1.00
     Exponent=  3.1672000000D+00 Coefficients=  1.0000000000D+00
 S 1 1.00
     Exponent=  1.6879000000D+00 Coefficients=  1.0000000000D+00
 S 1 1.00
     Exponent=  1.0470000000D-02 Coefficients=  1.0000000000D+00
 P 1 1.00
     Exponent=  2.2640970000D+04 Coefficients=  1.0000000000D+00
 P 1 1.00
     Exponent=  5.3575450000D+03 Coefficients=  1.0000000000D+00
 P 1 1.00
     Exponent=  1.7403730000D+03 Coefficients=  1.0000000000D+00
 P 1 1.00
     Exponent=  6.6661630000D+02 Coefficients=  1.0000000000D+00
 P 1 1.00
     Exponent=  2.8363840000D+02 Coefficients=  1.0000000000D+00
 P 1 1.00
     Exponent=  1.2979760000D+02 Coefficients=  1.0000000000D+00
 P 1 1.00
     Exponent=  6.2679560000D+01 Coefficients=  1.0000000000D+00
 P 1 1.00
     Exponent=  3.1504410000D+01 Coefficients=  1.0000000000D+00
 P 1 1.00
     Exponent=  1.6235250000D+01 Coefficients=  1.0000000000D+00
 P 1 1.00
     Exponent=  8.5183240000D+00 Coefficients=  1.0000000000D+00
 P 1 1.00
     Exponent=  4.5190050000D+00 Coefficients=  1.0000000000D+00
 P 1 1.00
     Exponent=  2.3665910000D+00 Coefficients=  1.0000000000D+00
 P 1 1.00
     Exponent=  1.2152350000D+00 Coefficients=  1.0000000000D+00
 P 1 1.00
     Exponent=  6.1434800000D-01 Coefficients=  1.0000000000D+00
 P 1 1.00
     Exponent=  3.0074500000D-01 Coefficients=  1.0000000000D+00
 P 1 1.00
     Exponent=  1.2583400000D-01 Coefficients=  1.0000000000D+00
 P 1 1.00
     Exponent=  5.4719000000D-02 Coefficients=  1.0000000000D+00
 P 1 1.00
     Exponent=  2.3488000000D-02 Coefficients=  1.0000000000D+00
 P 1 1.00
     Exponent=  4.0719000000D+00 Coefficients=  1.0000000000D+00
 P 1 1.00
     Exponent=  9.9940000000D-01 Coefficients=  1.0000000000D+00
 P 1 1.00
     Exponent=  1.0080000000D-02 Coefficients=  1.0000000000D+00
 D 1 1.00
     Exponent=  1.4802800000D+02 Coefficients=  1.0000000000D+00
 D 1 1.00
     Exponent=  4.3852800000D+01 Coefficients=  1.0000000000D+00
 D 1 1.00
     Exponent=  1.6664600000D+01 Coefficients=  1.0000000000D+00
 D 1 1.00
     Exponent=  6.9789300000D+00 Coefficients=  1.0000000000D+00
 D 1 1.00
     Exponent=  3.1236900000D+00 Coefficients=  1.0000000000D+00
 D 1 1.00
     Exponent=  1.4468700000D+00 Coefficients=  1.0000000000D+00
 D 1 1.00
     Exponent=  6.6740700000D-01 Coefficients=  1.0000000000D+00
 D 1 1.00
     Exponent=  3.0163300000D-01 Coefficients=  1.0000000000D+00
 D 1 1.00
     Exponent=  1.3267400000D-01 Coefficients=  1.0000000000D+00
 D 1 1.00
     Exponent=  5.6739000000D-02 Coefficients=  1.0000000000D+00
 D 1 1.00
     Exponent=  2.3175000000D-02 Coefficients=  1.0000000000D+00
 D 1 1.00
     Exponent=  2.1282000000D+00 Coefficients=  1.0000000000D+00
 D 1 1.00
     Exponent=  9.6910000000D-01 Coefficients=  1.0000000000D+00
 D 1 1.00
     Exponent=  9.4700000000D-03 Coefficients=  1.0000000000D+00
 F 1 1.00
     Exponent=  2.7590000000D+00 Coefficients=  1.0000000000D+00
 F 1 1.00
     Exponent=  1.0490000000D+00 Coefficients=  1.0000000000D+00
 F 1 1.00
     Exponent=  3.9890000000D-01 Coefficients=  1.0000000000D+00
 F 1 1.00
     Exponent=  1.1060000000D-01 Coefficients=  1.0000000000D+00
 F 1 1.00
     Exponent=  3.0670000000D-02 Coefficients=  1.0000000000D+00
 G 1 1.00
     Exponent=  2.4852000000D+00 Coefficients=  1.0000000000D+00
 G 1 1.00
     Exponent=  9.0670000000D-01 Coefficients=  1.0000000000D+00
 G 1 1.00
     Exponent=  2.5300000000D-01 Coefficients=  1.0000000000D+00
 G 1 1.00
     Exponent=  7.0600000000D-02 Coefficients=  1.0000000000D+00
 H 1 1.00
     Exponent=  2.0405000000D+00 Coefficients=  1.0000000000D+00
 H 1 1.00
     Exponent=  4.9340000000D-01 Coefficients=  1.0000000000D+00
 H 1 1.00
     Exponent=  1.1931000000D-01 Coefficients=  1.0000000000D+00
 ****
 ======================================================================================================
                                       Pseudopotential Parameters
 ======================================================================================================
  Center     Atomic      Valence      Angular      Power
  Number     Number     Electrons     Momentum     of R      Exponent        Coefficient   SO-Coeffient
 ======================================================================================================
    1         21           11
                                      D and up 
                                                     1       16.0329867       11.00000000    0.00000000
                                                     3       14.0886961      176.36285342    0.00000000
                                                     2       11.9069766      -83.68643284    0.00000000
                                                     2        3.6497651        0.44399753    0.00000000
                                      S - D
                                                     2       11.5075950      153.96296864    0.00000000
                                                     2        5.0410402       14.92860892    0.00000000
                                      P - D
                                                     2       11.4627925       97.21711637    0.00000000
                                                     2        4.7640754       10.84896441    0.00000000
 ======================================================================================================
 Ernie: Thresh=  0.10000D-02 Tol=  0.10000D-05 Strict=F.
 There are    91 symmetry adapted cartesian basis functions of AG  symmetry.
 There are    26 symmetry adapted cartesian basis functions of B1G symmetry.
 There are    26 symmetry adapted cartesian basis functions of B2G symmetry.
 There are    26 symmetry adapted cartesian basis functions of B3G symmetry.
 There are    14 symmetry adapted cartesian basis functions of AU  symmetry.
 There are    54 symmetry adapted cartesian basis functions of B1U symmetry.
 There are    54 symmetry adapted cartesian basis functions of B2U symmetry.
 There are    54 symmetry adapted cartesian basis functions of B3U symmetry.
 There are    65 symmetry adapted basis functions of AG  symmetry.
 There are    22 symmetry adapted basis functions of B1G symmetry.
 There are    22 symmetry adapted basis functions of B2G symmetry.
 There are    22 symmetry adapted basis functions of B3G symmetry.
 There are    11 symmetry adapted basis functions of AU  symmetry.
 There are    40 symmetry adapted basis functions of B1U symmetry.
 There are    40 symmetry adapted basis functions of B2U symmetry.
 There are    40 symmetry adapted basis functions of B3U symmetry.
   262 basis functions,   345 primitive gaussians,   345 cartesian basis functions
     6 alpha electrons        5 beta electrons
       nuclear repulsion energy         0.0000000000 Hartrees.
 IExCor=    0 DFT=F Ex=HF Corr=None ExCW=0 ScaHFX=  1.000000
 ScaDFX=  1.000000  1.000000  1.000000  1.000000 ScalE2=  1.000000  1.000000
 IRadAn=      5 IRanWt=     -1 IRanGd=            0 ICorTp=0 IEmpDi=  4
 NAtoms=    1 NActive=    1 NUniq=    1 SFac= 1.00D+00 NAtFMM=   60 NAOKFM=F Big=F
 Integral buffers will be    131072 words long.
 Raffenetti 2 integral format.
 Two-electron integral symmetry is turned on.
 Leave Link  301 at Tue Mar  6 11:20:20 2018, MaxMem= 10737418240 cpu:               3.6 elap:               0.3
 (Enter /home1/apps/gaussian/16rA.03/g16/l302.exe)
 NPDir=0 NMtPBC=     1 NCelOv=     1 NCel=       1 NClECP=     1 NCelD=      1
         NCelK=      1 NCelE2=     1 NClLst=     1 CellRange=     0.0.
 One-electron integrals computed using PRISM.
 One-electron integral symmetry used in STVInt
  48 Symmetry operations used in ECPInt.
 ECPInt:  NShTT=    2628 NPrTT=    2628 LenC2=    2629 LenP2D=    2628.
 LDataN:  DoStor=T MaxTD1=10 Len=  848
 NBasis=   262 RedAO= T EigKep=  1.32D-06  NBF=    65    22    22    22    11    40    40    40
 NBsUse=   261 1.00D-06 EigRej=  1.13D-08 NBFU=    64    22    22    22    11    40    40    40
 Leave Link  302 at Tue Mar  6 11:20:25 2018, MaxMem= 10737418240 cpu:              74.3 elap:               4.7
 (Enter /home1/apps/gaussian/16rA.03/g16/l303.exe)
 DipDrv:  MaxL=1.
 Leave Link  303 at Tue Mar  6 11:20:25 2018, MaxMem= 10737418240 cpu:               1.4 elap:               0.1
 (Enter /home1/apps/gaussian/16rA.03/g16/l401.exe)
 Initial guess from the checkpoint file:  "Sc.chk"
 B after Tr=     0.000000    0.000000    0.000000
         Rot=    1.000000    0.000000    0.000000    0.000000 Ang=   0.00 deg.
 Guess basis will be translated and rotated to current coordinates.
 JPrj=2 DoOrth=T DoCkMO=T.
 Initial guess orbital symmetries:
       Occupied  (A1G) (T1U) (T1U) (T1U) (?A) (?B)
       Virtual   (?C) (?C) (?C) (A1G) (EG) (?B) (?B) (EG) (?B)
                 (?C) (?C) (?C) (?A) (?B) (?B) (?A) (?B) (?A) (?D)
                 (?D) (?D) (?D) (A2U) (?D) (?D) (?A) (?B) (?B)
                 (?C) (?A) (?C) (?C) (?B) (?A) (?B) (?B) (?A) (?A)
                 (?B) (?B) (?A) (?B) (?B) (?B) (?B) (?A) (?A) (?C)
                 (?C) (?C) (A2U) (?C) (?C) (?C) (?C) (?C) (?C)
                 (?B) (?A) (?B) (?B) (?A) (?E) (?E) (?E) (?E) (EU)
                 (?E) (?E) (EU) (?E) (?E) (?E) (?A) (?B) (?B) (?A)
                 (?B) (?B) (?B) (?A) (?B) (?A) (?C) (?C) (A2U)
                 (?C) (?C) (?C) (?C) (?C) (?C) (?C) (?B) (?A) (?B)
                 (?B) (?A) (?C) (?C) (?C) (?C) (EU) (?C) (?C) (EU)
                 (?C) (?C) (?C) (?B) (?A) (?B) (?B) (?A) (?A) (?F)
                 (?F) (A2U) (?F) (?F) (?F) (?F) (?F) (?F) (?F)
                 (?A) (?B) (?B) (?A) (?B) (?B) (?B) (?B) (?A) (?A)
                 (?F) (?F) (?A) (?F) (?F) (?F) (?F) (?A) (?F) (?F)
                 (?A) (?F) (?A) (T2G) (T2G) (T2G) (?A) (?F) (?F)
                 (?F) (?A) (?F) (?F) (?F) (A2U) (?F) (?F) (?F)
                 (?F) (?F) (?F) (?F) (EU) (?F) (?F) (EU) (?F) (?F)
                 (?F) (?A) (T2G) (T2G) (?A) (T2G) (?A) (?A) (?A)
                 (?A) (?A) (?A) (?A) (?A) (?A) (?A) (?A) (?A) (?A)
                 (A1G) (?A) (?A) (?A) (A1G) (A1G) (A1G) (?A) (A1G)
                 (A1G) (A1G) (A1G) (T2G) (T2G) (T2G) (T2G) (T2G)
                 (T2G) (T2G) (T2G) (T2G) (T2G) (T2G) (T2G) (T1U)
                 (T1U) (T1U) (T1U) (T1U) (T1U) (T1U) (T1U) (?F)
                 (?F) (T1U) (?F) (?F) (T1U) (T1U) (T1U) (T1U) (T1U)
                 (T1U) (T1U) (T1U) (?F) (?F) (T1U) (?F) (?F) (T1U)
                 (T1U) (T1U) (T1U) (T1U) (T1U) (T1U) (T1U) (?F)
                 (?F) (T1U) (?F) (?F)
 Leave Link  401 at Tue Mar  6 11:20:26 2018, MaxMem= 10737418240 cpu:              16.6 elap:               1.3
 (Enter /home1/apps/gaussian/16rA.03/g16/l502.exe)
 Keep R1 and R2 ints in memory in symmetry-blocked form, NReq=669233233.
 FoFCou: FMM=F IPFlag=           0 FMFlag=           0 FMFlg1=           0
         NFxFlg=           0 DoJE=F BraDBF=F KetDBF=F FulRan=T
         wScrn=  0.000000 ICntrl=       600 IOpCl=  0 I1Cent=           0 NGrid=           0
         NMat0=    1 NMatS0=  34453 NMatT0=    0 NMatD0=    1 NMtDS0=    0 NMtDT0=    0
 Petite list used in FoFCou.
 Restricted open shell SCF:
 Using DIIS extrapolation, IDIIS=  1040.
 NGot= 10737418240 LenX= 10585855578 LenY= 10585736112
 Requested convergence on RMS density matrix=1.00D-08 within 300 cycles.
 Requested convergence on MAX density matrix=1.00D-06.
 Requested convergence on             energy=1.00D-06.
 Virtual orbitals will be shifted by   0.200 hartree.
 No special actions if energy rises.

 Cycle   1  Pass 1  IDiag  1:
 Density matrix breaks symmetry, PCut= 1.00D-07
 Density has only Abelian symmetry.
 E= -46.1543888520686    
 DIIS: error= 7.57D-01 at cycle   1 NSaved=   1.
 NSaved= 1 IEnMin= 1 EnMin= -46.1543888520686     IErMin= 1 ErrMin= 7.57D-01
 ErrMax= 7.57D-01  0.00D+00 EMaxC= 1.00D-01 BMatC= 6.00D+01 BMatP= 6.00D+01
 IDIUse=3 WtCom= 0.00D+00 WtEn= 1.00D+00
 Coeff-Com:  0.100D+01
 Coeff-En:   0.100D+01
 Coeff:      0.100D+01
 Gap=     0.047 Goal=   None    Shift=    0.200
 GapD=    0.047 DampG=0.250 DampE=0.125 DampFc=0.1250 IDamp=-1.
 Damping current iteration by 1.25D-01
 RMSDP=6.42D-04 MaxDP=6.88D-02              OVMax= 2.60D-03

 Cycle   2  Pass 1  IDiag  1:
 Density matrix breaks symmetry, PCut= 1.00D-07
 Density has only Abelian symmetry.
 E= -46.1544204055316     Delta-E=       -0.000031553463 Rises=F Damp=T
 DIIS: error= 6.63D-01 at cycle   2 NSaved=   2.
 NSaved= 2 IEnMin= 2 EnMin= -46.1544204055316     IErMin= 2 ErrMin= 6.63D-01
 ErrMax= 6.63D-01  0.00D+00 EMaxC= 1.00D-01 BMatC= 4.60D+01 BMatP= 6.00D+01
 IDIUse=3 WtCom= 0.00D+00 WtEn= 1.00D+00
 Coeff-Com: -0.700D+01 0.800D+01
 Coeff-En:   0.000D+00 0.100D+01
 Coeff:      0.000D+00 0.100D+01
 Gap=     0.047 Goal=   None    Shift=    0.200
 RMSDP=5.69D-04 MaxDP=6.10D-02 DE=-3.16D-05 OVMax= 3.75D-04

 Cycle   3  Pass 1  IDiag  1:
 Density matrix breaks symmetry, PCut= 1.00D-07
 Density has only Abelian symmetry.
 E= -46.1546405331664     Delta-E=       -0.000220127635 Rises=F Damp=F
 DIIS: error= 2.54D-04 at cycle   3 NSaved=   3.
 NSaved= 3 IEnMin= 3 EnMin= -46.1546405331664     IErMin= 3 ErrMin= 2.54D-04
 ErrMax= 2.54D-04  0.00D+00 EMaxC= 1.00D-01 BMatC= 4.66D-06 BMatP= 4.60D+01
 IDIUse=3 WtCom= 9.97D-01 WtEn= 2.54D-03
 Coeff-Com:  0.105D+01-0.120D+01 0.115D+01
 Coeff-En:   0.000D+00 0.000D+00 0.100D+01
 Coeff:      0.105D+01-0.119D+01 0.115D+01
 Gap=     0.046 Goal=   None    Shift=    0.200
 RMSDP=1.22D-05 MaxDP=1.07D-03 DE=-2.20D-04 OVMax= 4.86D-04

 Cycle   4  Pass 1  IDiag  1:
 Density matrix breaks symmetry, PCut= 1.00D-07
 Density has only Abelian symmetry.
 E= -46.1546429450860     Delta-E=       -0.000002411920 Rises=F Damp=F
 DIIS: error= 1.80D-04 at cycle   4 NSaved=   4.
 NSaved= 4 IEnMin= 4 EnMin= -46.1546429450860     IErMin= 4 ErrMin= 1.80D-04
 ErrMax= 1.80D-04  0.00D+00 EMaxC= 1.00D-01 BMatC= 2.53D-07 BMatP= 4.66D-06
 IDIUse=3 WtCom= 9.98D-01 WtEn= 1.80D-03
 Coeff-Com:  0.591D+00-0.676D+00 0.673D-01 0.102D+01
 Coeff-En:   0.000D+00 0.000D+00 0.000D+00 0.100D+01
 Coeff:      0.590D+00-0.675D+00 0.672D-01 0.102D+01
 Gap=     0.046 Goal=   None    Shift=    0.200
 RMSDP=2.37D-06 MaxDP=2.64D-04 DE=-2.41D-06 OVMax= 1.66D-04

 Cycle   5  Pass 1  IDiag  1:
 Density matrix breaks symmetry, PCut= 1.00D-07
 Density has only Abelian symmetry.
 E= -46.1546430952811     Delta-E=       -0.000000150195 Rises=F Damp=F
 DIIS: error= 1.80D-04 at cycle   5 NSaved=   5.
 NSaved= 5 IEnMin= 5 EnMin= -46.1546430952811     IErMin= 5 ErrMin= 1.80D-04
 ErrMax= 1.80D-04  0.00D+00 EMaxC= 1.00D-01 BMatC= 1.70D-07 BMatP= 2.53D-07
 IDIUse=3 WtCom= 9.98D-01 WtEn= 1.80D-03
 Coeff-Com:  0.596D+00-0.681D+00 0.827D-01-0.473D-01 0.105D+01
 Coeff-En:   0.000D+00 0.000D+00 0.000D+00 0.000D+00 0.100D+01
 Coeff:      0.594D+00-0.679D+00 0.825D-01-0.472D-01 0.105D+01
 Gap=     0.046 Goal=   None    Shift=    0.200
 RMSDP=1.04D-06 MaxDP=1.33D-04 DE=-1.50D-07 OVMax= 1.02D-04

 Cycle   6  Pass 1  IDiag  1:
 Density matrix breaks symmetry, PCut= 1.00D-07
 Density has only Abelian symmetry.
 E= -46.1546431360345     Delta-E=       -0.000000040753 Rises=F Damp=F
 DIIS: error= 1.77D-04 at cycle   6 NSaved=   6.
 NSaved= 6 IEnMin= 6 EnMin= -46.1546431360345     IErMin= 6 ErrMin= 1.77D-04
 ErrMax= 1.77D-04  0.00D+00 EMaxC= 1.00D-01 BMatC= 1.60D-07 BMatP= 1.70D-07
 IDIUse=3 WtCom= 9.98D-01 WtEn= 1.77D-03
 Coeff-Com:  0.575D+00-0.658D+00 0.978D-01 0.193D+00-0.116D+01 0.195D+01
 Coeff-En:   0.000D+00 0.000D+00 0.000D+00 0.000D+00 0.000D+00 0.100D+01
 Coeff:      0.574D+00-0.656D+00 0.976D-01 0.193D+00-0.116D+01 0.195D+01
 Gap=     0.046 Goal=   None    Shift=    0.200
 RMSDP=6.49D-07 MaxDP=7.56D-05 DE=-4.08D-08 OVMax= 7.49D-05

 Cycle   7  Pass 1  IDiag  1:
 Density matrix breaks symmetry, PCut= 1.00D-07
 Density has only Abelian symmetry.
 E= -46.1546431740717     Delta-E=       -0.000000038037 Rises=F Damp=F
 DIIS: error= 1.69D-04 at cycle   7 NSaved=   7.
 NSaved= 7 IEnMin= 7 EnMin= -46.1546431740717     IErMin= 7 ErrMin= 1.69D-04
 ErrMax= 1.69D-04  0.00D+00 EMaxC= 1.00D-01 BMatC= 1.47D-07 BMatP= 1.60D-07
 IDIUse=3 WtCom= 9.98D-01 WtEn= 1.69D-03
 Coeff-Com:  0.544D+00-0.622D+00 0.876D-01 0.137D+00-0.279D+00-0.558D+00
 Coeff-Com:  0.169D+01
 Coeff-En:   0.000D+00 0.000D+00 0.000D+00 0.000D+00 0.000D+00 0.000D+00
 Coeff-En:   0.100D+01
 Coeff:      0.543D+00-0.621D+00 0.875D-01 0.137D+00-0.278D+00-0.557D+00
 Coeff:      0.169D+01
 Gap=     0.046 Goal=   None    Shift=    0.200
 RMSDP=3.90D-07 MaxDP=3.78D-05 DE=-3.80D-08 OVMax= 4.81D-05

 Cycle   8  Pass 1  IDiag  1:
 Density matrix breaks symmetry, PCut= 1.00D-07
 Density has only Abelian symmetry.
 E= -46.1546432055072     Delta-E=       -0.000000031435 Rises=F Damp=F
 DIIS: error= 1.61D-04 at cycle   8 NSaved=   8.
 NSaved= 8 IEnMin= 8 EnMin= -46.1546432055072     IErMin= 8 ErrMin= 1.61D-04
 ErrMax= 1.61D-04  0.00D+00 EMaxC= 1.00D-01 BMatC= 1.32D-07 BMatP= 1.47D-07
 IDIUse=3 WtCom= 9.98D-01 WtEn= 1.61D-03
 Coeff-Com:  0.520D+00-0.594D+00 0.821D-01 0.111D+00-0.673D-01-0.703D+00
 Coeff-Com:  0.694D+00 0.958D+00
 Coeff-En:   0.000D+00 0.000D+00 0.000D+00 0.000D+00 0.000D+00 0.000D+00
 Coeff-En:   0.000D+00 0.100D+01
 Coeff:      0.519D+00-0.593D+00 0.819D-01 0.111D+00-0.672D-01-0.702D+00
 Coeff:      0.692D+00 0.958D+00
 Gap=     0.046 Goal=   None    Shift=    0.200
 RMSDP=2.44D-07 MaxDP=3.34D-05 DE=-3.14D-08 OVMax= 4.25D-05

 Cycle   9  Pass 1  IDiag  1:
 Density matrix breaks symmetry, PCut= 1.00D-07
 Density has only Abelian symmetry.
 E= -46.1546432310885     Delta-E=       -0.000000025581 Rises=F Damp=F
 DIIS: error= 1.53D-04 at cycle   9 NSaved=   9.
 NSaved= 9 IEnMin= 9 EnMin= -46.1546432310885     IErMin= 9 ErrMin= 1.53D-04
 ErrMax= 1.53D-04  0.00D+00 EMaxC= 1.00D-01 BMatC= 1.20D-07 BMatP= 1.32D-07
 IDIUse=3 WtCom= 9.98D-01 WtEn= 1.53D-03
 Large coefficients: NSaved=  9 BigCof=   11.72 CofMax=   10.00 Det=-1.49D-12
 Inversion failed.  Reducing to  8 matrices.
 Large coefficients: NSaved=  8 BigCof=   39.82 CofMax=   10.00 Det=-3.54D-12
 Inversion failed.  Reducing to  7 matrices.
 Large coefficients: NSaved=  7 BigCof=   39.82 CofMax=   10.00 Det=-3.54D-12
 Inversion failed.  Reducing to  6 matrices.
 Large coefficients: NSaved=  6 BigCof=   34.12 CofMax=   10.00 Det=-5.50D-12
 Inversion failed.  Reducing to  5 matrices.
 Large coefficients: NSaved=  5 BigCof=   34.39 CofMax=   10.00 Det=-6.30D-12
 Inversion failed.  Reducing to  4 matrices.
 Large coefficients: NSaved=  4 BigCof=   31.14 CofMax=   10.00 Det=-7.79D-12
 Inversion failed.  Reducing to  3 matrices.
 Large coefficients: NSaved=  3 BigCof=   32.35 CofMax=   10.00 Det=-7.95D-12
 Inversion failed.  Reducing to  2 matrices.
 Large coefficients: NSaved=  2 BigCof=   20.00 CofMax=   10.00 Det=-3.18D-10
 Coeff-Com: -0.190D+02 0.200D+02
 Coeff-En:   0.000D+00 0.100D+01
 Coeff:     -0.190D+02 0.200D+02
 Gap=     0.046 Goal=   None    Shift=    0.200
 RMSDP=1.85D-06 MaxDP=1.35D-04 DE=-2.56D-08 OVMax= 4.96D-04

 Cycle  10  Pass 1  IDiag  1:
 Density matrix breaks symmetry, PCut= 1.00D-07
 Density has only Abelian symmetry.
 E= -46.1546434253413     Delta-E=       -0.000000194253 Rises=F Damp=F
 DIIS: error= 4.15D-05 at cycle  10 NSaved=   3.
 NSaved= 3 IEnMin= 3 EnMin= -46.1546434253413     IErMin= 3 ErrMin= 4.15D-05
 ErrMax= 4.15D-05  0.00D+00 EMaxC= 1.00D-01 BMatC= 1.24D-08 BMatP= 1.20D-07
 IDIUse=1 WtCom= 1.00D+00 WtEn= 0.00D+00
 Large coefficients: NSaved=  3 BigCof=   13.32 CofMax=   10.00 Det=-3.02D-11
 Inversion failed.  Reducing to  2 matrices.
 Coeff-Com: -0.210D+00 0.121D+01
 Coeff:     -0.210D+00 0.121D+01
 Gap=     0.046 Goal=   None    Shift=    0.200
 RMSDP=4.98D-07 MaxDP=4.66D-05 DE=-1.94D-07 OVMax= 2.54D-04

 Cycle  11  Pass 1  IDiag  1:
 Density matrix breaks symmetry, PCut= 1.00D-07
 Density has only Abelian symmetry.
 E= -46.1546434580369     Delta-E=       -0.000000032696 Rises=F Damp=F
 DIIS: error= 7.70D-06 at cycle  11 NSaved=   3.
 NSaved= 3 IEnMin= 3 EnMin= -46.1546434580369     IErMin= 3 ErrMin= 7.70D-06
 ErrMax= 7.70D-06  0.00D+00 EMaxC= 1.00D-01 BMatC= 9.83D-10 BMatP= 1.24D-08
 IDIUse=1 WtCom= 1.00D+00 WtEn= 0.00D+00
 Coeff-Com: -0.158D-01-0.121D+00 0.114D+01
 Coeff:     -0.158D-01-0.121D+00 0.114D+01
 Gap=     0.046 Goal=   None    Shift=    0.200
 RMSDP=3.06D-07 MaxDP=5.28D-05 DE=-3.27D-08 OVMax= 4.68D-05

 Cycle  12  Pass 1  IDiag  1:
 Density matrix breaks symmetry, PCut= 1.00D-07
 Density has only Abelian symmetry.
 E= -46.1546434605322     Delta-E=       -0.000000002495 Rises=F Damp=F
 DIIS: error= 4.85D-06 at cycle  12 NSaved=   4.
 NSaved= 4 IEnMin= 4 EnMin= -46.1546434605322     IErMin= 4 ErrMin= 4.85D-06
 ErrMax= 4.85D-06  0.00D+00 EMaxC= 1.00D-01 BMatC= 1.95D-10 BMatP= 9.83D-10
 IDIUse=1 WtCom= 1.00D+00 WtEn= 0.00D+00
 Coeff-Com: -0.921D-02-0.810D-01-0.103D+00 0.119D+01
 Coeff:     -0.921D-02-0.810D-01-0.103D+00 0.119D+01
 Gap=     0.046 Goal=   None    Shift=    0.200
 RMSDP=1.79D-07 MaxDP=3.44D-05 DE=-2.50D-09 OVMax= 1.83D-05

 Cycle  13  Pass 1  IDiag  1:
 Density matrix breaks symmetry, PCut= 1.00D-07
 Density has only Abelian symmetry.
 E= -46.1546434612059     Delta-E=       -0.000000000674 Rises=F Damp=F
 DIIS: error= 2.04D-06 at cycle  13 NSaved=   5.
 NSaved= 5 IEnMin= 5 EnMin= -46.1546434612059     IErMin= 5 ErrMin= 2.04D-06
 ErrMax= 2.04D-06  0.00D+00 EMaxC= 1.00D-01 BMatC= 6.38D-11 BMatP= 1.95D-10
 IDIUse=1 WtCom= 1.00D+00 WtEn= 0.00D+00
 Coeff-Com:  0.153D-01-0.560D-01 0.668D-01-0.873D+00 0.185D+01
 Coeff:      0.153D-01-0.560D-01 0.668D-01-0.873D+00 0.185D+01
 Gap=     0.046 Goal=   None    Shift=    0.200
 RMSDP=1.14D-07 MaxDP=2.15D-05 DE=-6.74D-10 OVMax= 1.53D-05

 Cycle  14  Pass 1  IDiag  1:
 Density matrix breaks symmetry, PCut= 1.00D-07
 Density has only Abelian symmetry.
 E= -46.1546434615500     Delta-E=       -0.000000000344 Rises=F Damp=F
 DIIS: error= 9.82D-07 at cycle  14 NSaved=   6.
 NSaved= 6 IEnMin= 6 EnMin= -46.1546434615500     IErMin= 6 ErrMin= 9.82D-07
 ErrMax= 9.82D-07  0.00D+00 EMaxC= 1.00D-01 BMatC= 2.20D-11 BMatP= 6.38D-11
 IDIUse=1 WtCom= 1.00D+00 WtEn= 0.00D+00
 Coeff-Com:  0.290D-02-0.381D-02 0.184D-01 0.821D-01-0.138D+01 0.228D+01
 Coeff:      0.290D-02-0.381D-02 0.184D-01 0.821D-01-0.138D+01 0.228D+01
 Gap=     0.046 Goal=   None    Shift=    0.200
 RMSDP=5.94D-08 MaxDP=9.40D-06 DE=-3.44D-10 OVMax= 1.40D-05

 Cycle  15  Pass 1  IDiag  1:
 Density matrix breaks symmetry, PCut= 1.00D-07
 Density has only Abelian symmetry.
 E= -46.1546434617213     Delta-E=       -0.000000000171 Rises=F Damp=F
 DIIS: error= 3.93D-07 at cycle  15 NSaved=   7.
 NSaved= 7 IEnMin= 7 EnMin= -46.1546434617213     IErMin= 7 ErrMin= 3.93D-07
 ErrMax= 3.93D-07  0.00D+00 EMaxC= 1.00D-01 BMatC= 5.81D-12 BMatP= 2.20D-11
 IDIUse=1 WtCom= 1.00D+00 WtEn= 0.00D+00
 Coeff-Com: -0.199D-02 0.534D-02-0.114D-01 0.279D+00-0.107D+01 0.604D+00
 Coeff-Com:  0.119D+01
 Coeff:     -0.199D-02 0.534D-02-0.114D-01 0.279D+00-0.107D+01 0.604D+00
 Coeff:      0.119D+01
 Gap=     0.046 Goal=   None    Shift=    0.200
 RMSDP=2.55D-08 MaxDP=1.94D-06 DE=-1.71D-10 OVMax= 7.99D-06

 Cycle  16  Pass 1  IDiag  1:
 Density matrix breaks symmetry, PCut= 1.00D-07
 Density has only Abelian symmetry.
 E= -46.1546434617698     Delta-E=       -0.000000000048 Rises=F Damp=F
 DIIS: error= 1.86D-07 at cycle  16 NSaved=   8.
 NSaved= 8 IEnMin= 8 EnMin= -46.1546434617698     IErMin= 8 ErrMin= 1.86D-07
 ErrMax= 1.86D-07  0.00D+00 EMaxC= 1.00D-01 BMatC= 1.39D-12 BMatP= 5.81D-12
 IDIUse=1 WtCom= 1.00D+00 WtEn= 0.00D+00
 Coeff-Com:  0.445D-03-0.350D-02 0.979D-03-0.561D-01 0.302D+00-0.301D+00
 Coeff-Com: -0.945D+00 0.200D+01
 Coeff:      0.445D-03-0.350D-02 0.979D-03-0.561D-01 0.302D+00-0.301D+00
 Coeff:     -0.945D+00 0.200D+01
 Gap=     0.046 Goal=   None    Shift=    0.200
 RMSDP=1.57D-08 MaxDP=9.85D-07 DE=-4.85D-11 OVMax= 4.22D-06

 Cycle  17  Pass 1  IDiag  1:
 Density matrix breaks symmetry, PCut= 1.00D-07
 Density has only Abelian symmetry.
 E= -46.1546434617814     Delta-E=       -0.000000000012 Rises=F Damp=F
 DIIS: error= 9.57D-08 at cycle  17 NSaved=   9.
 NSaved= 9 IEnMin= 9 EnMin= -46.1546434617814     IErMin= 9 ErrMin= 9.57D-08
 ErrMax= 9.57D-08  0.00D+00 EMaxC= 1.00D-01 BMatC= 4.35D-13 BMatP= 1.39D-12
 IDIUse=1 WtCom= 1.00D+00 WtEn= 0.00D+00
 Coeff-Com:  0.105D-02-0.490D-02 0.559D-02-0.102D+00 0.409D+00-0.261D+00
 Coeff-Com: -0.807D+00 0.546D+00 0.121D+01
 Coeff:      0.105D-02-0.490D-02 0.559D-02-0.102D+00 0.409D+00-0.261D+00
 Coeff:     -0.807D+00 0.546D+00 0.121D+01
 Gap=     0.046 Goal=   None    Shift=    0.200
 RMSDP=8.62D-09 MaxDP=8.46D-07 DE=-1.16D-11 OVMax= 2.08D-06

 Density matrix breaks symmetry, PCut= 1.00D-07
 Density has only Abelian symmetry.
 SCF Done:  E(ROHF) =  -46.1546434618     A.U. after   17 cycles
            NFock= 17  Conv=0.86D-08     -V/T= 3.4523
 <Sx>= 0.0000 <Sy>= 0.0000 <Sz>= 0.5000 <S**2>= 0.7500 S= 0.5000
 <L.S>=  0.00000000000    
 KE= 1.882113268263D+01 PE=-9.568061965042D+01 EE= 3.070484350601D+01
 Annihilation of the first spin contaminant:
 S**2 before annihilation     0.7500,   after     0.7500
 Leave Link  502 at Tue Mar  6 11:21:31 2018, MaxMem= 10737418240 cpu:            1015.4 elap:              64.4
 (Enter /home1/apps/gaussian/16rA.03/g16/l801.exe)
 Windowed orbitals will be sorted by symmetry type.
 Density matrix breaks symmetry, PCut= 1.00D-07
 Density has only Abelian symmetry.
 GenMOA:  NOpAll= 48 NOp2=8 NOpUse=  8 JSym2X=1
 FoFJK:  IHMeth= 1 ICntrl=       0 DoSepK=F KAlg= 0 I1Cent=           0 FoldK=F
 IRaf=         0 NMat=       1 IRICut=       1 DoRegI=T DoRafI=F ISym2E= 1 IDoP0=0 IntGTp=1.
 FoFCou: FMM=F IPFlag=           0 FMFlag=      100000 FMFlg1=           0
         NFxFlg=           0 DoJE=F BraDBF=F KetDBF=F FulRan=T
         wScrn=  0.000000 ICntrl=         0 IOpCl=  1 I1Cent=           0 NGrid=           0
         NMat0=    1 NMatS0=      1 NMatT0=    0 NMatD0=    1 NMtDS0=    0 NMtDT0=    0
 Petite list used in FoFCou.
 <Sx>= 0.0000 <Sy>= 0.0000 <Sz>= 0.5000 <S**2>= 0.7500 S= 0.5000
 Range of M.O.s used for correlation:     1   261
 NBasis=   262 NAE=     6 NBE=     5 NFC=     0 NFV=     0
 NROrb=    261 NOA=     6 NOB=     5 NVA=   255 NVB=   256

 **** Warning!!: The largest alpha MO coefficient is  0.30692236D+03


 **** Warning!!: The largest beta MO coefficient is  0.30690726D+03

 Singles contribution to E2=   -0.2401926400D-02
 Leave Link  801 at Tue Mar  6 11:21:45 2018, MaxMem= 10737418240 cpu:             229.5 elap:              14.4
 (Enter /home1/apps/gaussian/16rA.03/g16/l804.exe)
 Open-shell transformation, MDV= 10737418240 ITran=4 ISComp=2.
 Unit  1 TFree=       2088156 TCopy=       1677510.
 Semi-Direct transformation.
 ModeAB=           2 MOrb=             6 LenV=   10735199034
 LASXX=      6713101 LTotXX=     6713101 LenRXX=     6713101
 LTotAB=     6816943 MaxLAS=    93466710 LenRXY=    93466710
 NonZer=    95890878 LenScr=   144609280 LnRSAI=           0
 LnScr1=           0 LExtra=     4454626 Total=    249243717
 MaxDsk= 13421772800 SrtSym=           F ITran=            4
 DoSDTr:  NPSUse= 16
 JobTyp=1 Pass  1:  I=   1 to   6.
 (rs|ai) integrals will be sorted in core.
 Complete sort for first half transformation.
 First half transformation complete.
 Complete sort for second half transformation.
 Second half transformation complete.
 ModeAB=           2 MOrb=             5 LenV=   10735199034
 LASXX=      5653953 LTotXX=     5653953 LenRXX=    77888925
 LTotAB=     5479654 MaxLAS=    77888925 LenRXY=     5479654
 NonZer=    79909065 LenScr=   120637440 LnRSAI=           0
 LnScr1=           0 LExtra=   104634437 Total=    308640456
 MaxDsk= 13421772800 SrtSym=           F ITran=            4
 DoSDTr:  NPSUse= 16
 JobTyp=2 Pass  1:  I=   1 to   5.
 (rs|ai) integrals will be sorted in core.
 Complete sort for first half transformation.
 First half transformation complete.
 Complete sort for second half transformation.
 Second half transformation complete.
 Spin components of T(2) and E(2):
     alpha-alpha T2 =       0.1211854544D-01 E2=     -0.5167516540D-01
     alpha-beta  T2 =       0.8283444243D-01 E2=     -0.2902636661D+00
     beta-beta   T2 =       0.9725558715D-02 E2=     -0.4102090815D-01
 ANorm=    0.1051447170D+01
 E2 =    -0.3853616661D+00 EUMP2 =    -0.46540005127872D+02
 (S**2,0)=  0.75000D+00           (S**2,1)=  0.75000D+00
 E(PUHF)=      -0.46154643462D+02        E(PMP2)=      -0.46540005128D+02
 Leave Link  804 at Tue Mar  6 11:25:48 2018, MaxMem= 10737418240 cpu:            3877.4 elap:             242.6
 (Enter /home1/apps/gaussian/16rA.03/g16/l913.exe)
 CIDS:  MDV= 10737418240.
 IFCWin=0 IBDFC=1 NFBD=     0     0 NFCmp=     0     0 NFFFC=     0     0
 Using original routines for 1st iteration.
 Using DD4UQ or CC4UQ for 2nd and later iterations.
 Keep R2 and R3 ints in memory in symmetry-blocked form, NReq=669245664.
 FoFCou: FMM=F IPFlag=           0 FMFlag=           0 FMFlg1=           0
         NFxFlg=           0 DoJE=F BraDBF=F KetDBF=F FulRan=T
         wScrn=  0.000000 ICntrl=       600 IOpCl=  0 I1Cent=           0 NGrid=           0
         NMat0=    1 NMatS0=  34453 NMatT0=    0 NMatD0=    1 NMtDS0=    0 NMtDT0=    0
 Petite list used in FoFCou.
 CIDS: In Core Option IDoMem=           1.
 CCSD(T)
 =======
 Iterations= 150 Convergence= 0.100D-06
 Produce multiple copies of IABC intergrals
 Iteration Nr.   1
 **********************
 DD1Dir will call FoFMem   1 times, MxPair=        86
 NAB=    30 NAA=    15 NBB=    10.
 DD1Dir will call FoFMem   1 times, MxPair=        86
 NAB=    30 NAA=    15 NBB=    10.
 MP4(R+Q)=  0.29888873D-01
 Maximum subspace dimension=  5
 A-vector RMS=  1.1142801D-04 Max=  4.5248654D-03 conv= 1.00D-05.
 RLE energy=       -0.3757854597
 E3=       -0.20092710D-01        EROMP3=      -0.46560097838D+02
 E4(SDQ)=   0.47740670D-03        ROMP4(SDQ)=  -0.46559620431D+02
 VARIATIONAL ENERGIES WITH THE FIRST-ORDER WAVEFUNCTION:
 DE(Corr)= -0.37553976     E(Corr)=     -46.530183217    
 NORM(A)=   0.10466216D+01
 Iteration Nr.   2
 **********************
 DD1Dir will call FoFMem   1 times, MxPair=        86
 NAB=    30 NAA=    15 NBB=    10.
 A-vector RMS=  2.5690129D-03 Max=  3.3571985D-02 conv= 1.00D-05.
 RLE energy=       -0.3819682224
 DE(Corr)= -0.39530096     E(CORR)=     -46.549944422     Delta=-1.98D-02
 NORM(A)=   0.10496125D+01
 Iteration Nr.   3
 **********************
 DD1Dir will call FoFMem   1 times, MxPair=        86
 NAB=    30 NAA=    15 NBB=    10.
 A-vector RMS=  1.9320059D-03 Max=  2.5548803D-02 conv= 1.00D-05.
 RLE energy=       -0.3906098371
 DE(Corr)= -0.39764887     E(CORR)=     -46.552292331     Delta=-2.35D-03
 NORM(A)=   0.10555665D+01
 Iteration Nr.   4
 **********************
 DD1Dir will call FoFMem   1 times, MxPair=        86
 NAB=    30 NAA=    15 NBB=    10.
 A-vector RMS=  1.4268933D-03 Max=  1.8607659D-02 conv= 1.00D-05.
 RLE energy=       -0.4040987959
 DE(Corr)= -0.39998604     E(CORR)=     -46.554629506     Delta=-2.34D-03
 NORM(A)=   0.10698732D+01
 Iteration Nr.   5
 **********************
 DD1Dir will call FoFMem   1 times, MxPair=        86
 NAB=    30 NAA=    15 NBB=    10.
 A-vector RMS=  1.4561598D-04 Max=  1.4347926D-03 conv= 1.00D-05.
 RLE energy=       -0.4064087825
 DE(Corr)= -0.40480187     E(CORR)=     -46.559445337     Delta=-4.82D-03
 NORM(A)=   0.10733902D+01
 Iteration Nr.   6
 **********************
 DD1Dir will call FoFMem   1 times, MxPair=        86
 NAB=    30 NAA=    15 NBB=    10.
 A-vector RMS=  1.2577121D-04 Max=  1.5564231D-03 conv= 1.00D-05.
 RLE energy=       -0.4051881830
 DE(Corr)= -0.40558800     E(CORR)=     -46.560231465     Delta=-7.86D-04
 NORM(A)=   0.10720571D+01
 Iteration Nr.   7
 **********************
 DD1Dir will call FoFMem   1 times, MxPair=        86
 NAB=    30 NAA=    15 NBB=    10.
 A-vector RMS=  4.4521419D-05 Max=  7.3350013D-04 conv= 1.00D-05.
 RLE energy=       -0.4052127036
 DE(Corr)= -0.40518850     E(CORR)=     -46.559831965     Delta= 4.00D-04
 NORM(A)=   0.10722468D+01
 Iteration Nr.   8
 **********************
 DD1Dir will call FoFMem   1 times, MxPair=        86
 NAB=    30 NAA=    15 NBB=    10.
 A-vector RMS=  2.8253292D-05 Max=  4.5065314D-04 conv= 1.00D-05.
 RLE energy=       -0.4052178862
 DE(Corr)= -0.40521923     E(CORR)=     -46.559862691     Delta=-3.07D-05
 NORM(A)=   0.10722302D+01
 Iteration Nr.   9
 **********************
 DD1Dir will call FoFMem   1 times, MxPair=        86
 NAB=    30 NAA=    15 NBB=    10.
 A-vector RMS=  1.3428026D-05 Max=  1.8453457D-04 conv= 1.00D-05.
 RLE energy=       -0.4052143298
 DE(Corr)= -0.40520801     E(CORR)=     -46.559851471     Delta= 1.12D-05
 NORM(A)=   0.10722596D+01
 Iteration Nr.  10
 **********************
 DD1Dir will call FoFMem   1 times, MxPair=        86
 NAB=    30 NAA=    15 NBB=    10.
 A-vector RMS=  7.0375384D-06 Max=  1.0396760D-04 conv= 1.00D-05.
 RLE energy=       -0.4052072530
 DE(Corr)= -0.40521052     E(CORR)=     -46.559853982     Delta=-2.51D-06
 NORM(A)=   0.10722697D+01
 Iteration Nr.  11
 **********************
 DD1Dir will call FoFMem   1 times, MxPair=        86
 NAB=    30 NAA=    15 NBB=    10.
 A-vector RMS=  3.7746611D-06 Max=  5.5213882D-05 conv= 1.00D-05.
 RLE energy=       -0.4052169597
 DE(Corr)= -0.40520914     E(CORR)=     -46.559852605     Delta= 1.38D-06
 NORM(A)=   0.10723153D+01
 Iteration Nr.  12
 **********************
 DD1Dir will call FoFMem   1 times, MxPair=        86
 NAB=    30 NAA=    15 NBB=    10.
 A-vector RMS=  1.2036578D-06 Max=  1.9113206D-05 conv= 1.00D-05.
 RLE energy=       -0.4052127242
 DE(Corr)= -0.40521280     E(CORR)=     -46.559856265     Delta=-3.66D-06
 NORM(A)=   0.10723152D+01
 Iteration Nr.  13
 **********************
 DD1Dir will call FoFMem   1 times, MxPair=        86
 NAB=    30 NAA=    15 NBB=    10.
 A-vector RMS=  8.3219936D-07 Max=  9.5635418D-06 conv= 1.00D-05.
 RLE energy=       -0.4052129628
 DE(Corr)= -0.40521305     E(CORR)=     -46.559856514     Delta=-2.49D-07
 NORM(A)=   0.10723105D+01
 Iteration Nr.  14
 **********************
 DD1Dir will call FoFMem   1 times, MxPair=        86
 NAB=    30 NAA=    15 NBB=    10.
 A-vector RMS=  3.1854755D-07 Max=  4.6144695D-06 conv= 1.00D-05.
 RLE energy=       -0.4052118386
 DE(Corr)= -0.40521225     E(CORR)=     -46.559855715     Delta= 7.99D-07
 NORM(A)=   0.10723077D+01
 Iteration Nr.  15
 **********************
 DD1Dir will call FoFMem   1 times, MxPair=        86
 NAB=    30 NAA=    15 NBB=    10.
 A-vector RMS=  3.1740469D-07 Max=  5.8143086D-06 conv= 1.00D-05.
 RLE energy=       -0.4052119286
 DE(Corr)= -0.40521207     E(CORR)=     -46.559855528     Delta= 1.87D-07
 NORM(A)=   0.10723073D+01
 Iteration Nr.  16
 **********************
 DD1Dir will call FoFMem   1 times, MxPair=        86
 NAB=    30 NAA=    15 NBB=    10.
 A-vector RMS=  1.8819329D-07 Max=  3.5853739D-06 conv= 1.00D-05.
 RLE energy=       -0.4052120340
 DE(Corr)= -0.40521200     E(CORR)=     -46.559855463     Delta= 6.53D-08
 NORM(A)=   0.10723076D+01
 CI/CC converged in   16 iterations to DelEn= 6.53D-08 Conv= 1.00D-07 ErrA1= 1.88D-07 Conv= 1.00D-05
 Wavefunction amplitudes converged. E(Corr)=     -46.559855463    
 Largest amplitude= 5.73D-02
 Time for triples=     9795.41 seconds.
 T4(CCSD)= -0.15811319D-01
 T5(CCSD)=  0.30711932D-03
 CCSD(T)= -0.46575359662D+02
 Discarding MO integrals.
 Leave Link  913 at Tue Mar  6 11:37:45 2018, MaxMem= 10737418240 cpu:           11415.4 elap:             716.9
 (Enter /home1/apps/gaussian/16rA.03/g16/l601.exe)
 Copying SCF densities to generalized density rwf, IOpCl= 0 IROHF=1.
 SCF density gives NOpUse=  8 NOpAll= 48.
 Marking SCF density as not fully symmetric.

 **********************************************************************

            Population analysis using the SCF density.

 **********************************************************************

 Orbital symmetries:
       Occupied  (A1G) (T1U) (T1U) (T1U) (?A) (?B)
       Virtual   (?C) (?C) (?C) (A1G) (EG) (?B) (?B) (EG) (?B)
                 (?C) (?C) (?C) (?A) (?B) (?B) (?A) (?B) (?A) (?C)
                 (?C) (?C) (?C) (A2U) (?C) (?C) (?A) (?B) (?B)
                 (?C) (?C) (?C) (?A) (?B) (?A) (?B) (?B) (?A) (?A)
                 (?B) (?B) (?A) (?B) (?B) (?B) (?A) (?B) (?A) (?C)
                 (?C) (?C) (?C) (?C) (?C) (A2U) (?C) (?C) (?C)
                 (?B) (?A) (?B) (?B) (?A) (?D) (?D) (?D) (?D) (EU)
                 (?D) (?D) (EU) (?D) (?D) (?D) (?E) (?E) (?E) (?F)
                 (?B) (?B) (?F) (?B) (?B) (?B) (?B) (?F) (?B) (?E)
                 (?E) (A2U) (?E) (?F) (?E) (?E) (?E) (?B) (?B)
                 (?F) (?F) (T1U) (T1U) (T1U) (?F) (?F) (?F) (?F)
                 (EU) (?F) (?F) (EU) (?F) (?F) (?F) (?F) (?B) (?B)
                 (?B) (?F) (?F) (?F) (?F) (A2U) (?F) (?F) (?F)
                 (T2G) (?B) (?B) (T2G) (?B) (?B) (?B) (?B) (T2G)
                 (T2G) (T2G) (T2G) (T2G) (T2G) (T2G) (T1U) (T1U)
                 (T1U) (?F) (?F) (?F) (A2U) (?F) (?F) (?F) (T2G)
                 (?F) (?F) (T2G) (?F) (T1U) (T1U) (T1U) (?F) (?F)
                 (?F) (?F) (EU) (?F) (?F) (EU) (?F) (?F) (?F) (T2G)
                 (?F) (?F) (T2G) (?F) (?F) (?F) (?F) (T2G) (T2G)
                 (EG) (T2G) (T2G) (EG) (T2G) (T1U) (T1U) (T1U)
                 (A1G) (EG) (T2G) (T2G) (EG) (T2G) (T1U) (T1U)
                 (T1U) (A1G) (T1U) (T1U) (T1U) (EG) (T2G) (T2G)
                 (EG) (T2G) (T1U) (T1U) (T1U) (A1G) (EG) (T2G)
                 (T2G) (EG) (T2G) (T1U) (T1U) (T1U) (A1G) (A1G)
                 (T1U) (T1U) (T1U) (EG) (T2G) (T2G) (EG) (T2G)
                 (A1G) (T1U) (T1U) (T1U) (A1G) (T1U) (T1U) (T1U)
                 (A1G) (T1U) (T1U) (T1U) (A1G) (T1U) (T1U) (T1U)
                 (A1G) (T1U) (T1U) (T1U) (A1G) (T1U) (T1U) (T1U)
                 (A1G) (A1G) (A1G) (A1G) (A1G)
 Unable to determine electronic state:  an orbital has unidentified symmetry.
 Alpha  occ. eigenvalues --   -2.63289  -1.62856  -1.62856  -1.58993  -0.34705
 Alpha  occ. eigenvalues --   -0.21548
 Alpha virt. eigenvalues --    0.01186   0.01277   0.01277   0.02125   0.02886
 Alpha virt. eigenvalues --    0.02889   0.02889   0.02898   0.02919   0.04319
 Alpha virt. eigenvalues --    0.04441   0.04441   0.08096   0.08214   0.08214
 Alpha virt. eigenvalues --    0.08465   0.09204   0.10939   0.13101   0.13105
 Alpha virt. eigenvalues --    0.13105   0.13114   0.13117   0.13133   0.13133
 Alpha virt. eigenvalues --    0.13628   0.14128   0.14128   0.14786   0.14915
 Alpha virt. eigenvalues --    0.14915   0.15529   0.23810   0.27650   0.27985
 Alpha virt. eigenvalues --    0.27985   0.29066   0.36828   0.36833   0.36833
 Alpha virt. eigenvalues --    0.36842   0.36865   0.36890   0.36890   0.36933
 Alpha virt. eigenvalues --    0.36941   0.37344   0.43231   0.43439   0.43439
 Alpha virt. eigenvalues --    0.45936   0.45942   0.45942   0.46068   0.46204
 Alpha virt. eigenvalues --    0.46204   0.46251   0.59349   0.63238   0.63560
 Alpha virt. eigenvalues --    0.63560   0.64550   0.74270   0.74274   0.74274
 Alpha virt. eigenvalues --    0.74279   0.74335   0.74357   0.74357   0.74412
 Alpha virt. eigenvalues --    0.74418   0.74506   0.74506   1.16739   1.17382
 Alpha virt. eigenvalues --    1.17382   1.28241   1.28278   1.28278   1.28360
 Alpha virt. eigenvalues --    1.28425   1.28573   1.28573   1.28799   1.28800
 Alpha virt. eigenvalues --    1.40261   1.41330   1.41330   1.41619   1.42774
 Alpha virt. eigenvalues --    1.43083   1.43232   1.43232   1.43567   1.43567
 Alpha virt. eigenvalues --    1.43674   1.44456   1.44745   2.79886   2.81195
 Alpha virt. eigenvalues --    2.81195   2.93029   2.93068   2.93068   2.93138
 Alpha virt. eigenvalues --    2.93347   2.93527   2.93527   2.93899   2.93912
 Alpha virt. eigenvalues --    2.94445   2.94445   2.99642   3.00727   3.01177
 Alpha virt. eigenvalues --    3.01177   3.02553   3.79372   3.79372   3.79539
 Alpha virt. eigenvalues --    3.80663   3.81476   3.81476   3.82099   4.21410
 Alpha virt. eigenvalues --    4.21483   4.21483   4.21603   4.22008   4.22273
 Alpha virt. eigenvalues --    4.22273   4.22728   4.22757   4.81855   5.75096
 Alpha virt. eigenvalues --    5.75567   5.75567   5.75802   5.77069   5.84057
 Alpha virt. eigenvalues --    5.86075   5.86075   9.82255   9.82255   9.82272
 Alpha virt. eigenvalues --    9.82333   9.83604   9.83604   9.83614  10.29896
 Alpha virt. eigenvalues --   10.30445  10.30445  10.32051  10.32056  11.08959
 Alpha virt. eigenvalues --   11.11603  11.11603  11.42782  11.42872  11.42872
 Alpha virt. eigenvalues --   11.43038  11.43443  11.43846  11.43846  11.44646
 Alpha virt. eigenvalues --   11.44669  11.45799  11.45799  11.80224  11.80367
 Alpha virt. eigenvalues --   11.80367  11.80716  11.80895  11.81516  11.81516
 Alpha virt. eigenvalues --   11.82461  11.82464  12.53653  17.83132  17.83696
 Alpha virt. eigenvalues --   17.83696  17.85393  17.86208  20.05520  20.08589
 Alpha virt. eigenvalues --   20.08589  27.92539  31.56237  31.56780  31.56780
 Alpha virt. eigenvalues --   31.58426  31.59481  34.91488  34.94638  34.94638
 Alpha virt. eigenvalues --   58.02051  59.82459  59.85253  59.85253  65.14854
 Alpha virt. eigenvalues --   65.15277  65.15277  65.16551  65.17310 103.78565
 Alpha virt. eigenvalues --  103.80734 103.80734 106.97332 172.65074 172.65302
 Alpha virt. eigenvalues --  172.65302 172.65987 172.66311 184.89829 184.91368
 Alpha virt. eigenvalues --  184.91368 186.15791 337.92082 341.08232 341.09230
 Alpha virt. eigenvalues --  341.09230 593.59442 593.59522 593.59522 593.59763
 Alpha virt. eigenvalues --  593.59839 640.55563 657.85479 657.86058 657.86058
 Alpha virt. eigenvalues -- 1267.933531344.130941344.133931344.133932628.22549
 Alpha virt. eigenvalues -- 2955.043492955.044862955.044865717.103737162.11395
 Alpha virt. eigenvalues -- 7162.114507162.11450******************************
 Alpha virt. eigenvalues -- **************************************************
 Alpha virt. eigenvalues -- **************************************************
     Molecular Orbital Coefficients:
                           1         2         3         4         5
                       (A1G)--O  (T1U)--O  (T1U)--O  (T1U)--O      O
     Eigenvalues --    -2.63289  -1.62856  -1.62856  -1.58993  -0.34705
   1 1   Sc 1S         -0.00000   0.00000   0.00000   0.00000   0.00000
   2        2S          0.00000   0.00000   0.00000   0.00000  -0.00000
   3        3S         -0.00000   0.00000   0.00000   0.00000   0.00000
   4        4S          0.00000   0.00000   0.00000   0.00000  -0.00000
   5        5S         -0.00000   0.00000   0.00000   0.00000   0.00000
   6        6S          0.00001   0.00000   0.00000   0.00000  -0.00000
   7        7S         -0.00002   0.00000   0.00000   0.00000   0.00001
   8        8S          0.00007   0.00000   0.00000   0.00000  -0.00002
   9        9S         -0.00023   0.00000   0.00000   0.00000   0.00005
  10       10S          0.00066   0.00000   0.00000   0.00000  -0.00016
  11       11S         -0.00182   0.00000   0.00000   0.00000   0.00044
  12       12S          0.00512   0.00000   0.00000   0.00000  -0.00126
  13       13S         -0.01654   0.00000   0.00000   0.00000   0.00417
  14       14S          0.08295   0.00000   0.00000   0.00000  -0.02197
  15       15S         -0.11321   0.00000   0.00000   0.00000   0.03183
  16       16S         -0.48871   0.00000   0.00000   0.00000   0.14528
  17       17S          0.11679   0.00000   0.00000   0.00000  -0.03387
  18       18S          0.71058   0.00000   0.00000   0.00000  -0.25782
  19       19S          0.34278   0.00000   0.00000   0.00000  -0.26554
  20       20S          0.01575   0.00000   0.00000   0.00000   0.35856
  21       21S         -0.00878   0.00000   0.00000   0.00000   0.59442
  22       22S          0.00378   0.00000   0.00000   0.00000   0.22803
  23       23S          0.14031   0.00000   0.00000   0.00000  -0.05238
  24       24S          0.07314   0.00000   0.00000   0.00000  -0.01985
  25       25S         -0.00100   0.00000   0.00000   0.00000   0.00044
  26       26PX         0.00000   0.00000   0.00000  -0.00000   0.00000
  27       26PY         0.00000   0.00000  -0.00000   0.00000   0.00000
  28       26PZ         0.00000  -0.00000   0.00000   0.00000   0.00000
  29       27PX         0.00000   0.00000   0.00000   0.00000   0.00000
  30       27PY         0.00000   0.00000   0.00000   0.00000   0.00000
  31       27PZ         0.00000   0.00000   0.00000   0.00000   0.00000
  32       28PX         0.00000   0.00000   0.00000  -0.00000   0.00000
  33       28PY         0.00000   0.00000  -0.00000   0.00000   0.00000
  34       28PZ         0.00000  -0.00000   0.00000   0.00000   0.00000
  35       29PX         0.00000   0.00000   0.00000   0.00001   0.00000
  36       29PY         0.00000   0.00000   0.00001   0.00000   0.00000
  37       29PZ         0.00000   0.00001   0.00000   0.00000   0.00000
  38       30PX         0.00000   0.00000   0.00000  -0.00002   0.00000
  39       30PY         0.00000   0.00000  -0.00002   0.00000   0.00000
  40       30PZ         0.00000  -0.00002   0.00000   0.00000   0.00000
  41       31PX         0.00000   0.00000   0.00000   0.00008   0.00000
  42       31PY         0.00000   0.00000   0.00008   0.00000   0.00000
  43       31PZ         0.00000   0.00008   0.00000   0.00000   0.00000
  44       32PX         0.00000   0.00000   0.00000  -0.00025   0.00000
  45       32PY         0.00000   0.00000  -0.00025   0.00000   0.00000
  46       32PZ         0.00000  -0.00025   0.00000   0.00000   0.00000
  47       33PX         0.00000   0.00000   0.00000   0.00058   0.00000
  48       33PY         0.00000   0.00000   0.00058   0.00000   0.00000
  49       33PZ         0.00000   0.00058   0.00000   0.00000   0.00000
  50       34PX         0.00000   0.00000   0.00000   0.00768   0.00000
  51       34PY         0.00000   0.00000   0.00768   0.00000   0.00000
  52       34PZ         0.00000   0.00771   0.00000   0.00000   0.00000
  53       35PX         0.00000   0.00000   0.00000  -0.06513   0.00000
  54       35PY         0.00000   0.00000  -0.06513   0.00000   0.00000
  55       35PZ         0.00000  -0.06509   0.00000   0.00000   0.00000
  56       36PX         0.00000   0.00000   0.00000   0.00578   0.00000
  57       36PY         0.00000   0.00000   0.00578   0.00000   0.00000
  58       36PZ         0.00000   0.00469   0.00000   0.00000   0.00000
  59       37PX         0.00000   0.00000   0.00000   0.18501   0.00000
  60       37PY         0.00000   0.00000   0.18501   0.00000   0.00000
  61       37PZ         0.00000   0.18448   0.00000   0.00000   0.00000
  62       38PX         0.00000   0.00000   0.00000   0.38901   0.00000
  63       38PY         0.00000   0.00000   0.38901   0.00000   0.00000
  64       38PZ         0.00000   0.39186   0.00000   0.00000   0.00000
  65       39PX         0.00000   0.00000   0.00000   0.39521   0.00000
  66       39PY         0.00000   0.00000   0.39521   0.00000   0.00000
  67       39PZ         0.00000   0.39756   0.00000   0.00000   0.00000
  68       40PX         0.00000   0.00000   0.00000   0.16697   0.00000
  69       40PY         0.00000   0.00000   0.16697   0.00000   0.00000
  70       40PZ         0.00000   0.16307   0.00000   0.00000   0.00000
  71       41PX         0.00000   0.00000   0.00000   0.01648   0.00000
  72       41PY         0.00000   0.00000   0.01648   0.00000   0.00000
  73       41PZ         0.00000   0.01476   0.00000   0.00000   0.00000
  74       42PX         0.00000   0.00000   0.00000   0.00025   0.00000
  75       42PY         0.00000   0.00000   0.00025   0.00000   0.00000
  76       42PZ         0.00000   0.00043   0.00000   0.00000   0.00000
  77       43PX         0.00000   0.00000   0.00000   0.00032   0.00000
  78       43PY         0.00000   0.00000   0.00032   0.00000   0.00000
  79       43PZ         0.00000   0.00024   0.00000   0.00000   0.00000
  80       44PX         0.00000   0.00000   0.00000  -0.04843   0.00000
  81       44PY         0.00000   0.00000  -0.04843   0.00000   0.00000
  82       44PZ         0.00000  -0.04768   0.00000   0.00000   0.00000
  83       45PX         0.00000   0.00000   0.00000   0.00699   0.00000
  84       45PY         0.00000   0.00000   0.00699   0.00000   0.00000
  85       45PZ         0.00000   0.00635   0.00000   0.00000   0.00000
  86       46PX         0.00000   0.00000   0.00000  -0.00007   0.00000
  87       46PY         0.00000   0.00000  -0.00007   0.00000   0.00000
  88       46PZ         0.00000  -0.00004   0.00000   0.00000   0.00000
  89       47D 0        0.00000   0.00000   0.00000   0.00000   0.00000
  90       47D+1        0.00000   0.00000   0.00000   0.00000   0.00000
  91       47D-1        0.00000   0.00000   0.00000   0.00000   0.00000
  92       47D+2       -0.00000   0.00000   0.00000   0.00000   0.00000
  93       47D-2        0.00000   0.00000   0.00000   0.00000   0.00000
  94       48D 0        0.00000   0.00000   0.00000   0.00000   0.00000
  95       48D+1        0.00000   0.00000   0.00000   0.00000   0.00000
  96       48D-1        0.00000   0.00000   0.00000   0.00000   0.00000
  97       48D+2       -0.00000   0.00000   0.00000   0.00000   0.00000
  98       48D-2        0.00000   0.00000   0.00000   0.00000   0.00000
  99       49D 0        0.00016   0.00000   0.00000   0.00000   0.00013
 100       49D+1        0.00000   0.00000   0.00000   0.00000   0.00000
 101       49D-1        0.00000   0.00000   0.00000   0.00000   0.00000
 102       49D+2       -0.00000   0.00000   0.00000   0.00000   0.00000
 103       49D-2        0.00000   0.00000   0.00000   0.00000   0.00000
 104       50D 0        0.00057   0.00000   0.00000   0.00000   0.00058
 105       50D+1        0.00000   0.00000   0.00000   0.00000   0.00000
 106       50D-1        0.00000   0.00000   0.00000   0.00000   0.00000
 107       50D+2       -0.00000   0.00000   0.00000   0.00000   0.00000
 108       50D-2        0.00000   0.00000   0.00000   0.00000   0.00000
 109       51D 0        0.00108   0.00000   0.00000   0.00000   0.00098
 110       51D+1        0.00000   0.00000   0.00000   0.00000   0.00000
 111       51D-1        0.00000   0.00000   0.00000   0.00000   0.00000
 112       51D+2       -0.00000   0.00000   0.00000   0.00000   0.00000
 113       51D-2        0.00000   0.00000   0.00000   0.00000   0.00000
 114       52D 0        0.00240   0.00000   0.00000   0.00000   0.00095
 115       52D+1        0.00000   0.00000   0.00000   0.00000   0.00000
 116       52D-1        0.00000   0.00000   0.00000   0.00000   0.00000
 117       52D+2       -0.00000   0.00000   0.00000   0.00000   0.00000
 118       52D-2        0.00000   0.00000   0.00000   0.00000   0.00000
 119       53D 0        0.00168   0.00000   0.00000   0.00000   0.00244
 120       53D+1        0.00000   0.00000   0.00000   0.00000   0.00000
 121       53D-1        0.00000   0.00000   0.00000   0.00000   0.00000
 122       53D+2       -0.00000   0.00000   0.00000   0.00000   0.00000
 123       53D-2        0.00000   0.00000   0.00000   0.00000   0.00000
 124       54D 0       -0.00008   0.00000   0.00000   0.00000   0.00901
 125       54D+1        0.00000   0.00000   0.00000   0.00000   0.00000
 126       54D-1        0.00000   0.00000   0.00000   0.00000   0.00000
 127       54D+2       -0.00000   0.00000   0.00000   0.00000   0.00000
 128       54D-2        0.00000   0.00000   0.00000   0.00000   0.00000
 129       55D 0       -0.00012   0.00000   0.00000   0.00000   0.01320
 130       55D+1        0.00000   0.00000   0.00000   0.00000   0.00000
 131       55D-1        0.00000   0.00000   0.00000   0.00000   0.00000
 132       55D+2        0.00000   0.00000   0.00000   0.00000   0.00000
 133       55D-2        0.00000   0.00000   0.00000   0.00000   0.00000
 134       56D 0        0.00002   0.00000   0.00000   0.00000   0.00800
 135       56D+1        0.00000   0.00000   0.00000   0.00000   0.00000
 136       56D-1        0.00000   0.00000   0.00000   0.00000   0.00000
 137       56D+2       -0.00000   0.00000   0.00000   0.00000  -0.00000
 138       56D-2        0.00000   0.00000   0.00000   0.00000   0.00000
 139       57D 0       -0.00001   0.00000   0.00000   0.00000   0.00116
 140       57D+1        0.00000   0.00000   0.00000   0.00000   0.00000
 141       57D-1        0.00000   0.00000   0.00000   0.00000   0.00000
 142       57D+2        0.00000   0.00000   0.00000   0.00000   0.00000
 143       57D-2        0.00000   0.00000   0.00000   0.00000   0.00000
 144       58D 0        0.00102   0.00000   0.00000   0.00000   0.00029
 145       58D+1        0.00000   0.00000   0.00000   0.00000   0.00000
 146       58D-1        0.00000   0.00000   0.00000   0.00000   0.00000
 147       58D+2        0.00000   0.00000   0.00000   0.00000  -0.00000
 148       58D-2        0.00000   0.00000   0.00000   0.00000   0.00000
 149       59D 0        0.00172   0.00000   0.00000   0.00000   0.00036
 150       59D+1        0.00000   0.00000   0.00000   0.00000   0.00000
 151       59D-1        0.00000   0.00000   0.00000   0.00000   0.00000
 152       59D+2        0.00000   0.00000   0.00000   0.00000  -0.00000
 153       59D-2        0.00000   0.00000   0.00000   0.00000   0.00000
 154       60D 0        0.00000   0.00000   0.00000   0.00000  -0.00004
 155       60D+1        0.00000   0.00000   0.00000   0.00000   0.00000
 156       60D-1        0.00000   0.00000   0.00000   0.00000   0.00000
 157       60D+2       -0.00000   0.00000   0.00000   0.00000   0.00000
 158       60D-2        0.00000   0.00000   0.00000   0.00000   0.00000
 159       61F 0        0.00000   0.00141   0.00000   0.00000   0.00000
 160       61F+1        0.00000   0.00000   0.00000   0.00068   0.00000
 161       61F-1        0.00000   0.00000   0.00068   0.00000   0.00000
 162       61F+2        0.00000   0.00000   0.00000   0.00000   0.00000
 163       61F-2        0.00000   0.00000   0.00000   0.00000   0.00000
 164       61F+3        0.00000   0.00000   0.00000  -0.00181   0.00000
 165       61F-3        0.00000   0.00000   0.00181   0.00000   0.00000
 166       62F 0        0.00000   0.00345   0.00000   0.00000   0.00000
 167       62F+1        0.00000   0.00000   0.00000   0.00190   0.00000
 168       62F-1        0.00000   0.00000   0.00190   0.00000   0.00000
 169       62F+2        0.00000  -0.00000   0.00000   0.00000   0.00000
 170       62F-2        0.00000   0.00000   0.00000   0.00000   0.00000
 171       62F+3        0.00000   0.00000   0.00000  -0.00351   0.00000
 172       62F-3        0.00000   0.00000   0.00351   0.00000   0.00000
 173       63F 0        0.00000   0.00142   0.00000   0.00000   0.00000
 174       63F+1        0.00000   0.00000   0.00000  -0.00001   0.00000
 175       63F-1        0.00000   0.00000  -0.00001   0.00000   0.00000
 176       63F+2        0.00000  -0.00000   0.00000   0.00000   0.00000
 177       63F-2        0.00000   0.00000   0.00000   0.00000   0.00000
 178       63F+3        0.00000   0.00000   0.00000  -0.00449   0.00000
 179       63F-3        0.00000   0.00000   0.00449   0.00000   0.00000
 180       64F 0        0.00000   0.00002   0.00000   0.00000   0.00000
 181       64F+1        0.00000   0.00000   0.00000  -0.00022   0.00000
 182       64F-1        0.00000   0.00000  -0.00022   0.00000   0.00000
 183       64F+2        0.00000   0.00000   0.00000   0.00000   0.00000
 184       64F-2        0.00000   0.00000   0.00000   0.00000   0.00000
 185       64F+3        0.00000   0.00000   0.00000  -0.00089   0.00000
 186       64F-3        0.00000   0.00000   0.00089   0.00000   0.00000
 187       65F 0        0.00000   0.00001   0.00000   0.00000   0.00000
 188       65F+1        0.00000   0.00000   0.00000   0.00004   0.00000
 189       65F-1        0.00000   0.00000   0.00004   0.00000   0.00000
 190       65F+2        0.00000  -0.00000   0.00000   0.00000   0.00000
 191       65F-2        0.00000   0.00000   0.00000   0.00000   0.00000
 192       65F+3        0.00000   0.00000   0.00000   0.00010   0.00000
 193       65F-3        0.00000   0.00000  -0.00010   0.00000   0.00000
 194       66G 0        0.00005   0.00000   0.00000   0.00000   0.00002
 195       66G+1        0.00000   0.00000   0.00000   0.00000   0.00000
 196       66G-1        0.00000   0.00000   0.00000   0.00000   0.00000
 197       66G+2       -0.00000   0.00000   0.00000   0.00000   0.00000
 198       66G-2        0.00000   0.00000   0.00000   0.00000   0.00000
 199       66G+3        0.00000   0.00000   0.00000   0.00000   0.00000
 200       66G-3        0.00000   0.00000   0.00000   0.00000   0.00000
 201       66G+4       -0.00024   0.00000   0.00000   0.00000  -0.00009
 202       66G-4        0.00000   0.00000   0.00000   0.00000   0.00000
 203       67G 0        0.00016   0.00000   0.00000   0.00000   0.00010
 204       67G+1        0.00000   0.00000   0.00000   0.00000   0.00000
 205       67G-1        0.00000   0.00000   0.00000   0.00000   0.00000
 206       67G+2       -0.00000   0.00000   0.00000   0.00000   0.00000
 207       67G-2        0.00000   0.00000   0.00000   0.00000   0.00000
 208       67G+3        0.00000   0.00000   0.00000   0.00000   0.00000
 209       67G-3        0.00000   0.00000   0.00000   0.00000   0.00000
 210       67G+4       -0.00087   0.00000   0.00000   0.00000  -0.00025
 211       67G-4        0.00000   0.00000   0.00000   0.00000   0.00000
 212       68G 0        0.00010   0.00000   0.00000   0.00000   0.00009
 213       68G+1        0.00000   0.00000   0.00000   0.00000   0.00000
 214       68G-1        0.00000   0.00000   0.00000   0.00000   0.00000
 215       68G+2        0.00000   0.00000   0.00000   0.00000   0.00000
 216       68G-2        0.00000   0.00000   0.00000   0.00000   0.00000
 217       68G+3        0.00000   0.00000   0.00000   0.00000   0.00000
 218       68G-3        0.00000   0.00000   0.00000   0.00000   0.00000
 219       68G+4       -0.00059   0.00000   0.00000   0.00000   0.00021
 220       68G-4        0.00000   0.00000   0.00000   0.00000   0.00000
 221       69G 0       -0.00001   0.00000   0.00000   0.00000   0.00002
 222       69G+1        0.00000   0.00000   0.00000   0.00000   0.00000
 223       69G-1        0.00000   0.00000   0.00000   0.00000   0.00000
 224       69G+2       -0.00000   0.00000   0.00000   0.00000  -0.00000
 225       69G-2        0.00000   0.00000   0.00000   0.00000   0.00000
 226       69G+3        0.00000   0.00000   0.00000   0.00000   0.00000
 227       69G-3        0.00000   0.00000   0.00000   0.00000   0.00000
 228       69G+4        0.00006   0.00000   0.00000   0.00000   0.00011
 229       69G-4        0.00000   0.00000   0.00000   0.00000   0.00000
 230       70H 0        0.00000  -0.00005   0.00000   0.00000   0.00000
 231       70H+1        0.00000   0.00000   0.00000  -0.00004   0.00000
 232       70H-1        0.00000   0.00000  -0.00004   0.00000   0.00000
 233       70H+2        0.00000  -0.00000   0.00000   0.00000   0.00000
 234       70H-2        0.00000   0.00000   0.00000   0.00000   0.00000
 235       70H+3        0.00000   0.00000   0.00000  -0.00005   0.00000
 236       70H-3        0.00000   0.00000   0.00005   0.00000   0.00000
 237       70H+4        0.00000   0.00019   0.00000   0.00000   0.00000
 238       70H-4        0.00000   0.00000   0.00000   0.00000   0.00000
 239       70H+5        0.00000   0.00000   0.00000   0.00029   0.00000
 240       70H-5        0.00000   0.00000   0.00029   0.00000   0.00000
 241       71H 0        0.00000   0.00001   0.00000   0.00000   0.00000
 242       71H+1        0.00000   0.00000   0.00000   0.00001   0.00000
 243       71H-1        0.00000   0.00000   0.00001   0.00000   0.00000
 244       71H+2        0.00000  -0.00000   0.00000   0.00000   0.00000
 245       71H-2        0.00000   0.00000   0.00000   0.00000   0.00000
 246       71H+3        0.00000   0.00000   0.00000  -0.00000   0.00000
 247       71H-3        0.00000   0.00000   0.00000   0.00000   0.00000
 248       71H+4        0.00000  -0.00002   0.00000   0.00000   0.00000
 249       71H-4        0.00000   0.00000   0.00000   0.00000   0.00000
 250       71H+5        0.00000   0.00000   0.00000  -0.00003   0.00000
 251       71H-5        0.00000   0.00000  -0.00003   0.00000   0.00000
 252       72H 0        0.00000   0.00001   0.00000   0.00000   0.00000
 253       72H+1        0.00000   0.00000   0.00000   0.00001   0.00000
 254       72H-1        0.00000   0.00000   0.00001   0.00000   0.00000
 255       72H+2        0.00000   0.00000   0.00000   0.00000   0.00000
 256       72H-2        0.00000   0.00000   0.00000   0.00000   0.00000
 257       72H+3        0.00000   0.00000   0.00000   0.00001   0.00000
 258       72H-3        0.00000   0.00000  -0.00001   0.00000   0.00000
 259       72H+4        0.00000  -0.00003   0.00000   0.00000   0.00000
 260       72H-4        0.00000   0.00000   0.00000   0.00000   0.00000
 261       72H+5        0.00000   0.00000   0.00000  -0.00005   0.00000
 262       72H-5        0.00000   0.00000  -0.00005   0.00000   0.00000
                           6         7         8         9        10
                           O         V         V         V     (A1G)--V
     Eigenvalues --    -0.21548   0.01186   0.01277   0.01277   0.02125
   1 1   Sc 1S          0.00000   0.00000   0.00000   0.00000   0.00000
   2        2S          0.00000   0.00000   0.00000   0.00000  -0.00000
   3        3S          0.00000   0.00000   0.00000   0.00000   0.00000
   4        4S          0.00000   0.00000   0.00000   0.00000  -0.00000
   5        5S          0.00000   0.00000   0.00000   0.00000   0.00000
   6        6S          0.00000   0.00000   0.00000   0.00000  -0.00000
   7        7S          0.00000   0.00000   0.00000   0.00000   0.00001
   8        8S          0.00000   0.00000   0.00000   0.00000  -0.00002
   9        9S          0.00000   0.00000   0.00000   0.00000   0.00007
  10       10S          0.00000   0.00000   0.00000   0.00000  -0.00019
  11       11S          0.00000   0.00000   0.00000   0.00000   0.00049
  12       12S          0.00000   0.00000   0.00000   0.00000  -0.00123
  13       13S          0.00000   0.00000   0.00000   0.00000   0.00307
  14       14S          0.00000   0.00000   0.00000   0.00000  -0.01110
  15       15S          0.00000   0.00000   0.00000   0.00000   0.02836
  16       16S          0.00000   0.00000   0.00000   0.00000  -0.13359
  17       17S          0.00000   0.00000   0.00000   0.00000  -0.04592
  18       18S          0.00000   0.00000   0.00000   0.00000   0.04953
  19       19S          0.00000   0.00000   0.00000   0.00000  -0.17544
  20       20S          0.00000   0.00000   0.00000   0.00000   0.53314
  21       21S          0.00000   0.00000   0.00000   0.00000  -1.19968
  22       22S          0.00000   0.00000   0.00000   0.00000   2.92297
  23       23S          0.00000   0.00000   0.00000   0.00000   0.19770
  24       24S          0.00000   0.00000   0.00000   0.00000  -0.07745
  25       25S          0.00000   0.00000   0.00000   0.00000  -2.67467
  26       26PX         0.00000   0.00000   0.00000   0.00000   0.00000
  27       26PY         0.00000   0.00000   0.00000   0.00000   0.00000
  28       26PZ         0.00000   0.00000   0.00000   0.00000   0.00000
  29       27PX         0.00000   0.00000   0.00000  -0.00000   0.00000
  30       27PY         0.00000   0.00000  -0.00000   0.00000   0.00000
  31       27PZ         0.00000  -0.00000   0.00000   0.00000   0.00000
  32       28PX         0.00000   0.00000   0.00000   0.00000   0.00000
  33       28PY         0.00000   0.00000   0.00000   0.00000   0.00000
  34       28PZ         0.00000   0.00000   0.00000   0.00000   0.00000
  35       29PX         0.00000   0.00000   0.00000  -0.00001   0.00000
  36       29PY         0.00000   0.00000  -0.00001   0.00000   0.00000
  37       29PZ         0.00000  -0.00001   0.00000   0.00000   0.00000
  38       30PX         0.00000   0.00000   0.00000   0.00002   0.00000
  39       30PY         0.00000   0.00000   0.00002   0.00000   0.00000
  40       30PZ         0.00000   0.00002   0.00000   0.00000   0.00000
  41       31PX         0.00000   0.00000   0.00000  -0.00007   0.00000
  42       31PY         0.00000   0.00000  -0.00007   0.00000   0.00000
  43       31PZ         0.00000  -0.00006   0.00000   0.00000   0.00000
  44       32PX         0.00000   0.00000   0.00000   0.00021   0.00000
  45       32PY         0.00000   0.00000   0.00021   0.00000   0.00000
  46       32PZ         0.00000   0.00020   0.00000   0.00000   0.00000
  47       33PX         0.00000   0.00000   0.00000  -0.00061   0.00000
  48       33PY         0.00000   0.00000  -0.00061   0.00000   0.00000
  49       33PZ         0.00000  -0.00057   0.00000   0.00000   0.00000
  50       34PX         0.00000   0.00000   0.00000   0.00112   0.00000
  51       34PY         0.00000   0.00000   0.00112   0.00000   0.00000
  52       34PZ         0.00000   0.00090   0.00000   0.00000   0.00000
  53       35PX         0.00000   0.00000   0.00000  -0.00131   0.00000
  54       35PY         0.00000   0.00000  -0.00131   0.00000   0.00000
  55       35PZ         0.00000  -0.00017   0.00000   0.00000   0.00000
  56       36PX         0.00000   0.00000   0.00000   0.10668   0.00000
  57       36PY         0.00000   0.00000   0.10668   0.00000   0.00000
  58       36PZ         0.00000   0.09658   0.00000   0.00000   0.00000
  59       37PX         0.00000   0.00000   0.00000   0.04236   0.00000
  60       37PY         0.00000   0.00000   0.04236   0.00000   0.00000
  61       37PZ         0.00000   0.03533   0.00000   0.00000   0.00000
  62       38PX         0.00000   0.00000   0.00000  -0.25041   0.00000
  63       38PY         0.00000   0.00000  -0.25041   0.00000   0.00000
  64       38PZ         0.00000  -0.23375   0.00000   0.00000   0.00000
  65       39PX         0.00000   0.00000   0.00000  -0.15575   0.00000
  66       39PY         0.00000   0.00000  -0.15575   0.00000   0.00000
  67       39PZ         0.00000  -0.14977   0.00000   0.00000   0.00000
  68       40PX         0.00000   0.00000   0.00000   0.05382   0.00000
  69       40PY         0.00000   0.00000   0.05382   0.00000   0.00000
  70       40PZ         0.00000   0.04531   0.00000   0.00000   0.00000
  71       41PX         0.00000   0.00000   0.00000  -0.03750   0.00000
  72       41PY         0.00000   0.00000  -0.03750   0.00000   0.00000
  73       41PZ         0.00000  -0.01805   0.00000   0.00000   0.00000
  74       42PX         0.00000   0.00000   0.00000   0.35876   0.00000
  75       42PY         0.00000   0.00000   0.35876   0.00000   0.00000
  76       42PZ         0.00000   0.35936   0.00000   0.00000   0.00000
  77       43PX         0.00000   0.00000   0.00000  -0.26181   0.00000
  78       43PY         0.00000   0.00000  -0.26181   0.00000   0.00000
  79       43PZ         0.00000  -0.19541   0.00000   0.00000   0.00000
  80       44PX         0.00000   0.00000   0.00000  -0.12561   0.00000
  81       44PY         0.00000   0.00000  -0.12561   0.00000   0.00000
  82       44PZ         0.00000  -0.11308   0.00000   0.00000   0.00000
  83       45PX         0.00000   0.00000   0.00000   0.26004   0.00000
  84       45PY         0.00000   0.00000   0.26004   0.00000   0.00000
  85       45PZ         0.00000   0.23594   0.00000   0.00000   0.00000
  86       46PX         0.00000   0.00000   0.00000   1.03853   0.00000
  87       46PY         0.00000   0.00000   1.03853   0.00000   0.00000
  88       46PZ         0.00000   0.97376   0.00000   0.00000   0.00000
  89       47D 0        0.00000   0.00000   0.00000   0.00000   0.00000
  90       47D+1        0.00000   0.00000   0.00000   0.00000   0.00000
  91       47D-1        0.00000   0.00000   0.00000   0.00000   0.00000
  92       47D+2        0.00000   0.00000   0.00000   0.00000   0.00000
  93       47D-2        0.00002   0.00000   0.00000   0.00000   0.00000
  94       48D 0        0.00000   0.00000   0.00000   0.00000   0.00000
  95       48D+1        0.00000   0.00000   0.00000   0.00000   0.00000
  96       48D-1        0.00000   0.00000   0.00000   0.00000   0.00000
  97       48D+2        0.00000   0.00000   0.00000   0.00000   0.00000
  98       48D-2        0.00027   0.00000   0.00000   0.00000   0.00000
  99       49D 0        0.00000   0.00000   0.00000   0.00000   0.00006
 100       49D+1        0.00000   0.00000   0.00000   0.00000   0.00000
 101       49D-1        0.00000   0.00000   0.00000   0.00000   0.00000
 102       49D+2        0.00000   0.00000   0.00000   0.00000   0.00000
 103       49D-2        0.01746   0.00000   0.00000   0.00000   0.00000
 104       50D 0        0.00000   0.00000   0.00000   0.00000   0.00025
 105       50D+1        0.00000   0.00000   0.00000   0.00000   0.00000
 106       50D-1        0.00000   0.00000   0.00000   0.00000   0.00000
 107       50D+2        0.00000   0.00000   0.00000   0.00000   0.00000
 108       50D-2        0.07503   0.00000   0.00000   0.00000   0.00000
 109       51D 0        0.00000   0.00000   0.00000   0.00000   0.00045
 110       51D+1        0.00000   0.00000   0.00000   0.00000   0.00000
 111       51D-1        0.00000   0.00000   0.00000   0.00000   0.00000
 112       51D+2        0.00000   0.00000   0.00000   0.00000   0.00000
 113       51D-2        0.14367   0.00000   0.00000   0.00000   0.00000
 114       52D 0        0.00000   0.00000   0.00000   0.00000   0.00052
 115       52D+1        0.00000   0.00000   0.00000   0.00000   0.00000
 116       52D-1        0.00000   0.00000   0.00000   0.00000   0.00000
 117       52D+2        0.00000   0.00000   0.00000   0.00000   0.00000
 118       52D-2        0.23241   0.00000   0.00000   0.00000   0.00000
 119       53D 0        0.00000   0.00000   0.00000   0.00000   0.00087
 120       53D+1        0.00000   0.00000   0.00000   0.00000   0.00000
 121       53D-1        0.00000   0.00000   0.00000   0.00000   0.00000
 122       53D+2        0.00000   0.00000   0.00000   0.00000   0.00000
 123       53D-2        0.31851   0.00000   0.00000   0.00000   0.00000
 124       54D 0        0.00000   0.00000   0.00000   0.00000   0.00267
 125       54D+1        0.00000   0.00000   0.00000   0.00000   0.00000
 126       54D-1        0.00000   0.00000   0.00000   0.00000   0.00000
 127       54D+2        0.00000   0.00000   0.00000   0.00000   0.00000
 128       54D-2        0.30919   0.00000   0.00000   0.00000   0.00000
 129       55D 0        0.00000   0.00000   0.00000   0.00000   0.00345
 130       55D+1        0.00000   0.00000   0.00000   0.00000   0.00000
 131       55D-1        0.00000   0.00000   0.00000   0.00000   0.00000
 132       55D+2        0.00000   0.00000   0.00000   0.00000   0.00000
 133       55D-2        0.17736   0.00000   0.00000   0.00000   0.00000
 134       56D 0        0.00000   0.00000   0.00000   0.00000   0.00240
 135       56D+1        0.00000   0.00000   0.00000   0.00000   0.00000
 136       56D-1        0.00000   0.00000   0.00000   0.00000   0.00000
 137       56D+2        0.00000   0.00000   0.00000   0.00000   0.00000
 138       56D-2        0.04256   0.00000   0.00000   0.00000   0.00000
 139       57D 0        0.00000   0.00000   0.00000   0.00000   0.00135
 140       57D+1        0.00000   0.00000   0.00000   0.00000   0.00000
 141       57D-1        0.00000   0.00000   0.00000   0.00000   0.00000
 142       57D+2        0.00000   0.00000   0.00000   0.00000  -0.00000
[...]
  36       29PY         0.00000   0.00000   0.00000   0.00000
  37       29PZ         0.00000   0.00000   0.00000   0.00000
  38       30PX        -0.00000  -0.00000  -0.00000  -0.00000
  39       30PY        -0.00000  -0.00000  -0.00000  -0.00000
  40       30PZ        -0.00000  -0.00000  -0.00000  -0.00000
  41       31PX         0.00000   0.00000   0.00000   0.00000
  42       31PY         0.00000   0.00000   0.00000   0.00000
  43       31PZ         0.00000   0.00000   0.00000   0.00000
  44       32PX        -0.00001  -0.00000  -0.00000  -0.00000
  45       32PY        -0.00001  -0.00000  -0.00000  -0.00000
  46       32PZ        -0.00001  -0.00000  -0.00000  -0.00000
  47       33PX         0.00005   0.00002   0.00002   0.00000
  48       33PY         0.00005   0.00002   0.00002   0.00000
  49       33PZ         0.00005   0.00002   0.00002   0.00000
  50       34PX         0.00164   0.00082   0.00082   0.00000
  51       34PY         0.00164   0.00082   0.00082   0.00000
  52       34PZ         0.00165   0.00083   0.00083   0.00000
  53       35PX        -0.03186  -0.01593  -0.01593  -0.00000
  54       35PY        -0.03186  -0.01593  -0.01593  -0.00000
  55       35PZ        -0.03188  -0.01594  -0.01594  -0.00000
  56       36PX         0.00541   0.00271   0.00271   0.00000
  57       36PY         0.00541   0.00271   0.00271   0.00000
  58       36PZ         0.00440   0.00220   0.00220   0.00000
  59       37PX         0.27433   0.13717   0.13717   0.00000
  60       37PY         0.27433   0.13717   0.13717   0.00000
  61       37PZ         0.27397   0.13698   0.13698   0.00000
  62       38PX         0.73875   0.36938   0.36938   0.00000
  63       38PY         0.73875   0.36938   0.36938   0.00000
  64       38PZ         0.74496   0.37248   0.37248   0.00000
  65       39PX         0.76814   0.38407   0.38407   0.00000
  66       39PY         0.76814   0.38407   0.38407   0.00000
  67       39PZ         0.77247   0.38624   0.38624   0.00000
  68       40PX         0.26381   0.13190   0.13190   0.00000
  69       40PY         0.26381   0.13190   0.13190   0.00000
  70       40PZ         0.25692   0.12846   0.12846   0.00000
  71       41PX         0.01532   0.00766   0.00766   0.00000
  72       41PY         0.01532   0.00766   0.00766   0.00000
  73       41PZ         0.01363   0.00681   0.00681   0.00000
  74       42PX         0.00011   0.00006   0.00006   0.00000
  75       42PY         0.00011   0.00006   0.00006   0.00000
  76       42PZ         0.00019   0.00010   0.00010   0.00000
  77       43PX         0.00006   0.00003   0.00003   0.00000
  78       43PY         0.00006   0.00003   0.00003   0.00000
  79       43PZ         0.00004   0.00002   0.00002   0.00000
  80       44PX        -0.04957  -0.02479  -0.02479  -0.00000
  81       44PY        -0.04957  -0.02479  -0.02479  -0.00000
  82       44PZ        -0.04888  -0.02444  -0.02444  -0.00000
  83       45PX         0.01367   0.00684   0.00684   0.00000
  84       45PY         0.01367   0.00684   0.00684   0.00000
  85       45PZ         0.01244   0.00622   0.00622   0.00000
  86       46PX        -0.00000  -0.00000  -0.00000  -0.00000
  87       46PY        -0.00000  -0.00000  -0.00000  -0.00000
  88       46PZ        -0.00000  -0.00000  -0.00000  -0.00000
  89       47D 0        0.00000   0.00000   0.00000   0.00000
  90       47D+1        0.00000   0.00000   0.00000   0.00000
  91       47D-1        0.00000   0.00000   0.00000   0.00000
  92       47D+2        0.00000   0.00000   0.00000   0.00000
  93       47D-2        0.00000   0.00000   0.00000   0.00000
  94       48D 0        0.00000   0.00000   0.00000   0.00000
  95       48D+1        0.00000   0.00000   0.00000   0.00000
  96       48D-1        0.00000   0.00000   0.00000   0.00000
  97       48D+2        0.00000   0.00000   0.00000   0.00000
  98       48D-2        0.00002   0.00002   0.00000   0.00002
  99       49D 0        0.00000   0.00000   0.00000   0.00000
 100       49D+1        0.00000   0.00000   0.00000   0.00000
 101       49D-1        0.00000   0.00000   0.00000   0.00000
 102       49D+2        0.00000   0.00000   0.00000   0.00000
 103       49D-2        0.00293   0.00293   0.00000   0.00293
 104       50D 0        0.00001   0.00000   0.00000   0.00000
 105       50D+1        0.00000   0.00000   0.00000   0.00000
 106       50D-1        0.00000   0.00000   0.00000   0.00000
 107       50D+2        0.00000   0.00000   0.00000   0.00000
 108       50D-2        0.02695   0.02695   0.00000   0.02695
 109       51D 0        0.00002   0.00001   0.00001   0.00000
 110       51D+1        0.00000   0.00000   0.00000   0.00000
 111       51D-1        0.00000   0.00000   0.00000   0.00000
 112       51D+2        0.00000   0.00000   0.00000   0.00000
 113       51D-2        0.08538   0.08538   0.00000   0.08538
 114       52D 0        0.00005   0.00003   0.00003   0.00000
 115       52D+1        0.00000   0.00000   0.00000   0.00000
 116       52D-1        0.00000   0.00000   0.00000   0.00000
 117       52D+2        0.00000   0.00000   0.00000   0.00000
 118       52D-2        0.18662   0.18662   0.00000   0.18662
 119       53D 0        0.00010   0.00005   0.00005   0.00000
 120       53D+1        0.00000   0.00000   0.00000   0.00000
 121       53D-1        0.00000   0.00000   0.00000   0.00000
 122       53D+2        0.00000   0.00000   0.00000   0.00000
 123       53D-2        0.28737   0.28737   0.00000   0.28737
 124       54D 0        0.00044   0.00022   0.00022   0.00000
 125       54D+1        0.00000   0.00000   0.00000   0.00000
 126       54D-1        0.00000   0.00000   0.00000   0.00000
 127       54D+2        0.00000   0.00000   0.00000   0.00000
 128       54D-2        0.25579   0.25579   0.00000   0.25579
 129       55D 0        0.00072   0.00036   0.00036   0.00000
 130       55D+1        0.00000   0.00000   0.00000   0.00000
 131       55D-1        0.00000   0.00000   0.00000   0.00000
 132       55D+2        0.00000   0.00000   0.00000   0.00000
 133       55D-2        0.10573   0.10573   0.00000   0.10573
 134       56D 0        0.00035   0.00018   0.00018   0.00000
 135       56D+1        0.00000   0.00000   0.00000   0.00000
 136       56D-1        0.00000   0.00000   0.00000   0.00000
 137       56D+2       -0.00000  -0.00000  -0.00000  -0.00000
 138       56D-2        0.01377   0.01377  -0.00000   0.01377
 139       57D 0        0.00003   0.00001   0.00001   0.00000
 140       57D+1        0.00000   0.00000   0.00000   0.00000
 141       57D-1        0.00000   0.00000   0.00000   0.00000
 142       57D+2        0.00000   0.00000   0.00000   0.00000
 143       57D-2        0.00001   0.00001   0.00000   0.00001
 144       58D 0        0.00002   0.00001   0.00001   0.00000
 145       58D+1        0.00000   0.00000   0.00000   0.00000
 146       58D-1        0.00000   0.00000   0.00000   0.00000
 147       58D+2       -0.00000  -0.00000  -0.00000  -0.00000
 148       58D-2        0.01751   0.01751  -0.00000   0.01751
 149       59D 0        0.00003   0.00002   0.00002   0.00000
 150       59D+1        0.00000   0.00000   0.00000   0.00000
 151       59D-1        0.00000   0.00000   0.00000   0.00000
 152       59D+2       -0.00000  -0.00000  -0.00000  -0.00000
 153       59D-2        0.01790   0.01790  -0.00000   0.01790
 154       60D 0       -0.00000  -0.00000  -0.00000  -0.00000
 155       60D+1        0.00000   0.00000  -0.00000   0.00000
 156       60D-1        0.00000   0.00000  -0.00000   0.00000
 157       60D+2        0.00000   0.00000   0.00000   0.00000
 158       60D-2        0.00001   0.00001   0.00000   0.00001
 159       61F 0        0.00001   0.00001   0.00001   0.00000
 160       61F+1        0.00000   0.00000   0.00000   0.00000
 161       61F-1        0.00000   0.00000   0.00000   0.00000
 162       61F+2        0.00000   0.00000   0.00000   0.00000
 163       61F-2        0.00000   0.00000   0.00000   0.00000
 164       61F+3        0.00002   0.00001   0.00001   0.00000
 165       61F-3        0.00002   0.00001   0.00001   0.00000
 166       62F 0        0.00004   0.00002   0.00002   0.00000
 167       62F+1        0.00001   0.00000   0.00000   0.00000
 168       62F-1        0.00001   0.00000   0.00000   0.00000
 169       62F+2        0.00000   0.00000   0.00000   0.00000
 170       62F-2        0.00000   0.00000   0.00000   0.00000
 171       62F+3        0.00005   0.00003   0.00003   0.00000
 172       62F-3        0.00005   0.00003   0.00003   0.00000
 173       63F 0        0.00001   0.00001   0.00001   0.00000
 174       63F+1       -0.00000  -0.00000  -0.00000  -0.00000
 175       63F-1       -0.00000  -0.00000  -0.00000  -0.00000
 176       63F+2        0.00000   0.00000   0.00000   0.00000
 177       63F-2        0.00000   0.00000   0.00000   0.00000
 178       63F+3        0.00007   0.00003   0.00003   0.00000
 179       63F-3        0.00007   0.00003   0.00003   0.00000
 180       64F 0        0.00000   0.00000   0.00000   0.00000
 181       64F+1        0.00000   0.00000   0.00000   0.00000
 182       64F-1        0.00000   0.00000   0.00000   0.00000
 183       64F+2       -0.00000  -0.00000  -0.00000  -0.00000
 184       64F-2        0.00000   0.00000   0.00000   0.00000
 185       64F+3        0.00001   0.00000   0.00000   0.00000
 186       64F-3        0.00001   0.00000   0.00000   0.00000
 187       65F 0        0.00000   0.00000   0.00000   0.00000
 188       65F+1       -0.00000  -0.00000  -0.00000  -0.00000
 189       65F-1       -0.00000  -0.00000  -0.00000  -0.00000
 190       65F+2       -0.00000  -0.00000  -0.00000  -0.00000
 191       65F-2       -0.00000  -0.00000  -0.00000  -0.00000
 192       65F+3       -0.00000  -0.00000  -0.00000  -0.00000
 193       65F-3       -0.00000  -0.00000  -0.00000  -0.00000
 194       66G 0        0.00000   0.00000   0.00000   0.00000
 195       66G+1        0.00000   0.00000   0.00000   0.00000
 196       66G-1        0.00000   0.00000   0.00000   0.00000
 197       66G+2        0.00000   0.00000   0.00000   0.00000
 198       66G-2        0.00000   0.00000   0.00000   0.00000
 199       66G+3        0.00000   0.00000   0.00000   0.00000
 200       66G-3        0.00000   0.00000   0.00000   0.00000
 201       66G+4        0.00000   0.00000   0.00000   0.00000
 202       66G-4       -0.00000  -0.00000   0.00000  -0.00000
 203       67G 0        0.00000   0.00000   0.00000   0.00000
 204       67G+1        0.00000   0.00000   0.00000   0.00000
 205       67G-1        0.00000   0.00000   0.00000   0.00000
 206       67G+2        0.00000   0.00000   0.00000   0.00000
 207       67G-2        0.00000   0.00000   0.00000   0.00000
 208       67G+3        0.00000   0.00000   0.00000   0.00000
 209       67G-3        0.00000   0.00000   0.00000   0.00000
 210       67G+4        0.00000   0.00000   0.00000   0.00000
 211       67G-4        0.00000   0.00000   0.00000   0.00000
 212       68G 0        0.00000   0.00000   0.00000   0.00000
 213       68G+1        0.00000   0.00000   0.00000   0.00000
 214       68G-1        0.00000   0.00000   0.00000   0.00000
 215       68G+2        0.00000   0.00000   0.00000   0.00000
 216       68G-2        0.00000   0.00000   0.00000   0.00000
 217       68G+3        0.00000   0.00000   0.00000   0.00000
 218       68G-3        0.00000   0.00000   0.00000   0.00000
 219       68G+4        0.00000   0.00000   0.00000   0.00000
 220       68G-4        0.00000   0.00000   0.00000   0.00000
 221       69G 0        0.00000   0.00000   0.00000   0.00000
 222       69G+1        0.00000   0.00000   0.00000   0.00000
 223       69G-1        0.00000   0.00000   0.00000   0.00000
 224       69G+2        0.00000   0.00000   0.00000   0.00000
 225       69G-2        0.00000   0.00000   0.00000   0.00000
 226       69G+3        0.00000   0.00000   0.00000   0.00000
 227       69G-3        0.00000   0.00000   0.00000   0.00000
 228       69G+4        0.00000   0.00000   0.00000   0.00000
 229       69G-4        0.00000   0.00000   0.00000   0.00000
 230       70H 0        0.00000   0.00000   0.00000   0.00000
 231       70H+1        0.00000   0.00000   0.00000   0.00000
 232       70H-1        0.00000   0.00000   0.00000   0.00000
 233       70H+2        0.00000   0.00000   0.00000   0.00000
 234       70H-2        0.00000   0.00000   0.00000   0.00000
 235       70H+3        0.00000   0.00000   0.00000   0.00000
 236       70H-3        0.00000   0.00000   0.00000   0.00000
 237       70H+4        0.00000   0.00000   0.00000   0.00000
 238       70H-4        0.00000   0.00000   0.00000   0.00000
 239       70H+5        0.00000   0.00000   0.00000   0.00000
 240       70H-5        0.00000   0.00000   0.00000   0.00000
 241       71H 0        0.00000   0.00000   0.00000   0.00000
 242       71H+1       -0.00000  -0.00000  -0.00000  -0.00000
 243       71H-1       -0.00000  -0.00000  -0.00000   0.00000
 244       71H+2        0.00000   0.00000   0.00000   0.00000
 245       71H-2       -0.00000  -0.00000  -0.00000  -0.00000
 246       71H+3        0.00000   0.00000   0.00000   0.00000
 247       71H-3        0.00000   0.00000   0.00000   0.00000
 248       71H+4       -0.00000  -0.00000  -0.00000  -0.00000
 249       71H-4       -0.00000  -0.00000  -0.00000  -0.00000
 250       71H+5       -0.00000  -0.00000  -0.00000  -0.00000
 251       71H-5       -0.00000  -0.00000  -0.00000  -0.00000
 252       72H 0        0.00000   0.00000   0.00000   0.00000
 253       72H+1        0.00000   0.00000   0.00000   0.00000
 254       72H-1        0.00000   0.00000   0.00000   0.00000
 255       72H+2       -0.00000  -0.00000  -0.00000  -0.00000
 256       72H-2        0.00000   0.00000   0.00000   0.00000
 257       72H+3        0.00000   0.00000   0.00000   0.00000
 258       72H-3        0.00000   0.00000   0.00000   0.00000
 259       72H+4        0.00000   0.00000   0.00000   0.00000
 260       72H-4        0.00000   0.00000   0.00000   0.00000
 261       72H+5        0.00000   0.00000   0.00000   0.00000
 262       72H-5        0.00000   0.00000   0.00000   0.00000
          Condensed to atoms (all electrons):
               1
     1  Sc  11.000000
          Atomic-Atomic Spin Densities.
               1
     1  Sc   1.000000
 Mulliken charges and spin densities:
               1          2
     1  Sc   0.000000   1.000000
 Sum of Mulliken charges =   0.00000   1.00000
 Mulliken charges and spin densities with hydrogens summed into heavy atoms:
               1          2
     1  Sc   0.000000   1.000000
 Electronic spatial extent (au):  <R**2>=             51.7764
 Charge=              0.0000 electrons
 Dipole moment (field-independent basis, Debye):
    X=              0.0000    Y=              0.0000    Z=              0.0000  Tot=              0.0000
 Quadrupole moment (field-independent basis, Debye-Ang):
   XX=            -23.3120   YY=            -23.3120   ZZ=            -23.0169
   XY=             -0.0000   XZ=              0.0000   YZ=             -0.0000
 Traceless Quadrupole moment (field-independent basis, Debye-Ang):
   XX=             -0.0984   YY=             -0.0984   ZZ=              0.1967
   XY=             -0.0000   XZ=              0.0000   YZ=             -0.0000
 Octapole moment (field-independent basis, Debye-Ang**2):
  XXX=              0.0000  YYY=              0.0000  ZZZ=              0.0000  XYY=              0.0000
  XXY=              0.0000  XXZ=              0.0000  XZZ=              0.0000  YZZ=              0.0000
  YYZ=              0.0000  XYZ=              0.0000
 Hexadecapole moment (field-independent basis, Debye-Ang**3):
 XXXX=            -83.8751 YYYY=            -83.8751 ZZZZ=            -88.3772 XXXY=              0.0000
 XXXZ=             -0.0000 YYYX=             -0.0000 YYYZ=              0.0000 ZZZX=             -0.0000
 ZZZY=              0.0000 XXYY=            -28.7246 XXZZ=            -28.6933 YYZZ=            -28.6933
 XXYZ=             -0.0000 YYXZ=              0.0000 ZZXY=             -0.0000
 N-N= 0.000000000000D+00 E-N=-9.568061903113D+01  KE= 1.882113268263D+01
 Symmetry AG   KE= 3.084070702630D+00
 Symmetry B1G  KE= 3.107513915635D+00
 Symmetry B2G  KE= 5.835475474662D-33
 Symmetry B3G  KE= 5.835475478919D-33
 Symmetry AU   KE= 9.859073562424D-37
 Symmetry B1U  KE= 4.220648005467D+00
 Symmetry B2U  KE= 4.204450029798D+00
 Symmetry B3U  KE= 4.204450029323D+00
 Symmetry AG   SP= 1.130344871879D-15
 Symmetry B1G  SP= 1.000000000000D+00
 Symmetry B2G  SP= 1.874710570893D-33
 Symmetry B3G  SP= 1.874710570891D-33
 Symmetry AU   SP= 1.474096124695D-52
 Symmetry B1U  SP= 6.365645188854D-16
 Symmetry B2U  SP= 6.532824185881D-16
 Symmetry B3U  SP= 6.493442299691D-16
 Orbital energies and kinetic energies (alpha):
                                 1                 2
   1         (A1G)--O         -2.632892          1.300333
   2         (T1U)--O         -1.628556          2.110324
   3         (T1U)--O         -1.628556          2.102225
   4         (T1U)--O         -1.589932          2.102225
   5         O                -0.347055          0.241703
   6         O                -0.215482          3.107514
   7         V                 0.011864          0.055284
   8         V                 0.012773          0.048785
   9         V                 0.012773          0.048785
  10         (A1G)--V          0.021248          0.034297
  11         (EG)--V           0.028863          0.031491
 Total kinetic energy from orbitals= 2.192864659826D+01
                          Isotropic Fermi Contact Couplings
        Atom                 a.u.       MegaHertz       Gauss      10(-4) cm-1
     1  Sc(45)            -0.00000      -0.00000      -0.00000      -0.00000
 --------------------------------------------------------
       Center         ----  Spin Dipole Couplings  ----
                      3XX-RR        3YY-RR        3ZZ-RR
 --------------------------------------------------------
     1   Atom        0.397523      0.397523     -0.795046
 --------------------------------------------------------
                        XY            XZ            YZ
 --------------------------------------------------------
     1   Atom        0.000000      0.000000      0.000000
 --------------------------------------------------------


 ---------------------------------------------------------------------------------
              Anisotropic Spin Dipole Couplings in Principal Axis System
 ---------------------------------------------------------------------------------

       Atom             a.u.   MegaHertz   Gauss  10(-4) cm-1        Axes

              Baa    -0.7950  -103.207   -36.827   -34.426  0.0000  0.0000  1.0000
     1 Sc(45) Bbb     0.3975    51.604    18.413    17.213  1.0000  0.0000  0.0000
              Bcc     0.3975    51.604    18.413    17.213 -0.0000  1.0000  0.0000
 

 ---------------------------------------------------------------------------------

 No NMR shielding tensors so no spin-rotation constants.
 Leave Link  601 at Tue Mar  6 11:37:51 2018, MaxMem= 10737418240 cpu:              86.9 elap:               5.6
 (Enter /home1/apps/gaussian/16rA.03/g16/l9999.exe)
 1\1\GINC-C455-014\SP\ROCCSD(T)-Full\Gen\Sc1(2)\AANNABE\06-Mar-2018\0\\
 #P ROCCSD(T)=(maxcyc=150, Full)/Gen 5d 7f SCF=(maxcycles=300, NoVarAcc
 , VShift=200) MaxDisk=100GB Pop=Regular Pseudo=Read Guess=Read\\Sc\\0,
 2\Sc,0,0.,0.,0.\\Version=ES64L-G16RevA.03\HF=-46.1546435\MP2=-46.54000
 51\MP3=-46.5600978\PUHF=-46.1546435\PMP2-0=-46.5400051\MP4SDQ=-46.5596
 204\CCSD=-46.5598555\CCSD(T)=-46.5753597\RMSD=8.621e-09\PG=OH [O(Sc1)]
 \\@


  THE LARGE PRINT GIVETH,
  AND THE SMALL PRINT TAKETH AWAY.

                     -- TOM WAITS
 Job cpu time:       0 days  4 hours 38 minutes 48.4 seconds.
 Elapsed time:       0 days  0 hours 17 minutes 30.7 seconds.
 File lengths (MBytes):  RWF=   2409 Int=      0 D2E=      0 Chk=     10 Scr=      1
 Normal termination of Gaussian 16 at Tue Mar  6 11:37:51 2018.
