 Entering Gaussian System, Link 0=g16
 Initial command:
 /home1/apps/gaussian/16rA.03/g16/l1.exe "/tmp/Gau-52993.inp" -scrdir="/tmp/"
 Entering Link 1 = /home1/apps/gaussian/16rA.03/g16/l1.exe PID=     52994.
  
 Copyright (c) 1988,1990,1992,1993,1995,1998,2003,2009,2016,
            Gaussian, Inc.  All Rights Reserved.
  
 This is part of the Gaussian(R) 16 program.  It is based on
 the Gaussian(R) 09 system (copyright 2009, Gaussian, Inc.),
 the Gaussian(R) 03 system (copyright 2003, Gaussian, Inc.),
 the Gaussian(R) 98 system (copyright 1998, Gaussian, Inc.),
 the Gaussian(R) 94 system (copyright 1995, Gaussian, Inc.),
 the Gaussian 92(TM) system (copyright 1992, Gaussian, Inc.),
 the Gaussian 90(TM) system (copyright 1990, Gaussian, Inc.),
 the Gaussian 88(TM) system (copyright 1988, Gaussian, Inc.),
 the Gaussian 86(TM) system (copyright 1986, Carnegie Mellon
 University), and the Gaussian 82(TM) system (copyright 1983,
 Carnegie Mellon University). Gaussian is a federally registered
 trademark of Gaussian, Inc.
  
 This software contains proprietary and confidential information,
 including trade secrets, belonging to Gaussian, Inc.
  
 This software is provided under written license and may be
 used, copied, transmitted, or stored only in accord with that
 written license.
  
 The following legend is applicable only to US Government
 contracts under FAR:
  
                    RESTRICTED RIGHTS LEGEND
  
 Use, reproduction and disclosure by the US Government is
 subject to restrictions as set forth in subparagraphs (a)
 and (c) of the Commercial Computer Software - Restricted
 Rights clause in FAR 52.227-19.
  
 Gaussian, Inc.
 340 Quinnipiac St., Bldg. 40, Wallingford CT 06492
  
  
 ---------------------------------------------------------------
 Warning -- This program may not be used in any manner that
 competes with the business of Gaussian, Inc. or will provide
 assistance to any competitor of Gaussian, Inc.  The licensee
 of this program is prohibited from giving any competitor of
 Gaussian, Inc. access to this program.  By using this program,
 the user acknowledges that Gaussian, Inc. is engaged in the
 business of creating and licensing software in the field of
 computational chemistry and represents and warrants to the
 licensee that it is not a competitor of Gaussian, Inc. and that
 it will not use this program in any manner prohibited above.
 ---------------------------------------------------------------
  

 Cite this work as:
 Gaussian 16, Revision A.03,
 M. J. Frisch, G. W. Trucks, H. B. Schlegel, G. E. Scuseria, 
 M. A. Robb, J. R. Cheeseman, G. Scalmani, V. Barone, 
 G. A. Petersson, H. Nakatsuji, X. Li, M. Caricato, A. V. Marenich, 
 J. Bloino, B. G. Janesko, R. Gomperts, B. Mennucci, H. P. Hratchian, 
 J. V. Ortiz, A. F. Izmaylov, J. L. Sonnenberg, D. Williams-Young, 
 F. Ding, F. Lipparini, F. Egidi, J. Goings, B. Peng, A. Petrone, 
 T. Henderson, D. Ranasinghe, V. G. Zakrzewski, J. Gao, N. Rega, 
 G. Zheng, W. Liang, M. Hada, M. Ehara, K. Toyota, R. Fukuda, 
 J. Hasegawa, M. Ishida, T. Nakajima, Y. Honda, O. Kitao, H. Nakai, 
 T. Vreven, K. Throssell, J. A. Montgomery, Jr., J. E. Peralta, 
 F. Ogliaro, M. J. Bearpark, J. J. Heyd, E. N. Brothers, K. N. Kudin, 
 V. N. Staroverov, T. A. Keith, R. Kobayashi, J. Normand, 
 K. Raghavachari, A. P. Rendell, J. C. Burant, S. S. Iyengar, 
 J. Tomasi, M. Cossi, J. M. Millam, M. Klene, C. Adamo, R. Cammi, 
 J. W. Ochterski, R. L. Martin, K. Morokuma, O. Farkas, 
 J. B. Foresman, and D. J. Fox, Gaussian, Inc., Wallingford CT, 2016.
 
 ******************************************
 Gaussian 16:  ES64L-G16RevA.03 25-Dec-2016
                19-Apr-2018 
 ******************************************
 %MEM=160GB
 %CPU=0-31
 SetSPE:  set environment variable "MP_BIND" = "yes"
 SetSPE:  set environment variable "MP_BLIST" = "0,1,2,3,4,5,6,7,8,9,10,11,12,13,14,15,16,17,18,19,20,21,22,23,24,25,26,27,28,29,30,31"
 Will use up to   32 processors via shared memory.
 %RWF=/scratch/04843/aannabe/gaussian/
 %Int=/scratch/04843/aannabe/gaussian/
 %D2E=/scratch/04843/aannabe/gaussian/
 %NoSave
 %CHK=MnH
 ----------------------------------------------------------------------
 #P ROCCSD(T)=(maxcyc=150, Full, SaveAmplitudes, ReadAmplitudes)/Gen 5d
  7f SCF=(maxcycles=300, VShift=400) Integral(NoXCTest) MaxDisk=500GB P
 op=Full Pseudo=Read Guess=Read
 ----------------------------------------------------------------------
 1/38=1,172=1/1;
 2/12=2,17=6,18=5,40=1/2;
 3/5=7,8=11,11=2,16=1,17=8,25=1,30=1,47=8,116=101/1,2,3;
 4/5=1/1;
 5/5=2,7=300,10=400,38=6/2;
 8/5=-1,6=4,9=120000,10=90,24=1/1,4;
 9/5=7,6=150,14=2,77=1/13;
 6/7=3/1;
 99/5=1,9=1/99;
 Leave Link    1 at Thu Apr 19 08:55:49 2018, MaxMem= 21474836480 cpu:               1.7 elap:               0.1
 (Enter /home1/apps/gaussian/16rA.03/g16/l101.exe)
 ---
 MnH
 ---
 Symbolic Z-matrix:
 Charge =  0 Multiplicity = 7
 Mn                    0.        0.        0. 
 H                     0.        0.        1.4 
 
 ITRead=  0  0
 MicOpt= -1 -1
 NAtoms=      2 NQM=        2 NQMF=       0 NMMI=      0 NMMIF=      0
                NMic=       0 NMicF=      0.
                    Isotopes and Nuclear Properties:
 (Nuclear quadrupole moments (NQMom) in fm**2, nuclear magnetic moments (NMagM)
  in nuclear magnetons)

  Atom         1           2
 IAtWgt=          55           1
 AtmWgt=  54.9380463   1.0078250
 NucSpn=           5           1
 AtZEff=  -0.0000000  -0.0000000
 NQMom=   33.0000000   0.0000000
 NMagM=    3.4532000   2.7928460
 AtZNuc=  25.0000000   1.0000000
 Leave Link  101 at Thu Apr 19 08:55:50 2018, MaxMem= 21474836480 cpu:               2.7 elap:               0.1
 (Enter /home1/apps/gaussian/16rA.03/g16/l202.exe)
                          Input orientation:                          
 ---------------------------------------------------------------------
 Center     Atomic      Atomic             Coordinates (Angstroms)
 Number     Number       Type             X           Y           Z
 ---------------------------------------------------------------------
      1         25           0        0.000000    0.000000    0.000000
      2          1           0        0.000000    0.000000    1.400000
 ---------------------------------------------------------------------
 Stoichiometry    HMn(7)
 Framework group  C*V[C*(HMn)]
 Deg. of freedom     1
 Full point group                 C*V     NOp   4
 Largest Abelian subgroup         C2V     NOp   4
 Largest concise Abelian subgroup C1      NOp   1
                         Standard orientation:                         
 ---------------------------------------------------------------------
 Center     Atomic      Atomic             Coordinates (Angstroms)
 Number     Number       Type             X           Y           Z
 ---------------------------------------------------------------------
      1         25           0        0.000000    0.000000    0.053846
      2          1           0        0.000000    0.000000   -1.346154
 ---------------------------------------------------------------------
 Rotational constants (GHZ):           0.0000000         260.5378448         260.5378448
 Leave Link  202 at Thu Apr 19 08:55:50 2018, MaxMem= 21474836480 cpu:               0.5 elap:               0.0
 (Enter /home1/apps/gaussian/16rA.03/g16/l301.exe)
 General basis read from cards:  (5D, 7F)
 Centers:       1
 S 1 1.00
     Exponent=  3.8448140000D+04 Coefficients=  1.0000000000D+00
 S 1 1.00
     Exponent=  1.3881710000D+04 Coefficients=  1.0000000000D+00
 S 1 1.00
     Exponent=  5.4150020000D+03 Coefficients=  1.0000000000D+00
 S 1 1.00
     Exponent=  2.2464600000D+03 Coefficients=  1.0000000000D+00
 S 1 1.00
     Exponent=  9.8014630000D+02 Coefficients=  1.0000000000D+00
 S 1 1.00
     Exponent=  4.4589520000D+02 Coefficients=  1.0000000000D+00
 S 1 1.00
     Exponent=  2.1005580000D+02 Coefficients=  1.0000000000D+00
 S 1 1.00
     Exponent=  1.0180460000D+02 Coefficients=  1.0000000000D+00
 S 1 1.00
     Exponent=  5.0011260000D+01 Coefficients=  1.0000000000D+00
 S 1 1.00
     Exponent=  2.2939390000D+01 Coefficients=  1.0000000000D+00
 S 1 1.00
     Exponent=  1.1522640000D+01 Coefficients=  1.0000000000D+00
 S 1 1.00
     Exponent=  5.7763380000D+00 Coefficients=  1.0000000000D+00
 S 1 1.00
     Exponent=  2.6259590000D+00 Coefficients=  1.0000000000D+00
 S 1 1.00
     Exponent=  1.2603220000D+00 Coefficients=  1.0000000000D+00
 S 1 1.00
     Exponent=  5.7713000000D-01 Coefficients=  1.0000000000D+00
 S 1 1.00
     Exponent=  1.3658200000D-01 Coefficients=  1.0000000000D+00
 S 1 1.00
     Exponent=  6.3535000000D-02 Coefficients=  1.0000000000D+00
 S 1 1.00
     Exponent=  2.8521000000D-02 Coefficients=  1.0000000000D+00
 S 1 1.00
     Exponent=  5.3389000000D+00 Coefficients=  1.0000000000D+00
 S 1 1.00
     Exponent=  1.6013000000D+00 Coefficients=  1.0000000000D+00
 S 1 1.00
     Exponent=  1.2800000000D-02 Coefficients=  1.0000000000D+00
 P 1 1.00
     Exponent=  2.6884650000D+03 Coefficients=  1.0000000000D+00
 P 1 1.00
     Exponent=  1.0294900000D+03 Coefficients=  1.0000000000D+00
 P 1 1.00
     Exponent=  4.3807080000D+02 Coefficients=  1.0000000000D+00
 P 1 1.00
     Exponent=  2.0061530000D+02 Coefficients=  1.0000000000D+00
 P 1 1.00
     Exponent=  9.7007690000D+01 Coefficients=  1.0000000000D+00
 P 1 1.00
     Exponent=  4.8870520000D+01 Coefficients=  1.0000000000D+00
 P 1 1.00
     Exponent=  2.5292810000D+01 Coefficients=  1.0000000000D+00
 P 1 1.00
     Exponent=  1.3353820000D+01 Coefficients=  1.0000000000D+00
 P 1 1.00
     Exponent=  7.1317860000D+00 Coefficients=  1.0000000000D+00
 P 1 1.00
     Exponent=  3.7643650000D+00 Coefficients=  1.0000000000D+00
 P 1 1.00
     Exponent=  1.9462650000D+00 Coefficients=  1.0000000000D+00
 P 1 1.00
     Exponent=  9.8545500000D-01 Coefficients=  1.0000000000D+00
 P 1 1.00
     Exponent=  4.8186500000D-01 Coefficients=  1.0000000000D+00
 P 1 1.00
     Exponent=  1.8822219000D-01 Coefficients=  1.0000000000D+00
 P 1 1.00
     Exponent=  7.7539570000D-02 Coefficients=  1.0000000000D+00
 P 1 1.00
     Exponent=  3.1549450000D-02 Coefficients=  1.0000000000D+00
 P 1 1.00
     Exponent=  7.3423000000D+00 Coefficients=  1.0000000000D+00
 P 1 1.00
     Exponent=  1.9340000000D+00 Coefficients=  1.0000000000D+00
 P 1 1.00
     Exponent=  1.2840000000D-02 Coefficients=  1.0000000000D+00
 D 1 1.00
     Exponent=  3.1310900000D+02 Coefficients=  1.0000000000D+00
 D 1 1.00
     Exponent=  9.2527600000D+01 Coefficients=  1.0000000000D+00
 D 1 1.00
     Exponent=  3.5419100000D+01 Coefficients=  1.0000000000D+00
 D 1 1.00
     Exponent=  1.5157700000D+01 Coefficients=  1.0000000000D+00
 D 1 1.00
     Exponent=  6.9096400000D+00 Coefficients=  1.0000000000D+00
 D 1 1.00
     Exponent=  3.2725600000D+00 Coefficients=  1.0000000000D+00
 D 1 1.00
     Exponent=  1.5493600000D+00 Coefficients=  1.0000000000D+00
 D 1 1.00
     Exponent=  7.1709400000D-01 Coefficients=  1.0000000000D+00
 D 1 1.00
     Exponent=  3.1931000000D-01 Coefficients=  1.0000000000D+00
 D 1 1.00
     Exponent=  1.3415700000D-01 Coefficients=  1.0000000000D+00
 D 1 1.00
     Exponent=  5.1400000000D-02 Coefficients=  1.0000000000D+00
 D 1 1.00
     Exponent=  4.6851000000D+00 Coefficients=  1.0000000000D+00
 D 1 1.00
     Exponent=  2.4217000000D+00 Coefficients=  1.0000000000D+00
 D 1 1.00
     Exponent=  1.9690000000D-02 Coefficients=  1.0000000000D+00
 F 1 1.00
     Exponent=  6.6540000000D+00 Coefficients=  1.0000000000D+00
 F 1 1.00
     Exponent=  2.7676000000D+00 Coefficients=  1.0000000000D+00
 F 1 1.00
     Exponent=  1.1511000000D+00 Coefficients=  1.0000000000D+00
 F 1 1.00
     Exponent=  3.8120000000D-01 Coefficients=  1.0000000000D+00
 F 1 1.00
     Exponent=  1.2624000000D-01 Coefficients=  1.0000000000D+00
 G 1 1.00
     Exponent=  5.4683000000D+00 Coefficients=  1.0000000000D+00
 G 1 1.00
     Exponent=  2.3327000000D+00 Coefficients=  1.0000000000D+00
 G 1 1.00
     Exponent=  8.5200000000D-01 Coefficients=  1.0000000000D+00
 G 1 1.00
     Exponent=  3.1119000000D-01 Coefficients=  1.0000000000D+00
 H 1 1.00
     Exponent=  5.1185000000D+00 Coefficients=  1.0000000000D+00
 H 1 1.00
     Exponent=  1.9660000000D+00 Coefficients=  1.0000000000D+00
 H 1 1.00
     Exponent=  7.5513000000D-01 Coefficients=  1.0000000000D+00
 ****
 Centers:       2
 S 1 1.00
     Exponent=  8.2640000000D+01 Coefficients=  1.0000000000D+00
 S 1 1.00
     Exponent=  1.2410000000D+01 Coefficients=  1.0000000000D+00
 S 1 1.00
     Exponent=  2.8240000000D+00 Coefficients=  1.0000000000D+00
 S 1 1.00
     Exponent=  7.9770000000D-01 Coefficients=  1.0000000000D+00
 S 1 1.00
     Exponent=  2.5810000000D-01 Coefficients=  1.0000000000D+00
 S 1 1.00
     Exponent=  8.9890000000D-02 Coefficients=  1.0000000000D+00
 S 1 1.00
     Exponent=  2.3630000000D-02 Coefficients=  1.0000000000D+00
 P 1 1.00
     Exponent=  2.2920000000D+00 Coefficients=  1.0000000000D+00
 P 1 1.00
     Exponent=  8.3800000000D-01 Coefficients=  1.0000000000D+00
 P 1 1.00
     Exponent=  2.9200000000D-01 Coefficients=  1.0000000000D+00
 P 1 1.00
     Exponent=  8.4800000000D-02 Coefficients=  1.0000000000D+00
 D 1 1.00
     Exponent=  2.0620000000D+00 Coefficients=  1.0000000000D+00
 D 1 1.00
     Exponent=  6.6200000000D-01 Coefficients=  1.0000000000D+00
 D 1 1.00
     Exponent=  1.9000000000D-01 Coefficients=  1.0000000000D+00
 F 1 1.00
     Exponent=  1.3970000000D+00 Coefficients=  1.0000000000D+00
 F 1 1.00
     Exponent=  3.6000000000D-01 Coefficients=  1.0000000000D+00
 ****
 ======================================================================================================
                                       Pseudopotential Parameters
 ======================================================================================================
  Center     Atomic      Valence      Angular      Power
  Number     Number     Electrons     Momentum     of R      Exponent        Coefficient   SO-Coeffient
 ======================================================================================================
    1         25           15
                                      D and up 
                                                     1       21.9061889       15.00000000    0.00000000
                                                     3       21.3460107      328.59283375    0.00000000
                                                     2       21.2709152     -162.04988024    0.00000000
                                                     2        7.9077117       -1.85679610    0.00000000
                                      S - D
                                                     2       18.9263046      244.66999815    0.00000000
                                                     2        8.3111479       33.53998676    0.00000000
                                      P - D
                                                     2       20.1624493      162.35019545    0.00000000
                                                     2        7.7926996       24.15938742    0.00000000
    2          1            1
                                      P and up 
                                                     2       21.7769666      -10.85192405    0.00000000
                                                     1       21.2435951        1.00000000    0.00000000
                                                     3       21.2435951       21.24359508    0.00000000
                                      S - P
                                                     2        1.0000000        0.00000000    0.00000000
 ======================================================================================================
 Ernie: Thresh=  0.10000D-02 Tol=  0.10000D-05 Strict=F.
 There are   165 symmetry adapted cartesian basis functions of A1  symmetry.
 There are    45 symmetry adapted cartesian basis functions of A2  symmetry.
 There are    91 symmetry adapted cartesian basis functions of B1  symmetry.
 There are    91 symmetry adapted cartesian basis functions of B2  symmetry.
 There are   120 symmetry adapted basis functions of A1  symmetry.
 There are    38 symmetry adapted basis functions of A2  symmetry.
 There are    71 symmetry adapted basis functions of B1  symmetry.
 There are    71 symmetry adapted basis functions of B2  symmetry.
   300 basis functions,   392 primitive gaussians,   392 cartesian basis functions
    11 alpha electrons        5 beta electrons
       nuclear repulsion energy         5.6697558313 Hartrees.
 IExCor=    0 DFT=F Ex=HF Corr=None ExCW=0 ScaHFX=  1.000000
 ScaDFX=  1.000000  1.000000  1.000000  1.000000 ScalE2=  1.000000  1.000000
 IRadAn=      5 IRanWt=     -1 IRanGd=            0 ICorTp=0 IEmpDi=  4
 NAtoms=    2 NActive=    2 NUniq=    2 SFac= 1.00D+00 NAtFMM=   60 NAOKFM=F Big=F
 Integral buffers will be    131072 words long.
 Raffenetti 2 integral format.
 Two-electron integral symmetry is turned on.
 Leave Link  301 at Thu Apr 19 08:55:50 2018, MaxMem= 21474836480 cpu:               3.1 elap:               0.1
 (Enter /home1/apps/gaussian/16rA.03/g16/l302.exe)
 NPDir=0 NMtPBC=     1 NCelOv=     1 NCel=       1 NClECP=     1 NCelD=      1
         NCelK=      1 NCelE2=     1 NClLst=     1 CellRange=     0.0.
 One-electron integrals computed using PRISM.
 One-electron integral symmetry used in STVInt
   4 Symmetry operations used in ECPInt.
 ECPInt:  NShTT=    3403 NPrTT=    3403 LenC2=    3368 LenP2D=    3367.
 LDataN:  DoStor=T MaxTD1=10 Len=  848
 NBasis=   300 RedAO= T EigKep=  1.26D-05  NBF=   120    38    71    71
 NBsUse=   293 1.00D-06 EigRej=  3.82D-07 NBFU=   117    38    69    69
 Leave Link  302 at Thu Apr 19 08:55:50 2018, MaxMem= 21474836480 cpu:              12.9 elap:               0.4
 (Enter /home1/apps/gaussian/16rA.03/g16/l303.exe)
 DipDrv:  MaxL=1.
 Leave Link  303 at Thu Apr 19 08:55:50 2018, MaxMem= 21474836480 cpu:               1.3 elap:               0.1
 (Enter /home1/apps/gaussian/16rA.03/g16/l401.exe)
 Initial guess from the checkpoint file:  "MnH.chk"
 B after Tr=     0.000000    0.000000    0.000000
         Rot=    1.000000    0.000000    0.000000    0.000000 Ang=   0.00 deg.
 Guess basis will be translated and rotated to current coordinates.
 JPrj=2 DoOrth=T DoCkMO=T.
 Initial guess orbital symmetries:
       Occupied  (SG) (PI) (PI) (SG) (SG) (DLTA) (DLTA) (SG) (PI)
                 (PI) (SG)
       Virtual   (PI) (PI) (SG) (SG) (PI) (PI) (DLTA) (DLTA) (SG)
                 (PI) (PI) (SG) (SG) (SG) (PI) (PI) (SG) (DLTA)
                 (DLTA) (PI) (PI) (PI) (PI) (SG) (SG) (SG) (SG)
                 (DLTA) (DLTA) (PHI) (PHI) (PI) (PI) (PI) (PI)
                 (SG) (SG) (DLTA) (DLTA) (PI) (PI) (DLTA) (DLTA)
                 (SG) (PI) (PI) (SG) (PI) (PI) (SG) (SG) (PHI)
                 (PHI) (DLTA) (DLTA) (PI) (PI) (SG) (PI) (PI) (?A)
                 (?A) (PHI) (PHI) (SG) (SG) (DLTA) (DLTA) (PI)
                 (PI) (DLTA) (DLTA) (SG) (PI) (PI) (SG) (DLTA)
                 (DLTA) (PI) (PI) (PI) (PI) (SG) (SG) (SG) (PHI)
                 (PHI) (DLTA) (DLTA) (PI) (PI) (DLTA) (DLTA) (SG)
                 (PI) (PI) (SG) (PI) (PI) (SG) (?A) (?A) (PHI)
                 (PHI) (DLTA) (DLTA) (PI) (PI) (SG) (SG) (SG) (DLTA)
                 (DLTA) (PI) (PI) (SG) (PHI) (PHI) (DLTA) (DLTA)
                 (PI) (PI) (PI) (PI) (SG) (SG) (?A) (?A) (PHI)
                 (PHI) (DLTA) (DLTA) (PI) (PI) (SG) (DLTA) (DLTA)
                 (PI) (PI) (SG) (SG) (PI) (PI) (SG) (DLTA) (DLTA)
                 (PI) (PI) (SG) (SG) (SG) (PI) (PI) (SG) (DLTA)
                 (DLTA) (PI) (PI) (SG) (SG) (PI) (PI) (SG) (SG)
                 (PI) (PI) (SG) (SG) (DLTA) (DLTA) (PI) (PI) (SG)
                 (PI) (PI) (SG) (SG) (PI) (PI) (SG) (SG) (PI) (PI)
                 (SG) (SG) (PI) (PI) (SG) (SG) (PI) (PI) (SG) (SG)
                 (SG) (DLTA) (SG) (SG) (DLTA) (SG) (SG) (SG) (SG)
                 (DLTA) (SG) (DLTA) (DLTA) (SG) (SG) (?A) (DLTA)
                 (SG) (DLTA) (SG) (?A) (DLTA) (SG) (SG) (DLTA)
                 (SG) (DLTA) (DLTA) (?A) (?A) (DLTA) (DLTA) (DLTA)
                 (DLTA) (DLTA) (?A) (DLTA) (DLTA) (?A) (DLTA) (DLTA)
                 (DLTA) (DLTA) (?A) (?A) (PI) (PI) (PI) (PI) (PHI)
                 (PI) (PI) (PHI) (PI) (PI) (PHI) (PI) (?B) (PHI)
                 (PI) (PHI) (PI) (PI) (PHI) (?B) (PHI) (?B) (PI)
                 (PI) (PI) (PI) (PHI) (PI) (PI) (PHI) (PI) (PI)
                 (PHI) (PI) (?B) (PHI) (PI) (PHI) (PI) (PI) (PHI)
                 (?B) (PHI) (?B)
 The electronic state of the initial guess is 7-SG.
 Leave Link  401 at Thu Apr 19 08:55:50 2018, MaxMem= 21474836480 cpu:               5.7 elap:               0.2
 (Enter /home1/apps/gaussian/16rA.03/g16/l502.exe)
 Keep R1 and R2 ints in memory in symmetry-blocked form, NReq=1277319642.
 FoFCou: FMM=F IPFlag=           8 FMFlag=           0 FMFlg1=           0
         NFxFlg=           0 DoJE=F BraDBF=F KetDBF=F FulRan=T
         wScrn=  0.000000 ICntrl=       600 IOpCl=  0 I1Cent=           0 NGrid=           0
         NMat0=    1 NMatS0=  45150 NMatT0=    0 NMatD0=    1 NMtDS0=    0 NMtDT0=    0
 Petite list used in FoFCou.
 Restricted open shell SCF:
 Using DIIS extrapolation, IDIIS=  1040.
 NGot= 21474836480 LenX= 20958548350 LenY= 20958394245
 Requested convergence on RMS density matrix=1.00D-08 within 300 cycles.
 Requested convergence on MAX density matrix=1.00D-06.
 Requested convergence on             energy=1.00D-06.
 Virtual orbitals will be shifted by   0.400 hartree.
 No special actions if energy rises.

 Cycle   1  Pass 1  IDiag  1:
 E= -103.756808091353    
 DIIS: error= 1.41D-01 at cycle   1 NSaved=   1.
 NSaved= 1 IEnMin= 1 EnMin= -103.756808091353     IErMin= 1 ErrMin= 1.41D-01
 ErrMax= 1.41D-01  0.00D+00 EMaxC= 1.00D-01 BMatC= 2.13D+00 BMatP= 2.13D+00
 IDIUse=3 WtCom= 0.00D+00 WtEn= 1.00D+00
 Coeff-Com:  0.100D+01
 Coeff-En:   0.100D+01
 Coeff:      0.100D+01
 Gap=     0.064 Goal=   None    Shift=    0.400
 GapD=    0.064 DampG=0.500 DampE=0.125 DampFc=0.1250 IDamp=-1.
 Damping current iteration by 1.25D-01
 RMSDP=1.10D-03 MaxDP=1.13D-01              OVMax= 1.75D-03

 Cycle   2  Pass 1  IDiag  1:
 E= -103.756844911407     Delta-E=       -0.000036820054 Rises=F Damp=T
 DIIS: error= 1.23D-01 at cycle   2 NSaved=   2.
 NSaved= 2 IEnMin= 2 EnMin= -103.756844911407     IErMin= 2 ErrMin= 1.23D-01
 ErrMax= 1.23D-01  0.00D+00 EMaxC= 1.00D-01 BMatC= 1.63D+00 BMatP= 2.13D+00
 IDIUse=3 WtCom= 0.00D+00 WtEn= 1.00D+00
 Coeff-Com: -0.700D+01 0.800D+01
 Coeff-En:   0.000D+00 0.100D+01
 Coeff:      0.000D+00 0.100D+01
 Gap=     0.063 Goal=   None    Shift=    0.400
 RMSDP=1.01D-03 MaxDP=1.01D-01 DE=-3.68D-05 OVMax= 3.70D-04

 Cycle   3  Pass 1  IDiag  1:
 E= -103.757108557394     Delta-E=       -0.000263645987 Rises=F Damp=F
 DIIS: error= 1.95D-04 at cycle   3 NSaved=   3.
 NSaved= 3 IEnMin= 3 EnMin= -103.757108557394     IErMin= 3 ErrMin= 1.95D-04
 ErrMax= 1.95D-04  0.00D+00 EMaxC= 1.00D-01 BMatC= 1.62D-06 BMatP= 1.63D+00
 IDIUse=3 WtCom= 9.98D-01 WtEn= 1.95D-03
 Coeff-Com: -0.449D+00 0.513D+00 0.936D+00
 Coeff-En:   0.000D+00 0.000D+00 0.100D+01
 Coeff:     -0.448D+00 0.512D+00 0.936D+00
 Gap=     0.063 Goal=   None    Shift=    0.400
 RMSDP=6.21D-05 MaxDP=5.22D-03 DE=-2.64D-04 OVMax= 2.41D-04

 Cycle   4  Pass 1  IDiag  1:
 E= -103.757108641461     Delta-E=       -0.000000084068 Rises=F Damp=F
 DIIS: error= 8.99D-05 at cycle   4 NSaved=   4.
 NSaved= 4 IEnMin= 4 EnMin= -103.757108641461     IErMin= 4 ErrMin= 8.99D-05
 ErrMax= 8.99D-05  0.00D+00 EMaxC= 1.00D-01 BMatC= 7.53D-07 BMatP= 1.62D-06
 IDIUse=1 WtCom= 1.00D+00 WtEn= 0.00D+00
 Coeff-Com: -0.448D+00 0.512D+00-0.162D+00 0.110D+01
 Coeff:     -0.448D+00 0.512D+00-0.162D+00 0.110D+01
 Gap=     0.063 Goal=   None    Shift=    0.400
 RMSDP=1.92D-05 MaxDP=1.83D-03 DE=-8.41D-08 OVMax= 9.78D-05

 Cycle   5  Pass 1  IDiag  1:
 E= -103.757108738718     Delta-E=       -0.000000097257 Rises=F Damp=F
 DIIS: error= 8.74D-05 at cycle   5 NSaved=   5.
 NSaved= 5 IEnMin= 5 EnMin= -103.757108738718     IErMin= 5 ErrMin= 8.74D-05
 ErrMax= 8.74D-05  0.00D+00 EMaxC= 1.00D-01 BMatC= 6.76D-07 BMatP= 7.53D-07
 IDIUse=1 WtCom= 1.00D+00 WtEn= 0.00D+00
 Coeff-Com: -0.434D+00 0.496D+00-0.142D+00 0.139D+00 0.941D+00
 Coeff:     -0.434D+00 0.496D+00-0.142D+00 0.139D+00 0.941D+00
 Gap=     0.063 Goal=   None    Shift=    0.400
 RMSDP=6.34D-06 MaxDP=5.83D-04 DE=-9.73D-08 OVMax= 4.07D-05

 Cycle   6  Pass 1  IDiag  1:
 E= -103.757108769856     Delta-E=       -0.000000031137 Rises=F Damp=F
 DIIS: error= 8.50D-05 at cycle   6 NSaved=   6.
 NSaved= 6 IEnMin= 6 EnMin= -103.757108769856     IErMin= 6 ErrMin= 8.50D-05
 ErrMax= 8.50D-05  0.00D+00 EMaxC= 1.00D-01 BMatC= 6.33D-07 BMatP= 6.76D-07
 IDIUse=1 WtCom= 1.00D+00 WtEn= 0.00D+00
 Coeff-Com: -0.415D+00 0.474D+00-0.859D-01-0.304D+00 0.160D+00 0.117D+01
 Coeff:     -0.415D+00 0.474D+00-0.859D-01-0.304D+00 0.160D+00 0.117D+01
 Gap=     0.063 Goal=   None    Shift=    0.400
 RMSDP=2.81D-06 MaxDP=2.37D-04 DE=-3.11D-08 OVMax= 2.19D-05

 Cycle   7  Pass 1  IDiag  1:
 E= -103.757108784746     Delta-E=       -0.000000014891 Rises=F Damp=F
 DIIS: error= 8.26D-05 at cycle   7 NSaved=   7.
 NSaved= 7 IEnMin= 7 EnMin= -103.757108784746     IErMin= 7 ErrMin= 8.26D-05
 ErrMax= 8.26D-05  0.00D+00 EMaxC= 1.00D-01 BMatC= 5.93D-07 BMatP= 6.33D-07
 IDIUse=1 WtCom= 1.00D+00 WtEn= 0.00D+00
 Coeff-Com: -0.407D+00 0.465D+00-0.770D-01-0.233D+00 0.105D-01 0.562D+00
 Coeff-Com:  0.680D+00
 Coeff:     -0.407D+00 0.465D+00-0.770D-01-0.233D+00 0.105D-01 0.562D+00
 Coeff:      0.680D+00
 Gap=     0.063 Goal=   None    Shift=    0.400
 RMSDP=1.15D-06 MaxDP=1.06D-04 DE=-1.49D-08 OVMax= 1.18D-05

 Cycle   8  Pass 1  IDiag  1:
 E= -103.757108802174     Delta-E=       -0.000000017428 Rises=F Damp=F
 DIIS: error= 8.09D-05 at cycle   8 NSaved=   8.
 NSaved= 8 IEnMin= 8 EnMin= -103.757108802174     IErMin= 8 ErrMin= 8.09D-05
 ErrMax= 8.09D-05  0.00D+00 EMaxC= 1.00D-01 BMatC= 5.68D-07 BMatP= 5.93D-07
 IDIUse=1 WtCom= 1.00D+00 WtEn= 0.00D+00
 Coeff-Com: -0.395D+00 0.452D+00-0.797D-01-0.181D+00 0.669D-01 0.696D+00
 Coeff-Com: -0.146D+01 0.191D+01
 Coeff:     -0.395D+00 0.452D+00-0.797D-01-0.181D+00 0.669D-01 0.696D+00
 Coeff:     -0.146D+01 0.191D+01
 Gap=     0.063 Goal=   None    Shift=    0.400
 RMSDP=9.37D-07 MaxDP=8.74D-05 DE=-1.74D-08 OVMax= 9.41D-06

 Cycle   9  Pass 1  IDiag  1:
 E= -103.757108821124     Delta-E=       -0.000000018950 Rises=F Damp=F
 DIIS: error= 7.88D-05 at cycle   9 NSaved=   9.
 NSaved= 9 IEnMin= 9 EnMin= -103.757108821124     IErMin= 9 ErrMin= 7.88D-05
 ErrMax= 7.88D-05  0.00D+00 EMaxC= 1.00D-01 BMatC= 5.39D-07 BMatP= 5.68D-07
 IDIUse=1 WtCom= 1.00D+00 WtEn= 0.00D+00
 Coeff-Com: -0.363D+00 0.415D+00-0.725D-01-0.219D+00 0.198D+00 0.964D+00
 Coeff-Com: -0.134D+01-0.253D+01 0.395D+01
 Coeff:     -0.363D+00 0.415D+00-0.725D-01-0.219D+00 0.198D+00 0.964D+00
 Coeff:     -0.134D+01-0.253D+01 0.395D+01
 Gap=     0.063 Goal=   None    Shift=    0.400
 RMSDP=1.81D-06 MaxDP=1.60D-04 DE=-1.89D-08 OVMax= 1.68D-05

 Cycle  10  Pass 1  IDiag  1:
 E= -103.757108858325     Delta-E=       -0.000000037201 Rises=F Damp=F
 DIIS: error= 7.40D-05 at cycle  10 NSaved=  10.
 NSaved=10 IEnMin=10 EnMin= -103.757108858325     IErMin=10 ErrMin= 7.40D-05
 ErrMax= 7.40D-05  0.00D+00 EMaxC= 1.00D-01 BMatC= 4.72D-07 BMatP= 5.39D-07
 IDIUse=1 WtCom= 1.00D+00 WtEn= 0.00D+00
 Coeff-Com: -0.354D+00 0.405D+00-0.686D-01-0.242D+00 0.223D+00 0.106D+01
 Coeff-Com: -0.126D+01-0.308D+01 0.403D+01 0.295D+00
 Coeff:     -0.354D+00 0.405D+00-0.686D-01-0.242D+00 0.223D+00 0.106D+01
 Coeff:     -0.126D+01-0.308D+01 0.403D+01 0.295D+00
 Gap=     0.063 Goal=   None    Shift=    0.400
 RMSDP=1.18D-06 MaxDP=1.10D-04 DE=-3.72D-08 OVMax= 1.17D-05

 Cycle  11  Pass 1  IDiag  1:
 E= -103.757108881141     Delta-E=       -0.000000022816 Rises=F Damp=F
 DIIS: error= 7.15D-05 at cycle  11 NSaved=  11.
 NSaved=11 IEnMin=11 EnMin= -103.757108881141     IErMin=11 ErrMin= 7.15D-05
 ErrMax= 7.15D-05  0.00D+00 EMaxC= 1.00D-01 BMatC= 4.42D-07 BMatP= 4.72D-07
 IDIUse=1 WtCom= 1.00D+00 WtEn= 0.00D+00
 Coeff-Com: -0.295D+00 0.337D+00-0.601D-01-0.279D+00 0.285D+00 0.124D+01
 Coeff-Com: -0.311D+00-0.468D+01 0.357D+01-0.261D+01 0.380D+01
 Coeff:     -0.295D+00 0.337D+00-0.601D-01-0.279D+00 0.285D+00 0.124D+01
 Coeff:     -0.311D+00-0.468D+01 0.357D+01-0.261D+01 0.380D+01
 Gap=     0.063 Goal=   None    Shift=    0.400
 RMSDP=3.37D-06 MaxDP=2.84D-04 DE=-2.28D-08 OVMax= 2.96D-05

 Cycle  12  Pass 1  IDiag  1:
 E= -103.757108941169     Delta-E=       -0.000000060028 Rises=F Damp=F
 DIIS: error= 6.31D-05 at cycle  12 NSaved=  12.
 NSaved=12 IEnMin=12 EnMin= -103.757108941169     IErMin=12 ErrMin= 6.31D-05
 ErrMax= 6.31D-05  0.00D+00 EMaxC= 1.00D-01 BMatC= 3.37D-07 BMatP= 4.42D-07
 IDIUse=1 WtCom= 1.00D+00 WtEn= 0.00D+00
 Large coefficients: NSaved= 12 BigCof=   10.38 CofMax=   10.00 Det=-9.86D-13
 Inversion failed.  Reducing to 11 matrices.
 Large coefficients: NSaved= 11 BigCof=   23.59 CofMax=   10.00 Det=-1.62D-12
 Inversion failed.  Reducing to 10 matrices.
 Large coefficients: NSaved= 10 BigCof=   23.60 CofMax=   10.00 Det=-1.63D-12
 Inversion failed.  Reducing to  9 matrices.
 Large coefficients: NSaved=  9 BigCof=   23.90 CofMax=   10.00 Det=-1.47D-12
 Inversion failed.  Reducing to  8 matrices.
 Large coefficients: NSaved=  8 BigCof=   29.20 CofMax=   10.00 Det=-5.26D-12
 Inversion failed.  Reducing to  7 matrices.
 Large coefficients: NSaved=  7 BigCof=   31.74 CofMax=   10.00 Det=-7.82D-12
 Inversion failed.  Reducing to  6 matrices.
 Large coefficients: NSaved=  6 BigCof=   33.14 CofMax=   10.00 Det=-4.91D-12
 Inversion failed.  Reducing to  5 matrices.
 Large coefficients: NSaved=  5 BigCof=   31.88 CofMax=   10.00 Det=-8.16D-12
 Inversion failed.  Reducing to  4 matrices.
 Large coefficients: NSaved=  4 BigCof=   30.34 CofMax=   10.00 Det=-1.30D-11
 Inversion failed.  Reducing to  3 matrices.
 Large coefficients: NSaved=  3 BigCof=   18.14 CofMax=   10.00 Det=-4.46D-11
 Inversion failed.  Reducing to  2 matrices.
 Coeff-Com: -0.636D+01 0.736D+01
 Coeff:     -0.636D+01 0.736D+01
 Gap=     0.063 Goal=   None    Shift=    0.400
 RMSDP=1.91D-05 MaxDP=1.45D-03 DE=-6.00D-08 OVMax= 1.77D-04

 Cycle  13  Pass 1  IDiag  1:
 E= -103.757109168739     Delta-E=       -0.000000227570 Rises=F Damp=F
 DIIS: error= 1.66D-05 at cycle  13 NSaved=   3.
 NSaved= 3 IEnMin= 3 EnMin= -103.757109168739     IErMin= 3 ErrMin= 1.66D-05
 ErrMax= 1.66D-05  0.00D+00 EMaxC= 1.00D-01 BMatC= 1.94D-08 BMatP= 3.37D-07
 IDIUse=1 WtCom= 1.00D+00 WtEn= 0.00D+00
 Coeff-Com:  0.425D+01-0.526D+01 0.201D+01
 Coeff:      0.425D+01-0.526D+01 0.201D+01
 Gap=     0.063 Goal=   None    Shift=    0.400
 RMSDP=6.69D-06 MaxDP=6.53D-04 DE=-2.28D-07 OVMax= 6.67D-05

 Cycle  14  Pass 1  IDiag  1:
 E= -103.757109187516     Delta-E=       -0.000000018777 Rises=F Damp=F
 DIIS: error= 5.51D-06 at cycle  14 NSaved=   4.
 NSaved= 4 IEnMin= 4 EnMin= -103.757109187516     IErMin= 4 ErrMin= 5.51D-06
 ErrMax= 5.51D-06  0.00D+00 EMaxC= 1.00D-01 BMatC= 5.24D-09 BMatP= 1.94D-08
 IDIUse=1 WtCom= 1.00D+00 WtEn= 0.00D+00
 Coeff-Com:  0.416D+01-0.502D+01 0.961D+00 0.901D+00
 Coeff:      0.416D+01-0.502D+01 0.961D+00 0.901D+00
 Gap=     0.063 Goal=   None    Shift=    0.400
 RMSDP=2.16D-06 MaxDP=2.43D-04 DE=-1.88D-08 OVMax= 2.06D-05

 Cycle  15  Pass 1  IDiag  1:
 E= -103.757109191508     Delta-E=       -0.000000003993 Rises=F Damp=F
 DIIS: error= 3.27D-06 at cycle  15 NSaved=   5.
 NSaved= 5 IEnMin= 5 EnMin= -103.757109191508     IErMin= 5 ErrMin= 3.27D-06
 ErrMax= 3.27D-06  0.00D+00 EMaxC= 1.00D-01 BMatC= 1.45D-09 BMatP= 5.24D-09
 IDIUse=1 WtCom= 1.00D+00 WtEn= 0.00D+00
 Coeff-Com:  0.246D+01-0.295D+01 0.398D+00 0.267D+00 0.823D+00
 Coeff:      0.246D+01-0.295D+01 0.398D+00 0.267D+00 0.823D+00
 Gap=     0.063 Goal=   None    Shift=    0.400
 RMSDP=8.64D-07 MaxDP=8.19D-05 DE=-3.99D-09 OVMax= 1.31D-05

 Cycle  16  Pass 1  IDiag  1:
 E= -103.757109193022     Delta-E=       -0.000000001513 Rises=F Damp=F
 DIIS: error= 1.90D-06 at cycle  16 NSaved=   6.
 NSaved= 6 IEnMin= 6 EnMin= -103.757109193022     IErMin= 6 ErrMin= 1.90D-06
 ErrMax= 1.90D-06  0.00D+00 EMaxC= 1.00D-01 BMatC= 4.85D-10 BMatP= 1.45D-09
 IDIUse=1 WtCom= 1.00D+00 WtEn= 0.00D+00
 Coeff-Com:  0.674D+00-0.807D+00 0.101D+00 0.844D-02-0.608D+00 0.163D+01
 Coeff:      0.674D+00-0.807D+00 0.101D+00 0.844D-02-0.608D+00 0.163D+01
 Gap=     0.063 Goal=   None    Shift=    0.400
 RMSDP=6.05D-07 MaxDP=4.03D-05 DE=-1.51D-09 OVMax= 6.43D-06

 Cycle  17  Pass 1  IDiag  1:
 E= -103.757109193479     Delta-E=       -0.000000000457 Rises=F Damp=F
 DIIS: error= 1.14D-06 at cycle  17 NSaved=   7.
 NSaved= 7 IEnMin= 7 EnMin= -103.757109193479     IErMin= 7 ErrMin= 1.14D-06
 ErrMax= 1.14D-06  0.00D+00 EMaxC= 1.00D-01 BMatC= 1.84D-10 BMatP= 4.85D-10
 IDIUse=1 WtCom= 1.00D+00 WtEn= 0.00D+00
 Coeff-Com:  0.110D+00-0.133D+00 0.372D-01-0.417D-01-0.514D+00 0.195D+00
 Coeff-Com:  0.135D+01
 Coeff:      0.110D+00-0.133D+00 0.372D-01-0.417D-01-0.514D+00 0.195D+00
 Coeff:      0.135D+01
 Gap=     0.063 Goal=   None    Shift=    0.400
 RMSDP=2.76D-07 MaxDP=1.89D-05 DE=-4.57D-10 OVMax= 4.06D-06

 Cycle  18  Pass 1  IDiag  1:
 E= -103.757109193653     Delta-E=       -0.000000000174 Rises=F Damp=F
 DIIS: error= 6.85D-07 at cycle  18 NSaved=   8.
 NSaved= 8 IEnMin= 8 EnMin= -103.757109193653     IErMin= 8 ErrMin= 6.85D-07
 ErrMax= 6.85D-07  0.00D+00 EMaxC= 1.00D-01 BMatC= 7.20D-11 BMatP= 1.84D-10
 IDIUse=1 WtCom= 1.00D+00 WtEn= 0.00D+00
 Coeff-Com:  0.325D-02-0.466D-02 0.168D-01-0.330D-01-0.207D+00 0.199D+00
 Coeff-Com: -0.877D+00 0.190D+01
 Coeff:      0.325D-02-0.466D-02 0.168D-01-0.330D-01-0.207D+00 0.199D+00
 Coeff:     -0.877D+00 0.190D+01
 Gap=     0.063 Goal=   None    Shift=    0.400
 RMSDP=1.68D-07 MaxDP=1.24D-05 DE=-1.74D-10 OVMax= 2.47D-06

 Cycle  19  Pass 1  IDiag  1:
 E= -103.757109193719     Delta-E=       -0.000000000066 Rises=F Damp=F
 DIIS: error= 4.23D-07 at cycle  19 NSaved=   9.
 NSaved= 9 IEnMin= 9 EnMin= -103.757109193719     IErMin= 9 ErrMin= 4.23D-07
 ErrMax= 4.23D-07  0.00D+00 EMaxC= 1.00D-01 BMatC= 2.87D-11 BMatP= 7.20D-11
 IDIUse=1 WtCom= 1.00D+00 WtEn= 0.00D+00
 Coeff-Com:  0.166D-01-0.198D-01 0.449D-02 0.235D-03-0.959D-01 0.365D+00
 Coeff-Com: -0.860D+00-0.318D+00 0.191D+01
 Coeff:      0.166D-01-0.198D-01 0.449D-02 0.235D-03-0.959D-01 0.365D+00
 Coeff:     -0.860D+00-0.318D+00 0.191D+01
 Gap=     0.063 Goal=   None    Shift=    0.400
 RMSDP=1.02D-07 MaxDP=7.80D-06 DE=-6.60D-11 OVMax= 1.54D-06

 Cycle  20  Pass 1  IDiag  1:
 E= -103.757109193745     Delta-E=       -0.000000000027 Rises=F Damp=F
 DIIS: error= 2.67D-07 at cycle  20 NSaved=  10.
 NSaved=10 IEnMin=10 EnMin= -103.757109193745     IErMin=10 ErrMin= 2.67D-07
 ErrMax= 2.67D-07  0.00D+00 EMaxC= 1.00D-01 BMatC= 1.19D-11 BMatP= 2.87D-11
 IDIUse=1 WtCom= 1.00D+00 WtEn= 0.00D+00
 Coeff-Com:  0.233D-01-0.279D-01 0.308D-02 0.609D-02-0.636D-01 0.324D+00
 Coeff-Com: -0.439D+00-0.395D+00-0.281D+00 0.185D+01
 Coeff:      0.233D-01-0.279D-01 0.308D-02 0.609D-02-0.636D-01 0.324D+00
 Coeff:     -0.439D+00-0.395D+00-0.281D+00 0.185D+01
 Gap=     0.063 Goal=   None    Shift=    0.400
 RMSDP=5.59D-08 MaxDP=4.50D-06 DE=-2.65D-11 OVMax= 9.85D-07

 Cycle  21  Pass 1  IDiag  1:
 E= -103.757109193756     Delta-E=       -0.000000000011 Rises=F Damp=F
 DIIS: error= 1.73D-07 at cycle  21 NSaved=  11.
 NSaved=11 IEnMin=11 EnMin= -103.757109193756     IErMin=11 ErrMin= 1.73D-07
 ErrMax= 1.73D-07  0.00D+00 EMaxC= 1.00D-01 BMatC= 5.04D-12 BMatP= 1.19D-11
 IDIUse=1 WtCom= 1.00D+00 WtEn= 0.00D+00
 Coeff-Com: -0.983D-02 0.116D-01 0.120D-02-0.873D-02-0.276D-01 0.806D-01
 Coeff-Com: -0.172D+00 0.741D+00-0.114D+01-0.144D+01 0.297D+01
 Coeff:     -0.983D-02 0.116D-01 0.120D-02-0.873D-02-0.276D-01 0.806D-01
 Coeff:     -0.172D+00 0.741D+00-0.114D+01-0.144D+01 0.297D+01
 Gap=     0.063 Goal=   None    Shift=    0.400
 RMSDP=3.35D-08 MaxDP=2.70D-06 DE=-1.06D-11 OVMax= 6.17D-07

 Cycle  22  Pass 1  IDiag  1:
 E= -103.757109193760     Delta-E=       -0.000000000005 Rises=F Damp=F
 DIIS: error= 1.15D-07 at cycle  22 NSaved=  12.
 NSaved=12 IEnMin=12 EnMin= -103.757109193760     IErMin=12 ErrMin= 1.15D-07
 ErrMax= 1.15D-07  0.00D+00 EMaxC= 1.00D-01 BMatC= 2.22D-12 BMatP= 5.04D-12
 IDIUse=1 WtCom= 1.00D+00 WtEn= 0.00D+00
 Coeff-Com: -0.269D-01 0.322D-01-0.301D-02-0.591D-02-0.544D-02 0.360D-01
 Coeff-Com: -0.190D+00 0.618D+00-0.520D+00-0.188D+01 0.197D+01 0.971D+00
 Coeff:     -0.269D-01 0.322D-01-0.301D-02-0.591D-02-0.544D-02 0.360D-01
 Coeff:     -0.190D+00 0.618D+00-0.520D+00-0.188D+01 0.197D+01 0.971D+00
 Gap=     0.063 Goal=   None    Shift=    0.400
 RMSDP=2.06D-08 MaxDP=1.81D-06 DE=-4.50D-12 OVMax= 4.03D-07

 Cycle  23  Pass 1  IDiag  1:
 E= -103.757109193763     Delta-E=       -0.000000000002 Rises=F Damp=F
 DIIS: error= 7.62D-08 at cycle  23 NSaved=  13.
 NSaved=13 IEnMin=13 EnMin= -103.757109193763     IErMin=13 ErrMin= 7.62D-08
 ErrMax= 7.62D-08  0.00D+00 EMaxC= 1.00D-01 BMatC= 1.01D-12 BMatP= 2.22D-12
 IDIUse=1 WtCom= 1.00D+00 WtEn= 0.00D+00
 Coeff-Com: -0.141D-01 0.170D-01-0.224D-02-0.269D-02 0.364D-02 0.285D-01
 Coeff-Com: -0.122D+00 0.211D+00 0.874D-01-0.110D+01 0.141D+01-0.253D+01
 Coeff-Com:  0.302D+01
 Coeff:     -0.141D-01 0.170D-01-0.224D-02-0.269D-02 0.364D-02 0.285D-01
 Coeff:     -0.122D+00 0.211D+00 0.874D-01-0.110D+01 0.141D+01-0.253D+01
 Coeff:      0.302D+01
 Gap=     0.063 Goal=   None    Shift=    0.400
 RMSDP=1.30D-08 MaxDP=1.32D-06 DE=-2.12D-12 OVMax= 2.63D-07

 Cycle  24  Pass 1  IDiag  1:
 E= -103.757109193763     Delta-E=       -0.000000000001 Rises=F Damp=F
 DIIS: error= 5.39D-08 at cycle  24 NSaved=  14.
 NSaved=14 IEnMin=14 EnMin= -103.757109193763     IErMin=14 ErrMin= 5.39D-08
 ErrMax= 5.39D-08  0.00D+00 EMaxC= 1.00D-01 BMatC= 4.87D-13 BMatP= 1.01D-12
 IDIUse=1 WtCom= 1.00D+00 WtEn= 0.00D+00
 Coeff-Com: -0.333D-02 0.402D-02-0.801D-03-0.119D-02 0.383D-02 0.380D-01
 Coeff-Com: -0.908D-01 0.699D-01 0.237D-01-0.270D+00 0.964D+00-0.274D+01
 Coeff-Com:  0.133D+01 0.168D+01
 Coeff:     -0.333D-02 0.402D-02-0.801D-03-0.119D-02 0.383D-02 0.380D-01
 Coeff:     -0.908D-01 0.699D-01 0.237D-01-0.270D+00 0.964D+00-0.274D+01
 Coeff:      0.133D+01 0.168D+01
 Gap=     0.063 Goal=   None    Shift=    0.400
 RMSDP=8.81D-09 MaxDP=9.16D-07 DE=-7.67D-13 OVMax= 1.72D-07

 SCF Done:  E(ROHF) =  -103.757109194     A.U. after   24 cycles
            NFock= 24  Conv=0.88D-08     -V/T= 2.7858
 <Sx>= 0.0000 <Sy>= 0.0000 <Sz>= 3.0000 <S**2>=12.0000 S= 3.0000
 <L.S>=  0.00000000000    
 KE= 5.810197077610D+01 PE=-2.498257601752D+02 EE= 8.229692437406D+01
 Annihilation of the first spin contaminant:
 S**2 before annihilation    12.0000,   after    12.0000
 Leave Link  502 at Thu Apr 19 08:56:08 2018, MaxMem= 21474836480 cpu:             365.9 elap:              17.5
 (Enter /home1/apps/gaussian/16rA.03/g16/l801.exe)
 Windowed orbitals will be sorted by symmetry type.
 GenMOA:  NOpAll=  4 NOp2=4 NOpUse=  4 JSym2X=1
 FoFJK:  IHMeth= 1 ICntrl=       0 DoSepK=F KAlg= 0 I1Cent=           0 FoldK=F
 IRaf=         0 NMat=       1 IRICut=       1 DoRegI=T DoRafI=F ISym2E= 1 IDoP0=0 IntGTp=1.
 FoFCou: FMM=F IPFlag=           8 FMFlag=      100000 FMFlg1=           0
         NFxFlg=           0 DoJE=F BraDBF=F KetDBF=F FulRan=T
         wScrn=  0.000000 ICntrl=         0 IOpCl=  1 I1Cent=           0 NGrid=           0
         NMat0=    1 NMatS0=      1 NMatT0=    0 NMatD0=    1 NMtDS0=    0 NMtDT0=    0
 Petite list used in FoFCou.
 <Sx>= 0.0000 <Sy>= 0.0000 <Sz>= 3.0000 <S**2>=12.0000 S= 3.0000
 Range of M.O.s used for correlation:     1   293
 NBasis=   300 NAE=    11 NBE=     5 NFC=     0 NFV=     0
 NROrb=    293 NOA=    11 NOB=     5 NVA=   282 NVB=   288

 **** Warning!!: The largest alpha MO coefficient is  0.10382200D+03


 **** Warning!!: The largest beta MO coefficient is  0.10362214D+03

 Singles contribution to E2=   -0.2459539130D-02
 Leave Link  801 at Thu Apr 19 08:56:12 2018, MaxMem= 21474836480 cpu:             115.4 elap:               3.6
 (Enter /home1/apps/gaussian/16rA.03/g16/l804.exe)
 Open-shell transformation, MDV= 21474836480 ITran=4 ISComp=2.
 Unit  1 TFree=       2732569 TCopy=       1991833.
 Semi-Direct transformation.
 ModeAB=           2 MOrb=            11 LenV=   21472128732
 LASXX=     34278815 LTotXX=    34278815 LenRXX=    34278815
 LTotAB=    34749813 MaxLAS=   248261244 LenRXY=   248261244
 NonZer=   253356807 LenScr=   381526016 LnRSAI=           0
 LnScr1=           0 LExtra=     9163577 Total=    673229652
 MaxDsk= 67108864000 SrtSym=           F ITran=            4
 DoSDTr:  NPSUse= 32
 JobTyp=1 Pass  1:  I=   1 to  11.
 (rs|ai) integrals will be sorted in core.
 Complete sort for first half transformation.
 First half transformation complete.
 Begin second half transformation for I=  10.
 Begin second half transformation for I=  10.
 Complete sort for second half transformation.
 Second half transformation complete.
 ModeAB=           2 MOrb=             5 LenV=   21472128732
 LASXX=     15845199 LTotXX=    15845199 LenRXX=   112846020
 LTotAB=    14854134 MaxLAS=   112846020 LenRXY=    14854134
 NonZer=   115162185 LenScr=   173491200 LnRSAI=           0
 LnScr1=           0 LExtra=   291703636 Total=    592894990
 MaxDsk= 67108864000 SrtSym=           F ITran=            4
 DoSDTr:  NPSUse= 32
 JobTyp=2 Pass  1:  I=   1 to   5.
 (rs|ai) integrals will be sorted in core.
 Complete sort for first half transformation.
 First half transformation complete.
 Complete sort for second half transformation.
 Second half transformation complete.
 Spin components of T(2) and E(2):
     alpha-alpha T2 =       0.2646895329D-01 E2=     -0.1615759715D+00
     alpha-beta  T2 =       0.5372411547D-01 E2=     -0.4062287645D+00
     beta-beta   T2 =       0.6575343333D-02 E2=     -0.4283517661D-01
 ANorm=    0.1043200427D+01
 E2 =    -0.6130994518D+00 EUMP2 =    -0.10437020864557D+03
 (S**2,0)=  0.12000D+02           (S**2,1)=  0.12000D+02
 E(PUHF)=      -0.10375710919D+03        E(PMP2)=      -0.10437020865D+03
 Recovering and transforming amplitudes from chk file.
 B after Tr=     0.000000    0.000000    0.000000
         Rot=    1.000000    0.000000    0.000000    0.000000 Ang=   0.00 deg.
 Alpha occ  Sing. vals= 9.999997D-01 9.999997D-01 9.999997D-01 9.999989D-01 9.999957D-01 9.999951D-01 9.999951D-01 9.999950D-01 9.999942D-01 9.999942D-01
 Alpha occ  Sing. vals= 9.999931D-01
 Alpha occ  NOrbO=    11 NOrbN=    11 NSVal=    11 ThrEig=  0.900000.
 TrMax= 1.000000D+00 PrMax= 1.000000D+00 Trace(Pr)= 1.100000D+01
 B after Tr=     0.000000    0.000000    0.000000
         Rot=    1.000000    0.000000    0.000000    0.000000 Ang=   0.00 deg.
 Alpha virt Sing. vals= 1.000000D+00 1.000000D+00 1.000000D+00 1.000000D+00 1.000000D+00 1.000000D+00 1.000000D+00 1.000000D+00 1.000000D+00 1.000000D+00
 Alpha virt Sing. vals= 1.000000D+00 1.000000D+00 1.000000D+00 1.000000D+00 1.000000D+00 1.000000D+00 1.000000D+00 1.000000D+00 1.000000D+00 9.999999D-01
 Alpha virt Sing. vals= 9.999999D-01 9.999999D-01 9.999999D-01 9.999999D-01 9.999998D-01 9.999996D-01 9.999996D-01 9.999996D-01 9.999994D-01 9.999994D-01
 Alpha virt Sing. vals= 9.999994D-01 9.999993D-01 9.999987D-01 9.999986D-01 9.999986D-01 9.999985D-01 9.999985D-01 9.999984D-01 9.999983D-01 9.999976D-01
 Alpha virt Sing. vals= 9.999976D-01 9.999973D-01 9.999948D-01 9.999943D-01 9.999943D-01 9.999943D-01 9.999943D-01 9.999940D-01 9.999940D-01 9.999940D-01
 Alpha virt Sing. vals= 9.999906D-01 9.999888D-01 9.999851D-01 9.999776D-01 9.999776D-01 9.999747D-01 9.999747D-01 9.999743D-01 9.999741D-01 9.999741D-01
 Alpha virt Sing. vals= 9.999724D-01 9.999724D-01 9.999636D-01 9.999388D-01 9.999388D-01 9.999365D-01 9.999265D-01 9.999094D-01 9.999094D-01 9.999094D-01
 Alpha virt Sing. vals= 9.998919D-01 9.998919D-01 9.998778D-01 9.998201D-01 9.998142D-01 9.998142D-01 9.998105D-01 9.998105D-01 9.997936D-01 9.997936D-01
 Alpha virt Sing. vals= 9.997922D-01 9.997922D-01 9.997864D-01 9.996755D-01 9.996203D-01 9.996203D-01 9.995839D-01 9.995834D-01 9.995828D-01 9.995828D-01
 Alpha virt Sing. vals= 9.995828D-01 9.995828D-01 9.995185D-01 9.995185D-01 9.995001D-01 9.995001D-01 9.994977D-01 9.994885D-01 9.994885D-01 9.994858D-01
 Alpha virt Sing. vals= 9.994858D-01 9.994348D-01 9.993164D-01 9.991950D-01 9.991950D-01 9.991945D-01 9.988634D-01 9.988634D-01 9.987538D-01 9.985595D-01
 Alpha virt Sing. vals= 9.985595D-01 9.985019D-01 9.985019D-01 9.983957D-01 9.980587D-01 9.980587D-01 9.979946D-01 9.979946D-01 9.976326D-01 9.976326D-01
 Alpha virt Sing. vals= 9.972366D-01 9.972366D-01 9.971586D-01 9.967712D-01 9.964798D-01 9.964798D-01 9.960814D-01 9.959644D-01 9.959644D-01 9.959196D-01
 Alpha virt Sing. vals= 9.959196D-01 9.954437D-01 9.947619D-01 9.947619D-01 9.946485D-01 9.946485D-01 9.946106D-01 9.945687D-01 9.945687D-01 9.944128D-01
 Alpha virt Sing. vals= 9.944128D-01 9.930459D-01 9.918440D-01 9.907321D-01 9.907321D-01 9.872579D-01 9.872579D-01 9.863409D-01 9.843369D-01 9.843369D-01
 Alpha virt Sing. vals= 9.840698D-01 9.821551D-01 9.821551D-01 9.807194D-01 9.807194D-01 9.797673D-01 9.795624D-01 9.795624D-01 9.754066D-01 9.745926D-01
 Alpha virt Sing. vals= 9.745926D-01 9.674732D-01 9.674732D-01 9.628385D-01 9.619867D-01 9.619867D-01 9.558691D-01 9.558691D-01 9.498398D-01 9.447421D-01
 Alpha virt Sing. vals= 9.439710D-01 9.439653D-01 9.439653D-01 9.275328D-01 9.275328D-01 9.258347D-01 9.258347D-01 9.244486D-01 9.244486D-01 9.237710D-01
 Alpha virt Sing. vals= 9.237710D-01 9.073775D-01 8.762642D-01 8.556105D-01 8.556105D-01 8.532746D-01 8.516386D-01 8.516386D-01 8.503354D-01 8.503354D-01
 Alpha virt Sing. vals= 7.966974D-01 7.966974D-01 6.802276D-01 4.897638D-01
 Alpha virt NOrbO=   194 NOrbN=   282 NSVal=   182 ThrEig=  0.900000.
 TrMax= 9.979577D-01 PrMax= 9.999654D-01 Trace(Pr)= 1.820000D+02
 B after Tr=     0.000000    0.000000    0.000000
         Rot=    1.000000    0.000000    0.000000    0.000000 Ang=   0.00 deg.
 Beta  occ  Sing. vals= 9.999997D-01 9.999997D-01 9.999997D-01 9.999989D-01 9.999938D-01
 Beta  occ  NOrbO=     5 NOrbN=     5 NSVal=     5 ThrEig=  0.900000.
 TrMax= 1.000000D+00 PrMax= 1.000000D+00 Trace(Pr)= 5.000000D+00
 B after Tr=     0.000000    0.000000    0.000000
         Rot=    1.000000    0.000000    0.000000    0.000000 Ang=   0.00 deg.
 Beta  virt Sing. vals= 1.000000D+00 1.000000D+00 1.000000D+00 1.000000D+00 1.000000D+00 1.000000D+00 1.000000D+00 1.000000D+00 1.000000D+00 1.000000D+00
 Beta  virt Sing. vals= 1.000000D+00 1.000000D+00 1.000000D+00 1.000000D+00 1.000000D+00 1.000000D+00 1.000000D+00 1.000000D+00 1.000000D+00 1.000000D+00
 Beta  virt Sing. vals= 1.000000D+00 1.000000D+00 1.000000D+00 1.000000D+00 9.999999D-01 9.999999D-01 9.999999D-01 9.999999D-01 9.999999D-01 9.999998D-01
 Beta  virt Sing. vals= 9.999998D-01 9.999996D-01 9.999996D-01 9.999996D-01 9.999994D-01 9.999994D-01 9.999994D-01 9.999993D-01 9.999987D-01 9.999986D-01
 Beta  virt Sing. vals= 9.999986D-01 9.999986D-01 9.999986D-01 9.999983D-01 9.999983D-01 9.999976D-01 9.999976D-01 9.999973D-01 9.999947D-01 9.999943D-01
 Beta  virt Sing. vals= 9.999943D-01 9.999942D-01 9.999942D-01 9.999940D-01 9.999940D-01 9.999940D-01 9.999904D-01 9.999888D-01 9.999851D-01 9.999776D-01
 Beta  virt Sing. vals= 9.999776D-01 9.999743D-01 9.999743D-01 9.999742D-01 9.999740D-01 9.999740D-01 9.999723D-01 9.999723D-01 9.999635D-01 9.999378D-01
 Beta  virt Sing. vals= 9.999378D-01 9.999365D-01 9.999263D-01 9.999094D-01 9.999094D-01 9.999094D-01 9.998914D-01 9.998914D-01 9.998778D-01 9.998200D-01
 Beta  virt Sing. vals= 9.998142D-01 9.998142D-01 9.998103D-01 9.998103D-01 9.997936D-01 9.997936D-01 9.997922D-01 9.997922D-01 9.997864D-01 9.996754D-01
 Beta  virt Sing. vals= 9.996202D-01 9.996202D-01 9.995838D-01 9.995831D-01 9.995828D-01 9.995828D-01 9.995827D-01 9.995827D-01 9.995185D-01 9.995185D-01
 Beta  virt Sing. vals= 9.994996D-01 9.994996D-01 9.994975D-01 9.994885D-01 9.994885D-01 9.994858D-01 9.994858D-01 9.994347D-01 9.993157D-01 9.991950D-01
 Beta  virt Sing. vals= 9.991950D-01 9.991945D-01 9.988627D-01 9.988627D-01 9.987538D-01 9.985571D-01 9.985571D-01 9.985019D-01 9.985019D-01 9.983956D-01
 Beta  virt Sing. vals= 9.980587D-01 9.980587D-01 9.979945D-01 9.979945D-01 9.976326D-01 9.976326D-01 9.972366D-01 9.972366D-01 9.971584D-01 9.967711D-01
 Beta  virt Sing. vals= 9.964796D-01 9.964796D-01 9.960813D-01 9.959643D-01 9.959643D-01 9.959196D-01 9.959196D-01 9.954436D-01 9.947617D-01 9.947617D-01
 Beta  virt Sing. vals= 9.946485D-01 9.946485D-01 9.946106D-01 9.945687D-01 9.945687D-01 9.944128D-01 9.944128D-01 9.930459D-01 9.918434D-01 9.907321D-01
 Beta  virt Sing. vals= 9.907321D-01 9.872579D-01 9.872579D-01 9.863408D-01 9.843369D-01 9.843369D-01 9.840698D-01 9.821551D-01 9.821551D-01 9.807193D-01
 Beta  virt Sing. vals= 9.807193D-01 9.797672D-01 9.795624D-01 9.795624D-01 9.754056D-01 9.745924D-01 9.745924D-01 9.674731D-01 9.674731D-01 9.628383D-01
 Beta  virt Sing. vals= 9.619862D-01 9.619862D-01 9.558690D-01 9.558690D-01 9.498398D-01 9.447419D-01 9.439710D-01 9.439653D-01 9.439653D-01 9.275328D-01
 Beta  virt Sing. vals= 9.275328D-01 9.258347D-01 9.258347D-01 9.244486D-01 9.244486D-01 9.237710D-01 9.237710D-01 9.073774D-01 8.762639D-01 8.556103D-01
 Beta  virt Sing. vals= 8.556103D-01 8.532744D-01 8.516386D-01 8.516386D-01 8.503354D-01 8.503354D-01 7.966974D-01 7.966974D-01 6.802275D-01 4.897638D-01
 Beta  virt NOrbO=   200 NOrbN=   288 NSVal=   188 ThrEig=  0.900000.
 TrMax= 9.982849D-01 PrMax= 9.999654D-01 Trace(Pr)= 1.880000D+02
 Leave Link  804 at Thu Apr 19 08:58:25 2018, MaxMem= 21474836480 cpu:            4249.5 elap:             133.2
 (Enter /home1/apps/gaussian/16rA.03/g16/l913.exe)
 CIDS:  MDV= 21474836480.
 IFCWin=0 IBDFC=1 NFBD=     0     0 NFCmp=     0     0 NFFFC=     0     0
 Amplitudes recovered.
 Using DD4UQ or CC4UQ for all iterations.
 Keep R2 and R3 ints in memory in symmetry-blocked form, NReq=1277333419.
 FoFCou: FMM=F IPFlag=           8 FMFlag=           0 FMFlg1=           0
         NFxFlg=           0 DoJE=F BraDBF=F KetDBF=F FulRan=T
         wScrn=  0.000000 ICntrl=       600 IOpCl=  0 I1Cent=           0 NGrid=           0
         NMat0=    1 NMatS0=  45150 NMatT0=    0 NMatD0=    1 NMtDS0=    0 NMtDT0=    0
 Petite list used in FoFCou.
 CIDS: In Core Option IDoMem=           1.
 CCSD(T)
 =======
 Iterations= 150 Convergence= 0.100D-06
 Produce multiple copies of IABC intergrals
 Iteration Nr.   1
 **********************
 DD1Dir will call FoFMem   1 times, MxPair=       176
 NAB=    55 NAA=    55 NBB=    10.
 Maximum subspace dimension=  5
 A-vector RMS=  1.0618404D-04 Max=  9.8827395D-04 conv= 1.00D-05.
 RLE energy=       -0.6153847733
 DE(Corr)= -0.61539431     E(Corr)=     -104.37250350    
 NORM(A)=   0.10568274D+01
 Iteration Nr.   2
 **********************
 DD1Dir will call FoFMem   1 times, MxPair=       176
 NAB=    55 NAA=    55 NBB=    10.
 A-vector RMS=  3.3619077D-05 Max=  5.7219192D-04 conv= 1.00D-05.
 RLE energy=       -0.6156464133
 DE(Corr)= -0.61563601     E(CORR)=     -104.37274521     Delta=-2.42D-04
 NORM(A)=   0.10569792D+01
 Iteration Nr.   3
 **********************
 DD1Dir will call FoFMem   1 times, MxPair=       176
 NAB=    55 NAA=    55 NBB=    10.
 A-vector RMS=  2.1339690D-05 Max=  2.4089968D-04 conv= 1.00D-05.
 RLE energy=       -0.6156917389
 DE(Corr)= -0.61568538     E(CORR)=     -104.37279457     Delta=-4.94D-05
 NORM(A)=   0.10570274D+01
 Iteration Nr.   4
 **********************
 DD1Dir will call FoFMem   1 times, MxPair=       176
 NAB=    55 NAA=    55 NBB=    10.
 A-vector RMS=  1.2599371D-05 Max=  1.9525250D-04 conv= 1.00D-05.
 RLE energy=       -0.6156876889
 DE(Corr)= -0.61568364     E(CORR)=     -104.37279284     Delta= 1.73D-06
 NORM(A)=   0.10570809D+01
 Iteration Nr.   5
 **********************
 DD1Dir will call FoFMem   1 times, MxPair=       176
 NAB=    55 NAA=    55 NBB=    10.
 A-vector RMS=  7.6895043D-06 Max=  1.0203470D-04 conv= 1.00D-05.
 RLE energy=       -0.6157022655
 DE(Corr)= -0.61569649     E(CORR)=     -104.37280568     Delta=-1.28D-05
 NORM(A)=   0.10571502D+01
 Iteration Nr.   6
 **********************
 DD1Dir will call FoFMem   1 times, MxPair=       176
 NAB=    55 NAA=    55 NBB=    10.
 A-vector RMS=  2.9899934D-06 Max=  2.6095487D-05 conv= 1.00D-05.
 RLE energy=       -0.6157119610
 DE(Corr)= -0.61570689     E(CORR)=     -104.37281609     Delta=-1.04D-05
 NORM(A)=   0.10571770D+01
 Iteration Nr.   7
 **********************
 DD1Dir will call FoFMem   1 times, MxPair=       176
 NAB=    55 NAA=    55 NBB=    10.
 A-vector RMS=  1.3276029D-06 Max=  1.2027166D-05 conv= 1.00D-05.
 RLE energy=       -0.6157127084
 DE(Corr)= -0.61571144     E(CORR)=     -104.37282064     Delta=-4.55D-06
 NORM(A)=   0.10571864D+01
 Iteration Nr.   8
 **********************
 DD1Dir will call FoFMem   1 times, MxPair=       176
 NAB=    55 NAA=    55 NBB=    10.
 A-vector RMS=  4.6669509D-07 Max=  5.4529357D-06 conv= 1.00D-05.
 RLE energy=       -0.6157140451
 DE(Corr)= -0.61571362     E(CORR)=     -104.37282281     Delta=-2.18D-06
 NORM(A)=   0.10571888D+01
 Iteration Nr.   9
 **********************
 DD1Dir will call FoFMem   1 times, MxPair=       176
 NAB=    55 NAA=    55 NBB=    10.
 A-vector RMS=  1.8921295D-07 Max=  2.0163485D-06 conv= 1.00D-05.
 RLE energy=       -0.6157138953
 DE(Corr)= -0.61571381     E(CORR)=     -104.37282300     Delta=-1.90D-07
 NORM(A)=   0.10571892D+01
 Iteration Nr.  10
 **********************
 DD1Dir will call FoFMem   1 times, MxPair=       176
 NAB=    55 NAA=    55 NBB=    10.
 A-vector RMS=  1.0019112D-07 Max=  1.4779045D-06 conv= 1.00D-05.
 RLE energy=       -0.6157139493
 DE(Corr)= -0.61571397     E(CORR)=     -104.37282316     Delta=-1.60D-07
 NORM(A)=   0.10571892D+01
 Iteration Nr.  11
 **********************
 DD1Dir will call FoFMem   1 times, MxPair=       176
 NAB=    55 NAA=    55 NBB=    10.
 A-vector RMS=  3.0839883D-08 Max=  3.3014986D-07 conv= 1.00D-05.
 RLE energy=       -0.6157139090
 DE(Corr)= -0.61571391     E(CORR)=     -104.37282311     Delta= 5.34D-08
 NORM(A)=   0.10571892D+01
 CI/CC converged in   11 iterations to DelEn= 5.34D-08 Conv= 1.00D-07 ErrA1= 3.08D-08 Conv= 1.00D-05
 Wavefunction amplitudes converged. E(Corr)=     -104.37282311    
 Largest amplitude= 6.58D-02
 Time for triples=     9514.50 seconds.
 T4(CCSD)= -0.18371424D-01
 T5(CCSD)=  0.99552432D-03
 CCSD(T)= -0.10439019901D+03
 Discarding MO integrals.
 Leave Link  913 at Thu Apr 19 09:04:52 2018, MaxMem= 21474836480 cpu:           12326.2 elap:             387.2
 (Enter /home1/apps/gaussian/16rA.03/g16/l601.exe)
 Copying SCF densities to generalized density rwf, IOpCl= 0 IROHF=1.

 **********************************************************************

            Population analysis using the SCF density.

 **********************************************************************

 Orbital symmetries:
       Occupied  (SG) (PI) (PI) (SG) (SG) (DLTA) (DLTA) (SG) (PI)
                 (PI) (SG)
       Virtual   (PI) (PI) (SG) (SG) (SG) (DLTA) (DLTA) (PI) (PI)
                 (PI) (PI) (SG) (SG) (SG) (PI) (PI) (DLTA) (DLTA)
                 (PI) (PI) (SG) (SG) (PI) (PI) (SG) (PHI) (PHI)
                 (DLTA) (DLTA) (SG) (PI) (PI) (DLTA) (DLTA) (SG)
                 (PI) (PI) (SG) (PI) (PI) (SG) (SG) (PI) (PI) (DLTA)
                 (DLTA) (SG) (PI) (PI) (SG) (DLTA) (DLTA) (PI)
                 (PI) (PHI) (PHI) (DLTA) (DLTA) (?A) (?A) (PHI)
                 (PHI) (SG) (PI) (PI) (SG) (DLTA) (DLTA) (SG) (PI)
                 (PI) (PHI) (PHI) (PI) (PI) (SG) (DLTA) (DLTA)
                 (PI) (PI) (SG) (SG) (SG) (DLTA) (DLTA) (PI) (PI)
                 (DLTA) (DLTA) (PI) (PI) (SG) (SG) (PI) (PI) (SG)
                 (PHI) (PHI) (DLTA) (DLTA) (PI) (PI) (?B) (?B)
                 (?A) (?A) (?A) (?A) (PHI) (PHI) (DLTA) (DLTA)
                 (PHI) (PHI) (SG) (PI) (PI) (SG) (DLTA) (DLTA)
                 (SG) (PI) (PI) (PI) (PI) (SG) (SG) (PHI) (PHI)
                 (DLTA) (DLTA) (SG) (PI) (PI) (DLTA) (DLTA) (SG)
                 (PI) (PI) (SG) (DLTA) (DLTA) (PI) (PI) (PI) (PI)
                 (SG) (SG) (PHI) (PHI) (DLTA) (DLTA) (PI) (PI)
                 (?A) (?A) (PHI) (PHI) (DLTA) (DLTA) (SG) (?B)
                 (?B) (?A) (?A) (PI) (PI) (PHI) (PHI) (DLTA) (DLTA)
                 (PI) (PI) (SG) (SG) (PI) (PI) (DLTA) (DLTA) (PI)
                 (PI) (SG) (SG) (SG) (DLTA) (DLTA) (PI) (PI) (SG)
                 (PHI) (PHI) (DLTA) (DLTA) (PI) (PI) (SG) (?A)
                 (?A) (PHI) (PHI) (DLTA) (DLTA) (PI) (PI) (SG)
                 (SG) (?B) (?B) (?A) (?A) (PI) (PI) (PHI) (PHI)
                 (DLTA) (DLTA) (SG) (PI) (PI) (SG) (SG) (DLTA)
                 (DLTA) (PI) (PI) (SG) (PI) (PI) (SG) (DLTA) (DLTA)
                 (PI) (PI) (SG) (SG) (PI) (PI) (SG) (DLTA) (DLTA)
                 (PI) (PI) (SG) (SG) (SG) (PI) (PI) (SG) (SG) (DLTA)
                 (DLTA) (PI) (PI) (SG) (SG) (PI) (PI) (SG) (SG)
                 (PI) (PI) (SG) (DLTA) (DLTA) (PI) (PI) (SG) (SG)
                 (PI) (PI) (SG) (SG) (PI) (PI) (SG) (SG) (PI) (PI)
                 (SG) (SG) (SG) (SG)
 The electronic state is 7-SG.
 Alpha  occ. eigenvalues --   -4.13901  -2.76192  -2.75966  -2.75966  -0.65543
 Alpha  occ. eigenvalues --   -0.63739  -0.63739  -0.63316  -0.63316  -0.41944
 Alpha  occ. eigenvalues --   -0.24817
 Alpha virt. eigenvalues --    0.01313   0.01313   0.02014   0.03071   0.05165
 Alpha virt. eigenvalues --    0.05165   0.05696   0.05829   0.05829   0.06185
 Alpha virt. eigenvalues --    0.06185   0.08522   0.13926   0.14765   0.17972
 Alpha virt. eigenvalues --    0.17972   0.18565   0.18565   0.19104   0.19104
 Alpha virt. eigenvalues --    0.20012   0.27659   0.28231   0.28231   0.32296
 Alpha virt. eigenvalues --    0.46531   0.47283   0.47283   0.47519   0.47519
 Alpha virt. eigenvalues --    0.50149   0.50149   0.50963   0.50963   0.52058
 Alpha virt. eigenvalues --    0.56995   0.56995   0.59701   0.60860   0.60860
 Alpha virt. eigenvalues --    0.67335   0.76083   0.78856   0.78856   0.81129
 Alpha virt. eigenvalues --    0.81129   1.05888   1.16967   1.16967   1.24958
 Alpha virt. eigenvalues --    1.33906   1.33906   1.38630   1.38630   1.43019
 Alpha virt. eigenvalues --    1.43019   1.43517   1.43517   1.45825   1.45825
 Alpha virt. eigenvalues --    1.46203   1.46203   1.46701   1.60617   1.60617
 Alpha virt. eigenvalues --    1.63154   1.69071   1.69071   1.69989   1.78923
 Alpha virt. eigenvalues --    1.78923   1.86486   1.86486   1.87059   1.87059
 Alpha virt. eigenvalues --    1.91780   2.11302   2.11302   2.21481   2.21481
 Alpha virt. eigenvalues --    2.27271   2.37784   2.40988   2.89563   2.89563
 Alpha virt. eigenvalues --    3.05103   3.05103   3.24323   3.24323   3.30093
 Alpha virt. eigenvalues --    3.30093   3.34082   3.54653   3.66909   3.66909
 Alpha virt. eigenvalues --    3.77202   3.94424   3.94424   4.00716   4.00716
 Alpha virt. eigenvalues --    4.13447   4.13447   4.26692   4.26692   4.26712
 Alpha virt. eigenvalues --    4.26712   4.27522   4.27522   4.28108   4.28108
 Alpha virt. eigenvalues --    4.37851   4.37851   4.44517   4.44517   4.59220
 Alpha virt. eigenvalues --    4.64432   4.64432   4.89005   4.91487   4.91487
 Alpha virt. eigenvalues --    5.14045   5.14106   5.14106   5.69139   5.69220
 Alpha virt. eigenvalues --    5.69220   6.30225   6.70881   6.70881   6.95383
 Alpha virt. eigenvalues --    6.95383   6.99003   7.05065   7.05065   7.29912
 Alpha virt. eigenvalues --    7.29912   7.60240   7.72178   7.72178   8.05872
 Alpha virt. eigenvalues --    8.72407   8.72407   8.83347   8.83347   9.45402
 Alpha virt. eigenvalues --    9.45402   9.51226   9.73249   9.97042   9.97042
 Alpha virt. eigenvalues --   10.07745  10.07745  10.49490  10.49490  11.18135
 Alpha virt. eigenvalues --   11.18135  11.20534  11.20534  11.33234  11.33234
 Alpha virt. eigenvalues --   11.44896  11.88000  11.88000  11.88657  11.88657
 Alpha virt. eigenvalues --   11.90715  11.90715  11.95775  11.95775  12.15116
 Alpha virt. eigenvalues --   12.15116  12.28373  12.28373  12.32990  12.68186
 Alpha virt. eigenvalues --   13.19200  13.19200  13.44908  13.44908  13.53520
 Alpha virt. eigenvalues --   13.53520  13.64132  14.25148  15.02755  23.98204
 Alpha virt. eigenvalues --   23.98204  24.03581  24.03581  24.33925  24.77616
 Alpha virt. eigenvalues --   24.77616  24.84343  24.84343  25.04297  25.04297
 Alpha virt. eigenvalues --   25.56975  27.30554  27.30554  27.31782  27.31782
 Alpha virt. eigenvalues --   27.38216  27.38216  27.66125  27.66125  27.68594
 Alpha virt. eigenvalues --   28.04769  30.71654  30.71654  30.71885  30.71885
 Alpha virt. eigenvalues --   30.75101  30.75101  30.75171  30.75171  30.84176
 Alpha virt. eigenvalues --   30.84176  30.87773  30.90946  30.90946  31.34275
 Alpha virt. eigenvalues --   33.22985  40.97175  40.97175  41.03029  41.03029
 Alpha virt. eigenvalues --   41.32099  66.76977  66.76977  67.10501  71.55987
 Alpha virt. eigenvalues --   71.55987  71.61324  71.61324  71.87304  75.34800
 Alpha virt. eigenvalues --  133.92102 133.92102 134.21283 144.47338 144.47338
 Alpha virt. eigenvalues --  144.51873 144.51873 144.73604 146.76229 163.72908
 Alpha virt. eigenvalues --  258.50138 258.50138 258.75347 260.89636 372.73414
 Alpha virt. eigenvalues --  372.73414 372.76801 372.76801 372.93389 480.64692
 Alpha virt. eigenvalues --  499.38191 499.38191 499.64507 919.59445 989.47817
 Alpha virt. eigenvalues --  989.47817 989.721361264.071381264.071381264.09287
 Alpha virt. eigenvalues -- 1264.092871264.199171830.105422055.891662055.89166
 Alpha virt. eigenvalues -- 2056.113263805.831944591.537014591.537014591.73450
 Alpha virt. eigenvalues -- 8300.68539****************************************
 Alpha virt. eigenvalues -- ********************
     Molecular Orbital Coefficients:
                           1         2         3         4         5
                           O         O         O         O         O
     Eigenvalues --    -4.13901  -2.76192  -2.75966  -2.75966  -0.65543
   1 1   Mn 1S         -0.00000   0.00000   0.00000  -0.00000   0.00000
   2        2S          0.00001   0.00000   0.00000   0.00000  -0.00000
   3        3S         -0.00003   0.00000   0.00000  -0.00000   0.00000
   4        4S          0.00010   0.00000   0.00000   0.00000  -0.00002
   5        5S         -0.00031   0.00000   0.00000  -0.00000   0.00005
   6        6S          0.00089   0.00000   0.00000   0.00000  -0.00014
   7        7S         -0.00246   0.00000   0.00000  -0.00000   0.00038
   8        8S          0.00682   0.00000   0.00000   0.00000  -0.00107
   9        9S         -0.02151   0.00000   0.00000  -0.00000   0.00350
  10       10S          0.10365   0.00000   0.00000  -0.00004  -0.01779
  11       11S         -0.16029   0.00000   0.00000   0.00004   0.02899
  12       12S         -0.34405   0.00000   0.00000   0.00080   0.07309
  13       13S          0.37120   0.00000   0.00000  -0.00082  -0.07868
  14       14S          0.82482   0.00000   0.00000  -0.00210  -0.22249
  15       15S          0.28990   0.00000   0.00000   0.00196  -0.12602
  16       16S          0.00541   0.00000   0.00000   0.00316   0.20911
  17       17S          0.00201   0.00000   0.00000   0.00400   0.11095
  18       18S          0.00054   0.00000   0.00000  -0.00050  -0.00541
  19       19S         -0.05289   0.00000   0.00000  -0.00039  -0.00133
  20       20S         -0.16711   0.00000   0.00000   0.00107   0.06220
  21       21S         -0.00054   0.00000   0.00000  -0.00026  -0.00753
  22       22PX         0.00000  -0.00000   0.00000   0.00000   0.00000
  23       22PY         0.00000   0.00000  -0.00000   0.00000   0.00000
  24       22PZ         0.00000   0.00000   0.00000  -0.00000  -0.00000
  25       23PX         0.00000   0.00001   0.00000   0.00000   0.00000
  26       23PY         0.00000   0.00000   0.00001   0.00000   0.00000
  27       23PZ        -0.00000   0.00000   0.00000   0.00001   0.00000
  28       24PX         0.00000  -0.00003   0.00000   0.00000   0.00000
  29       24PY         0.00000   0.00000  -0.00003   0.00000   0.00000
  30       24PZ         0.00000   0.00000   0.00000  -0.00003  -0.00001
  31       25PX         0.00000   0.00011   0.00000   0.00000   0.00000
  32       25PY         0.00000   0.00000   0.00011   0.00000   0.00000
  33       25PZ        -0.00001   0.00000   0.00000   0.00011   0.00002
  34       26PX         0.00000  -0.00034   0.00000   0.00000   0.00000
  35       26PY         0.00000   0.00000  -0.00034   0.00000   0.00000
  36       26PZ         0.00002   0.00000   0.00000  -0.00034  -0.00006
  37       27PX         0.00000   0.00069   0.00000   0.00000   0.00000
  38       27PY         0.00000   0.00000   0.00069   0.00000   0.00000
  39       27PZ        -0.00005   0.00000   0.00000   0.00070   0.00012
  40       28PX         0.00000   0.00815   0.00000   0.00000   0.00000
  41       28PY         0.00000   0.00000   0.00815   0.00000   0.00000
  42       28PZ         0.00013   0.00000   0.00000   0.00813   0.00131
  43       29PX         0.00000  -0.06225   0.00000   0.00000   0.00000
  44       29PY         0.00000   0.00000  -0.06225   0.00000   0.00000
  45       29PZ        -0.00038   0.00000   0.00000  -0.06222  -0.01053
  46       30PX         0.00000  -0.01619   0.00000   0.00000   0.00000
  47       30PY         0.00000   0.00000  -0.01619   0.00000   0.00000
  48       30PZ        -0.00305   0.00000   0.00000  -0.01599  -0.00157
  49       31PX         0.00000   0.19048   0.00000   0.00000   0.00000
  50       31PY         0.00000   0.00000   0.19048   0.00000   0.00000
  51       31PZ        -0.00032   0.00000   0.00000   0.19063   0.03419
  52       32PX         0.00000   0.20403   0.00000   0.00000   0.00000
  53       32PY         0.00000   0.00000   0.20403   0.00000   0.00000
  54       32PZ         0.00229   0.00000   0.00000   0.20408   0.03619
  55       33PX         0.00000   0.38019   0.00000   0.00000   0.00000
  56       33PY         0.00000   0.00000   0.38019   0.00000   0.00000
  57       33PZ        -0.00189   0.00000   0.00000   0.37829   0.07553
  58       34PX         0.00000   0.16233   0.00000   0.00000   0.00000
  59       34PY         0.00000   0.00000   0.16233   0.00000   0.00000
  60       34PZ         0.00574   0.00000   0.00000   0.15839   0.02512
  61       35PX         0.00000   0.01338   0.00000   0.00000   0.00000
  62       35PY         0.00000   0.00000   0.01338   0.00000   0.00000
  63       35PZ         0.00397   0.00000   0.00000   0.01330  -0.09502
  64       36PX         0.00000  -0.00115   0.00000   0.00000   0.00000
  65       36PY         0.00000   0.00000  -0.00115   0.00000   0.00000
  66       36PZ        -0.00445   0.00000   0.00000  -0.00057  -0.08015
  67       37PX         0.00000   0.00043   0.00000   0.00000   0.00000
  68       37PY         0.00000   0.00000   0.00043   0.00000   0.00000
  69       37PZ         0.00075   0.00000   0.00000   0.00154  -0.00879
  70       38PX         0.00000  -0.02557   0.00000   0.00000   0.00000
  71       38PY         0.00000   0.00000  -0.02557   0.00000   0.00000
  72       38PZ         0.00332   0.00000   0.00000  -0.02570  -0.00472
  73       39PX         0.00000   0.20483   0.00000   0.00000   0.00000
  74       39PY         0.00000   0.00000   0.20483   0.00000   0.00000
  75       39PZ        -0.00071   0.00000   0.00000   0.20503   0.03709
  76       40PX         0.00000  -0.00012   0.00000   0.00000   0.00000
  77       40PY         0.00000   0.00000  -0.00012   0.00000   0.00000
  78       40PZ        -0.00005   0.00000   0.00000   0.00001   0.00189
  79       41D 0       -0.00000   0.00000   0.00000   0.00000   0.00000
  80       41D+1        0.00000   0.00000   0.00000   0.00000   0.00000
  81       41D-1        0.00000   0.00000   0.00000   0.00000   0.00000
  82       41D+2        0.00000   0.00000   0.00000   0.00000   0.00000
  83       41D-2        0.00000   0.00000   0.00000   0.00000   0.00000
  84       42D 0       -0.00000   0.00000   0.00000   0.00000   0.00000
  85       42D+1        0.00000  -0.00000   0.00000   0.00000   0.00000
  86       42D-1        0.00000   0.00000  -0.00000   0.00000   0.00000
  87       42D+2        0.00000   0.00000   0.00000  -0.00000  -0.00000
  88       42D-2        0.00000   0.00000   0.00000   0.00000   0.00000
  89       43D 0       -0.00005   0.00000   0.00000   0.00014   0.00307
  90       43D+1        0.00000   0.00001   0.00000   0.00000   0.00000
  91       43D-1        0.00000   0.00000   0.00001   0.00000   0.00000
  92       43D+2       -0.00000   0.00000   0.00000   0.00000   0.00000
  93       43D-2        0.00000   0.00000   0.00000   0.00000   0.00000
  94       44D 0       -0.00021   0.00000   0.00000   0.00050   0.01097
  95       44D+1        0.00000   0.00003   0.00000   0.00000   0.00000
  96       44D-1        0.00000   0.00000   0.00003   0.00000   0.00000
  97       44D+2        0.00000   0.00000   0.00000  -0.00000  -0.00000
  98       44D-2        0.00000   0.00000   0.00000   0.00000   0.00000
  99       45D 0       -0.00020   0.00000   0.00000   0.00104   0.02400
 100       45D+1        0.00000   0.00010   0.00000   0.00000   0.00000
 101       45D-1        0.00000   0.00000   0.00010   0.00000   0.00000
 102       45D+2       -0.00000   0.00000   0.00000   0.00000   0.00000
 103       45D-2        0.00000   0.00000   0.00000   0.00000   0.00000
 104       46D 0        0.00100   0.00000   0.00000   0.00162   0.04373
 105       46D+1        0.00000   0.00056   0.00000   0.00000   0.00000
 106       46D-1        0.00000   0.00000   0.00056   0.00000   0.00000
 107       46D+2       -0.00000   0.00000   0.00000   0.00000   0.00000
 108       46D-2        0.00000   0.00000   0.00000   0.00000   0.00000
 109       47D 0       -0.00023   0.00000   0.00000   0.00302   0.06236
 110       47D+1        0.00000   0.00051   0.00000   0.00000   0.00000
 111       47D-1        0.00000   0.00000   0.00051   0.00000   0.00000
 112       47D+2       -0.00000   0.00000   0.00000   0.00000   0.00000
 113       47D-2        0.00000   0.00000   0.00000   0.00000   0.00000
 114       48D 0       -0.00308   0.00000   0.00000   0.00228   0.06444
 115       48D+1        0.00000   0.00021   0.00000   0.00000   0.00000
 116       48D-1        0.00000   0.00000   0.00021   0.00000   0.00000
 117       48D+2        0.00000   0.00000   0.00000  -0.00000  -0.00000
 118       48D-2        0.00000   0.00000   0.00000   0.00000   0.00000
 119       49D 0       -0.00327   0.00000   0.00000   0.00161   0.05699
 120       49D+1        0.00000   0.00038   0.00000   0.00000   0.00000
 121       49D-1        0.00000   0.00000   0.00038   0.00000   0.00000
 122       49D+2       -0.00000   0.00000   0.00000   0.00000  -0.00000
 123       49D-2        0.00000   0.00000   0.00000   0.00000   0.00000
 124       50D 0        0.00116   0.00000   0.00000   0.00151   0.03473
 125       50D+1        0.00000   0.00038   0.00000   0.00000   0.00000
 126       50D-1        0.00000   0.00000   0.00038   0.00000   0.00000
 127       50D+2        0.00000   0.00000   0.00000  -0.00000  -0.00000
 128       50D-2        0.00000   0.00000   0.00000   0.00000   0.00000
 129       51D 0        0.00072   0.00000   0.00000   0.00027   0.00591
 130       51D+1        0.00000   0.00004   0.00000   0.00000   0.00000
 131       51D-1        0.00000   0.00000   0.00004   0.00000   0.00000
 132       51D+2       -0.00000   0.00000   0.00000   0.00000  -0.00000
 133       51D-2        0.00000   0.00000   0.00000   0.00000   0.00000
 134       52D 0       -0.00086   0.00000   0.00000   0.00043   0.00370
 135       52D+1        0.00000  -0.00013   0.00000   0.00000   0.00000
 136       52D-1        0.00000   0.00000  -0.00013   0.00000   0.00000
 137       52D+2        0.00000   0.00000   0.00000  -0.00000  -0.00000
 138       52D-2        0.00000   0.00000   0.00000   0.00000   0.00000
 139       53D 0       -0.00187   0.00000   0.00000   0.00025   0.00069
 140       53D+1        0.00000  -0.00049   0.00000   0.00000   0.00000
 141       53D-1        0.00000   0.00000  -0.00049   0.00000   0.00000
 142       53D+2        0.00000   0.00000   0.00000  -0.00000  -0.00000
 143       53D-2        0.00000   0.00000   0.00000   0.00000   0.00000
 144       54D 0       -0.00015   0.00000   0.00000  -0.00013  -0.00099
 145       54D+1        0.00000   0.00001   0.00000   0.00000   0.00000
 146       54D-1        0.00000   0.00000   0.00001   0.00000   0.00000
 147       54D+2        0.00000   0.00000   0.00000  -0.00000   0.00000
 148       54D-2        0.00000   0.00000   0.00000   0.00000   0.00000
 149       55F 0        0.00003   0.00000   0.00000  -0.00005  -0.00033
 150       55F+1        0.00000  -0.00006   0.00000   0.00000   0.00000
 151       55F-1        0.00000   0.00000  -0.00006   0.00000   0.00000
 152       55F+2       -0.00000   0.00000   0.00000   0.00000  -0.00000
 153       55F-2        0.00000   0.00000   0.00000   0.00000   0.00000
 154       55F+3        0.00000  -0.00000   0.00000   0.00000   0.00000
 155       55F-3        0.00000   0.00000   0.00000   0.00000   0.00000
 156       56F 0       -0.00005   0.00000   0.00000  -0.00020  -0.00087
 157       56F+1        0.00000  -0.00011   0.00000   0.00000   0.00000
 158       56F-1        0.00000   0.00000  -0.00011   0.00000   0.00000
 159       56F+2        0.00000   0.00000   0.00000  -0.00000   0.00000
 160       56F-2        0.00000   0.00000   0.00000   0.00000   0.00000
 161       56F+3        0.00000  -0.00000   0.00000   0.00000   0.00000
 162       56F-3        0.00000   0.00000  -0.00000   0.00000   0.00000
 163       57F 0        0.00022   0.00000   0.00000  -0.00064  -0.00445
 164       57F+1        0.00000  -0.00096   0.00000   0.00000   0.00000
 165       57F-1        0.00000   0.00000  -0.00096   0.00000   0.00000
 166       57F+2       -0.00000   0.00000   0.00000   0.00000  -0.00000
 167       57F-2        0.00000   0.00000   0.00000   0.00000   0.00000
 168       57F+3        0.00000   0.00000   0.00000   0.00000   0.00000
 169       57F-3        0.00000   0.00000   0.00000   0.00000   0.00000
 170       58F 0        0.00095   0.00000   0.00000  -0.00015  -0.01027
 171       58F+1        0.00000  -0.00083   0.00000   0.00000   0.00000
 172       58F-1        0.00000   0.00000  -0.00083   0.00000   0.00000
 173       58F+2       -0.00000   0.00000   0.00000   0.00000   0.00000
 174       58F-2        0.00000   0.00000   0.00000   0.00000   0.00000
 175       58F+3        0.00000   0.00000   0.00000   0.00000   0.00000
 176       58F-3        0.00000   0.00000   0.00000   0.00000   0.00000
 177       59F 0       -0.00044   0.00000   0.00000  -0.00001  -0.00510
 178       59F+1        0.00000   0.00001   0.00000   0.00000   0.00000
 179       59F-1        0.00000   0.00000   0.00001   0.00000   0.00000
 180       59F+2       -0.00000   0.00000   0.00000  -0.00000   0.00000
 181       59F-2        0.00000   0.00000   0.00000   0.00000   0.00000
 182       59F+3        0.00000   0.00000   0.00000   0.00000   0.00000
 183       59F-3        0.00000   0.00000  -0.00000   0.00000   0.00000
 184       60G 0       -0.00002   0.00000   0.00000  -0.00001  -0.00001
 185       60G+1        0.00000  -0.00001   0.00000   0.00000   0.00000
 186       60G-1        0.00000   0.00000  -0.00001   0.00000   0.00000
 187       60G+2        0.00000   0.00000   0.00000  -0.00000   0.00000
 188       60G-2        0.00000   0.00000   0.00000   0.00000   0.00000
 189       60G+3        0.00000   0.00000   0.00000   0.00000   0.00000
 190       60G-3        0.00000   0.00000   0.00000   0.00000   0.00000
 191       60G+4        0.00000   0.00000   0.00000   0.00000  -0.00000
 192       60G-4        0.00000   0.00000   0.00000   0.00000   0.00000
 193       61G 0        0.00007   0.00000   0.00000  -0.00004   0.00027
 194       61G+1        0.00000   0.00000   0.00000   0.00000   0.00000
 195       61G-1        0.00000   0.00000   0.00000   0.00000   0.00000
 196       61G+2       -0.00000   0.00000   0.00000   0.00000  -0.00000
 197       61G-2        0.00000   0.00000   0.00000   0.00000   0.00000
 198       61G+3        0.00000  -0.00000   0.00000   0.00000   0.00000
 199       61G-3        0.00000   0.00000  -0.00000   0.00000   0.00000
 200       61G+4       -0.00000   0.00000   0.00000  -0.00000  -0.00000
 201       61G-4        0.00000   0.00000   0.00000   0.00000   0.00000
 202       62G 0       -0.00014   0.00000   0.00000  -0.00043   0.00061
 203       62G+1        0.00000  -0.00010   0.00000   0.00000   0.00000
 204       62G-1        0.00000   0.00000  -0.00010   0.00000   0.00000
 205       62G+2        0.00000   0.00000   0.00000  -0.00000   0.00000
 206       62G-2        0.00000   0.00000   0.00000   0.00000   0.00000
 207       62G+3        0.00000   0.00000   0.00000   0.00000   0.00000
 208       62G-3        0.00000   0.00000   0.00000   0.00000   0.00000
 209       62G+4       -0.00000   0.00000   0.00000   0.00000   0.00000
 210       62G-4        0.00000   0.00000   0.00000   0.00000   0.00000
 211       63G 0       -0.00003   0.00000   0.00000  -0.00005   0.00153
 212       63G+1        0.00000   0.00014   0.00000   0.00000   0.00000
 213       63G-1        0.00000   0.00000   0.00014   0.00000   0.00000
 214       63G+2        0.00000   0.00000   0.00000   0.00000  -0.00000
 215       63G-2        0.00000   0.00000   0.00000   0.00000   0.00000
 216       63G+3        0.00000  -0.00000   0.00000   0.00000   0.00000
 217       63G-3        0.00000   0.00000  -0.00000   0.00000   0.00000
 218       63G+4        0.00000   0.00000   0.00000  -0.00000  -0.00000
 219       63G-4        0.00000   0.00000   0.00000   0.00000   0.00000
 220       64H 0        0.00000   0.00000   0.00000  -0.00001  -0.00000
 221       64H+1        0.00000  -0.00001   0.00000   0.00000   0.00000
 222       64H-1        0.00000   0.00000  -0.00001   0.00000   0.00000
 223       64H+2       -0.00000   0.00000   0.00000   0.00000  -0.00000
 224       64H-2        0.00000   0.00000   0.00000   0.00000   0.00000
 225       64H+3        0.00000  -0.00000   0.00000   0.00000   0.00000
 226       64H-3        0.00000   0.00000  -0.00000   0.00000   0.00000
 227       64H+4        0.00000   0.00000   0.00000   0.00000   0.00000
 228       64H-4        0.00000   0.00000   0.00000   0.00000   0.00000
 229       64H+5        0.00000  -0.00000   0.00000   0.00000   0.00000
 230       64H-5        0.00000   0.00000  -0.00000   0.00000   0.00000
 231       65H 0       -0.00003   0.00000   0.00000   0.00007  -0.00011
 232       65H+1        0.00000   0.00003   0.00000   0.00000   0.00000
 233       65H-1        0.00000   0.00000   0.00003   0.00000   0.00000
 234       65H+2        0.00000   0.00000   0.00000  -0.00000  -0.00000
 235       65H-2        0.00000   0.00000   0.00000   0.00000   0.00000
 236       65H+3        0.00000   0.00000   0.00000   0.00000   0.00000
 237       65H-3        0.00000   0.00000  -0.00000   0.00000   0.00000
 238       65H+4       -0.00000   0.00000   0.00000   0.00000   0.00000
 239       65H-4        0.00000   0.00000   0.00000   0.00000   0.00000
 240       65H+5        0.00000  -0.00000   0.00000   0.00000   0.00000
 241       65H-5        0.00000   0.00000  -0.00000   0.00000   0.00000
 242       66H 0        0.00004   0.00000   0.00000   0.00020   0.00002
 243       66H+1        0.00000   0.00007   0.00000   0.00000   0.00000
 244       66H-1        0.00000   0.00000   0.00007   0.00000   0.00000
 245       66H+2       -0.00000   0.00000   0.00000   0.00000   0.00000
 246       66H-2        0.00000   0.00000   0.00000   0.00000   0.00000
 247       66H+3        0.00000  -0.00000   0.00000   0.00000   0.00000
 248       66H-3        0.00000   0.00000   0.00000   0.00000   0.00000
 249       66H+4        0.00000   0.00000   0.00000  -0.00000  -0.00000
[...]
  12         V                 0.013126          0.055428
  13         V                 0.013126          0.055428
  14         V                 0.020135          0.028052
  15         V                 0.030714          0.042417
  16         V                 0.051655          0.067760
  17         V                 0.051655          0.066240
  18         V                 0.056957          0.066240
  19         V                 0.058290          0.130464
  20         V                 0.058290          0.130464
  21         V                 0.061848          0.099618
  22         V                 0.061848          0.099618
  23         V                 0.085225          0.111190
  24         V                 0.139262          0.208038
  25         V                 0.147653          0.315159
  26         V                 0.179719          0.296356
  27         V                 0.179719          0.296356
  28         V                 0.185645          0.289417
  29         V                 0.185645          0.289417
  30         V                 0.191038          0.374572
  31         V                 0.191038          0.374572
  32         V                 0.200119          0.248919
  33         V                 0.276589          0.333435
  34         V                 0.282310          0.310431
  35         V                 0.282310          0.310431
  36         V                 0.322962          0.696653
  37         V                 0.465311          0.546541
  38         V                 0.472829          0.546541
  39         V                 0.472829          0.540855
  40         V                 0.475190          0.540855
  41         V                 0.475190          0.872771
  42         V                 0.501488          1.062546
  43         V                 0.501488          1.062546
  44         V                 0.509625          1.093599
  45         V                 0.509625          1.093599
  46         V                 0.520580          0.663814
  47         V                 0.569946          0.756577
  48         V                 0.569946          0.756577
  49         V                 0.597007          0.826720
  50         V                 0.608604          0.991664
  51         V                 0.608604          0.991664
  52         V                 0.673352          1.337254
  53         V                 0.760831          0.874410
  54         V                 0.788563          0.827719
  55         V                 0.788563          0.827719
  56         V                 0.811294          0.833546
  57         V                 0.811294          0.833546
  58         V                 1.058879          1.481539
  59         V                 1.169665          1.700018
  60         V                 1.169665          1.700018
  61         V                 1.249579          1.583887
  62         V                 1.339057          3.147251
  63         V                 1.339057          3.147251
  64         V                 1.386302          2.764116
  65         V                 1.386302          2.764116
  66         V                 1.430190          1.613501
  67         V                 1.430190          1.613501
  68         V                 1.435165          1.836427
  69         V                 1.435165          1.836427
  70         V                 1.458252          1.640662
  71         V                 1.458252          1.640662
  72         V                 1.462027          1.867525
  73         V                 1.462027          1.867525
  74         V                 1.467014          2.824283
  75         V                 1.606171          1.860550
  76         V                 1.606171          1.860550
  77         V                 1.631541          2.086850
  78         V                 1.690714          1.873767
  79         V                 1.690714          1.873767
  80         V                 1.699888          2.270066
  81         V                 1.789226          2.357658
  82         V                 1.789226          2.357658
  83         V                 1.864862          1.946924
  84         V                 1.864862          1.946924
  85         V                 1.870594          2.612964
  86         V                 1.870594          2.612964
  87         V                 1.917797          2.774204
  88         V                 2.113019          2.175706
  89         V                 2.113019          2.175706
  90         V                 2.214812          2.740503
  91         V                 2.214812          2.740503
  92         V                 2.272712          2.699631
  93         V                 2.377839          3.312082
  94         V                 2.409883          2.955473
  95         V                 2.895627          3.178919
  96         V                 2.895627          3.178919
  97         V                 3.051032          3.384349
  98         V                 3.051032          3.384349
  99         V                 3.243226          7.003990
 100         V                 3.243226          7.003990
 101         V                 3.300934          6.773415
 102         V                 3.300934          6.773415
 103         V                 3.340819          6.065399
 104         V                 3.546530          4.546489
 105         V                 3.669086          4.116023
 106         V                 3.669086          4.116023
 107         V                 3.772018          4.893446
 108         V                 3.944238          5.920615
 109         V                 3.944238          5.920615
 110         V                 4.007158          5.801742
 111         V                 4.007158          5.801742
 112         V                 4.134469          5.918069
 113         V                 4.134469          5.918069
 114         V                 4.266924          4.727291
 115         V                 4.266924          4.727291
 116         V                 4.267123          4.880416
 117         V                 4.267123          4.880416
 118         V                 4.275221          4.914574
 119         V                 4.275221          4.914574
 120         V                 4.281079          5.005507
 121         V                 4.281079          5.005507
 122         V                 4.378513          5.141960
 123         V                 4.378513          5.141960
 124         V                 4.445168          4.947024
 125         V                 4.445168          4.947024
 126         V                 4.592201          5.381699
 127         V                 4.644323          5.424265
 128         V                 4.644323          5.424265
 129         V                 4.890048          6.737582
 130         V                 4.914874          5.495134
 131         V                 4.914874          5.495134
 132         V                 5.140447          6.648909
 133         V                 5.141060          7.044797
 134         V                 5.141060          7.044797
 135         V                 5.691390          6.747942
 136         V                 5.692202          6.747942
 137         V                 5.692202          7.084095
 138         V                 6.302251          7.864347
 139         V                 6.708809          6.905815
 140         V                 6.708809          6.905815
 141         V                 6.953834         12.691287
 142         V                 6.953834         12.691287
 143         V                 6.990028         11.704935
 144         V                 7.050646         13.100933
 145         V                 7.050646         13.100933
 146         V                 7.299120          8.097241
 147         V                 7.299120          8.097241
 148         V                 7.602402          8.917979
 149         V                 7.721783          8.544075
 150         V                 7.721783          8.544075
 151         V                 8.058719         10.233796
 152         V                 8.724070          9.183306
 153         V                 8.724070          9.183306
 154         V                 8.833466         10.148721
 155         V                 8.833466         10.148721
 156         V                 9.454021          9.944243
 157         V                 9.454021          9.944243
 158         V                 9.512261         11.944628
 159         V                 9.732490         10.871369
 160         V                 9.970418         15.269201
 161         V                 9.970418         15.269201
 162         V                10.077448         15.299834
 163         V                10.077448         15.299834
 164         V                10.494897         14.992582
 165         V                10.494897         14.992582
 166         V                11.181346         14.077280
 167         V                11.181346         14.077280
 168         V                11.205345         14.093677
 169         V                11.205345         14.093677
 170         V                11.332339         14.198647
 171         V                11.332339         14.198647
 172         V                11.448958         14.706900
 173         V                11.880004         13.654516
 174         V                11.880004         13.654516
 175         V                11.886573         13.654552
 176         V                11.886573         13.654552
 177         V                11.907146         14.810115
 178         V                11.907146         14.810115
 179         V                11.957748         13.722852
 180         V                11.957748         13.722852
 181         V                12.151156         13.932320
 182         V                12.151156         13.932320
 183         V                12.283731         14.128284
 184         V                12.283731         14.128284
 185         V                12.329899         15.047466
 186         V                12.681859         15.461413
 187         V                13.191996         16.871379
 188         V                13.191996         16.871379
 189         V                13.449084         22.258054
 190         V                13.449084         22.258054
 191         V                13.535201         22.169242
 192         V                13.535201         22.169242
 193         V                13.641319         20.162901
 194         V                14.251484         19.015134
 195         V                15.027552         17.523353
 196         V                23.982036         36.026806
 197         V                23.982036         36.026806
 198         V                24.035807         36.070631
 199         V                24.035807         36.070631
 200         V                24.339253         36.236997
 201         V                24.776158         37.947479
 202         V                24.776158         37.947479
 203         V                24.843435         37.996517
 204         V                24.843435         37.996517
 205         V                25.042965         38.109117
 206         V                25.042965         38.109117
 207         V                25.569749         37.458712
 208         V                27.305538         36.092606
 209         V                27.305538         36.092606
 210         V                27.317822         36.101829
 211         V                27.317822         36.101829
 212         V                27.382163         36.159702
 213         V                27.382163         36.159702
 214         V                27.661253         36.434238
 215         V                27.661253         36.434238
 216         V                27.685937         35.007623
 217         V                28.047690         33.905731
 218         V                30.716540         37.150609
 219         V                30.716540         37.150609
 220         V                30.718853         37.150488
 221         V                30.718853         37.150488
 222         V                30.751007         34.503700
 223         V                30.751007         34.503700
 224         V                30.751711         37.180389
 225         V                30.751711         37.180389
 226         V                30.841755         37.271680
 227         V                30.841755         37.271680
 228         V                30.877726         36.233620
 229         V                30.909462         37.147853
 230         V                30.909462         37.147853
 231         V                31.342747         35.894595
 232         V                33.229849         32.574146
 233         V                40.971751         57.717540
 234         V                40.971751         57.717540
 235         V                41.030287         57.760478
 236         V                41.030287         57.760478
 237         V                41.320991         57.986148
 238         V                66.769765         65.772111
 239         V                66.769765         65.772111
 240         V                67.105006         66.085361
 241         V                71.559874         98.699625
 242         V                71.559874         98.699625
 243         V                71.613238         98.739838
 244         V                71.613238         98.739838
 245         V                71.873041         98.894962
 246         V                75.348000         54.819173
 247         V               133.921016        124.504876
 248         V               133.921016        124.504876
 249         V               134.212831        124.793389
 250         V               144.473378        195.875780
 251         V               144.473378        195.875780
 252         V               144.518727        195.912031
 253         V               144.518727        195.912031
 254         V               144.736041        195.884428
 255         V               146.762288         89.325337
 256         V               163.729081        170.853692
 257         V               258.501382        240.936322
 258         V               258.501382        240.936322
 259         V               258.753467        240.546387
 260         V               260.896363        185.754667
 261         V               372.734141        463.037833
 262         V               372.734141        463.037833
 263         V               372.768008        463.067938
 264         V               372.768008        463.067938
 265         V               372.933891        463.220635
 266         V               480.646921        390.984916
 267         V               499.381908        474.026446
 268         V               499.381908        474.026446
 269         V               499.645070        474.285208
 270         V               919.594454        815.399218
 271         V               989.478168        957.741791
 272         V               989.478168        957.741791
 273         V               989.721363        957.985780
 274         V              1264.071384       1389.305557
 275         V              1264.071384       1389.305557
 276         V              1264.092870       1389.326179
 277         V              1264.092870       1389.326179
 278         V              1264.199175       1389.429811
 279         V              1830.105416       1714.473919
 280         V              2055.891655       2020.061900
 281         V              2055.891655       2020.061900
 282         V              2056.113260       2020.283750
 283         V              3805.831942       3682.815355
 284         V              4591.537008       4553.600504
 285         V              4591.537008       4553.600504
 286         V              4591.734504       4553.798013
 287         V              8300.685387       8173.524564
 288         V             11597.618558      11558.771486
 289         V             11597.618558      11558.771486
 290         V             11597.788455      11558.941367
 291         V             19100.674841      18971.402251
 292         V             47033.340228      46903.065388
 293         V            129552.146239     129421.421886
 Total kinetic energy from orbitals= 8.967340366629D+01
                          Isotropic Fermi Contact Couplings
        Atom                 a.u.       MegaHertz       Gauss      10(-4) cm-1
     1  Mn(55)             0.00005       0.01002       0.00358       0.00334
     2  H(1)               0.01243       9.26193       3.30489       3.08945
 --------------------------------------------------------
       Center         ----  Spin Dipole Couplings  ----
                      3XX-RR        3YY-RR        3ZZ-RR
 --------------------------------------------------------
     1   Atom       -0.119121     -0.119121      0.238243
     2   Atom       -0.237485     -0.237485      0.474971
 --------------------------------------------------------
                        XY            XZ            YZ
 --------------------------------------------------------
     1   Atom        0.000000      0.000000      0.000000
     2   Atom        0.000000      0.000000      0.000000
 --------------------------------------------------------


 ---------------------------------------------------------------------------------
              Anisotropic Spin Dipole Couplings in Principal Axis System
 ---------------------------------------------------------------------------------

       Atom             a.u.   MegaHertz   Gauss  10(-4) cm-1        Axes

              Baa    -0.1191   -15.717    -5.608    -5.243  1.0000  0.0000  0.0000
     1 Mn(55) Bbb    -0.1191   -15.717    -5.608    -5.243 -0.0000  1.0000  0.0000
              Bcc     0.2382    31.434    11.216    10.485  0.0000  0.0000  1.0000
 
              Baa    -0.2375  -126.711   -45.214   -42.266  1.0000  0.0000  0.0000
     2 H(1)   Bbb    -0.2375  -126.711   -45.214   -42.266 -0.0000  1.0000  0.0000
              Bcc     0.4750   253.422    90.427    84.532  0.0000  0.0000  1.0000
 

 ---------------------------------------------------------------------------------

 No NMR shielding tensors so no spin-rotation constants.
 Leave Link  601 at Thu Apr 19 09:04:54 2018, MaxMem= 21474836480 cpu:              40.7 elap:               1.3
 (Enter /home1/apps/gaussian/16rA.03/g16/l9999.exe)
 1\1\GINC-C498-091\SP\ROCCSD(T)-Full\Gen\H1Mn1(7)\AANNABE\19-Apr-2018\0
 \\#P ROCCSD(T)=(maxcyc=150, Full, SaveAmplitudes, ReadAmplitudes)/Gen 
 5d 7f SCF=(maxcycles=300, VShift=400) Integral(NoXCTest) MaxDisk=500GB
  Pop=Full Pseudo=Read Guess=Read\\MnH\\0,7\Mn,0,0.,0.,0.\H,0,0.,0.,1.4
 \\Version=ES64L-G16RevA.03\State=7-SG\HF=-103.7571092\MP2=-104.3702086
 \PUHF=-103.7571092\PMP2-0=-104.3702086\CCSD=-104.3728231\CCSD(T)=-104.
 390199\RMSD=8.812e-09\PG=C*V [C*(H1Mn1)]\\@


 10 WHATSOEVER THY HAND FINDETH TO DO, DO IT WITH THY  
 MIGHT. FOR THERE IS NO WORK, NOR DEVICE, NOR KNOWLEDGE, NOR  
 WISDOM, IN THE GRAVE, WHITHER THOU GOEST.                    
 11 I RETURNED AND SAW UNDER THE SUN, THAT THE RACE IS NOT TO 
 THE SWIFT, NOR THE BATTLE TO THE STRONG, NEITHER YET BREAD TO
 THE WISE, NOR YET RICHES TO MEN OF UNDERSTANDING, NOR YET    
 FAVOR TO MEN OF SKILL. BUT TIME AND CHANCE HAPPEN TO THEM ALL.
 12 FOR MAN ALSO KNOWETH NOT HIS TIME. AS THE FISHES   
 THAT ARE TAKEN IN AN EVIL NET, AND AS THE BIRDS THAT ARE     
 CAUGHT IN THE SNARE. SO ARE THE SONS OF MEN SNARED IN AN EVIL
 TIME, WHEN IT FALLETH SUDDENLY UPON THEM.
                                         ECCLESIASTES 9
 Job cpu time:       0 days  4 hours 45 minutes 28.0 seconds.
 Elapsed time:       0 days  0 hours  9 minutes  4.0 seconds.
 File lengths (MBytes):  RWF=   7099 Int=      0 D2E=      0 Chk=     31 Scr=      1
 Normal termination of Gaussian 16 at Thu Apr 19 09:04:54 2018.
