 Entering Gaussian System, Link 0=g16
 Initial command:
 /home1/apps/gaussian/16rA.03/g16/l1.exe "/tmp/Gau-149116.inp" -scrdir="/tmp/"
 Entering Link 1 = /home1/apps/gaussian/16rA.03/g16/l1.exe PID=    149117.
  
 Copyright (c) 1988,1990,1992,1993,1995,1998,2003,2009,2016,
            Gaussian, Inc.  All Rights Reserved.
  
 This is part of the Gaussian(R) 16 program.  It is based on
 the Gaussian(R) 09 system (copyright 2009, Gaussian, Inc.),
 the Gaussian(R) 03 system (copyright 2003, Gaussian, Inc.),
 the Gaussian(R) 98 system (copyright 1998, Gaussian, Inc.),
 the Gaussian(R) 94 system (copyright 1995, Gaussian, Inc.),
 the Gaussian 92(TM) system (copyright 1992, Gaussian, Inc.),
 the Gaussian 90(TM) system (copyright 1990, Gaussian, Inc.),
 the Gaussian 88(TM) system (copyright 1988, Gaussian, Inc.),
 the Gaussian 86(TM) system (copyright 1986, Carnegie Mellon
 University), and the Gaussian 82(TM) system (copyright 1983,
 Carnegie Mellon University). Gaussian is a federally registered
 trademark of Gaussian, Inc.
  
 This software contains proprietary and confidential information,
 including trade secrets, belonging to Gaussian, Inc.
  
 This software is provided under written license and may be
 used, copied, transmitted, or stored only in accord with that
 written license.
  
 The following legend is applicable only to US Government
 contracts under FAR:
  
                    RESTRICTED RIGHTS LEGEND
  
 Use, reproduction and disclosure by the US Government is
 subject to restrictions as set forth in subparagraphs (a)
 and (c) of the Commercial Computer Software - Restricted
 Rights clause in FAR 52.227-19.
  
 Gaussian, Inc.
 340 Quinnipiac St., Bldg. 40, Wallingford CT 06492
  
  
 ---------------------------------------------------------------
 Warning -- This program may not be used in any manner that
 competes with the business of Gaussian, Inc. or will provide
 assistance to any competitor of Gaussian, Inc.  The licensee
 of this program is prohibited from giving any competitor of
 Gaussian, Inc. access to this program.  By using this program,
 the user acknowledges that Gaussian, Inc. is engaged in the
 business of creating and licensing software in the field of
 computational chemistry and represents and warrants to the
 licensee that it is not a competitor of Gaussian, Inc. and that
 it will not use this program in any manner prohibited above.
 ---------------------------------------------------------------
  

 Cite this work as:
 Gaussian 16, Revision A.03,
 M. J. Frisch, G. W. Trucks, H. B. Schlegel, G. E. Scuseria, 
 M. A. Robb, J. R. Cheeseman, G. Scalmani, V. Barone, 
 G. A. Petersson, H. Nakatsuji, X. Li, M. Caricato, A. V. Marenich, 
 J. Bloino, B. G. Janesko, R. Gomperts, B. Mennucci, H. P. Hratchian, 
 J. V. Ortiz, A. F. Izmaylov, J. L. Sonnenberg, D. Williams-Young, 
 F. Ding, F. Lipparini, F. Egidi, J. Goings, B. Peng, A. Petrone, 
 T. Henderson, D. Ranasinghe, V. G. Zakrzewski, J. Gao, N. Rega, 
 G. Zheng, W. Liang, M. Hada, M. Ehara, K. Toyota, R. Fukuda, 
 J. Hasegawa, M. Ishida, T. Nakajima, Y. Honda, O. Kitao, H. Nakai, 
 T. Vreven, K. Throssell, J. A. Montgomery, Jr., J. E. Peralta, 
 F. Ogliaro, M. J. Bearpark, J. J. Heyd, E. N. Brothers, K. N. Kudin, 
 V. N. Staroverov, T. A. Keith, R. Kobayashi, J. Normand, 
 K. Raghavachari, A. P. Rendell, J. C. Burant, S. S. Iyengar, 
 J. Tomasi, M. Cossi, J. M. Millam, M. Klene, C. Adamo, R. Cammi, 
 J. W. Ochterski, R. L. Martin, K. Morokuma, O. Farkas, 
 J. B. Foresman, and D. J. Fox, Gaussian, Inc., Wallingford CT, 2016.
 
 ******************************************
 Gaussian 16:  ES64L-G16RevA.03 25-Dec-2016
                18-Mar-2018 
 ******************************************
 %MEM=80GB
 %CPU=0-31
 SetSPE:  set environment variable "MP_BIND" = "yes"
 SetSPE:  set environment variable "MP_BLIST" = "0,1,2,3,4,5,6,7,8,9,10,11,12,13,14,15,16,17,18,19,20,21,22,23,24,25,26,27,28,29,30,31"
 Will use up to   32 processors via shared memory.
 %RWF=/scratch/04843/aannabe/gaussian/
 %Int=/scratch/04843/aannabe/gaussian/
 %D2E=/scratch/04843/aannabe/gaussian/
 %NoSave
 %CHK=CrO
 ----------------------------------------------------------------------
 #P ROCCSD(T)=(maxcyc=150, Full, SaveAmplitudes, ReadAmplitudes)/Gen 5d
  7f SCF=(maxcycles=300, VShift=400) Integral(NoXCTest) MaxDisk=500GB P
 op=Full Pseudo=Read Guess=Read IOp(5/15=2)
 ----------------------------------------------------------------------
 1/38=1,172=1/1;
 2/12=2,17=6,18=5,40=1/2;
 3/5=7,8=11,11=2,16=1,17=8,25=1,30=1,47=8,116=101/1,2,3;
 4/5=1/1;
 5/5=2,7=300,10=400,15=2,38=6/2;
 8/5=-1,6=4,9=120000,10=90,24=1/1,4;
 9/5=7,6=150,14=2,77=1/13;
 6/7=3/1;
 99/5=1,9=1/99;
 Leave Link    1 at Sun Mar 18 16:18:34 2018, MaxMem= 10737418240 cpu:               9.9 elap:               0.3
 (Enter /home1/apps/gaussian/16rA.03/g16/l101.exe)
 ---
 CrO
 ---
 Symbolic Z-matrix:
 Charge =  0 Multiplicity = 5
 Cr                    0.        0.        0. 
 O                     0.        0.        1.8 
 
 ITRead=  0  0
 MicOpt= -1 -1
 NAtoms=      2 NQM=        2 NQMF=       0 NMMI=      0 NMMIF=      0
                NMic=       0 NMicF=      0.
                    Isotopes and Nuclear Properties:
 (Nuclear quadrupole moments (NQMom) in fm**2, nuclear magnetic moments (NMagM)
  in nuclear magnetons)

  Atom         1           2
 IAtWgt=          52          16
 AtmWgt=  51.9405097  15.9949146
 NucSpn=           0           0
 AtZEff=  -0.0000000  -0.0000000
 NQMom=    0.0000000   0.0000000
 NMagM=    0.0000000   0.0000000
 AtZNuc=  24.0000000   8.0000000
 Leave Link  101 at Sun Mar 18 16:18:34 2018, MaxMem= 10737418240 cpu:               3.1 elap:               0.1
 (Enter /home1/apps/gaussian/16rA.03/g16/l202.exe)
                          Input orientation:                          
 ---------------------------------------------------------------------
 Center     Atomic      Atomic             Coordinates (Angstroms)
 Number     Number       Type             X           Y           Z
 ---------------------------------------------------------------------
      1         24           0        0.000000    0.000000    0.000000
      2          8           0        0.000000    0.000000    1.800000
 ---------------------------------------------------------------------
 Stoichiometry    CrO(5)
 Framework group  C*V[C*(OCr)]
 Deg. of freedom     1
 Full point group                 C*V     NOp   4
 Largest Abelian subgroup         C2V     NOp   4
 Largest concise Abelian subgroup C1      NOp   1
                         Standard orientation:                         
 ---------------------------------------------------------------------
 Center     Atomic      Atomic             Coordinates (Angstroms)
 Number     Number       Type             X           Y           Z
 ---------------------------------------------------------------------
      1         24           0        0.000000    0.000000    0.450000
      2          8           0        0.000000    0.000000   -1.350000
 ---------------------------------------------------------------------
 Rotational constants (GHZ):           0.0000000          12.7549966          12.7549966
 Leave Link  202 at Sun Mar 18 16:18:34 2018, MaxMem= 10737418240 cpu:               0.8 elap:               0.1
 (Enter /home1/apps/gaussian/16rA.03/g16/l301.exe)
 General basis read from cards:  (5D, 7F)
 Centers:       1
 S 1 1.00
     Exponent=  5.9620050000D+04 Coefficients=  1.0000000000D+00
 S 1 1.00
     Exponent=  1.9450760000D+04 Coefficients=  1.0000000000D+00
 S 1 1.00
     Exponent=  7.0220560000D+03 Coefficients=  1.0000000000D+00
 S 1 1.00
     Exponent=  2.7387630000D+03 Coefficients=  1.0000000000D+00
 S 1 1.00
     Exponent=  1.1358140000D+03 Coefficients=  1.0000000000D+00
 S 1 1.00
     Exponent=  4.9509230000D+02 Coefficients=  1.0000000000D+00
 S 1 1.00
     Exponent=  2.2474870000D+02 Coefficients=  1.0000000000D+00
 S 1 1.00
     Exponent=  1.0538360000D+02 Coefficients=  1.0000000000D+00
 S 1 1.00
     Exponent=  5.0193590000D+01 Coefficients=  1.0000000000D+00
 S 1 1.00
     Exponent=  2.2249570000D+01 Coefficients=  1.0000000000D+00
 S 1 1.00
     Exponent=  1.0982650000D+01 Coefficients=  1.0000000000D+00
 S 1 1.00
     Exponent=  5.3836650000D+00 Coefficients=  1.0000000000D+00
 S 1 1.00
     Exponent=  2.3436850000D+00 Coefficients=  1.0000000000D+00
 S 1 1.00
     Exponent=  1.1052020000D+00 Coefficients=  1.0000000000D+00
 S 1 1.00
     Exponent=  4.8784800000D-01 Coefficients=  1.0000000000D+00
 S 1 1.00
     Exponent=  8.9599000000D-02 Coefficients=  1.0000000000D+00
 S 1 1.00
     Exponent=  3.3423000000D-02 Coefficients=  1.0000000000D+00
 S 1 1.00
     Exponent=  4.8281000000D+00 Coefficients=  1.0000000000D+00
 S 1 1.00
     Exponent=  1.1499000000D+00 Coefficients=  1.0000000000D+00
 S 1 1.00
     Exponent=  1.2470000000D-02 Coefficients=  1.0000000000D+00
 P 1 1.00
     Exponent=  3.4216760000D+03 Coefficients=  1.0000000000D+00
 P 1 1.00
     Exponent=  1.1113870000D+03 Coefficients=  1.0000000000D+00
 P 1 1.00
     Exponent=  4.2519180000D+02 Coefficients=  1.0000000000D+00
 P 1 1.00
     Exponent=  1.8026230000D+02 Coefficients=  1.0000000000D+00
 P 1 1.00
     Exponent=  8.2061170000D+01 Coefficients=  1.0000000000D+00
 P 1 1.00
     Exponent=  3.9297260000D+01 Coefficients=  1.0000000000D+00
 P 1 1.00
     Exponent=  1.9419590000D+01 Coefficients=  1.0000000000D+00
 P 1 1.00
     Exponent=  9.8288990000D+00 Coefficients=  1.0000000000D+00
 P 1 1.00
     Exponent=  5.0168100000D+00 Coefficients=  1.0000000000D+00
 P 1 1.00
     Exponent=  2.4870910000D+00 Coefficients=  1.0000000000D+00
 P 1 1.00
     Exponent=  1.1987800000D+00 Coefficients=  1.0000000000D+00
 P 1 1.00
     Exponent=  5.5869500000D-01 Coefficients=  1.0000000000D+00
 P 1 1.00
     Exponent=  2.0936600000D-01 Coefficients=  1.0000000000D+00
 P 1 1.00
     Exponent=  8.4722000000D-02 Coefficients=  1.0000000000D+00
 P 1 1.00
     Exponent=  3.3278000000D-02 Coefficients=  1.0000000000D+00
 P 1 1.00
     Exponent=  5.2718000000D+00 Coefficients=  1.0000000000D+00
 P 1 1.00
     Exponent=  1.2083000000D+00 Coefficients=  1.0000000000D+00
 P 1 1.00
     Exponent=  1.3070000000D-02 Coefficients=  1.0000000000D+00
 D 1 1.00
     Exponent=  8.9474500000D+01 Coefficients=  1.0000000000D+00
 D 1 1.00
     Exponent=  2.6336800000D+01 Coefficients=  1.0000000000D+00
 D 1 1.00
     Exponent=  9.5342900000D+00 Coefficients=  1.0000000000D+00
 D 1 1.00
     Exponent=  3.8211800000D+00 Coefficients=  1.0000000000D+00
 D 1 1.00
     Exponent=  1.5716900000D+00 Coefficients=  1.0000000000D+00
 D 1 1.00
     Exponent=  6.2642200000D-01 Coefficients=  1.0000000000D+00
 D 1 1.00
     Exponent=  2.3305500000D-01 Coefficients=  1.0000000000D+00
 D 1 1.00
     Exponent=  7.6303000000D-02 Coefficients=  1.0000000000D+00
 D 1 1.00
     Exponent=  3.4093000000D+00 Coefficients=  1.0000000000D+00
 D 1 1.00
     Exponent=  1.5874000000D+00 Coefficients=  1.0000000000D+00
 D 1 1.00
     Exponent=  2.4980000000D-02 Coefficients=  1.0000000000D+00
 F 1 1.00
     Exponent=  4.3629000000D+00 Coefficients=  1.0000000000D+00
 F 1 1.00
     Exponent=  1.5864000000D+00 Coefficients=  1.0000000000D+00
 F 1 1.00
     Exponent=  5.2310000000D-01 Coefficients=  1.0000000000D+00
 F 1 1.00
     Exponent=  1.7249000000D-01 Coefficients=  1.0000000000D+00
 G 1 1.00
     Exponent=  4.0406000000D+00 Coefficients=  1.0000000000D+00
 G 1 1.00
     Exponent=  1.4199000000D+00 Coefficients=  1.0000000000D+00
 G 1 1.00
     Exponent=  4.9896000000D-01 Coefficients=  1.0000000000D+00
 ****
 Centers:       2
 S 1 1.00
     Exponent=  1.5330000000D+04 Coefficients=  1.0000000000D+00
 S 1 1.00
     Exponent=  2.2990000000D+03 Coefficients=  1.0000000000D+00
 S 1 1.00
     Exponent=  5.2240000000D+02 Coefficients=  1.0000000000D+00
 S 1 1.00
     Exponent=  1.4730000000D+02 Coefficients=  1.0000000000D+00
 S 1 1.00
     Exponent=  4.7550000000D+01 Coefficients=  1.0000000000D+00
 S 1 1.00
     Exponent=  1.6760000000D+01 Coefficients=  1.0000000000D+00
 S 1 1.00
     Exponent=  6.2070000000D+00 Coefficients=  1.0000000000D+00
 S 1 1.00
     Exponent=  6.8820000000D-01 Coefficients=  1.0000000000D+00
 S 1 1.00
     Exponent=  1.7520000000D+00 Coefficients=  1.0000000000D+00
 S 1 1.00
     Exponent=  2.3840000000D-01 Coefficients=  1.0000000000D+00
 S 1 1.00
     Exponent=  7.8450000000D+00 Coefficients=  1.0000000000D+00
 S 1 1.00
     Exponent=  2.1032000000D+01 Coefficients=  1.0000000000D+00
 S 1 1.00
     Exponent=  7.3760000000D-02 Coefficients=  1.0000000000D+00
 P 1 1.00
     Exponent=  3.4460000000D+01 Coefficients=  1.0000000000D+00
 P 1 1.00
     Exponent=  7.7490000000D+00 Coefficients=  1.0000000000D+00
 P 1 1.00
     Exponent=  2.2800000000D+00 Coefficients=  1.0000000000D+00
 P 1 1.00
     Exponent=  7.1560000000D-01 Coefficients=  1.0000000000D+00
 P 1 1.00
     Exponent=  2.1400000000D-01 Coefficients=  1.0000000000D+00
 P 1 1.00
     Exponent=  1.5159000000D+01 Coefficients=  1.0000000000D+00
 P 1 1.00
     Exponent=  5.7437000000D+01 Coefficients=  1.0000000000D+00
 P 1 1.00
     Exponent=  5.9740000000D-02 Coefficients=  1.0000000000D+00
 D 1 1.00
     Exponent=  2.3140000000D+00 Coefficients=  1.0000000000D+00
 D 1 1.00
     Exponent=  6.4500000000D-01 Coefficients=  1.0000000000D+00
 D 1 1.00
     Exponent=  1.5858000000D+01 Coefficients=  1.0000000000D+00
 D 1 1.00
     Exponent=  2.1400000000D-01 Coefficients=  1.0000000000D+00
 F 1 1.00
     Exponent=  1.4280000000D+00 Coefficients=  1.0000000000D+00
 F 1 1.00
     Exponent=  5.0000000000D-01 Coefficients=  1.0000000000D+00
 ****
 ======================================================================================================
                                       Pseudopotential Parameters
 ======================================================================================================
  Center     Atomic      Valence      Angular      Power
  Number     Number     Electrons     Momentum     of R      Exponent        Coefficient   SO-Coeffient
 ======================================================================================================
    1         24           14
                                      F and up 
                                                     2        1.0000000        0.00000000    0.00000000
                                      S - F
                                                     2       16.3900000      201.57888700    0.00000000
                                                     2        7.4020000       24.20574100    0.00000000
                                      P - F
                                                     2       16.4500000      125.02277400    0.00000000
                                                     2        6.9620000       16.47906600    0.00000000
                                      D - F
                                                     2       19.9300000      -20.82742100    0.00000000
                                                     2        6.5980000       -0.83436800    0.00000000
    2          8            6
                                      F and up 
                                                     2        1.0000000        0.00000000    0.00000000
                                      S - F
                                                     2       10.4456700       50.77106900    0.00000000
                                      P - F
                                                     2       18.0451740       -4.90355100    0.00000000
                                      D - F
                                                     2        8.1647980       -3.31212400    0.00000000
 ======================================================================================================
 Ernie: Thresh=  0.10000D-02 Tol=  0.10000D-05 Strict=F.
 There are   140 symmetry adapted cartesian basis functions of A1  symmetry.
 There are    30 symmetry adapted cartesian basis functions of A2  symmetry.
 There are    68 symmetry adapted cartesian basis functions of B1  symmetry.
 There are    68 symmetry adapted cartesian basis functions of B2  symmetry.
 There are   110 symmetry adapted basis functions of A1  symmetry.
 There are    27 symmetry adapted basis functions of A2  symmetry.
 There are    59 symmetry adapted basis functions of B1  symmetry.
 There are    59 symmetry adapted basis functions of B2  symmetry.
   255 basis functions,   306 primitive gaussians,   306 cartesian basis functions
    12 alpha electrons        8 beta electrons
       nuclear repulsion energy        24.6949365096 Hartrees.
 IExCor=    0 DFT=F Ex=HF Corr=None ExCW=0 ScaHFX=  1.000000
 ScaDFX=  1.000000  1.000000  1.000000  1.000000 ScalE2=  1.000000  1.000000
 IRadAn=      5 IRanWt=     -1 IRanGd=            0 ICorTp=0 IEmpDi=  4
 NAtoms=    2 NActive=    2 NUniq=    2 SFac= 1.00D+00 NAtFMM=   60 NAOKFM=F Big=F
 Integral buffers will be    131072 words long.
 Raffenetti 2 integral format.
 Two-electron integral symmetry is turned on.
 Leave Link  301 at Sun Mar 18 16:18:35 2018, MaxMem= 10737418240 cpu:               8.0 elap:               0.3
 (Enter /home1/apps/gaussian/16rA.03/g16/l302.exe)
 NPDir=0 NMtPBC=     1 NCelOv=     1 NCel=       1 NClECP=     1 NCelD=      1
         NCelK=      1 NCelE2=     1 NClLst=     1 CellRange=     0.0.
 One-electron integrals computed using PRISM.
 One-electron integral symmetry used in STVInt
   4 Symmetry operations used in ECPInt.
 ECPInt:  NShTT=    3486 NPrTT=    3486 LenC2=    3204 LenP2D=    3203.
 LDataN:  DoStor=T MaxTD1= 8 Len=  415
 NBasis=   255 RedAO= T EigKep=  1.79D-06  NBF=   110    27    59    59
 NBsUse=   246 1.00D-06 EigRej=  4.94D-07 NBFU=   106    26    57    57
 Leave Link  302 at Sun Mar 18 16:18:37 2018, MaxMem= 10737418240 cpu:              40.6 elap:               1.4
 (Enter /home1/apps/gaussian/16rA.03/g16/l303.exe)
 DipDrv:  MaxL=1.
 Leave Link  303 at Sun Mar 18 16:18:37 2018, MaxMem= 10737418240 cpu:               2.2 elap:               0.1
 (Enter /home1/apps/gaussian/16rA.03/g16/l401.exe)
 Initial guess from the checkpoint file:  "CrO.chk"
 B after Tr=     0.000000    0.000000    0.000000
         Rot=    1.000000    0.000000    0.000000    0.000000 Ang=   0.00 deg.
 Guess basis will be translated and rotated to current coordinates.
 JPrj=2 DoOrth=T DoCkMO=T.
 Initial guess orbital symmetries:
       Occupied  (SG) (SG) (PI) (PI) (SG) (SG) (?A) (?A) (?B) (?B)
                 (?B) (?A)
       Virtual   (?B) (?A) (?A) (SG) (?B) (?A) (?A) (?B) (?B) (?A)
                 (?B) (?A) (?B) (?A) (?B) (?A) (?A) (?B) (?B) (?B)
                 (?A) (?A) (?B) (?A) (?A) (SG) (?B) (DLTA) (DLTA)
                 (PHI) (PHI) (?A) (SG) (?A) (?A) (?A) (?C) (?C)
                 (?C) (?C) (?A) (?A) (?C) (?C) (?A) (?A) (SG) (SG)
                 (PI) (PI) (SG) (DLTA) (DLTA) (?D) (?D) (?D) (?D)
                 (SG) (PHI) (PHI) (SG) (?E) (?E) (?F) (?F) (?E)
                 (?G) (?G) (?F) (?F) (DLTA) (DLTA) (PHI) (PHI)
                 (?H) (?A) (?A) (?H) (?H) (?H) (?A) (?A) (DLTA)
                 (DLTA) (SG) (SG) (?A) (?A) (PI) (PI) (SG) (PHI)
                 (PHI) (DLTA) (DLTA) (SG) (?A) (?A) (SG) (SG) (PI)
                 (PI) (?D) (?D) (?I) (?D) (?I) (?I) (?D) (?G) (?G)
                 (PHI) (PHI) (?J) (?J) (?J) (DLTA) (DLTA) (PI)
                 (PI) (PI) (PI) (?J) (?J) (?J) (PI) (PI) (SG) (SG)
                 (?D) (?D) (DLTA) (DLTA) (?D) (?D) (SG) (PI) (PI)
                 (SG) (PI) (PI) (SG) (SG) (?K) (?K) (PI) (PI) (?K)
                 (SG) (?D) (?D) (?L) (?L) (?L) (?L) (?D) (?D) (?L)
                 (PI) (PI) (SG) (DLTA) (DLTA) (PI) (PI) (SG) (SG)
                 (SG) (DLTA) (DLTA) (PI) (PI) (SG) (PI) (PI) (SG)
                 (PI) (PI) (SG) (SG) (SG) (DLTA) (DLTA) (PI) (PI)
                 (SG) (PI) (PI) (PI) (PI) (SG) (SG) (SG) (SG) (PI)
                 (PI) (SG) (SG) (SG) (PI) (PI) (SG) (DLTA) (DLTA)
                 (PI) (PI) (SG) (PI) (PI) (SG) (SG) (SG) (PI) (PI)
                 (SG) (SG) (SG) (PI) (PI) (SG) (SG) (SG) (PI) (PI)
                 (SG) (SG) (SG) (PI) (PI) (SG) (SG) (SG) (SG) (SG)
 Leave Link  401 at Sun Mar 18 16:18:38 2018, MaxMem= 10737418240 cpu:              12.7 elap:               0.5
 (Enter /home1/apps/gaussian/16rA.03/g16/l502.exe)
 Keep R1 and R2 ints in memory in symmetry-blocked form, NReq=669167781.
 FoFCou: FMM=F IPFlag=           8 FMFlag=           0 FMFlg1=           0
         NFxFlg=           0 DoJE=F BraDBF=F KetDBF=F FulRan=T
         wScrn=  0.000000 ICntrl=       600 IOpCl=  0 I1Cent=           0 NGrid=           0
         NMat0=    1 NMatS0=  32640 NMatT0=    0 NMatD0=    1 NMtDS0=    0 NMtDT0=    0
 Petite list used in FoFCou.
 Restricted open shell SCF:
 Using DIIS extrapolation, IDIIS=  1040.
 NGot= 10737418240 LenX= 10464364283 LenY= 10464270206
 Requested convergence on RMS density matrix=1.00D-08 within 300 cycles.
 Requested convergence on MAX density matrix=1.00D-06.
 Requested convergence on             energy=1.00D-06.
 Virtual orbitals will be shifted by   0.400 hartree.
 No special actions if energy rises.

 Cycle   1  Pass 1  IDiag  1:
 E= -101.844213888152    
 DIIS: error= 2.57D-01 at cycle   1 NSaved=   1.
 NSaved= 1 IEnMin= 1 EnMin= -101.844213888152     IErMin= 1 ErrMin= 2.57D-01
 ErrMax= 2.57D-01  0.00D+00 EMaxC= 1.00D-01 BMatC= 3.75D+00 BMatP= 3.75D+00
 IDIUse=3 WtCom= 0.00D+00 WtEn= 1.00D+00
 Coeff-Com:  0.100D+01
 Coeff-En:   0.100D+01
 Coeff:      0.100D+01
 Gap=     0.118 Goal=   None    Shift=    0.400
 GapD=    0.118 DampG=1.000 DampE=0.125 DampFc=0.1250 IDamp=-1.
 Damping current iteration by 1.25D-01
 RMSDP=1.10D-03 MaxDP=1.29D-01              OVMax= 4.01D-02

 Cycle   2  Pass 1  IDiag  1:
 E= -101.861520340895     Delta-E=       -0.017306452743 Rises=F Damp=T
 DIIS: error= 2.26D-01 at cycle   2 NSaved=   2.
 NSaved= 2 IEnMin= 2 EnMin= -101.861520340895     IErMin= 2 ErrMin= 2.26D-01
 ErrMax= 2.26D-01  0.00D+00 EMaxC= 1.00D-01 BMatC= 2.87D+00 BMatP= 3.75D+00
 IDIUse=3 WtCom= 0.00D+00 WtEn= 1.00D+00
 Coeff-Com: -0.695D+01 0.795D+01
 Coeff-En:   0.000D+00 0.100D+01
 Coeff:      0.000D+00 0.100D+01
 Gap=     0.094 Goal=   None    Shift=    0.400
 RMSDP=9.88D-04 MaxDP=1.13D-01 DE=-1.73D-02 OVMax= 1.34D-02

 Cycle   3  Pass 1  IDiag  1:
 E= -101.984412348221     Delta-E=       -0.122892007326 Rises=F Damp=F
 DIIS: error= 8.36D-03 at cycle   3 NSaved=   3.
 NSaved= 3 IEnMin= 3 EnMin= -101.984412348221     IErMin= 3 ErrMin= 8.36D-03
 ErrMax= 8.36D-03  0.00D+00 EMaxC= 1.00D-01 BMatC= 6.83D-03 BMatP= 2.87D+00
 IDIUse=3 WtCom= 9.16D-01 WtEn= 8.36D-02
 Coeff-Com:  0.871D+00-0.101D+01 0.114D+01
 Coeff-En:   0.000D+00 0.000D+00 0.100D+01
 Coeff:      0.798D+00-0.923D+00 0.112D+01
 Gap=     0.084 Goal=   None    Shift=    0.400
 RMSDP=3.46D-04 MaxDP=1.93D-02 DE=-1.23D-01 OVMax= 2.60D-02

 Cycle   4  Pass 1  IDiag  1:
 E= -101.985947425861     Delta-E=       -0.001535077641 Rises=F Damp=F
 DIIS: error= 9.60D-03 at cycle   4 NSaved=   4.
 NSaved= 4 IEnMin= 4 EnMin= -101.985947425861     IErMin= 3 ErrMin= 8.36D-03
 ErrMax= 9.60D-03  0.00D+00 EMaxC= 1.00D-01 BMatC= 7.52D-03 BMatP= 6.83D-03
 IDIUse=3 WtCom= 9.26D-02 WtEn= 9.07D-01
 Coeff-Com:  0.105D-01-0.196D-01 0.530D+00 0.480D+00
 Coeff-En:   0.000D+00 0.000D+00 0.342D+00 0.658D+00
 Coeff:      0.975D-03-0.182D-02 0.359D+00 0.642D+00
 Gap=     0.094 Goal=   None    Shift=    0.400
 RMSDP=2.52D-04 MaxDP=1.62D-02 DE=-1.54D-03 OVMax= 3.03D-02

 Cycle   5  Pass 1  IDiag  1:
 E= -101.991836198831     Delta-E=       -0.005888772969 Rises=F Damp=F
 DIIS: error= 3.20D-03 at cycle   5 NSaved=   5.
 NSaved= 5 IEnMin= 5 EnMin= -101.991836198831     IErMin= 5 ErrMin= 3.20D-03
 ErrMax= 3.20D-03  0.00D+00 EMaxC= 1.00D-01 BMatC= 8.94D-04 BMatP= 6.83D-03
 IDIUse=3 WtCom= 9.68D-01 WtEn= 3.20D-02
 Coeff-Com: -0.297D-01 0.349D-01-0.571D-01 0.184D+00 0.868D+00
 Coeff-En:   0.000D+00 0.000D+00 0.000D+00 0.000D+00 0.100D+01
 Coeff:     -0.288D-01 0.338D-01-0.552D-01 0.178D+00 0.872D+00
 Gap=     0.085 Goal=   None    Shift=    0.400
 RMSDP=1.28D-04 MaxDP=9.73D-03 DE=-5.89D-03 OVMax= 2.44D-02

 Cycle   6  Pass 1  IDiag  1:
 E= -101.993773563783     Delta-E=       -0.001937364952 Rises=F Damp=F
 DIIS: error= 3.49D-03 at cycle   6 NSaved=   6.
 NSaved= 6 IEnMin= 6 EnMin= -101.993773563783     IErMin= 5 ErrMin= 3.20D-03
 ErrMax= 3.49D-03  0.00D+00 EMaxC= 1.00D-01 BMatC= 3.93D-04 BMatP= 8.94D-04
 IDIUse=3 WtCom= 9.68D-01 WtEn= 3.20D-02
 Coeff-Com: -0.972D-01 0.111D+00-0.240D-01 0.116D-01 0.187D-01 0.980D+00
 Coeff-En:   0.000D+00 0.000D+00 0.000D+00 0.000D+00 0.000D+00 0.100D+01
 Coeff:     -0.941D-01 0.108D+00-0.232D-01 0.112D-01 0.181D-01 0.980D+00
 Gap=     0.081 Goal=   None    Shift=    0.400
 RMSDP=1.06D-04 MaxDP=1.26D-02 DE=-1.94D-03 OVMax= 2.63D-02

 Cycle   7  Pass 1  IDiag  1:
 E= -101.995134131409     Delta-E=       -0.001360567627 Rises=F Damp=F
 DIIS: error= 3.53D-03 at cycle   7 NSaved=   7.
 NSaved= 7 IEnMin= 7 EnMin= -101.995134131409     IErMin= 5 ErrMin= 3.20D-03
 ErrMax= 3.53D-03  0.00D+00 EMaxC= 1.00D-01 BMatC= 3.92D-04 BMatP= 3.93D-04
 IDIUse=3 WtCom= 9.68D-01 WtEn= 3.20D-02
 Coeff-Com: -0.197D+00 0.225D+00-0.145D-01 0.152D+00 0.454D+00-0.225D+01
 Coeff-Com:  0.263D+01
 Coeff-En:   0.000D+00 0.000D+00 0.000D+00 0.000D+00 0.000D+00 0.000D+00
 Coeff-En:   0.100D+01
 Coeff:     -0.191D+00 0.218D+00-0.141D-01 0.147D+00 0.440D+00-0.218D+01
 Coeff:      0.258D+01
 Gap=     0.073 Goal=   None    Shift=    0.400
 RMSDP=1.41D-04 MaxDP=2.05D-02 DE=-1.36D-03 OVMax= 3.30D-02

 Cycle   8  Pass 1  IDiag  1:
 E= -101.996843930340     Delta-E=       -0.001709798931 Rises=F Damp=F
 DIIS: error= 3.85D-03 at cycle   8 NSaved=   8.
 NSaved= 8 IEnMin= 8 EnMin= -101.996843930340     IErMin= 5 ErrMin= 3.20D-03
 ErrMax= 3.85D-03  0.00D+00 EMaxC= 1.00D-01 BMatC= 4.07D-04 BMatP= 3.92D-04
 IDIUse=3 WtCom= 9.68D-01 WtEn= 3.20D-02
 Coeff-Com: -0.343D+00 0.391D+00-0.459D-02 0.299D-01 0.184D+00-0.495D+00
 Coeff-Com: -0.426D+00 0.166D+01
 Coeff-En:   0.000D+00 0.000D+00 0.000D+00 0.000D+00 0.000D+00 0.000D+00
 Coeff-En:   0.000D+00 0.100D+01
 Coeff:     -0.332D+00 0.379D+00-0.444D-02 0.289D-01 0.178D+00-0.480D+00
 Coeff:     -0.412D+00 0.164D+01
 Gap=     0.070 Goal=   None    Shift=    0.400
 RMSDP=1.35D-04 MaxDP=2.12D-02 DE=-1.71D-03 OVMax= 3.38D-02

 Cycle   9  Pass 1  IDiag  1:
 E= -101.998423117947     Delta-E=       -0.001579187607 Rises=F Damp=F
 DIIS: error= 3.71D-03 at cycle   9 NSaved=   9.
 NSaved= 9 IEnMin= 9 EnMin= -101.998423117947     IErMin= 5 ErrMin= 3.20D-03
 ErrMax= 3.71D-03  0.00D+00 EMaxC= 1.00D-01 BMatC= 4.03D-04 BMatP= 3.92D-04
 IDIUse=3 WtCom= 9.68D-01 WtEn= 3.20D-02
 Coeff-Com: -0.606D+00 0.692D+00-0.158D+00 0.288D-01 0.490D+00 0.165D+01
 Coeff-Com: -0.387D+01-0.100D+01 0.377D+01
 Coeff-En:   0.000D+00 0.000D+00 0.000D+00 0.000D+00 0.000D+00 0.000D+00
 Coeff-En:   0.000D+00 0.000D+00 0.100D+01
 Coeff:     -0.586D+00 0.670D+00-0.153D+00 0.278D-01 0.474D+00 0.160D+01
 Coeff:     -0.375D+01-0.968D+00 0.368D+01
 Gap=     0.052 Goal=   None    Shift=    0.400
 RMSDP=2.57D-04 MaxDP=3.79D-02 DE=-1.58D-03 OVMax= 5.13D-02

 Cycle  10  Pass 1  IDiag  1:
 E= -102.000649198503     Delta-E=       -0.002226080556 Rises=F Damp=F
 DIIS: error= 4.35D-03 at cycle  10 NSaved=  10.
 NSaved=10 IEnMin=10 EnMin= -102.000649198503     IErMin= 5 ErrMin= 3.20D-03
 ErrMax= 4.35D-03  0.00D+00 EMaxC= 1.00D-01 BMatC= 8.00D-04 BMatP= 3.92D-04
 IDIUse=3 WtCom= 9.68D-01 WtEn= 3.20D-02
 Coeff-Com: -0.797D+00 0.910D+00-0.130D+00 0.466D-01 0.673D-01-0.333D+00
 Coeff-Com:  0.471D+01-0.816D+01 0.265D+01 0.204D+01
 Coeff-En:   0.000D+00 0.000D+00 0.000D+00 0.000D+00 0.000D+00 0.000D+00
 Coeff-En:   0.000D+00 0.000D+00 0.000D+00 0.100D+01
 Coeff:     -0.771D+00 0.881D+00-0.126D+00 0.451D-01 0.652D-01-0.322D+00
 Coeff:      0.456D+01-0.790D+01 0.257D+01 0.201D+01
 Gap=     0.051 Goal=   None    Shift=    0.400
 RMSDP=1.46D-04 MaxDP=2.13D-02 DE=-2.23D-03 OVMax= 3.29D-02

 Cycle  11  Pass 1  IDiag  1:
 E= -102.001736564050     Delta-E=       -0.001087365547 Rises=F Damp=F
 DIIS: error= 3.90D-03 at cycle  11 NSaved=  11.
 NSaved=11 IEnMin=11 EnMin= -102.001736564050     IErMin= 5 ErrMin= 3.20D-03
 ErrMax= 3.90D-03  0.00D+00 EMaxC= 1.00D-01 BMatC= 6.71D-04 BMatP= 3.92D-04
 IDIUse=3 WtCom= 9.68D-01 WtEn= 3.20D-02
 Coeff-Com: -0.106D+01 0.121D+01-0.193D+00 0.298D-02 0.243D+00-0.201D+01
 Coeff-Com:  0.552D+01-0.419D+01-0.103D+01 0.393D+00 0.212D+01
 Coeff-En:   0.000D+00 0.000D+00 0.000D+00 0.000D+00 0.000D+00 0.000D+00
 Coeff-En:   0.000D+00 0.000D+00 0.000D+00 0.000D+00 0.100D+01
 Coeff:     -0.102D+01 0.117D+01-0.186D+00 0.288D-02 0.236D+00-0.195D+01
 Coeff:      0.534D+01-0.406D+01-0.993D+00 0.380D+00 0.208D+01
 Gap=     0.044 Goal=   None    Shift=    0.400
 RMSDP=1.49D-04 MaxDP=2.30D-02 DE=-1.09D-03 OVMax= 3.55D-02

 Cycle  12  Pass 1  IDiag  1:
 E= -102.002592354423     Delta-E=       -0.000855790373 Rises=F Damp=F
 DIIS: error= 3.89D-03 at cycle  12 NSaved=  12.
 NSaved=12 IEnMin=12 EnMin= -102.002592354423     IErMin= 5 ErrMin= 3.20D-03
 ErrMax= 3.89D-03  0.00D+00 EMaxC= 1.00D-01 BMatC= 8.75D-04 BMatP= 3.92D-04
 IDIUse=3 WtCom= 9.68D-01 WtEn= 3.20D-02
 Coeff-Com: -0.139D+01 0.159D+01-0.228D+00-0.968D-01-0.436D-02 0.452D+00
 Coeff-Com: -0.172D+01 0.309D+01-0.702D+00-0.188D+01-0.220D+01 0.408D+01
 Coeff-En:   0.000D+00 0.000D+00 0.000D+00 0.000D+00 0.000D+00 0.000D+00
 Coeff-En:   0.000D+00 0.000D+00 0.000D+00 0.000D+00 0.000D+00 0.100D+01
 Coeff:     -0.135D+01 0.154D+01-0.221D+00-0.937D-01-0.422D-02 0.437D+00
 Coeff:     -0.166D+01 0.300D+01-0.680D+00-0.182D+01-0.213D+01 0.398D+01
 Gap=     0.036 Goal=   None    Shift=    0.400
 RMSDP=1.51D-04 MaxDP=2.40D-02 DE=-8.56D-04 OVMax= 3.22D-02

 Cycle  13  Pass 1  IDiag  1:
 E= -102.002640709447     Delta-E=       -0.000048355024 Rises=F Damp=F
 DIIS: error= 5.58D-03 at cycle  13 NSaved=  13.
 NSaved=13 IEnMin=13 EnMin= -102.002640709447     IErMin= 5 ErrMin= 3.20D-03
 ErrMax= 5.58D-03  0.00D+00 EMaxC= 1.00D-01 BMatC= 1.31D-03 BMatP= 3.92D-04
 IDIUse=3 WtCom= 9.68D-01 WtEn= 3.20D-02
 Coeff-Com: -0.142D+01 0.162D+01-0.239D+00-0.614D-01 0.559D-01 0.319D+00
 Coeff-Com: -0.130D+01 0.203D+01 0.301D+00-0.169D+01-0.179D+01 0.192D+01
 Coeff-Com:  0.126D+01
 Coeff-En:   0.000D+00 0.000D+00 0.000D+00 0.000D+00 0.000D+00 0.000D+00
 Coeff-En:   0.000D+00 0.000D+00 0.000D+00 0.000D+00 0.000D+00 0.000D+00
 Coeff-En:   0.100D+01
 Coeff:     -0.138D+01 0.157D+01-0.231D+00-0.594D-01 0.541D-01 0.309D+00
 Coeff:     -0.126D+01 0.196D+01 0.291D+00-0.163D+01-0.173D+01 0.186D+01
 Coeff:      0.125D+01
 Gap=     0.038 Goal=   None    Shift=    0.400
 RMSDP=8.25D-05 MaxDP=1.19D-02 DE=-4.84D-05 OVMax= 2.08D-02

 Cycle  14  Pass 1  IDiag  1:
 E= -102.002813420820     Delta-E=       -0.000172711373 Rises=F Damp=F
 DIIS: error= 5.23D-03 at cycle  14 NSaved=  14.
 NSaved=14 IEnMin=14 EnMin= -102.002813420820     IErMin= 5 ErrMin= 3.20D-03
 ErrMax= 5.23D-03  0.00D+00 EMaxC= 1.00D-01 BMatC= 1.21D-03 BMatP= 3.92D-04
 IDIUse=3 WtCom= 9.68D-01 WtEn= 3.20D-02
 Coeff-Com: -0.160D+01 0.183D+01-0.269D+00-0.946D-01-0.183D-01-0.240D+00
 Coeff-Com:  0.299D+01-0.361D+01-0.240D+00 0.142D+01-0.502D+00 0.464D+00
 Coeff-Com: -0.163D+01 0.249D+01
 Coeff-En:   0.000D+00 0.000D+00 0.000D+00 0.000D+00 0.000D+00 0.000D+00
 Coeff-En:   0.000D+00 0.000D+00 0.000D+00 0.000D+00 0.000D+00 0.000D+00
 Coeff-En:   0.000D+00 0.100D+01
 Coeff:     -0.155D+01 0.177D+01-0.260D+00-0.916D-01-0.177D-01-0.233D+00
 Coeff:      0.289D+01-0.349D+01-0.232D+00 0.138D+01-0.486D+00 0.449D+00
 Coeff:     -0.157D+01 0.245D+01
 Gap=     0.031 Goal=   None    Shift=    0.400
 RMSDP=1.33D-04 MaxDP=2.02D-02 DE=-1.73D-04 OVMax= 3.25D-02

 Cycle  15  Pass 1  IDiag  1:
 E= -102.003165153371     Delta-E=       -0.000351732551 Rises=F Damp=F
 DIIS: error= 6.10D-03 at cycle  15 NSaved=  15.
 NSaved=15 IEnMin=15 EnMin= -102.003165153371     IErMin= 5 ErrMin= 3.20D-03
 ErrMax= 6.10D-03  0.00D+00 EMaxC= 1.00D-01 BMatC= 1.47D-03 BMatP= 3.92D-04
 IDIUse=3 WtCom= 9.68D-01 WtEn= 3.20D-02
 Coeff-Com: -0.145D+01 0.166D+01-0.259D+00-0.478D-01 0.112D+00-0.912D+00
 Coeff-Com:  0.263D+01-0.123D+01-0.955D+00 0.467D+00-0.141D+00 0.682D+00
 Coeff-Com: -0.184D+01 0.464D+00 0.183D+01
 Coeff-En:   0.000D+00 0.000D+00 0.000D+00 0.000D+00 0.000D+00 0.000D+00
 Coeff-En:   0.000D+00 0.000D+00 0.000D+00 0.000D+00 0.000D+00 0.000D+00
 Coeff-En:   0.000D+00 0.000D+00 0.100D+01
 Coeff:     -0.140D+01 0.160D+01-0.250D+00-0.462D-01 0.109D+00-0.883D+00
 Coeff:      0.255D+01-0.119D+01-0.925D+00 0.452D+00-0.136D+00 0.660D+00
 Coeff:     -0.178D+01 0.449D+00 0.180D+01
 Gap=     0.034 Goal=   None    Shift=    0.400
 RMSDP=5.39D-05 MaxDP=6.72D-03 DE=-3.52D-04 OVMax= 1.37D-02

 Cycle  16  Pass 1  IDiag  1:
 E= -102.003691633874     Delta-E=       -0.000526480503 Rises=F Damp=F
 DIIS: error= 4.94D-03 at cycle  16 NSaved=  16.
 NSaved=16 IEnMin=16 EnMin= -102.003691633874     IErMin= 5 ErrMin= 3.20D-03
 ErrMax= 4.94D-03  0.00D+00 EMaxC= 1.00D-01 BMatC= 1.13D-03 BMatP= 3.92D-04
 IDIUse=3 WtCom= 9.68D-01 WtEn= 3.20D-02
 Coeff-Com: -0.140D+01 0.160D+01-0.253D+00-0.448D-01 0.492D-01-0.372D+00
 Coeff-Com:  0.119D+01-0.199D+00-0.632D+00 0.225D+00-0.699D+00 0.960D+00
 Coeff-Com: -0.948D+00-0.442D+00 0.896D+00 0.108D+01
 Coeff-En:   0.000D+00 0.000D+00 0.000D+00 0.000D+00 0.000D+00 0.000D+00
 Coeff-En:   0.000D+00 0.000D+00 0.000D+00 0.000D+00 0.000D+00 0.000D+00
 Coeff-En:   0.000D+00 0.000D+00 0.000D+00 0.100D+01
 Coeff:     -0.135D+01 0.155D+01-0.245D+00-0.434D-01 0.476D-01-0.360D+00
 Coeff:      0.115D+01-0.193D+00-0.612D+00 0.218D+00-0.676D+00 0.929D+00
 Coeff:     -0.918D+00-0.428D+00 0.867D+00 0.107D+01
 Gap=     0.033 Goal=   None    Shift=    0.400
 RMSDP=5.53D-05 MaxDP=7.21D-03 DE=-5.26D-04 OVMax= 1.52D-02

 Cycle  17  Pass 1  IDiag  1:
 E= -102.004283524289     Delta-E=       -0.000591890416 Rises=F Damp=F
 DIIS: error= 4.79D-03 at cycle  17 NSaved=  17.
 NSaved=17 IEnMin=17 EnMin= -102.004283524289     IErMin= 5 ErrMin= 3.20D-03
 ErrMax= 4.79D-03  0.00D+00 EMaxC= 1.00D-01 BMatC= 1.06D-03 BMatP= 3.92D-04
 IDIUse=3 WtCom= 9.68D-01 WtEn= 3.20D-02
 Coeff-Com: -0.130D+01 0.149D+01-0.238D+00-0.402D-01 0.160D+00-0.165D+00
 Coeff-Com:  0.658D+00-0.589D+00-0.346D-01-0.174D+00-0.222D+00 0.700D+00
 Coeff-Com: -0.283D+00-0.471D-01 0.649D+00-0.271D+01 0.315D+01
 Coeff-En:   0.000D+00 0.000D+00 0.000D+00 0.000D+00 0.000D+00 0.000D+00
 Coeff-En:   0.000D+00 0.000D+00 0.000D+00 0.000D+00 0.000D+00 0.000D+00
 Coeff-En:   0.000D+00 0.000D+00 0.000D+00 0.000D+00 0.100D+01
 Coeff:     -0.126D+01 0.144D+01-0.231D+00-0.389D-01 0.155D+00-0.160D+00
 Coeff:      0.637D+00-0.570D+00-0.335D-01-0.169D+00-0.215D+00 0.677D+00
 Coeff:     -0.274D+00-0.456D-01 0.628D+00-0.262D+01 0.308D+01
 Gap=     0.030 Goal=   None    Shift=    0.400
 RMSDP=8.38D-05 MaxDP=1.09D-02 DE=-5.92D-04 OVMax= 1.99D-02

 Cycle  18  Pass 1  IDiag  1:
 E= -102.005207636711     Delta-E=       -0.000924112422 Rises=F Damp=F
 DIIS: error= 4.93D-03 at cycle  18 NSaved=  18.
 NSaved=18 IEnMin=18 EnMin= -102.005207636711     IErMin= 5 ErrMin= 3.20D-03
 ErrMax= 4.93D-03  0.00D+00 EMaxC= 1.00D-01 BMatC= 1.03D-03 BMatP= 3.92D-04
 IDIUse=3 WtCom= 9.68D-01 WtEn= 3.20D-02
 Coeff-Com: -0.869D+00 0.993D+00-0.185D+00-0.431D-01 0.324D+00 0.203D+00
 Coeff-Com: -0.136D+01 0.710D+00 0.168D+01-0.194D+01-0.150D+00 0.238D+00
 Coeff-Com:  0.101D+01 0.624D+00 0.139D+00-0.318D+01-0.120D+01 0.401D+01
 Coeff-En:   0.000D+00 0.000D+00 0.000D+00 0.000D+00 0.000D+00 0.000D+00
 Coeff-En:   0.000D+00 0.000D+00 0.000D+00 0.000D+00 0.000D+00 0.000D+00
 Coeff-En:   0.000D+00 0.000D+00 0.000D+00 0.000D+00 0.000D+00 0.100D+01
 Coeff:     -0.841D+00 0.961D+00-0.180D+00-0.417D-01 0.313D+00 0.197D+00
 Coeff:     -0.131D+01 0.687D+00 0.162D+01-0.188D+01-0.145D+00 0.230D+00
 Coeff:      0.973D+00 0.604D+00 0.135D+00-0.308D+01-0.116D+01 0.391D+01
 Gap=     0.030 Goal=   None    Shift=    0.400
 RMSDP=6.63D-05 MaxDP=4.46D-03 DE=-9.24D-04 OVMax= 1.00D-02

 Cycle  19  Pass 1  IDiag  1:
 E= -102.006559011459     Delta-E=       -0.001351374748 Rises=F Damp=F
 DIIS: error= 3.91D-03 at cycle  19 NSaved=  19.
 NSaved=19 IEnMin=19 EnMin= -102.006559011459     IErMin= 5 ErrMin= 3.20D-03
 ErrMax= 3.91D-03  0.00D+00 EMaxC= 1.00D-01 BMatC= 7.15D-04 BMatP= 3.92D-04
 IDIUse=3 WtCom= 9.68D-01 WtEn= 3.20D-02
 Coeff-Com: -0.857D+00 0.980D+00-0.185D+00-0.411D-01 0.319D+00 0.198D+00
 Coeff-Com: -0.118D+01 0.425D+00 0.188D+01-0.195D+01-0.295D+00 0.243D+00
 Coeff-Com:  0.881D+00 0.405D+00 0.903D+00-0.309D+01-0.110D+01 0.288D+01
 Coeff-Com:  0.587D+00
 Coeff-En:   0.000D+00 0.000D+00 0.000D+00 0.000D+00 0.000D+00 0.000D+00
 Coeff-En:   0.000D+00 0.000D+00 0.000D+00 0.000D+00 0.000D+00 0.000D+00
 Coeff-En:   0.000D+00 0.000D+00 0.000D+00 0.000D+00 0.000D+00 0.000D+00
 Coeff-En:   0.100D+01
 Coeff:     -0.830D+00 0.948D+00-0.179D+00-0.398D-01 0.308D+00 0.192D+00
 Coeff:     -0.115D+01 0.411D+00 0.182D+01-0.189D+01-0.285D+00 0.236D+00
 Coeff:      0.853D+00 0.392D+00 0.874D+00-0.299D+01-0.106D+01 0.279D+01
 Coeff:      0.600D+00
 Gap=     0.030 Goal=   None    Shift=    0.400
 RMSDP=3.20D-05 MaxDP=2.74D-03 DE=-1.35D-03 OVMax= 8.08D-03

 Cycle  20  Pass 1  IDiag  1:
 E= -102.006873249468     Delta-E=       -0.000314238009 Rises=F Damp=F
 DIIS: error= 3.11D-03 at cycle  20 NSaved=  20.
 NSaved=20 IEnMin=20 EnMin= -102.006873249468     IErMin=20 ErrMin= 3.11D-03
 ErrMax= 3.11D-03  0.00D+00 EMaxC= 1.00D-01 BMatC= 4.99D-04 BMatP= 3.92D-04
 IDIUse=3 WtCom= 9.68D-01 WtEn= 3.20D-02
 Coeff-Com: -0.589D+00 0.673D+00-0.126D+00 0.507D-01 0.237D+00-0.523D+00
 Coeff-Com:  0.598D+00-0.343D+00 0.282D+00-0.209D+00 0.110D+00-0.464D+00
 Coeff-Com: -0.584D+00 0.118D+01 0.880D+00-0.323D+00-0.352D+01 0.274D+01
 Coeff-Com: -0.225D+01 0.318D+01
 Coeff-En:   0.000D+00 0.000D+00 0.000D+00 0.000D+00 0.000D+00 0.000D+00
 Coeff-En:   0.000D+00 0.000D+00 0.000D+00 0.000D+00 0.000D+00 0.000D+00
 Coeff-En:   0.000D+00 0.000D+00 0.000D+00 0.000D+00 0.000D+00 0.000D+00
 Coeff-En:   0.000D+00 0.100D+01
 Coeff:     -0.571D+00 0.652D+00-0.122D+00 0.491D-01 0.229D+00-0.506D+00
 Coeff:      0.579D+00-0.332D+00 0.273D+00-0.202D+00 0.106D+00-0.449D+00
 Coeff:     -0.566D+00 0.114D+01 0.852D+00-0.313D+00-0.340D+01 0.265D+01
 Coeff:     -0.218D+01 0.311D+01
 Gap=     0.028 Goal=   None    Shift=    0.400
 RMSDP=6.50D-05 MaxDP=5.34D-03 DE=-3.14D-04 OVMax= 8.26D-03

 Cycle  21  Pass 1  IDiag  1:
 E= -102.007513984636     Delta-E=       -0.000640735168 Rises=F Damp=F
 DIIS: error= 3.32D-03 at cycle  21 NSaved=  20.
 NSaved=20 IEnMin=20 EnMin= -102.007513984636     IErMin=19 ErrMin= 3.11D-03
 ErrMax= 3.32D-03  0.00D+00 EMaxC= 1.00D-01 BMatC= 5.27D-04 BMatP= 3.92D-04
 IDIUse=3 WtCom= 9.68D-01 WtEn= 3.20D-02
 Coeff-Com: -0.430D-04-0.942D-02 0.501D-01 0.175D+00-0.619D+00 0.267D+00
 Coeff-Com:  0.697D+00-0.280D+00-0.201D+00 0.469D+00-0.449D+00-0.954D+00
 Coeff-Com:  0.703D+00-0.202D-01 0.251D+01-0.613D+01 0.471D+01-0.548D+01
 Coeff-Com:  0.358D+01 0.197D+01
 Coeff-En:   0.000D+00 0.000D+00 0.000D+00 0.000D+00 0.000D+00 0.000D+00
 Coeff-En:   0.000D+00 0.000D+00 0.000D+00 0.000D+00 0.000D+00 0.000D+00
 Coeff-En:   0.000D+00 0.000D+00 0.000D+00 0.000D+00 0.000D+00 0.000D+00
 Coeff-En:   0.000D+00 0.100D+01
 Coeff:     -0.416D-04-0.912D-02 0.485D-01 0.169D+00-0.599D+00 0.259D+00
 Coeff:      0.675D+00-0.271D+00-0.194D+00 0.454D+00-0.435D+00-0.923D+00
 Coeff:      0.681D+00-0.196D-01 0.243D+01-0.593D+01 0.456D+01-0.531D+01
 Coeff:      0.347D+01 0.194D+01
 Gap=     0.026 Goal=   None    Shift=    0.400
 RMSDP=8.97D-05 MaxDP=4.86D-03 DE=-6.41D-04 OVMax= 9.71D-03

 Cycle  22  Pass 1  IDiag  1:
 E= -102.007918906200     Delta-E=       -0.000404921564 Rises=F Damp=F
 DIIS: error= 2.88D-03 at cycle  22 NSaved=  20.
 NSaved=20 IEnMin=20 EnMin= -102.007918906200     IErMin=20 ErrMin= 2.88D-03
 ErrMax= 2.88D-03  0.00D+00 EMaxC= 1.00D-01 BMatC= 5.29D-04 BMatP= 3.92D-04
 IDIUse=3 WtCom= 9.68D-01 WtEn= 3.20D-02
 Coeff-Com: -0.116D-01 0.561D-01 0.195D+00-0.656D+00 0.169D+00 0.835D+00
 Coeff-Com: -0.224D+00-0.326D+00 0.439D+00-0.359D+00-0.981D+00 0.705D+00
 Coeff-Com:  0.864D-01 0.223D+01-0.591D+01 0.482D+01-0.562D+01 0.373D+01
 Coeff-Com:  0.163D+01 0.191D+00
 Coeff-En:   0.000D+00 0.000D+00 0.000D+00 0.000D+00 0.000D+00 0.000D+00
 Coeff-En:   0.000D+00 0.000D+00 0.000D+00 0.000D+00 0.000D+00 0.000D+00
 Coeff-En:   0.000D+00 0.000D+00 0.000D+00 0.000D+00 0.000D+00 0.000D+00
 Coeff-En:   0.000D+00 0.100D+01
 Coeff:     -0.112D-01 0.543D-01 0.189D+00-0.635D+00 0.164D+00 0.808D+00
 Coeff:     -0.216D+00-0.316D+00 0.425D+00-0.348D+00-0.950D+00 0.683D+00
 Coeff:      0.836D-01 0.215D+01-0.572D+01 0.467D+01-0.544D+01 0.362D+01
 Coeff:      0.157D+01 0.217D+00
 Gap=     0.026 Goal=   None    Shift=    0.400
 RMSDP=3.62D-05 MaxDP=4.36D-03 DE=-4.05D-04 OVMax= 6.23D-03

 Cycle  23  Pass 1  IDiag  1:
 E= -102.008092256617     Delta-E=       -0.000173350416 Rises=F Damp=F
 DIIS: error= 2.68D-03 at cycle  23 NSaved=  20.
 NSaved=20 IEnMin=20 EnMin= -102.008092256617     IErMin=20 ErrMin= 2.68D-03
 ErrMax= 2.68D-03  0.00D+00 EMaxC= 1.00D-01 BMatC= 3.67D-04 BMatP= 3.92D-04
 IDIUse=3 WtCom= 9.73D-01 WtEn= 2.68D-02
 Coeff-Com:  0.622D-01 0.176D+00-0.716D+00 0.233D+00 0.728D+00-0.186D+00
 Coeff-Com: -0.247D+00 0.516D+00-0.473D+00-0.100D+01 0.745D+00-0.477D-01
 Coeff-Com:  0.289D+01-0.654D+01 0.543D+01-0.718D+01 0.473D+01 0.132D+01
 Coeff-Com:  0.135D+01-0.794D+00
 Coeff-En:   0.000D+00 0.000D+00 0.000D+00 0.000D+00 0.000D+00 0.000D+00
 Coeff-En:   0.000D+00 0.000D+00 0.000D+00 0.000D+00 0.000D+00 0.000D+00
 Coeff-En:   0.000D+00 0.000D+00 0.000D+00 0.000D+00 0.000D+00 0.000D+00
 Coeff-En:   0.000D+00 0.100D+01
 Coeff:      0.606D-01 0.171D+00-0.697D+00 0.227D+00 0.709D+00-0.181D+00
 Coeff:     -0.240D+00 0.502D+00-0.460D+00-0.973D+00 0.725D+00-0.464D-01
 Coeff:      0.281D+01-0.637D+01 0.528D+01-0.699D+01 0.461D+01 0.129D+01
 Coeff:      0.132D+01-0.746D+00
 Gap=     0.025 Goal=   None    Shift=    0.400
 RMSDP=2.72D-05 MaxDP=3.57D-03 DE=-1.73D-04 OVMax= 5.35D-03

 Cycle  24  Pass 1  IDiag  1:
 E= -102.008206937232     Delta-E=       -0.000114680615 Rises=F Damp=F
 DIIS: error= 2.57D-03 at cycle  24 NSaved=  20.
 NSaved=20 IEnMin=20 EnMin= -102.008206937232     IErMin=20 ErrMin= 2.57D-03
 ErrMax= 2.57D-03  0.00D+00 EMaxC= 1.00D-01 BMatC= 3.13D-04 BMatP= 3.67D-04
 IDIUse=3 WtCom= 9.74D-01 WtEn= 2.57D-02
 Coeff-Com: -0.350D-02 0.125D+00-0.308D+00 0.373D+00-0.148D+00 0.691D-02
 Coeff-Com:  0.203D+00 0.242D-01-0.102D+01 0.142D+00 0.400D+00 0.240D+01
 Coeff-Com: -0.478D+01 0.398D+01-0.763D+01 0.699D+01-0.164D+01 0.592D+01
 Coeff-Com: -0.846D+01 0.443D+01
 Coeff-En:   0.000D+00 0.000D+00 0.000D+00 0.000D+00 0.000D+00 0.000D+00
 Coeff-En:   0.000D+00 0.000D+00 0.000D+00 0.000D+00 0.000D+00 0.000D+00
 Coeff-En:   0.000D+00 0.000D+00 0.000D+00 0.000D+00 0.000D+00 0.000D+00
 Coeff-En:   0.000D+00 0.100D+01
 Coeff:     -0.341D-02 0.121D+00-0.300D+00 0.363D+00-0.145D+00 0.673D-02
 Coeff:      0.198D+00 0.235D-01-0.995D+00 0.139D+00 0.390D+00 0.234D+01
 Coeff:     -0.466D+01 0.388D+01-0.743D+01 0.681D+01-0.160D+01 0.577D+01
 Coeff:     -0.825D+01 0.434D+01
 Gap=     0.022 Goal=   None    Shift=    0.400
 RMSDP=4.76D-05 MaxDP=5.76D-03 DE=-1.15D-04 OVMax= 1.02D-02

 Cycle  25  Pass 1  IDiag  1:
 E= -102.008353777350     Delta-E=       -0.000146840118 Rises=F Damp=F
 DIIS: error= 2.48D-03 at cycle  25 NSaved=  20.
 NSaved=20 IEnMin=20 EnMin= -102.008353777350     IErMin=20 ErrMin= 2.48D-03
 ErrMax= 2.48D-03  0.00D+00 EMaxC= 1.00D-01 BMatC= 3.22D-04 BMatP= 3.13D-04
 IDIUse=3 WtCom= 9.75D-01 WtEn= 2.48D-02
 Coeff-Com:  0.679D+00-0.141D+01 0.925D+00-0.224D-01-0.180D+00-0.230D-01
 Coeff-Com:  0.347D+00-0.112D+01 0.653D+00 0.410D-01 0.162D+01-0.318D+01
 Coeff-Com:  0.324D+01-0.785D+01 0.773D+01-0.292D+01 0.685D+01-0.803D+01
 Coeff-Com:  0.173D+01 0.193D+01
 Coeff-En:   0.000D+00 0.000D+00 0.000D+00 0.000D+00 0.000D+00 0.000D+00
 Coeff-En:   0.000D+00 0.000D+00 0.000D+00 0.000D+00 0.000D+00 0.000D+00
 Coeff-En:   0.000D+00 0.000D+00 0.000D+00 0.000D+00 0.000D+00 0.000D+00
 Coeff-En:   0.000D+00 0.100D+01
 Coeff:      0.662D+00-0.137D+01 0.902D+00-0.218D-01-0.176D+00-0.225D-01
 Coeff:      0.338D+00-0.109D+01 0.636D+00 0.399D-01 0.158D+01-0.310D+01
 Coeff:      0.316D+01-0.765D+01 0.754D+01-0.285D+01 0.668D+01-0.783D+01
 Coeff:      0.169D+01 0.191D+01
 Gap=     0.023 Goal=   None    Shift=    0.400
 RMSDP=2.58D-05 MaxDP=2.10D-03 DE=-1.47D-04 OVMax= 6.78D-03

 Cycle  26  Pass 1  IDiag  1:
 E= -102.008535212441     Delta-E=       -0.000181435091 Rises=F Damp=F
 DIIS: error= 2.04D-03 at cycle  26 NSaved=  20.
 NSaved=20 IEnMin=20 EnMin= -102.008535212441     IErMin=20 ErrMin= 2.04D-03
 ErrMax= 2.04D-03  0.00D+00 EMaxC= 1.00D-01 BMatC= 2.16D-04 BMatP= 3.13D-04
 IDIUse=3 WtCom= 9.80D-01 WtEn= 2.04D-02
 Coeff-Com:  0.153D+00-0.191D+00-0.868D-01 0.236D+00-0.100D+00 0.343D+00
 Coeff-Com: -0.135D+01 0.571D+00 0.122D+01-0.879D+00-0.166D+00 0.173D+01
 Coeff-Com: -0.653D+01 0.621D+01-0.290D+01 0.583D+01-0.493D+01 0.399D+00
 Coeff-Com: -0.123D+01 0.267D+01
 Coeff-En:   0.000D+00 0.000D+00 0.000D+00 0.000D+00 0.000D+00 0.000D+00
 Coeff-En:   0.000D+00 0.000D+00 0.000D+00 0.000D+00 0.000D+00 0.000D+00
 Coeff-En:   0.000D+00 0.000D+00 0.000D+00 0.000D+00 0.000D+00 0.000D+00
 Coeff-En:   0.000D+00 0.100D+01
 Coeff:      0.149D+00-0.188D+00-0.850D-01 0.231D+00-0.984D-01 0.336D+00
 Coeff:     -0.132D+01 0.559D+00 0.119D+01-0.861D+00-0.163D+00 0.170D+01
 Coeff:     -0.640D+01 0.608D+01-0.284D+01 0.571D+01-0.483D+01 0.391D+00
 Coeff:     -0.120D+01 0.264D+01
 Gap=     0.022 Goal=   None    Shift=    0.400
 RMSDP=3.38D-05 MaxDP=2.44D-03 DE=-1.81D-04 OVMax= 8.07D-03

 Cycle  27  Pass 1  IDiag  1:
 E= -102.008662410358     Delta-E=       -0.000127197917 Rises=F Damp=F
 DIIS: error= 1.81D-03 at cycle  27 NSaved=  20.
 NSaved=20 IEnMin=20 EnMin= -102.008662410358     IErMin=20 ErrMin= 1.81D-03
 ErrMax= 1.81D-03  0.00D+00 EMaxC= 1.00D-01 BMatC= 1.91D-04 BMatP= 2.16D-04
 IDIUse=3 WtCom= 9.82D-01 WtEn= 1.81D-02
 Coeff-Com: -0.117D+00 0.873D-01 0.128D-01 0.868D-01 0.208D+00-0.845D+00
 Coeff-Com:  0.138D+00 0.984D+00-0.261D+00-0.107D+01 0.176D+01-0.484D+01
 Coeff-Com:  0.488D+01-0.223D+01 0.386D+01-0.287D+01 0.102D+01-0.176D+01
 Coeff-Com: -0.188D+00 0.215D+01
 Coeff-En:   0.000D+00 0.000D+00 0.000D+00 0.000D+00 0.000D+00 0.000D+00
 Coeff-En:   0.000D+00 0.000D+00 0.000D+00 0.000D+00 0.000D+00 0.000D+00
 Coeff-En:   0.000D+00 0.000D+00 0.000D+00 0.000D+00 0.000D+00 0.000D+00
 Coeff-En:   0.000D+00 0.100D+01
 Coeff:     -0.115D+00 0.857D-01 0.126D-01 0.852D-01 0.204D+00-0.829D+00
 Coeff:      0.136D+00 0.966D+00-0.256D+00-0.105D+01 0.173D+01-0.476D+01
 Coeff:      0.479D+01-0.219D+01 0.379D+01-0.282D+01 0.100D+01-0.173D+01
 Coeff:     -0.185D+00 0.213D+01
 Gap=     0.023 Goal=   None    Shift=    0.400
 RMSDP=3.08D-05 MaxDP=2.44D-03 DE=-1.27D-04 OVMax= 8.41D-03

 Cycle  28  Pass 1  IDiag  1:
 E= -102.008778909908     Delta-E=       -0.000116499550 Rises=F Damp=F
 DIIS: error= 1.47D-03 at cycle  28 NSaved=  20.
 NSaved=20 IEnMin=20 EnMin= -102.008778909908     IErMin=20 ErrMin= 1.47D-03
 ErrMax= 1.47D-03  0.00D+00 EMaxC= 1.00D-01 BMatC= 1.36D-04 BMatP= 1.91D-04
 IDIUse=3 WtCom= 9.85D-01 WtEn= 1.47D-02
 Coeff-Com: -0.108D+00 0.169D+00-0.193D-01 0.221D+00-0.550D+00 0.610D-02
 Coeff-Com:  0.715D-01 0.132D+01-0.141D+01 0.812D+00-0.393D+01 0.328D+01
 Coeff-Com: -0.689D-01 0.239D+01-0.239D+01 0.655D+00-0.213D+00-0.162D+00
 Coeff-Com: -0.156D+01 0.249D+01
 Coeff-En:   0.000D+00 0.000D+00 0.000D+00 0.000D+00 0.000D+00 0.000D+00
 Coeff-En:   0.000D+00 0.000D+00 0.000D+00 0.000D+00 0.000D+00 0.000D+00
 Coeff-En:   0.000D+00 0.000D+00 0.000D+00 0.000D+00 0.000D+00 0.000D+00
 Coeff-En:   0.000D+00 0.100D+01
 Coeff:     -0.107D+00 0.166D+00-0.190D-01 0.218D+00-0.542D+00 0.601D-02
 Coeff:      0.704D-01 0.130D+01-0.139D+01 0.800D+00-0.387D+01 0.324D+01
 Coeff:     -0.679D-01 0.235D+01-0.235D+01 0.645D+00-0.210D+00-0.159D+00
 Coeff:     -0.154D+01 0.247D+01
 Gap=     0.025 Goal=   None    Shift=    0.400
 RMSDP=2.18D-05 MaxDP=1.04D-03 DE=-1.16D-04 OVMax= 4.70D-03

 Cycle  29  Pass 1  IDiag  1:
 E= -102.008879423385     Delta-E=       -0.000100513476 Rises=F Damp=F
 DIIS: error= 9.99D-04 at cycle  29 NSaved=  20.
 NSaved=20 IEnMin=20 EnMin= -102.008879423385     IErMin=20 ErrMin= 9.99D-04
 ErrMax= 9.99D-04  0.00D+00 EMaxC= 1.00D-01 BMatC= 5.48D-05 BMatP= 1.36D-04
 IDIUse=3 WtCom= 9.90D-01 WtEn= 9.99D-03
 Coeff-Com:  0.227D-01-0.850D-01 0.266D+00-0.339D+00-0.192D-01 0.144D+00
 Coeff-Com:  0.426D+00-0.723D+00 0.966D+00-0.340D+01 0.246D+01 0.159D-01
 Coeff-Com:  0.225D+01-0.223D+01 0.617D+00-0.335D+00 0.319D+00-0.156D+01
 Coeff-Com:  0.124D+01 0.960D+00
 Coeff-En:   0.000D+00 0.000D+00 0.000D+00 0.000D+00 0.000D+00 0.000D+00
 Coeff-En:   0.000D+00 0.000D+00 0.000D+00 0.000D+00 0.000D+00 0.000D+00
 Coeff-En:   0.000D+00 0.000D+00 0.000D+00 0.000D+00 0.000D+00 0.000D+00
 Coeff-En:   0.000D+00 0.100D+01
 Coeff:      0.225D-01-0.842D-01 0.263D+00-0.336D+00-0.190D-01 0.143D+00
 Coeff:      0.422D+00-0.716D+00 0.956D+00-0.336D+01 0.244D+01 0.158D-01
 Coeff:      0.223D+01-0.221D+01 0.611D+00-0.332D+00 0.316D+00-0.154D+01
 Coeff:      0.122D+01 0.961D+00
 Gap=     0.025 Goal=   None    Shift=    0.400
 RMSDP=1.35D-05 MaxDP=8.55D-04 DE=-1.01D-04 OVMax= 3.62D-03

 Cycle  30  Pass 1  IDiag  1:
 E= -102.008923745136     Delta-E=       -0.000044321752 Rises=F Damp=F
 DIIS: error= 7.41D-04 at cycle  30 NSaved=  20.
 NSaved=20 IEnMin=20 EnMin= -102.008923745136     IErMin=20 ErrMin= 7.41D-04
 ErrMax= 7.41D-04  0.00D+00 EMaxC= 1.00D-01 BMatC= 2.92D-05 BMatP= 5.48D-05
 IDIUse=3 WtCom= 9.93D-01 WtEn= 7.41D-03
 Coeff-Com:  0.621D-01 0.639D-01-0.424D+00 0.183D+00 0.289D+00-0.136D-01
 Coeff-Com: -0.560D+00 0.497D+00-0.529D+00 0.197D+00 0.341D+00-0.105D+00
 Coeff-Com:  0.383D+00 0.661D-01-0.733D+00 0.539D+00-0.103D+01 0.189D+01
 Coeff-Com: -0.431D+01 0.419D+01
 Coeff-En:   0.000D+00 0.000D+00 0.000D+00 0.000D+00 0.000D+00 0.000D+00
 Coeff-En:   0.000D+00 0.000D+00 0.000D+00 0.000D+00 0.000D+00 0.000D+00
 Coeff-En:   0.000D+00 0.000D+00 0.000D+00 0.000D+00 0.000D+00 0.000D+00
 Coeff-En:   0.000D+00 0.100D+01
 Coeff:      0.616D-01 0.634D-01-0.420D+00 0.182D+00 0.287D+00-0.135D-01
 Coeff:     -0.556D+00 0.493D+00-0.525D+00 0.195D+00 0.338D+00-0.104D+00
 Coeff:      0.380D+00 0.656D-01-0.727D+00 0.535D+00-0.102D+01 0.188D+01
 Coeff:     -0.427D+01 0.417D+01
 Gap=     0.026 Goal=   None    Shift=    0.400
 RMSDP=1.20D-05 MaxDP=8.30D-04 DE=-4.43D-05 OVMax= 2.41D-03

 Cycle  31  Pass 1  IDiag  1:
 E= -102.008942650114     Delta-E=       -0.000018904977 Rises=F Damp=F
 DIIS: error= 6.15D-04 at cycle  31 NSaved=  20.
 NSaved=20 IEnMin=20 EnMin= -102.008942650114     IErMin=20 ErrMin= 6.15D-04
 ErrMax= 6.15D-04  0.00D+00 EMaxC= 1.00D-01 BMatC= 1.99D-05 BMatP= 2.92D-05
 IDIUse=3 WtCom= 9.94D-01 WtEn= 6.15D-03
 Coeff-Com:  0.129D+00-0.435D+00 0.216D+00 0.307D+00-0.189D+00-0.322D+00
 Coeff-Com:  0.375D+00-0.447D+00 0.275D+00 0.110D+00 0.418D-01 0.173D+00
 Coeff-Com:  0.102D+00-0.619D+00 0.523D+00-0.856D+00 0.173D+01-0.423D+01
 Coeff-Com:  0.360D+01 0.518D+00
 Coeff-En:   0.000D+00 0.000D+00 0.000D+00 0.000D+00 0.000D+00 0.000D+00
 Coeff-En:   0.000D+00 0.000D+00 0.000D+00 0.000D+00 0.000D+00 0.000D+00
 Coeff-En:   0.000D+00 0.000D+00 0.000D+00 0.000D+00 0.000D+00 0.000D+00
 Coeff-En:   0.000D+00 0.100D+01
 Coeff:      0.128D+00-0.432D+00 0.214D+00 0.305D+00-0.188D+00-0.320D+00
 Coeff:      0.372D+00-0.445D+00 0.273D+00 0.109D+00 0.416D-01 0.172D+00
 Coeff:      0.101D+00-0.615D+00 0.519D+00-0.850D+00 0.172D+01-0.420D+01
 Coeff:      0.358D+01 0.521D+00
 Gap=     0.025 Goal=   None    Shift=    0.400
 RMSDP=8.45D-06 MaxDP=6.08D-04 DE=-1.89D-05 OVMax= 2.54D-03

 Cycle  32  Pass 1  IDiag  1:
 E= -102.008956401669     Delta-E=       -0.000013751556 Rises=F Damp=F
 DIIS: error= 4.99D-04 at cycle  32 NSaved=  20.
 NSaved=20 IEnMin=20 EnMin= -102.008956401669     IErMin=20 ErrMin= 4.99D-04
 ErrMax= 4.99D-04  0.00D+00 EMaxC= 1.00D-01 BMatC= 1.45D-05 BMatP= 1.99D-05
 IDIUse=3 WtCom= 9.95D-01 WtEn= 4.99D-03
 Coeff-Com: -0.182D+00 0.253D+00 0.492D-01-0.166D+00-0.214D+00 0.200D+00
 Coeff-Com: -0.123D+00 0.792D-02 0.343D+00-0.208D+00 0.178D+00 0.199D+00
 Coeff-Com: -0.498D+00 0.385D+00-0.771D+00 0.143D+01-0.342D+01 0.299D+01
 Coeff-Com: -0.795D+00 0.135D+01
 Coeff-En:   0.000D+00 0.000D+00 0.000D+00 0.000D+00 0.000D+00 0.000D+00
 Coeff-En:   0.000D+00 0.000D+00 0.000D+00 0.000D+00 0.000D+00 0.000D+00
 Coeff-En:   0.000D+00 0.000D+00 0.000D+00 0.000D+00 0.000D+00 0.000D+00
 Coeff-En:   0.000D+00 0.100D+01
 Coeff:     -0.181D+00 0.252D+00 0.489D-01-0.165D+00-0.213D+00 0.199D+00
 Coeff:     -0.123D+00 0.788D-02 0.341D+00-0.207D+00 0.177D+00 0.198D+00
 Coeff:     -0.496D+00 0.383D+00-0.767D+00 0.142D+01-0.340D+01 0.297D+01
 Coeff:     -0.791D+00 0.135D+01
 Gap=     0.026 Goal=   None    Shift=    0.400
 RMSDP=5.71D-06 MaxDP=3.16D-04 DE=-1.38D-05 OVMax= 2.06D-03

 Cycle  33  Pass 1  IDiag  1:
 E= -102.008965858873     Delta-E=       -0.000009457204 Rises=F Damp=F
 DIIS: error= 4.14D-04 at cycle  33 NSaved=  20.
 NSaved=20 IEnMin=20 EnMin= -102.008965858873     IErMin=20 ErrMin= 4.14D-04
 ErrMax= 4.14D-04  0.00D+00 EMaxC= 1.00D-01 BMatC= 1.06D-05 BMatP= 1.45D-05
 IDIUse=3 WtCom= 9.96D-01 WtEn= 4.14D-03
 Coeff-Com:  0.271D-01-0.492D-01-0.381D+00 0.463D+00 0.113D-01-0.320D+00
 Coeff-Com:  0.394D+00-0.218D+00 0.310D+00-0.387D+00 0.363D+00-0.348D+00
 Coeff-Com:  0.201D+00-0.220D+00 0.832D+00-0.174D+01 0.180D+01-0.169D+01
 Coeff-Com: -0.130D+01 0.326D+01
 Coeff-En:   0.000D+00 0.000D+00 0.000D+00 0.000D+00 0.000D+00 0.000D+00
 Coeff-En:   0.000D+00 0.000D+00 0.000D+00 0.000D+00 0.000D+00 0.000D+00
 Coeff-En:   0.000D+00 0.000D+00 0.000D+00 0.000D+00 0.000D+00 0.000D+00
 Coeff-En:   0.000D+00 0.100D+01
 Coeff:      0.270D-01-0.490D-01-0.380D+00 0.461D+00 0.112D-01-0.319D+00
 Coeff:      0.392D+00-0.217D+00 0.309D+00-0.386D+00 0.361D+00-0.347D+00
 Coeff:      0.200D+00-0.220D+00 0.829D+00-0.173D+01 0.179D+01-0.169D+01
 Coeff:     -0.129D+01 0.325D+01
 Gap=     0.026 Goal=   None    Shift=    0.400
 RMSDP=5.88D-06 MaxDP=4.54D-04 DE=-9.46D-06 OVMax= 1.42D-03

 Cycle  34  Pass 1  IDiag  1:
 E= -102.008973809908     Delta-E=       -0.000007951036 Rises=F Damp=F
 DIIS: error= 3.30D-04 at cycle  34 NSaved=  20.
 NSaved=20 IEnMin=20 EnMin= -102.008973809908     IErMin=20 ErrMin= 3.30D-04
 ErrMax= 3.30D-04  0.00D+00 EMaxC= 1.00D-01 BMatC= 7.00D-06 BMatP= 1.06D-05
 IDIUse=3 WtCom= 9.97D-01 WtEn= 3.30D-03
 Coeff-Com:  0.759D-01-0.387D+00 0.361D+00-0.523D-01-0.398D+00 0.602D+00
 Coeff-Com: -0.284D+00 0.403D+00-0.407D+00 0.117D+00 0.704D-02 0.900D-01
 Coeff-Com: -0.383D+00 0.701D+00-0.651D+00 0.624D+00 0.531D-01-0.317D+01
 Coeff-Com:  0.108D+01 0.262D+01
 Coeff-En:   0.000D+00 0.000D+00 0.000D+00 0.000D+00 0.000D+00 0.000D+00
 Coeff-En:   0.000D+00 0.000D+00 0.000D+00 0.000D+00 0.000D+00 0.000D+00
 Coeff-En:   0.000D+00 0.000D+00 0.000D+00 0.000D+00 0.000D+00 0.000D+00
 Coeff-En:   0.000D+00 0.100D+01
 Coeff:      0.757D-01-0.386D+00 0.360D+00-0.521D-01-0.397D+00 0.600D+00
 Coeff:     -0.283D+00 0.402D+00-0.405D+00 0.116D+00 0.701D-02 0.897D-01
 Coeff:     -0.382D+00 0.699D+00-0.648D+00 0.622D+00 0.530D-01-0.316D+01
 Coeff:      0.107D+01 0.262D+01
 Gap=     0.026 Goal=   None    Shift=    0.400
 RMSDP=4.98D-06 MaxDP=3.34D-04 DE=-7.95D-06 OVMax= 1.25D-03

 Cycle  35  Pass 1  IDiag  1:
 E= -102.008979074455     Delta-E=       -0.000005264547 Rises=F Damp=F
 DIIS: error= 2.83D-04 at cycle  35 NSaved=  20.
 NSaved=20 IEnMin=20 EnMin= -102.008979074455     IErMin=20 ErrMin= 2.83D-04
 ErrMax= 2.83D-04  0.00D+00 EMaxC= 1.00D-01 BMatC= 5.09D-06 BMatP= 7.00D-06
 IDIUse=3 WtCom= 9.97D-01 WtEn= 2.83D-03
 Coeff-Com:  0.289D-01-0.401D-01-0.262D-01-0.414D+00 0.461D+00 0.276D-01
 Coeff-Com:  0.752D-01 0.382D+00-0.718D+00 0.961D-01 0.183D+00-0.251D+00
 Coeff-Com:  0.643D+00-0.882D+00 0.334D+00 0.170D+01-0.298D+01 0.127D+01
 Coeff-Com: -0.250D+01 0.361D+01
 Coeff-En:   0.000D+00 0.000D+00 0.000D+00 0.000D+00 0.000D+00 0.000D+00
 Coeff-En:   0.000D+00 0.000D+00 0.000D+00 0.000D+00 0.000D+00 0.000D+00
 Coeff-En:   0.000D+00 0.000D+00 0.000D+00 0.000D+00 0.000D+00 0.000D+00
 Coeff-En:   0.000D+00 0.100D+01
 Coeff:      0.288D-01-0.400D-01-0.261D-01-0.413D+00 0.459D+00 0.275D-01
 Coeff:      0.750D-01 0.381D+00-0.716D+00 0.959D-01 0.182D+00-0.251D+00
 Coeff:      0.641D+00-0.880D+00 0.333D+00 0.169D+01-0.297D+01 0.126D+01
 Coeff:     -0.249D+01 0.360D+01
 Gap=     0.026 Goal=   None    Shift=    0.400
 RMSDP=4.59D-06 MaxDP=3.22D-04 DE=-5.26D-06 OVMax= 1.08D-03

 Cycle  36  Pass 1  IDiag  1:
 E= -102.008983119565     Delta-E=       -0.000004045110 Rises=F Damp=F
 DIIS: error= 2.28D-04 at cycle  36 NSaved=  20.
 NSaved=20 IEnMin=20 EnMin= -102.008983119565     IErMin=20 ErrMin= 2.28D-04
 ErrMax= 2.28D-04  0.00D+00 EMaxC= 1.00D-01 BMatC= 3.42D-06 BMatP= 5.09D-06
 IDIUse=3 WtCom= 9.98D-01 WtEn= 2.28D-03
 Coeff-Com:  0.112D-01-0.126D+00-0.474D-01 0.124D+00 0.153D+00-0.224D+00
 Coeff-Com:  0.640D+00-0.717D+00-0.208D-01 0.120D+00-0.478D-01 0.663D+00
 Coeff-Com: -0.114D+01 0.313D+00 0.223D+01-0.318D+01 0.175D+01-0.260D+01
 Coeff-Com:  0.751D+00 0.234D+01
 Coeff-En:   0.000D+00 0.000D+00 0.000D+00 0.000D+00 0.000D+00 0.000D+00
 Coeff-En:   0.000D+00 0.000D+00 0.000D+00 0.000D+00 0.000D+00 0.000D+00
 Coeff-En:   0.000D+00 0.000D+00 0.000D+00 0.000D+00 0.000D+00 0.000D+00
 Coeff-En:   0.000D+00 0.100D+01
 Coeff:      0.111D-01-0.125D+00-0.473D-01 0.124D+00 0.153D+00-0.223D+00
 Coeff:      0.639D+00-0.715D+00-0.207D-01 0.119D+00-0.477D-01 0.661D+00
 Coeff:     -0.114D+01 0.313D+00 0.222D+01-0.317D+01 0.175D+01-0.259D+01
 Coeff:      0.750D+00 0.234D+01
 Gap=     0.026 Goal=   None    Shift=    0.400
 RMSDP=3.41D-06 MaxDP=2.57D-04 DE=-4.05D-06 OVMax= 8.74D-04

 Cycle  37  Pass 1  IDiag  1:
 E= -102.008985531627     Delta-E=       -0.000002412063 Rises=F Damp=F
 DIIS: error= 1.94D-04 at cycle  37 NSaved=  20.
 NSaved=20 IEnMin=20 EnMin= -102.008985531627     IErMin=20 ErrMin= 1.94D-04
 ErrMax= 1.94D-04  0.00D+00 EMaxC= 1.00D-01 BMatC= 2.55D-06 BMatP= 3.42D-06
 IDIUse=3 WtCom= 9.98D-01 WtEn= 1.94D-03
 Coeff-Com: -0.162D+00 0.130D+00 0.116D-01 0.156D+00-0.239D+00 0.432D+00
 Coeff-Com: -0.465D+00-0.297D-01 0.963D-01-0.979D-01 0.722D+00-0.112D+01
 Coeff-Com:  0.224D+00 0.232D+01-0.343D+01 0.132D+01-0.785D+00-0.269D+00
 Coeff-Com:  0.468D+00 0.171D+01
 Coeff-En:   0.000D+00 0.000D+00 0.000D+00 0.000D+00 0.000D+00 0.000D+00
 Coeff-En:   0.000D+00 0.000D+00 0.000D+00 0.000D+00 0.000D+00 0.000D+00
 Coeff-En:   0.000D+00 0.000D+00 0.000D+00 0.000D+00 0.000D+00 0.000D+00
 Coeff-En:   0.000D+00 0.100D+01
 Coeff:     -0.162D+00 0.130D+00 0.115D-01 0.156D+00-0.238D+00 0.431D+00
 Coeff:     -0.464D+00-0.297D-01 0.961D-01-0.977D-01 0.721D+00-0.112D+01
 Coeff:      0.224D+00 0.232D+01-0.342D+01 0.132D+01-0.784D+00-0.268D+00
 Coeff:      0.467D+00 0.171D+01
 Gap=     0.026 Goal=   None    Shift=    0.400
 RMSDP=2.50D-06 MaxDP=1.70D-04 DE=-2.41D-06 OVMax= 7.79D-04

 Cycle  38  Pass 1  IDiag  1:
 E= -102.008987129914     Delta-E=       -0.000001598287 Rises=F Damp=F
 DIIS: error= 1.67D-04 at cycle  38 NSaved=  20.
 NSaved=20 IEnMin=20 EnMin= -102.008987129914     IErMin=20 ErrMin= 1.67D-04
 ErrMax= 1.67D-04  0.00D+00 EMaxC= 1.00D-01 BMatC= 2.02D-06 BMatP= 2.55D-06
 IDIUse=3 WtCom= 9.98D-01 WtEn= 1.67D-03
 Coeff-Com: -0.134D+00 0.917D-01 0.586D-01 0.517D-01 0.174D+00-0.321D+00
 Coeff-Com: -0.142D+00 0.201D+00-0.113D+00 0.475D+00-0.766D+00 0.333D+00
 Coeff-Com:  0.182D+01-0.281D+01 0.443D+00-0.303D+00 0.118D+01 0.810D+00
 Coeff-Com: -0.502D+01 0.498D+01
 Coeff-En:   0.000D+00 0.000D+00 0.000D+00 0.000D+00 0.000D+00 0.000D+00
 Coeff-En:   0.000D+00 0.000D+00 0.000D+00 0.000D+00 0.000D+00 0.000D+00
 Coeff-En:   0.000D+00 0.000D+00 0.000D+00 0.000D+00 0.000D+00 0.000D+00
 Coeff-En:   0.000D+00 0.100D+01
 Coeff:     -0.134D+00 0.915D-01 0.585D-01 0.516D-01 0.174D+00-0.321D+00
 Coeff:     -0.142D+00 0.200D+00-0.112D+00 0.474D+00-0.765D+00 0.332D+00
 Coeff:      0.181D+01-0.281D+01 0.442D+00-0.302D+00 0.117D+01 0.808D+00
 Coeff:     -0.501D+01 0.497D+01
 Gap=     0.026 Goal=   None    Shift=    0.400
 RMSDP=3.14D-06 MaxDP=2.19D-04 DE=-1.60D-06 OVMax= 5.58D-04

 Cycle  39  Pass 1  IDiag  1:
 E= -102.008988225860     Delta-E=       -0.000001095946 Rises=F Damp=F
 DIIS: error= 1.52D-04 at cycle  39 NSaved=  20.
 NSaved=20 IEnMin=20 EnMin= -102.008988225860     IErMin=20 ErrMin= 1.52D-04
 ErrMax= 1.52D-04  0.00D+00 EMaxC= 1.00D-01 BMatC= 1.71D-06 BMatP= 2.02D-06
 IDIUse=3 WtCom= 9.98D-01 WtEn= 1.52D-03
 Coeff-Com: -0.106D+00 0.151D+00-0.926D-01 0.362D+00-0.364D+00-0.181D+00
 Coeff-Com:  0.207D+00-0.149D+00 0.367D+00-0.711D+00 0.417D+00 0.177D+01
 Coeff-Com: -0.228D+01 0.710D+00-0.154D+01 0.131D+01 0.182D+01-0.578D+01
 Coeff-Com:  0.317D+01 0.191D+01
 Coeff-En:   0.000D+00 0.000D+00 0.000D+00 0.000D+00 0.000D+00 0.000D+00
 Coeff-En:   0.000D+00 0.000D+00 0.000D+00 0.000D+00 0.000D+00 0.000D+00
 Coeff-En:   0.000D+00 0.000D+00 0.000D+00 0.000D+00 0.000D+00 0.000D+00
 Coeff-En:   0.000D+00 0.100D+01
 Coeff:     -0.106D+00 0.150D+00-0.924D-01 0.362D+00-0.364D+00-0.180D+00
 Coeff:      0.207D+00-0.149D+00 0.366D+00-0.710D+00 0.416D+00 0.177D+01
 Coeff:     -0.227D+01 0.709D+00-0.154D+01 0.131D+01 0.182D+01-0.577D+01
 Coeff:      0.317D+01 0.191D+01
 Gap=     0.026 Goal=   None    Shift=    0.400
 RMSDP=2.02D-06 MaxDP=1.42D-04 DE=-1.10D-06 OVMax= 4.61D-04

 Cycle  40  Pass 1  IDiag  1:
 E= -102.008988950600     Delta-E=       -0.000000724739 Rises=F Damp=F
 DIIS: error= 1.42D-04 at cycle  40 NSaved=  20.
 NSaved=20 IEnMin=20 EnMin= -102.008988950600     IErMin=20 ErrMin= 1.42D-04
 ErrMax= 1.42D-04  0.00D+00 EMaxC= 1.00D-01 BMatC= 1.50D-06 BMatP= 1.71D-06
 IDIUse=3 WtCom= 9.99D-01 WtEn= 1.42D-03
 Coeff-Com: -0.124D-02-0.190D-01 0.246D+00-0.274D+00-0.136D+00 0.116D+00
 Coeff-Com: -0.965D-02 0.254D+00-0.731D+00 0.572D+00 0.103D+01-0.159D+01
 Coeff-Com:  0.122D+01-0.239D+01 0.144D+01 0.233D+01-0.444D+01 0.181D+01
 Coeff-Com: -0.206D+01 0.363D+01
 Coeff-En:   0.000D+00 0.000D+00 0.000D+00 0.000D+00 0.000D+00 0.000D+00
 Coeff-En:   0.000D+00 0.000D+00 0.000D+00 0.000D+00 0.000D+00 0.000D+00
 Coeff-En:   0.000D+00 0.000D+00 0.000D+00 0.000D+00 0.000D+00 0.000D+00
 Coeff-En:   0.000D+00 0.100D+01
 Coeff:     -0.123D-02-0.190D-01 0.246D+00-0.274D+00-0.136D+00 0.115D+00
 Coeff:     -0.964D-02 0.254D+00-0.730D+00 0.571D+00 0.103D+01-0.158D+01
 Coeff:      0.122D+01-0.239D+01 0.144D+01 0.232D+01-0.443D+01 0.181D+01
 Coeff:     -0.205D+01 0.363D+01
 Gap=     0.026 Goal=   None    Shift=    0.400
 RMSDP=1.96D-06 MaxDP=1.59D-04 DE=-7.25D-07 OVMax= 3.94D-04

 Cycle  41  Pass 1  IDiag  1:
 E= -102.008989609131     Delta-E=       -0.000000658532 Rises=F Damp=F
 DIIS: error= 1.32D-04 at cycle  41 NSaved=  20.
 NSaved=20 IEnMin=20 EnMin= -102.008989609131     IErMin=20 ErrMin= 1.32D-04
 ErrMax= 1.32D-04  0.00D+00 EMaxC= 1.00D-01 BMatC= 1.23D-06 BMatP= 1.50D-06
 IDIUse=3 WtCom= 9.99D-01 WtEn= 1.32D-03
 Coeff-Com: -0.249D-01 0.213D+00-0.255D+00-0.519D-01 0.496D-01 0.465D-01
 Coeff-Com:  0.199D+00-0.755D+00 0.689D+00 0.563D+00-0.116D+01 0.852D+00
 Coeff-Com: -0.154D+01 0.107D+01 0.136D+01-0.280D+01 0.263D+01-0.371D+01
 Coeff-Com:  0.448D+00 0.318D+01
 Coeff-En:   0.000D+00 0.000D+00 0.000D+00 0.000D+00 0.000D+00 0.000D+00
 Coeff-En:   0.000D+00 0.000D+00 0.000D+00 0.000D+00 0.000D+00 0.000D+00
 Coeff-En:   0.000D+00 0.000D+00 0.000D+00 0.000D+00 0.000D+00 0.000D+00
 Coeff-En:   0.000D+00 0.100D+01
 Coeff:     -0.249D-01 0.213D+00-0.255D+00-0.518D-01 0.496D-01 0.464D-01
 Coeff:      0.199D+00-0.754D+00 0.688D+00 0.562D+00-0.115D+01 0.851D+00
 Coeff:     -0.154D+01 0.106D+01 0.136D+01-0.279D+01 0.262D+01-0.371D+01
 Coeff:      0.448D+00 0.317D+01
 Gap=     0.026 Goal=   None    Shift=    0.400
 RMSDP=1.36D-06 MaxDP=8.40D-05 DE=-6.59D-07 OVMax= 3.20D-04

 Cycle  42  Pass 1  IDiag  1:
 E= -102.008990132196     Delta-E=       -0.000000523065 Rises=F Damp=F
 DIIS: error= 1.24D-04 at cycle  42 NSaved=  20.
 NSaved=20 IEnMin=20 EnMin= -102.008990132196     IErMin=20 ErrMin= 1.24D-04
 ErrMax= 1.24D-04  0.00D+00 EMaxC= 1.00D-01 BMatC= 1.05D-06 BMatP= 1.23D-06
 IDIUse=3 WtCom= 9.99D-01 WtEn= 1.24D-03
 Coeff-Com:  0.108D+00-0.199D+00 0.169D-01 0.912D-01-0.276D-01 0.186D+00
 Coeff-Com: -0.714D+00 0.722D+00 0.300D+00-0.903D+00 0.368D-01 0.264D-01
 Coeff-Com:  0.595D+00 0.320D+00-0.256D+01 0.393D+01-0.285D+01-0.161D+01
 Coeff-Com:  0.812D+00 0.272D+01
 Coeff-En:   0.000D+00 0.000D+00 0.000D+00 0.000D+00 0.000D+00 0.000D+00
 Coeff-En:   0.111D-01 0.000D+00 0.000D+00 0.000D+00 0.000D+00 0.000D+00
 Coeff-En:   0.000D+00 0.000D+00 0.000D+00 0.000D+00 0.000D+00 0.000D+00
 Coeff-En:   0.000D+00 0.989D+00
 Coeff:      0.108D+00-0.199D+00 0.169D-01 0.911D-01-0.275D-01 0.186D+00
 Coeff:     -0.713D+00 0.721D+00 0.300D+00-0.902D+00 0.368D-01 0.263D-01
 Coeff:      0.595D+00 0.320D+00-0.256D+01 0.392D+01-0.284D+01-0.160D+01
 Coeff:      0.811D+00 0.272D+01
 Gap=     0.026 Goal=   None    Shift=    0.400
 RMSDP=1.23D-06 MaxDP=9.53D-05 DE=-5.23D-07 OVMax= 3.19D-04

 Cycle  43  Pass 1  IDiag  1:
 E= -102.008990604252     Delta-E=       -0.000000472056 Rises=F Damp=F
 DIIS: error= 1.16D-04 at cycle  43 NSaved=  20.
 NSaved=20 IEnMin=20 EnMin= -102.008990604252     IErMin=20 ErrMin= 1.16D-04
 ErrMax= 1.16D-04  0.00D+00 EMaxC= 1.00D-01 BMatC= 8.56D-07 BMatP= 1.05D-06
 IDIUse=3 WtCom= 9.99D-01 WtEn= 1.16D-03
 EnCoef did   100 forward-backward iterations
 Coeff-Com:  0.213D-01-0.508D-01 0.252D-01-0.103D-01 0.203D+00-0.512D+00
 Coeff-Com:  0.592D+00-0.314D+00-0.425D+00-0.335D+00 0.161D+01-0.391D+00
 Coeff-Com: -0.214D+00-0.318D+01 0.431D+01-0.105D+01-0.550D+00-0.398D+00
 Coeff-Com: -0.284D+01 0.451D+01
 Coeff-En:   0.000D+00 0.000D+00 0.000D+00 0.000D+00 0.000D+00 0.258D-01
 Coeff-En:   0.436D-03 0.000D+00 0.000D+00 0.000D+00 0.000D+00 0.000D+00
 Coeff-En:   0.000D+00 0.000D+00 0.000D+00 0.000D+00 0.000D+00 0.000D+00
 Coeff-En:   0.000D+00 0.974D+00
 Coeff:      0.213D-01-0.507D-01 0.252D-01-0.103D-01 0.203D+00-0.511D+00
 Coeff:      0.592D+00-0.314D+00-0.424D+00-0.334D+00 0.160D+01-0.390D+00
 Coeff:     -0.214D+00-0.318D+01 0.431D+01-0.105D+01-0.549D+00-0.397D+00
 Coeff:     -0.283D+01 0.450D+01
 Gap=     0.026 Goal=   None    Shift=    0.400
 RMSDP=1.26D-06 MaxDP=9.28D-05 DE=-4.72D-07 OVMax= 2.69D-04

 Cycle  44  Pass 1  IDiag  1:
 E= -102.008990981625     Delta-E=       -0.000000377373 Rises=F Damp=F
 DIIS: error= 1.10D-04 at cycle  44 NSaved=  20.
 NSaved=20 IEnMin=20 EnMin= -102.008990981625     IErMin=20 ErrMin= 1.10D-04
 ErrMax= 1.10D-04  0.00D+00 EMaxC= 1.00D-01 BMatC= 7.01D-07 BMatP= 8.56D-07
 IDIUse=3 WtCom= 9.99D-01 WtEn= 1.10D-03
 EnCoef did   100 forward-backward iterations
 Coeff-Com: -0.204D-01 0.214D-01-0.125D-01 0.175D+00-0.469D+00 0.569D+00
 Coeff-Com: -0.339D+00-0.287D+00-0.384D+00 0.151D+01-0.444D+00-0.270D+00
 Coeff-Com: -0.266D+01 0.381D+01-0.125D+01 0.205D-01-0.942D-01-0.276D+01
 Coeff-Com:  0.220D+01 0.167D+01
 Coeff-En:   0.000D+00 0.000D+00 0.000D+00 0.000D+00 0.388D-01 0.194D-03
 Coeff-En:   0.000D+00 0.000D+00 0.000D+00 0.000D+00 0.000D+00 0.000D+00
 Coeff-En:   0.000D+00 0.000D+00 0.000D+00 0.000D+00 0.000D+00 0.000D+00
 Coeff-En:   0.000D+00 0.961D+00
 Coeff:     -0.203D-01 0.214D-01-0.125D-01 0.175D+00-0.469D+00 0.568D+00
 Coeff:     -0.339D+00-0.287D+00-0.384D+00 0.151D+01-0.443D+00-0.270D+00
 Coeff:     -0.266D+01 0.381D+01-0.125D+01 0.205D-01-0.941D-01-0.276D+01
 Coeff:      0.220D+01 0.167D+01
 Gap=     0.026 Goal=   None    Shift=    0.400
 RMSDP=9.15D-07 MaxDP=6.02D-05 DE=-3.77D-07 OVMax= 2.62D-04

 Cycle  45  Pass 1  IDiag  1:
 E= -102.008991268441     Delta-E=       -0.000000286816 Rises=F Damp=F
 DIIS: error= 1.05D-04 at cycle  45 NSaved=  20.
 NSaved=20 IEnMin=20 EnMin= -102.008991268441     IErMin=20 ErrMin= 1.05D-04
 ErrMax= 1.05D-04  0.00D+00 EMaxC= 1.00D-01 BMatC= 6.13D-07 BMatP= 7.01D-07
 IDIUse=3 WtCom= 9.99D-01 WtEn= 1.05D-03
 EnCoef did   100 forward-backward iterations
 Coeff-Com: -0.156D-01-0.577D-01 0.182D+00-0.352D+00 0.461D+00 0.221D-01
 Coeff-Com: -0.648D+00-0.592D+00 0.191D+01-0.501D+00-0.585D+00-0.146D+01
 Coeff-Com:  0.279D+01-0.123D+01-0.556D+00 0.904D+00-0.973D+00 0.118D+01
 Coeff-Com: -0.516D+01 0.568D+01
 Coeff-En:   0.000D+00 0.000D+00 0.000D+00 0.494D-01 0.827D-03 0.249D-03
 Coeff-En:   0.000D+00 0.000D+00 0.000D+00 0.000D+00 0.000D+00 0.000D+00
 Coeff-En:   0.000D+00 0.000D+00 0.000D+00 0.000D+00 0.000D+00 0.000D+00
 Coeff-En:   0.000D+00 0.950D+00
 Coeff:     -0.156D-01-0.577D-01 0.182D+00-0.351D+00 0.460D+00 0.221D-01
 Coeff:     -0.648D+00-0.591D+00 0.191D+01-0.501D+00-0.584D+00-0.146D+01
 Coeff:      0.279D+01-0.123D+01-0.555D+00 0.903D+00-0.972D+00 0.118D+01
 Coeff:     -0.515D+01 0.568D+01
 Gap=     0.026 Goal=   None    Shift=    0.400
 RMSDP=1.06D-06 MaxDP=6.18D-05 DE=-2.87D-07 OVMax= 2.24D-04

 Cycle  46  Pass 1  IDiag  1:
 E= -102.008991499175     Delta-E=       -0.000000230735 Rises=F Damp=F
 DIIS: error= 9.57D-05 at cycle  46 NSaved=  20.
 NSaved=20 IEnMin=20 EnMin= -102.008991499175     IErMin=20 ErrMin= 9.57D-05
 ErrMax= 9.57D-05  0.00D+00 EMaxC= 1.00D-01 BMatC= 5.30D-07 BMatP= 6.13D-07
 IDIUse=1 WtCom= 1.00D+00 WtEn= 0.00D+00
 Coeff-Com: -0.690D-01 0.171D+00-0.345D+00 0.452D+00 0.379D-01-0.672D+00
 Coeff-Com: -0.527D+00 0.182D+01-0.440D+00-0.548D+00-0.131D+01 0.239D+01
 Coeff-Com: -0.103D+01-0.310D+00 0.795D+00-0.179D+01 0.220D+01-0.527D+01
 Coeff-Com:  0.443D+01 0.101D+01
 Coeff:     -0.690D-01 0.171D+00-0.345D+00 0.452D+00 0.379D-01-0.672D+00
 Coeff:     -0.527D+00 0.182D+01-0.440D+00-0.548D+00-0.131D+01 0.239D+01
 Coeff:     -0.103D+01-0.310D+00 0.795D+00-0.179D+01 0.220D+01-0.527D+01
 Coeff:      0.443D+01 0.101D+01
 Gap=     0.026 Goal=   None    Shift=    0.400
 RMSDP=6.21D-07 MaxDP=4.61D-05 DE=-2.31D-07 OVMax= 2.07D-04

 Cycle  47  Pass 1  IDiag  1:
 E= -102.008991715173     Delta-E=       -0.000000215998 Rises=F Damp=F
 DIIS: error= 8.72D-05 at cycle  47 NSaved=  20.
 NSaved=20 IEnMin=20 EnMin= -102.008991715173     IErMin=20 ErrMin= 8.72D-05
 ErrMax= 8.72D-05  0.00D+00 EMaxC= 1.00D-01 BMatC= 4.42D-07 BMatP= 5.30D-07
 IDIUse=1 WtCom= 1.00D+00 WtEn= 0.00D+00
 Coeff-Com:  0.772D-01-0.266D+00 0.338D+00-0.143D+00-0.287D+00-0.178D+00
 Coeff-Com:  0.981D+00-0.281D+00-0.313D+00-0.631D+00 0.138D+01-0.142D+01
 Coeff-Com:  0.472D+00 0.757D+00-0.186D+01 0.263D+01-0.360D+01 0.325D+01
 Coeff-Com: -0.615D+01 0.626D+01
 Coeff:      0.772D-01-0.266D+00 0.338D+00-0.143D+00-0.287D+00-0.178D+00
 Coeff:      0.981D+00-0.281D+00-0.313D+00-0.631D+00 0.138D+01-0.142D+01
 Coeff:      0.472D+00 0.757D+00-0.186D+01 0.263D+01-0.360D+01 0.325D+01
 Coeff:     -0.615D+01 0.626D+01
 Gap=     0.026 Goal=   None    Shift=    0.400
 RMSDP=6.69D-07 MaxDP=3.71D-05 DE=-2.16D-07 OVMax= 1.73D-04

 Cycle  48  Pass 1  IDiag  1:
 E= -102.008991892017     Delta-E=       -0.000000176844 Rises=F Damp=F
 DIIS: error= 8.09D-05 at cycle  48 NSaved=  20.
 NSaved=20 IEnMin=20 EnMin= -102.008991892017     IErMin=20 ErrMin= 8.09D-05
 ErrMax= 8.09D-05  0.00D+00 EMaxC= 1.00D-01 BMatC= 3.70D-07 BMatP= 4.42D-07
 IDIUse=1 WtCom= 1.00D+00 WtEn= 0.00D+00
 Coeff-Com: -0.533D-01 0.192D+00-0.278D+00 0.362D-01-0.123D+00 0.554D+00
 Coeff-Com: -0.248D+00 0.192D-01-0.544D+00 0.735D+00-0.137D+01 0.109D+01
 Coeff-Com:  0.385D+00-0.108D+01 0.180D+01-0.448D+01 0.428D+01-0.506D+01
 Coeff-Com:  0.306D+01 0.207D+01
 Coeff:     -0.533D-01 0.192D+00-0.278D+00 0.362D-01-0.123D+00 0.554D+00
 Coeff:     -0.248D+00 0.192D-01-0.544D+00 0.735D+00-0.137D+01 0.109D+01
 Coeff:      0.385D+00-0.108D+01 0.180D+01-0.448D+01 0.428D+01-0.506D+01
 Coeff:      0.306D+01 0.207D+01
 Gap=     0.026 Goal=   None    Shift=    0.400
 RMSDP=7.69D-07 MaxDP=5.40D-05 DE=-1.77D-07 OVMax= 1.64D-04

 Cycle  49  Pass 1  IDiag  1:
 E= -102.008992003363     Delta-E=       -0.000000111346 Rises=F Damp=F
 DIIS: error= 7.84D-05 at cycle  49 NSaved=  20.
 NSaved=20 IEnMin=20 EnMin= -102.008992003363     IErMin=20 ErrMin= 7.84D-05
 ErrMax= 7.84D-05  0.00D+00 EMaxC= 1.00D-01 BMatC= 3.46D-07 BMatP= 3.70D-07
 IDIUse=1 WtCom= 1.00D+00 WtEn= 0.00D+00
 Coeff-Com:  0.121D+00-0.238D+00-0.228D-01-0.173D+00 0.714D+00-0.329D+00
 Coeff-Com: -0.572D-01-0.581D+00 0.797D+00-0.107D+01 0.103D+01 0.228D+00
 Coeff-Com: -0.128D+01 0.203D+01-0.443D+01 0.426D+01-0.539D+01 0.320D+01
 Coeff-Com:  0.225D+01-0.608D-01
 Coeff:      0.121D+00-0.238D+00-0.228D-01-0.173D+00 0.714D+00-0.329D+00
 Coeff:     -0.572D-01-0.581D+00 0.797D+00-0.107D+01 0.103D+01 0.228D+00
 Coeff:     -0.128D+01 0.203D+01-0.443D+01 0.426D+01-0.539D+01 0.320D+01
 Coeff:      0.225D+01-0.608D-01
 Gap=     0.026 Goal=   None    Shift=    0.400
 RMSDP=5.60D-07 MaxDP=4.24D-05 DE=-1.11D-07 OVMax= 1.47D-04

 Cycle  50  Pass 1  IDiag  1:
 E= -102.008992103512     Delta-E=       -0.000000100149 Rises=F Damp=F
 DIIS: error= 7.47D-05 at cycle  50 NSaved=  20.
 NSaved=20 IEnMin=20 EnMin= -102.008992103512     IErMin=20 ErrMin= 7.47D-05
 ErrMax= 7.47D-05  0.00D+00 EMaxC= 1.00D-01 BMatC= 3.10D-07 BMatP= 3.46D-07
 IDIUse=1 WtCom= 1.00D+00 WtEn= 0.00D+00
 Coeff-Com: -0.137D+00 0.771D-01 0.191D-01 0.267D+00-0.240D+00-0.337D+00
 Coeff-Com:  0.666D+00-0.284D+00-0.396D+00 0.611D+00 0.919D-01-0.593D+00
 Coeff-Com:  0.171D+01-0.488D+01 0.511D+01-0.638D+01 0.360D+01 0.433D+01
 Coeff-Com: -0.910D+01 0.688D+01
 Coeff:     -0.137D+00 0.771D-01 0.191D-01 0.267D+00-0.240D+00-0.337D+00
 Coeff:      0.666D+00-0.284D+00-0.396D+00 0.611D+00 0.919D-01-0.593D+00
 Coeff:      0.171D+01-0.488D+01 0.511D+01-0.638D+01 0.360D+01 0.433D+01
 Coeff:     -0.910D+01 0.688D+01
 Gap=     0.026 Goal=   None    Shift=    0.400
 RMSDP=4.10D-07 MaxDP=2.35D-05 DE=-1.00D-07 OVMax= 1.45D-04

 Cycle  51  Pass 1  IDiag  1:
 E= -102.008992217619     Delta-E=       -0.000000114107 Rises=F Damp=F
 DIIS: error= 6.71D-05 at cycle  51 NSaved=  20.
 NSaved=20 IEnMin=20 EnMin= -102.008992217619     IErMin=20 ErrMin= 6.71D-05
 ErrMax= 6.71D-05  0.00D+00 EMaxC= 1.00D-01 BMatC= 2.53D-07 BMatP= 3.10D-07
 IDIUse=1 WtCom= 1.00D+00 WtEn= 0.00D+00
 Coeff-Com: -0.196D+00 0.773D-01 0.218D+00-0.906D-02-0.270D+00 0.432D+00
 Coeff-Com: -0.198D+00-0.372D+00 0.211D+00 0.177D+00-0.752D+00 0.270D+01
 Coeff-Com: -0.514D+01 0.423D+01-0.460D+01 0.325D+01 0.229D+01-0.652D+01
 Coeff-Com:  0.389D+01 0.157D+01
 Coeff:     -0.196D+00 0.773D-01 0.218D+00-0.906D-02-0.270D+00 0.432D+00
 Coeff:     -0.198D+00-0.372D+00 0.211D+00 0.177D+00-0.752D+00 0.270D+01
 Coeff:     -0.514D+01 0.423D+01-0.460D+01 0.325D+01 0.229D+01-0.652D+01
 Coeff:      0.389D+01 0.157D+01
 Gap=     0.026 Goal=   None    Shift=    0.400
 RMSDP=3.30D-07 MaxDP=1.78D-05 DE=-1.14D-07 OVMax= 1.30D-04

 Cycle  52  Pass 1  IDiag  1:
 E= -102.008992309135     Delta-E=       -0.000000091516 Rises=F Damp=F
 DIIS: error= 6.15D-05 at cycle  52 NSaved=  20.
 NSaved=20 IEnMin=20 EnMin= -102.008992309135     IErMin=20 ErrMin= 6.15D-05
 ErrMax= 6.15D-05  0.00D+00 EMaxC= 1.00D-01 BMatC= 2.16D-07 BMatP= 2.53D-07
 IDIUse=1 WtCom= 1.00D+00 WtEn= 0.00D+00
 Coeff-Com: -0.745D-01 0.190D+00 0.150D-01-0.225D+00-0.303D-01-0.193D-01
 Coeff-Com: -0.386D-01 0.457D+00-0.160D+00-0.124D+01 0.253D+01-0.381D+01
 Coeff-Com:  0.357D+01-0.519D+01 0.376D+01 0.190D+01-0.467D+01 0.274D+01
 Coeff-Com: -0.128D+01 0.257D+01
 Coeff:     -0.745D-01 0.190D+00 0.150D-01-0.225D+00-0.303D-01-0.193D-01
 Coeff:     -0.386D-01 0.457D+00-0.160D+00-0.124D+01 0.253D+01-0.381D+01
 Coeff:      0.357D+01-0.519D+01 0.376D+01 0.190D+01-0.467D+01 0.274D+01
 Coeff:     -0.128D+01 0.257D+01
 Gap=     0.026 Goal=   None    Shift=    0.400
 RMSDP=5.45D-07 MaxDP=3.82D-05 DE=-9.15D-08 OVMax= 1.35D-04

 Cycle  53  Pass 1  IDiag  1:
 E= -102.008992383093     Delta-E=       -0.000000073958 Rises=F Damp=F
 DIIS: error= 5.64D-05 at cycle  53 NSaved=  20.
 NSaved=20 IEnMin=20 EnMin= -102.008992383093     IErMin=20 ErrMin= 5.64D-05
 ErrMax= 5.64D-05  0.00D+00 EMaxC= 1.00D-01 BMatC= 1.79D-07 BMatP= 2.16D-07
 IDIUse=1 WtCom= 1.00D+00 WtEn= 0.00D+00
 Coeff-Com:  0.585D-01 0.759D-02-0.116D+00-0.398D-01-0.171D+00 0.117D-01
 Coeff-Com:  0.616D+00-0.131D+00-0.159D+01 0.272D+01-0.342D+01 0.323D+01
 Coeff-Com: -0.564D+01 0.426D+01 0.184D+01-0.436D+01 0.237D+01-0.148D+01
 Coeff-Com:  0.325D+01-0.417D+00
 Coeff:      0.585D-01 0.759D-02-0.116D+00-0.398D-01-0.171D+00 0.117D-01
 Coeff:      0.616D+00-0.131D+00-0.159D+01 0.272D+01-0.342D+01 0.323D+01
 Coeff:     -0.564D+01 0.426D+01 0.184D+01-0.436D+01 0.237D+01-0.148D+01
 Coeff:      0.325D+01-0.417D+00
 Gap=     0.026 Goal=   None    Shift=    0.400
 RMSDP=3.75D-07 MaxDP=2.84D-05 DE=-7.40D-08 OVMax= 1.24D-04

 Cycle  54  Pass 1  IDiag  1:
 E= -102.008992447117     Delta-E=       -0.000000064024 Rises=F Damp=F
 DIIS: error= 5.25D-05 at cycle  54 NSaved=  20.
 NSaved=20 IEnMin=20 EnMin= -102.008992447117     IErMin=20 ErrMin= 5.25D-05
 ErrMax= 5.25D-05  0.00D+00 EMaxC= 1.00D-01 BMatC= 1.52D-07 BMatP= 1.79D-07
 IDIUse=1 WtCom= 1.00D+00 WtEn= 0.00D+00
 Coeff-Com: -0.288D-01 0.225D+00-0.445D+00-0.310D-01 0.430D-01 0.749D+00
 Coeff-Com: -0.131D+00-0.214D+01 0.286D+01-0.248D+01 0.226D+01-0.442D+01
 Coeff-Com:  0.380D+01 0.617D+00-0.930D+00-0.359D-01-0.303D+01 0.634D+01
 Coeff-Com: -0.703D+01 0.481D+01
 Coeff:     -0.288D-01 0.225D+00-0.445D+00-0.310D-01 0.430D-01 0.749D+00
 Coeff:     -0.131D+00-0.214D+01 0.286D+01-0.248D+01 0.226D+01-0.442D+01
 Coeff:      0.380D+01 0.617D+00-0.930D+00-0.359D-01-0.303D+01 0.634D+01
 Coeff:     -0.703D+01 0.481D+01
 Gap=     0.026 Goal=   None    Shift=    0.400
 RMSDP=3.45D-07 MaxDP=1.95D-05 DE=-6.40D-08 OVMax= 1.04D-04

 Cycle  55  Pass 1  IDiag  1:
 E= -102.008992509931     Delta-E=       -0.000000062813 Rises=F Damp=F
 DIIS: error= 4.93D-05 at cycle  55 NSaved=  20.
 NSaved=20 IEnMin=20 EnMin= -102.008992509931     IErMin=20 ErrMin= 4.93D-05
 ErrMax= 4.93D-05  0.00D+00 EMaxC= 1.00D-01 BMatC= 1.32D-07 BMatP= 1.52D-07
 IDIUse=1 WtCom= 1.00D+00 WtEn= 0.00D+00
 Coeff-Com:  0.166D+00-0.299D+00-0.373D-01-0.128D+00 0.760D+00 0.267D-01
 Coeff-Com: -0.177D+01 0.215D+01-0.187D+01 0.162D+01-0.366D+01 0.331D+01
 Coeff-Com:  0.683D-01 0.757D+00-0.110D+01-0.338D+01 0.461D+01-0.390D+01
 Coeff-Com:  0.790D+00 0.288D+01
 Coeff:      0.166D+00-0.299D+00-0.373D-01-0.128D+00 0.760D+00 0.267D-01
 Coeff:     -0.177D+01 0.215D+01-0.187D+01 0.162D+01-0.366D+01 0.331D+01
 Coeff:      0.683D-01 0.757D+00-0.110D+01-0.338D+01 0.461D+01-0.390D+01
 Coeff:      0.790D+00 0.288D+01
 Gap=     0.026 Goal=   None    Shift=    0.400
 RMSDP=3.91D-07 MaxDP=2.49D-05 DE=-6.28D-08 OVMax= 8.93D-05

 Cycle  56  Pass 1  IDiag  1:
 E= -102.008992568493     Delta-E=       -0.000000058562 Rises=F Damp=F
 DIIS: error= 4.49D-05 at cycle  56 NSaved=  20.
 NSaved=20 IEnMin=20 EnMin= -102.008992568493     IErMin=20 ErrMin= 4.49D-05
 ErrMax= 4.49D-05  0.00D+00 EMaxC= 1.00D-01 BMatC= 1.11D-07 BMatP= 1.32D-07
 IDIUse=1 WtCom= 1.00D+00 WtEn= 0.00D+00
 Coeff-Com:  0.674D-01-0.777D-01-0.293D+00 0.556D+00 0.136D+00-0.114D+01
 Coeff-Com:  0.142D+01-0.176D+01 0.132D+01-0.218D+01 0.186D+01-0.323D-01
 Coeff-Com:  0.144D+01-0.133D+01-0.258D+01 0.211D+01 0.246D+00-0.191D+01
 Coeff-Com:  0.766D+00 0.238D+01
 Coeff:      0.674D-01-0.777D-01-0.293D+00 0.556D+00 0.136D+00-0.114D+01
 Coeff:      0.142D+01-0.176D+01 0.132D+01-0.218D+01 0.186D+01-0.323D-01
 Coeff:      0.144D+01-0.133D+01-0.258D+01 0.211D+01 0.246D+00-0.191D+01
 Coeff:      0.766D+00 0.238D+01
 Gap=     0.026 Goal=   None    Shift=    0.400
 RMSDP=3.62D-07 MaxDP=3.03D-05 DE=-5.86D-08 OVMax= 8.57D-05

 Cycle  57  Pass 1  IDiag  1:
 E= -102.008992625039     Delta-E=       -0.000000056546 Rises=F Damp=F
 DIIS: error= 4.00D-05 at cycle  57 NSaved=  20.
 NSaved=20 IEnMin=20 EnMin= -102.008992625039     IErMin=20 ErrMin= 4.00D-05
 ErrMax= 4.00D-05  0.00D+00 EMaxC= 1.00D-01 BMatC= 8.92D-08 BMatP= 1.11D-07
 IDIUse=1 WtCom= 1.00D+00 WtEn= 0.00D+00
 Coeff-Com: -0.576D-01-0.183D+00 0.487D+00-0.328D-02-0.636D+00 0.801D+00
 Coeff-Com: -0.215D+01 0.173D+01-0.619D+00 0.392D+00 0.652D+00-0.457D+00
 Coeff-Com:  0.598D+00-0.243D+01 0.189D+01 0.448D+00-0.846D+00 0.391D-01
 Coeff-Com: -0.301D+01 0.435D+01
 Coeff:     -0.576D-01-0.183D+00 0.487D+00-0.328D-02-0.636D+00 0.801D+00
[...]
               1          2
     1  Cr  12.578732   0.251620
     2  O    0.251620   6.918028
          Atomic-Atomic Spin Densities.
               1          2
     1  Cr   3.970725  -0.028384
     2  O   -0.028384   0.086043
 Mulliken charges and spin densities:
               1          2
     1  Cr   1.169648   3.942341
     2  O   -1.169648   0.057659
 Sum of Mulliken charges =  -0.00000   4.00000
 Mulliken charges and spin densities with hydrogens summed into heavy atoms:
               1          2
     1  Cr   1.169648   3.942341
     2  O   -1.169648   0.057659
 Electronic spatial extent (au):  <R**2>=             95.4425
 Charge=             -0.0000 electrons
 Dipole moment (field-independent basis, Debye):
    X=              0.0000    Y=              0.0000    Z=              9.6971  Tot=              9.6971
 Quadrupole moment (field-independent basis, Debye-Ang):
   XX=            -19.5449   YY=            -18.7318   ZZ=            -23.9566
   XY=              0.0000   XZ=              0.0000   YZ=              0.0000
 Traceless Quadrupole moment (field-independent basis, Debye-Ang):
   XX=              1.1995   YY=              2.0126   ZZ=             -3.2121
   XY=              0.0000   XZ=              0.0000   YZ=              0.0000
 Octapole moment (field-independent basis, Debye-Ang**2):
  XXX=              0.0000  YYY=              0.0000  ZZZ=             27.4688  XYY=              0.0000
  XXY=              0.0000  XXZ=              5.9962  XZZ=              0.0000  YZZ=              0.0000
  YYZ=              6.6178  XYZ=              0.0000
 Hexadecapole moment (field-independent basis, Debye-Ang**3):
 XXXX=            -24.2889 YYYY=            -23.0674 ZZZZ=           -118.3098 XXXY=              0.0000
 XXXZ=              0.0000 YYYX=              0.0000 YYYZ=              0.0000 ZZZX=              0.0000
 ZZZY=              0.0000 XXYY=             -7.8914 XXZZ=            -23.2680 YYZZ=            -22.0328
 XXYZ=              0.0000 YYXZ=              0.0000 ZZXY=              0.0000
 N-N= 2.469493650960D+01 E-N=-2.836850080645D+02  KE= 5.748791328167D+01
 Symmetry A1   KE= 2.598387151635D+01
 Symmetry A2   KE= 5.504571876257D+00
 Symmetry B1   KE= 1.578945862585D+01
 Symmetry B2   KE= 1.021001126287D+01
 Symmetry A1   SP= 2.000000000000D+00
 Symmetry A2   SP= 1.000000000000D+00
 Symmetry B1   SP= 1.000000000000D+00
 Symmetry B2   SP= 0.000000000000D+00
 Orbital energies and kinetic energies (alpha):
                                 1                 2
   1         O                -3.768194          1.881466
   2         O                -2.485771          3.086524
   3         O                -2.436093          3.109296
   4         O                -2.427788          3.098695
   5         O                -1.088342          0.838594
   6         O                -0.576103          2.091033
   7         O                -0.561747          2.024919
   8         O                -0.554605          1.995709
   9         O                -0.522288          5.273629
  10         O                -0.342979          5.504572
  11         O                -0.329940          4.915008
  12         O                -0.326812          5.542230
  13         V                -0.045685          0.455561
  14         V                 0.007450          0.130684
  15         V                 0.013772          0.088376
  16         V                 0.017852          0.201387
  17         V                 0.037214          0.052051
  18         V                 0.050201          0.299758
  19         V                 0.062093          0.180595
  20         V                 0.074154          0.095488
  21         V                 0.074225          0.095048
  22         V                 0.076305          0.133127
  23         V                 0.083594          0.196516
  24         V                 0.087257          0.207854
  25         V                 0.129220          0.336579
  26         V                 0.139618          2.203152
  27         V                 0.155162          0.359213
  28         V                 0.208902          0.543412
  29         V                 0.226420          1.565676
  30         V                 0.242808          0.726009
  31         V                 0.260217          0.550387
  32         V                 0.260682          0.563288
  33         V                 0.278190          0.301594
  34         V                 0.288719          0.326187
  35         V                 0.297875          0.769104
  36         V                 0.313042          0.609072
  37         V                 0.319452          0.996568
  38         V                 0.393747          0.549527
  39         V                 0.490019          1.134375
  40         V                 0.617654          0.753643
  41         V                 0.617657          0.753624
  42         V                 0.620652          0.735098
  43         V                 0.620659          0.734884
  44         V                 0.681811          1.219462
  45         V                 0.685618          1.249855
  46         V                 0.698208          1.027688
  47         V                 0.702808          1.072437
  48         V                 0.711952          1.201375
  49         V                 0.715379          1.651786
  50         V                 0.842269          1.107271
  51         V                 0.848561          1.558193
  52         V                 0.849175          1.553477
  53         V                 0.899338          1.611933
  54         V                 0.927920          1.880105
  55         V                 0.940996          1.727448
  56         V                 0.941111          1.731621
  57         V                 1.045250          2.089624
  58         V                 1.062775          2.490323
  59         V                 1.182055          1.825240
  60         V                 1.294303          2.535654
  61         V                 1.393959          2.157204
  62         V                 1.400102          2.261686
  63         V                 1.561229          2.281395
  64         V                 1.871951          2.550175
  65         V                 1.883946          2.551860
  66         V                 1.884287          2.494958
  67         V                 1.884402          2.494633
  68         V                 1.901261          2.517984
  69         V                 1.901601          2.668903
  70         V                 1.911163          2.668895
  71         V                 1.983823          2.899802
  72         V                 2.110116          2.217601
  73         V                 2.110116          2.217597
  74         V                 2.170070          2.542738
  75         V                 2.170112          2.542220
  76         V                 2.238029          3.259017
  77         V                 2.247026          3.139479
  78         V                 2.258743          3.473525
  79         V                 2.274154          2.651693
  80         V                 2.274154          2.651710
  81         V                 2.297738          3.461065
  82         V                 2.298848          3.574502
  83         V                 2.417672          2.769361
  84         V                 2.417684          2.769394
  85         V                 2.440417          2.661294
  86         V                 2.440417          2.661330
  87         V                 2.593807          3.367420
  88         V                 2.683450          3.901795
  89         V                 2.696111          3.860051
  90         V                 2.714042          5.592450
  91         V                 2.736245          6.830206
  92         V                 2.741862          6.740548
  93         V                 2.870313          3.160109
  94         V                 2.870406          3.166451
  95         V                 2.931566          5.578734
  96         V                 2.956193          5.908947
  97         V                 2.977022          4.202552
  98         V                 3.404728          4.256056
  99         V                 3.409691          4.222134
 100         V                 3.611325          5.190958
 101         V                 4.180630          7.590217
 102         V                 4.181210          7.577128
 103         V                 4.622649          7.440252
 104         V                 5.125231          6.534619
 105         V                 5.321161          8.229194
 106         V                 5.321200          8.229193
 107         V                 5.385317          8.250624
 108         V                 5.385425          8.250644
 109         V                 5.600172          8.417568
 110         V                 5.625995          8.419723
 111         V                 5.747382          8.068022
 112         V                 6.370069          8.535636
 113         V                 6.437046          8.988072
 114         V                 6.457503          8.984053
 115         V                 6.664950          7.466710
 116         V                 6.664950          7.466718
 117         V                 6.666447          9.237084
 118         V                 6.766340          7.626631
 119         V                 6.766385          7.624738
 120         V                 6.824502          8.463116
 121         V                 6.824502          8.463120
 122         V                 6.862133          8.439463
 123         V                 6.862137          8.439256
 124         V                 6.927526          8.186453
 125         V                 6.930929          8.193419
 126         V                 6.961936          8.690378
 127         V                 6.963025          8.577569
 128         V                 6.984338          9.794411
 129         V                 7.044799          9.208738
 130         V                 7.067328          8.845817
 131         V                 7.072769          8.890618
 132         V                 7.144779          9.650522
 133         V                 7.144797          9.649283
 134         V                 7.295004         11.608586
 135         V                 7.297894         11.522597
 136         V                 7.301256         15.106350
 137         V                 7.301846         15.096548
 138         V                 7.569283         13.088157
 139         V                 7.576582         13.045885
 140         V                 7.703468         11.464623
 141         V                 8.550505         12.648204
 142         V                14.149701         14.234634
 143         V                14.661347         23.115568
 144         V                14.666703         23.113350
 145         V                14.833900         23.247203
 146         V                14.833916         23.247182
 147         V                14.866291         23.267806
 148         V                14.866319         23.267079
 149         V                14.992835         23.245756
 150         V                15.028346         23.404686
 151         V                15.035698         23.392054
 152         V                15.369754         22.666637
 153         V                15.569904         18.775352
 154         V                15.599394         18.776737
 155         V                15.764884         20.343460
 156         V                16.495266         28.021410
 157         V                16.500710         28.417099
 158         V                16.590934         28.442618
 159         V                16.592304         22.963391
 160         V                16.602089         28.422896
 161         V                17.576008         24.123624
 162         V                18.879598         25.018548
 163         V                18.879602         25.018307
 164         V                18.885584         25.011726
 165         V                18.885620         25.011692
 166         V                18.935503         25.069748
 167         V                18.936172         25.067718
 168         V                18.997092         25.138900
 169         V                19.009833         25.138423
 170         V                19.067378         25.201440
 171         V                30.097138         31.335929
 172         V                32.338482         34.947897
 173         V                32.372358         34.946669
 174         V                32.519483         35.808721
 175         V                34.274699         54.766638
 176         V                34.275167         54.769250
 177         V                34.332164         54.818464
 178         V                34.355625         54.806238
 179         V                34.670649         54.030090
 180         V                37.906837         35.117245
 181         V                43.239773         58.175840
 182         V                43.239808         58.175802
 183         V                43.312937         58.250672
 184         V                43.317450         58.250436
 185         V                43.421589         58.341903
 186         V                44.063709         59.374941
 187         V                44.071877         59.374182
 188         V                44.679940         59.843064
 189         V                58.869762         63.993422
 190         V                61.371981         60.795649
 191         V                61.404444         60.795331
 192         V                61.597009         61.043527
 193         V                75.832632         52.134422
 194         V                82.858295        128.196056
 195         V                82.858478        128.196380
 196         V                82.899785        128.250105
 197         V                82.919925        128.241577
 198         V                83.157583        128.270698
 199         V               112.052162        107.311604
 200         V               112.078399        107.314233
 201         V               112.229453        107.606975
 202         V               113.552407        121.691398
 203         V               114.565726        139.085405
 204         V               114.572775        139.084826
 205         V               115.079199        138.733898
 206         V               117.498625        109.882821
 207         V               204.722123        202.752062
 208         V               204.741875        202.753831
 209         V               204.883929        202.932561
 210         V               208.604555        206.988038
 211         V               219.015987        233.246595
 212         V               268.084715        313.337849
 213         V               268.089308        313.337330
 214         V               268.505425        313.751176
 215         V               284.758384        392.767293
 216         V               284.758461        392.767212
 217         V               284.787511        392.801768
 218         V               284.796390        392.799735
 219         V               284.944570        392.921847
 220         V               390.038281        399.957245
 221         V               390.051839        399.957280
 222         V               390.208262        400.130565
 223         V               403.362214        410.299074
 224         V               478.744902        519.995173
 225         V               789.741295        832.225235
 226         V               789.749236        832.224804
 227         V               789.901019        832.383925
 228         V               809.520553        856.414937
 229         V              1364.708516       1487.375355
 230         V              1706.054459       1844.438184
 231         V              1737.691779       1857.649155
 232         V              1737.695680       1857.648865
 233         V              1737.839650       1857.794952
 234         V              3793.503072       4106.216114
 235         V              4276.269784       4560.889589
 236         V              4276.271380       4560.889483
 237         V              4276.396434       4561.014101
 238         V              5273.479121       5614.610545
 239         V              8908.269792       9527.732266
 240         V             12428.296760      13133.894651
 241         V             12428.297273      13133.894624
 242         V             12428.399663      13133.996529
 243         V             22168.439392      23342.962549
 244         V             30464.540086      31538.394070
 245         V             59494.914624      61651.951346
 246         V            179692.655913     184648.970844
 Total kinetic energy from orbitals= 7.872335213698D+01
                          Isotropic Fermi Contact Couplings
        Atom                 a.u.       MegaHertz       Gauss      10(-4) cm-1
     1  Cr(53)             0.00046      -0.02906      -0.01037      -0.00969
     2  O(17)              0.00029      -0.04442      -0.01585      -0.01482
 --------------------------------------------------------
       Center         ----  Spin Dipole Couplings  ----
                      3XX-RR        3YY-RR        3ZZ-RR
 --------------------------------------------------------
     1   Atom        1.697139     -0.954148     -0.742991
     2   Atom        0.017846     -0.156800      0.138953
 --------------------------------------------------------
                        XY            XZ            YZ
 --------------------------------------------------------
     1   Atom        0.000000      0.000000      0.000000
     2   Atom        0.000000      0.000000      0.000000
 --------------------------------------------------------


 ---------------------------------------------------------------------------------
              Anisotropic Spin Dipole Couplings in Principal Axis System
 ---------------------------------------------------------------------------------

       Atom             a.u.   MegaHertz   Gauss  10(-4) cm-1        Axes

              Baa    -0.9541    28.834    10.289     9.618 -0.0000  1.0000  0.0000
     1 Cr(53) Bbb    -0.7430    22.453     8.012     7.489  0.0000  0.0000  1.0000
              Bcc     1.6971   -51.286   -18.300   -17.107  1.0000  0.0000  0.0000
 
              Baa    -0.1568    11.346     4.049     3.785 -0.0000  1.0000  0.0000
     2 O(17)  Bbb     0.0178    -1.291    -0.461    -0.431  1.0000  0.0000  0.0000
              Bcc     0.1390   -10.055    -3.588    -3.354  0.0000  0.0000  1.0000
 

 ---------------------------------------------------------------------------------

 No NMR shielding tensors so no spin-rotation constants.
 Leave Link  601 at Sun Mar 18 16:47:51 2018, MaxMem= 10737418240 cpu:             134.6 elap:               4.3
 (Enter /home1/apps/gaussian/16rA.03/g16/l9999.exe)

 Test job not archived.
 1\1\GINC-C411-082\SP\ROCCSD(T)-Full\Gen\Cr1O1(5)\AANNABE\18-Mar-2018\0
 \\#P ROCCSD(T)=(maxcyc=150, Full, SaveAmplitudes, ReadAmplitudes)/Gen 
 5d 7f SCF=(maxcycles=300, VShift=400) Integral(NoXCTest) MaxDisk=500GB
  Pop=Full Pseudo=Read Guess=Read IOp(5/15=2)\\CrO\\0,5\Cr,0,0.,0.,0.\O
 ,0,0.,0.,1.8\\Version=ES64L-G16RevA.03\HF=-102.0089929\MP2=-102.868598
 5\MP3=-102.8203211\PUHF=-102.0089929\PMP2-0=-102.8685985\MP4SDQ=-102.8
 79425\CCSD=-102.8685695\CCSD(T)=-102.9210274\RMSD=9.621e-09\PG=C*V [C*
 (O1Cr1)]\\@


 Boundary, n.  In political geography, an imaginary
 line between two nations, separating the imaginary
 rights of one from the imaginary rights of another.
                               -- Ambrose Bierce
 Job cpu time:       0 days 15 hours 25 minutes  1.8 seconds.
 Elapsed time:       0 days  0 hours 29 minutes 14.0 seconds.
 File lengths (MBytes):  RWF=   3802 Int=      0 D2E=      0 Chk=     23 Scr=      1
 Normal termination of Gaussian 16 at Sun Mar 18 16:47:52 2018.
