 Entering Gaussian System, Link 0=g16
 Initial command:
 /home1/apps/gaussian/16rA.03/g16/l1.exe "/tmp/Gau-216223.inp" -scrdir="/tmp/"
 Entering Link 1 = /home1/apps/gaussian/16rA.03/g16/l1.exe PID=    216224.
  
 Copyright (c) 1988,1990,1992,1993,1995,1998,2003,2009,2016,
            Gaussian, Inc.  All Rights Reserved.
  
 This is part of the Gaussian(R) 16 program.  It is based on
 the Gaussian(R) 09 system (copyright 2009, Gaussian, Inc.),
 the Gaussian(R) 03 system (copyright 2003, Gaussian, Inc.),
 the Gaussian(R) 98 system (copyright 1998, Gaussian, Inc.),
 the Gaussian(R) 94 system (copyright 1995, Gaussian, Inc.),
 the Gaussian 92(TM) system (copyright 1992, Gaussian, Inc.),
 the Gaussian 90(TM) system (copyright 1990, Gaussian, Inc.),
 the Gaussian 88(TM) system (copyright 1988, Gaussian, Inc.),
 the Gaussian 86(TM) system (copyright 1986, Carnegie Mellon
 University), and the Gaussian 82(TM) system (copyright 1983,
 Carnegie Mellon University). Gaussian is a federally registered
 trademark of Gaussian, Inc.
  
 This software contains proprietary and confidential information,
 including trade secrets, belonging to Gaussian, Inc.
  
 This software is provided under written license and may be
 used, copied, transmitted, or stored only in accord with that
 written license.
  
 The following legend is applicable only to US Government
 contracts under FAR:
  
                    RESTRICTED RIGHTS LEGEND
  
 Use, reproduction and disclosure by the US Government is
 subject to restrictions as set forth in subparagraphs (a)
 and (c) of the Commercial Computer Software - Restricted
 Rights clause in FAR 52.227-19.
  
 Gaussian, Inc.
 340 Quinnipiac St., Bldg. 40, Wallingford CT 06492
  
  
 ---------------------------------------------------------------
 Warning -- This program may not be used in any manner that
 competes with the business of Gaussian, Inc. or will provide
 assistance to any competitor of Gaussian, Inc.  The licensee
 of this program is prohibited from giving any competitor of
 Gaussian, Inc. access to this program.  By using this program,
 the user acknowledges that Gaussian, Inc. is engaged in the
 business of creating and licensing software in the field of
 computational chemistry and represents and warrants to the
 licensee that it is not a competitor of Gaussian, Inc. and that
 it will not use this program in any manner prohibited above.
 ---------------------------------------------------------------
  

 Cite this work as:
 Gaussian 16, Revision A.03,
 M. J. Frisch, G. W. Trucks, H. B. Schlegel, G. E. Scuseria, 
 M. A. Robb, J. R. Cheeseman, G. Scalmani, V. Barone, 
 G. A. Petersson, H. Nakatsuji, X. Li, M. Caricato, A. V. Marenich, 
 J. Bloino, B. G. Janesko, R. Gomperts, B. Mennucci, H. P. Hratchian, 
 J. V. Ortiz, A. F. Izmaylov, J. L. Sonnenberg, D. Williams-Young, 
 F. Ding, F. Lipparini, F. Egidi, J. Goings, B. Peng, A. Petrone, 
 T. Henderson, D. Ranasinghe, V. G. Zakrzewski, J. Gao, N. Rega, 
 G. Zheng, W. Liang, M. Hada, M. Ehara, K. Toyota, R. Fukuda, 
 J. Hasegawa, M. Ishida, T. Nakajima, Y. Honda, O. Kitao, H. Nakai, 
 T. Vreven, K. Throssell, J. A. Montgomery, Jr., J. E. Peralta, 
 F. Ogliaro, M. J. Bearpark, J. J. Heyd, E. N. Brothers, K. N. Kudin, 
 V. N. Staroverov, T. A. Keith, R. Kobayashi, J. Normand, 
 K. Raghavachari, A. P. Rendell, J. C. Burant, S. S. Iyengar, 
 J. Tomasi, M. Cossi, J. M. Millam, M. Klene, C. Adamo, R. Cammi, 
 J. W. Ochterski, R. L. Martin, K. Morokuma, O. Farkas, 
 J. B. Foresman, and D. J. Fox, Gaussian, Inc., Wallingford CT, 2016.
 
 ******************************************
 Gaussian 16:  ES64L-G16RevA.03 25-Dec-2016
                 5-May-2018 
 ******************************************
 %MEM=160GB
 %CPU=0-31
 SetSPE:  set environment variable "MP_BIND" = "yes"
 SetSPE:  set environment variable "MP_BLIST" = "0,1,2,3,4,5,6,7,8,9,10,11,12,13,14,15,16,17,18,19,20,21,22,23,24,25,26,27,28,29,30,31"
 Will use up to   32 processors via shared memory.
 %RWF=/scratch/04843/aannabe/gaussian/
 %Int=/scratch/04843/aannabe/gaussian/
 %D2E=/scratch/04843/aannabe/gaussian/
 %NoSave
 %CHK=MnH
 ----------------------------------------------------------------------
 #P ROCCSD(T)=(maxcyc=150, Full, SaveAmplitudes, ReadAmplitudes)/Gen 5d
  7f SCF=(maxcycles=300, VShift=400) Integral(NoXCTest) MaxDisk=500GB P
 op=Full Pseudo=Read Guess=Read IOp(5/15=2)
 ----------------------------------------------------------------------
 1/38=1,172=1/1;
 2/12=2,17=6,18=5,40=1/2;
 3/5=7,8=11,11=2,16=1,17=8,25=1,30=1,47=8,116=101/1,2,3;
 4/5=1/1;
 5/5=2,7=300,10=400,15=2,38=6/2;
 8/5=-1,6=4,9=120000,10=90,24=1/1,4;
 9/5=7,6=150,14=2,77=1/13;
 6/7=3/1;
 99/5=1,9=1/99;
 Leave Link    1 at Sat May  5 08:31:46 2018, MaxMem= 21474836480 cpu:               2.9 elap:               0.1
 (Enter /home1/apps/gaussian/16rA.03/g16/l101.exe)
 ---
 MnH
 ---
 Symbolic Z-matrix:
 Charge =  0 Multiplicity = 7
 Mn                    0.        0.        0. 
 H                     0.        0.        1.5 
 
 ITRead=  0  0
 MicOpt= -1 -1
 NAtoms=      2 NQM=        2 NQMF=       0 NMMI=      0 NMMIF=      0
                NMic=       0 NMicF=      0.
                    Isotopes and Nuclear Properties:
 (Nuclear quadrupole moments (NQMom) in fm**2, nuclear magnetic moments (NMagM)
  in nuclear magnetons)

  Atom         1           2
 IAtWgt=          55           1
 AtmWgt=  54.9380463   1.0078250
 NucSpn=           5           1
 AtZEff=  -0.0000000  -0.0000000
 NQMom=   33.0000000   0.0000000
 NMagM=    3.4532000   2.7928460
 AtZNuc=  25.0000000   1.0000000
 Leave Link  101 at Sat May  5 08:31:46 2018, MaxMem= 21474836480 cpu:               2.7 elap:               0.1
 (Enter /home1/apps/gaussian/16rA.03/g16/l202.exe)
                          Input orientation:                          
 ---------------------------------------------------------------------
 Center     Atomic      Atomic             Coordinates (Angstroms)
 Number     Number       Type             X           Y           Z
 ---------------------------------------------------------------------
      1         25           0        0.000000    0.000000    0.000000
      2          1           0        0.000000    0.000000    1.500000
 ---------------------------------------------------------------------
 Stoichiometry    HMn(7)
 Framework group  C*V[C*(HMn)]
 Deg. of freedom     1
 Full point group                 C*V     NOp   4
 Largest Abelian subgroup         C2V     NOp   4
 Largest concise Abelian subgroup C1      NOp   1
                         Standard orientation:                         
 ---------------------------------------------------------------------
 Center     Atomic      Atomic             Coordinates (Angstroms)
 Number     Number       Type             X           Y           Z
 ---------------------------------------------------------------------
      1         25           0        0.000000    0.000000    0.057692
      2          1           0        0.000000    0.000000   -1.442308
 ---------------------------------------------------------------------
 Rotational constants (GHZ):           0.0000000         226.9574115         226.9574115
 Leave Link  202 at Sat May  5 08:31:47 2018, MaxMem= 21474836480 cpu:               0.5 elap:               0.0
 (Enter /home1/apps/gaussian/16rA.03/g16/l301.exe)
 General basis read from cards:  (5D, 7F)
 Centers:       1
 S 1 1.00
     Exponent=  1.2471540000D+04 Coefficients=  1.0000000000D+00
 S 1 1.00
     Exponent=  4.5017430000D+03 Coefficients=  1.0000000000D+00
 S 1 1.00
     Exponent=  1.7552120000D+03 Coefficients=  1.0000000000D+00
 S 1 1.00
     Exponent=  7.2730390000D+02 Coefficients=  1.0000000000D+00
 S 1 1.00
     Exponent=  3.1636780000D+02 Coefficients=  1.0000000000D+00
 S 1 1.00
     Exponent=  1.4300980000D+02 Coefficients=  1.0000000000D+00
 S 1 1.00
     Exponent=  6.6218050000D+01 Coefficients=  1.0000000000D+00
 S 1 1.00
     Exponent=  2.9918960000D+01 Coefficients=  1.0000000000D+00
 S 1 1.00
     Exponent=  1.4303180000D+01 Coefficients=  1.0000000000D+00
 S 1 1.00
     Exponent=  6.8394510000D+00 Coefficients=  1.0000000000D+00
 S 1 1.00
     Exponent=  3.0123740000D+00 Coefficients=  1.0000000000D+00
 S 1 1.00
     Exponent=  1.4188080000D+00 Coefficients=  1.0000000000D+00
 S 1 1.00
     Exponent=  6.2362400000D-01 Coefficients=  1.0000000000D+00
 S 1 1.00
     Exponent=  1.3409800000D-01 Coefficients=  1.0000000000D+00
 S 1 1.00
     Exponent=  6.5548000000D-02 Coefficients=  1.0000000000D+00
 S 1 1.00
     Exponent=  2.9584000000D-02 Coefficients=  1.0000000000D+00
 S 1 1.00
     Exponent=  4.1714000000D+00 Coefficients=  1.0000000000D+00
 S 1 1.00
     Exponent=  1.0701000000D+00 Coefficients=  1.0000000000D+00
 S 1 1.00
     Exponent=  1.3350000000D-02 Coefficients=  1.0000000000D+00
 P 1 1.00
     Exponent=  3.8362740000D+03 Coefficients=  1.0000000000D+00
 P 1 1.00
     Exponent=  1.2460480000D+03 Coefficients=  1.0000000000D+00
 P 1 1.00
     Exponent=  4.7675350000D+02 Coefficients=  1.0000000000D+00
 P 1 1.00
     Exponent=  2.0218950000D+02 Coefficients=  1.0000000000D+00
 P 1 1.00
     Exponent=  9.2094870000D+01 Coefficients=  1.0000000000D+00
 P 1 1.00
     Exponent=  4.4147200000D+01 Coefficients=  1.0000000000D+00
 P 1 1.00
     Exponent=  2.1854680000D+01 Coefficients=  1.0000000000D+00
 P 1 1.00
     Exponent=  1.1085960000D+01 Coefficients=  1.0000000000D+00
 P 1 1.00
     Exponent=  5.6741080000D+00 Coefficients=  1.0000000000D+00
 P 1 1.00
     Exponent=  2.8231700000D+00 Coefficients=  1.0000000000D+00
 P 1 1.00
     Exponent=  1.3686210000D+00 Coefficients=  1.0000000000D+00
 P 1 1.00
     Exponent=  6.4443100000D-01 Coefficients=  1.0000000000D+00
 P 1 1.00
     Exponent=  2.4834600000D-01 Coefficients=  1.0000000000D+00
 P 1 1.00
     Exponent=  9.7175000000D-02 Coefficients=  1.0000000000D+00
 P 1 1.00
     Exponent=  3.6565000000D-02 Coefficients=  1.0000000000D+00
 P 1 1.00
     Exponent=  6.0568000000D+00 Coefficients=  1.0000000000D+00
 P 1 1.00
     Exponent=  1.3911000000D+00 Coefficients=  1.0000000000D+00
 P 1 1.00
     Exponent=  1.3760000000D-02 Coefficients=  1.0000000000D+00
 D 1 1.00
     Exponent=  1.0190400000D+02 Coefficients=  1.0000000000D+00
 D 1 1.00
     Exponent=  3.0033700000D+01 Coefficients=  1.0000000000D+00
 D 1 1.00
     Exponent=  1.0923800000D+01 Coefficients=  1.0000000000D+00
 D 1 1.00
     Exponent=  4.3974000000D+00 Coefficients=  1.0000000000D+00
 D 1 1.00
     Exponent=  1.8159500000D+00 Coefficients=  1.0000000000D+00
 D 1 1.00
     Exponent=  7.2573100000D-01 Coefficients=  1.0000000000D+00
 D 1 1.00
     Exponent=  2.6996100000D-01 Coefficients=  1.0000000000D+00
 D 1 1.00
     Exponent=  8.7760000000D-02 Coefficients=  1.0000000000D+00
 D 1 1.00
     Exponent=  3.9511000000D+00 Coefficients=  1.0000000000D+00
 D 1 1.00
     Exponent=  1.8488000000D+00 Coefficients=  1.0000000000D+00
 D 1 1.00
     Exponent=  2.8530000000D-02 Coefficients=  1.0000000000D+00
 F 1 1.00
     Exponent=  5.1541000000D+00 Coefficients=  1.0000000000D+00
 F 1 1.00
     Exponent=  1.9044000000D+00 Coefficients=  1.0000000000D+00
 F 1 1.00
     Exponent=  6.4380000000D-01 Coefficients=  1.0000000000D+00
 F 1 1.00
     Exponent=  2.1764000000D-01 Coefficients=  1.0000000000D+00
 G 1 1.00
     Exponent=  4.7163000000D+00 Coefficients=  1.0000000000D+00
 G 1 1.00
     Exponent=  1.7022000000D+00 Coefficients=  1.0000000000D+00
 G 1 1.00
     Exponent=  6.1436000000D-01 Coefficients=  1.0000000000D+00
 ****
 Centers:       2
 S 1 1.00
     Exponent=  3.3870000000D+01 Coefficients=  1.0000000000D+00
 S 1 1.00
     Exponent=  5.0950000000D+00 Coefficients=  1.0000000000D+00
 S 1 1.00
     Exponent=  1.1590000000D+00 Coefficients=  1.0000000000D+00
 S 1 1.00
     Exponent=  3.2580000000D-01 Coefficients=  1.0000000000D+00
 S 1 1.00
     Exponent=  1.0270000000D-01 Coefficients=  1.0000000000D+00
 S 1 1.00
     Exponent=  2.5260000000D-02 Coefficients=  1.0000000000D+00
 P 1 1.00
     Exponent=  1.4070000000D+00 Coefficients=  1.0000000000D+00
 P 1 1.00
     Exponent=  3.8800000000D-01 Coefficients=  1.0000000000D+00
 P 1 1.00
     Exponent=  1.0200000000D-01 Coefficients=  1.0000000000D+00
 D 1 1.00
     Exponent=  1.0570000000D+00 Coefficients=  1.0000000000D+00
 D 1 1.00
     Exponent=  2.4700000000D-01 Coefficients=  1.0000000000D+00
 ****
 ======================================================================================================
                                       Pseudopotential Parameters
 ======================================================================================================
  Center     Atomic      Valence      Angular      Power
  Number     Number     Electrons     Momentum     of R      Exponent        Coefficient   SO-Coeffient
 ======================================================================================================
    1         25           15
                                      D and up 
                                                     1       21.9193743       15.00000000    0.00000000
                                                     3       21.3552713      328.79061500    0.00000000
                                                     2       21.2716265     -162.05172805    0.00000000
                                                     2        7.9391396       -1.82694273    0.00000000
                                      S - D
                                                     2       18.9204497      244.66870493    0.00000000
                                                     2        8.3276476       33.54162717    0.00000000
                                      P - D
                                                     2       20.1734702      162.35033686    0.00000000
                                                     2        7.8004787       24.17956695    0.00000000
    2          1            1
                                      P and up 
                                                     2       21.7769666      -10.85192405    0.00000000
                                                     1       21.2435951        1.00000000    0.00000000
                                                     3       21.2435951       21.24359508    0.00000000
                                      S - P
                                                     2        1.0000000        0.00000000    0.00000000
 ======================================================================================================
 Ernie: Thresh=  0.10000D-02 Tol=  0.10000D-05 Strict=F.
 There are   115 symmetry adapted cartesian basis functions of A1  symmetry.
 There are    26 symmetry adapted cartesian basis functions of A2  symmetry.
 There are    55 symmetry adapted cartesian basis functions of B1  symmetry.
 There are    55 symmetry adapted cartesian basis functions of B2  symmetry.
 There are    89 symmetry adapted basis functions of A1  symmetry.
 There are    23 symmetry adapted basis functions of A2  symmetry.
 There are    48 symmetry adapted basis functions of B1  symmetry.
 There are    48 symmetry adapted basis functions of B2  symmetry.
   208 basis functions,   251 primitive gaussians,   251 cartesian basis functions
    11 alpha electrons        5 beta electrons
       nuclear repulsion energy         5.2917721092 Hartrees.
 IExCor=    0 DFT=F Ex=HF Corr=None ExCW=0 ScaHFX=  1.000000
 ScaDFX=  1.000000  1.000000  1.000000  1.000000 ScalE2=  1.000000  1.000000
 IRadAn=      5 IRanWt=     -1 IRanGd=            0 ICorTp=0 IEmpDi=  4
 NAtoms=    2 NActive=    2 NUniq=    2 SFac= 1.00D+00 NAtFMM=   60 NAOKFM=F Big=F
 Integral buffers will be    131072 words long.
 Raffenetti 2 integral format.
 Two-electron integral symmetry is turned on.
 Leave Link  301 at Sat May  5 08:31:47 2018, MaxMem= 21474836480 cpu:               3.0 elap:               0.1
 (Enter /home1/apps/gaussian/16rA.03/g16/l302.exe)
 NPDir=0 NMtPBC=     1 NCelOv=     1 NCel=       1 NClECP=     1 NCelD=      1
         NCelK=      1 NCelE2=     1 NClLst=     1 CellRange=     0.0.
 One-electron integrals computed using PRISM.
 One-electron integral symmetry used in STVInt
   4 Symmetry operations used in ECPInt.
 ECPInt:  NShTT=    2211 NPrTT=    2211 LenC2=    2194 LenP2D=    2193.
 LDataN:  DoStor=T MaxTD1= 8 Len=  415
 NBasis=   208 RedAO= T EigKep=  1.31D-06  NBF=    89    23    48    48
 NBsUse=   205 1.00D-06 EigRej=  1.75D-07 NBFU=    88    23    47    47
 Leave Link  302 at Sat May  5 08:31:47 2018, MaxMem= 21474836480 cpu:               6.8 elap:               0.2
 (Enter /home1/apps/gaussian/16rA.03/g16/l303.exe)
 DipDrv:  MaxL=1.
 Leave Link  303 at Sat May  5 08:31:47 2018, MaxMem= 21474836480 cpu:               1.1 elap:               0.1
 (Enter /home1/apps/gaussian/16rA.03/g16/l401.exe)
 Initial guess from the checkpoint file:  "MnH.chk"
 B after Tr=     0.000000    0.000000    0.000000
         Rot=    1.000000    0.000000    0.000000    0.000000 Ang=   0.00 deg.
 Guess basis will be translated and rotated to current coordinates.
 JPrj=2 DoOrth=T DoCkMO=T.
 Initial guess orbital symmetries:
       Occupied  (SG) (PI) (PI) (SG) (SG) (DLTA) (DLTA) (SG) (PI)
                 (PI) (SG)
       Virtual   (PI) (PI) (SG) (SG) (PI) (PI) (DLTA) (DLTA) (SG)
                 (PI) (PI) (SG) (SG) (SG) (PI) (PI) (SG) (DLTA)
                 (DLTA) (PI) (PI) (PI) (PI) (SG) (SG) (SG) (SG)
                 (DLTA) (DLTA) (PHI) (PHI) (PI) (PI) (PI) (PI)
                 (SG) (SG) (DLTA) (DLTA) (PI) (PI) (SG) (DLTA)
                 (DLTA) (PI) (PI) (SG) (PI) (PI) (SG) (SG) (PHI)
                 (PHI) (DLTA) (DLTA) (PI) (PI) (SG) (PI) (PI) (SG)
                 (?A) (?A) (PHI) (PHI) (SG) (DLTA) (DLTA) (PI)
                 (PI) (DLTA) (DLTA) (SG) (PI) (PI) (SG) (DLTA)
                 (DLTA) (PI) (PI) (PI) (PI) (SG) (SG) (SG) (PHI)
                 (PHI) (DLTA) (DLTA) (PI) (PI) (SG) (DLTA) (DLTA)
                 (PI) (PI) (PI) (PI) (SG) (SG) (?A) (?A) (PHI)
                 (PHI) (DLTA) (DLTA) (PI) (PI) (SG) (SG) (SG) (DLTA)
                 (DLTA) (PI) (PI) (SG) (PI) (PI) (PHI) (PHI) (DLTA)
                 (DLTA) (PI) (PI) (SG) (SG) (?A) (?A) (PHI) (PHI)
                 (DLTA) (DLTA) (PI) (PI) (SG) (SG) (DLTA) (DLTA)
                 (PI) (PI) (SG) (PI) (PI) (SG) (SG) (DLTA) (DLTA)
                 (PI) (PI) (SG) (PI) (PI) (SG) (SG) (SG) (PI) (PI)
                 (SG) (DLTA) (DLTA) (PI) (PI) (SG) (SG) (PI) (PI)
                 (SG) (SG) (DLTA) (DLTA) (PI) (PI) (SG) (PI) (PI)
                 (SG) (SG) (PI) (PI) (SG) (SG) (PI) (PI) (SG) (SG)
                 (PI) (PI) (SG) (SG) (PI) (PI) (SG) (SG) (SG)
 The electronic state of the initial guess is 7-SG.
 Leave Link  401 at Sat May  5 08:31:47 2018, MaxMem= 21474836480 cpu:               4.6 elap:               0.2
 (Enter /home1/apps/gaussian/16rA.03/g16/l502.exe)
 Keep R1 and R2 ints in memory in symmetry-blocked form, NReq=296667361.
 FoFCou: FMM=F IPFlag=           8 FMFlag=           0 FMFlg1=           0
         NFxFlg=           0 DoJE=F BraDBF=F KetDBF=F FulRan=T
         wScrn=  0.000000 ICntrl=       600 IOpCl=  0 I1Cent=           0 NGrid=           0
         NMat0=    1 NMatS0=  21736 NMatT0=    0 NMatD0=    1 NMtDS0=    0 NMtDT0=    0
 Petite list used in FoFCou.
 Restricted open shell SCF:
 Using DIIS extrapolation, IDIIS=  1040.
 NGot= 21474836480 LenX= 21353895727 LenY= 21353832285
 Requested convergence on RMS density matrix=1.00D-08 within 300 cycles.
 Requested convergence on MAX density matrix=1.00D-06.
 Requested convergence on             energy=1.00D-06.
 Virtual orbitals will be shifted by   0.400 hartree.
 No special actions if energy rises.

 Cycle   1  Pass 1  IDiag  1:
 E= -103.063437122572    
 DIIS: error= 4.33D-01 at cycle   1 NSaved=   1.
 NSaved= 1 IEnMin= 1 EnMin= -103.063437122572     IErMin= 1 ErrMin= 4.33D-01
 ErrMax= 4.33D-01  0.00D+00 EMaxC= 1.00D-01 BMatC= 2.81D+01 BMatP= 2.81D+01
 IDIUse=3 WtCom= 0.00D+00 WtEn= 1.00D+00
 Coeff-Com:  0.100D+01
 Coeff-En:   0.100D+01
 Coeff:      0.100D+01
 Gap=     0.032 Goal=   None    Shift=    0.400
 GapD=    0.032 DampG=0.250 DampE=0.125 DampFc=0.1250 IDamp=-1.
 Damping current iteration by 1.25D-01
 RMSDP=2.19D-02 MaxDP=1.53D+00              OVMax= 5.08D-02

 Cycle   2  Pass 1  IDiag  1:
 E= -103.151395116388     Delta-E=       -0.087957993816 Rises=F Damp=T
 DIIS: error= 3.75D-01 at cycle   2 NSaved=   2.
 NSaved= 2 IEnMin= 2 EnMin= -103.151395116388     IErMin= 2 ErrMin= 3.75D-01
 ErrMax= 3.75D-01  0.00D+00 EMaxC= 1.00D-01 BMatC= 2.13D+01 BMatP= 2.81D+01
 IDIUse=3 WtCom= 0.00D+00 WtEn= 1.00D+00
 Coeff-Com: -0.674D+01 0.774D+01
 Coeff-En:   0.000D+00 0.100D+01
 Coeff:      0.000D+00 0.100D+01
 Gap=     0.062 Goal=   None    Shift=    0.400
 RMSDP=1.91D-02 MaxDP=1.34D+00 DE=-8.80D-02 OVMax= 4.87D-03

 Cycle   3  Pass 1  IDiag  1:
 E= -103.775853034171     Delta-E=       -0.624457917782 Rises=F Damp=F
 DIIS: error= 1.87D-02 at cycle   3 NSaved=   3.
 NSaved= 3 IEnMin= 3 EnMin= -103.775853034171     IErMin= 3 ErrMin= 1.87D-02
 ErrMax= 1.87D-02  0.00D+00 EMaxC= 1.00D-01 BMatC= 3.06D-02 BMatP= 2.13D+01
 IDIUse=3 WtCom= 8.13D-01 WtEn= 1.87D-01
 Coeff-Com: -0.237D+00 0.253D+00 0.985D+00
 Coeff-En:   0.000D+00 0.000D+00 0.100D+01
 Coeff:     -0.193D+00 0.205D+00 0.987D+00
 Gap=     0.084 Goal=   None    Shift=    0.400
 RMSDP=4.78D-04 MaxDP=3.34D-02 DE=-6.24D-01 OVMax= 2.67D-02

 Cycle   4  Pass 1  IDiag  1:
 E= -103.778965633719     Delta-E=       -0.003112599548 Rises=F Damp=F
 DIIS: error= 9.06D-03 at cycle   4 NSaved=   4.
 NSaved= 4 IEnMin= 4 EnMin= -103.778965633719     IErMin= 4 ErrMin= 9.06D-03
 ErrMax= 9.06D-03  0.00D+00 EMaxC= 1.00D-01 BMatC= 8.38D-03 BMatP= 3.06D-02
 IDIUse=3 WtCom= 9.09D-01 WtEn= 9.06D-02
 Coeff-Com: -0.471D+00 0.533D+00 0.298D+00 0.640D+00
 Coeff-En:   0.000D+00 0.000D+00 0.352D+00 0.648D+00
 Coeff:     -0.428D+00 0.484D+00 0.303D+00 0.641D+00
 Gap=     0.067 Goal=   None    Shift=    0.400
 RMSDP=2.81D-04 MaxDP=1.96D-02 DE=-3.11D-03 OVMax= 5.56D-03

 Cycle   5  Pass 1  IDiag  1:
 E= -103.781067184901     Delta-E=       -0.002101551182 Rises=F Damp=F
 DIIS: error= 3.03D-03 at cycle   5 NSaved=   5.
 NSaved= 5 IEnMin= 5 EnMin= -103.781067184901     IErMin= 5 ErrMin= 3.03D-03
 ErrMax= 3.03D-03  0.00D+00 EMaxC= 1.00D-01 BMatC= 7.57D-04 BMatP= 8.38D-03
 IDIUse=3 WtCom= 9.70D-01 WtEn= 3.03D-02
 Coeff-Com: -0.455D+00 0.520D+00-0.795D-01-0.109D+00 0.112D+01
 Coeff-En:   0.000D+00 0.000D+00 0.000D+00 0.000D+00 0.100D+01
 Coeff:     -0.441D+00 0.504D+00-0.771D-01-0.106D+00 0.112D+01
 Gap=     0.064 Goal=   None    Shift=    0.400
 RMSDP=4.87D-05 MaxDP=3.11D-03 DE=-2.10D-03 OVMax= 2.99D-03

 Cycle   6  Pass 1  IDiag  1:
 E= -103.781241101926     Delta-E=       -0.000173917025 Rises=F Damp=F
 DIIS: error= 2.88D-03 at cycle   6 NSaved=   6.
 NSaved= 6 IEnMin= 6 EnMin= -103.781241101926     IErMin= 6 ErrMin= 2.88D-03
 ErrMax= 2.88D-03  0.00D+00 EMaxC= 1.00D-01 BMatC= 5.95D-04 BMatP= 7.57D-04
 IDIUse=3 WtCom= 9.71D-01 WtEn= 2.88D-02
 Coeff-Com: -0.415D+00 0.474D+00-0.747D-01-0.314D-01 0.291D-01 0.102D+01
 Coeff-En:   0.000D+00 0.000D+00 0.000D+00 0.000D+00 0.000D+00 0.100D+01
 Coeff:     -0.403D+00 0.460D+00-0.726D-01-0.305D-01 0.283D-01 0.102D+01
 Gap=     0.064 Goal=   None    Shift=    0.400
 RMSDP=4.18D-05 MaxDP=3.26D-03 DE=-1.74D-04 OVMax= 2.02D-03

 Cycle   7  Pass 1  IDiag  1:
 E= -103.781290740838     Delta-E=       -0.000049638912 Rises=F Damp=F
 DIIS: error= 2.61D-03 at cycle   7 NSaved=   7.
 NSaved= 7 IEnMin= 7 EnMin= -103.781290740838     IErMin= 7 ErrMin= 2.61D-03
 ErrMax= 2.61D-03  0.00D+00 EMaxC= 1.00D-01 BMatC= 4.85D-04 BMatP= 5.95D-04
 IDIUse=3 WtCom= 9.74D-01 WtEn= 2.61D-02
 Coeff-Com: -0.362D+00 0.414D+00-0.589D-01-0.137D-02-0.100D+00-0.112D+00
 Coeff-Com:  0.122D+01
 Coeff-En:   0.000D+00 0.000D+00 0.000D+00 0.000D+00 0.000D+00 0.000D+00
 Coeff-En:   0.100D+01
 Coeff:     -0.353D+00 0.403D+00-0.574D-01-0.133D-02-0.975D-01-0.109D+00
 Coeff:      0.122D+01
 Gap=     0.065 Goal=   None    Shift=    0.400
 RMSDP=3.88D-05 MaxDP=3.12D-03 DE=-4.96D-05 OVMax= 1.49D-03

 Cycle   8  Pass 1  IDiag  1:
 E= -103.781346084330     Delta-E=       -0.000055343492 Rises=F Damp=F
 DIIS: error= 2.31D-03 at cycle   8 NSaved=   8.
 NSaved= 8 IEnMin= 8 EnMin= -103.781346084330     IErMin= 8 ErrMin= 2.31D-03
 ErrMax= 2.31D-03  0.00D+00 EMaxC= 1.00D-01 BMatC= 3.82D-04 BMatP= 4.85D-04
 IDIUse=3 WtCom= 9.77D-01 WtEn= 2.31D-02
 Coeff-Com: -0.281D+00 0.321D+00-0.406D-01-0.604D-02-0.143D-01-0.513D+00
 Coeff-Com: -0.242D+00 0.178D+01
 Coeff-En:   0.000D+00 0.000D+00 0.000D+00 0.000D+00 0.000D+00 0.000D+00
 Coeff-En:   0.000D+00 0.100D+01
 Coeff:     -0.275D+00 0.314D+00-0.397D-01-0.590D-02-0.140D-01-0.501D+00
 Coeff:     -0.236D+00 0.176D+01
 Gap=     0.066 Goal=   None    Shift=    0.400
 RMSDP=4.65D-05 MaxDP=3.77D-03 DE=-5.53D-05 OVMax= 1.50D-03

 Cycle   9  Pass 1  IDiag  1:
 E= -103.781417616331     Delta-E=       -0.000071532001 Rises=F Damp=F
 DIIS: error= 1.83D-03 at cycle   9 NSaved=   9.
 NSaved= 9 IEnMin= 9 EnMin= -103.781417616331     IErMin= 9 ErrMin= 1.83D-03
 ErrMax= 1.83D-03  0.00D+00 EMaxC= 1.00D-01 BMatC= 2.43D-04 BMatP= 3.82D-04
 IDIUse=3 WtCom= 9.82D-01 WtEn= 1.83D-02
 Coeff-Com: -0.253D+00 0.290D+00-0.353D-01-0.299D-02-0.379D-01-0.410D+00
 Coeff-Com: -0.207D-01 0.820D+00 0.651D+00
 Coeff-En:   0.000D+00 0.000D+00 0.000D+00 0.000D+00 0.000D+00 0.000D+00
 Coeff-En:   0.000D+00 0.000D+00 0.100D+01
 Coeff:     -0.249D+00 0.284D+00-0.346D-01-0.293D-02-0.372D-01-0.403D+00
 Coeff:     -0.203D-01 0.805D+00 0.657D+00
 Gap=     0.066 Goal=   None    Shift=    0.400
 RMSDP=2.27D-05 MaxDP=1.73D-03 DE=-7.15D-05 OVMax= 1.13D-03

 Cycle  10  Pass 1  IDiag  1:
 E= -103.781447198076     Delta-E=       -0.000029581745 Rises=F Damp=F
 DIIS: error= 1.64D-03 at cycle  10 NSaved=  10.
 NSaved=10 IEnMin=10 EnMin= -103.781447198076     IErMin=10 ErrMin= 1.64D-03
 ErrMax= 1.64D-03  0.00D+00 EMaxC= 1.00D-01 BMatC= 1.92D-04 BMatP= 2.43D-04
 IDIUse=3 WtCom= 9.84D-01 WtEn= 1.64D-02
 Coeff-Com: -0.119D+00 0.136D+00-0.231D-01 0.190D-02-0.752D-02 0.433D+00
 Coeff-Com:  0.257D+00-0.158D+01-0.253D+01 0.443D+01
 Coeff-En:   0.000D+00 0.000D+00 0.000D+00 0.000D+00 0.000D+00 0.000D+00
 Coeff-En:   0.000D+00 0.000D+00 0.000D+00 0.100D+01
 Coeff:     -0.117D+00 0.134D+00-0.228D-01 0.187D-02-0.739D-02 0.426D+00
 Coeff:      0.253D+00-0.155D+01-0.249D+01 0.437D+01
 Gap=     0.067 Goal=   None    Shift=    0.400
 RMSDP=8.36D-05 MaxDP=6.78D-03 DE=-2.96D-05 OVMax= 1.43D-03

 Cycle  11  Pass 1  IDiag  1:
 E= -103.781513109919     Delta-E=       -0.000065911843 Rises=F Damp=F
 DIIS: error= 9.39D-04 at cycle  11 NSaved=  11.
 NSaved=11 IEnMin=11 EnMin= -103.781513109919     IErMin=11 ErrMin= 9.39D-04
 ErrMax= 9.39D-04  0.00D+00 EMaxC= 1.00D-01 BMatC= 6.07D-05 BMatP= 1.92D-04
 IDIUse=3 WtCom= 9.91D-01 WtEn= 9.39D-03
 Coeff-Com: -0.742D-01 0.848D-01-0.152D-01 0.361D-02-0.461D-01 0.438D+00
 Coeff-Com:  0.354D+00-0.845D+00-0.409D+01 0.448D+01 0.711D+00
 Coeff-En:   0.000D+00 0.000D+00 0.000D+00 0.000D+00 0.000D+00 0.000D+00
 Coeff-En:   0.000D+00 0.000D+00 0.000D+00 0.000D+00 0.100D+01
 Coeff:     -0.735D-01 0.840D-01-0.150D-01 0.357D-02-0.457D-01 0.433D+00
 Coeff:      0.351D+00-0.837D+00-0.406D+01 0.444D+01 0.714D+00
 Gap=     0.067 Goal=   None    Shift=    0.400
 RMSDP=3.84D-05 MaxDP=3.06D-03 DE=-6.59D-05 OVMax= 1.15D-03

 Cycle  12  Pass 1  IDiag  1:
 E= -103.781534759966     Delta-E=       -0.000021650047 Rises=F Damp=F
 DIIS: error= 6.67D-04 at cycle  12 NSaved=  12.
 NSaved=12 IEnMin=12 EnMin= -103.781534759966     IErMin=12 ErrMin= 6.67D-04
 ErrMax= 6.67D-04  0.00D+00 EMaxC= 1.00D-01 BMatC= 2.63D-05 BMatP= 6.07D-05
 IDIUse=3 WtCom= 9.93D-01 WtEn= 6.67D-03
 Coeff-Com: -0.726D-01 0.830D-01-0.148D-01 0.375D-02-0.437D-01 0.413D+00
 Coeff-Com:  0.343D+00-0.894D+00-0.361D+01 0.416D+01 0.335D+00 0.300D+00
 Coeff-En:   0.000D+00 0.000D+00 0.000D+00 0.000D+00 0.000D+00 0.000D+00
 Coeff-En:   0.000D+00 0.000D+00 0.000D+00 0.000D+00 0.000D+00 0.100D+01
 Coeff:     -0.722D-01 0.825D-01-0.147D-01 0.372D-02-0.434D-01 0.410D+00
 Coeff:      0.340D+00-0.888D+00-0.358D+01 0.413D+01 0.333D+00 0.305D+00
 Gap=     0.067 Goal=   None    Shift=    0.400
 RMSDP=9.64D-06 MaxDP=6.82D-04 DE=-2.17D-05 OVMax= 7.22D-04

 Cycle  13  Pass 1  IDiag  1:
 E= -103.781540856740     Delta-E=       -0.000006096774 Rises=F Damp=F
 DIIS: error= 4.98D-04 at cycle  13 NSaved=  13.
 NSaved=13 IEnMin=13 EnMin= -103.781540856740     IErMin=13 ErrMin= 4.98D-04
 ErrMax= 4.98D-04  0.00D+00 EMaxC= 1.00D-01 BMatC= 2.00D-05 BMatP= 2.63D-05
 IDIUse=3 WtCom= 9.95D-01 WtEn= 4.98D-03
 Coeff-Com: -0.610D-01 0.697D-01-0.123D-01 0.564D-03-0.184D-01 0.265D+00
 Coeff-Com:  0.230D+00-0.874D+00-0.165D+01 0.214D+01 0.865D+00-0.187D+01
 Coeff-Com:  0.192D+01
 Coeff-En:   0.000D+00 0.000D+00 0.000D+00 0.000D+00 0.000D+00 0.000D+00
 Coeff-En:   0.000D+00 0.000D+00 0.000D+00 0.000D+00 0.000D+00 0.000D+00
 Coeff-En:   0.100D+01
 Coeff:     -0.607D-01 0.693D-01-0.123D-01 0.561D-03-0.183D-01 0.263D+00
 Coeff:      0.229D+00-0.869D+00-0.164D+01 0.212D+01 0.861D+00-0.186D+01
 Coeff:      0.191D+01
 Gap=     0.067 Goal=   None    Shift=    0.400
 RMSDP=9.59D-06 MaxDP=6.68D-04 DE=-6.10D-06 OVMax= 5.53D-04

 Cycle  14  Pass 1  IDiag  1:
 E= -103.781545350533     Delta-E=       -0.000004493793 Rises=F Damp=F
 DIIS: error= 4.16D-04 at cycle  14 NSaved=  14.
 NSaved=14 IEnMin=14 EnMin= -103.781545350533     IErMin=14 ErrMin= 4.16D-04
 ErrMax= 4.16D-04  0.00D+00 EMaxC= 1.00D-01 BMatC= 1.37D-05 BMatP= 2.00D-05
 IDIUse=3 WtCom= 9.96D-01 WtEn= 4.16D-03
 Coeff-Com: -0.183D-01 0.209D-01-0.331D-02-0.844D-03-0.704D-02 0.257D-01
 Coeff-Com: -0.117D-01 0.131D+00-0.338D+00 0.691D-01 0.194D+00-0.150D+00
 Coeff-Com: -0.275D+01 0.384D+01
 Coeff-En:   0.000D+00 0.000D+00 0.000D+00 0.000D+00 0.000D+00 0.000D+00
 Coeff-En:   0.000D+00 0.000D+00 0.000D+00 0.000D+00 0.000D+00 0.000D+00
 Coeff-En:   0.000D+00 0.100D+01
 Coeff:     -0.182D-01 0.208D-01-0.329D-02-0.841D-03-0.701D-02 0.256D-01
 Coeff:     -0.116D-01 0.131D+00-0.336D+00 0.689D-01 0.193D+00-0.149D+00
 Coeff:     -0.274D+01 0.382D+01
 Gap=     0.068 Goal=   None    Shift=    0.400
 RMSDP=2.39D-05 MaxDP=1.92D-03 DE=-4.49D-06 OVMax= 6.38D-04

 Cycle  15  Pass 1  IDiag  1:
 E= -103.781551459236     Delta-E=       -0.000006108703 Rises=F Damp=F
 DIIS: error= 2.84D-04 at cycle  15 NSaved=  15.
 NSaved=15 IEnMin=15 EnMin= -103.781551459236     IErMin=15 ErrMin= 2.84D-04
 ErrMax= 2.84D-04  0.00D+00 EMaxC= 1.00D-01 BMatC= 3.12D-06 BMatP= 1.37D-05
 IDIUse=3 WtCom= 9.97D-01 WtEn= 2.84D-03
 Coeff-Com: -0.763D-02 0.873D-02-0.149D-02 0.534D-03-0.747D-02 0.550D-01
 Coeff-Com:  0.757D-04 0.691D-01-0.602D+00 0.562D+00 0.764D-01-0.257D+00
 Coeff-Com: -0.212D+01 0.218D+01 0.104D+01
 Coeff-En:   0.000D+00 0.000D+00 0.000D+00 0.000D+00 0.000D+00 0.000D+00
 Coeff-En:   0.000D+00 0.000D+00 0.000D+00 0.000D+00 0.000D+00 0.000D+00
 Coeff-En:   0.000D+00 0.000D+00 0.100D+01
 Coeff:     -0.761D-02 0.870D-02-0.149D-02 0.532D-03-0.745D-02 0.548D-01
 Coeff:      0.755D-04 0.689D-01-0.601D+00 0.560D+00 0.762D-01-0.256D+00
 Coeff:     -0.211D+01 0.218D+01 0.104D+01
 Gap=     0.068 Goal=   None    Shift=    0.400
 RMSDP=1.07D-05 MaxDP=8.07D-04 DE=-6.11D-06 OVMax= 4.52D-04

 Cycle  16  Pass 1  IDiag  1:
 E= -103.781553202056     Delta-E=       -0.000001742821 Rises=F Damp=F
 DIIS: error= 1.78D-04 at cycle  16 NSaved=  16.
 NSaved=16 IEnMin=16 EnMin= -103.781553202056     IErMin=16 ErrMin= 1.78D-04
 ErrMax= 1.78D-04  0.00D+00 EMaxC= 1.00D-01 BMatC= 1.01D-06 BMatP= 3.12D-06
 IDIUse=3 WtCom= 9.98D-01 WtEn= 1.78D-03
 Coeff-Com: -0.168D-02 0.192D-02-0.600D-03 0.110D-02-0.301D-02 0.629D-01
 Coeff-Com:  0.644D-02-0.798D-01-0.444D+00 0.514D+00 0.508D+00-0.354D-01
 Coeff-Com: -0.245D+01 0.214D+01-0.193D+01 0.271D+01
 Coeff-En:   0.000D+00 0.000D+00 0.000D+00 0.000D+00 0.000D+00 0.000D+00
 Coeff-En:   0.000D+00 0.000D+00 0.000D+00 0.000D+00 0.000D+00 0.000D+00
 Coeff-En:   0.000D+00 0.000D+00 0.000D+00 0.100D+01
 Coeff:     -0.168D-02 0.192D-02-0.599D-03 0.110D-02-0.301D-02 0.627D-01
 Coeff:      0.642D-02-0.797D-01-0.443D+00 0.513D+00 0.507D+00-0.353D-01
 Coeff:     -0.244D+01 0.213D+01-0.192D+01 0.270D+01
 Gap=     0.068 Goal=   None    Shift=    0.400
 RMSDP=5.67D-06 MaxDP=3.69D-04 DE=-1.74D-06 OVMax= 3.22D-04

 Cycle  17  Pass 1  IDiag  1:
 E= -103.781553881348     Delta-E=       -0.000000679291 Rises=F Damp=F
 DIIS: error= 1.08D-04 at cycle  17 NSaved=  17.
 NSaved=17 IEnMin=17 EnMin= -103.781553881348     IErMin=17 ErrMin= 1.08D-04
 ErrMax= 1.08D-04  0.00D+00 EMaxC= 1.00D-01 BMatC= 3.35D-07 BMatP= 1.01D-06
 IDIUse=3 WtCom= 9.99D-01 WtEn= 1.08D-03
 Coeff-Com: -0.985D-03 0.113D-02-0.408D-03 0.737D-03-0.435D-02 0.503D-01
 Coeff-Com: -0.106D-01-0.106D-01-0.373D+00 0.317D+00 0.454D+00 0.430D+00
 Coeff-Com: -0.272D+01 0.250D+01-0.196D+01 0.692D+00 0.163D+01
 Coeff-En:   0.000D+00 0.000D+00 0.000D+00 0.000D+00 0.000D+00 0.000D+00
 Coeff-En:   0.000D+00 0.000D+00 0.000D+00 0.000D+00 0.000D+00 0.000D+00
 Coeff-En:   0.000D+00 0.000D+00 0.000D+00 0.000D+00 0.100D+01
 Coeff:     -0.984D-03 0.113D-02-0.408D-03 0.736D-03-0.435D-02 0.503D-01
 Coeff:     -0.106D-01-0.106D-01-0.373D+00 0.317D+00 0.453D+00 0.430D+00
 Coeff:     -0.272D+01 0.250D+01-0.196D+01 0.691D+00 0.163D+01
 Gap=     0.068 Goal=   None    Shift=    0.400
 RMSDP=2.07D-06 MaxDP=2.23D-04 DE=-6.79D-07 OVMax= 2.19D-04

 Cycle  18  Pass 1  IDiag  1:
 E= -103.781554135338     Delta-E=       -0.000000253990 Rises=F Damp=F
 DIIS: error= 6.61D-05 at cycle  18 NSaved=  18.
 NSaved=18 IEnMin=18 EnMin= -103.781554135338     IErMin=18 ErrMin= 6.61D-05
 ErrMax= 6.61D-05  0.00D+00 EMaxC= 1.00D-01 BMatC= 1.34D-07 BMatP= 3.35D-07
 IDIUse=1 WtCom= 1.00D+00 WtEn= 0.00D+00
 Coeff-Com:  0.120D-03-0.137D-03 0.642D-04 0.136D-03-0.454D-02 0.107D-01
 Coeff-Com: -0.180D-01 0.872D-01-0.154D+00 0.824D-02-0.108D-02 0.110D+01
 Coeff-Com: -0.239D+01 0.198D+01-0.987D+00 0.525D+00-0.264D+01 0.349D+01
 Coeff:      0.120D-03-0.137D-03 0.642D-04 0.136D-03-0.454D-02 0.107D-01
 Coeff:     -0.180D-01 0.872D-01-0.154D+00 0.824D-02-0.108D-02 0.110D+01
 Coeff:     -0.239D+01 0.198D+01-0.987D+00 0.525D+00-0.264D+01 0.349D+01
 Gap=     0.068 Goal=   None    Shift=    0.400
 RMSDP=2.07D-06 MaxDP=1.81D-04 DE=-2.54D-07 OVMax= 1.53D-04

 Cycle  19  Pass 1  IDiag  1:
 E= -103.781554244038     Delta-E=       -0.000000108700 Rises=F Damp=F
 DIIS: error= 4.31D-05 at cycle  19 NSaved=  19.
 NSaved=19 IEnMin=19 EnMin= -103.781554244038     IErMin=19 ErrMin= 4.31D-05
 ErrMax= 4.31D-05  0.00D+00 EMaxC= 1.00D-01 BMatC= 5.91D-08 BMatP= 1.34D-07
 IDIUse=1 WtCom= 1.00D+00 WtEn= 0.00D+00
 Coeff-Com:  0.118D-02-0.134D-02 0.353D-03-0.115D-03-0.103D-02-0.103D-01
 Coeff-Com: -0.125D-01 0.727D-01-0.105D-01-0.560D-01-0.223D+00 0.104D+01
 Coeff-Com: -0.155D+01 0.110D+01-0.676D+00 0.163D+01-0.389D+01 0.140D+01
 Coeff-Com:  0.219D+01
 Coeff:      0.118D-02-0.134D-02 0.353D-03-0.115D-03-0.103D-02-0.103D-01
 Coeff:     -0.125D-01 0.727D-01-0.105D-01-0.560D-01-0.223D+00 0.104D+01
 Coeff:     -0.155D+01 0.110D+01-0.676D+00 0.163D+01-0.389D+01 0.140D+01
 Coeff:      0.219D+01
 Gap=     0.068 Goal=   None    Shift=    0.400
 RMSDP=1.09D-06 MaxDP=1.05D-04 DE=-1.09D-07 OVMax= 1.14D-04

 Cycle  20  Pass 1  IDiag  1:
 E= -103.781554293845     Delta-E=       -0.000000049807 Rises=F Damp=F
 DIIS: error= 2.77D-05 at cycle  20 NSaved=  20.
 NSaved=20 IEnMin=20 EnMin= -103.781554293845     IErMin=20 ErrMin= 2.77D-05
 ErrMax= 2.77D-05  0.00D+00 EMaxC= 1.00D-01 BMatC= 3.02D-08 BMatP= 5.91D-08
 IDIUse=1 WtCom= 1.00D+00 WtEn= 0.00D+00
 Coeff-Com:  0.892D-03-0.102D-02 0.176D-03-0.113D-03 0.222D-02-0.731D-02
 Coeff-Com: -0.409D-02 0.339D-01-0.743D-01 0.522D-01-0.169D-01 0.436D+00
 Coeff-Com: -0.916D+00 0.719D+00-0.941D+00 0.183D+01-0.174D+01 0.379D+00
 Coeff-Com: -0.190D+01 0.314D+01
 Coeff:      0.892D-03-0.102D-02 0.176D-03-0.113D-03 0.222D-02-0.731D-02
 Coeff:     -0.409D-02 0.339D-01-0.743D-01 0.522D-01-0.169D-01 0.436D+00
 Coeff:     -0.916D+00 0.719D+00-0.941D+00 0.183D+01-0.174D+01 0.379D+00
 Coeff:     -0.190D+01 0.314D+01
 Gap=     0.068 Goal=   None    Shift=    0.400
 RMSDP=7.47D-07 MaxDP=5.74D-05 DE=-4.98D-08 OVMax= 8.04D-05

 Cycle  21  Pass 1  IDiag  1:
 E= -103.781554318365     Delta-E=       -0.000000024520 Rises=F Damp=F
 DIIS: error= 1.75D-05 at cycle  21 NSaved=  20.
 NSaved=20 IEnMin=20 EnMin= -103.781554318365     IErMin=20 ErrMin= 1.75D-05
 ErrMax= 1.75D-05  0.00D+00 EMaxC= 1.00D-01 BMatC= 1.48D-08 BMatP= 3.02D-08
 IDIUse=1 WtCom= 1.00D+00 WtEn= 0.00D+00
 Coeff-Com: -0.445D-07-0.567D-05-0.168D-03 0.201D-02-0.878D-02-0.294D-03
 Coeff-Com:  0.436D-01-0.949D-01 0.346D-01 0.464D-01 0.345D+00-0.766D+00
 Coeff-Com:  0.634D+00-0.838D+00 0.137D+01-0.123D+01 0.761D+00-0.205D+01
 Coeff-Com:  0.110D+01 0.165D+01
 Coeff:     -0.445D-07-0.567D-05-0.168D-03 0.201D-02-0.878D-02-0.294D-03
 Coeff:      0.436D-01-0.949D-01 0.346D-01 0.464D-01 0.345D+00-0.766D+00
 Coeff:      0.634D+00-0.838D+00 0.137D+01-0.123D+01 0.761D+00-0.205D+01
 Coeff:      0.110D+01 0.165D+01
 Gap=     0.068 Goal=   None    Shift=    0.400
 RMSDP=8.35D-07 MaxDP=5.20D-05 DE=-2.45D-08 OVMax= 5.65D-05

 Cycle  22  Pass 1  IDiag  1:
 E= -103.781554330803     Delta-E=       -0.000000012438 Rises=F Damp=F
 DIIS: error= 1.22D-05 at cycle  22 NSaved=  20.
 NSaved=20 IEnMin=20 EnMin= -103.781554330803     IErMin=20 ErrMin= 1.22D-05
 ErrMax= 1.22D-05  0.00D+00 EMaxC= 1.00D-01 BMatC= 6.81D-09 BMatP= 1.48D-08
 IDIUse=1 WtCom= 1.00D+00 WtEn= 0.00D+00
 Coeff-Com:  0.153D-04-0.192D-03 0.117D-02-0.107D-01 0.240D-02 0.386D-01
 Coeff-Com: -0.426D-01-0.277D-01 0.274D-01 0.324D+00-0.516D+00 0.357D+00
 Coeff-Com: -0.581D+00 0.947D+00-0.114D+01 0.947D+00-0.765D+00-0.917D-01
 Coeff-Com: -0.120D+01 0.273D+01
 Coeff:      0.153D-04-0.192D-03 0.117D-02-0.107D-01 0.240D-02 0.386D-01
 Coeff:     -0.426D-01-0.277D-01 0.274D-01 0.324D+00-0.516D+00 0.357D+00
 Coeff:     -0.581D+00 0.947D+00-0.114D+01 0.947D+00-0.765D+00-0.917D-01
 Coeff:     -0.120D+01 0.273D+01
 Gap=     0.068 Goal=   None    Shift=    0.400
 RMSDP=3.44D-07 MaxDP=2.79D-05 DE=-1.24D-08 OVMax= 4.20D-05

 Cycle  23  Pass 1  IDiag  1:
 E= -103.781554336892     Delta-E=       -0.000000006089 Rises=F Damp=F
 DIIS: error= 9.45D-06 at cycle  23 NSaved=  20.
 NSaved=20 IEnMin=20 EnMin= -103.781554336892     IErMin=20 ErrMin= 9.45D-06
 ErrMax= 9.45D-06  0.00D+00 EMaxC= 1.00D-01 BMatC= 3.95D-09 BMatP= 6.81D-09
 IDIUse=1 WtCom= 1.00D+00 WtEn= 0.00D+00
 Coeff-Com: -0.123D-03 0.665D-03-0.515D-02 0.479D-02 0.701D-02-0.106D-01
 Coeff-Com: -0.144D-01 0.968D-02 0.141D+00-0.125D+00 0.475D-01-0.410D+00
 Coeff-Com:  0.766D+00-0.765D+00 0.453D+00-0.189D+00 0.584D+00-0.223D+01
 Coeff-Com: -0.114D-01 0.275D+01
 Coeff:     -0.123D-03 0.665D-03-0.515D-02 0.479D-02 0.701D-02-0.106D-01
 Coeff:     -0.144D-01 0.968D-02 0.141D+00-0.125D+00 0.475D-01-0.410D+00
 Coeff:      0.766D+00-0.765D+00 0.453D+00-0.189D+00 0.584D+00-0.223D+01
 Coeff:     -0.114D-01 0.275D+01
 Gap=     0.068 Goal=   None    Shift=    0.400
 RMSDP=2.64D-07 MaxDP=1.66D-05 DE=-6.09D-09 OVMax= 3.17D-05

 Cycle  24  Pass 1  IDiag  1:
 E= -103.781554340350     Delta-E=       -0.000000003457 Rises=F Damp=F
 DIIS: error= 7.16D-06 at cycle  24 NSaved=  20.
 NSaved=20 IEnMin=20 EnMin= -103.781554340350     IErMin=20 ErrMin= 7.16D-06
 ErrMax= 7.16D-06  0.00D+00 EMaxC= 1.00D-01 BMatC= 2.30D-09 BMatP= 3.95D-09
 IDIUse=1 WtCom= 1.00D+00 WtEn= 0.00D+00
 Coeff-Com:  0.361D-03 0.696D-03 0.285D-02-0.927D-02-0.168D-01 0.204D-01
 Coeff-Com:  0.381D-01-0.515D-01 0.107D+00-0.928D-01-0.273D+00 0.549D+00
 Coeff-Com: -0.318D+00 0.334D-01-0.241D+00 0.106D+01-0.110D+01-0.124D+01
 Coeff-Com: -0.688D+00 0.322D+01
 Coeff:      0.361D-03 0.696D-03 0.285D-02-0.927D-02-0.168D-01 0.204D-01
 Coeff:      0.381D-01-0.515D-01 0.107D+00-0.928D-01-0.273D+00 0.549D+00
 Coeff:     -0.318D+00 0.334D-01-0.241D+00 0.106D+01-0.110D+01-0.124D+01
 Coeff:     -0.688D+00 0.322D+01
 Gap=     0.068 Goal=   None    Shift=    0.400
 RMSDP=2.26D-07 MaxDP=1.84D-05 DE=-3.46D-09 OVMax= 2.49D-05

 Cycle  25  Pass 1  IDiag  1:
 E= -103.781554342377     Delta-E=       -0.000000002027 Rises=F Damp=F
 DIIS: error= 5.04D-06 at cycle  25 NSaved=  20.
 NSaved=20 IEnMin=20 EnMin= -103.781554342377     IErMin=20 ErrMin= 5.04D-06
 ErrMax= 5.04D-06  0.00D+00 EMaxC= 1.00D-01 BMatC= 1.32D-09 BMatP= 2.30D-09
 IDIUse=1 WtCom= 1.00D+00 WtEn= 0.00D+00
 Coeff-Com:  0.604D-03-0.212D-02 0.744D-02-0.175D-01 0.757D-03 0.515D-01
 Coeff-Com: -0.825D-01 0.790D-01-0.277D-01-0.143D+00 0.334D+00-0.267D+00
 Coeff-Com:  0.778D-01-0.355D+00 0.610D+00 0.312D+00-0.431D+00-0.270D+01
 Coeff-Com:  0.107D+01 0.247D+01
 Coeff:      0.604D-03-0.212D-02 0.744D-02-0.175D-01 0.757D-03 0.515D-01
 Coeff:     -0.825D-01 0.790D-01-0.277D-01-0.143D+00 0.334D+00-0.267D+00
 Coeff:      0.778D-01-0.355D+00 0.610D+00 0.312D+00-0.431D+00-0.270D+01
 Coeff:      0.107D+01 0.247D+01
 Gap=     0.068 Goal=   None    Shift=    0.400
 RMSDP=2.05D-07 MaxDP=1.63D-05 DE=-2.03D-09 OVMax= 1.88D-05

 Cycle  26  Pass 1  IDiag  1:
 E= -103.781554343567     Delta-E=       -0.000000001190 Rises=F Damp=F
 DIIS: error= 3.42D-06 at cycle  26 NSaved=  20.
 NSaved=20 IEnMin=20 EnMin= -103.781554343567     IErMin=20 ErrMin= 3.42D-06
 ErrMax= 3.42D-06  0.00D+00 EMaxC= 1.00D-01 BMatC= 7.64D-10 BMatP= 1.32D-09
 IDIUse=1 WtCom= 1.00D+00 WtEn= 0.00D+00
 Coeff-Com: -0.390D-02 0.128D-01-0.110D-01-0.109D-01 0.564D-01-0.849D-01
 Coeff-Com:  0.744D-01-0.345D-01-0.124D+00 0.289D+00-0.158D+00 0.627D-01
 Coeff-Com: -0.403D+00 0.269D+00 0.343D+00 0.121D+00-0.150D+01 0.112D+00
 Coeff-Com: -0.348D+00 0.234D+01
 Coeff:     -0.390D-02 0.128D-01-0.110D-01-0.109D-01 0.564D-01-0.849D-01
 Coeff:      0.744D-01-0.345D-01-0.124D+00 0.289D+00-0.158D+00 0.627D-01
 Coeff:     -0.403D+00 0.269D+00 0.343D+00 0.121D+00-0.150D+01 0.112D+00
 Coeff:     -0.348D+00 0.234D+01
 Gap=     0.068 Goal=   None    Shift=    0.400
 RMSDP=1.27D-07 MaxDP=6.98D-06 DE=-1.19D-09 OVMax= 1.46D-05

 Cycle  27  Pass 1  IDiag  1:
 E= -103.781554344266     Delta-E=       -0.000000000699 Rises=F Damp=F
 DIIS: error= 2.30D-06 at cycle  27 NSaved=  20.
 NSaved=20 IEnMin=20 EnMin= -103.781554344266     IErMin=20 ErrMin= 2.30D-06
 ErrMax= 2.30D-06  0.00D+00 EMaxC= 1.00D-01 BMatC= 4.52D-10 BMatP= 7.64D-10
 IDIUse=1 WtCom= 1.00D+00 WtEn= 0.00D+00
 Coeff-Com:  0.106D-02-0.148D-02-0.639D-02 0.376D-01-0.662D-01 0.111D+00
 Coeff-Com: -0.964D-01-0.916D-01 0.211D+00-0.743D-01 0.215D-01-0.159D+00
 Coeff-Com:  0.165D+00-0.314D+00-0.547D-01 0.185D+00 0.637D+00-0.677D+00
 Coeff-Com: -0.291D+01 0.408D+01
 Coeff:      0.106D-02-0.148D-02-0.639D-02 0.376D-01-0.662D-01 0.111D+00
 Coeff:     -0.964D-01-0.916D-01 0.211D+00-0.743D-01 0.215D-01-0.159D+00
 Coeff:      0.165D+00-0.314D+00-0.547D-01 0.185D+00 0.637D+00-0.677D+00
 Coeff:     -0.291D+01 0.408D+01
 Gap=     0.068 Goal=   None    Shift=    0.400
 RMSDP=1.22D-07 MaxDP=7.55D-06 DE=-6.99D-10 OVMax= 1.14D-05

 Cycle  28  Pass 1  IDiag  1:
 E= -103.781554344675     Delta-E=       -0.000000000410 Rises=F Damp=F
 DIIS: error= 1.76D-06 at cycle  28 NSaved=  20.
 NSaved=20 IEnMin=20 EnMin= -103.781554344675     IErMin=20 ErrMin= 1.76D-06
 ErrMax= 1.76D-06  0.00D+00 EMaxC= 1.00D-01 BMatC= 2.72D-10 BMatP= 4.52D-10
 IDIUse=1 WtCom= 1.00D+00 WtEn= 0.00D+00
 Coeff-Com:  0.369D-02-0.899D-02 0.311D-01-0.705D-01 0.956D-01-0.682D-01
 Coeff-Com: -0.330D-01 0.861D-01-0.144D-01 0.163D-01-0.623D-01 0.905D-01
 Coeff-Com: -0.611D-01-0.133D+00-0.276D+00 0.555D+00 0.371D-01-0.286D+01
 Coeff-Com:  0.217D+01 0.151D+01
 Coeff:      0.369D-02-0.899D-02 0.311D-01-0.705D-01 0.956D-01-0.682D-01
 Coeff:     -0.330D-01 0.861D-01-0.144D-01 0.163D-01-0.623D-01 0.905D-01
 Coeff:     -0.611D-01-0.133D+00-0.276D+00 0.555D+00 0.371D-01-0.286D+01
 Coeff:      0.217D+01 0.151D+01
 Gap=     0.068 Goal=   None    Shift=    0.400
 RMSDP=1.04D-07 MaxDP=7.77D-06 DE=-4.10D-10 OVMax= 8.82D-06

 Cycle  29  Pass 1  IDiag  1:
 E= -103.781554344925     Delta-E=       -0.000000000249 Rises=F Damp=F
 DIIS: error= 1.28D-06 at cycle  29 NSaved=  20.
 NSaved=20 IEnMin=20 EnMin= -103.781554344925     IErMin=20 ErrMin= 1.28D-06
 ErrMax= 1.28D-06  0.00D+00 EMaxC= 1.00D-01 BMatC= 1.66D-10 BMatP= 2.72D-10
 IDIUse=1 WtCom= 1.00D+00 WtEn= 0.00D+00
 Coeff-Com: -0.316D-02 0.219D-01-0.545D-01 0.648D-01-0.389D-01-0.105D-01
 Coeff-Com:  0.334D-01 0.685D-02-0.235D-02-0.307D-01 0.981D-01 0.507D-01
 Coeff-Com: -0.202D+00-0.397D+00 0.416D+00 0.354D+00-0.126D+01 0.660D+00
 Coeff-Com: -0.189D+01 0.319D+01
 Coeff:     -0.316D-02 0.219D-01-0.545D-01 0.648D-01-0.389D-01-0.105D-01
 Coeff:      0.334D-01 0.685D-02-0.235D-02-0.307D-01 0.981D-01 0.507D-01
 Coeff:     -0.202D+00-0.397D+00 0.416D+00 0.354D+00-0.126D+01 0.660D+00
 Coeff:     -0.189D+01 0.319D+01
 Gap=     0.068 Goal=   None    Shift=    0.400
 RMSDP=7.20D-08 MaxDP=3.63D-06 DE=-2.49D-10 OVMax= 7.02D-06

 Cycle  30  Pass 1  IDiag  1:
 E= -103.781554345078     Delta-E=       -0.000000000153 Rises=F Damp=F
 DIIS: error= 9.79D-07 at cycle  30 NSaved=  20.
 NSaved=20 IEnMin=20 EnMin= -103.781554345078     IErMin=20 ErrMin= 9.79D-07
 ErrMax= 9.79D-07  0.00D+00 EMaxC= 1.00D-01 BMatC= 1.03D-10 BMatP= 1.66D-10
 IDIUse=1 WtCom= 1.00D+00 WtEn= 0.00D+00
 Coeff-Com:  0.756D-02-0.272D-01 0.428D-01-0.364D-01-0.137D-02 0.243D-01
 Coeff-Com:  0.174D-01-0.294D-01 0.406D-01 0.511D-02-0.975D-01-0.931D-01
 Coeff-Com:  0.170D+00 0.194D+00-0.256D+00-0.133D+00 0.648D+00-0.297D+01
 Coeff-Com:  0.596D+00 0.289D+01
 Coeff:      0.756D-02-0.272D-01 0.428D-01-0.364D-01-0.137D-02 0.243D-01
 Coeff:      0.174D-01-0.294D-01 0.406D-01 0.511D-02-0.975D-01-0.931D-01
 Coeff:      0.170D+00 0.194D+00-0.256D+00-0.133D+00 0.648D+00-0.297D+01
 Coeff:      0.596D+00 0.289D+01
 Gap=     0.068 Goal=   None    Shift=    0.400
 RMSDP=7.50D-08 MaxDP=5.66D-06 DE=-1.53D-10 OVMax= 5.48D-06

 Cycle  31  Pass 1  IDiag  1:
 E= -103.781554345172     Delta-E=       -0.000000000094 Rises=F Damp=F
 DIIS: error= 7.97D-07 at cycle  31 NSaved=  20.
 NSaved=20 IEnMin=20 EnMin= -103.781554345172     IErMin=20 ErrMin= 7.97D-07
 ErrMax= 7.97D-07  0.00D+00 EMaxC= 1.00D-01 BMatC= 6.38D-11 BMatP= 1.03D-10
 IDIUse=1 WtCom= 1.00D+00 WtEn= 0.00D+00
 Coeff-Com:  0.314D-03 0.109D-01-0.192D-01-0.207D-02 0.265D-01-0.411D-01
 Coeff-Com:  0.261D-01 0.945D-01-0.115D+00-0.123D+00 0.792D-01 0.311D+00
 Coeff-Com: -0.398D-01-0.468D+00 0.287D-01 0.680D+00-0.162D+01-0.213D+00
 Coeff-Com:  0.138D+00 0.224D+01
 Coeff:      0.314D-03 0.109D-01-0.192D-01-0.207D-02 0.265D-01-0.411D-01
 Coeff:      0.261D-01 0.945D-01-0.115D+00-0.123D+00 0.792D-01 0.311D+00
 Coeff:     -0.398D-01-0.468D+00 0.287D-01 0.680D+00-0.162D+01-0.213D+00
 Coeff:      0.138D+00 0.224D+01
 Gap=     0.068 Goal=   None    Shift=    0.400
 RMSDP=5.35D-08 MaxDP=3.28D-06 DE=-9.43D-11 OVMax= 4.49D-06

 Cycle  32  Pass 1  IDiag  1:
 E= -103.781554345231     Delta-E=       -0.000000000059 Rises=F Damp=F
 DIIS: error= 6.81D-07 at cycle  32 NSaved=  20.
 NSaved=20 IEnMin=20 EnMin= -103.781554345231     IErMin=20 ErrMin= 6.81D-07
 ErrMax= 6.81D-07  0.00D+00 EMaxC= 1.00D-01 BMatC= 4.04D-11 BMatP= 6.38D-11
 IDIUse=1 WtCom= 1.00D+00 WtEn= 0.00D+00
 Coeff-Com:  0.433D-02-0.106D-01 0.936D-02 0.889D-02-0.594D-01 0.548D-01
 Coeff-Com:  0.938D-01-0.132D+00 0.362D-02 0.898D-01-0.345D-01-0.101D+00
 Coeff-Com: -0.121D+00-0.964D-01 0.232D+00-0.579D-01 0.829D+00-0.140D+01
 Coeff-Com: -0.210D+01 0.379D+01
 Coeff:      0.433D-02-0.106D-01 0.936D-02 0.889D-02-0.594D-01 0.548D-01
 Coeff:      0.938D-01-0.132D+00 0.362D-02 0.898D-01-0.345D-01-0.101D+00
 Coeff:     -0.121D+00-0.964D-01 0.232D+00-0.579D-01 0.829D+00-0.140D+01
 Coeff:     -0.210D+01 0.379D+01
 Gap=     0.068 Goal=   None    Shift=    0.400
 RMSDP=5.39D-08 MaxDP=3.61D-06 DE=-5.90D-11 OVMax= 3.49D-06

 Cycle  33  Pass 1  IDiag  1:
 E= -103.781554345267     Delta-E=       -0.000000000036 Rises=F Damp=F
 DIIS: error= 5.48D-07 at cycle  33 NSaved=  20.
 NSaved=20 IEnMin=20 EnMin= -103.781554345267     IErMin=20 ErrMin= 5.48D-07
 ErrMax= 5.48D-07  0.00D+00 EMaxC= 1.00D-01 BMatC= 2.60D-11 BMatP= 4.04D-11
 IDIUse=1 WtCom= 1.00D+00 WtEn= 0.00D+00
 Coeff-Com: -0.353D-02 0.116D-01-0.842D-02-0.409D-01 0.514D-01 0.786D-01
 Coeff-Com: -0.112D+00 0.437D-01 0.548D-01-0.116D+00-0.820D-01 0.959D-01
 Coeff-Com: -0.907D-01-0.187D+00-0.667D-01 0.142D+01-0.874D+00-0.307D+01
 Coeff-Com:  0.219D+01 0.171D+01
 Coeff:     -0.353D-02 0.116D-01-0.842D-02-0.409D-01 0.514D-01 0.786D-01
 Coeff:     -0.112D+00 0.437D-01 0.548D-01-0.116D+00-0.820D-01 0.959D-01
 Coeff:     -0.907D-01-0.187D+00-0.667D-01 0.142D+01-0.874D+00-0.307D+01
 Coeff:      0.219D+01 0.171D+01
 Gap=     0.068 Goal=   None    Shift=    0.400
 RMSDP=3.81D-08 MaxDP=2.77D-06 DE=-3.65D-11 OVMax= 2.76D-06

 Cycle  34  Pass 1  IDiag  1:
 E= -103.781554345291     Delta-E=       -0.000000000023 Rises=F Damp=F
 DIIS: error= 4.29D-07 at cycle  34 NSaved=  20.
 NSaved=20 IEnMin=20 EnMin= -103.781554345291     IErMin=20 ErrMin= 4.29D-07
 ErrMax= 4.29D-07  0.00D+00 EMaxC= 1.00D-01 BMatC= 1.67D-11 BMatP= 2.60D-11
 IDIUse=1 WtCom= 1.00D+00 WtEn= 0.00D+00
 Large coefficients: NSaved= 20 BigCof=    0.00 CofMax=   10.00 Det=-4.85D-15
 Inversion failed.  Reducing to 19 matrices.
 Large coefficients: NSaved= 19 BigCof=    0.00 CofMax=   10.00 Det=-5.04D-15
 Inversion failed.  Reducing to 18 matrices.
 Large coefficients: NSaved= 18 BigCof=    0.00 CofMax=   10.00 Det=-5.77D-15
 Inversion failed.  Reducing to 17 matrices.
 Large coefficients: NSaved= 17 BigCof=    0.00 CofMax=   10.00 Det=-8.72D-15
 Inversion failed.  Reducing to 16 matrices.
 Large coefficients: NSaved= 16 BigCof=    0.00 CofMax=   10.00 Det=-8.81D-15
 Inversion failed.  Reducing to 15 matrices.
 Coeff-Com: -0.151D-01 0.191D-01 0.139D-01 0.786D-01-0.440D-01-0.499D-01
 Coeff-Com:  0.210D+00-0.252D+00-0.823D+00 0.304D+00 0.989D+00 0.270D+00
 Coeff-Com: -0.564D+00-0.453D+01 0.540D+01
 Coeff:     -0.151D-01 0.191D-01 0.139D-01 0.786D-01-0.440D-01-0.499D-01
 Coeff:      0.210D+00-0.252D+00-0.823D+00 0.304D+00 0.989D+00 0.270D+00
 Coeff:     -0.564D+00-0.453D+01 0.540D+01
 Gap=     0.068 Goal=   None    Shift=    0.400
 RMSDP=3.79D-08 MaxDP=3.02D-06 DE=-2.34D-11 OVMax= 2.28D-06

 Cycle  35  Pass 1  IDiag  1:
 E= -103.781554345306     Delta-E=       -0.000000000015 Rises=F Damp=F
 DIIS: error= 3.32D-07 at cycle  35 NSaved=  16.
 NSaved=16 IEnMin=16 EnMin= -103.781554345306     IErMin=16 ErrMin= 3.32D-07
 ErrMax= 3.32D-07  0.00D+00 EMaxC= 1.00D-01 BMatC= 1.07D-11 BMatP= 1.67D-11
 IDIUse=1 WtCom= 1.00D+00 WtEn= 0.00D+00
 Large coefficients: NSaved= 16 BigCof=    0.00 CofMax=   10.00 Det=-4.26D-15
 Inversion failed.  Reducing to 15 matrices.
 Coeff-Com: -0.677D-03 0.704D-02 0.489D-01-0.215D-01-0.116D+00 0.214D+00
 Coeff-Com:  0.691D-02-0.470D+00-0.183D+00 0.272D+00 0.516D+00 0.380D+00
 Coeff-Com: -0.305D+01 0.129D+01 0.210D+01
 Coeff:     -0.677D-03 0.704D-02 0.489D-01-0.215D-01-0.116D+00 0.214D+00
 Coeff:      0.691D-02-0.470D+00-0.183D+00 0.272D+00 0.516D+00 0.380D+00
 Coeff:     -0.305D+01 0.129D+01 0.210D+01
 Gap=     0.068 Goal=   None    Shift=    0.400
 RMSDP=3.05D-08 MaxDP=2.18D-06 DE=-1.50D-11 OVMax= 1.85D-06

 Cycle  36  Pass 1  IDiag  1:
 E= -103.781554345315     Delta-E=       -0.000000000010 Rises=F Damp=F
 DIIS: error= 2.69D-07 at cycle  36 NSaved=  16.
 NSaved=16 IEnMin=16 EnMin= -103.781554345315     IErMin=16 ErrMin= 2.69D-07
 ErrMax= 2.69D-07  0.00D+00 EMaxC= 1.00D-01 BMatC= 6.90D-12 BMatP= 1.07D-11
 IDIUse=1 WtCom= 1.00D+00 WtEn= 0.00D+00
 Large coefficients: NSaved= 16 BigCof=    0.00 CofMax=   10.00 Det=-6.08D-15
 Inversion failed.  Reducing to 15 matrices.
 Coeff-Com: -0.866D-02 0.605D-01-0.850D-02-0.119D+00 0.788D-01 0.107D+00
 Coeff-Com: -0.134D+00-0.220D+00 0.156D+00 0.432D-01 0.402D+00-0.160D+01
 Coeff-Com:  0.608D+00-0.108D+01 0.272D+01
 Coeff:     -0.866D-02 0.605D-01-0.850D-02-0.119D+00 0.788D-01 0.107D+00
 Coeff:     -0.134D+00-0.220D+00 0.156D+00 0.432D-01 0.402D+00-0.160D+01
 Coeff:      0.608D+00-0.108D+01 0.272D+01
 Gap=     0.068 Goal=   None    Shift=    0.400
 RMSDP=2.19D-08 MaxDP=1.47D-06 DE=-9.72D-12 OVMax= 1.44D-06

 Cycle  37  Pass 1  IDiag  1:
 E= -103.781554345322     Delta-E=       -0.000000000006 Rises=F Damp=F
 DIIS: error= 2.18D-07 at cycle  37 NSaved=  16.
 NSaved=16 IEnMin=16 EnMin= -103.781554345322     IErMin=16 ErrMin= 2.18D-07
 ErrMax= 2.18D-07  0.00D+00 EMaxC= 1.00D-01 BMatC= 4.51D-12 BMatP= 6.90D-12
 IDIUse=1 WtCom= 1.00D+00 WtEn= 0.00D+00
 Large coefficients: NSaved= 16 BigCof=    0.00 CofMax=   10.00 Det=-5.39D-15
 Inversion failed.  Reducing to 15 matrices.
 Coeff-Com:  0.287D-01-0.148D-01-0.699D-01 0.242D-01 0.726D-01 0.979D-01
 Coeff-Com: -0.139D+00-0.762D-01-0.447D-01 0.412D+00-0.574D+00-0.313D-01
 Coeff-Com: -0.197D+01 0.102D+01 0.226D+01
 Coeff:      0.287D-01-0.148D-01-0.699D-01 0.242D-01 0.726D-01 0.979D-01
 Coeff:     -0.139D+00-0.762D-01-0.447D-01 0.412D+00-0.574D+00-0.313D-01
 Coeff:     -0.197D+01 0.102D+01 0.226D+01
 Gap=     0.068 Goal=   None    Shift=    0.400
 RMSDP=2.00D-08 MaxDP=1.58D-06 DE=-6.34D-12 OVMax= 1.15D-06

 Cycle  38  Pass 1  IDiag  1:
 E= -103.781554345326     Delta-E=       -0.000000000004 Rises=F Damp=F
 DIIS: error= 1.76D-07 at cycle  38 NSaved=  16.
 NSaved=16 IEnMin=16 EnMin= -103.781554345326     IErMin=16 ErrMin= 1.76D-07
 ErrMax= 1.76D-07  0.00D+00 EMaxC= 1.00D-01 BMatC= 2.95D-12 BMatP= 4.51D-12
 IDIUse=1 WtCom= 1.00D+00 WtEn= 0.00D+00
 Large coefficients: NSaved= 16 BigCof=    0.00 CofMax=   10.00 Det=-1.16D-15
 Inversion failed.  Reducing to 15 matrices.
 Coeff-Com:  0.124D-01-0.366D-01 0.522D-02 0.237D-01 0.175D+00-0.747D-01
 Coeff-Com: -0.161D+00-0.882D-01 0.336D+00-0.441D+00 0.808D-01-0.136D+01
 Coeff-Com:  0.863D+00-0.867D+00 0.253D+01
 Coeff:      0.124D-01-0.366D-01 0.522D-02 0.237D-01 0.175D+00-0.747D-01
 Coeff:     -0.161D+00-0.882D-01 0.336D+00-0.441D+00 0.808D-01-0.136D+01
 Coeff:      0.863D+00-0.867D+00 0.253D+01
 Gap=     0.068 Goal=   None    Shift=    0.400
 RMSDP=1.46D-08 MaxDP=8.86D-07 DE=-4.04D-12 OVMax= 9.48D-07

 Cycle  39  Pass 1  IDiag  1:
 E= -103.781554345328     Delta-E=       -0.000000000003 Rises=F Damp=F
 DIIS: error= 1.42D-07 at cycle  39 NSaved=  16.
 NSaved=16 IEnMin=16 EnMin= -103.781554345328     IErMin=16 ErrMin= 1.42D-07
 ErrMax= 1.42D-07  0.00D+00 EMaxC= 1.00D-01 BMatC= 1.95D-12 BMatP= 2.95D-12
 IDIUse=1 WtCom= 1.00D+00 WtEn= 0.00D+00
 Large coefficients: NSaved= 16 BigCof=    0.00 CofMax=   10.00 Det=-4.42D-16
 Inversion failed.  Reducing to 15 matrices.
 Coeff-Com: -0.182D-01 0.450D-01-0.223D-01 0.880D-01-0.259D-03-0.769D-01
 Coeff-Com: -0.187D+00 0.300D+00-0.394D+00 0.130D+00-0.107D+01 0.835D+00
 Coeff-Com: -0.702D+00 0.687D+00 0.138D+01
 Coeff:     -0.182D-01 0.450D-01-0.223D-01 0.880D-01-0.259D-03-0.769D-01
 Coeff:     -0.187D+00 0.300D+00-0.394D+00 0.130D+00-0.107D+01 0.835D+00
 Coeff:     -0.702D+00 0.687D+00 0.138D+01
 Gap=     0.068 Goal=   None    Shift=    0.400
 RMSDP=1.57D-08 MaxDP=1.18D-06 DE=-2.50D-12 OVMax= 7.72D-07

 Cycle  40  Pass 1  IDiag  1:
 E= -103.781554345330     Delta-E=       -0.000000000002 Rises=F Damp=F
 DIIS: error= 1.15D-07 at cycle  40 NSaved=  16.
 NSaved=16 IEnMin=16 EnMin= -103.781554345330     IErMin=16 ErrMin= 1.15D-07
 ErrMax= 1.15D-07  0.00D+00 EMaxC= 1.00D-01 BMatC= 1.29D-12 BMatP= 1.95D-12
 IDIUse=1 WtCom= 1.00D+00 WtEn= 0.00D+00
 Large coefficients: NSaved= 16 BigCof=    0.00 CofMax=   10.00 Det=-4.44D-16
 Inversion failed.  Reducing to 15 matrices.
 Coeff-Com:  0.332D-01-0.923D-02-0.884D-01 0.116D-01 0.141D+00-0.932D-01
 Coeff-Com:  0.126D+00-0.257D+00-0.770D-01-0.143D+00 0.554D+00 0.481D+00
 Coeff-Com: -0.167D+01-0.246D+01 0.445D+01
 Coeff:      0.332D-01-0.923D-02-0.884D-01 0.116D-01 0.141D+00-0.932D-01
 Coeff:      0.126D+00-0.257D+00-0.770D-01-0.143D+00 0.554D+00 0.481D+00
 Coeff:     -0.167D+01-0.246D+01 0.445D+01
 Gap=     0.068 Goal=   None    Shift=    0.400
 RMSDP=1.03D-08 MaxDP=6.41D-07 DE=-1.88D-12 OVMax= 6.20D-07

 Cycle  41  Pass 1  IDiag  1:
 E= -103.781554345331     Delta-E=       -0.000000000001 Rises=F Damp=F
 DIIS: error= 9.49D-08 at cycle  41 NSaved=  16.
 NSaved=16 IEnMin=16 EnMin= -103.781554345331     IErMin=16 ErrMin= 9.49D-08
 ErrMax= 9.49D-08  0.00D+00 EMaxC= 1.00D-01 BMatC= 8.60D-13 BMatP= 1.29D-12
 IDIUse=1 WtCom= 1.00D+00 WtEn= 0.00D+00
 Large coefficients: NSaved= 16 BigCof=    0.00 CofMax=   10.00 Det=-4.55D-16
 Inversion failed.  Reducing to 15 matrices.
 Coeff-Com:  0.288D-01-0.512D-01-0.396D-01 0.120D+00-0.499D-02 0.588D-01
 Coeff-Com: -0.569D-01-0.244D+00 0.213D-01 0.303D+00 0.799D+00-0.161D+01
 Coeff-Com: -0.323D+01 0.322D+01 0.170D+01
 Coeff:      0.288D-01-0.512D-01-0.396D-01 0.120D+00-0.499D-02 0.588D-01
 Coeff:     -0.569D-01-0.244D+00 0.213D-01 0.303D+00 0.799D+00-0.161D+01
 Coeff:     -0.323D+01 0.322D+01 0.170D+01
 Gap=     0.068 Goal=   None    Shift=    0.400
 RMSDP=9.44D-09 MaxDP=6.66D-07 DE=-1.21D-12 OVMax= 5.03D-07

 SCF Done:  E(ROHF) =  -103.781554345     A.U. after   41 cycles
            NFock= 41  Conv=0.94D-08     -V/T= 2.7881
 <Sx>= 0.0000 <Sy>= 0.0000 <Sz>= 3.0000 <S**2>=12.0000 S= 3.0000
 <L.S>=  0.00000000000    
 KE= 5.803884375948D+01 PE=-2.490544038132D+02 EE= 8.194223359922D+01
 Annihilation of the first spin contaminant:
 S**2 before annihilation    12.0000,   after    12.0000
 Leave Link  502 at Sat May  5 08:31:54 2018, MaxMem= 21474836480 cpu:             138.8 elap:               7.0
 (Enter /home1/apps/gaussian/16rA.03/g16/l801.exe)
 Windowed orbitals will be sorted by symmetry type.
 GenMOA:  NOpAll=  4 NOp2=4 NOpUse=  4 JSym2X=1
 FoFJK:  IHMeth= 1 ICntrl=       0 DoSepK=F KAlg= 0 I1Cent=           0 FoldK=F
 IRaf=         0 NMat=       1 IRICut=       1 DoRegI=T DoRafI=F ISym2E= 1 IDoP0=0 IntGTp=1.
 FoFCou: FMM=F IPFlag=           8 FMFlag=      100000 FMFlg1=           0
         NFxFlg=           0 DoJE=F BraDBF=F KetDBF=F FulRan=T
         wScrn=  0.000000 ICntrl=         0 IOpCl=  1 I1Cent=           0 NGrid=           0
         NMat0=    1 NMatS0=      1 NMatT0=    0 NMatD0=    1 NMtDS0=    0 NMtDT0=    0
 Petite list used in FoFCou.
 <Sx>= 0.0000 <Sy>= 0.0000 <Sz>= 3.0000 <S**2>=12.0000 S= 3.0000
 Range of M.O.s used for correlation:     1   205
 NBasis=   208 NAE=    11 NBE=     5 NFC=     0 NFV=     0
 NROrb=    205 NOA=    11 NOB=     5 NVA=   194 NVB=   200

 **** Warning!!: The largest alpha MO coefficient is  0.31842348D+03


 **** Warning!!: The largest beta MO coefficient is  0.31775802D+03

 Singles contribution to E2=   -0.2203720106D-02
 Leave Link  801 at Sat May  5 08:31:55 2018, MaxMem= 21474836480 cpu:              23.9 elap:               0.8
 (Enter /home1/apps/gaussian/16rA.03/g16/l804.exe)
 Open-shell transformation, MDV= 21474836480 ITran=4 ISComp=2.
 Unit  1 TFree=       1306034 TCopy=       1026599.
 Semi-Direct transformation.
 ModeAB=           2 MOrb=            11 LenV=   21473434873
 LASXX=     11721218 LTotXX=    11721218 LenRXX=    11721218
 LTotAB=    11968646 MaxLAS=    71316630 LenRXY=    71316630
 NonZer=    72897385 LenScr=   110097920 LnRSAI=           0
 LnScr1=           0 LExtra=     4498847 Total=    197634615
 MaxDsk= 67108864000 SrtSym=           F ITran=            4
 DoSDTr:  NPSUse= 32
 JobTyp=1 Pass  1:  I=   1 to  11.
 (rs|ai) integrals will be sorted in core.
 Complete sort for first half transformation.
 First half transformation complete.
 Begin second half transformation for I=  10.
 Begin second half transformation for I=  10.
 Complete sort for second half transformation.
 Second half transformation complete.
 ModeAB=           2 MOrb=             5 LenV=   21473434873
 LASXX=      5466175 LTotXX=     5466175 LenRXX=    32416650
 LTotAB=     4983668 MaxLAS=    32416650 LenRXY=     4983668
 NonZer=    33135175 LenScr=    50452480 LnRSAI=           0
 LnScr1=           0 LExtra=    87536695 Total=    175389493
 MaxDsk= 67108864000 SrtSym=           F ITran=            4
 DoSDTr:  NPSUse= 32
 JobTyp=2 Pass  1:  I=   1 to   5.
 (rs|ai) integrals will be sorted in core.
 Complete sort for first half transformation.
 First half transformation complete.
 Complete sort for second half transformation.
 Second half transformation complete.
 Spin components of T(2) and E(2):
     alpha-alpha T2 =       0.2583883004D-01 E2=     -0.1555628916D+00
     alpha-beta  T2 =       0.5250082393D-01 E2=     -0.3806874557D+00
     beta-beta   T2 =       0.6467354190D-02 E2=     -0.4197791624D-01
 ANorm=    0.1042162038D+01
 E2 =    -0.5804319837D+00 EUMP2 =    -0.10436198632904D+03
 (S**2,0)=  0.12000D+02           (S**2,1)=  0.12000D+02
 E(PUHF)=      -0.10378155435D+03        E(PMP2)=      -0.10436198633D+03
 Leave Link  804 at Sat May  5 08:32:21 2018, MaxMem= 21474836480 cpu:             819.1 elap:              25.7
 (Enter /home1/apps/gaussian/16rA.03/g16/l913.exe)
 CIDS:  MDV= 21474836480.
 IFCWin=0 IBDFC=1 NFBD=     0     0 NFCmp=     0     0 NFFFC=     0     0
 Using original routines for 1st iteration.
 Using DD4UQ or CC4UQ for 2nd and later iterations.
 Keep R2 and R3 ints in memory in symmetry-blocked form, NReq=296677674.
 FoFCou: FMM=F IPFlag=           8 FMFlag=           0 FMFlg1=           0
         NFxFlg=           0 DoJE=F BraDBF=F KetDBF=F FulRan=T
         wScrn=  0.000000 ICntrl=       600 IOpCl=  0 I1Cent=           0 NGrid=           0
         NMat0=    1 NMatS0=  21736 NMatT0=    0 NMatD0=    1 NMtDS0=    0 NMtDT0=    0
 Petite list used in FoFCou.
 CIDS: In Core Option IDoMem=           1.
 CCSD(T)
 =======
 Iterations= 150 Convergence= 0.100D-06
 Produce multiple copies of IABC intergrals
 Iteration Nr.   1
 **********************
 DD1Dir will call FoFMem   1 times, MxPair=       176
 NAB=    55 NAA=    55 NBB=    10.
 DD1Dir will call FoFMem   1 times, MxPair=       176
 NAB=    55 NAA=    55 NBB=    10.
 MP4(R+Q)=  0.67130869D-02
 Maximum subspace dimension=  5
 A-vector RMS=  1.1024093D-04 Max=  1.1578057D-03 conv= 1.00D-05.
 RLE energy=       -0.5732274178
 E3=        0.53490796D-03        EROMP3=      -0.10436145142D+03
 E4(SDQ)=  -0.51149693D-02        ROMP4(SDQ)=  -0.10436656639D+03
 VARIATIONAL ENERGIES WITH THE FIRST-ORDER WAVEFUNCTION:
 DE(Corr)= -0.57313592     E(Corr)=     -104.35469027    
 NORM(A)=   0.10403977D+01
 Iteration Nr.   2
 **********************
 DD1Dir will call FoFMem   1 times, MxPair=       176
 NAB=    55 NAA=    55 NBB=    10.
 A-vector RMS=  2.3072758D-03 Max=  1.7340147D-02 conv= 1.00D-05.
 RLE energy=       -0.5730762233
 DE(Corr)= -0.57244549     E(CORR)=     -104.35399984     Delta= 6.90D-04
 NORM(A)=   0.10407703D+01
 Iteration Nr.   3
 **********************
 DD1Dir will call FoFMem   1 times, MxPair=       176
 NAB=    55 NAA=    55 NBB=    10.
 A-vector RMS=  1.9614268D-03 Max=  1.4903810D-02 conv= 1.00D-05.
 RLE energy=       -0.5792393425
 DE(Corr)= -0.57444986     E(CORR)=     -104.35600421     Delta=-2.00D-03
 NORM(A)=   0.10445783D+01
 Iteration Nr.   4
 **********************
 DD1Dir will call FoFMem   1 times, MxPair=       176
 NAB=    55 NAA=    55 NBB=    10.
 A-vector RMS=  1.3128161D-03 Max=  1.0520056D-02 conv= 1.00D-05.
 RLE energy=       -0.5942788014
 DE(Corr)= -0.57905272     E(CORR)=     -104.36060706     Delta=-4.60D-03
 NORM(A)=   0.10700571D+01
 Iteration Nr.   5
 **********************
 DD1Dir will call FoFMem   1 times, MxPair=       176
 NAB=    55 NAA=    55 NBB=    10.
 A-vector RMS=  1.4742823D-03 Max=  1.0948275D-02 conv= 1.00D-05.
 RLE energy=       -0.5870799701
 DE(Corr)= -0.59451846     E(CORR)=     -104.37607280     Delta=-1.55D-02
 NORM(A)=   0.10571805D+01
 Iteration Nr.   6
 **********************
 DD1Dir will call FoFMem   1 times, MxPair=       176
 NAB=    55 NAA=    55 NBB=    10.
 A-vector RMS=  2.3701230D-04 Max=  2.2112361D-03 conv= 1.00D-05.
 RLE energy=       -0.5856863785
 DE(Corr)= -0.58707235     E(CORR)=     -104.36862670     Delta= 7.45D-03
 NORM(A)=   0.10552349D+01
 Iteration Nr.   7
 **********************
 DD1Dir will call FoFMem   1 times, MxPair=       176
 NAB=    55 NAA=    55 NBB=    10.
 A-vector RMS=  7.5092499D-05 Max=  8.1931933D-04 conv= 1.00D-05.
 RLE energy=       -0.5857211560
 DE(Corr)= -0.58569073     E(CORR)=     -104.36724508     Delta= 1.38D-03
 NORM(A)=   0.10554767D+01
 Iteration Nr.   8
 **********************
 DD1Dir will call FoFMem   1 times, MxPair=       176
 NAB=    55 NAA=    55 NBB=    10.
 A-vector RMS=  3.3619917D-05 Max=  4.4457800D-04 conv= 1.00D-05.
 RLE energy=       -0.5857272683
 DE(Corr)= -0.58574167     E(CORR)=     -104.36729602     Delta=-5.09D-05
 NORM(A)=   0.10554684D+01
 Iteration Nr.   9
 **********************
 DD1Dir will call FoFMem   1 times, MxPair=       176
 NAB=    55 NAA=    55 NBB=    10.
 A-vector RMS=  1.8009122D-05 Max=  2.3468984D-04 conv= 1.00D-05.
 RLE energy=       -0.5857346888
 DE(Corr)= -0.58572121     E(CORR)=     -104.36727556     Delta= 2.05D-05
 NORM(A)=   0.10555074D+01
 Iteration Nr.  10
 **********************
 DD1Dir will call FoFMem   1 times, MxPair=       176
 NAB=    55 NAA=    55 NBB=    10.
 A-vector RMS=  8.5333459D-06 Max=  1.0875588D-04 conv= 1.00D-05.
 RLE energy=       -0.5857326143
 DE(Corr)= -0.58573514     E(CORR)=     -104.36728949     Delta=-1.39D-05
 NORM(A)=   0.10554888D+01
 Iteration Nr.  11
 **********************
 DD1Dir will call FoFMem   1 times, MxPair=       176
 NAB=    55 NAA=    55 NBB=    10.
 A-vector RMS=  2.8662528D-06 Max=  2.9798918D-05 conv= 1.00D-05.
 RLE energy=       -0.5857294433
 DE(Corr)= -0.58572954     E(CORR)=     -104.36728389     Delta= 5.60D-06
 NORM(A)=   0.10554855D+01
 Iteration Nr.  12
 **********************
 DD1Dir will call FoFMem   1 times, MxPair=       176
 NAB=    55 NAA=    55 NBB=    10.
 A-vector RMS=  8.5760357D-07 Max=  8.1427570D-06 conv= 1.00D-05.
 RLE energy=       -0.5857295880
 DE(Corr)= -0.58572973     E(CORR)=     -104.36728407     Delta=-1.86D-07
 NORM(A)=   0.10554845D+01
 Iteration Nr.  13
 **********************
 DD1Dir will call FoFMem   1 times, MxPair=       176
 NAB=    55 NAA=    55 NBB=    10.
 A-vector RMS=  4.5806845D-07 Max=  3.8415247D-06 conv= 1.00D-05.
 RLE energy=       -0.5857288993
 DE(Corr)= -0.58572900     E(CORR)=     -104.36728334     Delta= 7.29D-07
 NORM(A)=   0.10554848D+01
 Iteration Nr.  14
 **********************
 DD1Dir will call FoFMem   1 times, MxPair=       176
 NAB=    55 NAA=    55 NBB=    10.
 A-vector RMS=  2.2691914D-07 Max=  2.2749790D-06 conv= 1.00D-05.
 RLE energy=       -0.5857290178
 DE(Corr)= -0.58572905     E(CORR)=     -104.36728340     Delta=-5.62D-08
 NORM(A)=   0.10554853D+01
 CI/CC converged in   14 iterations to DelEn=-5.62D-08 Conv= 1.00D-07 ErrA1= 2.27D-07 Conv= 1.00D-05
 Wavefunction amplitudes converged. E(Corr)=     -104.36728340    
 Largest amplitude= 4.09D-02
 Time for triples=     2775.74 seconds.
 T4(CCSD)= -0.16993834D-01
 T5(CCSD)=  0.89751340D-03
 CCSD(T)= -0.10438337972D+03
 Discarding MO integrals.
 Leave Link  913 at Sat May  5 08:34:31 2018, MaxMem= 21474836480 cpu:            4152.0 elap:             130.6
 (Enter /home1/apps/gaussian/16rA.03/g16/l601.exe)
 Copying SCF densities to generalized density rwf, IOpCl= 0 IROHF=1.

 **********************************************************************

            Population analysis using the SCF density.

 **********************************************************************

 Orbital symmetries:
       Occupied  (SG) (PI) (PI) (SG) (SG) (DLTA) (DLTA) (SG) (PI)
                 (PI) (SG)
       Virtual   (PI) (PI) (SG) (SG) (PI) (PI) (DLTA) (DLTA) (SG)
                 (PI) (PI) (SG) (SG) (SG) (PI) (PI) (SG) (DLTA)
                 (DLTA) (PI) (PI) (PI) (PI) (SG) (SG) (SG) (SG)
                 (DLTA) (DLTA) (PHI) (PHI) (PI) (PI) (PI) (PI)
                 (SG) (SG) (DLTA) (DLTA) (PI) (PI) (SG) (DLTA)
                 (DLTA) (PI) (PI) (SG) (PI) (PI) (SG) (SG) (PHI)
                 (PHI) (DLTA) (DLTA) (PI) (PI) (SG) (PI) (PI) (?A)
                 (?A) (SG) (PHI) (PHI) (SG) (DLTA) (DLTA) (PI)
                 (PI) (DLTA) (DLTA) (SG) (PI) (PI) (SG) (DLTA)
                 (DLTA) (PI) (PI) (PI) (PI) (SG) (SG) (SG) (PHI)
                 (PHI) (DLTA) (DLTA) (PI) (PI) (DLTA) (DLTA) (SG)
                 (PI) (PI) (SG) (PI) (PI) (SG) (?A) (?A) (PHI)
                 (PHI) (DLTA) (DLTA) (PI) (PI) (SG) (SG) (SG) (DLTA)
                 (DLTA) (PI) (PI) (SG) (PHI) (PHI) (DLTA) (DLTA)
                 (PI) (PI) (PI) (PI) (SG) (SG) (?A) (?A) (PHI)
                 (PHI) (DLTA) (DLTA) (PI) (PI) (SG) (DLTA) (DLTA)
                 (PI) (PI) (SG) (SG) (PI) (PI) (SG) (DLTA) (DLTA)
                 (PI) (PI) (SG) (SG) (SG) (PI) (PI) (SG) (DLTA)
                 (DLTA) (PI) (PI) (SG) (SG) (PI) (PI) (SG) (SG)
                 (PI) (PI) (SG) (SG) (DLTA) (DLTA) (PI) (PI) (SG)
                 (PI) (PI) (SG) (SG) (PI) (PI) (SG) (SG) (PI) (PI)
                 (SG) (SG) (PI) (PI) (SG) (SG) (PI) (PI) (SG) (SG)
                 (SG)
 The electronic state is 7-SG.
 Alpha  occ. eigenvalues --   -4.14363  -2.76357  -2.76334  -2.76334  -0.64735
 Alpha  occ. eigenvalues --   -0.63853  -0.63853  -0.63287  -0.63287  -0.41830
 Alpha  occ. eigenvalues --   -0.25306
 Alpha virt. eigenvalues --    0.01349   0.01349   0.02253   0.03194   0.05830
 Alpha virt. eigenvalues --    0.05830   0.08465   0.08508   0.08508   0.08964
 Alpha virt. eigenvalues --    0.08964   0.09399   0.14119   0.20685   0.22794
 Alpha virt. eigenvalues --    0.22794   0.25447   0.29770   0.29770   0.29854
 Alpha virt. eigenvalues --    0.29854   0.35063   0.35338   0.35338   0.42165
 Alpha virt. eigenvalues --    0.53550   0.67539   0.75793   0.75793   0.76640
 Alpha virt. eigenvalues --    0.76640   0.79247   0.79247   0.85921   0.85921
 Alpha virt. eigenvalues --    0.90536   0.92700   0.96909   0.96909   0.97301
 Alpha virt. eigenvalues --    0.97301   1.07754   1.08457   1.08457   1.10356
 Alpha virt. eigenvalues --    1.10356   1.44404   1.63391   1.63391   1.72794
 Alpha virt. eigenvalues --    1.89607   2.31877   2.31877   2.34195   2.34195
 Alpha virt. eigenvalues --    2.40878   2.40878   2.51912   2.61732   2.61732
 Alpha virt. eigenvalues --    2.75729   2.76871   2.76871   2.78327   2.78327
 Alpha virt. eigenvalues --    2.84774   2.85353   2.85353   2.86521   2.86521
 Alpha virt. eigenvalues --    2.90521   2.90521   3.06284   3.26891   3.26891
 Alpha virt. eigenvalues --    3.48683   4.05294   4.05294   4.46256   4.46256
 Alpha virt. eigenvalues --    4.67605   4.67605   4.95527   5.15677   5.73258
 Alpha virt. eigenvalues --    6.35618   6.35618   6.38853   6.38853   6.56806
 Alpha virt. eigenvalues --    6.56806   6.75663   6.75663   6.80106   6.86571
 Alpha virt. eigenvalues --    6.86571   7.21158   7.40487   7.40487   8.13469
 Alpha virt. eigenvalues --    8.15122   8.15122   8.15918   8.15918   8.23279
 Alpha virt. eigenvalues --    8.23279   8.42990   8.42990   8.56914  10.60101
 Alpha virt. eigenvalues --   12.29947  13.57726  13.57726  13.64526  13.64526
 Alpha virt. eigenvalues --   13.88097  17.39831  17.39831  17.41458  17.41458
 Alpha virt. eigenvalues --   17.50517  17.50517  17.60913  17.60913  17.72294
 Alpha virt. eigenvalues --   18.11220  22.05637  22.05637  22.05914  22.05914
 Alpha virt. eigenvalues --   22.09557  22.09557  22.20060  22.20060  22.26474
 Alpha virt. eigenvalues --   25.14113  25.14113  25.20036  25.20036  25.30753
 Alpha virt. eigenvalues --   25.73945  36.27107  36.27107  36.62171  45.90455
 Alpha virt. eigenvalues --   45.90455  45.95713  45.95713  46.13461  52.34975
 Alpha virt. eigenvalues --   64.11349  69.02475  69.02475  69.40317 101.96502
 Alpha virt. eigenvalues --  101.96502 102.00728 102.00728 102.14851 104.75024
 Alpha virt. eigenvalues --  128.78063 128.78063 129.14247 187.35363 242.64159
 Alpha virt. eigenvalues --  242.64159 242.98471 335.86707 354.50999 354.50999
 Alpha virt. eigenvalues --  354.53623 354.53623 354.63263 471.79486 471.79486
 Alpha virt. eigenvalues --  472.11767 638.42791 964.79400 964.79400 965.08912
 Alpha virt. eigenvalues -- 1284.684762120.459332120.459332120.722122744.68405
 Alpha virt. eigenvalues -- 5154.543195154.543195154.769836247.12532**********
 Alpha virt. eigenvalues -- ****************************************
     Molecular Orbital Coefficients:
                           1         2         3         4         5
                           O         O         O         O         O
     Eigenvalues --    -4.14363  -2.76357  -2.76334  -2.76334  -0.64735
   1 1   Mn 1S         -0.00001   0.00000   0.00000   0.00000   0.00000
   2        2S          0.00004   0.00000   0.00000  -0.00000  -0.00001
   3        3S         -0.00015   0.00000   0.00000   0.00000   0.00003
   4        4S          0.00051   0.00000   0.00000  -0.00000  -0.00009
   5        5S         -0.00157   0.00000   0.00000   0.00001   0.00027
   6        6S          0.00460   0.00000   0.00000  -0.00002  -0.00079
   7        7S         -0.01381   0.00000   0.00000   0.00006   0.00238
   8        8S          0.04399   0.00000   0.00000  -0.00019  -0.00779
   9        9S          0.02065   0.00000   0.00000   0.00015  -0.00121
  10       10S         -0.54562   0.00000   0.00000   0.00068   0.08815
  11       11S         -0.03712   0.00000   0.00000  -0.00360  -0.02074
  12       12S          0.85691   0.00000   0.00000   0.00216  -0.11359
  13       13S          0.40174   0.00000   0.00000   0.00185  -0.11603
  14       14S          0.01345   0.00000   0.00000   0.00656   0.20508
  15       15S         -0.00474   0.00000   0.00000   0.01088   0.08592
  16       16S          0.00342   0.00000   0.00000  -0.00459   0.01115
  17       17S          0.21751   0.00000   0.00000   0.00241  -0.02020
  18       18S         -0.09612   0.00000   0.00000  -0.00539  -0.06617
  19       19S         -0.00023   0.00000   0.00000  -0.00070  -0.01323
  20       20PX         0.00000  -0.00000   0.00000   0.00000   0.00000
  21       20PY         0.00000   0.00000  -0.00000   0.00000   0.00000
  22       20PZ        -0.00000   0.00000   0.00000  -0.00000  -0.00000
  23       21PX         0.00000   0.00001   0.00000   0.00000   0.00000
  24       21PY         0.00000   0.00000   0.00001   0.00000   0.00000
  25       21PZ         0.00000   0.00000   0.00000   0.00001   0.00000
  26       22PX         0.00000  -0.00006   0.00000   0.00000   0.00000
  27       22PY         0.00000   0.00000  -0.00006   0.00000   0.00000
  28       22PZ        -0.00000   0.00000   0.00000  -0.00006  -0.00001
  29       23PX         0.00000   0.00024   0.00000   0.00000   0.00000
  30       23PY         0.00000   0.00000   0.00024   0.00000   0.00000
  31       23PZ         0.00000   0.00000   0.00000   0.00024   0.00003
  32       24PX         0.00000  -0.00087   0.00000   0.00000   0.00000
  33       24PY         0.00000   0.00000  -0.00087   0.00000   0.00000
  34       24PZ        -0.00001   0.00000   0.00000  -0.00087  -0.00013
  35       25PX         0.00000   0.00329   0.00000   0.00000   0.00000
  36       25PY         0.00000   0.00000   0.00329   0.00000   0.00000
  37       25PZ         0.00003   0.00000   0.00000   0.00331   0.00049
  38       26PX         0.00000   0.00001   0.00000   0.00000   0.00000
  39       26PY         0.00000   0.00000   0.00001   0.00000   0.00000
  40       26PZ        -0.00007   0.00000   0.00000  -0.00004  -0.00005
  41       27PX         0.00000  -0.08900   0.00000   0.00000   0.00000
  42       27PY         0.00000   0.00000  -0.08900   0.00000   0.00000
  43       27PZ         0.00010   0.00000   0.00000  -0.08895  -0.01366
  44       28PX         0.00000  -0.00725   0.00000   0.00000   0.00000
  45       28PY         0.00000   0.00000  -0.00725   0.00000   0.00000
  46       28PZ         0.00582   0.00000   0.00000  -0.00552  -0.00073
  47       29PX         0.00000   0.32942   0.00000   0.00000   0.00000
  48       29PY         0.00000   0.00000   0.32942   0.00000   0.00000
  49       29PZ        -0.00024   0.00000   0.00000   0.32998   0.05262
  50       30PX         0.00000   0.21830   0.00000   0.00000   0.00000
  51       30PY         0.00000   0.00000   0.21830   0.00000   0.00000
  52       30PZ        -0.00458   0.00000   0.00000   0.22027   0.03927
  53       31PX         0.00000   0.28763   0.00000   0.00000   0.00000
  54       31PY         0.00000   0.00000   0.28763   0.00000   0.00000
  55       31PZ         0.00090   0.00000   0.00000   0.28365   0.05285
  56       32PX         0.00000   0.04032   0.00000   0.00000   0.00000
  57       32PY         0.00000   0.00000   0.04032   0.00000   0.00000
  58       32PZ         0.00057   0.00000   0.00000   0.03769  -0.06681
  59       33PX         0.00000  -0.00347   0.00000   0.00000   0.00000
  60       33PY         0.00000   0.00000  -0.00347   0.00000   0.00000
  61       33PZ        -0.00050   0.00000   0.00000  -0.00841  -0.08819
  62       34PX         0.00000   0.00156   0.00000   0.00000   0.00000
  63       34PY         0.00000   0.00000   0.00156   0.00000   0.00000
  64       34PZ        -0.00033   0.00000   0.00000   0.00355  -0.01979
  65       35PX         0.00000   0.03688   0.00000   0.00000   0.00000
  66       35PY         0.00000   0.00000   0.03688   0.00000   0.00000
  67       35PZ        -0.00552   0.00000   0.00000   0.03531   0.00659
  68       36PX         0.00000   0.24306   0.00000   0.00000   0.00000
  69       36PY         0.00000   0.00000   0.24306   0.00000   0.00000
  70       36PZ         0.00648   0.00000   0.00000   0.24156   0.04020
  71       37PX         0.00000  -0.00047   0.00000   0.00000   0.00000
  72       37PY         0.00000   0.00000  -0.00047   0.00000   0.00000
  73       37PZ        -0.00022   0.00000   0.00000   0.00037   0.00354
  74       38D 0       -0.00000   0.00000   0.00000   0.00000   0.00005
  75       38D+1        0.00000   0.00000   0.00000   0.00000   0.00000
  76       38D-1        0.00000   0.00000   0.00000   0.00000   0.00000
  77       38D+2       -0.00000   0.00000   0.00000  -0.00000  -0.00000
  78       38D-2        0.00000   0.00000   0.00000   0.00000   0.00000
  79       39D 0       -0.00008   0.00000   0.00000   0.00021   0.00421
  80       39D+1        0.00000   0.00003   0.00000   0.00000   0.00000
  81       39D-1        0.00000   0.00000   0.00003   0.00000   0.00000
  82       39D+2        0.00000   0.00000   0.00000   0.00000   0.00000
  83       39D-2        0.00000   0.00000   0.00000   0.00000   0.00000
  84       40D 0       -0.00032   0.00000   0.00000   0.00082   0.01610
  85       40D+1        0.00000   0.00011   0.00000   0.00000   0.00000
  86       40D-1        0.00000   0.00000   0.00011   0.00000   0.00000
  87       40D+2       -0.00000   0.00000   0.00000  -0.00000   0.00000
  88       40D-2        0.00000   0.00000   0.00000   0.00000   0.00000
  89       41D 0        0.00018   0.00000   0.00000   0.00160   0.03491
  90       41D+1        0.00000   0.00024   0.00000   0.00000   0.00000
  91       41D-1        0.00000   0.00000   0.00024   0.00000   0.00000
  92       41D+2        0.00000   0.00000   0.00000   0.00000   0.00000
  93       41D-2        0.00000   0.00000   0.00000   0.00000   0.00000
  94       42D 0       -0.02372   0.00000   0.00000   0.01628   0.04405
  95       42D+1        0.00000   0.00183   0.00000   0.00000   0.00000
  96       42D-1        0.00000   0.00000   0.00183   0.00000   0.00000
  97       42D+2       -0.00000   0.00000   0.00000  -0.00000   0.00000
  98       42D-2        0.00000   0.00000   0.00000   0.00000   0.00000
  99       43D 0       -0.00189   0.00000   0.00000   0.00263   0.06889
 100       43D+1        0.00000   0.00066   0.00000   0.00000   0.00000
 101       43D-1        0.00000   0.00000   0.00066   0.00000   0.00000
 102       43D+2        0.00000   0.00000   0.00000   0.00000   0.00000
 103       43D-2        0.00000   0.00000   0.00000   0.00000   0.00000
 104       44D 0       -0.00081   0.00000   0.00000   0.00292   0.05702
 105       44D+1        0.00000   0.00007   0.00000   0.00000   0.00000
 106       44D-1        0.00000   0.00000   0.00007   0.00000   0.00000
 107       44D+2       -0.00000   0.00000   0.00000   0.00000   0.00000
[...]
 169       54G+2        0.00000   0.00000  -0.00000   0.00000
 170       54G-2        0.00000   0.00000  -0.00000   0.00000
 171       54G+3        0.00000   0.00000  -0.00000   0.00000
 172       54G-3        0.00000   0.00000   0.00000   0.00000
 173       54G+4        0.00000   0.00000   0.00000   0.00000
 174       54G-4        0.00000   0.00000   0.00000   0.00000
 175       55G 0        0.00029   0.00016   0.00013   0.00003
 176       55G+1        0.00000   0.00000   0.00000   0.00000
 177       55G-1        0.00000   0.00000   0.00000   0.00000
 178       55G+2        0.00000   0.00000   0.00000   0.00000
 179       55G-2        0.00000   0.00000   0.00000   0.00000
 180       55G+3        0.00000   0.00000   0.00000   0.00000
 181       55G-3       -0.00000  -0.00000  -0.00000  -0.00000
 182       55G+4        0.00000   0.00000   0.00000   0.00000
 183       55G-4        0.00000   0.00000  -0.00000   0.00000
 184 2   H  1S          0.00079   0.00041   0.00038   0.00003
 185        2S          0.02734   0.01413   0.01321   0.00092
 186        3S          0.20844   0.10751   0.10093   0.00658
 187        4S          0.63256   0.32622   0.30634   0.01988
 188        5S          0.52040   0.26677   0.25363   0.01314
 189        6S          0.04240   0.02450   0.01789   0.00661
 190        7PX         0.00026   0.00025   0.00000   0.00025
 191        7PY         0.00026   0.00025   0.00000   0.00025
 192        7PZ         0.00173   0.00114   0.00059   0.00054
 193        8PX         0.00057   0.00055   0.00002   0.00052
 194        8PY         0.00057   0.00055   0.00002   0.00052
 195        8PZ         0.00495   0.00225   0.00271  -0.00046
 196        9PX        -0.00054  -0.00056   0.00002  -0.00058
 197        9PY        -0.00054  -0.00056   0.00002  -0.00058
 198        9PZ         0.00019  -0.00099   0.00118  -0.00217
 199       10D 0        0.00032   0.00023   0.00009   0.00014
 200       10D+1        0.00026   0.00025   0.00001   0.00023
 201       10D-1        0.00026   0.00025   0.00001   0.00023
 202       10D+2        0.00001   0.00001   0.00000   0.00001
 203       10D-2        0.00001   0.00001  -0.00000   0.00001
 204       11D 0        0.00011   0.00010   0.00001   0.00009
 205       11D+1       -0.00074  -0.00071  -0.00003  -0.00068
 206       11D-1       -0.00074  -0.00071  -0.00003  -0.00068
 207       11D+2       -0.00012  -0.00012   0.00000  -0.00012
 208       11D-2       -0.00012  -0.00012  -0.00000  -0.00012
          Condensed to atoms (all electrons):
               1          2
     1  Mn  14.260032   0.301329
     2  H    0.301329   1.137309
          Atomic-Atomic Spin Densities.
               1          2
     1  Mn   5.983230  -0.027804
     2  H   -0.027804   0.072377
 Mulliken charges and spin densities:
               1          2
     1  Mn   0.438638   5.955426
     2  H   -0.438638   0.044574
 Sum of Mulliken charges =  -0.00000   6.00000
 Mulliken charges and spin densities with hydrogens summed into heavy atoms:
               1          2
     1  Mn  -0.000000   6.000000
 Electronic spatial extent (au):  <R**2>=             50.5658
 Charge=             -0.0000 electrons
 Dipole moment (field-independent basis, Debye):
    X=              0.0000    Y=              0.0000    Z=              0.6172  Tot=              0.6172
 Quadrupole moment (field-independent basis, Debye-Ang):
   XX=            -16.0522   YY=            -16.0522   ZZ=            -25.6768
   XY=              0.0000   XZ=              0.0000   YZ=              0.0000
 Traceless Quadrupole moment (field-independent basis, Debye-Ang):
   XX=              3.2082   YY=              3.2082   ZZ=             -6.4164
   XY=              0.0000   XZ=              0.0000   YZ=              0.0000
 Octapole moment (field-independent basis, Debye-Ang**2):
  XXX=              0.0000  YYY=              0.0000  ZZZ=              1.0109  XYY=              0.0000
  XXY=              0.0000  XXZ=             -1.0777  XZZ=              0.0000  YZZ=              0.0000
  YYZ=             -1.0777  XYZ=              0.0000
 Hexadecapole moment (field-independent basis, Debye-Ang**3):
 XXXX=            -27.2927 YYYY=            -27.2927 ZZZZ=            -91.5036 XXXY=              0.0000
 XXXZ=              0.0000 YYYX=              0.0000 YYYZ=              0.0000 ZZZX=              0.0000
 ZZZY=              0.0000 XXYY=             -9.0976 XXZZ=            -18.7970 YYZZ=            -18.7970
 XXYZ=              0.0000 YYXZ=              0.0000 ZZXY=              0.0000
 N-N= 5.291772109200D+00 E-N=-2.490544032631D+02  KE= 5.803884375948D+01
 Symmetry A1   KE= 2.521500496119D+01
 Symmetry A2   KE= 6.331193347595D+00
 Symmetry B1   KE= 1.324632272518D+01
 Symmetry B2   KE= 1.324632272552D+01
 Symmetry A1   SP= 3.000000000000D+00
 Symmetry A2   SP= 1.000000000000D+00
 Symmetry B1   SP= 1.000000000000D+00
 Symmetry B2   SP= 1.000000000000D+00
 Orbital energies and kinetic energies (alpha):
                                 1                 2
   1         O                -4.143634          2.066759
   2         O                -2.763568          3.455288
   3         O                -2.763338          3.455288
   4         O                -2.763338          3.450924
   5         O                -0.647354          0.731921
   6         O                -0.638526          6.331193
   7         O                -0.638526          6.331193
   8         O                -0.632868          4.625206
   9         O                -0.632868          6.335748
  10         O                -0.418304          6.335748
  11         O                -0.253063          1.759400
  12         V                 0.013494          0.062594
  13         V                 0.013494          0.062594
  14         V                 0.022531          0.032255
  15         V                 0.031940          0.045053
  16         V                 0.058298          0.182491
  17         V                 0.058298          0.182491
  18         V                 0.084650          0.107001
  19         V                 0.085078          0.107001
  20         V                 0.085078          0.112728
  21         V                 0.089645          0.110123
  22         V                 0.089645          0.110123
  23         V                 0.093988          0.136759
  24         V                 0.141190          0.230187
  25         V                 0.206848          0.377681
  26         V                 0.227936          0.468593
  27         V                 0.227936          0.468593
  28         V                 0.254470          0.497269
  29         V                 0.297695          0.607024
  30         V                 0.297695          0.607024
  31         V                 0.298540          0.623010
  32         V                 0.298540          0.623010
  33         V                 0.350628          0.388602
  34         V                 0.353379          0.388602
  35         V                 0.353379          0.526040
  36         V                 0.421653          0.621344
  37         V                 0.535500          1.039473
  38         V                 0.675386          0.970339
  39         V                 0.757929          0.902107
  40         V                 0.757929          0.902107
  41         V                 0.766398          0.948688
  42         V                 0.766398          0.948688
  43         V                 0.792473          1.433613
  44         V                 0.792473          1.433613
  45         V                 0.859207          1.063279
  46         V                 0.859207          1.063279
  47         V                 0.905363          1.378868
  48         V                 0.927005          1.495941
  49         V                 0.969085          2.147612
  50         V                 0.969085          2.147612
  51         V                 0.973011          2.392849
  52         V                 0.973011          2.392849
  53         V                 1.077537          1.688605
  54         V                 1.084573          1.585505
  55         V                 1.084573          1.585505
  56         V                 1.103563          1.224942
  57         V                 1.103563          1.224942
  58         V                 1.444040          2.343795
  59         V                 1.633907          1.963881
  60         V                 1.633907          1.963881
  61         V                 1.727942          2.164143
  62         V                 1.896073          2.882638
  63         V                 2.318772          3.315140
  64         V                 2.318772          3.315140
  65         V                 2.341950          3.309999
  66         V                 2.341950          3.309999
  67         V                 2.408781          3.389906
  68         V                 2.408781          3.389906
  69         V                 2.519121          3.405519
  70         V                 2.617324          4.221661
  71         V                 2.617324          4.221661
  72         V                 2.757288          3.254810
  73         V                 2.768706          3.254810
  74         V                 2.768706          4.397345
  75         V                 2.783268          3.255013
  76         V                 2.783268          3.255013
  77         V                 2.847737          3.821736
  78         V                 2.853525          4.190947
  79         V                 2.853525          4.190947
  80         V                 2.865214          6.075093
  81         V                 2.865214          6.075093
  82         V                 2.905213          5.999827
  83         V                 2.905213          5.999827
  84         V                 3.062845          5.945840
  85         V                 3.268905          4.336143
  86         V                 3.268905          4.336143
  87         V                 3.486832          4.484321
  88         V                 4.052944          4.295282
  89         V                 4.052944          4.295282
  90         V                 4.462559          5.085568
  91         V                 4.462559          5.085568
  92         V                 4.676050          5.276371
  93         V                 4.676050          5.276371
  94         V                 4.955270          5.839528
  95         V                 5.156766          6.541053
  96         V                 5.732578          7.380180
  97         V                 6.356176          9.967656
  98         V                 6.356176          9.967656
  99         V                 6.388531          9.986134
 100         V                 6.388531          9.986134
 101         V                 6.568058         10.238057
 102         V                 6.568058         10.238057
 103         V                 6.756625         13.212100
 104         V                 6.756625         13.212100
 105         V                 6.801059         12.080634
 106         V                 6.865712         12.957800
 107         V                 6.865712         12.957800
 108         V                 7.211579         10.884114
 109         V                 7.404867         10.314477
 110         V                 7.404867         10.314477
 111         V                 8.134689         11.107598
 112         V                 8.151216         10.188926
 113         V                 8.151216         10.188926
 114         V                 8.159182         10.189073
 115         V                 8.159182         10.189073
 116         V                 8.232788         10.257715
 117         V                 8.232788         10.257715
 118         V                 8.429904         10.467335
 119         V                 8.429904         10.467335
 120         V                 8.569141         10.636573
 121         V                10.601006         12.836513
 122         V                12.299473         14.310113
 123         V                13.577261         23.008242
 124         V                13.577261         23.008242
 125         V                13.645263         23.041460
 126         V                13.645263         23.041460
 127         V                13.880971         23.002309
 128         V                17.398312         27.619129
 129         V                17.398312         27.619129
 130         V                17.414580         27.627592
 131         V                17.414580         27.627592
 132         V                17.505172         27.689188
 133         V                17.505172         27.689188
 134         V                17.609126         21.171097
 135         V                17.609126         21.171097
 136         V                17.722943         25.177564
 137         V                18.112202         24.274178
 138         V                22.056368         29.431056
 139         V                22.056368         29.431056
 140         V                22.059142         29.430711
 141         V                22.059142         29.430711
 142         V                22.095567         29.462521
 143         V                22.095567         29.462521
 144         V                22.200601         29.564168
 145         V                22.200601         29.564168
 146         V                22.264738         29.627597
 147         V                25.141130         38.415989
 148         V                25.141130         38.415989
 149         V                25.200361         38.453677
 150         V                25.200361         38.453677
 151         V                25.307528         35.873727
 152         V                25.739448         29.372936
 153         V                36.271068         39.309335
 154         V                36.271068         39.309335
 155         V                36.621706         39.645300
 156         V                45.904547         68.106338
 157         V                45.904547         68.106338
 158         V                45.957126         68.142245
 159         V                45.957126         68.142245
 160         V                46.134614         68.241978
 161         V                52.349747         45.841775
 162         V                64.113494         69.866203
 163         V                69.024755         68.658645
 164         V                69.024755         68.658645
 165         V                69.403172         69.024394
 166         V               101.965015        150.370640
 167         V               101.965015        150.370640
 168         V               102.007278        150.401191
 169         V               102.007278        150.401191
 170         V               102.148505        150.304615
 171         V               104.750241         69.302855
 172         V               128.780631        120.914867
 173         V               128.780631        120.914867
 174         V               129.142474        121.287017
 175         V               187.353630        120.543895
 176         V               242.641594        226.005544
 177         V               242.641594        226.005544
 178         V               242.984707        226.362405
 179         V               335.867068        254.108059
 180         V               354.509993        452.570519
 181         V               354.509993        452.570519
 182         V               354.536225        452.593373
 183         V               354.536225        452.593373
 184         V               354.632631        452.675492
 185         V               471.794863        446.540973
 186         V               471.794863        446.540973
 187         V               472.117674        446.870992
 188         V               638.427913        540.681761
 189         V               964.793999        932.654904
 190         V               964.793999        932.654904
 191         V               965.089120        932.952315
 192         V              1284.684762       1172.956155
 193         V              2120.459332       2084.150469
 194         V              2120.459332       2084.150469
 195         V              2120.722125       2084.413768
 196         V              2744.684053       2623.525054
 197         V              5154.543186       5116.264879
 198         V              5154.543186       5116.264879
 199         V              5154.769831       5116.491592
 200         V              6247.125323       6120.659062
 201         V             14770.680329      14731.643239
 202         V             14770.680329      14731.643239
 203         V             14770.865181      14731.828089
 204         V             15305.592580      15176.482359
 205         V             42071.138761      41940.814014
 Total kinetic energy from orbitals= 8.975733116438D+01
                          Isotropic Fermi Contact Couplings
        Atom                 a.u.       MegaHertz       Gauss      10(-4) cm-1
     1  Mn(55)             0.00005       0.00996       0.00355       0.00332
     2  H(1)               0.01314       9.79139       3.49381       3.26606
 --------------------------------------------------------
       Center         ----  Spin Dipole Couplings  ----
                      3XX-RR        3YY-RR        3ZZ-RR
 --------------------------------------------------------
     1   Atom       -0.123669     -0.123669      0.247338
     2   Atom       -0.198729     -0.198729      0.397459
 --------------------------------------------------------
                        XY            XZ            YZ
 --------------------------------------------------------
     1   Atom        0.000000      0.000000      0.000000
     2   Atom        0.000000      0.000000      0.000000
 --------------------------------------------------------


 ---------------------------------------------------------------------------------
              Anisotropic Spin Dipole Couplings in Principal Axis System
 ---------------------------------------------------------------------------------

       Atom             a.u.   MegaHertz   Gauss  10(-4) cm-1        Axes

              Baa    -0.1237   -16.317    -5.822    -5.443  1.0000  0.0000  0.0000
     1 Mn(55) Bbb    -0.1237   -16.317    -5.822    -5.443 -0.0000  1.0000  0.0000
              Bcc     0.2473    32.634    11.645    10.886  0.0000  0.0000  1.0000
 
              Baa    -0.1987  -106.033   -37.835   -35.369  1.0000  0.0000  0.0000
     2 H(1)   Bbb    -0.1987  -106.033   -37.835   -35.369 -0.0000  1.0000  0.0000
              Bcc     0.3975   212.065    75.670    70.737  0.0000  0.0000  1.0000
 

 ---------------------------------------------------------------------------------

 No NMR shielding tensors so no spin-rotation constants.
 Leave Link  601 at Sat May  5 08:34:32 2018, MaxMem= 21474836480 cpu:              18.5 elap:               0.6
 (Enter /home1/apps/gaussian/16rA.03/g16/l9999.exe)

 Test job not archived.
 1\1\GINC-C495-054\SP\ROCCSD(T)-Full\Gen\H1Mn1(7)\AANNABE\05-May-2018\0
 \\#P ROCCSD(T)=(maxcyc=150, Full, SaveAmplitudes, ReadAmplitudes)/Gen 
 5d 7f SCF=(maxcycles=300, VShift=400) Integral(NoXCTest) MaxDisk=500GB
  Pop=Full Pseudo=Read Guess=Read IOp(5/15=2)\\MnH\\0,7\Mn,0,0.,0.,0.\H
 ,0,0.,0.,1.5\\Version=ES64L-G16RevA.03\State=7-SG\HF=-103.7815543\MP2=
 -104.3619863\MP3=-104.3614514\PUHF=-103.7815543\PMP2-0=-104.3619863\MP
 4SDQ=-104.3665664\CCSD=-104.3672834\CCSD(T)=-104.3833797\RMSD=9.441e-0
 9\PG=C*V [C*(H1Mn1)]\\@


 CONFIDENCE IS WHAT YOU FEEL BEFORE YOU FULLY
 COMPREHEND THE SITUATION.
 Job cpu time:       0 days  1 hours 26 minutes 15.9 seconds.
 Elapsed time:       0 days  0 hours  2 minutes 45.6 seconds.
 File lengths (MBytes):  RWF=   2304 Int=      0 D2E=      0 Chk=     12 Scr=      1
 Normal termination of Gaussian 16 at Sat May  5 08:34:32 2018.
