 Entering Gaussian System, Link 0=g16
 Initial command:
 /home1/apps/gaussian/16rA.03/g16/l1.exe "/tmp/Gau-129226.inp" -scrdir="/tmp/"
 Entering Link 1 = /home1/apps/gaussian/16rA.03/g16/l1.exe PID=    129227.
  
 Copyright (c) 1988,1990,1992,1993,1995,1998,2003,2009,2016,
            Gaussian, Inc.  All Rights Reserved.
  
 This is part of the Gaussian(R) 16 program.  It is based on
 the Gaussian(R) 09 system (copyright 2009, Gaussian, Inc.),
 the Gaussian(R) 03 system (copyright 2003, Gaussian, Inc.),
 the Gaussian(R) 98 system (copyright 1998, Gaussian, Inc.),
 the Gaussian(R) 94 system (copyright 1995, Gaussian, Inc.),
 the Gaussian 92(TM) system (copyright 1992, Gaussian, Inc.),
 the Gaussian 90(TM) system (copyright 1990, Gaussian, Inc.),
 the Gaussian 88(TM) system (copyright 1988, Gaussian, Inc.),
 the Gaussian 86(TM) system (copyright 1986, Carnegie Mellon
 University), and the Gaussian 82(TM) system (copyright 1983,
 Carnegie Mellon University). Gaussian is a federally registered
 trademark of Gaussian, Inc.
  
 This software contains proprietary and confidential information,
 including trade secrets, belonging to Gaussian, Inc.
  
 This software is provided under written license and may be
 used, copied, transmitted, or stored only in accord with that
 written license.
  
 The following legend is applicable only to US Government
 contracts under FAR:
  
                    RESTRICTED RIGHTS LEGEND
  
 Use, reproduction and disclosure by the US Government is
 subject to restrictions as set forth in subparagraphs (a)
 and (c) of the Commercial Computer Software - Restricted
 Rights clause in FAR 52.227-19.
  
 Gaussian, Inc.
 340 Quinnipiac St., Bldg. 40, Wallingford CT 06492
  
  
 ---------------------------------------------------------------
 Warning -- This program may not be used in any manner that
 competes with the business of Gaussian, Inc. or will provide
 assistance to any competitor of Gaussian, Inc.  The licensee
 of this program is prohibited from giving any competitor of
 Gaussian, Inc. access to this program.  By using this program,
 the user acknowledges that Gaussian, Inc. is engaged in the
 business of creating and licensing software in the field of
 computational chemistry and represents and warrants to the
 licensee that it is not a competitor of Gaussian, Inc. and that
 it will not use this program in any manner prohibited above.
 ---------------------------------------------------------------
  

 Cite this work as:
 Gaussian 16, Revision A.03,
 M. J. Frisch, G. W. Trucks, H. B. Schlegel, G. E. Scuseria, 
 M. A. Robb, J. R. Cheeseman, G. Scalmani, V. Barone, 
 G. A. Petersson, H. Nakatsuji, X. Li, M. Caricato, A. V. Marenich, 
 J. Bloino, B. G. Janesko, R. Gomperts, B. Mennucci, H. P. Hratchian, 
 J. V. Ortiz, A. F. Izmaylov, J. L. Sonnenberg, D. Williams-Young, 
 F. Ding, F. Lipparini, F. Egidi, J. Goings, B. Peng, A. Petrone, 
 T. Henderson, D. Ranasinghe, V. G. Zakrzewski, J. Gao, N. Rega, 
 G. Zheng, W. Liang, M. Hada, M. Ehara, K. Toyota, R. Fukuda, 
 J. Hasegawa, M. Ishida, T. Nakajima, Y. Honda, O. Kitao, H. Nakai, 
 T. Vreven, K. Throssell, J. A. Montgomery, Jr., J. E. Peralta, 
 F. Ogliaro, M. J. Bearpark, J. J. Heyd, E. N. Brothers, K. N. Kudin, 
 V. N. Staroverov, T. A. Keith, R. Kobayashi, J. Normand, 
 K. Raghavachari, A. P. Rendell, J. C. Burant, S. S. Iyengar, 
 J. Tomasi, M. Cossi, J. M. Millam, M. Klene, C. Adamo, R. Cammi, 
 J. W. Ochterski, R. L. Martin, K. Morokuma, O. Farkas, 
 J. B. Foresman, and D. J. Fox, Gaussian, Inc., Wallingford CT, 2016.
 
 ******************************************
 Gaussian 16:  ES64L-G16RevA.03 25-Dec-2016
                28-Apr-2018 
 ******************************************
 %mem=80GB
 %cpu=0-31
 SetSPE:  set environment variable "MP_BIND" = "yes"
 SetSPE:  set environment variable "MP_BLIST" = "0,1,2,3,4,5,6,7,8,9,10,11,12,13,14,15,16,17,18,19,20,21,22,23,24,25,26,27,28,29,30,31"
 Will use up to   32 processors via shared memory.
 %chk=5z.chk
 %rwf=/scratch/04843/gwang18/znh/
 ----------------------------------------------------------------------
 #P ROCCSD(T)=(MaxCyc=150, Full)/Gen SCF=(maxcycle=400, vshift=200) Pse
 udo=Read Integral(NoXCTest) Pop=Regular MaxDisk=500GB Guess=Read IOp(5
 /15=2)
 ----------------------------------------------------------------------
 1/38=1,172=1/1;
 2/12=2,17=6,18=5,40=1/2;
 3/5=7,11=2,16=1,17=8,25=1,30=1,47=8,116=101/1,2,3;
 4/5=1/1;
 5/5=2,7=400,10=200,15=2,38=6/2;
 8/5=-1,6=4,9=120000,10=90/1,4;
 9/5=7,6=150,14=2/13;
 6//1;
 99/5=1,9=1/99;
 Leave Link    1 at Sat Apr 28 21:40:58 2018, MaxMem= 10737418240 cpu:               8.3 elap:               0.3
 (Enter /home1/apps/gaussian/16rA.03/g16/l101.exe)
 ---
 ZnH
 ---
 Symbolic Z-matrix:
 Charge =  0 Multiplicity = 2
 Zn                    0.        0.        0. 
 H                     0.        0.        1.4 
 
 ITRead=  0  0
 MicOpt= -1 -1
 NAtoms=      2 NQM=        2 NQMF=       0 NMMI=      0 NMMIF=      0
                NMic=       0 NMicF=      0.
                    Isotopes and Nuclear Properties:
 (Nuclear quadrupole moments (NQMom) in fm**2, nuclear magnetic moments (NMagM)
  in nuclear magnetons)

  Atom         1           2
 IAtWgt=          64           1
 AtmWgt=  63.9291454   1.0078250
 NucSpn=           0           1
 AtZEff=  -0.0000000  -0.0000000
 NQMom=    0.0000000   0.0000000
 NMagM=    0.0000000   2.7928460
 AtZNuc=  30.0000000   1.0000000
 Leave Link  101 at Sat Apr 28 21:40:58 2018, MaxMem= 10737418240 cpu:               3.0 elap:               0.1
 (Enter /home1/apps/gaussian/16rA.03/g16/l202.exe)
                          Input orientation:                          
 ---------------------------------------------------------------------
 Center     Atomic      Atomic             Coordinates (Angstroms)
 Number     Number       Type             X           Y           Z
 ---------------------------------------------------------------------
      1         30           0        0.000000    0.000000    0.000000
      2          1           0        0.000000    0.000000    1.400000
 ---------------------------------------------------------------------
 Stoichiometry    HZn(2)
 Framework group  C*V[C*(HZn)]
 Deg. of freedom     1
 Full point group                 C*V     NOp   4
 Largest Abelian subgroup         C2V     NOp   4
 Largest concise Abelian subgroup C1      NOp   1
                         Standard orientation:                         
 ---------------------------------------------------------------------
 Center     Atomic      Atomic             Coordinates (Angstroms)
 Number     Number       Type             X           Y           Z
 ---------------------------------------------------------------------
      1         30           0        0.000000    0.000000    0.045161
      2          1           0        0.000000    0.000000   -1.354839
 ---------------------------------------------------------------------
 Rotational constants (GHZ):           0.0000000         259.8777569         259.8777569
 Leave Link  202 at Sat Apr 28 21:40:58 2018, MaxMem= 10737418240 cpu:               0.8 elap:               0.1
 (Enter /home1/apps/gaussian/16rA.03/g16/l301.exe)
 General basis read from cards:  (5D, 7F)
 Centers:       1
 S 1 1.00
     Exponent=  1.8741300000D+08 Coefficients=  1.0000000000D+00
 S 1 1.00
     Exponent=  3.3512700000D+07 Coefficients=  1.0000000000D+00
 S 1 1.00
     Exponent=  7.5047500000D+06 Coefficients=  1.0000000000D+00
 S 1 1.00
     Exponent=  2.0178700000D+06 Coefficients=  1.0000000000D+00
 S 1 1.00
     Exponent=  6.2857800000D+05 Coefficients=  1.0000000000D+00
 S 1 1.00
     Exponent=  2.2016300000D+05 Coefficients=  1.0000000000D+00
 S 1 1.00
     Exponent=  8.4595200000D+04 Coefficients=  1.0000000000D+00
 S 1 1.00
     Exponent=  3.4955500000D+04 Coefficients=  1.0000000000D+00
 S 1 1.00
     Exponent=  1.5290300000D+04 Coefficients=  1.0000000000D+00
 S 1 1.00
     Exponent=  6.9949300000D+03 Coefficients=  1.0000000000D+00
 S 1 1.00
     Exponent=  3.3165900000D+03 Coefficients=  1.0000000000D+00
 S 1 1.00
     Exponent=  1.6192400000D+03 Coefficients=  1.0000000000D+00
 S 1 1.00
     Exponent=  8.1034300000D+02 Coefficients=  1.0000000000D+00
 S 1 1.00
     Exponent=  4.1439300000D+02 Coefficients=  1.0000000000D+00
 S 1 1.00
     Exponent=  2.1605800000D+02 Coefficients=  1.0000000000D+00
 S 1 1.00
     Exponent=  1.1463500000D+02 Coefficients=  1.0000000000D+00
 S 1 1.00
     Exponent=  6.1762300000D+01 Coefficients=  1.0000000000D+00
 S 1 1.00
     Exponent=  3.3692400000D+01 Coefficients=  1.0000000000D+00
 S 1 1.00
     Exponent=  1.8531500000D+01 Coefficients=  1.0000000000D+00
 S 1 1.00
     Exponent=  1.0214400000D+01 Coefficients=  1.0000000000D+00
 S 1 1.00
     Exponent=  5.5942800000D+00 Coefficients=  1.0000000000D+00
 S 1 1.00
     Exponent=  3.0096800000D+00 Coefficients=  1.0000000000D+00
 S 1 1.00
     Exponent=  1.5668400000D+00 Coefficients=  1.0000000000D+00
 S 1 1.00
     Exponent=  7.8143700000D-01 Coefficients=  1.0000000000D+00
 S 1 1.00
     Exponent=  2.5811800000D-01 Coefficients=  1.0000000000D+00
 S 1 1.00
     Exponent=  1.3855600000D-01 Coefficients=  1.0000000000D+00
 S 1 1.00
     Exponent=  6.6171000000D-02 Coefficients=  1.0000000000D+00
 S 1 1.00
     Exponent=  3.0986000000D-02 Coefficients=  1.0000000000D+00
 S 1 1.00
     Exponent=  1.0450800000D+01 Coefficients=  1.0000000000D+00
 S 1 1.00
     Exponent=  3.9198000000D+00 Coefficients=  1.0000000000D+00
 S 1 1.00
     Exponent=  1.4510000000D-02 Coefficients=  1.0000000000D+00
 P 1 1.00
     Exponent=  1.1034900000D+05 Coefficients=  1.0000000000D+00
 P 1 1.00
     Exponent=  2.6971300000D+04 Coefficients=  1.0000000000D+00
 P 1 1.00
     Exponent=  8.5600700000D+03 Coefficients=  1.0000000000D+00
 P 1 1.00
     Exponent=  3.2488000000D+03 Coefficients=  1.0000000000D+00
 P 1 1.00
     Exponent=  1.3894100000D+03 Coefficients=  1.0000000000D+00
 P 1 1.00
     Exponent=  6.4304300000D+02 Coefficients=  1.0000000000D+00
 P 1 1.00
     Exponent=  3.1400500000D+02 Coefficients=  1.0000000000D+00
 P 1 1.00
     Exponent=  1.5948900000D+02 Coefficients=  1.0000000000D+00
 P 1 1.00
     Exponent=  8.3666200000D+01 Coefficients=  1.0000000000D+00
 P 1 1.00
     Exponent=  4.5157400000D+01 Coefficients=  1.0000000000D+00
 P 1 1.00
     Exponent=  2.4963000000D+01 Coefficients=  1.0000000000D+00
 P 1 1.00
     Exponent=  1.4004300000D+01 Coefficients=  1.0000000000D+00
 P 1 1.00
     Exponent=  7.8326700000D+00 Coefficients=  1.0000000000D+00
 P 1 1.00
     Exponent=  4.2841000000D+00 Coefficients=  1.0000000000D+00
 P 1 1.00
     Exponent=  2.2890100000D+00 Coefficients=  1.0000000000D+00
 P 1 1.00
     Exponent=  1.1943600000D+00 Coefficients=  1.0000000000D+00
 P 1 1.00
     Exponent=  5.9425800000D-01 Coefficients=  1.0000000000D+00
 P 1 1.00
     Exponent=  2.2691400000D-01 Coefficients=  1.0000000000D+00
 P 1 1.00
     Exponent=  9.0179000000D-02 Coefficients=  1.0000000000D+00
 P 1 1.00
     Exponent=  3.5718000000D-02 Coefficients=  1.0000000000D+00
 P 1 1.00
     Exponent=  1.4897100000D+01 Coefficients=  1.0000000000D+00
 P 1 1.00
     Exponent=  4.7100000000D+00 Coefficients=  1.0000000000D+00
 P 1 1.00
     Exponent=  1.4150000000D-02 Coefficients=  1.0000000000D+00
 D 1 1.00
     Exponent=  8.5412230000D+02 Coefficients=  1.0000000000D+00
 D 1 1.00
     Exponent=  2.5794960000D+02 Coefficients=  1.0000000000D+00
 D 1 1.00
     Exponent=  1.0023190000D+02 Coefficients=  1.0000000000D+00
 D 1 1.00
     Exponent=  4.4176210000D+01 Coefficients=  1.0000000000D+00
 D 1 1.00
     Exponent=  2.0784760000D+01 Coefficients=  1.0000000000D+00
 D 1 1.00
     Exponent=  1.0227560000D+01 Coefficients=  1.0000000000D+00
 D 1 1.00
     Exponent=  5.1512410000D+00 Coefficients=  1.0000000000D+00
 D 1 1.00
     Exponent=  2.5908470000D+00 Coefficients=  1.0000000000D+00
 D 1 1.00
     Exponent=  1.2858010000D+00 Coefficients=  1.0000000000D+00
 D 1 1.00
     Exponent=  6.2534400000D-01 Coefficients=  1.0000000000D+00
 D 1 1.00
     Exponent=  2.9394300000D-01 Coefficients=  1.0000000000D+00
 D 1 1.00
     Exponent=  1.2899700000D-01 Coefficients=  1.0000000000D+00
 D 1 1.00
     Exponent=  1.1593600000D+01 Coefficients=  1.0000000000D+00
 D 1 1.00
     Exponent=  7.2491000000D+00 Coefficients=  1.0000000000D+00
 D 1 1.00
     Exponent=  5.6610000000D-02 Coefficients=  1.0000000000D+00
 F 1 1.00
     Exponent=  1.7862800000D+01 Coefficients=  1.0000000000D+00
 F 1 1.00
     Exponent=  8.0392000000D+00 Coefficients=  1.0000000000D+00
 F 1 1.00
     Exponent=  3.6180000000D+00 Coefficients=  1.0000000000D+00
 F 1 1.00
     Exponent=  1.6283000000D+00 Coefficients=  1.0000000000D+00
 F 1 1.00
     Exponent=  5.7210000000D-01 Coefficients=  1.0000000000D+00
 F 1 1.00
     Exponent=  2.0101000000D-01 Coefficients=  1.0000000000D+00
 G 1 1.00
     Exponent=  1.2540600000D+01 Coefficients=  1.0000000000D+00
 G 1 1.00
     Exponent=  6.2306000000D+00 Coefficients=  1.0000000000D+00
 G 1 1.00
     Exponent=  3.0956000000D+00 Coefficients=  1.0000000000D+00
 G 1 1.00
     Exponent=  1.1951000000D+00 Coefficients=  1.0000000000D+00
 G 1 1.00
     Exponent=  4.6139000000D-01 Coefficients=  1.0000000000D+00
 H 1 1.00
     Exponent=  1.1226100000D+01 Coefficients=  1.0000000000D+00
 H 1 1.00
     Exponent=  5.5189000000D+00 Coefficients=  1.0000000000D+00
 H 1 1.00
     Exponent=  2.4250000000D+00 Coefficients=  1.0000000000D+00
 H 1 1.00
     Exponent=  1.0655400000D+00 Coefficients=  1.0000000000D+00
 I 1 1.00
     Exponent=  1.1018800000D+01 Coefficients=  1.0000000000D+00
 I 1 1.00
     Exponent=  5.5487000000D+00 Coefficients=  1.0000000000D+00
 I 1 1.00
     Exponent=  2.7941400000D+00 Coefficients=  1.0000000000D+00
 ****
 Centers:       2
 S 1 1.00
     Exponent=  4.0200000000D+02 Coefficients=  1.0000000000D+00
 S 1 1.00
     Exponent=  6.0240000000D+01 Coefficients=  1.0000000000D+00
 S 1 1.00
     Exponent=  1.3730000000D+01 Coefficients=  1.0000000000D+00
 S 1 1.00
     Exponent=  3.9050000000D+00 Coefficients=  1.0000000000D+00
 S 1 1.00
     Exponent=  1.2830000000D+00 Coefficients=  1.0000000000D+00
 S 1 1.00
     Exponent=  4.6550000000D-01 Coefficients=  1.0000000000D+00
 S 1 1.00
     Exponent=  1.8110000000D-01 Coefficients=  1.0000000000D+00
 S 1 1.00
     Exponent=  7.2790000000D-02 Coefficients=  1.0000000000D+00
 S 1 1.00
     Exponent=  2.0700000000D-02 Coefficients=  1.0000000000D+00
 P 1 1.00
     Exponent=  4.5160000000D+00 Coefficients=  1.0000000000D+00
 P 1 1.00
     Exponent=  1.7120000000D+00 Coefficients=  1.0000000000D+00
 P 1 1.00
     Exponent=  6.4900000000D-01 Coefficients=  1.0000000000D+00
 P 1 1.00
     Exponent=  2.4600000000D-01 Coefficients=  1.0000000000D+00
 P 1 1.00
     Exponent=  7.4400000000D-02 Coefficients=  1.0000000000D+00
 D 1 1.00
     Exponent=  2.9500000000D+00 Coefficients=  1.0000000000D+00
 D 1 1.00
     Exponent=  1.2060000000D+00 Coefficients=  1.0000000000D+00
 D 1 1.00
     Exponent=  4.9300000000D-01 Coefficients=  1.0000000000D+00
 D 1 1.00
     Exponent=  1.5600000000D-01 Coefficients=  1.0000000000D+00
 F 1 1.00
     Exponent=  2.5060000000D+00 Coefficients=  1.0000000000D+00
 F 1 1.00
     Exponent=  8.7500000000D-01 Coefficients=  1.0000000000D+00
 F 1 1.00
     Exponent=  2.7400000000D-01 Coefficients=  1.0000000000D+00
 G 1 1.00
     Exponent=  2.3580000000D+00 Coefficients=  1.0000000000D+00
 G 1 1.00
     Exponent=  5.4300000000D-01 Coefficients=  1.0000000000D+00
 ****
 ======================================================================================================
                                       Pseudopotential Parameters
 ======================================================================================================
  Center     Atomic      Valence      Angular      Power
  Number     Number     Electrons     Momentum     of R      Exponent        Coefficient   SO-Coeffient
 ======================================================================================================
    1         30           20
                                      D and up 
                                                     1       35.8777152       20.00000000    0.00000000
                                                     3       34.1078424      717.55430465    0.00000000
                                                     2       28.7174520     -203.49912625    0.00000000
                                                     2        8.3955088       -0.04450117    0.00000000
                                      S - D
                                                     2       14.4978289       95.23904949    0.00000000
                                                     2       35.1597610      430.48072035    0.00000000
                                      P - D
                                                     2       14.7119819       73.77695398    0.00000000
                                                     2       41.6286707      312.12270272    0.00000000
    2          1            1
                                      P and up 
                                                     2       21.7769666      -10.85192405    0.00000000
                                                     1       21.2435951        1.00000000    0.00000000
                                                     3       21.2435951       21.24359508    0.00000000
                                      S - P
                                                     2        1.0000000        0.00000000    0.00000000
 ======================================================================================================
 Ernie: Thresh=  0.10000D-02 Tol=  0.10000D-05 Strict=F.
 There are   248 symmetry adapted cartesian basis functions of A1  symmetry.
 There are    79 symmetry adapted cartesian basis functions of A2  symmetry.
 There are   137 symmetry adapted cartesian basis functions of B1  symmetry.
 There are   137 symmetry adapted cartesian basis functions of B2  symmetry.
 There are   169 symmetry adapted basis functions of A1  symmetry.
 There are    59 symmetry adapted basis functions of A2  symmetry.
 There are   100 symmetry adapted basis functions of B1  symmetry.
 There are   100 symmetry adapted basis functions of B2  symmetry.
   428 basis functions,   601 primitive gaussians,   601 cartesian basis functions
    11 alpha electrons       10 beta electrons
       nuclear repulsion energy         7.5596744417 Hartrees.
 IExCor=    0 DFT=F Ex=HF Corr=None ExCW=0 ScaHFX=  1.000000
 ScaDFX=  1.000000  1.000000  1.000000  1.000000 ScalE2=  1.000000  1.000000
 IRadAn=      5 IRanWt=     -1 IRanGd=            0 ICorTp=0 IEmpDi=  4
 NAtoms=    2 NActive=    2 NUniq=    2 SFac= 1.00D+00 NAtFMM=   60 NAOKFM=F Big=F
 Integral buffers will be    131072 words long.
 Raffenetti 2 integral format.
 Two-electron integral symmetry is turned on.
 Leave Link  301 at Sat Apr 28 21:40:59 2018, MaxMem= 10737418240 cpu:               9.5 elap:               0.4
 (Enter /home1/apps/gaussian/16rA.03/g16/l302.exe)
 NPDir=0 NMtPBC=     1 NCelOv=     1 NCel=       1 NClECP=     1 NCelD=      1
         NCelK=      1 NCelE2=     1 NClLst=     1 CellRange=     0.0.
 One-electron integrals computed using PRISM.
 One-electron integral symmetry used in STVInt
   4 Symmetry operations used in ECPInt.
 ECPInt:  NShTT=    6105 NPrTT=    6105 LenC2=    5999 LenP2D=    5998.
 LDataN:  DoStor=T MaxTD1=12 Len= 1566
 NBasis=   428 RedAO= T EigKep=  1.37D-06  NBF=   169    59   100   100
 NBsUse=   424 1.00D-06 EigRej=  1.05D-07 NBFU=   167    59    99    99
 Leave Link  302 at Sat Apr 28 21:41:08 2018, MaxMem= 10737418240 cpu:             294.2 elap:               9.2
 (Enter /home1/apps/gaussian/16rA.03/g16/l303.exe)
 DipDrv:  MaxL=1.
 Leave Link  303 at Sat Apr 28 21:41:09 2018, MaxMem= 10737418240 cpu:               4.8 elap:               0.3
 (Enter /home1/apps/gaussian/16rA.03/g16/l401.exe)
 Initial guess from the checkpoint file:  "5z.chk"
 B after Tr=     0.000000    0.000000    0.000000
         Rot=    1.000000    0.000000    0.000000    0.000000 Ang=   0.00 deg.
 Guess basis will be translated and rotated to current coordinates.
 JPrj=2 DoOrth=T DoCkMO=T.
 Initial guess orbital symmetries:
       Occupied  (SG) (PI) (PI) (SG) (SG) (DLTA) (DLTA) (PI) (PI)
                 (SG) (SG)
       Virtual   (PI) (PI) (SG) (SG) (PI) (PI) (SG) (SG) (SG) (PI)
                 (PI) (DLTA) (DLTA) (SG) (PI) (PI) (SG) (PI) (PI)
                 (SG) (SG) (PI) (PI) (DLTA) (DLTA) (SG) (DLTA)
                 (DLTA) (SG) (SG) (PI) (PI) (PI) (PI) (SG) (PI)
                 (PI) (PHI) (PHI) (DLTA) (DLTA) (SG) (PI) (PI)
                 (SG) (DLTA) (DLTA) (PHI) (PHI) (PI) (PI) (SG)
                 (SG) (DLTA) (DLTA) (PI) (PI) (SG) (DLTA) (DLTA)
                 (PI) (PI) (SG) (PI) (PI) (SG) (SG) (PI) (PI) (PHI)
                 (PHI) (DLTA) (DLTA) (SG) (PI) (PI) (DLTA) (DLTA)
                 (PI) (PI) (?A) (?A) (PHI) (PHI) (SG) (DLTA) (DLTA)
                 (SG) (PI) (PI) (SG) (SG) (PHI) (PHI) (DLTA) (DLTA)
                 (PI) (PI) (PI) (PI) (SG) (SG) (PI) (PI) (PHI)
                 (PHI) (DLTA) (DLTA) (SG) (DLTA) (DLTA) (PI) (PI)
                 (DLTA) (DLTA) (SG) (PI) (PI) (PI) (PI) (SG) (SG)
                 (SG) (?A) (?A) (PHI) (PHI) (DLTA) (DLTA) (PI)
                 (PI) (?B) (?B) (?A) (?A) (PHI) (PHI) (DLTA) (DLTA)
                 (SG) (PI) (PI) (SG) (PI) (PI) (SG) (DLTA) (DLTA)
                 (PI) (PI) (SG) (PHI) (PHI) (DLTA) (DLTA) (PI)
                 (PI) (SG) (SG) (?A) (?A) (PHI) (PHI) (DLTA) (DLTA)
                 (PI) (PI) (SG) (SG) (?B) (?B) (?A) (?A) (PHI)
                 (PHI) (DLTA) (DLTA) (PI) (PI) (SG) (DLTA) (DLTA)
                 (PI) (PI) (SG) (PI) (PI) (SG) (PHI) (PHI) (DLTA)
                 (DLTA) (PI) (PI) (SG) (SG) (?A) (?A) (PHI) (PHI)
                 (DLTA) (DLTA) (PI) (PI) (SG) (DLTA) (DLTA) (PI)
                 (PI) (SG) (?B) (?B) (?A) (?A) (PHI) (PHI) (DLTA)
                 (DLTA) (PI) (PI) (SG) (PI) (PI) (SG) (DLTA) (DLTA)
                 (PI) (PI) (SG) (SG) (PI) (PI) (SG) (SG) (DLTA)
                 (DLTA) (PI) (PI) (SG) (PI) (PI) (SG) (SG) (DLTA)
                 (DLTA) (PI) (PI) (SG) (SG) (PI) (PI) (SG) (SG)
                 (PI) (PI) (SG) (DLTA) (DLTA) (PI) (PI) (SG) (SG)
                 (PI) (PI) (SG) (DLTA) (DLTA) (PI) (PI) (SG) (SG)
                 (PI) (PI) (SG) (SG) (PI) (PI) (SG) (SG) (PI) (PI)
                 (SG) (SG) (PI) (PI) (SG) (SG) (PI) (PI) (SG) (SG)
                 (SG) (SG) (SG) (SG) (DLTA) (DLTA) (SG) (SG) (SG)
                 (SG) (SG) (DLTA) (SG) (DLTA) (SG) (DLTA) (?A)
                 (SG) (DLTA) (SG) (DLTA) (?A) (SG) (DLTA) (?A)
                 (SG) (DLTA) (SG) (SG) (SG) (SG) (SG) (?A) (SG)
                 (DLTA) (?A) (SG) (SG) (SG) (DLTA) (SG) (?A) (SG)
                 (SG) (?A) (SG) (SG) (DLTA) (DLTA) (DLTA) (DLTA)
                 (DLTA) (?A) (DLTA) (DLTA) (?A) (DLTA) (?A) (SG)
                 (DLTA) (?A) (DLTA) (?A) (DLTA) (?A) (SG) (SG)
                 (?A) (PI) (PI) (PI) (PHI) (PI) (PI) (PHI) (PI)
                 (PI) (PHI) (?B) (PI) (PI) (PHI) (PI) (?B) (PHI)
                 (PI) (PI) (PHI) (PHI) (PI) (PI) (?B) (PHI) (PHI)
                 (?B) (PI) (PI) (PI) (PHI) (PI) (PI) (PHI) (PI)
                 (PI) (PHI) (?B) (PI) (PI) (PHI) (PI) (?B) (PHI)
                 (PI) (PI) (PHI) (PHI) (PI) (PI) (?B) (PHI) (PHI)
                 (?B)
 The electronic state of the initial guess is 2-SG.
 Leave Link  401 at Sat Apr 28 21:41:11 2018, MaxMem= 10737418240 cpu:              40.4 elap:               1.5
 (Enter /home1/apps/gaussian/16rA.03/g16/l502.exe)
 Keep R1 and R2 ints in memory in symmetry-blocked form, NReq=5277864979.
 FoFCou: FMM=F IPFlag=           8 FMFlag=           0 FMFlg1=           0
         NFxFlg=           0 DoJE=F BraDBF=F KetDBF=F FulRan=T
         wScrn=  0.000000 ICntrl=       600 IOpCl=  0 I1Cent=           0 NGrid=           0
         NMat0=    1 NMatS0=  91806 NMatT0=    0 NMatD0=    1 NMtDS0=    0 NMtDT0=    0
 Petite list used in FoFCou.
 Restricted open shell SCF:
 Using DIIS extrapolation, IDIIS=  1040.
 NGot= 10737418240 LenX=  8609582347 LenY=  8609220545
 Requested convergence on RMS density matrix=1.00D-08 within 400 cycles.
 Requested convergence on MAX density matrix=1.00D-06.
 Requested convergence on             energy=1.00D-06.
 Virtual orbitals will be shifted by   0.200 hartree.
 No special actions if energy rises.

 Cycle   1  Pass 1  IDiag  1:
 E= -226.142208260448    
 DIIS: error= 1.57D+00 at cycle   1 NSaved=   1.
 NSaved= 1 IEnMin= 1 EnMin= -226.142208260448     IErMin= 1 ErrMin= 1.57D+00
 ErrMax= 1.57D+00  0.00D+00 EMaxC= 1.00D-01 BMatC= 4.34D+02 BMatP= 4.34D+02
 IDIUse=3 WtCom= 0.00D+00 WtEn= 1.00D+00
 Coeff-Com:  0.100D+01
 Coeff-En:   0.100D+01
 Coeff:      0.100D+01
 Gap=     0.093 Goal=   None    Shift=    0.200
 GapD=    0.093 DampG=0.500 DampE=0.125 DampFc=0.1250 IDamp=-1.
 Damping current iteration by 1.25D-01
 RMSDP=1.15D-03 MaxDP=1.04D-01              OVMax= 1.06D-03

 Cycle   2  Pass 1  IDiag  1:
 E= -226.142230797863     Delta-E=       -0.000022537414 Rises=F Damp=T
 DIIS: error= 1.37D+00 at cycle   2 NSaved=   2.
 NSaved= 2 IEnMin= 2 EnMin= -226.142230797863     IErMin= 2 ErrMin= 1.37D+00
 ErrMax= 1.37D+00  0.00D+00 EMaxC= 1.00D-01 BMatC= 3.33D+02 BMatP= 4.34D+02
 IDIUse=3 WtCom= 0.00D+00 WtEn= 1.00D+00
 Coeff-Com: -0.700D+01 0.800D+01
 Coeff-En:   0.000D+00 0.100D+01
 Coeff:      0.000D+00 0.100D+01
 Gap=     0.092 Goal=   None    Shift=    0.200
 RMSDP=1.01D-03 MaxDP=9.15D-02 DE=-2.25D-05 OVMax= 1.46D-04

 Cycle   3  Pass 1  IDiag  1:
 E= -226.142391107634     Delta-E=       -0.000160309771 Rises=F Damp=F
 DIIS: error= 9.07D-05 at cycle   3 NSaved=   3.
 NSaved= 3 IEnMin= 3 EnMin= -226.142391107634     IErMin= 3 ErrMin= 9.07D-05
 ErrMax= 9.07D-05  0.00D+00 EMaxC= 1.00D-01 BMatC= 5.16D-07 BMatP= 3.33D+02
 IDIUse=1 WtCom= 1.00D+00 WtEn= 0.00D+00
 Coeff-Com:  0.905D-01-0.103D+00 0.101D+01
 Coeff:      0.905D-01-0.103D+00 0.101D+01
 Gap=     0.092 Goal=   None    Shift=    0.200
 RMSDP=2.72D-05 MaxDP=6.32D-03 DE=-1.60D-04 OVMax= 1.55D-04

 Cycle   4  Pass 1  IDiag  1:
 E= -226.142391280413     Delta-E=       -0.000000172779 Rises=F Damp=F
 DIIS: error= 4.84D-06 at cycle   4 NSaved=   4.
 NSaved= 4 IEnMin= 4 EnMin= -226.142391280413     IErMin= 4 ErrMin= 4.84D-06
 ErrMax= 4.84D-06  0.00D+00 EMaxC= 1.00D-01 BMatC= 5.48D-09 BMatP= 5.16D-07
 IDIUse=1 WtCom= 1.00D+00 WtEn= 0.00D+00
 Coeff-Com:  0.607D-01-0.693D-01-0.580D-01 0.107D+01
 Coeff:      0.607D-01-0.693D-01-0.580D-01 0.107D+01
 Gap=     0.092 Goal=   None    Shift=    0.200
 RMSDP=3.69D-06 MaxDP=7.58D-04 DE=-1.73D-07 OVMax= 3.45D-05

 Cycle   5  Pass 1  IDiag  1:
 E= -226.142391286716     Delta-E=       -0.000000006303 Rises=F Damp=F
 DIIS: error= 1.69D-06 at cycle   5 NSaved=   5.
 NSaved= 5 IEnMin= 5 EnMin= -226.142391286716     IErMin= 5 ErrMin= 1.69D-06
 ErrMax= 1.69D-06  0.00D+00 EMaxC= 1.00D-01 BMatC= 3.21D-10 BMatP= 5.48D-09
 IDIUse=1 WtCom= 1.00D+00 WtEn= 0.00D+00
 Coeff-Com:  0.492D-01-0.562D-01 0.205D-01-0.265D+00 0.125D+01
 Coeff:      0.492D-01-0.562D-01 0.205D-01-0.265D+00 0.125D+01
 Gap=     0.092 Goal=   None    Shift=    0.200
 RMSDP=7.24D-07 MaxDP=1.14D-04 DE=-6.30D-09 OVMax= 1.19D-05

 Cycle   6  Pass 1  IDiag  1:
 E= -226.142391287135     Delta-E=       -0.000000000420 Rises=F Damp=F
 DIIS: error= 1.52D-06 at cycle   6 NSaved=   6.
 NSaved= 6 IEnMin= 6 EnMin= -226.142391287135     IErMin= 6 ErrMin= 1.52D-06
 ErrMax= 1.52D-06  0.00D+00 EMaxC= 1.00D-01 BMatC= 1.07D-10 BMatP= 3.21D-10
 IDIUse=1 WtCom= 1.00D+00 WtEn= 0.00D+00
 Coeff-Com:  0.431D-01-0.493D-01 0.731D-02 0.724D-01-0.551D+00 0.148D+01
 Coeff:      0.431D-01-0.493D-01 0.731D-02 0.724D-01-0.551D+00 0.148D+01
 Gap=     0.092 Goal=   None    Shift=    0.200
 RMSDP=1.48D-07 MaxDP=2.60D-05 DE=-4.20D-10 OVMax= 5.75D-06

 Cycle   7  Pass 1  IDiag  1:
 E= -226.142391287189     Delta-E=       -0.000000000053 Rises=F Damp=F
 DIIS: error= 1.36D-06 at cycle   7 NSaved=   7.
 NSaved= 7 IEnMin= 7 EnMin= -226.142391287189     IErMin= 7 ErrMin= 1.36D-06
 ErrMax= 1.36D-06  0.00D+00 EMaxC= 1.00D-01 BMatC= 8.01D-11 BMatP= 1.07D-10
 IDIUse=1 WtCom= 1.00D+00 WtEn= 0.00D+00
 Coeff-Com:  0.408D-01-0.466D-01 0.716D-02 0.512D-01-0.307D+00 0.427D+00
 Coeff-Com:  0.827D+00
 Coeff:      0.408D-01-0.466D-01 0.716D-02 0.512D-01-0.307D+00 0.427D+00
 Coeff:      0.827D+00
 Gap=     0.092 Goal=   None    Shift=    0.200
 RMSDP=8.96D-08 MaxDP=2.77D-05 DE=-5.34D-11 OVMax= 2.82D-06

 Cycle   8  Pass 1  IDiag  1:
 E= -226.142391287206     Delta-E=       -0.000000000017 Rises=F Damp=F
 DIIS: error= 1.28D-06 at cycle   8 NSaved=   8.
 NSaved= 8 IEnMin= 8 EnMin= -226.142391287206     IErMin= 8 ErrMin= 1.28D-06
 ErrMax= 1.28D-06  0.00D+00 EMaxC= 1.00D-01 BMatC= 6.93D-11 BMatP= 8.01D-11
 IDIUse=1 WtCom= 1.00D+00 WtEn= 0.00D+00
 Coeff-Com:  0.377D-01-0.431D-01 0.799D-02 0.790D-03 0.656D-01-0.366D+00
 Coeff-Com:  0.173D+00 0.112D+01
 Coeff:      0.377D-01-0.431D-01 0.799D-02 0.790D-03 0.656D-01-0.366D+00
 Coeff:      0.173D+00 0.112D+01
 Gap=     0.092 Goal=   None    Shift=    0.200
 RMSDP=1.07D-07 MaxDP=3.40D-05 DE=-1.73D-11 OVMax= 1.64D-06

 Cycle   9  Pass 1  IDiag  1:
 E= -226.142391287219     Delta-E=       -0.000000000013 Rises=F Damp=F
 DIIS: error= 1.19D-06 at cycle   9 NSaved=   9.
 NSaved= 9 IEnMin= 9 EnMin= -226.142391287219     IErMin= 9 ErrMin= 1.19D-06
 ErrMax= 1.19D-06  0.00D+00 EMaxC= 1.00D-01 BMatC= 5.95D-11 BMatP= 6.93D-11
 IDIUse=1 WtCom= 1.00D+00 WtEn= 0.00D+00
 Coeff-Com:  0.339D-01-0.388D-01 0.717D-02 0.383D-02 0.353D-02 0.546D-01
 Coeff-Com: -0.300D+00-0.506D+00 0.174D+01
 Coeff:      0.339D-01-0.388D-01 0.717D-02 0.383D-02 0.353D-02 0.546D-01
 Coeff:     -0.300D+00-0.506D+00 0.174D+01
 Gap=     0.092 Goal=   None    Shift=    0.200
 RMSDP=1.35D-07 MaxDP=4.35D-05 DE=-1.25D-11 OVMax= 1.33D-06

 Cycle  10  Pass 1  IDiag  1:
 E= -226.142391287232     Delta-E=       -0.000000000014 Rises=F Damp=F
 DIIS: error= 1.08D-06 at cycle  10 NSaved=  10.
 NSaved=10 IEnMin=10 EnMin= -226.142391287232     IErMin=10 ErrMin= 1.08D-06
 ErrMax= 1.08D-06  0.00D+00 EMaxC= 1.00D-01 BMatC= 4.90D-11 BMatP= 5.95D-11
 IDIUse=1 WtCom= 1.00D+00 WtEn= 0.00D+00
 Coeff-Com:  0.285D-01-0.325D-01 0.568D-02 0.136D-01-0.729D-01 0.227D+00
 Coeff-Com: -0.107D+00-0.492D+00-0.712D+00 0.214D+01
 Coeff:      0.285D-01-0.325D-01 0.568D-02 0.136D-01-0.729D-01 0.227D+00
 Coeff:     -0.107D+00-0.492D+00-0.712D+00 0.214D+01
 Gap=     0.092 Goal=   None    Shift=    0.200
 RMSDP=1.92D-07 MaxDP=6.22D-05 DE=-1.38D-11 OVMax= 1.66D-06

 Cycle  11  Pass 1  IDiag  1:
 E= -226.142391287250     Delta-E=       -0.000000000017 Rises=F Damp=F
 DIIS: error= 9.15D-07 at cycle  11 NSaved=  11.
 NSaved=11 IEnMin=11 EnMin= -226.142391287250     IErMin=11 ErrMin= 9.15D-07
 ErrMax= 9.15D-07  0.00D+00 EMaxC= 1.00D-01 BMatC= 3.59D-11 BMatP= 4.90D-11
 IDIUse=1 WtCom= 1.00D+00 WtEn= 0.00D+00
 Coeff-Com:  0.217D-01-0.248D-01 0.428D-02 0.112D-01-0.618D-01 0.194D+00
 Coeff-Com: -0.410D-01-0.341D+00-0.753D+00 0.342D+00 0.165D+01
 Coeff:      0.217D-01-0.248D-01 0.428D-02 0.112D-01-0.618D-01 0.194D+00
 Coeff:     -0.410D-01-0.341D+00-0.753D+00 0.342D+00 0.165D+01
 Gap=     0.092 Goal=   None    Shift=    0.200
 RMSDP=2.45D-07 MaxDP=7.95D-05 DE=-1.74D-11 OVMax= 2.07D-06

 Cycle  12  Pass 1  IDiag  1:
 E= -226.142391287267     Delta-E=       -0.000000000017 Rises=F Damp=F
 DIIS: error= 7.21D-07 at cycle  12 NSaved=  12.
 NSaved=12 IEnMin=12 EnMin= -226.142391287267     IErMin=12 ErrMin= 7.21D-07
 ErrMax= 7.21D-07  0.00D+00 EMaxC= 1.00D-01 BMatC= 2.22D-11 BMatP= 3.59D-11
 IDIUse=1 WtCom= 1.00D+00 WtEn= 0.00D+00
 Coeff-Com:  0.133D-01-0.153D-01 0.269D-02 0.275D-02 0.582D-03-0.415D-02
 Coeff-Com: -0.183D-01-0.285D-01 0.424D+00-0.916D+00-0.678D+00 0.222D+01
 Coeff:      0.133D-01-0.153D-01 0.269D-02 0.275D-02 0.582D-03-0.415D-02
 Coeff:     -0.183D-01-0.285D-01 0.424D+00-0.916D+00-0.678D+00 0.222D+01
 Gap=     0.092 Goal=   None    Shift=    0.200
 RMSDP=3.05D-07 MaxDP=9.89D-05 DE=-1.73D-11 OVMax= 2.57D-06

 Cycle  13  Pass 1  IDiag  1:
 E= -226.142391287284     Delta-E=       -0.000000000017 Rises=F Damp=F
 DIIS: error= 4.81D-07 at cycle  13 NSaved=  13.
 NSaved=13 IEnMin=13 EnMin= -226.142391287284     IErMin=13 ErrMin= 4.81D-07
 ErrMax= 4.81D-07  0.00D+00 EMaxC= 1.00D-01 BMatC= 9.87D-12 BMatP= 2.22D-11
 IDIUse=1 WtCom= 1.00D+00 WtEn= 0.00D+00
 Coeff-Com:  0.124D-01-0.142D-01 0.250D-02 0.256D-02 0.310D-03 0.903D-02
 Coeff-Com: -0.519D-01-0.169D-01 0.150D+00-0.243D+00-0.225D+00 0.450D+00
 Coeff-Com:  0.924D+00
 Coeff:      0.124D-01-0.142D-01 0.250D-02 0.256D-02 0.310D-03 0.903D-02
 Coeff:     -0.519D-01-0.169D-01 0.150D+00-0.243D+00-0.225D+00 0.450D+00
 Coeff:      0.924D+00
 Gap=     0.092 Goal=   None    Shift=    0.200
 RMSDP=1.23D-07 MaxDP=4.02D-05 DE=-1.69D-11 OVMax= 1.34D-06

 Cycle  14  Pass 1  IDiag  1:
 E= -226.142391287290     Delta-E=       -0.000000000006 Rises=F Damp=F
 DIIS: error= 4.03D-07 at cycle  14 NSaved=  14.
 NSaved=14 IEnMin=14 EnMin= -226.142391287290     IErMin=14 ErrMin= 4.03D-07
 ErrMax= 4.03D-07  0.00D+00 EMaxC= 1.00D-01 BMatC= 7.01D-12 BMatP= 9.87D-12
 IDIUse=1 WtCom= 1.00D+00 WtEn= 0.00D+00
 Coeff-Com:  0.666D-03-0.762D-03 0.150D-03 0.726D-04-0.251D-02 0.139D-01
 Coeff-Com: -0.305D-01-0.621D-01 0.299D+00-0.878D-01-0.958D+00 0.113D+00
 Coeff-Com: -0.420D+00 0.214D+01
 Coeff:      0.666D-03-0.762D-03 0.150D-03 0.726D-04-0.251D-02 0.139D-01
 Coeff:     -0.305D-01-0.621D-01 0.299D+00-0.878D-01-0.958D+00 0.113D+00
 Coeff:     -0.420D+00 0.214D+01
 Gap=     0.092 Goal=   None    Shift=    0.200
 RMSDP=3.45D-07 MaxDP=1.11D-04 DE=-5.91D-12 OVMax= 2.69D-06

 Cycle  15  Pass 1  IDiag  1:
 E= -226.142391287298     Delta-E=       -0.000000000008 Rises=F Damp=F
 DIIS: error= 1.13D-07 at cycle  15 NSaved=  15.
 NSaved=15 IEnMin=15 EnMin= -226.142391287298     IErMin=15 ErrMin= 1.13D-07
 ErrMax= 1.13D-07  0.00D+00 EMaxC= 1.00D-01 BMatC= 7.71D-13 BMatP= 7.01D-12
 IDIUse=1 WtCom= 1.00D+00 WtEn= 0.00D+00
 Coeff-Com:  0.578D-03-0.661D-03 0.136D-03-0.106D-03-0.123D-02 0.102D-01
 Coeff-Com: -0.294D-01-0.529D-01 0.283D+00-0.864D-01-0.860D+00 0.248D-01
 Coeff-Com: -0.471D+00 0.213D+01 0.567D-01
 Coeff:      0.578D-03-0.661D-03 0.136D-03-0.106D-03-0.123D-02 0.102D-01
 Coeff:     -0.294D-01-0.529D-01 0.283D+00-0.864D-01-0.860D+00 0.248D-01
 Coeff:     -0.471D+00 0.213D+01 0.567D-01
 Gap=     0.092 Goal=   None    Shift=    0.200
 RMSDP=1.10D-07 MaxDP=3.58D-05 DE=-7.79D-12 OVMax= 1.13D-06

 Cycle  16  Pass 1  IDiag  1:
 E= -226.142391287299     Delta-E=       -0.000000000001 Rises=F Damp=F
 DIIS: error= 4.75D-08 at cycle  16 NSaved=  16.
 NSaved=16 IEnMin=16 EnMin= -226.142391287299     IErMin=16 ErrMin= 4.75D-08
 ErrMax= 4.75D-08  0.00D+00 EMaxC= 1.00D-01 BMatC= 1.79D-13 BMatP= 7.71D-13
 IDIUse=1 WtCom= 1.00D+00 WtEn= 0.00D+00
 Large coefficients: NSaved= 16 BigCof=    0.00 CofMax=   10.00 Det=-2.09D-15
 Inversion failed.  Reducing to 15 matrices.
 Coeff-Com: -0.172D-11 0.179D-04-0.200D-03-0.191D-02 0.163D-01-0.353D-01
 Coeff-Com: -0.860D-01 0.279D+00 0.347D-01-0.789D+00-0.233D-01-0.440D+00
 Coeff-Com:  0.175D+01-0.635D-01 0.358D+00
 Coeff:     -0.172D-11 0.179D-04-0.200D-03-0.191D-02 0.163D-01-0.353D-01
 Coeff:     -0.860D-01 0.279D+00 0.347D-01-0.789D+00-0.233D-01-0.440D+00
 Coeff:      0.175D+01-0.635D-01 0.358D+00
 Gap=     0.092 Goal=   None    Shift=    0.200
 RMSDP=5.39D-08 MaxDP=1.76D-05 DE=-1.36D-12 OVMax= 6.79D-07

 Cycle  17  Pass 1  IDiag  1:
 E= -226.142391287300     Delta-E=       -0.000000000001 Rises=F Damp=F
 DIIS: error= 2.16D-08 at cycle  17 NSaved=  16.
 NSaved=16 IEnMin=16 EnMin= -226.142391287300     IErMin=16 ErrMin= 2.16D-08
 ErrMax= 2.16D-08  0.00D+00 EMaxC= 1.00D-01 BMatC= 8.68D-14 BMatP= 1.79D-13
 IDIUse=1 WtCom= 1.00D+00 WtEn= 0.00D+00
 Large coefficients: NSaved= 16 BigCof=    0.00 CofMax=   10.00 Det=-2.06D-15
 Inversion failed.  Reducing to 15 matrices.
 Coeff-Com: -0.259D-04 0.128D-02-0.143D-01 0.620D-01-0.613D-01-0.237D+00
 Coeff-Com:  0.335D+00 0.564D+00-0.132D+01 0.114D+00-0.399D+00 0.152D+01
 Coeff-Com:  0.207D+00-0.462D+00 0.683D+00
 Coeff:     -0.259D-04 0.128D-02-0.143D-01 0.620D-01-0.613D-01-0.237D+00
 Coeff:      0.335D+00 0.564D+00-0.132D+01 0.114D+00-0.399D+00 0.152D+01
 Coeff:      0.207D+00-0.462D+00 0.683D+00
 Gap=     0.092 Goal=   None    Shift=    0.200
 RMSDP=2.01D-08 MaxDP=6.46D-06 DE=-6.82D-13 OVMax= 3.56D-07

 Cycle  18  Pass 1  IDiag  1:
 E= -226.142391287299     Delta-E=        0.000000000000 Rises=F Damp=F
 DIIS: error= 1.24D-08 at cycle  18 NSaved=  16.
 NSaved=16 IEnMin=15 EnMin= -226.142391287300     IErMin=16 ErrMin= 1.24D-08
 ErrMax= 1.24D-08  0.00D+00 EMaxC= 1.00D-01 BMatC= 1.81D-14 BMatP= 8.68D-14
 IDIUse=1 WtCom= 1.00D+00 WtEn= 0.00D+00
 Large coefficients: NSaved= 16 BigCof=    0.00 CofMax=   10.00 Det=-2.07D-15
 Inversion failed.  Reducing to 15 matrices.
 Coeff-Com:  0.431D-03-0.637D-02 0.306D-01-0.349D-01-0.127D+00 0.214D+00
 Coeff-Com:  0.262D+00-0.788D+00 0.718D-01-0.273D+00 0.108D+01 0.158D+00
 Coeff-Com: -0.482D+00 0.356D+00 0.537D+00
 Coeff:      0.431D-03-0.637D-02 0.306D-01-0.349D-01-0.127D+00 0.214D+00
 Coeff:      0.262D+00-0.788D+00 0.718D-01-0.273D+00 0.108D+01 0.158D+00
 Coeff:     -0.482D+00 0.356D+00 0.537D+00
 Gap=     0.092 Goal=   None    Shift=    0.200
 RMSDP=8.23D-09 MaxDP=2.56D-06 DE= 3.41D-13 OVMax= 1.93D-07

 Cycle  19  Pass 1  IDiag  1:
 E= -226.142391287300     Delta-E=       -0.000000000001 Rises=F Damp=F
 DIIS: error= 2.63D-08 at cycle  19 NSaved=  16.
 NSaved=16 IEnMin=16 EnMin= -226.142391287300     IErMin=15 ErrMin= 1.24D-08
 ErrMax= 2.63D-08  0.00D+00 EMaxC= 1.00D-01 BMatC= 1.14D-13 BMatP= 1.81D-14
 IDIUse=1 WtCom= 1.00D+00 WtEn= 0.00D+00
 Large coefficients: NSaved= 16 BigCof=    0.00 CofMax=   10.00 Det=-2.07D-15
 Inversion failed.  Reducing to 15 matrices.
 Coeff-Com: -0.267D-02 0.201D-01-0.337D-01-0.105D+00 0.229D+00 0.197D+00
 Coeff-Com: -0.761D+00 0.848D-01-0.280D+00 0.108D+01 0.159D+00-0.467D+00
 Coeff-Com:  0.317D+00 0.582D+00-0.225D-01
 Coeff:     -0.267D-02 0.201D-01-0.337D-01-0.105D+00 0.229D+00 0.197D+00
 Coeff:     -0.761D+00 0.848D-01-0.280D+00 0.108D+01 0.159D+00-0.467D+00
 Coeff:      0.317D+00 0.582D+00-0.225D-01
 Gap=     0.092 Goal=   None    Shift=    0.200
 RMSDP=4.78D-09 MaxDP=1.16D-06 DE=-6.25D-13 OVMax= 1.18D-07

 Cycle  20  Pass 1  IDiag  1:
 E= -226.142391287300     Delta-E=        0.000000000000 Rises=F Damp=F
 DIIS: error= 4.29D-09 at cycle  20 NSaved=  16.
 NSaved=16 IEnMin=15 EnMin= -226.142391287300     IErMin=16 ErrMin= 4.29D-09
 ErrMax= 4.29D-09  0.00D+00 EMaxC= 1.00D-01 BMatC= 4.07D-15 BMatP= 1.81D-14
 IDIUse=1 WtCom= 1.00D+00 WtEn= 0.00D+00
 Large coefficients: NSaved= 16 BigCof=    0.00 CofMax=   10.00 Det=-2.07D-15
 Inversion failed.  Reducing to 15 matrices.
 Coeff-Com:  0.126D-02-0.734D-02-0.205D-01 0.763D-01 0.207D-01-0.264D+00
 Coeff-Com:  0.136D-01-0.132D+00 0.534D+00 0.899D-01-0.231D+00 0.612D-01
 Coeff-Com:  0.166D+00-0.199D-01 0.712D+00
 Coeff:      0.126D-02-0.734D-02-0.205D-01 0.763D-01 0.207D-01-0.264D+00
 Coeff:      0.136D-01-0.132D+00 0.534D+00 0.899D-01-0.231D+00 0.612D-01
 Coeff:      0.166D+00-0.199D-01 0.712D+00
 Gap=     0.092 Goal=   None    Shift=    0.200
 RMSDP=1.93D-09 MaxDP=3.83D-07 DE= 5.68D-14 OVMax= 6.74D-08

 SCF Done:  E(ROHF) =  -226.142391287     A.U. after   20 cycles
            NFock= 20  Conv=0.19D-08     -V/T= 2.5050
 <Sx>= 0.0000 <Sy>= 0.0000 <Sz>= 0.5000 <S**2>= 0.7500 S= 0.5000
 <L.S>=  0.00000000000    
 KE= 1.502644113211D+02 PE=-5.727804404717D+02 EE= 1.888139634215D+02
 Annihilation of the first spin contaminant:
 S**2 before annihilation     0.7500,   after     0.7500
 Leave Link  502 at Sat Apr 28 21:44:35 2018, MaxMem= 10737418240 cpu:            5653.8 elap:             204.2
 (Enter /home1/apps/gaussian/16rA.03/g16/l801.exe)
 Windowed orbitals will be sorted by symmetry type.
 GenMOA:  NOpAll=  4 NOp2=4 NOpUse=  4 JSym2X=1
 FoFJK:  IHMeth= 1 ICntrl=       0 DoSepK=F KAlg= 0 I1Cent=           0 FoldK=F
 IRaf=         0 NMat=       1 IRICut=       1 DoRegI=T DoRafI=F ISym2E= 1 IDoP0=0 IntGTp=1.
 FoFCou: FMM=F IPFlag=           8 FMFlag=      100000 FMFlg1=           0
         NFxFlg=           0 DoJE=F BraDBF=F KetDBF=F FulRan=T
         wScrn=  0.000000 ICntrl=         0 IOpCl=  1 I1Cent=           0 NGrid=           0
         NMat0=    1 NMatS0=      1 NMatT0=    0 NMatD0=    1 NMtDS0=    0 NMtDT0=    0
 Petite list used in FoFCou.
 <Sx>= 0.0000 <Sy>= 0.0000 <Sz>= 0.5000 <S**2>= 0.7500 S= 0.5000
 Range of M.O.s used for correlation:     1   424
 NBasis=   428 NAE=    11 NBE=    10 NFC=     0 NFV=     0
 NROrb=    424 NOA=    11 NOB=    10 NVA=   413 NVB=   414

 **** Warning!!: The largest alpha MO coefficient is  0.32215210D+03


 **** Warning!!: The largest beta MO coefficient is  0.32215093D+03

 Singles contribution to E2=   -0.8717854744D-03
 Leave Link  801 at Sat Apr 28 21:45:35 2018, MaxMem= 10737418240 cpu:            1874.5 elap:              59.1
 (Enter /home1/apps/gaussian/16rA.03/g16/l804.exe)
 Open-shell transformation, MDV= 10737418240 ITran=4 ISComp=2.
 Unit  1 TFree=       5552142 TCopy=       2552274.
 Semi-Direct transformation.
 ModeAB=           2 MOrb=            11 LenV=   10731955639
 LASXX=    104488099 LTotXX=   104488099 LenRXX=   104488099
 LTotAB=   105441286 MaxLAS=   843722264 LenRXY=   843722264
 NonZer=   857882168 LenScr=  1291870208 LnRSAI=           0
 LnScr1=           0 LExtra=    31418709 Total=   2271499280
 MaxDsk= 67108864000 SrtSym=           F ITran=            4
 DoSDTr:  NPSUse= 32
 JobTyp=1 Pass  1:  I=   1 to  11.
 (rs|ai) integrals will be sorted in core.
 Complete sort for first half transformation.
 First half transformation complete.
 Begin second half transformation for I=  10.
 Begin second half transformation for I=  10.
 Complete sort for second half transformation.
 Second half transformation complete.
 ModeAB=           2 MOrb=            10 LenV=   10731955639
 LASXX=     94955716 LTotXX=    94955716 LenRXX=   767020240
 LTotAB=    90848451 MaxLAS=   767020240 LenRXY=    90848451
 NonZer=   779892880 LenScr=  1174427648 LnRSAI=           0
 LnScr1=           0 LExtra=   979629072 Total=   3011925411
 MaxDsk= 67108864000 SrtSym=           F ITran=            4
 DoSDTr:  NPSUse= 32
 JobTyp=2 Pass  1:  I=   1 to  10.
 (rs|ai) integrals will be sorted in core.
 Complete sort for first half transformation.
 First half transformation complete.
 Begin second half transformation for I=  10.
 Begin second half transformation for I=  10.
 Complete sort for second half transformation.
 Second half transformation complete.
 Spin components of T(2) and E(2):
     alpha-alpha T2 =       0.1861282555D-01 E2=     -0.1692620684D+00
     alpha-beta  T2 =       0.7874533792D-01 E2=     -0.7826794381D+00
     beta-beta   T2 =       0.1596233388D-01 E2=     -0.1604629218D+00
 ANorm=    0.1055540215D+01
 E2 =    -0.1113276214D+01 EUMP2 =    -0.22725566750114D+03
 (S**2,0)=  0.75000D+00           (S**2,1)=  0.75000D+00
 E(PUHF)=      -0.22614239129D+03        E(PMP2)=      -0.22725566750D+03
 Leave Link  804 at Sat Apr 28 22:22:31 2018, MaxMem= 10737418240 cpu:           70841.8 elap:            2214.7
 (Enter /home1/apps/gaussian/16rA.03/g16/l913.exe)
 CIDS:  MDV= 10737418240.
 IFCWin=0 IBDFC=1 NFBD=     0     0 NFCmp=     0     0 NFFFC=     0     0
 Using original routines for 1st iteration.
 Using DD4UQ or CC4UQ for 2nd and later iterations.
 Keep R2 and R3 ints in memory in symmetry-blocked form, NReq=5277888631.
 FoFCou: FMM=F IPFlag=           8 FMFlag=           0 FMFlg1=           0
         NFxFlg=           0 DoJE=F BraDBF=F KetDBF=F FulRan=T
         wScrn=  0.000000 ICntrl=       600 IOpCl=  0 I1Cent=           0 NGrid=           0
         NMat0=    1 NMatS0=  91806 NMatT0=    0 NMatD0=    1 NMtDS0=    0 NMtDT0=    0
 Petite list used in FoFCou.
 CIDS: In Core Option IDoMem=           1.
 CCSD(T)
 =======
 Iterations= 150 Convergence= 0.100D-06
 Produce multiple copies of IABC intergrals
 Iteration Nr.   1
 **********************
 DD1Dir will call FoFMem   1 times, MxPair=       320
 NAB=   110 NAA=    55 NBB=    45.
 DD1Dir will call FoFMem   1 times, MxPair=       320
 NAB=   110 NAA=    55 NBB=    45.
 MP4(R+Q)= -0.13226088D+00
 Maximum subspace dimension=  5
 A-vector RMS=  7.3157370D-05 Max=  1.0672997D-03 conv= 1.00D-05.
 RLE energy=       -1.1172393139
 E3=        0.12826359D+00        EROMP3=      -0.22712740391D+03
 E4(SDQ)=  -0.76454092D-01        ROMP4(SDQ)=  -0.22720385800D+03
 VARIATIONAL ENERGIES WITH THE FIRST-ORDER WAVEFUNCTION:
 DE(Corr)=  -1.1172254     E(Corr)=     -227.25961672    
 NORM(A)=   0.10554381D+01
 Iteration Nr.   2
 **********************
 DD1Dir will call FoFMem   1 times, MxPair=       320
 NAB=   110 NAA=    55 NBB=    45.
 A-vector RMS=  2.2928047D-03 Max=  2.4670822D-02 conv= 1.00D-05.
 RLE energy=       -1.0975572445
 DE(Corr)= -0.98376334     E(CORR)=     -227.12615463     Delta= 1.33D-01
 NORM(A)=   0.10530490D+01
 Iteration Nr.   3
 **********************
 DD1Dir will call FoFMem   1 times, MxPair=       320
 NAB=   110 NAA=    55 NBB=    45.
 A-vector RMS=  1.8624666D-03 Max=  2.2257578D-02 conv= 1.00D-05.
 RLE energy=       -1.0583564899
 DE(Corr)= -0.99229841     E(CORR)=     -227.13468970     Delta=-8.54D-03
 NORM(A)=   0.10521505D+01
 Iteration Nr.   4
 **********************
 DD1Dir will call FoFMem   1 times, MxPair=       320
 NAB=   110 NAA=    55 NBB=    45.
 A-vector RMS=  1.1093661D-03 Max=  1.5172837D-02 conv= 1.00D-05.
 RLE energy=       -0.9674026846
 DE(Corr)=  -1.0128562     E(CORR)=     -227.15524754     Delta=-2.06D-02
 NORM(A)=   0.10720639D+01
 Iteration Nr.   5
 **********************
 DD1Dir will call FoFMem   1 times, MxPair=       320
 NAB=   110 NAA=    55 NBB=    45.
 A-vector RMS=  1.7075582D-03 Max=  1.5777397D-02 conv= 1.00D-05.
 RLE energy=       -1.0318104946
 DE(Corr)=  -1.0713560     E(CORR)=     -227.21374731     Delta=-5.85D-02
 NORM(A)=   0.10617425D+01
 Iteration Nr.   6
 **********************
 DD1Dir will call FoFMem   1 times, MxPair=       320
 NAB=   110 NAA=    55 NBB=    45.
 A-vector RMS=  1.1268725D-04 Max=  1.9654365D-03 conv= 1.00D-05.
 RLE energy=       -1.0326813466
 DE(Corr)=  -1.0333101     E(CORR)=     -227.17570138     Delta= 3.80D-02
 NORM(A)=   0.10612778D+01
 Iteration Nr.   7
 **********************
 DD1Dir will call FoFMem   1 times, MxPair=       320
 NAB=   110 NAA=    55 NBB=    45.
 A-vector RMS=  5.4202831D-05 Max=  1.4030514D-03 conv= 1.00D-05.
 RLE energy=       -1.0322771076
 DE(Corr)=  -1.0323272     E(CORR)=     -227.17471846     Delta= 9.83D-04
 NORM(A)=   0.10618595D+01
 Iteration Nr.   8
 **********************
 DD1Dir will call FoFMem   1 times, MxPair=       320
 NAB=   110 NAA=    55 NBB=    45.
 A-vector RMS=  3.2811893D-05 Max=  5.5275488D-04 conv= 1.00D-05.
 RLE energy=       -1.0324408406
 DE(Corr)=  -1.0325653     E(CORR)=     -227.17495660     Delta=-2.38D-04
 NORM(A)=   0.10620117D+01
 Iteration Nr.   9
 **********************
 DD1Dir will call FoFMem   1 times, MxPair=       320
 NAB=   110 NAA=    55 NBB=    45.
 A-vector RMS=  1.4114493D-05 Max=  1.6114895D-04 conv= 1.00D-05.
 RLE energy=       -1.0324861519
 DE(Corr)=  -1.0324596     E(CORR)=     -227.17485084     Delta= 1.06D-04
 NORM(A)=   0.10621206D+01
 Iteration Nr.  10
 **********************
 DD1Dir will call FoFMem   1 times, MxPair=       320
 NAB=   110 NAA=    55 NBB=    45.
 A-vector RMS=  5.8042501D-06 Max=  1.0443486D-04 conv= 1.00D-05.
 RLE energy=       -1.0324851920
 DE(Corr)=  -1.0324880     E(CORR)=     -227.17487934     Delta=-2.85D-05
 NORM(A)=   0.10621052D+01
 Iteration Nr.  11
 **********************
 DD1Dir will call FoFMem   1 times, MxPair=       320
 NAB=   110 NAA=    55 NBB=    45.
 A-vector RMS=  2.8853577D-06 Max=  5.7897560D-05 conv= 1.00D-05.
 RLE energy=       -1.0324756469
 DE(Corr)=  -1.0324806     E(CORR)=     -227.17487194     Delta= 7.40D-06
 NORM(A)=   0.10620834D+01
 Iteration Nr.  12
 **********************
 DD1Dir will call FoFMem   1 times, MxPair=       320
 NAB=   110 NAA=    55 NBB=    45.
 A-vector RMS=  9.6696038D-07 Max=  2.8525062D-05 conv= 1.00D-05.
 RLE energy=       -1.0324765294
 DE(Corr)=  -1.0324773     E(CORR)=     -227.17486856     Delta= 3.38D-06
 NORM(A)=   0.10620791D+01
 Iteration Nr.  13
 **********************
 DD1Dir will call FoFMem   1 times, MxPair=       320
 NAB=   110 NAA=    55 NBB=    45.
 A-vector RMS=  5.0244454D-07 Max=  1.0073967D-05 conv= 1.00D-05.
 RLE energy=       -1.0324756233
 DE(Corr)=  -1.0324759     E(CORR)=     -227.17486723     Delta= 1.33D-06
 NORM(A)=   0.10620781D+01
 Iteration Nr.  14
 **********************
 DD1Dir will call FoFMem   1 times, MxPair=       320
 NAB=   110 NAA=    55 NBB=    45.
 A-vector RMS=  3.2780316D-07 Max=  8.2271547D-06 conv= 1.00D-05.
 RLE energy=       -1.0324746525
 DE(Corr)=  -1.0324750     E(CORR)=     -227.17486630     Delta= 9.30D-07
 NORM(A)=   0.10620780D+01
 Iteration Nr.  15
 **********************
 DD1Dir will call FoFMem   1 times, MxPair=       320
 NAB=   110 NAA=    55 NBB=    45.
 A-vector RMS=  9.5626001D-08 Max=  1.6127266D-06 conv= 1.00D-05.
 RLE energy=       -1.0324754147
 DE(Corr)=  -1.0324755     E(CORR)=     -227.17486683     Delta=-5.31D-07
 NORM(A)=   0.10620788D+01
 Iteration Nr.  16
 **********************
 DD1Dir will call FoFMem   1 times, MxPair=       320
 NAB=   110 NAA=    55 NBB=    45.
 A-vector RMS=  6.7149194D-08 Max=  1.3502873D-06 conv= 1.00D-05.
 RLE energy=       -1.0324755470
 DE(Corr)=  -1.0324755     E(CORR)=     -227.17486681     Delta= 2.58D-08
 NORM(A)=   0.10620792D+01
 CI/CC converged in   16 iterations to DelEn= 2.58D-08 Conv= 1.00D-07 ErrA1= 6.71D-08 Conv= 1.00D-05
 Wavefunction amplitudes converged. E(Corr)=     -227.17486681    
 Largest amplitude= 6.54D-02
 Time for triples=   219384.33 seconds.
 T4(CCSD)= -0.32091930D-01
 T5(CCSD)=  0.30434043D-02
 CCSD(T)= -0.22720391533D+03
 Discarding MO integrals.
 Leave Link  913 at Sun Apr 29 00:38:38 2018, MaxMem= 10737418240 cpu:          259632.8 elap:            8165.9
 (Enter /home1/apps/gaussian/16rA.03/g16/l601.exe)
 Copying SCF densities to generalized density rwf, IOpCl= 0 IROHF=1.

 **********************************************************************

            Population analysis using the SCF density.

 **********************************************************************

 Orbital symmetries:
       Occupied  (SG) (PI) (PI) (SG) (SG) (DLTA) (DLTA) (PI) (PI)
                 (SG) (SG)
       Virtual   (PI) (PI) (SG) (SG) (SG) (PI) (PI) (SG) (SG) (DLTA)
                 (DLTA) (PI) (PI) (SG) (PI) (PI) (SG) (PI) (PI)
                 (SG) (SG) (SG) (PI) (PI) (DLTA) (DLTA) (DLTA)
                 (DLTA) (SG) (SG) (PI) (PI) (PI) (PI) (PHI) (PHI)
                 (SG) (PI) (PI) (DLTA) (DLTA) (SG) (PI) (PI) (SG)
                 (SG) (DLTA) (DLTA) (PHI) (PHI) (SG) (PI) (PI)
                 (PI) (PI) (SG) (DLTA) (DLTA) (SG) (DLTA) (DLTA)
                 (PI) (PI) (PI) (PI) (?A) (?A) (SG) (PHI) (PHI)
                 (DLTA) (DLTA) (PHI) (PHI) (PI) (PI) (SG) (SG)
                 (SG) (PI) (PI) (DLTA) (DLTA) (DLTA) (DLTA) (PI)
                 (PI) (?A) (?A) (SG) (PI) (PI) (PHI) (PHI) (SG)
                 (SG) (DLTA) (DLTA) (PI) (PI) (SG) (PHI) (PHI)
                 (SG) (DLTA) (DLTA) (SG) (PI) (PI) (DLTA) (DLTA)
                 (PI) (PI) (PHI) (PHI) (PI) (PI) (SG) (?B) (?B)
                 (DLTA) (DLTA) (?A) (?A) (SG) (?A) (?A) (PHI) (PHI)
                 (PI) (PI) (DLTA) (DLTA) (SG) (PI) (PI) (PHI) (PHI)
                 (DLTA) (DLTA) (PI) (PI) (SG) (PI) (PI) (SG) (DLTA)
                 (DLTA) (SG) (PI) (PI) (SG) (SG) (SG) (PI) (PI)
                 (SG) (PHI) (PHI) (PI) (PI) (DLTA) (DLTA) (?A)
                 (?A) (PHI) (PHI) (SG) (DLTA) (DLTA) (DLTA) (DLTA)
                 (PHI) (PHI) (DLTA) (DLTA) (PI) (PI) (SG) (PI)
                 (PI) (SG) (DLTA) (DLTA) (PI) (PI) (PI) (PI) (SG)
                 (?A) (?A) (PHI) (PHI) (?B) (?B) (?A) (?A) (DLTA)
                 (DLTA) (PHI) (PHI) (SG) (DLTA) (DLTA) (PI) (PI)
                 (PI) (PI) (SG) (SG) (PI) (PI) (SG) (SG) (?B) (?B)
                 (?A) (?A) (PHI) (PHI) (DLTA) (DLTA) (SG) (PI)
                 (PI) (SG) (SG) (DLTA) (DLTA) (PI) (PI) (SG) (PI)
                 (PI) (SG) (PHI) (PHI) (DLTA) (DLTA) (PI) (PI)
                 (SG) (?A) (?A) (PHI) (PHI) (DLTA) (DLTA) (PI)
                 (PI) (SG) (?B) (?B) (?A) (?A) (PHI) (PHI) (SG)
                 (DLTA) (DLTA) (PI) (PI) (SG) (SG) (SG) (SG) (?B)
                 (?B) (?A) (?A) (PHI) (PHI) (DLTA) (DLTA) (PI)
                 (PI) (SG) (DLTA) (DLTA) (PI) (PI) (SG) (PI) (PI)
                 (SG) (?A) (?A) (PHI) (PHI) (DLTA) (DLTA) (PI)
                 (PI) (SG) (PHI) (PHI) (SG) (DLTA) (DLTA) (PI)
                 (PI) (SG) (?B) (?B) (?A) (?A) (PHI) (PHI) (DLTA)
                 (DLTA) (PI) (PI) (SG) (DLTA) (DLTA) (PI) (PI)
                 (SG) (SG) (SG) (?B) (?B) (?A) (?A) (PHI) (PHI)
                 (DLTA) (DLTA) (PI) (PI) (SG) (PI) (PI) (SG) (DLTA)
                 (DLTA) (PI) (PI) (SG) (SG) (SG) (PI) (PI) (SG)
                 (DLTA) (DLTA) (PI) (PI) (SG) (SG) (PI) (PI) (SG)
                 (SG) (DLTA) (DLTA) (PI) (PI) (SG) (PI) (PI) (SG)
                 (SG) (SG) (PI) (PI) (SG) (DLTA) (DLTA) (PI) (PI)
                 (SG) (SG) (PI) (PI) (SG) (SG) (PI) (PI) (SG) (DLTA)
                 (DLTA) (PI) (PI) (SG) (SG) (PI) (PI) (SG) (SG)
                 (SG) (PI) (PI) (SG) (SG) (PI) (PI) (SG) (SG) (PI)
                 (PI) (SG) (SG) (SG) (PI) (PI) (SG) (SG) (SG) (SG)
                 (SG) (SG) (SG)
 The electronic state is 2-SG.
 Alpha  occ. eigenvalues --   -5.88421  -4.00072  -3.99995  -3.99995  -0.80620
 Alpha  occ. eigenvalues --   -0.79859  -0.79859  -0.79492  -0.79492  -0.47611
 Alpha  occ. eigenvalues --   -0.27299
 Alpha virt. eigenvalues --    0.01937   0.01937   0.02256   0.03330   0.06352
 Alpha virt. eigenvalues --    0.06352   0.06883   0.11867   0.13925   0.15340
 Alpha virt. eigenvalues --    0.15340   0.15503   0.15503   0.18726   0.20769
 Alpha virt. eigenvalues --    0.20769   0.23968   0.26227   0.26227   0.36482
 Alpha virt. eigenvalues --    0.40417   0.41405   0.44133   0.44133   0.47051
 Alpha virt. eigenvalues --    0.47051   0.55720   0.55720   0.56495   0.59962
 Alpha virt. eigenvalues --    0.63437   0.63437   0.65875   0.65875   0.75479
 Alpha virt. eigenvalues --    0.75479   0.84950   0.85292   0.85292   0.88701
 Alpha virt. eigenvalues --    0.88701   0.98545   1.06415   1.06415   1.09265
 Alpha virt. eigenvalues --    1.14792   1.20588   1.20588   1.24858   1.24858
 Alpha virt. eigenvalues --    1.27432   1.36136   1.36136   1.44558   1.44558
 Alpha virt. eigenvalues --    1.47580   1.48628   1.48628   1.71582   1.83256
 Alpha virt. eigenvalues --    1.83256   1.95594   1.95594   2.10868   2.10868
 Alpha virt. eigenvalues --    2.16690   2.16690   2.19120   2.26720   2.26720
 Alpha virt. eigenvalues --    2.33984   2.33984   2.34162   2.34162   2.40972
 Alpha virt. eigenvalues --    2.40972   2.44579   2.55619   2.72427   2.73065
 Alpha virt. eigenvalues --    2.73065   2.80481   2.80481   2.91162   2.91162
 Alpha virt. eigenvalues --    2.94876   2.94876   2.98763   2.98769   2.98769
 Alpha virt. eigenvalues --    3.25508   3.25508   3.37995   3.37995   3.40083
 Alpha virt. eigenvalues --    3.56006   3.61078   3.61078   3.68720   3.68720
 Alpha virt. eigenvalues --    3.69250   4.18544   4.18544   4.54379   4.58568
 Alpha virt. eigenvalues --    4.58568   4.94405   5.05907   5.05907   5.40579
 Alpha virt. eigenvalues --    5.40579   5.47496   5.47496   5.85057   5.85057
 Alpha virt. eigenvalues --    5.85847   5.85847   5.93763   5.95568   5.95568
 Alpha virt. eigenvalues --    5.98711   5.98711   6.02058   6.02058   6.02413
 Alpha virt. eigenvalues --    6.13408   6.13408   6.18588   6.18588   6.19285
 Alpha virt. eigenvalues --    6.19285   6.36012   6.36012   6.39926   6.40748
 Alpha virt. eigenvalues --    6.40748   6.45302   6.45302   6.48464   6.48464
 Alpha virt. eigenvalues --    6.50557   6.50557   6.57829   7.10382   7.10382
 Alpha virt. eigenvalues --    7.15499   7.29894   7.29894   7.85947   8.47404
 Alpha virt. eigenvalues --    8.47404   8.49066   9.82201  10.85260  12.74837
 Alpha virt. eigenvalues --   12.74837  12.87442  12.95243  12.95243  13.01789
 Alpha virt. eigenvalues --   13.01789  13.10532  13.10532  13.19192  13.19192
 Alpha virt. eigenvalues --   13.23346  13.23346  13.23977  13.36878  13.36878
 Alpha virt. eigenvalues --   13.51256  13.51256  13.53904  13.53904  13.68365
 Alpha virt. eigenvalues --   13.68365  13.70408  13.70408  13.74870  13.87595
 Alpha virt. eigenvalues --   13.87595  14.11258  14.13379  14.13379  14.29612
 Alpha virt. eigenvalues --   14.29612  14.71369  14.71369  14.77724  14.98577
 Alpha virt. eigenvalues --   14.98577  15.04197  15.04197  15.12224  15.12224
 Alpha virt. eigenvalues --   15.15266  15.15266  15.27571  15.27571  15.34168
 Alpha virt. eigenvalues --   15.34168  15.42220  15.69781  15.69781  15.86224
 Alpha virt. eigenvalues --   15.86224  16.12949  16.12949  16.55259  17.26869
 Alpha virt. eigenvalues --   17.40388  17.40388  17.78857  17.78857  17.79235
 Alpha virt. eigenvalues --   17.79235  17.79736  17.79736  17.82454  17.82454
 Alpha virt. eigenvalues --   18.07609  18.07609  18.69649  19.13359  19.13359
 Alpha virt. eigenvalues --   19.36709  19.99260  26.05548  26.05548  26.12352
 Alpha virt. eigenvalues --   26.12352  26.32759  26.46228  26.46228  27.73888
 Alpha virt. eigenvalues --   31.04192  31.04192  31.17726  31.17726  31.44345
 Alpha virt. eigenvalues --   31.44345  32.33782  32.86225  32.86225  32.90226
 Alpha virt. eigenvalues --   32.90226  33.01765  33.01765  33.49907  33.49907
 Alpha virt. eigenvalues --   33.88419  34.29058  34.29058  34.30861  34.30861
 Alpha virt. eigenvalues --   34.41219  34.41219  34.42393  34.60083  34.60083
 Alpha virt. eigenvalues --   34.72972  34.72972  34.95829  37.71883  40.87904
 Alpha virt. eigenvalues --   40.87904  40.88224  40.88224  40.88566  40.88566
 Alpha virt. eigenvalues --   40.89759  40.89759  40.96961  40.96961  41.22320
 Alpha virt. eigenvalues --   41.22320  41.38905  47.19745  47.19745  47.28600
 Alpha virt. eigenvalues --   47.28600  47.63220  49.96545  49.96545  51.18033
 Alpha virt. eigenvalues --   69.51358  69.51358  69.54466  69.54466  69.62494
 Alpha virt. eigenvalues --   69.62494  69.97105  69.97105  70.32256  72.73263
 Alpha virt. eigenvalues --   72.73263  72.79985  72.83219  72.83219  73.02231
 Alpha virt. eigenvalues --   73.02231  73.71032  74.06126  74.06126  74.07491
 Alpha virt. eigenvalues --   74.07491  74.14142  74.14142  74.26853  74.26853
 Alpha virt. eigenvalues --   74.35381  74.35381  74.43846  80.72401  80.72401
 Alpha virt. eigenvalues --   80.81070  80.81070  81.19699  86.35337  86.35337
 Alpha virt. eigenvalues --   86.35786  86.35786  86.36168  86.36168  86.36945
 Alpha virt. eigenvalues --   86.36945  86.40675  86.40675  86.53400  86.53400
 Alpha virt. eigenvalues --   86.60758  91.08297  91.08297  92.33704 134.02972
 Alpha virt. eigenvalues --  134.02972 134.11093 134.11093 134.47016 139.89629
 Alpha virt. eigenvalues --  142.08786 165.61062 165.61062 166.85932 234.08482
 Alpha virt. eigenvalues --  234.08482 234.15846 234.15846 234.48505 262.21192
 Alpha virt. eigenvalues --  298.64836 298.64836 299.82979 434.45489 477.96458
 Alpha virt. eigenvalues --  477.96458 478.02529 478.02529 478.29576 530.13714
 Alpha virt. eigenvalues --  530.13714 531.27054 706.69380 817.48506 945.83544
 Alpha virt. eigenvalues --  945.83544 946.945611181.192071181.192071181.23814
 Alpha virt. eigenvalues -- 1181.238141181.450151191.319551731.983941731.98394
 Alpha virt. eigenvalues -- 1733.065882079.365883307.380023307.380023308.40806
 Alpha virt. eigenvalues -- 3676.981763676.981763677.012203677.012203677.15391
 Alpha virt. eigenvalues -- 3764.732576686.818346686.818346687.770857080.49996
 Alpha virt. eigenvalues -- **************************************************
 Alpha virt. eigenvalues -- **************************************************
 Alpha virt. eigenvalues -- **************************************************
 Alpha virt. eigenvalues -- **************************************************
 Alpha virt. eigenvalues -- ******************************
     Molecular Orbital Coefficients:
                           6         7         8         9        10
                           O         O         O         O         O
     Eigenvalues --    -0.79859  -0.79859  -0.79492  -0.79492  -0.47611
   1 1   Zn 1S          0.00000   0.00000   0.00000   0.00000  -0.00000
   2        2S         -0.00000   0.00000   0.00000   0.00000   0.00000
   3        3S          0.00000   0.00000   0.00000   0.00000  -0.00000
   4        4S         -0.00000   0.00000   0.00000   0.00000   0.00000
   5        5S          0.00000   0.00000   0.00000   0.00000  -0.00000
   6        6S         -0.00000   0.00000   0.00000   0.00000   0.00000
   7        7S          0.00000   0.00000   0.00000   0.00000  -0.00000
   8        8S         -0.00000   0.00000   0.00000   0.00000   0.00000
   9        9S          0.00000   0.00000   0.00000   0.00000  -0.00000
  10       10S         -0.00000   0.00000   0.00000   0.00000   0.00000
  11       11S          0.00000   0.00000   0.00000   0.00000  -0.00001
  12       12S         -0.00000   0.00000   0.00000   0.00000   0.00002
  13       13S          0.00000   0.00000   0.00000   0.00000  -0.00006
  14       14S         -0.00000   0.00000   0.00000   0.00000   0.00014
  15       15S          0.00000   0.00000   0.00000   0.00000  -0.00037
  16       16S         -0.00000   0.00000   0.00000   0.00000   0.00095
  17       17S          0.00000   0.00000   0.00000   0.00000  -0.00071
  18       18S          0.00000   0.00000   0.00000   0.00000  -0.01360
  19       19S         -0.00000   0.00000   0.00000   0.00000   0.02251
  20       20S         -0.00000   0.00000   0.00000   0.00000   0.03080
  21       21S          0.00000   0.00000   0.00000   0.00000   0.00765
  22       22S          0.00000   0.00000   0.00000   0.00000  -0.07351
  23       23S         -0.00000   0.00000   0.00000   0.00000  -0.16292
  24       24S          0.00000   0.00000   0.00000   0.00000  -0.10012
  25       25S          0.00000   0.00000   0.00000   0.00000   0.12151
  26       26S          0.00000   0.00000   0.00000   0.00000   0.23899
  27       27S          0.00000   0.00000   0.00000   0.00000   0.15284
  28       28S          0.00000   0.00000   0.00000   0.00000   0.00280
  29       29S         -0.00000   0.00000   0.00000   0.00000   0.03124
  30       30S         -0.00000   0.00000   0.00000   0.00000  -0.02996
  31       31S          0.00000   0.00000   0.00000   0.00000  -0.00008
  32       32PX         0.00000   0.00000  -0.00000   0.00000   0.00000
  33       32PY         0.00000   0.00000   0.00000  -0.00000   0.00000
  34       32PZ        -0.00000   0.00000   0.00000   0.00000   0.00000
  35       33PX         0.00000   0.00000   0.00000   0.00000   0.00000
  36       33PY         0.00000   0.00000   0.00000   0.00000   0.00000
  37       33PZ         0.00000   0.00000   0.00000   0.00000  -0.00000
  38       34PX         0.00000   0.00000  -0.00000   0.00000   0.00000
  39       34PY         0.00000   0.00000   0.00000  -0.00000   0.00000
  40       34PZ        -0.00000   0.00000   0.00000   0.00000   0.00000
  41       35PX         0.00000   0.00000   0.00000   0.00000   0.00000
  42       35PY         0.00000   0.00000   0.00000   0.00000   0.00000
  43       35PZ         0.00000   0.00000   0.00000   0.00000  -0.00000
  44       36PX         0.00000   0.00000  -0.00000   0.00000   0.00000
  45       36PY         0.00000   0.00000   0.00000  -0.00000   0.00000
  46       36PZ        -0.00000   0.00000   0.00000   0.00000   0.00000
  47       37PX         0.00000   0.00000   0.00000   0.00000   0.00000
  48       37PY         0.00000   0.00000   0.00000   0.00000   0.00000
  49       37PZ         0.00000   0.00000   0.00000   0.00000  -0.00002
  50       38PX         0.00000   0.00000  -0.00000   0.00000   0.00000
  51       38PY         0.00000   0.00000   0.00000  -0.00000   0.00000
  52       38PZ        -0.00000   0.00000   0.00000   0.00000   0.00005
  53       39PX         0.00000   0.00000   0.00000   0.00000   0.00000
  54       39PY         0.00000   0.00000   0.00000   0.00000   0.00000
  55       39PZ         0.00000   0.00000   0.00000   0.00000  -0.00015
  56       40PX         0.00000   0.00000  -0.00001   0.00000   0.00000
  57       40PY         0.00000   0.00000   0.00000  -0.00001   0.00000
  58       40PZ        -0.00000   0.00000   0.00000   0.00000   0.00053
  59       41PX         0.00000   0.00000   0.00002   0.00000   0.00000
  60       41PY         0.00000   0.00000   0.00000   0.00002   0.00000
  61       41PZ         0.00000   0.00000   0.00000   0.00000  -0.00059
  62       42PX         0.00000   0.00000  -0.00003   0.00000   0.00000
  63       42PY         0.00000   0.00000   0.00000  -0.00003   0.00000
  64       42PZ         0.00000   0.00000   0.00000   0.00000  -0.00350
  65       43PX         0.00000   0.00000  -0.00067   0.00000   0.00000
  66       43PY         0.00000   0.00000   0.00000  -0.00067   0.00000
  67       43PZ         0.00000   0.00000   0.00000   0.00000   0.00279
  68       44PX         0.00000   0.00000  -0.00005   0.00000   0.00000
  69       44PY         0.00000   0.00000   0.00000  -0.00005   0.00000
  70       44PZ        -0.00000   0.00000   0.00000   0.00000   0.00662
  71       45PX         0.00000   0.00000  -0.00147   0.00000   0.00000
  72       45PY         0.00000   0.00000   0.00000  -0.00147   0.00000
  73       45PZ        -0.00000   0.00000   0.00000   0.00000   0.03115
  74       46PX         0.00000   0.00000  -0.00029   0.00000   0.00000
  75       46PY         0.00000   0.00000   0.00000  -0.00029   0.00000
  76       46PZ        -0.00000   0.00000   0.00000   0.00000   0.04372
  77       47PX         0.00000   0.00000  -0.00053   0.00000   0.00000
  78       47PY         0.00000   0.00000   0.00000  -0.00053   0.00000
  79       47PZ        -0.00000   0.00000   0.00000   0.00000   0.03914
  80       48PX         0.00000   0.00000   0.00043   0.00000   0.00000
  81       48PY         0.00000   0.00000   0.00000   0.00043   0.00000
  82       48PZ        -0.00000   0.00000   0.00000   0.00000  -0.01376
  83       49PX         0.00000   0.00000   0.00011   0.00000   0.00000
  84       49PY         0.00000   0.00000   0.00000   0.00011   0.00000
  85       49PZ         0.00000   0.00000   0.00000   0.00000  -0.09110
  86       50PX         0.00000   0.00000   0.00036   0.00000   0.00000
  87       50PY         0.00000   0.00000   0.00000   0.00036   0.00000
  88       50PZ         0.00000   0.00000   0.00000   0.00000  -0.07303
  89       51PX         0.00000   0.00000   0.00038   0.00000   0.00000
  90       51PY         0.00000   0.00000   0.00000   0.00038   0.00000
  91       51PZ         0.00000   0.00000   0.00000   0.00000  -0.00916
  92       52PX         0.00000   0.00000   0.00076   0.00000   0.00000
  93       52PY         0.00000   0.00000   0.00000   0.00076   0.00000
  94       52PZ        -0.00000   0.00000   0.00000   0.00000  -0.00870
  95       53PX         0.00000   0.00000   0.00099   0.00000   0.00000
  96       53PY         0.00000   0.00000   0.00000   0.00099   0.00000
  97       53PZ        -0.00000   0.00000   0.00000   0.00000   0.00559
  98       54PX         0.00000   0.00000  -0.00006   0.00000   0.00000
  99       54PY         0.00000   0.00000   0.00000  -0.00006   0.00000
 100       54PZ        -0.00000   0.00000   0.00000   0.00000   0.00022
 101       55D 0       -0.00000   0.00000   0.00000   0.00000  -0.00000
 102       55D+1        0.00000   0.00000   0.00000   0.00000   0.00000
 103       55D-1        0.00000   0.00000   0.00000   0.00000   0.00000
 104       55D+2        0.00000   0.00000   0.00000   0.00000   0.00000
 105       55D-2        0.00000   0.00000   0.00000   0.00000   0.00000
 106       56D 0        0.00000   0.00000   0.00000   0.00000   0.00000
 107       56D+1        0.00000   0.00000  -0.00001   0.00000   0.00000
 108       56D-1        0.00000   0.00000   0.00000  -0.00001   0.00000
 109       56D+2       -0.00001   0.00000   0.00000   0.00000  -0.00000
 110       56D-2        0.00000  -0.00001   0.00000   0.00000   0.00000
 111       57D 0       -0.00000   0.00000   0.00000   0.00000  -0.00012
 112       57D+1        0.00000   0.00000   0.00059   0.00000   0.00000
 113       57D-1        0.00000   0.00000   0.00000   0.00059   0.00000
 114       57D+2        0.00059   0.00000   0.00000   0.00000   0.00000
 115       57D-2        0.00000   0.00059   0.00000   0.00000   0.00000
 116       58D 0       -0.00000   0.00000   0.00000   0.00000  -0.00277
 117       58D+1        0.00000   0.00000   0.01344   0.00000   0.00000
 118       58D-1        0.00000   0.00000   0.00000   0.01344   0.00000
 119       58D+2        0.01346   0.00000   0.00000   0.00000   0.00000
 120       58D-2        0.00000   0.01346   0.00000   0.00000   0.00000
 121       59D 0       -0.00000   0.00000   0.00000   0.00000  -0.01471
 122       59D+1        0.00000   0.00000   0.07186   0.00000   0.00000
 123       59D-1        0.00000   0.00000   0.00000   0.07186   0.00000
 124       59D+2        0.07190   0.00000   0.00000   0.00000   0.00000
 125       59D-2        0.00000   0.07190   0.00000   0.00000   0.00000
 126       60D 0       -0.00001   0.00000   0.00000   0.00000  -0.03335
 127       60D+1        0.00000   0.00000   0.17013   0.00000   0.00000
 128       60D-1        0.00000   0.00000   0.00000   0.17013   0.00000
 129       60D+2        0.16914   0.00000   0.00000   0.00000   0.00000
 130       60D-2        0.00000   0.16914   0.00000   0.00000   0.00000
 131       61D 0       -0.00001   0.00000   0.00000   0.00000  -0.05032
 132       61D+1        0.00000   0.00000   0.24893   0.00000   0.00000
 133       61D-1        0.00000   0.00000   0.00000   0.24893   0.00000
 134       61D+2        0.24876   0.00000   0.00000   0.00000   0.00000
 135       61D-2        0.00000   0.24876   0.00000   0.00000   0.00000
 136       62D 0       -0.00002   0.00000   0.00000   0.00000  -0.05981
 137       62D+1        0.00000   0.00000   0.29024   0.00000   0.00000
 138       62D-1        0.00000   0.00000   0.00000   0.29024   0.00000
 139       62D+2        0.29072   0.00000   0.00000   0.00000   0.00000
 140       62D-2        0.00000   0.29072   0.00000   0.00000   0.00000
 141       63D 0       -0.00002   0.00000   0.00000   0.00000  -0.05406
 142       63D+1        0.00000   0.00000   0.27070   0.00000   0.00000
 143       63D-1        0.00000   0.00000   0.00000   0.27070   0.00000
 144       63D+2        0.27095   0.00000   0.00000   0.00000   0.00000
 145       63D-2        0.00000   0.27095   0.00000   0.00000   0.00000
 146       64D 0       -0.00001   0.00000   0.00000   0.00000  -0.03580
 147       64D+1        0.00000   0.00000   0.19361   0.00000   0.00000
 148       64D-1        0.00000   0.00000   0.00000   0.19361   0.00000
 149       64D+2        0.19485   0.00000   0.00000   0.00000   0.00000
 150       64D-2        0.00000   0.19485   0.00000   0.00000   0.00000
 151       65D 0       -0.00001   0.00000   0.00000   0.00000  -0.01017
 152       65D+1        0.00000   0.00000   0.09310   0.00000   0.00000
 153       65D-1        0.00000   0.00000   0.00000   0.09310   0.00000
 154       65D+2        0.09358   0.00000   0.00000   0.00000   0.00000
 155       65D-2        0.00000   0.09358   0.00000   0.00000   0.00000
 156       66D 0       -0.00000   0.00000   0.00000   0.00000   0.00439
 157       66D+1        0.00000   0.00000   0.01966   0.00000   0.00000
 158       66D-1        0.00000   0.00000   0.00000   0.01966   0.00000
 159       66D+2        0.01822   0.00000   0.00000   0.00000  -0.00000
 160       66D-2        0.00000   0.01822   0.00000   0.00000   0.00000
 161       67D 0        0.00000   0.00000   0.00000   0.00000   0.00122
 162       67D+1        0.00000   0.00000  -0.01108   0.00000   0.00000
 163       67D-1        0.00000   0.00000   0.00000  -0.01108   0.00000
 164       67D+2       -0.01031   0.00000   0.00000   0.00000  -0.00000
 165       67D-2        0.00000  -0.01031   0.00000   0.00000   0.00000
 166       68D 0        0.00000   0.00000   0.00000   0.00000   0.00027
 167       68D+1        0.00000   0.00000  -0.00688   0.00000   0.00000
 168       68D-1        0.00000   0.00000   0.00000  -0.00688   0.00000
 169       68D+2       -0.00612   0.00000   0.00000   0.00000  -0.00000
 170       68D-2        0.00000  -0.00612   0.00000   0.00000   0.00000
 171       69D 0       -0.00000   0.00000   0.00000   0.00000   0.00453
 172       69D+1        0.00000   0.00000   0.00016   0.00000   0.00000
 173       69D-1        0.00000   0.00000   0.00000   0.00016   0.00000
 174       69D+2        0.00001   0.00000   0.00000   0.00000   0.00000
 175       69D-2        0.00000   0.00001   0.00000   0.00000   0.00000
 176       70F 0       -0.00000   0.00000   0.00000   0.00000  -0.00003
 177       70F+1        0.00000   0.00000   0.00004   0.00000   0.00000
 178       70F-1        0.00000   0.00000   0.00000   0.00004   0.00000
 179       70F+2        0.00003   0.00000   0.00000   0.00000  -0.00000
 180       70F-2        0.00000   0.00003   0.00000   0.00000   0.00000
 181       70F+3        0.00000   0.00000   0.00000   0.00000   0.00000
 182       70F-3        0.00000   0.00000   0.00000  -0.00000   0.00000
 183       71F 0       -0.00000   0.00000   0.00000   0.00000  -0.00022
 184       71F+1        0.00000   0.00000   0.00013   0.00000   0.00000
 185       71F-1        0.00000   0.00000   0.00000   0.00013   0.00000
 186       71F+2        0.00012   0.00000   0.00000   0.00000  -0.00000
 187       71F-2        0.00000   0.00012   0.00000   0.00000   0.00000
 188       71F+3        0.00000   0.00000   0.00000   0.00000   0.00000
 189       71F-3        0.00000   0.00000   0.00000  -0.00000   0.00000
 190       72F 0       -0.00000   0.00000   0.00000   0.00000  -0.00032
 191       72F+1        0.00000   0.00000   0.00028   0.00000   0.00000
 192       72F-1        0.00000   0.00000   0.00000   0.00028   0.00000
 193       72F+2        0.00020   0.00000   0.00000   0.00000  -0.00000
 194       72F-2        0.00000   0.00020   0.00000   0.00000   0.00000
 195       72F+3        0.00000   0.00000   0.00000   0.00000   0.00000
 196       72F-3        0.00000   0.00000   0.00000  -0.00000   0.00000
 197       73F 0        0.00000   0.00000   0.00000   0.00000  -0.00180
 198       73F+1        0.00000   0.00000   0.00055   0.00000   0.00000
 199       73F-1        0.00000   0.00000   0.00000   0.00055   0.00000
 200       73F+2        0.00054   0.00000   0.00000   0.00000  -0.00000
 201       73F-2        0.00000   0.00054   0.00000   0.00000   0.00000
 202       73F+3        0.00000   0.00000   0.00000   0.00000   0.00000
 203       73F-3        0.00000   0.00000   0.00000  -0.00000   0.00000
 204       74F 0        0.00000   0.00000   0.00000   0.00000  -0.00413
 205       74F+1        0.00000   0.00000   0.00079   0.00000   0.00000
 206       74F-1        0.00000   0.00000   0.00000   0.00079   0.00000
 207       74F+2        0.00087   0.00000   0.00000   0.00000  -0.00000
 208       74F-2        0.00000   0.00087   0.00000   0.00000   0.00000
 209       74F+3        0.00000   0.00000   0.00000   0.00000   0.00000
 210       74F-3        0.00000   0.00000   0.00000  -0.00000   0.00000
 211       75F 0        0.00000   0.00000   0.00000   0.00000  -0.00266
 212       75F+1        0.00000   0.00000   0.00001   0.00000   0.00000
 213       75F-1        0.00000   0.00000   0.00000   0.00001   0.00000
 214       75F+2        0.00018   0.00000   0.00000   0.00000  -0.00000
 215       75F-2        0.00000   0.00018   0.00000   0.00000   0.00000
 216       75F+3        0.00000   0.00000  -0.00000   0.00000   0.00000
 217       75F-3        0.00000   0.00000   0.00000  -0.00000   0.00000
 218       76G 0        0.00000   0.00000   0.00000   0.00000   0.00002
 219       76G+1        0.00000   0.00000  -0.00003   0.00000   0.00000
 220       76G-1        0.00000   0.00000   0.00000  -0.00003   0.00000
 221       76G+2       -0.00002   0.00000   0.00000   0.00000   0.00000
 222       76G-2        0.00000  -0.00002   0.00000   0.00000   0.00000
 223       76G+3        0.00000   0.00000   0.00000   0.00000   0.00000
 224       76G-3        0.00000   0.00000   0.00000   0.00000   0.00000
 225       76G+4        0.00000   0.00000   0.00000   0.00000   0.00000
 226       76G-4        0.00000   0.00000   0.00000   0.00000   0.00000
 227       77G 0        0.00000   0.00000   0.00000   0.00000   0.00001
 228       77G+1        0.00000   0.00000  -0.00005   0.00000   0.00000
 229       77G-1        0.00000   0.00000   0.00000  -0.00005   0.00000
 230       77G+2       -0.00004   0.00000   0.00000   0.00000  -0.00000
 231       77G-2        0.00000  -0.00004   0.00000   0.00000   0.00000
 232       77G+3        0.00000   0.00000   0.00000   0.00000   0.00000
 233       77G-3        0.00000   0.00000   0.00000   0.00000   0.00000
 234       77G+4       -0.00000   0.00000   0.00000   0.00000  -0.00000
 235       77G-4        0.00000   0.00000   0.00000   0.00000   0.00000
 236       78G 0        0.00000   0.00000   0.00000   0.00000   0.00012
 237       78G+1        0.00000   0.00000  -0.00011   0.00000   0.00000
 238       78G-1        0.00000   0.00000   0.00000  -0.00011   0.00000
 239       78G+2       -0.00007   0.00000   0.00000   0.00000  -0.00000
 240       78G-2        0.00000  -0.00007   0.00000   0.00000   0.00000
 241       78G+3        0.00000   0.00000   0.00000   0.00000   0.00000
 242       78G-3        0.00000   0.00000   0.00000   0.00000   0.00000
 243       78G+4        0.00000   0.00000   0.00000   0.00000   0.00000
 244       78G-4        0.00000   0.00000   0.00000   0.00000   0.00000
 245       79G 0        0.00000   0.00000   0.00000   0.00000   0.00058
 246       79G+1        0.00000   0.00000  -0.00032   0.00000   0.00000
 247       79G-1        0.00000   0.00000   0.00000  -0.00032   0.00000
 248       79G+2       -0.00034   0.00000   0.00000   0.00000  -0.00000
 249       79G-2        0.00000  -0.00034   0.00000   0.00000   0.00000
 250       79G+3        0.00000   0.00000  -0.00000   0.00000   0.00000
 251       79G-3        0.00000   0.00000   0.00000  -0.00000   0.00000
 252       79G+4       -0.00000   0.00000   0.00000   0.00000  -0.00000
 253       79G-4        0.00000  -0.00000   0.00000   0.00000   0.00000
 254       80G 0        0.00000   0.00000   0.00000   0.00000   0.00070
 255       80G+1        0.00000   0.00000  -0.00103   0.00000   0.00000
 256       80G-1        0.00000   0.00000   0.00000  -0.00103   0.00000
 257       80G+2       -0.00082   0.00000   0.00000   0.00000   0.00000
 258       80G-2        0.00000  -0.00082   0.00000   0.00000   0.00000
 259       80G+3        0.00000   0.00000  -0.00000   0.00000   0.00000
 260       80G-3        0.00000   0.00000   0.00000  -0.00000   0.00000
 261       80G+4        0.00000   0.00000   0.00000   0.00000  -0.00000
 262       80G-4        0.00000  -0.00000   0.00000   0.00000   0.00000
 263       81H 0       -0.00000   0.00000   0.00000   0.00000  -0.00000
 264       81H+1        0.00000   0.00000   0.00000   0.00000   0.00000
 265       81H-1        0.00000   0.00000   0.00000   0.00000   0.00000
 266       81H+2        0.00000   0.00000   0.00000   0.00000  -0.00000
 267       81H-2        0.00000   0.00000   0.00000   0.00000   0.00000
[...]
 211       75F 0        0.00102   0.00052   0.00050   0.00002
 212       75F+1       -0.00000  -0.00000  -0.00000   0.00000
 213       75F-1       -0.00000  -0.00000  -0.00000   0.00000
 214       75F+2        0.00000   0.00000   0.00000   0.00000
 215       75F-2        0.00000   0.00000   0.00000   0.00000
 216       75F+3        0.00000   0.00000   0.00000   0.00000
 217       75F-3        0.00000   0.00000   0.00000   0.00000
 218       76G 0        0.00000   0.00000   0.00000   0.00000
 219       76G+1        0.00000   0.00000   0.00000   0.00000
 220       76G-1        0.00000   0.00000   0.00000   0.00000
 221       76G+2        0.00000   0.00000   0.00000  -0.00000
 222       76G-2        0.00000   0.00000   0.00000   0.00000
 223       76G+3        0.00000   0.00000   0.00000   0.00000
 224       76G-3        0.00000   0.00000   0.00000   0.00000
 225       76G+4        0.00000   0.00000   0.00000   0.00000
 226       76G-4        0.00000   0.00000   0.00000   0.00000
 227       77G 0        0.00000   0.00000   0.00000   0.00000
 228       77G+1        0.00000   0.00000   0.00000   0.00000
 229       77G-1        0.00000   0.00000   0.00000   0.00000
 230       77G+2        0.00000   0.00000   0.00000   0.00000
 231       77G-2        0.00000   0.00000   0.00000   0.00000
 232       77G+3        0.00000   0.00000   0.00000   0.00000
 233       77G-3        0.00000   0.00000   0.00000   0.00000
 234       77G+4        0.00000   0.00000   0.00000  -0.00000
 235       77G-4        0.00000   0.00000   0.00000   0.00000
 236       78G 0        0.00000   0.00000   0.00000   0.00000
 237       78G+1        0.00000   0.00000   0.00000   0.00000
 238       78G-1        0.00000   0.00000   0.00000   0.00000
 239       78G+2        0.00000   0.00000   0.00000  -0.00000
 240       78G-2        0.00000   0.00000   0.00000   0.00000
 241       78G+3        0.00000   0.00000   0.00000   0.00000
 242       78G-3        0.00000   0.00000   0.00000   0.00000
 243       78G+4       -0.00000  -0.00000  -0.00000   0.00000
 244       78G-4        0.00000   0.00000   0.00000   0.00000
 245       79G 0        0.00003   0.00002   0.00001   0.00000
 246       79G+1       -0.00000  -0.00000  -0.00000   0.00000
 247       79G-1       -0.00000  -0.00000  -0.00000   0.00000
 248       79G+2        0.00000   0.00000   0.00000   0.00000
 249       79G-2        0.00000   0.00000   0.00000   0.00000
 250       79G+3        0.00000   0.00000   0.00000   0.00000
 251       79G-3        0.00000   0.00000   0.00000   0.00000
 252       79G+4        0.00000   0.00000   0.00000   0.00000
 253       79G-4        0.00000   0.00000   0.00000   0.00000
 254       80G 0        0.00008   0.00003   0.00004  -0.00001
 255       80G+1       -0.00000  -0.00000  -0.00000   0.00000
 256       80G-1       -0.00000  -0.00000  -0.00000   0.00000
 257       80G+2        0.00000   0.00000   0.00000  -0.00000
 258       80G-2        0.00000   0.00000   0.00000   0.00000
 259       80G+3        0.00000   0.00000   0.00000   0.00000
 260       80G-3        0.00000   0.00000   0.00000   0.00000
 261       80G+4       -0.00000  -0.00000  -0.00000  -0.00000
 262       80G-4        0.00000   0.00000   0.00000   0.00000
 263       81H 0        0.00000   0.00000   0.00000   0.00000
 264       81H+1        0.00000   0.00000   0.00000   0.00000
 265       81H-1        0.00000   0.00000   0.00000   0.00000
 266       81H+2        0.00000   0.00000   0.00000   0.00000
 267       81H-2        0.00000   0.00000   0.00000   0.00000
 268       81H+3        0.00000   0.00000   0.00000   0.00000
 269       81H-3       -0.00000  -0.00000  -0.00000   0.00000
 270       81H+4        0.00000   0.00000   0.00000   0.00000
 271       81H-4       -0.00000  -0.00000  -0.00000   0.00000
 272       81H+5        0.00000   0.00000   0.00000   0.00000
 273       81H-5        0.00000   0.00000   0.00000   0.00000
 274       82H 0       -0.00000  -0.00000  -0.00000  -0.00000
 275       82H+1       -0.00000  -0.00000  -0.00000   0.00000
 276       82H-1       -0.00000  -0.00000  -0.00000   0.00000
 277       82H+2       -0.00000  -0.00000  -0.00000  -0.00000
 278       82H-2       -0.00000  -0.00000  -0.00000   0.00000
 279       82H+3       -0.00000  -0.00000  -0.00000   0.00000
 280       82H-3        0.00000   0.00000   0.00000   0.00000
 281       82H+4        0.00000   0.00000   0.00000  -0.00000
 282       82H-4        0.00000   0.00000   0.00000   0.00000
 283       82H+5       -0.00000  -0.00000  -0.00000   0.00000
 284       82H-5        0.00000   0.00000   0.00000   0.00000
 285       83H 0        0.00000   0.00000   0.00000   0.00000
 286       83H+1        0.00000   0.00000   0.00000   0.00000
 287       83H-1        0.00000   0.00000   0.00000   0.00000
 288       83H+2       -0.00000  -0.00000  -0.00000   0.00000
 289       83H-2       -0.00000  -0.00000  -0.00000   0.00000
 290       83H+3        0.00000   0.00000   0.00000   0.00000
 291       83H-3        0.00000   0.00000   0.00000   0.00000
 292       83H+4       -0.00000  -0.00000  -0.00000   0.00000
 293       83H-4        0.00000   0.00000   0.00000   0.00000
 294       83H+5       -0.00000  -0.00000  -0.00000   0.00000
 295       83H-5       -0.00000  -0.00000  -0.00000   0.00000
 296       84H 0        0.00001   0.00000   0.00000  -0.00000
 297       84H+1        0.00000   0.00000   0.00000   0.00000
 298       84H-1        0.00000   0.00000   0.00000   0.00000
 299       84H+2        0.00000   0.00000   0.00000   0.00000
 300       84H-2        0.00000   0.00000   0.00000   0.00000
 301       84H+3        0.00000   0.00000   0.00000   0.00000
 302       84H-3        0.00000   0.00000   0.00000   0.00000
 303       84H+4        0.00000   0.00000   0.00000   0.00000
 304       84H-4        0.00000   0.00000   0.00000   0.00000
 305       84H+5        0.00000   0.00000   0.00000   0.00000
 306       84H-5        0.00000   0.00000   0.00000   0.00000
 307       85I 0        0.00000   0.00000   0.00000  -0.00000
 308       85I+1        0.00000   0.00000   0.00000   0.00000
 309       85I-1        0.00000   0.00000   0.00000   0.00000
 310       85I+2        0.00000   0.00000   0.00000   0.00000
 311       85I-2        0.00000   0.00000   0.00000   0.00000
 312       85I+3        0.00000   0.00000   0.00000   0.00000
 313       85I-3        0.00000   0.00000   0.00000   0.00000
 314       85I+4        0.00000   0.00000   0.00000   0.00000
 315       85I-4        0.00000   0.00000   0.00000   0.00000
 316       85I+5        0.00000   0.00000   0.00000   0.00000
 317       85I-5        0.00000   0.00000   0.00000   0.00000
 318       85I+6        0.00000   0.00000   0.00000   0.00000
 319       85I-6        0.00000   0.00000   0.00000   0.00000
 320       86I 0       -0.00000  -0.00000  -0.00000   0.00000
 321       86I+1       -0.00000  -0.00000  -0.00000   0.00000
 322       86I-1       -0.00000  -0.00000  -0.00000   0.00000
 323       86I+2       -0.00000  -0.00000  -0.00000  -0.00000
 324       86I-2       -0.00000  -0.00000  -0.00000   0.00000
 325       86I+3        0.00000   0.00000   0.00000   0.00000
 326       86I-3        0.00000   0.00000   0.00000   0.00000
 327       86I+4       -0.00000  -0.00000  -0.00000   0.00000
 328       86I-4        0.00000   0.00000   0.00000   0.00000
 329       86I+5       -0.00000  -0.00000  -0.00000   0.00000
 330       86I-5        0.00000   0.00000   0.00000   0.00000
 331       86I+6       -0.00000  -0.00000  -0.00000   0.00000
 332       86I-6        0.00000   0.00000   0.00000   0.00000
 333       87I 0        0.00000   0.00000   0.00000  -0.00000
 334       87I+1        0.00000   0.00000   0.00000   0.00000
 335       87I-1        0.00000   0.00000   0.00000   0.00000
 336       87I+2        0.00000   0.00000   0.00000   0.00000
 337       87I-2        0.00000   0.00000   0.00000   0.00000
 338       87I+3        0.00000   0.00000   0.00000   0.00000
 339       87I-3        0.00000   0.00000   0.00000   0.00000
 340       87I+4        0.00000   0.00000   0.00000   0.00000
 341       87I-4        0.00000   0.00000   0.00000   0.00000
 342       87I+5        0.00000   0.00000   0.00000   0.00000
 343       87I-5        0.00000   0.00000   0.00000   0.00000
 344       87I+6        0.00000   0.00000   0.00000   0.00000
 345       87I-6        0.00000   0.00000   0.00000   0.00000
 346 2   H  1S         -0.00000  -0.00000  -0.00000  -0.00000
 347        2S          0.00007   0.00004   0.00003   0.00001
 348        3S          0.00393   0.00211   0.00182   0.00029
 349        4S          0.02821   0.01513   0.01307   0.00206
 350        5S          0.13869   0.07418   0.06452   0.00966
 351        6S          0.39678   0.21157   0.18521   0.02636
 352        7S          0.52386   0.27756   0.24629   0.03127
 353        8S          0.14873   0.07148   0.07725  -0.00577
 354        9S          0.00311   0.00149   0.00163  -0.00014
 355       10PX         0.00001   0.00000   0.00000   0.00000
 356       10PY         0.00001   0.00000   0.00000   0.00000
 357       10PZ         0.00007   0.00004   0.00003   0.00000
 358       11PX         0.00011   0.00005   0.00005   0.00000
 359       11PY         0.00011   0.00005   0.00005   0.00000
 360       11PZ         0.00076   0.00038   0.00038   0.00000
 361       12PX         0.00113   0.00057   0.00057   0.00000
 362       12PY         0.00113   0.00057   0.00057   0.00000
 363       12PZ         0.00581   0.00280   0.00301  -0.00021
 364       13PX         0.00107   0.00054   0.00054   0.00000
 365       13PY         0.00107   0.00054   0.00054   0.00000
 366       13PZ         0.00418   0.00104   0.00314  -0.00211
 367       14PX         0.00011   0.00005   0.00005   0.00000
 368       14PY         0.00011   0.00005   0.00005   0.00000
 369       14PZ         0.00074   0.00105  -0.00031   0.00136
 370       15D 0        0.00002   0.00001   0.00001   0.00000
 371       15D+1        0.00001   0.00000   0.00000   0.00000
 372       15D-1        0.00001   0.00000   0.00000   0.00000
 373       15D+2        0.00000   0.00000   0.00000   0.00000
 374       15D-2        0.00000   0.00000   0.00000   0.00000
 375       16D 0        0.00034   0.00016   0.00018  -0.00001
 376       16D+1        0.00023   0.00011   0.00011   0.00000
 377       16D-1        0.00023   0.00011   0.00011   0.00000
 378       16D+2        0.00001   0.00001   0.00001   0.00000
 379       16D-2        0.00001   0.00001   0.00001   0.00000
 380       17D 0       -0.00007  -0.00007   0.00000  -0.00007
 381       17D+1        0.00059   0.00030   0.00030   0.00000
 382       17D-1        0.00059   0.00030   0.00030   0.00000
 383       17D+2        0.00007   0.00003   0.00003  -0.00000
 384       17D-2        0.00007   0.00003   0.00003   0.00000
 385       18D 0        0.00076   0.00077  -0.00001   0.00078
 386       18D+1        0.00008   0.00004   0.00004   0.00000
 387       18D-1        0.00008   0.00004   0.00004   0.00000
 388       18D+2       -0.00002  -0.00001  -0.00001  -0.00000
 389       18D-2       -0.00002  -0.00001  -0.00001   0.00000
 390       19F 0        0.00002   0.00001   0.00001   0.00000
 391       19F+1        0.00001   0.00000   0.00000   0.00000
 392       19F-1        0.00001   0.00000   0.00000   0.00000
 393       19F+2        0.00000   0.00000   0.00000   0.00000
 394       19F-2        0.00000   0.00000   0.00000   0.00000
 395       19F+3       -0.00000  -0.00000  -0.00000   0.00000
 396       19F-3       -0.00000  -0.00000  -0.00000   0.00000
 397       20F 0        0.00016   0.00008   0.00008  -0.00000
 398       20F+1        0.00017   0.00009   0.00009   0.00000
 399       20F-1        0.00017   0.00009   0.00009   0.00000
 400       20F+2        0.00004   0.00002   0.00002  -0.00000
 401       20F-2        0.00004   0.00002   0.00002   0.00000
 402       20F+3        0.00000   0.00000   0.00000   0.00000
 403       20F-3        0.00000   0.00000   0.00000   0.00000
 404       21F 0        0.00008   0.00006   0.00002   0.00004
 405       21F+1       -0.00001  -0.00000  -0.00000   0.00000
 406       21F-1       -0.00001  -0.00000  -0.00000   0.00000
 407       21F+2        0.00000   0.00000   0.00000  -0.00000
 408       21F-2        0.00000   0.00000   0.00000   0.00000
 409       21F+3        0.00000   0.00000   0.00000   0.00000
 410       21F-3        0.00000   0.00000   0.00000   0.00000
 411       22G 0        0.00001   0.00001   0.00001  -0.00000
 412       22G+1        0.00001   0.00000   0.00000   0.00000
 413       22G-1        0.00001   0.00000   0.00000   0.00000
 414       22G+2        0.00000   0.00000   0.00000   0.00000
 415       22G-2        0.00000   0.00000   0.00000   0.00000
 416       22G+3        0.00000   0.00000   0.00000   0.00000
 417       22G-3        0.00000   0.00000   0.00000   0.00000
 418       22G+4        0.00000   0.00000   0.00000   0.00000
 419       22G-4       -0.00000  -0.00000  -0.00000   0.00000
 420       23G 0        0.00007   0.00003   0.00004  -0.00001
 421       23G+1       -0.00000  -0.00000  -0.00000   0.00000
 422       23G-1       -0.00000  -0.00000  -0.00000   0.00000
 423       23G+2        0.00003   0.00002   0.00002   0.00000
 424       23G-2        0.00003   0.00002   0.00002   0.00000
 425       23G+3        0.00000   0.00000   0.00000   0.00000
 426       23G-3        0.00000   0.00000   0.00000   0.00000
 427       23G+4        0.00000   0.00000   0.00000  -0.00000
 428       23G-4        0.00000   0.00000   0.00000   0.00000
          Condensed to atoms (all electrons):
               1          2
     1  Zn  19.416415   0.319911
     2  H    0.319911   0.943764
          Atomic-Atomic Spin Densities.
               1          2
     1  Zn   1.022417  -0.085926
     2  H   -0.085926   0.149434
 Mulliken charges and spin densities:
               1          2
     1  Zn   0.263674   0.936491
     2  H   -0.263674   0.063509
 Sum of Mulliken charges =  -0.00000   1.00000
 Mulliken charges and spin densities with hydrogens summed into heavy atoms:
               1          2
     1  Zn  -0.000000   1.000000
 Electronic spatial extent (au):  <R**2>=             43.6284
 Charge=             -0.0000 electrons
 Dipole moment (field-independent basis, Debye):
    X=              0.0000    Y=              0.0000    Z=              0.2140  Tot=              0.2140
 Quadrupole moment (field-independent basis, Debye-Ang):
   XX=            -14.4729   YY=            -14.4729   ZZ=            -20.7233
   XY=              0.0000   XZ=              0.0000   YZ=              0.0000
 Traceless Quadrupole moment (field-independent basis, Debye-Ang):
   XX=              2.0835   YY=              2.0835   ZZ=             -4.1669
   XY=              0.0000   XZ=              0.0000   YZ=              0.0000
 Octapole moment (field-independent basis, Debye-Ang**2):
  XXX=              0.0000  YYY=              0.0000  ZZZ=              0.4682  XYY=              0.0000
  XXY=              0.0000  XXZ=             -0.3798  XZZ=              0.0000  YZZ=              0.0000
  YYZ=             -0.3798  XYZ=              0.0000
 Hexadecapole moment (field-independent basis, Debye-Ang**3):
 XXXX=            -19.9459 YYYY=            -19.9459 ZZZZ=            -61.9867 XXXY=              0.0000
 XXXZ=              0.0000 YYYX=              0.0000 YYYZ=              0.0000 ZZZX=              0.0000
 ZZZY=              0.0000 XXYY=             -6.6486 XXZZ=            -13.3092 YYZZ=            -13.3092
 XXYZ=              0.0000 YYXZ=              0.0000 ZZXY=              0.0000
 N-N= 7.559674441714D+00 E-N=-5.727804402803D+02  KE= 1.502644113211D+02
 Symmetry A1   KE= 6.259164330876D+01
 Symmetry A2   KE= 2.162458317222D+01
 Symmetry B1   KE= 3.302409242228D+01
 Symmetry B2   KE= 3.302409241808D+01
 Symmetry A1   SP= 1.000000000000D+00
 Symmetry A2   SP= 0.000000000000D+00
 Symmetry B1   SP= 0.000000000000D+00
 Symmetry B2   SP= 0.000000000000D+00
 Orbital energies and kinetic energies (alpha):
                                 1                 2
   6         O                -0.798589         10.812292
   7         O                -0.798589         10.812292
   8         O                -0.794916         10.787022
   9         O                -0.794916         10.787022
  10         O                -0.476107          1.007984
  11         O                -0.272992          0.546347
  12         V                 0.019368          0.057602
  13         V                 0.019368          0.057602
  14         V                 0.022558          0.033669
  15         V                 0.033305          0.046074
  16         V                 0.063520          0.074806
 Total kinetic energy from orbitals= 1.508107582124D+02
                          Isotropic Fermi Contact Couplings
        Atom                 a.u.       MegaHertz       Gauss      10(-4) cm-1
     1  Zn(67)             0.00001       0.00370       0.00132       0.00123
     2  H(1)               0.02685     120.03787      42.83250      40.04032
 --------------------------------------------------------
       Center         ----  Spin Dipole Couplings  ----
                      3XX-RR        3YY-RR        3ZZ-RR
 --------------------------------------------------------
     1   Atom       -0.013033     -0.013033      0.026066
     2   Atom       -0.004982     -0.004982      0.009964
 --------------------------------------------------------
                        XY            XZ            YZ
 --------------------------------------------------------
     1   Atom        0.000000      0.000000      0.000000
     2   Atom        0.000000      0.000000      0.000000
 --------------------------------------------------------


 ---------------------------------------------------------------------------------
              Anisotropic Spin Dipole Couplings in Principal Axis System
 ---------------------------------------------------------------------------------

       Atom             a.u.   MegaHertz   Gauss  10(-4) cm-1        Axes

              Baa    -0.0130    -0.436    -0.156    -0.145 -0.0000  1.0000  0.0000
     1 Zn(67) Bbb    -0.0130    -0.436    -0.156    -0.145  1.0000  0.0000  0.0000
              Bcc     0.0261     0.872     0.311     0.291  0.0000  0.0000  1.0000
 
              Baa    -0.0050    -2.658    -0.948    -0.887 -0.0000  1.0000  0.0000
     2 H(1)   Bbb    -0.0050    -2.658    -0.948    -0.887  1.0000  0.0000  0.0000
              Bcc     0.0100     5.316     1.897     1.773  0.0000  0.0000  1.0000
 

 ---------------------------------------------------------------------------------

 No NMR shielding tensors so no spin-rotation constants.
 Leave Link  601 at Sun Apr 29 00:38:52 2018, MaxMem= 10737418240 cpu:             419.0 elap:              13.6
 (Enter /home1/apps/gaussian/16rA.03/g16/l9999.exe)

 Test job not archived.
 1\1\GINC-C470-012\SP\ROCCSD(T)-Full\Gen\H1Zn1(2)\GWANG18\29-Apr-2018\0
 \\#P ROCCSD(T)=(MaxCyc=150, Full)/Gen SCF=(maxcycle=400, vshift=200) P
 seudo=Read Integral(NoXCTest) Pop=Regular MaxDisk=500GB Guess=Read IOp
 (5/15=2)\\ZnH\\0,2\Zn,0,0.,0.,0.\H,0,0.,0.,1.4\\Version=ES64L-G16RevA.
 03\State=2-SG\HF=-226.1423913\MP2=-227.2556675\MP3=-227.1274039\PUHF=-
 226.1423913\PMP2-0=-227.2556675\MP4SDQ=-227.203858\CCSD=-227.1748668\C
 CSD(T)=-227.2039153\RMSD=1.932e-09\PG=C*V [C*(H1Zn1)]\\@


 CHILDREN YOU ARE VERY LITTLE,
 AND YOUR BONES ARE VERY BRITTLE;
 IF YOU WOULD GROW GREAT AND STATELY
 YOU MUST TRY TO WALK SEDATELY.
 YOU MUST STILL BE BRIGHT AND QUIET,
 AND CONTENT WITH SIMPLE DIET;
 AND REMAIN, THROUGH ALL BEWILD'RING
 INNOCENT AND HONEST CHILDREN.
     -- A CHILD'S GARDEN OF VERSE,
        ROBERT LOUIS STEVENSON
 Job cpu time:       3 days 22 hours  6 minutes 31.6 seconds.
 Elapsed time:       0 days  2 hours 57 minutes 49.6 seconds.
 File lengths (MBytes):  RWF=  29390 Int=      0 D2E=      0 Chk=     22 Scr=      1
 Normal termination of Gaussian 16 at Sun Apr 29 00:38:53 2018.
