 Entering Gaussian System, Link 0=g16
 Initial command:
 /home1/apps/gaussian/16rA.03/g16/l1.exe "/tmp/Gau-94883.inp" -scrdir="/tmp/"
 Entering Link 1 = /home1/apps/gaussian/16rA.03/g16/l1.exe PID=     94886.
  
 Copyright (c) 1988,1990,1992,1993,1995,1998,2003,2009,2016,
            Gaussian, Inc.  All Rights Reserved.
  
 This is part of the Gaussian(R) 16 program.  It is based on
 the Gaussian(R) 09 system (copyright 2009, Gaussian, Inc.),
 the Gaussian(R) 03 system (copyright 2003, Gaussian, Inc.),
 the Gaussian(R) 98 system (copyright 1998, Gaussian, Inc.),
 the Gaussian(R) 94 system (copyright 1995, Gaussian, Inc.),
 the Gaussian 92(TM) system (copyright 1992, Gaussian, Inc.),
 the Gaussian 90(TM) system (copyright 1990, Gaussian, Inc.),
 the Gaussian 88(TM) system (copyright 1988, Gaussian, Inc.),
 the Gaussian 86(TM) system (copyright 1986, Carnegie Mellon
 University), and the Gaussian 82(TM) system (copyright 1983,
 Carnegie Mellon University). Gaussian is a federally registered
 trademark of Gaussian, Inc.
  
 This software contains proprietary and confidential information,
 including trade secrets, belonging to Gaussian, Inc.
  
 This software is provided under written license and may be
 used, copied, transmitted, or stored only in accord with that
 written license.
  
 The following legend is applicable only to US Government
 contracts under FAR:
  
                    RESTRICTED RIGHTS LEGEND
  
 Use, reproduction and disclosure by the US Government is
 subject to restrictions as set forth in subparagraphs (a)
 and (c) of the Commercial Computer Software - Restricted
 Rights clause in FAR 52.227-19.
  
 Gaussian, Inc.
 340 Quinnipiac St., Bldg. 40, Wallingford CT 06492
  
  
 ---------------------------------------------------------------
 Warning -- This program may not be used in any manner that
 competes with the business of Gaussian, Inc. or will provide
 assistance to any competitor of Gaussian, Inc.  The licensee
 of this program is prohibited from giving any competitor of
 Gaussian, Inc. access to this program.  By using this program,
 the user acknowledges that Gaussian, Inc. is engaged in the
 business of creating and licensing software in the field of
 computational chemistry and represents and warrants to the
 licensee that it is not a competitor of Gaussian, Inc. and that
 it will not use this program in any manner prohibited above.
 ---------------------------------------------------------------
  

 Cite this work as:
 Gaussian 16, Revision A.03,
 M. J. Frisch, G. W. Trucks, H. B. Schlegel, G. E. Scuseria, 
 M. A. Robb, J. R. Cheeseman, G. Scalmani, V. Barone, 
 G. A. Petersson, H. Nakatsuji, X. Li, M. Caricato, A. V. Marenich, 
 J. Bloino, B. G. Janesko, R. Gomperts, B. Mennucci, H. P. Hratchian, 
 J. V. Ortiz, A. F. Izmaylov, J. L. Sonnenberg, D. Williams-Young, 
 F. Ding, F. Lipparini, F. Egidi, J. Goings, B. Peng, A. Petrone, 
 T. Henderson, D. Ranasinghe, V. G. Zakrzewski, J. Gao, N. Rega, 
 G. Zheng, W. Liang, M. Hada, M. Ehara, K. Toyota, R. Fukuda, 
 J. Hasegawa, M. Ishida, T. Nakajima, Y. Honda, O. Kitao, H. Nakai, 
 T. Vreven, K. Throssell, J. A. Montgomery, Jr., J. E. Peralta, 
 F. Ogliaro, M. J. Bearpark, J. J. Heyd, E. N. Brothers, K. N. Kudin, 
 V. N. Staroverov, T. A. Keith, R. Kobayashi, J. Normand, 
 K. Raghavachari, A. P. Rendell, J. C. Burant, S. S. Iyengar, 
 J. Tomasi, M. Cossi, J. M. Millam, M. Klene, C. Adamo, R. Cammi, 
 J. W. Ochterski, R. L. Martin, K. Morokuma, O. Farkas, 
 J. B. Foresman, and D. J. Fox, Gaussian, Inc., Wallingford CT, 2016.
 
 ******************************************
 Gaussian 16:  ES64L-G16RevA.03 25-Dec-2016
                22-Mar-2018 
 ******************************************
 %mem=80GB
 %cpu=0-31
 SetSPE:  set environment variable "MP_BIND" = "yes"
 SetSPE:  set environment variable "MP_BLIST" = "0,1,2,3,4,5,6,7,8,9,10,11,12,13,14,15,16,17,18,19,20,21,22,23,24,25,26,27,28,29,30,31"
 Will use up to   32 processors via shared memory.
 %chk=5z.chk
 %rwf=/scratch/04843/gwang18/cuo/
 ----------------------------------------------------------------------
 #P ROCCSD(T)=(MaxCyc=150)/Gen SCF=(maxcycle=400) Pseudo=Read Integral(
 NoXCTest) Pop=Regular MaxDisk=500GB Guess=Read IOp(5/15=2)
 ----------------------------------------------------------------------
 1/38=1,172=1/1;
 2/12=2,17=6,18=5,40=1/2;
 3/5=7,11=2,16=1,17=8,25=1,30=1,47=8,116=101/1,2,3;
 4/5=1/1;
 5/5=2,7=400,15=2,38=6/2;
 8/5=-1,6=4,9=120000,10=1/1,4;
 9/5=7,6=150,14=2/13;
 6//1;
 99/5=1,9=1/99;
 Leave Link    1 at Thu Mar 22 15:45:02 2018, MaxMem= 10737418240 cpu:               7.8 elap:               0.3
 (Enter /home1/apps/gaussian/16rA.03/g16/l101.exe)
 ---
 CuO
 ---
 Symbolic Z-matrix:
 Charge =  0 Multiplicity = 2
 Cu                    0.        0.        0. 
 O                     0.        0.        1.6 
 
 ITRead=  0  0
 MicOpt= -1 -1
 NAtoms=      2 NQM=        2 NQMF=       0 NMMI=      0 NMMIF=      0
                NMic=       0 NMicF=      0.
                    Isotopes and Nuclear Properties:
 (Nuclear quadrupole moments (NQMom) in fm**2, nuclear magnetic moments (NMagM)
  in nuclear magnetons)

  Atom         1           2
 IAtWgt=          63          16
 AtmWgt=  62.9295992  15.9949146
 NucSpn=           3           0
 AtZEff=  -0.0000000  -0.0000000
 NQMom=  -22.0000000   0.0000000
 NMagM=    2.2233000   0.0000000
 AtZNuc=  29.0000000   8.0000000
 Leave Link  101 at Thu Mar 22 15:45:03 2018, MaxMem= 10737418240 cpu:               3.1 elap:               0.1
 (Enter /home1/apps/gaussian/16rA.03/g16/l202.exe)
                          Input orientation:                          
 ---------------------------------------------------------------------
 Center     Atomic      Atomic             Coordinates (Angstroms)
 Number     Number       Type             X           Y           Z
 ---------------------------------------------------------------------
      1         29           0        0.000000    0.000000    0.000000
      2          8           0        0.000000    0.000000    1.600000
 ---------------------------------------------------------------------
 Stoichiometry    CuO(2)
 Framework group  C*V[C*(OCu)]
 Deg. of freedom     1
 Full point group                 C*V     NOp   4
 Largest Abelian subgroup         C2V     NOp   4
 Largest concise Abelian subgroup C1      NOp   1
                         Standard orientation:                         
 ---------------------------------------------------------------------
 Center     Atomic      Atomic             Coordinates (Angstroms)
 Number     Number       Type             X           Y           Z
 ---------------------------------------------------------------------
      1         29           0        0.000000    0.000000    0.345946
      2          8           0        0.000000    0.000000   -1.254054
 ---------------------------------------------------------------------
 Rotational constants (GHZ):           0.0000000          15.4793335          15.4793335
 Leave Link  202 at Thu Mar 22 15:45:03 2018, MaxMem= 10737418240 cpu:               0.8 elap:               0.1
 (Enter /home1/apps/gaussian/16rA.03/g16/l301.exe)
 General basis read from cards:  (5D, 7F)
 Centers:       1
 S 1 1.00
     Exponent=  1.9318800000D+08 Coefficients=  1.0000000000D+00
 S 1 1.00
     Exponent=  3.3945200000D+07 Coefficients=  1.0000000000D+00
 S 1 1.00
     Exponent=  7.5104600000D+06 Coefficients=  1.0000000000D+00
 S 1 1.00
     Exponent=  2.0019900000D+06 Coefficients=  1.0000000000D+00
 S 1 1.00
     Exponent=  6.1937800000D+05 Coefficients=  1.0000000000D+00
 S 1 1.00
     Exponent=  2.1560600000D+05 Coefficients=  1.0000000000D+00
 S 1 1.00
     Exponent=  8.2327100000D+04 Coefficients=  1.0000000000D+00
 S 1 1.00
     Exponent=  3.3788400000D+04 Coefficients=  1.0000000000D+00
 S 1 1.00
     Exponent=  1.4670000000D+04 Coefficients=  1.0000000000D+00
 S 1 1.00
     Exponent=  6.6574400000D+03 Coefficients=  1.0000000000D+00
 S 1 1.00
     Exponent=  3.1302600000D+03 Coefficients=  1.0000000000D+00
 S 1 1.00
     Exponent=  1.5156100000D+03 Coefficients=  1.0000000000D+00
 S 1 1.00
     Exponent=  7.5258800000D+02 Coefficients=  1.0000000000D+00
 S 1 1.00
     Exponent=  3.8224900000D+02 Coefficients=  1.0000000000D+00
 S 1 1.00
     Exponent=  1.9823700000D+02 Coefficients=  1.0000000000D+00
 S 1 1.00
     Exponent=  1.0481000000D+02 Coefficients=  1.0000000000D+00
 S 1 1.00
     Exponent=  5.6388500000D+01 Coefficients=  1.0000000000D+00
 S 1 1.00
     Exponent=  3.0783000000D+01 Coefficients=  1.0000000000D+00
 S 1 1.00
     Exponent=  1.6977000000D+01 Coefficients=  1.0000000000D+00
 S 1 1.00
     Exponent=  9.3972500000D+00 Coefficients=  1.0000000000D+00
 S 1 1.00
     Exponent=  5.1723800000D+00 Coefficients=  1.0000000000D+00
 S 1 1.00
     Exponent=  2.7953500000D+00 Coefficients=  1.0000000000D+00
 S 1 1.00
     Exponent=  1.4589000000D+00 Coefficients=  1.0000000000D+00
 S 1 1.00
     Exponent=  7.2871100000D-01 Coefficients=  1.0000000000D+00
 S 1 1.00
     Exponent=  2.3764200000D-01 Coefficients=  1.0000000000D+00
 S 1 1.00
     Exponent=  1.2782100000D-01 Coefficients=  1.0000000000D+00
 S 1 1.00
     Exponent=  6.1815000000D-02 Coefficients=  1.0000000000D+00
 S 1 1.00
     Exponent=  2.9303000000D-02 Coefficients=  1.0000000000D+00
 S 1 1.00
     Exponent=  9.3455000000D+00 Coefficients=  1.0000000000D+00
 S 1 1.00
     Exponent=  3.3051000000D+00 Coefficients=  1.0000000000D+00
 S 1 1.00
     Exponent=  1.3890000000D-02 Coefficients=  1.0000000000D+00
 P 1 1.00
     Exponent=  1.1029400000D+05 Coefficients=  1.0000000000D+00
 P 1 1.00
     Exponent=  2.6939100000D+04 Coefficients=  1.0000000000D+00
 P 1 1.00
     Exponent=  8.5507100000D+03 Coefficients=  1.0000000000D+00
 P 1 1.00
     Exponent=  3.2461900000D+03 Coefficients=  1.0000000000D+00
 P 1 1.00
     Exponent=  1.3884600000D+03 Coefficients=  1.0000000000D+00
 P 1 1.00
     Exponent=  6.4247400000D+02 Coefficients=  1.0000000000D+00
 P 1 1.00
     Exponent=  3.1357000000D+02 Coefficients=  1.0000000000D+00
 P 1 1.00
     Exponent=  1.5916100000D+02 Coefficients=  1.0000000000D+00
 P 1 1.00
     Exponent=  8.3441400000D+01 Coefficients=  1.0000000000D+00
 P 1 1.00
     Exponent=  4.5019600000D+01 Coefficients=  1.0000000000D+00
 P 1 1.00
     Exponent=  2.4889400000D+01 Coefficients=  1.0000000000D+00
 P 1 1.00
     Exponent=  1.3973100000D+01 Coefficients=  1.0000000000D+00
 P 1 1.00
     Exponent=  7.8257100000D+00 Coefficients=  1.0000000000D+00
 P 1 1.00
     Exponent=  4.2863200000D+00 Coefficients=  1.0000000000D+00
 P 1 1.00
     Exponent=  2.2903400000D+00 Coefficients=  1.0000000000D+00
 P 1 1.00
     Exponent=  1.1934200000D+00 Coefficients=  1.0000000000D+00
 P 1 1.00
     Exponent=  5.9376500000D-01 Coefficients=  1.0000000000D+00
 P 1 1.00
     Exponent=  2.2398700000D-01 Coefficients=  1.0000000000D+00
 P 1 1.00
     Exponent=  8.9026000000D-02 Coefficients=  1.0000000000D+00
 P 1 1.00
     Exponent=  3.5213000000D-02 Coefficients=  1.0000000000D+00
 P 1 1.00
     Exponent=  1.4003500000D+01 Coefficients=  1.0000000000D+00
 P 1 1.00
     Exponent=  4.5398000000D+00 Coefficients=  1.0000000000D+00
 P 1 1.00
     Exponent=  1.3930000000D-02 Coefficients=  1.0000000000D+00
 D 1 1.00
     Exponent=  7.3289300000D+02 Coefficients=  1.0000000000D+00
 D 1 1.00
     Exponent=  2.2075300000D+02 Coefficients=  1.0000000000D+00
 D 1 1.00
     Exponent=  8.5626800000D+01 Coefficients=  1.0000000000D+00
 D 1 1.00
     Exponent=  3.7717800000D+01 Coefficients=  1.0000000000D+00
 D 1 1.00
     Exponent=  1.7764700000D+01 Coefficients=  1.0000000000D+00
 D 1 1.00
     Exponent=  8.7641500000D+00 Coefficients=  1.0000000000D+00
 D 1 1.00
     Exponent=  4.4178660000D+00 Coefficients=  1.0000000000D+00
 D 1 1.00
     Exponent=  2.2180390000D+00 Coefficients=  1.0000000000D+00
 D 1 1.00
     Exponent=  1.0935310000D+00 Coefficients=  1.0000000000D+00
 D 1 1.00
     Exponent=  5.2309100000D-01 Coefficients=  1.0000000000D+00
 D 1 1.00
     Exponent=  2.3847500000D-01 Coefficients=  1.0000000000D+00
 D 1 1.00
     Exponent=  1.0002600000D-01 Coefficients=  1.0000000000D+00
 D 1 1.00
     Exponent=  1.0853400000D+01 Coefficients=  1.0000000000D+00
 D 1 1.00
     Exponent=  6.4396000000D+00 Coefficients=  1.0000000000D+00
 D 1 1.00
     Exponent=  4.1950000000D-02 Coefficients=  1.0000000000D+00
 F 1 1.00
     Exponent=  1.6409600000D+01 Coefficients=  1.0000000000D+00
 F 1 1.00
     Exponent=  7.3000000000D+00 Coefficients=  1.0000000000D+00
 F 1 1.00
     Exponent=  3.2475000000D+00 Coefficients=  1.0000000000D+00
 F 1 1.00
     Exponent=  1.4447000000D+00 Coefficients=  1.0000000000D+00
 F 1 1.00
     Exponent=  5.0050000000D-01 Coefficients=  1.0000000000D+00
 F 1 1.00
     Exponent=  1.7339000000D-01 Coefficients=  1.0000000000D+00
 G 1 1.00
     Exponent=  1.1598400000D+01 Coefficients=  1.0000000000D+00
 G 1 1.00
     Exponent=  5.7591000000D+00 Coefficients=  1.0000000000D+00
 G 1 1.00
     Exponent=  2.8596000000D+00 Coefficients=  1.0000000000D+00
 G 1 1.00
     Exponent=  1.1042000000D+00 Coefficients=  1.0000000000D+00
 G 1 1.00
     Exponent=  4.2637000000D-01 Coefficients=  1.0000000000D+00
 H 1 1.00
     Exponent=  1.0031900000D+01 Coefficients=  1.0000000000D+00
 H 1 1.00
     Exponent=  4.8836000000D+00 Coefficients=  1.0000000000D+00
 H 1 1.00
     Exponent=  2.1024000000D+00 Coefficients=  1.0000000000D+00
 H 1 1.00
     Exponent=  9.0509000000D-01 Coefficients=  1.0000000000D+00
 I 1 1.00
     Exponent=  9.9825000000D+00 Coefficients=  1.0000000000D+00
 I 1 1.00
     Exponent=  4.9428000000D+00 Coefficients=  1.0000000000D+00
 I 1 1.00
     Exponent=  2.4474100000D+00 Coefficients=  1.0000000000D+00
 ****
 Centers:       2
 S 1 1.00
     Exponent=  1.6420000000D+05 Coefficients=  1.0000000000D+00
 S 1 1.00
     Exponent=  2.4590000000D+04 Coefficients=  1.0000000000D+00
 S 1 1.00
     Exponent=  5.5920000000D+03 Coefficients=  1.0000000000D+00
 S 1 1.00
     Exponent=  1.5820000000D+03 Coefficients=  1.0000000000D+00
 S 1 1.00
     Exponent=  5.1610000000D+02 Coefficients=  1.0000000000D+00
 S 1 1.00
     Exponent=  7.3930000000D+01 Coefficients=  1.0000000000D+00
 S 1 1.00
     Exponent=  3.1220000000D+01 Coefficients=  1.0000000000D+00
 S 1 1.00
     Exponent=  1.3810000000D+01 Coefficients=  1.0000000000D+00
 S 1 1.00
     Exponent=  6.2560000000D+00 Coefficients=  1.0000000000D+00
 S 1 1.00
     Exponent=  2.7760000000D+00 Coefficients=  1.0000000000D+00
 S 1 1.00
     Exponent=  1.1380000000D+00 Coefficients=  1.0000000000D+00
 S 1 1.00
     Exponent=  4.6000000000D-01 Coefficients=  1.0000000000D+00
 S 1 1.00
     Exponent=  1.8290000000D-01 Coefficients=  1.0000000000D+00
 S 1 1.00
     Exponent=  1.5645000000D+01 Coefficients=  1.0000000000D+00
 S 1 1.00
     Exponent=  3.5874000000D+01 Coefficients=  1.0000000000D+00
 S 1 1.00
     Exponent=  8.2259000000D+01 Coefficients=  1.0000000000D+00
 S 1 1.00
     Exponent=  1.8862000000D+02 Coefficients=  1.0000000000D+00
 S 1 1.00
     Exponent=  6.5500000000D-02 Coefficients=  1.0000000000D+00
 P 1 1.00
     Exponent=  1.9550000000D+02 Coefficients=  1.0000000000D+00
 P 1 1.00
     Exponent=  4.6160000000D+01 Coefficients=  1.0000000000D+00
 P 1 1.00
     Exponent=  1.4580000000D+01 Coefficients=  1.0000000000D+00
 P 1 1.00
     Exponent=  5.2960000000D+00 Coefficients=  1.0000000000D+00
 P 1 1.00
     Exponent=  2.0940000000D+00 Coefficients=  1.0000000000D+00
 P 1 1.00
     Exponent=  8.4710000000D-01 Coefficients=  1.0000000000D+00
 P 1 1.00
     Exponent=  3.3680000000D-01 Coefficients=  1.0000000000D+00
 P 1 1.00
     Exponent=  1.2850000000D-01 Coefficients=  1.0000000000D+00
 P 1 1.00
     Exponent=  1.4049000000D+01 Coefficients=  1.0000000000D+00
 P 1 1.00
     Exponent=  3.5446000000D+01 Coefficients=  1.0000000000D+00
 P 1 1.00
     Exponent=  8.9429000000D+01 Coefficients=  1.0000000000D+00
 P 1 1.00
     Exponent=  2.2563000000D+02 Coefficients=  1.0000000000D+00
 P 1 1.00
     Exponent=  4.4600000000D-02 Coefficients=  1.0000000000D+00
 D 1 1.00
     Exponent=  5.8790000000D+00 Coefficients=  1.0000000000D+00
 D 1 1.00
     Exponent=  2.3070000000D+00 Coefficients=  1.0000000000D+00
 D 1 1.00
     Exponent=  9.0500000000D-01 Coefficients=  1.0000000000D+00
 D 1 1.00
     Exponent=  3.5500000000D-01 Coefficients=  1.0000000000D+00
 D 1 1.00
     Exponent=  1.6703000000D+01 Coefficients=  1.0000000000D+00
 D 1 1.00
     Exponent=  4.7320000000D+01 Coefficients=  1.0000000000D+00
 D 1 1.00
     Exponent=  1.3405600000D+02 Coefficients=  1.0000000000D+00
 D 1 1.00
     Exponent=  1.3100000000D-01 Coefficients=  1.0000000000D+00
 F 1 1.00
     Exponent=  4.0160000000D+00 Coefficients=  1.0000000000D+00
 F 1 1.00
     Exponent=  1.5540000000D+00 Coefficients=  1.0000000000D+00
 F 1 1.00
     Exponent=  6.0100000000D-01 Coefficients=  1.0000000000D+00
 F 1 1.00
     Exponent=  1.7354000000D+01 Coefficients=  1.0000000000D+00
 F 1 1.00
     Exponent=  6.5546000000D+01 Coefficients=  1.0000000000D+00
 F 1 1.00
     Exponent=  2.3700000000D-01 Coefficients=  1.0000000000D+00
 G 1 1.00
     Exponent=  3.3500000000D+00 Coefficients=  1.0000000000D+00
 G 1 1.00
     Exponent=  1.1890000000D+00 Coefficients=  1.0000000000D+00
 G 1 1.00
     Exponent=  4.8578000000D+01 Coefficients=  1.0000000000D+00
 G 1 1.00
     Exponent=  5.1700000000D-01 Coefficients=  1.0000000000D+00
 H 1 1.00
     Exponent=  2.3190000000D+00 Coefficients=  1.0000000000D+00
 H 1 1.00
     Exponent=  1.0240000000D+00 Coefficients=  1.0000000000D+00
 ****
 ======================================================================================================
                                       Pseudopotential Parameters
 ======================================================================================================
  Center     Atomic      Valence      Angular      Power
  Number     Number     Electrons     Momentum     of R      Exponent        Coefficient   SO-Coeffient
 ======================================================================================================
    1         29           19
                                      D and up 
                                                     1        6.2514963       19.00000000    0.00000000
                                                     3        6.7272533      118.77842940    0.00000000
                                                     2        6.6102459     -105.89982403    0.00000000
                                      S - D
                                                     2       12.3656871      127.35069424    0.00000000
                                      P - D
                                                     2       11.1607294       71.22984900    0.00000000
    2          8            6
                                      P and up 
                                                     1        9.2979390        6.00000000    0.00000000
                                                     3        8.8649220       55.78763416    0.00000000
                                                     2        8.6292567      -38.81978498    0.00000000
                                      S - P
                                                     2        8.7192445       38.41914135    0.00000000
 ======================================================================================================
 Ernie: Thresh=  0.10000D-02 Tol=  0.10000D-05 Strict=F.
 There are   310 symmetry adapted cartesian basis functions of A1  symmetry.
 There are    98 symmetry adapted cartesian basis functions of A2  symmetry.
 There are   176 symmetry adapted cartesian basis functions of B1  symmetry.
 There are   176 symmetry adapted cartesian basis functions of B2  symmetry.
 There are   212 symmetry adapted basis functions of A1  symmetry.
 There are    74 symmetry adapted basis functions of A2  symmetry.
 There are   128 symmetry adapted basis functions of B1  symmetry.
 There are   128 symmetry adapted basis functions of B2  symmetry.
   542 basis functions,   760 primitive gaussians,   760 cartesian basis functions
    13 alpha electrons       12 beta electrons
       nuclear repulsion energy        37.7038762780 Hartrees.
 IExCor=    0 DFT=F Ex=HF Corr=None ExCW=0 ScaHFX=  1.000000
 ScaDFX=  1.000000  1.000000  1.000000  1.000000 ScalE2=  1.000000  1.000000
 IRadAn=      5 IRanWt=     -1 IRanGd=            0 ICorTp=0 IEmpDi=  4
 NAtoms=    2 NActive=    2 NUniq=    2 SFac= 1.00D+00 NAtFMM=   60 NAOKFM=F Big=F
 Integral buffers will be    131072 words long.
 Raffenetti 2 integral format.
 Two-electron integral symmetry is turned on.
 Leave Link  301 at Thu Mar 22 15:45:04 2018, MaxMem= 10737418240 cpu:              10.7 elap:               0.4
 (Enter /home1/apps/gaussian/16rA.03/g16/l302.exe)
 NPDir=0 NMtPBC=     1 NCelOv=     1 NCel=       1 NClECP=     1 NCelD=      1
         NCelK=      1 NCelE2=     1 NClLst=     1 CellRange=     0.0.
 One-electron integrals computed using PRISM.
 One-electron integral symmetry used in STVInt
   4 Symmetry operations used in ECPInt.
 ECPInt:  NShTT=    9591 NPrTT=    9591 LenC2=    8585 LenP2D=    8584.
 LDataN:  DoStor=T MaxTD1=12 Len= 1566
 NBasis=   542 RedAO= T EigKep=  3.32D-06  NBF=   212    74   128   128
 NBsUse=   533 1.00D-06 EigRej=  8.31D-07 NBFU=   207    74   126   126
 Leave Link  302 at Thu Mar 22 15:45:14 2018, MaxMem= 10737418240 cpu:             306.5 elap:               9.6
 (Enter /home1/apps/gaussian/16rA.03/g16/l303.exe)
 DipDrv:  MaxL=1.
 Leave Link  303 at Thu Mar 22 15:45:14 2018, MaxMem= 10737418240 cpu:               6.8 elap:               0.3
 (Enter /home1/apps/gaussian/16rA.03/g16/l401.exe)
 Initial guess from the checkpoint file:  "5z.chk"
 B after Tr=     0.000000    0.000000    0.000000
         Rot=    1.000000    0.000000    0.000000    0.000000 Ang=   0.00 deg.
 Guess basis will be translated and rotated to current coordinates.
 JPrj=2 DoOrth=T DoCkMO=T.
 Initial guess orbital symmetries:
       Occupied  (SG) (SG) (PI) (PI) (SG) (?A) (SG) (?A) (DLTA)
                 (DLTA) (?A) (SG) (?A)
       Virtual   (SG) (PI) (PI) (SG) (SG) (PI) (PI) (?B) (?B) (?B)
                 (SG) (PI) (PI) (SG) (SG) (PI) (PI) (PI) (PI) (SG)
                 (?C) (?C) (?C) (PI) (PI) (?D) (?D) (?D) (?D) (PI)
                 (PI) (SG) (PI) (PI) (SG) (?E) (?E) (?E) (?E) (SG)
                 (DLTA) (DLTA) (PI) (PI) (DLTA) (DLTA) (SG) (PI)
                 (PI) (?F) (PHI) (PHI) (?F) (?F) (?F) (PI) (?F)
                 (?F) (PI) (?F) (SG) (PI) (PI) (SG) (PI) (PI) (PI)
                 (SG) (PI) (DLTA) (DLTA) (PHI) (PHI) (PI) (DLTA)
                 (DLTA) (PI) (SG) (PI) (PI) (PHI) (PHI) (?G) (?H)
                 (?H) (?G) (?G) (?H) (?H) (SG) (SG) (?I) (?I) (?I)
                 (?I) (?I) (?I) (?J) (?J) (?J) (PI) (PI) (?J) (?J)
                 (?J) (?J) (?J) (PI) (PI) (SG) (PI) (PI) (SG) (PI)
                 (PI) (SG) (DLTA) (DLTA) (PI) (PI) (SG) (PHI) (PHI)
                 (DLTA) (DLTA) (PI) (PI) (SG) (SG) (?H) (?H) (PHI)
                 (PHI) (DLTA) (DLTA) (?A) (?A) (?H) (?H) (?K) (?K)
                 (PHI) (PHI) (?A) (?A) (DLTA) (DLTA) (SG) (PI)
                 (PI) (SG) (?L) (?L) (?L) (PHI) (PHI) (?L) (?L)
                 (PI) (PI) (?L) (?L) (PHI) (PHI) (?L) (?L) (DLTA)
                 (DLTA) (PI) (PI) (SG) (PI) (PI) (PI) (PI) (SG)
                 (DLTA) (DLTA) (PI) (PI) (SG) (SG) (PHI) (PHI)
                 (DLTA) (DLTA) (PI) (PI) (SG) (?H) (?H) (PHI) (PHI)
                 (SG) (DLTA) (DLTA) (PI) (PI) (SG) (?H) (?H) (?K)
                 (?K) (PHI) (PHI) (DLTA) (DLTA) (PI) (PI) (SG)
                 (PI) (PI) (SG) (DLTA) (DLTA) (PI) (PI) (SG) (SG)
                 (PI) (PI) (SG) (SG) (PHI) (PHI) (DLTA) (DLTA)
                 (PI) (PI) (PI) (PI) (SG) (SG) (DLTA) (DLTA) (PI)
                 (PI) (SG) (?H) (?H) (PHI) (PHI) (DLTA) (DLTA)
                 (DLTA) (DLTA) (PI) (PI) (PI) (PI) (SG) (SG) (?K)
                 (?K) (?H) (?H) (PHI) (PHI) (DLTA) (DLTA) (PI)
                 (PI) (SG) (SG) (PI) (PI) (SG) (PI) (PI) (SG) (SG)
                 (DLTA) (DLTA) (PI) (PI) (SG) (?E) (?E) (?L) (?L)
                 (?E) (?E) (?L) (SG) (PI) (PI) (SG) (DLTA) (DLTA)
                 (PI) (PI) (SG) (SG) (PI) (PI) (SG) (SG) (DLTA)
                 (DLTA) (PI) (PI) (SG) (PI) (PI) (SG) (SG) (DLTA)
                 (DLTA) (PI) (PI) (SG) (PI) (PI) (SG) (SG) (PI)
                 (PI) (SG) (SG) (SG) (PI) (PI) (SG) (PI) (PI) (SG)
                 (DLTA) (DLTA) (PI) (PI) (SG) (SG) (SG) (PI) (PI)
                 (SG) (SG) (DLTA) (DLTA) (PI) (PI) (SG) (SG) (PI)
                 (PI) (SG) (SG) (SG) (PI) (PI) (SG) (SG) (PI) (PI)
                 (SG) (SG) (SG) (PI) (PI) (SG) (SG) (SG) (PI) (PI)
                 (SG) (SG) (SG) (SG) (SG) (SG) (SG) (SG) (DLTA)
                 (SG) (SG) (SG) (SG) (DLTA) (DLTA) (SG) (SG) (SG)
                 (DLTA) (SG) (DLTA) (?H) (SG) (DLTA) (SG) (DLTA)
                 (SG) (SG) (DLTA) (?H) (DLTA) (SG) (?H) (SG) (SG)
                 (DLTA) (SG) (?H) (DLTA) (SG) (DLTA) (SG) (?H)
                 (DLTA) (SG) (DLTA) (SG) (DLTA) (SG) (SG) (?H)
                 (?H) (SG) (?H) (SG) (?H) (SG) (DLTA) (DLTA) (DLTA)
                 (DLTA) (DLTA) (?H) (DLTA) (DLTA) (DLTA) (?H) (DLTA)
                 (?H) (SG) (DLTA) (?H) (DLTA) (DLTA) (?H) (DLTA)
                 (DLTA) (DLTA) (?H) (?H) (SG) (?H) (?H) (SG) (PI)
                 (PI) (PI) (PI) (PI) (PI) (PHI) (PI) (PHI) (PI)
                 (PI) (PHI) (PI) (PHI) (PI) (?K) (PI) (PI) (PHI)
                 (PI) (?K) (PHI) (PI) (PHI) (PI) (PHI) (?K) (PHI)
                 (PHI) (PHI) (PI) (PI) (PHI) (?K) (?K) (?K) (PI)
                 (PI) (PI) (PI) (PI) (PI) (PHI) (PI) (PHI) (PI)
                 (PI) (PHI) (PI) (PHI) (PI) (?K) (PI) (PI) (PHI)
                 (PI) (?K) (PHI) (PI) (PHI) (PI) (PHI) (?K) (PHI)
                 (PHI) (PHI) (PI) (PI) (PHI) (?K) (?K) (?K)
 Leave Link  401 at Thu Mar 22 15:45:17 2018, MaxMem= 10737418240 cpu:              63.3 elap:               2.2
 (Enter /home1/apps/gaussian/16rA.03/g16/l502.exe)
 Integral symmetry usage will be decided dynamically.
 Restricted open shell SCF:
 Using DIIS extrapolation, IDIIS=  1040.
 NGot= 10737418240 LenX= 10736228926 LenY= 10735650566
 Requested convergence on RMS density matrix=1.00D-08 within 400 cycles.
 Requested convergence on MAX density matrix=1.00D-06.
 Requested convergence on             energy=1.00D-06.
 No special actions if energy rises.
 Fock matrices will be formed incrementally for  20 cycles.

 Cycle   1  Pass 1  IDiag  1:
 FoFJK:  IHMeth= 1 ICntrl=       0 DoSepK=F KAlg= 0 I1Cent=           0 FoldK=F
 IRaf= 880000000 NMat=       1 IRICut=       1 DoRegI=T DoRafI=F ISym2E= 1 IDoP0=0 IntGTp=1.
 FoFCou: FMM=F IPFlag=           8 FMFlag=      100000 FMFlg1=           0
         NFxFlg=           0 DoJE=F BraDBF=F KetDBF=F FulRan=T
         wScrn=  0.000000 ICntrl=         0 IOpCl=  1 I1Cent=           0 NGrid=           0
         NMat0=    1 NMatS0=      1 NMatT0=    0 NMatD0=    1 NMtDS0=    0 NMtDT0=    0
 Petite list used in FoFCou.
 E= -211.939427461936    
 DIIS: error= 6.13D-01 at cycle   1 NSaved=   1.
 NSaved= 1 IEnMin= 1 EnMin= -211.939427461936     IErMin= 1 ErrMin= 6.13D-01
 ErrMax= 6.13D-01  0.00D+00 EMaxC= 1.00D-01 BMatC= 6.78D+01 BMatP= 6.78D+01
 IDIUse=3 WtCom= 0.00D+00 WtEn= 1.00D+00
 Coeff-Com:  0.100D+01
 Coeff-En:   0.100D+01
 Coeff:      0.100D+01
 Gap=     0.094 Goal=   None    Shift=    0.000
 GapD=    0.094 DampG=0.500 DampE=0.125 DampFc=0.1250 IDamp=-1.
 Damping current iteration by 1.25D-01
 RMSDP=4.07D-04 MaxDP=3.69D-02              OVMax= 3.37D-03

 Cycle   2  Pass 1  IDiag  1:
 RMSU=  4.99D-05    CP:  9.96D-01
 E= -211.939456321398     Delta-E=       -0.000028859463 Rises=F Damp=T
 DIIS: error= 5.37D-01 at cycle   2 NSaved=   2.
 NSaved= 2 IEnMin= 2 EnMin= -211.939456321398     IErMin= 2 ErrMin= 5.37D-01
 ErrMax= 5.37D-01  0.00D+00 EMaxC= 1.00D-01 BMatC= 5.19D+01 BMatP= 6.78D+01
 IDIUse=3 WtCom= 0.00D+00 WtEn= 1.00D+00
 Coeff-Com: -0.700D+01 0.800D+01
 Coeff-En:   0.000D+00 0.100D+01
 Coeff:      0.000D+00 0.100D+01
 Gap=     0.093 Goal=   None    Shift=    0.000
 RMSDP=3.53D-04 MaxDP=3.23D-02 DE=-2.89D-05 OVMax= 2.64D-03

 Cycle   3  Pass 1  IDiag  1:
 RMSU=  2.47D-04    CP:  9.68D-01  3.00D+00
 E= -211.939664110707     Delta-E=       -0.000207789308 Rises=F Damp=F
 DIIS: error= 1.40D-04 at cycle   3 NSaved=   3.
 NSaved= 3 IEnMin= 3 EnMin= -211.939664110707     IErMin= 3 ErrMin= 1.40D-04
 ErrMax= 1.40D-04  0.00D+00 EMaxC= 1.00D-01 BMatC= 2.38D-06 BMatP= 5.19D+01
 IDIUse=3 WtCom= 9.99D-01 WtEn= 1.40D-03
 Coeff-Com: -0.676D+00 0.773D+00 0.903D+00
 Coeff-En:   0.000D+00 0.000D+00 0.100D+01
 Coeff:     -0.675D+00 0.772D+00 0.904D+00
 Gap=     0.093 Goal=   None    Shift=    0.000
 RMSDP=2.31D-05 MaxDP=2.38D-03 DE=-2.08D-04 OVMax= 2.03D-03

 Cycle   4  Pass 1  IDiag  1:
 RMSU=  1.98D-05    CP:  9.67D-01  3.00D+00  1.05D+00
 E= -211.939665034327     Delta-E=       -0.000000923620 Rises=F Damp=F
 DIIS: error= 8.66D-05 at cycle   4 NSaved=   4.
 NSaved= 4 IEnMin= 4 EnMin= -211.939665034327     IErMin= 4 ErrMin= 8.66D-05
 ErrMax= 8.66D-05  0.00D+00 EMaxC= 1.00D-01 BMatC= 1.19D-06 BMatP= 2.38D-06
 IDIUse=1 WtCom= 1.00D+00 WtEn= 0.00D+00
 Coeff-Com: -0.557D+00 0.637D+00 0.266D+00 0.655D+00
 Coeff:     -0.557D+00 0.637D+00 0.266D+00 0.655D+00
 Gap=     0.093 Goal=   None    Shift=    0.000
 RMSDP=7.24D-06 MaxDP=1.50D-03 DE=-9.24D-07 OVMax= 2.84D-03

 Cycle   5  Pass 1  IDiag  1:
 RMSU=  6.88D-06    CP:  9.67D-01  3.00D+00  1.05D+00  9.02D-01
 E= -211.939664148432     Delta-E=        0.000000885895 Rises=F Damp=F
 DIIS: error= 9.44D-05 at cycle   5 NSaved=   5.
 NSaved= 5 IEnMin= 4 EnMin= -211.939665034327     IErMin= 4 ErrMin= 8.66D-05
 ErrMax= 9.44D-05  0.00D+00 EMaxC= 1.00D-01 BMatC= 1.42D-06 BMatP= 1.19D-06
 IDIUse=1 WtCom= 1.00D+00 WtEn= 0.00D+00
 Coeff-Com: -0.510D+00 0.583D+00-0.740D-01 0.531D+00 0.470D+00
 Coeff:     -0.510D+00 0.583D+00-0.740D-01 0.531D+00 0.470D+00
 Gap=     0.093 Goal=   None    Shift=    0.000
 RMSDP=4.53D-06 MaxDP=9.37D-04 DE= 8.86D-07 OVMax= 1.87D-03

 Cycle   6  Pass 1  IDiag  1:
 RMSU=  2.69D-06    CP:  9.67D-01  3.00D+00  1.05D+00  1.03D+00  6.31D-01
 E= -211.939665675927     Delta-E=       -0.000001527495 Rises=F Damp=F
 DIIS: error= 8.49D-05 at cycle   6 NSaved=   6.
 NSaved= 6 IEnMin= 6 EnMin= -211.939665675927     IErMin= 6 ErrMin= 8.49D-05
 ErrMax= 8.49D-05  0.00D+00 EMaxC= 1.00D-01 BMatC= 6.42D-07 BMatP= 1.19D-06
 IDIUse=1 WtCom= 1.00D+00 WtEn= 0.00D+00
 Coeff-Com: -0.470D+00 0.538D+00-0.994D-01 0.215D+00 0.269D+00 0.548D+00
 Coeff:     -0.470D+00 0.538D+00-0.994D-01 0.215D+00 0.269D+00 0.548D+00
 Gap=     0.093 Goal=   None    Shift=    0.000
 RMSDP=2.38D-06 MaxDP=3.88D-04 DE=-1.53D-06 OVMax= 3.66D-04

 Cycle   7  Pass 1  IDiag  1:
 RMSU=  1.80D-06    CP:  9.67D-01  3.00D+00  1.05D+00  1.10D+00  5.18D-01
                    CP:  9.96D-01
 E= -211.939665886064     Delta-E=       -0.000000210138 Rises=F Damp=F
 DIIS: error= 6.87D-05 at cycle   7 NSaved=   7.
 NSaved= 7 IEnMin= 7 EnMin= -211.939665886064     IErMin= 7 ErrMin= 6.87D-05
 ErrMax= 6.87D-05  0.00D+00 EMaxC= 1.00D-01 BMatC= 4.91D-07 BMatP= 6.42D-07
 IDIUse=1 WtCom= 1.00D+00 WtEn= 0.00D+00
 Coeff-Com: -0.411D+00 0.470D+00-0.718D-01 0.783D-02 0.598D-01 0.220D+00
 Coeff-Com:  0.726D+00
 Coeff:     -0.411D+00 0.470D+00-0.718D-01 0.783D-02 0.598D-01 0.220D+00
 Coeff:      0.726D+00
 Gap=     0.093 Goal=   None    Shift=    0.000
 RMSDP=1.76D-06 MaxDP=3.33D-04 DE=-2.10D-07 OVMax= 9.23D-05

 Cycle   8  Pass 1  IDiag  1:
 RMSU=  1.04D-07    CP:  9.67D-01  3.00D+00  1.05D+00  1.14D+00  4.67D-01
                    CP:  1.34D+00  1.66D+00
 E= -211.939665996686     Delta-E=       -0.000000110622 Rises=F Damp=F
 DIIS: error= 6.00D-05 at cycle   8 NSaved=   8.
 NSaved= 8 IEnMin= 8 EnMin= -211.939665996686     IErMin= 8 ErrMin= 6.00D-05
 ErrMax= 6.00D-05  0.00D+00 EMaxC= 1.00D-01 BMatC= 3.76D-07 BMatP= 4.91D-07
 IDIUse=1 WtCom= 1.00D+00 WtEn= 0.00D+00
 Coeff-Com: -0.343D+00 0.393D+00-0.519D-01-0.691D-01-0.268D-01 0.501D-01
 Coeff-Com:  0.169D+00 0.880D+00
 Coeff:     -0.343D+00 0.393D+00-0.519D-01-0.691D-01-0.268D-01 0.501D-01
 Coeff:      0.169D+00 0.880D+00
 Gap=     0.093 Goal=   None    Shift=    0.000
 RMSDP=2.02D-06 MaxDP=3.83D-04 DE=-1.11D-07 OVMax= 1.08D-04

 Cycle   9  Pass 1  IDiag  1:
 RMSU=  4.85D-08    CP:  9.67D-01  3.00D+00  1.05D+00  1.18D+00  4.07D-01
                    CP:  1.75D+00  2.43D+00  2.06D+00
 E= -211.939666107413     Delta-E=       -0.000000110727 Rises=F Damp=F
 DIIS: error= 5.03D-05 at cycle   9 NSaved=   9.
 NSaved= 9 IEnMin= 9 EnMin= -211.939666107413     IErMin= 9 ErrMin= 5.03D-05
 ErrMax= 5.03D-05  0.00D+00 EMaxC= 1.00D-01 BMatC= 2.62D-07 BMatP= 3.76D-07
 IDIUse=1 WtCom= 1.00D+00 WtEn= 0.00D+00
 Coeff-Com: -0.173D+00 0.198D+00-0.295D-01 0.228D-01 0.402D-01 0.815D-01
 Coeff-Com: -0.745D+00-0.107D+01 0.268D+01
 Coeff:     -0.173D+00 0.198D+00-0.295D-01 0.228D-01 0.402D-01 0.815D-01
 Coeff:     -0.745D+00-0.107D+01 0.268D+01
 Gap=     0.093 Goal=   None    Shift=    0.000
 RMSDP=5.05D-06 MaxDP=9.52D-04 DE=-1.11D-07 OVMax= 2.69D-04

 Cycle  10  Pass 1  IDiag  1:
 RMSU=  2.49D-06    CP:  9.67D-01  3.00D+00  1.05D+00  1.29D+00  2.45D-01
                    CP:  2.74D+00  3.00D+00  3.00D+00  2.80D+00
 E= -211.939666296878     Delta-E=       -0.000000189465 Rises=F Damp=F
 DIIS: error= 2.52D-05 at cycle  10 NSaved=  10.
 NSaved=10 IEnMin=10 EnMin= -211.939666296878     IErMin=10 ErrMin= 2.52D-05
 ErrMax= 2.52D-05  0.00D+00 EMaxC= 1.00D-01 BMatC= 6.67D-08 BMatP= 2.62D-07
 IDIUse=1 WtCom= 1.00D+00 WtEn= 0.00D+00
 Coeff-Com: -0.498D-01 0.569D-01-0.103D-01 0.302D-01 0.347D-01 0.560D-01
 Coeff-Com: -0.353D+00-0.824D+00 0.826D+00 0.123D+01
 Coeff:     -0.498D-01 0.569D-01-0.103D-01 0.302D-01 0.347D-01 0.560D-01
 Coeff:     -0.353D+00-0.824D+00 0.826D+00 0.123D+01
 Gap=     0.093 Goal=   None    Shift=    0.000
 RMSDP=3.67D-06 MaxDP=6.96D-04 DE=-1.89D-07 OVMax= 1.96D-04

 Cycle  11  Pass 1  IDiag  1:
 RMSU=  1.28D-06    CP:  9.67D-01  3.00D+00  1.05D+00  1.37D+00  1.33D-01
                    CP:  3.00D+00  3.00D+00  3.00D+00  3.00D+00  2.03D+00
 E= -211.939666356368     Delta-E=       -0.000000059490 Rises=F Damp=F
 DIIS: error= 7.35D-06 at cycle  11 NSaved=  11.
 NSaved=11 IEnMin=11 EnMin= -211.939666356368     IErMin=11 ErrMin= 7.35D-06
 ErrMax= 7.35D-06  0.00D+00 EMaxC= 1.00D-01 BMatC= 5.52D-09 BMatP= 6.67D-08
 IDIUse=1 WtCom= 1.00D+00 WtEn= 0.00D+00
 Coeff-Com: -0.363D-01 0.415D-01-0.590D-02-0.695D-02-0.160D-02 0.143D-01
 Coeff-Com:  0.171D+00 0.192D+00-0.708D+00 0.472D+00 0.868D+00
 Coeff:     -0.363D-01 0.415D-01-0.590D-02-0.695D-02-0.160D-02 0.143D-01
 Coeff:      0.171D+00 0.192D+00-0.708D+00 0.472D+00 0.868D+00
 Gap=     0.093 Goal=   None    Shift=    0.000
 RMSDP=4.12D-07 MaxDP=7.70D-05 DE=-5.95D-08 OVMax= 2.30D-05

 Cycle  12  Pass 1  IDiag  1:
 RMSU=  1.82D-08    CP:  9.67D-01  3.00D+00  1.05D+00  1.38D+00  1.19D-01
                    CP:  3.00D+00  3.00D+00  3.00D+00  3.00D+00  2.14D+00
                    CP:  1.17D+00
 E= -211.939666358928     Delta-E=       -0.000000002560 Rises=F Damp=F
 DIIS: error= 5.31D-06 at cycle  12 NSaved=  12.
 NSaved=12 IEnMin=12 EnMin= -211.939666358928     IErMin=12 ErrMin= 5.31D-06
 ErrMax= 5.31D-06  0.00D+00 EMaxC= 1.00D-01 BMatC= 2.91D-09 BMatP= 5.52D-09
 IDIUse=1 WtCom= 1.00D+00 WtEn= 0.00D+00
 Coeff-Com: -0.146D-01 0.167D-01-0.187D-02-0.111D-01-0.855D-02-0.269D-02
 Coeff-Com:  0.174D+00 0.285D+00-0.645D+00 0.126D-01 0.534D+00 0.661D+00
 Coeff:     -0.146D-01 0.167D-01-0.187D-02-0.111D-01-0.855D-02-0.269D-02
 Coeff:      0.174D+00 0.285D+00-0.645D+00 0.126D-01 0.534D+00 0.661D+00
 Gap=     0.093 Goal=   None    Shift=    0.000
 RMSDP=6.37D-07 MaxDP=1.20D-04 DE=-2.56D-09 OVMax= 3.44D-05

 Cycle  13  Pass 1  IDiag  1:
 RMSU=  1.05D-08    CP:  9.67D-01  3.00D+00  1.05D+00  1.39D+00  9.90D-02
                    CP:  3.00D+00  3.00D+00  3.00D+00  3.00D+00  2.32D+00
                    CP:  1.43D+00  1.37D+00
 E= -211.939666361299     Delta-E=       -0.000000002371 Rises=F Damp=F
 DIIS: error= 2.12D-06 at cycle  13 NSaved=  13.
 NSaved=13 IEnMin=13 EnMin= -211.939666361299     IErMin=13 ErrMin= 2.12D-06
 ErrMax= 2.12D-06  0.00D+00 EMaxC= 1.00D-01 BMatC= 4.71D-10 BMatP= 2.91D-09
 IDIUse=1 WtCom= 1.00D+00 WtEn= 0.00D+00
 Coeff-Com: -0.232D-02 0.265D-02-0.122D-03-0.387D-02-0.345D-02-0.380D-02
 Coeff-Com:  0.325D-01 0.748D-01-0.118D+00-0.101D+00 0.235D-01 0.180D+00
 Coeff-Com:  0.919D+00
 Coeff:     -0.232D-02 0.265D-02-0.122D-03-0.387D-02-0.345D-02-0.380D-02
 Coeff:      0.325D-01 0.748D-01-0.118D+00-0.101D+00 0.235D-01 0.180D+00
 Coeff:      0.919D+00
 Gap=     0.093 Goal=   None    Shift=    0.000
 RMSDP=3.63D-07 MaxDP=6.88D-05 DE=-2.37D-09 OVMax= 1.94D-05

 Cycle  14  Pass 1  IDiag  1:
 RMSU=  2.52D-09    CP:  9.67D-01  3.00D+00  1.05D+00  1.40D+00  8.78D-02
                    CP:  3.00D+00  3.00D+00  3.00D+00  3.00D+00  2.42D+00
                    CP:  1.58D+00  1.67D+00  1.20D+00
 E= -211.939666361743     Delta-E=       -0.000000000444 Rises=F Damp=F
 DIIS: error= 3.42D-07 at cycle  14 NSaved=  14.
 NSaved=14 IEnMin=14 EnMin= -211.939666361743     IErMin=14 ErrMin= 3.42D-07
 ErrMax= 3.42D-07  0.00D+00 EMaxC= 1.00D-01 BMatC= 1.21D-11 BMatP= 4.71D-10
 IDIUse=1 WtCom= 1.00D+00 WtEn= 0.00D+00
 Coeff-Com: -0.925D-03 0.106D-02-0.145D-03 0.531D-03 0.524D-03 0.746D-04
 Coeff-Com: -0.233D-01-0.178D-01 0.807D-01-0.337D-01-0.923D-01-0.808D-01
 Coeff-Com:  0.136D+00 0.103D+01
 Coeff:     -0.925D-03 0.106D-02-0.145D-03 0.531D-03 0.524D-03 0.746D-04
 Coeff:     -0.233D-01-0.178D-01 0.807D-01-0.337D-01-0.923D-01-0.808D-01
 Coeff:      0.136D+00 0.103D+01
 Gap=     0.093 Goal=   None    Shift=    0.000
 RMSDP=4.10D-08 MaxDP=7.75D-06 DE=-4.44D-10 OVMax= 2.21D-06

 Cycle  15  Pass 1  IDiag  1:
 RMSU=  8.31D-10    CP:  9.67D-01  3.00D+00  1.05D+00  1.40D+00  8.65D-02
                    CP:  3.00D+00  3.00D+00  3.00D+00  3.00D+00  2.43D+00
                    CP:  1.60D+00  1.69D+00  1.26D+00  1.02D+00
 E= -211.939666361752     Delta-E=       -0.000000000010 Rises=F Damp=F
 DIIS: error= 1.37D-07 at cycle  15 NSaved=  15.
 NSaved=15 IEnMin=15 EnMin= -211.939666361752     IErMin=15 ErrMin= 1.37D-07
 ErrMax= 1.37D-07  0.00D+00 EMaxC= 1.00D-01 BMatC= 1.95D-12 BMatP= 1.21D-11
 IDIUse=1 WtCom= 1.00D+00 WtEn= 0.00D+00
 Coeff-Com: -0.163D-02 0.186D-02-0.282D-03 0.107D-03 0.290D-03 0.874D-03
 Coeff-Com: -0.139D-02 0.652D-02-0.554D-02 0.160D-01 0.140D-01-0.295D-01
 Coeff-Com: -0.135D+00-0.254D+00 0.139D+01
 Coeff:     -0.163D-02 0.186D-02-0.282D-03 0.107D-03 0.290D-03 0.874D-03
 Coeff:     -0.139D-02 0.652D-02-0.554D-02 0.160D-01 0.140D-01-0.295D-01
 Coeff:     -0.135D+00-0.254D+00 0.139D+01
 Gap=     0.093 Goal=   None    Shift=    0.000
 RMSDP=2.02D-08 MaxDP=3.83D-06 DE=-9.55D-12 OVMax= 1.10D-06

 Cycle  16  Pass 1  IDiag  1:
 RMSU=  4.92D-10    CP:  9.67D-01  3.00D+00  1.05D+00  1.40D+00  8.71D-02
                    CP:  3.00D+00  3.00D+00  3.00D+00  3.00D+00  2.43D+00
                    CP:  1.59D+00  1.68D+00  1.23D+00  1.02D+00  1.31D+00
 E= -211.939666361749     Delta-E=        0.000000000003 Rises=F Damp=F
 DIIS: error= 2.38D-07 at cycle  16 NSaved=  16.
 NSaved=16 IEnMin=15 EnMin= -211.939666361752     IErMin=15 ErrMin= 1.37D-07
 ErrMax= 2.38D-07  0.00D+00 EMaxC= 1.00D-01 BMatC= 5.86D-12 BMatP= 1.95D-12
 IDIUse=1 WtCom= 1.00D+00 WtEn= 0.00D+00
 Large coefficients: NSaved= 16 BigCof=    0.00 CofMax=   10.00 Det=-9.17D-15
 Inversion failed.  Reducing to 15 matrices.
 Coeff-Com:  0.104D-10-0.536D-05 0.540D-05 0.111D-04 0.804D-04 0.112D-02
 Coeff-Com:  0.245D-02-0.124D-01 0.726D-02 0.137D-01 0.310D-02-0.500D-01
 Coeff-Com: -0.215D+00 0.286D+00 0.964D+00
 Coeff:      0.104D-10-0.536D-05 0.540D-05 0.111D-04 0.804D-04 0.112D-02
 Coeff:      0.245D-02-0.124D-01 0.726D-02 0.137D-01 0.310D-02-0.500D-01
 Coeff:     -0.215D+00 0.286D+00 0.964D+00
 Gap=     0.093 Goal=   None    Shift=    0.000
 RMSDP=4.80D-08 MaxDP=9.07D-06 DE= 2.98D-12 OVMax= 2.57D-06

 Cycle  17  Pass 1  IDiag  1:
 RMSU=  1.96D-10    CP:  9.67D-01  3.00D+00  1.05D+00  1.40D+00  8.55D-02
                    CP:  3.00D+00  3.00D+00  3.00D+00  3.00D+00  2.44D+00
                    CP:  1.61D+00  1.72D+00  1.28D+00  1.07D+00  1.50D+00
                    CP:  1.05D+00
 E= -211.939666361755     Delta-E=       -0.000000000006 Rises=F Damp=F
 DIIS: error= 8.48D-09 at cycle  17 NSaved=  16.
 NSaved=16 IEnMin=16 EnMin= -211.939666361755     IErMin=16 ErrMin= 8.48D-09
 ErrMax= 8.48D-09  0.00D+00 EMaxC= 1.00D-01 BMatC= 6.98D-15 BMatP= 1.95D-12
 IDIUse=1 WtCom= 1.00D+00 WtEn= 0.00D+00
 Large coefficients: NSaved= 16 BigCof=    0.00 CofMax=   10.00 Det=-3.04D-15
 Inversion failed.  Reducing to 15 matrices.
 Coeff-Com:  0.137D-04-0.277D-03-0.253D-03-0.219D-03 0.458D-02 0.569D-02
 Coeff-Com: -0.180D-01-0.204D-03 0.127D-01 0.247D-01 0.626D-03-0.382D-01
 Coeff-Com: -0.433D+00 0.687D+00 0.755D+00
 Coeff:      0.137D-04-0.277D-03-0.253D-03-0.219D-03 0.458D-02 0.569D-02
 Coeff:     -0.180D-01-0.204D-03 0.127D-01 0.247D-01 0.626D-03-0.382D-01
 Coeff:     -0.433D+00 0.687D+00 0.755D+00
 Gap=     0.093 Goal=   None    Shift=    0.000
 RMSDP=2.62D-10 MaxDP=3.70D-08 DE=-5.94D-12 OVMax= 1.09D-07

 SCF Done:  E(ROHF) =  -211.939666362     A.U. after   17 cycles
            NFock= 17  Conv=0.26D-09     -V/T= 2.5434
 <Sx>= 0.0000 <Sy>= 0.0000 <Sz>= 0.5000 <S**2>= 0.7500 S= 0.5000
 <L.S>=  0.00000000000    
 KE= 1.373171404305D+02 PE=-5.964808006280D+02 EE= 2.095201175577D+02
 Annihilation of the first spin contaminant:
 S**2 before annihilation     0.7500,   after     0.7500
 Leave Link  502 at Thu Mar 22 16:12:22 2018, MaxMem= 10737418240 cpu:           51960.8 elap:            1625.0
 (Enter /home1/apps/gaussian/16rA.03/g16/l801.exe)
 Windowed orbitals will be sorted by symmetry type.
 GenMOA:  NOpAll=  4 NOp2=4 NOpUse=  4 JSym2X=1
 FoFJK:  IHMeth= 1 ICntrl=       0 DoSepK=F KAlg= 0 I1Cent=           0 FoldK=F
 IRaf=         0 NMat=       1 IRICut=       1 DoRegI=T DoRafI=F ISym2E= 1 IDoP0=0 IntGTp=1.
 FoFCou: FMM=F IPFlag=           8 FMFlag=      100000 FMFlg1=           0
         NFxFlg=           0 DoJE=F BraDBF=F KetDBF=F FulRan=T
         wScrn=  0.000000 ICntrl=         0 IOpCl=  1 I1Cent=           0 NGrid=           0
         NMat0=    1 NMatS0=      1 NMatT0=    0 NMatD0=    1 NMtDS0=    0 NMtDT0=    0
 Petite list used in FoFCou.
 <Sx>= 0.0000 <Sy>= 0.0000 <Sz>= 0.5000 <S**2>= 0.7500 S= 0.5000
 ExpMin= 1.39D-02 ExpMax= 1.93D+08 ExpMxC= 1.93D+08 IAcc=4 IRadAn=    399590 AccDes= 0.00D+00
 HarFok:  IExCor=  205 AccDes= 0.00D+00 IRadAn=    399590 IDoV=-2 UseB2=F ITyADJ=14
 ICtDFT= 12500011 ScaDFX=  1.000000  1.000000  1.000000  1.000000
 Spurious integrated density or basis function:
 NE=   25 NElCor=    0 El error=3.36D-09 rel=9.09D-11 Tolerance=1.00D-03
 Shell     1     absolute error=5.71D-02              Tolerance=1.20D-02
 Shell     1       signed error=5.71D-02              Tolerance=1.00D-01
 Largest valence mixing into a core orbital is  8.58D-04
 Largest core mixing into a valence orbital is  2.49D-04
 Largest valence mixing into a core orbital is  8.41D-04
 Largest core mixing into a valence orbital is  2.31D-04
 Range of M.O.s used for correlation:     5   533
 NBasis=   542 NAE=    13 NBE=    12 NFC=     4 NFV=     0
 NROrb=    529 NOA=     9 NOB=     8 NVA=   520 NVB=   521

 **** Warning!!: The largest alpha MO coefficient is  0.20265873D+03


 **** Warning!!: The largest beta MO coefficient is  0.20265874D+03

 Singles contribution to E2=   -0.3723922171D-02
 Leave Link  801 at Thu Mar 22 16:14:00 2018, MaxMem= 10737418240 cpu:            3122.7 elap:              97.6
 (Enter /home1/apps/gaussian/16rA.03/g16/l804.exe)
 Open-shell transformation, MDV= 10737418240 ITran=4 ISComp=2.
 Unit  1 TFree=      20540198 TCopy=       6236979.
 Semi-Direct transformation.
 ModeAB=           4 MOrb=             9 LenV=   10729095841
 LASXX=    166209794 LTotXX=   166209794 LenRXX=   333547019
 LTotAB=   167337225 MaxLAS=  1327976208 LenRXY=           0
 NonZer=   499756813 LenScr=   752575488 LnRSAI=  1327976208
 LnScr1=  1999776768 LExtra=    34514676 Total=   4448390159
 MaxDsk= 67108864000 SrtSym=           T ITran=            4
 DoSDTr:  NPSUse= 32
 JobTyp=1 Pass  1:  I=   1 to   9.
 (rs|ai) integrals will be sorted in core.
 Complete sort for first half transformation.
 First half transformation complete.
 Complete sort for second half transformation.
 Second half transformation complete.
 ModeAB=           4 MOrb=             8 LenV=   10729095841
 LASXX=    148068229 LTotXX=   148068229 LenRXX=   292103061
 LTotAB=   144034832 MaxLAS=  1180423296 LenRXY=           0
 NonZer=   440171290 LenScr=   662846464 LnRSAI=  1180423296
 LnScr1=  1777579008 LExtra=   368061695 Total=   4281013524
 MaxDsk= 67108864000 SrtSym=           T ITran=            4
 DoSDTr:  NPSUse= 32
 JobTyp=2 Pass  1:  I=   1 to   8.
 (rs|ai) integrals will be sorted in core.
 Complete sort for first half transformation.
 First half transformation complete.
 Complete sort for second half transformation.
 Second half transformation complete.
 Spin components of T(2) and E(2):
     alpha-alpha T2 =       0.2782976125D-01 E2=     -0.1419101462D+00
     alpha-beta  T2 =       0.1123153506D+00 E2=     -0.5753719865D+00
     beta-beta   T2 =       0.2510600803D-01 E2=     -0.1255632135D+00
 ANorm=    0.1080252414D+01
 E2 =    -0.8465692683D+00 EUMP2 =    -0.21278623563008D+03
 (S**2,0)=  0.75000D+00           (S**2,1)=  0.75000D+00
 E(PUHF)=      -0.21193966636D+03        E(PMP2)=      -0.21278623563D+03
 Leave Link  804 at Thu Mar 22 17:00:18 2018, MaxMem= 10737418240 cpu:           88836.9 elap:            2777.3
 (Enter /home1/apps/gaussian/16rA.03/g16/l913.exe)
 CIDS:  MDV= 10737418240.
 Frozen-core window:  NFC=   4 NFV=   0.
 IFCWin=0 IBDFC=1 NFBD=     0     0 NFCmp=     0     0 NFFFC=     0     0
 Using original routines for 1st iteration.
 Using DD4UQ or CC4UQ for 2nd and later iterations.
 Two-electron integrals replicated using symmetry.
 CIDS: In Core Option IDoMem=           1.
 CCSD(T)
 =======
 Iterations= 150 Convergence= 0.100D-06
 Produce multiple copies of IABC intergrals
 Iteration Nr.   1
 **********************
 DD1Dir will call FoFJK   4 times, MxPair=        52
 NAB=    72 NAA=    36 NBB=    28 NumPrc= 32.
 DD1Dir:  Pass   1 NRAB=    26 NRAA=     0 NRBB=     0 NR=    52.
 FoFJK:  IHMeth= 1 ICntrl=     200 DoSepK=F KAlg= 0 I1Cent=           0 FoldK=F
 IRaf= 880000000 NMat=      52 IRICut=       2 DoRegI=F DoRafI=T ISym2E=-1 IDoP0=3 IntGTp=3.
 DD1Dir:  Pass   2 NRAB=    26 NRAA=     0 NRBB=     0 NR=    52.
 DD1Dir:  Pass   3 NRAB=    20 NRAA=    12 NRBB=     0 NR=    52.
 DD1Dir:  Pass   4 NRAB=     0 NRAA=    24 NRBB=    28 NR=    52.
 DD1Dir will call FoFJK   4 times, MxPair=        52
 NAB=    72 NAA=    36 NBB=    28 NumPrc= 32.
 DD1Dir:  Pass   1 NRAB=    26 NRAA=     0 NRBB=     0 NR=    52.
 DD1Dir:  Pass   2 NRAB=    26 NRAA=     0 NRBB=     0 NR=    52.
 DD1Dir:  Pass   3 NRAB=    20 NRAA=    12 NRBB=     0 NR=    52.
 DD1Dir:  Pass   4 NRAB=     0 NRAA=    24 NRBB=    28 NR=    52.
 MP4(R+Q)= -0.11614414D+00
 Maximum subspace dimension=  5
 A-vector RMS=  1.1096065D-04 Max=  2.5437339D-03 conv= 1.00D-05.
 RLE energy=       -0.8420761101
 E3=        0.12056418D+00        EROMP3=      -0.21266567145D+03
 E4(SDQ)=  -0.74268171D-01        ROMP4(SDQ)=  -0.21273993962D+03
 VARIATIONAL ENERGIES WITH THE FIRST-ORDER WAVEFUNCTION:
 DE(Corr)= -0.84205158     E(Corr)=     -212.78171794    
 NORM(A)=   0.10784810D+01
 Iteration Nr.   2
 **********************
 DD1Dir will call FoFJK   4 times, MxPair=        52
 NAB=    72 NAA=    36 NBB=    28 NumPrc= 32.
 DD1Dir:  Pass   1 NRAB=    26 NRAA=     0 NRBB=     0 NR=    52.
 DD1Dir:  Pass   2 NRAB=    26 NRAA=     0 NRBB=     0 NR=    52.
 DD1Dir:  Pass   3 NRAB=    20 NRAA=    12 NRBB=     0 NR=    52.
 DD1Dir:  Pass   4 NRAB=     0 NRAA=    24 NRBB=    28 NR=    52.
 A-vector RMS=  3.8249883D-03 Max=  4.8183093D-02 conv= 1.00D-05.
 RLE energy=       -0.8204507658
 DE(Corr)= -0.71586107     E(CORR)=     -212.65552743     Delta= 1.26D-01
 NORM(A)=   0.10736189D+01
 Iteration Nr.   3
 **********************
 DD1Dir will call FoFJK   4 times, MxPair=        52
 NAB=    72 NAA=    36 NBB=    28 NumPrc= 32.
 DD1Dir:  Pass   1 NRAB=    26 NRAA=     0 NRBB=     0 NR=    52.
 DD1Dir:  Pass   2 NRAB=    26 NRAA=     0 NRBB=     0 NR=    52.
 DD1Dir:  Pass   3 NRAB=    20 NRAA=    12 NRBB=     0 NR=    52.
 DD1Dir:  Pass   4 NRAB=     0 NRAA=    24 NRBB=    28 NR=    52.
 A-vector RMS=  2.8412031D-03 Max=  3.7245316D-02 conv= 1.00D-05.
 RLE energy=       -0.7988594829
 DE(Corr)= -0.72742884     E(CORR)=     -212.66709520     Delta=-1.16D-02
 NORM(A)=   0.10727692D+01
 Iteration Nr.   4
 **********************
 DD1Dir will call FoFJK   4 times, MxPair=        52
 NAB=    72 NAA=    36 NBB=    28 NumPrc= 32.
 DD1Dir:  Pass   1 NRAB=    26 NRAA=     0 NRBB=     0 NR=    52.
 DD1Dir:  Pass   2 NRAB=    26 NRAA=     0 NRBB=     0 NR=    52.
 DD1Dir:  Pass   3 NRAB=    20 NRAA=    12 NRBB=     0 NR=    52.
 DD1Dir:  Pass   4 NRAB=     0 NRAA=    24 NRBB=    28 NR=    52.
 A-vector RMS=  2.3016861D-03 Max=  3.2557931D-02 conv= 1.00D-05.
 RLE energy=       -0.6231257828
 DE(Corr)= -0.73994027     E(CORR)=     -212.67960663     Delta=-1.25D-02
 NORM(A)=   0.12063275D+01
 Iteration Nr.   5
 **********************
 DD1Dir will call FoFJK   4 times, MxPair=        52
 NAB=    72 NAA=    36 NBB=    28 NumPrc= 32.
 DD1Dir:  Pass   1 NRAB=    26 NRAA=     0 NRBB=     0 NR=    52.
 DD1Dir:  Pass   2 NRAB=    26 NRAA=     0 NRBB=     0 NR=    52.
 DD1Dir:  Pass   3 NRAB=    20 NRAA=    12 NRBB=     0 NR=    52.
 DD1Dir:  Pass   4 NRAB=     0 NRAA=    24 NRBB=    28 NR=    52.
 A-vector RMS=  7.5827111D-03 Max=  8.7545390D-02 conv= 1.00D-05.
 RLE energy=       -0.7772901836
 DE(Corr)= -0.87755147     E(CORR)=     -212.81721783     Delta=-1.38D-01
 NORM(A)=   0.11202510D+01
 Iteration Nr.   6
 **********************
 DD1Dir will call FoFJK   4 times, MxPair=        52
 NAB=    72 NAA=    36 NBB=    28 NumPrc= 32.
 DD1Dir:  Pass   1 NRAB=    26 NRAA=     0 NRBB=     0 NR=    52.
 DD1Dir:  Pass   2 NRAB=    26 NRAA=     0 NRBB=     0 NR=    52.
 DD1Dir:  Pass   3 NRAB=    20 NRAA=    12 NRBB=     0 NR=    52.
 DD1Dir:  Pass   4 NRAB=     0 NRAA=    24 NRBB=    28 NR=    52.
 A-vector RMS=  1.0915972D-03 Max=  1.7012043D-02 conv= 1.00D-05.
 RLE energy=       -0.7754048724
 DE(Corr)= -0.76769116     E(CORR)=     -212.70735752     Delta= 1.10D-01
 NORM(A)=   0.11165124D+01
 Iteration Nr.   7
 **********************
 DD1Dir will call FoFJK   4 times, MxPair=        52
 NAB=    72 NAA=    36 NBB=    28 NumPrc= 32.
 DD1Dir:  Pass   1 NRAB=    26 NRAA=     0 NRBB=     0 NR=    52.
 DD1Dir:  Pass   2 NRAB=    26 NRAA=     0 NRBB=     0 NR=    52.
 DD1Dir:  Pass   3 NRAB=    20 NRAA=    12 NRBB=     0 NR=    52.
 DD1Dir:  Pass   4 NRAB=     0 NRAA=    24 NRBB=    28 NR=    52.
 A-vector RMS=  3.3792123D-04 Max=  4.8271208D-03 conv= 1.00D-05.
 RLE energy=       -0.7708746994
 DE(Corr)= -0.76821002     E(CORR)=     -212.70787638     Delta=-5.19D-04
 NORM(A)=   0.11186782D+01
 Iteration Nr.   8
 **********************
 DD1Dir will call FoFJK   4 times, MxPair=        52
 NAB=    72 NAA=    36 NBB=    28 NumPrc= 32.
 DD1Dir:  Pass   1 NRAB=    26 NRAA=     0 NRBB=     0 NR=    52.
 DD1Dir:  Pass   2 NRAB=    26 NRAA=     0 NRBB=     0 NR=    52.
 DD1Dir:  Pass   3 NRAB=    20 NRAA=    12 NRBB=     0 NR=    52.
 DD1Dir:  Pass   4 NRAB=     0 NRAA=    24 NRBB=    28 NR=    52.
 A-vector RMS=  1.9324874D-04 Max=  2.7736098D-03 conv= 1.00D-05.
 RLE energy=       -0.7706474604
 DE(Corr)= -0.77101111     E(CORR)=     -212.71067747     Delta=-2.80D-03
 NORM(A)=   0.11206801D+01
 Iteration Nr.   9
 **********************
 DD1Dir will call FoFJK   4 times, MxPair=        52
 NAB=    72 NAA=    36 NBB=    28 NumPrc= 32.
 DD1Dir:  Pass   1 NRAB=    26 NRAA=     0 NRBB=     0 NR=    52.
 DD1Dir:  Pass   2 NRAB=    26 NRAA=     0 NRBB=     0 NR=    52.
 DD1Dir:  Pass   3 NRAB=    20 NRAA=    12 NRBB=     0 NR=    52.
 DD1Dir:  Pass   4 NRAB=     0 NRAA=    24 NRBB=    28 NR=    52.
 A-vector RMS=  9.8409135D-05 Max=  1.3553569D-03 conv= 1.00D-05.
 RLE energy=       -0.7709918965
 DE(Corr)= -0.77103083     E(CORR)=     -212.71069719     Delta=-1.97D-05
 NORM(A)=   0.11221575D+01
 Iteration Nr.  10
 **********************
 DD1Dir will call FoFJK   4 times, MxPair=        52
 NAB=    72 NAA=    36 NBB=    28 NumPrc= 32.
 DD1Dir:  Pass   1 NRAB=    26 NRAA=     0 NRBB=     0 NR=    52.
 DD1Dir:  Pass   2 NRAB=    26 NRAA=     0 NRBB=     0 NR=    52.
 DD1Dir:  Pass   3 NRAB=    20 NRAA=    12 NRBB=     0 NR=    52.
 DD1Dir:  Pass   4 NRAB=     0 NRAA=    24 NRBB=    28 NR=    52.
 A-vector RMS=  5.0369559D-05 Max=  6.5959766D-04 conv= 1.00D-05.
 RLE energy=       -0.7711547811
 DE(Corr)= -0.77102267     E(CORR)=     -212.71068903     Delta= 8.17D-06
 NORM(A)=   0.11230627D+01
 Iteration Nr.  11
 **********************
 DD1Dir will call FoFJK   4 times, MxPair=        52
 NAB=    72 NAA=    36 NBB=    28 NumPrc= 32.
 DD1Dir:  Pass   1 NRAB=    26 NRAA=     0 NRBB=     0 NR=    52.
 DD1Dir:  Pass   2 NRAB=    26 NRAA=     0 NRBB=     0 NR=    52.
 DD1Dir:  Pass   3 NRAB=    20 NRAA=    12 NRBB=     0 NR=    52.
 DD1Dir:  Pass   4 NRAB=     0 NRAA=    24 NRBB=    28 NR=    52.
 A-vector RMS=  2.7687819D-05 Max=  4.7920816D-04 conv= 1.00D-05.
 RLE energy=       -0.7710583101
 DE(Corr)= -0.77109689     E(CORR)=     -212.71076325     Delta=-7.42D-05
 NORM(A)=   0.11231045D+01
 Iteration Nr.  12
 **********************
 DD1Dir will call FoFJK   4 times, MxPair=        52
 NAB=    72 NAA=    36 NBB=    28 NumPrc= 32.
 DD1Dir:  Pass   1 NRAB=    26 NRAA=     0 NRBB=     0 NR=    52.
 DD1Dir:  Pass   2 NRAB=    26 NRAA=     0 NRBB=     0 NR=    52.
 DD1Dir:  Pass   3 NRAB=    20 NRAA=    12 NRBB=     0 NR=    52.
 DD1Dir:  Pass   4 NRAB=     0 NRAA=    24 NRBB=    28 NR=    52.
 A-vector RMS=  1.6618223D-05 Max=  2.7370822D-04 conv= 1.00D-05.
 RLE energy=       -0.7711613329
 DE(Corr)= -0.77113620     E(CORR)=     -212.71080256     Delta=-3.93D-05
 NORM(A)=   0.11230868D+01
 Iteration Nr.  13
 **********************
 DD1Dir will call FoFJK   4 times, MxPair=        52
 NAB=    72 NAA=    36 NBB=    28 NumPrc= 32.
 DD1Dir:  Pass   1 NRAB=    26 NRAA=     0 NRBB=     0 NR=    52.
 DD1Dir:  Pass   2 NRAB=    26 NRAA=     0 NRBB=     0 NR=    52.
 DD1Dir:  Pass   3 NRAB=    20 NRAA=    12 NRBB=     0 NR=    52.
 DD1Dir:  Pass   4 NRAB=     0 NRAA=    24 NRBB=    28 NR=    52.
 A-vector RMS=  1.1824056D-05 Max=  1.2967515D-04 conv= 1.00D-05.
 RLE energy=       -0.7710802653
 DE(Corr)= -0.77106797     E(CORR)=     -212.71073433     Delta= 6.82D-05
 NORM(A)=   0.11230110D+01
 Iteration Nr.  14
 **********************
 DD1Dir will call FoFJK   4 times, MxPair=        52
 NAB=    72 NAA=    36 NBB=    28 NumPrc= 32.
 DD1Dir:  Pass   1 NRAB=    26 NRAA=     0 NRBB=     0 NR=    52.
 DD1Dir:  Pass   2 NRAB=    26 NRAA=     0 NRBB=     0 NR=    52.
 DD1Dir:  Pass   3 NRAB=    20 NRAA=    12 NRBB=     0 NR=    52.
 DD1Dir:  Pass   4 NRAB=     0 NRAA=    24 NRBB=    28 NR=    52.
 A-vector RMS=  7.7749034D-06 Max=  1.5942306D-04 conv= 1.00D-05.
 RLE energy=       -0.7711022663
 DE(Corr)= -0.77111669     E(CORR)=     -212.71078305     Delta=-4.87D-05
 NORM(A)=   0.11229350D+01
 Iteration Nr.  15
 **********************
 DD1Dir will call FoFJK   4 times, MxPair=        52
 NAB=    72 NAA=    36 NBB=    28 NumPrc= 32.
 DD1Dir:  Pass   1 NRAB=    26 NRAA=     0 NRBB=     0 NR=    52.
 DD1Dir:  Pass   2 NRAB=    26 NRAA=     0 NRBB=     0 NR=    52.
 DD1Dir:  Pass   3 NRAB=    20 NRAA=    12 NRBB=     0 NR=    52.
 DD1Dir:  Pass   4 NRAB=     0 NRAA=    24 NRBB=    28 NR=    52.
 A-vector RMS=  5.9223619D-06 Max=  1.2753258D-04 conv= 1.00D-05.
 RLE energy=       -0.7710881844
 DE(Corr)= -0.77107980     E(CORR)=     -212.71074616     Delta= 3.69D-05
 NORM(A)=   0.11228848D+01
 Iteration Nr.  16
 **********************
 DD1Dir will call FoFJK   4 times, MxPair=        52
 NAB=    72 NAA=    36 NBB=    28 NumPrc= 32.
 DD1Dir:  Pass   1 NRAB=    26 NRAA=     0 NRBB=     0 NR=    52.
 DD1Dir:  Pass   2 NRAB=    26 NRAA=     0 NRBB=     0 NR=    52.
 DD1Dir:  Pass   3 NRAB=    20 NRAA=    12 NRBB=     0 NR=    52.
 DD1Dir:  Pass   4 NRAB=     0 NRAA=    24 NRBB=    28 NR=    52.
 A-vector RMS=  5.2245957D-06 Max=  8.7142901D-05 conv= 1.00D-05.
 RLE energy=       -0.7710734718
 DE(Corr)= -0.77108019     E(CORR)=     -212.71074655     Delta=-3.89D-07
 NORM(A)=   0.11228536D+01
 Iteration Nr.  17
 **********************
 DD1Dir will call FoFJK   4 times, MxPair=        52
 NAB=    72 NAA=    36 NBB=    28 NumPrc= 32.
 DD1Dir:  Pass   1 NRAB=    26 NRAA=     0 NRBB=     0 NR=    52.
 DD1Dir:  Pass   2 NRAB=    26 NRAA=     0 NRBB=     0 NR=    52.
 DD1Dir:  Pass   3 NRAB=    20 NRAA=    12 NRBB=     0 NR=    52.
 DD1Dir:  Pass   4 NRAB=     0 NRAA=    24 NRBB=    28 NR=    52.
 A-vector RMS=  3.7519898D-06 Max=  8.0300665D-05 conv= 1.00D-05.
 RLE energy=       -0.7710757203
 DE(Corr)= -0.77108584     E(CORR)=     -212.71075220     Delta=-5.65D-06
 NORM(A)=   0.11228248D+01
 Iteration Nr.  18
 **********************
 DD1Dir will call FoFJK   4 times, MxPair=        52
 NAB=    72 NAA=    36 NBB=    28 NumPrc= 32.
 DD1Dir:  Pass   1 NRAB=    26 NRAA=     0 NRBB=     0 NR=    52.
 DD1Dir:  Pass   2 NRAB=    26 NRAA=     0 NRBB=     0 NR=    52.
 DD1Dir:  Pass   3 NRAB=    20 NRAA=    12 NRBB=     0 NR=    52.
 DD1Dir:  Pass   4 NRAB=     0 NRAA=    24 NRBB=    28 NR=    52.
 A-vector RMS=  2.7818210D-06 Max=  4.3755106D-05 conv= 1.00D-05.
 RLE energy=       -0.7710797051
 DE(Corr)= -0.77107794     E(CORR)=     -212.71074430     Delta= 7.90D-06
 NORM(A)=   0.11228149D+01
 Iteration Nr.  19
 **********************
 DD1Dir will call FoFJK   4 times, MxPair=        52
 NAB=    72 NAA=    36 NBB=    28 NumPrc= 32.
 DD1Dir:  Pass   1 NRAB=    26 NRAA=     0 NRBB=     0 NR=    52.
