 Entering Gaussian System, Link 0=g16
 Initial command:
 /home1/apps/gaussian/16rA.03/g16/l1.exe "/tmp/Gau-222815.inp" -scrdir="/tmp/"
 Entering Link 1 = /home1/apps/gaussian/16rA.03/g16/l1.exe PID=    222816.
  
 Copyright (c) 1988,1990,1992,1993,1995,1998,2003,2009,2016,
            Gaussian, Inc.  All Rights Reserved.
  
 This is part of the Gaussian(R) 16 program.  It is based on
 the Gaussian(R) 09 system (copyright 2009, Gaussian, Inc.),
 the Gaussian(R) 03 system (copyright 2003, Gaussian, Inc.),
 the Gaussian(R) 98 system (copyright 1998, Gaussian, Inc.),
 the Gaussian(R) 94 system (copyright 1995, Gaussian, Inc.),
 the Gaussian 92(TM) system (copyright 1992, Gaussian, Inc.),
 the Gaussian 90(TM) system (copyright 1990, Gaussian, Inc.),
 the Gaussian 88(TM) system (copyright 1988, Gaussian, Inc.),
 the Gaussian 86(TM) system (copyright 1986, Carnegie Mellon
 University), and the Gaussian 82(TM) system (copyright 1983,
 Carnegie Mellon University). Gaussian is a federally registered
 trademark of Gaussian, Inc.
  
 This software contains proprietary and confidential information,
 including trade secrets, belonging to Gaussian, Inc.
  
 This software is provided under written license and may be
 used, copied, transmitted, or stored only in accord with that
 written license.
  
 The following legend is applicable only to US Government
 contracts under FAR:
  
                    RESTRICTED RIGHTS LEGEND
  
 Use, reproduction and disclosure by the US Government is
 subject to restrictions as set forth in subparagraphs (a)
 and (c) of the Commercial Computer Software - Restricted
 Rights clause in FAR 52.227-19.
  
 Gaussian, Inc.
 340 Quinnipiac St., Bldg. 40, Wallingford CT 06492
  
  
 ---------------------------------------------------------------
 Warning -- This program may not be used in any manner that
 competes with the business of Gaussian, Inc. or will provide
 assistance to any competitor of Gaussian, Inc.  The licensee
 of this program is prohibited from giving any competitor of
 Gaussian, Inc. access to this program.  By using this program,
 the user acknowledges that Gaussian, Inc. is engaged in the
 business of creating and licensing software in the field of
 computational chemistry and represents and warrants to the
 licensee that it is not a competitor of Gaussian, Inc. and that
 it will not use this program in any manner prohibited above.
 ---------------------------------------------------------------
  

 Cite this work as:
 Gaussian 16, Revision A.03,
 M. J. Frisch, G. W. Trucks, H. B. Schlegel, G. E. Scuseria, 
 M. A. Robb, J. R. Cheeseman, G. Scalmani, V. Barone, 
 G. A. Petersson, H. Nakatsuji, X. Li, M. Caricato, A. V. Marenich, 
 J. Bloino, B. G. Janesko, R. Gomperts, B. Mennucci, H. P. Hratchian, 
 J. V. Ortiz, A. F. Izmaylov, J. L. Sonnenberg, D. Williams-Young, 
 F. Ding, F. Lipparini, F. Egidi, J. Goings, B. Peng, A. Petrone, 
 T. Henderson, D. Ranasinghe, V. G. Zakrzewski, J. Gao, N. Rega, 
 G. Zheng, W. Liang, M. Hada, M. Ehara, K. Toyota, R. Fukuda, 
 J. Hasegawa, M. Ishida, T. Nakajima, Y. Honda, O. Kitao, H. Nakai, 
 T. Vreven, K. Throssell, J. A. Montgomery, Jr., J. E. Peralta, 
 F. Ogliaro, M. J. Bearpark, J. J. Heyd, E. N. Brothers, K. N. Kudin, 
 V. N. Staroverov, T. A. Keith, R. Kobayashi, J. Normand, 
 K. Raghavachari, A. P. Rendell, J. C. Burant, S. S. Iyengar, 
 J. Tomasi, M. Cossi, J. M. Millam, M. Klene, C. Adamo, R. Cammi, 
 J. W. Ochterski, R. L. Martin, K. Morokuma, O. Farkas, 
 J. B. Foresman, and D. J. Fox, Gaussian, Inc., Wallingford CT, 2016.
 
 ******************************************
 Gaussian 16:  ES64L-G16RevA.03 25-Dec-2016
                 5-May-2018 
 ******************************************
 %MEM=160GB
 %CPU=0-31
 SetSPE:  set environment variable "MP_BIND" = "yes"
 SetSPE:  set environment variable "MP_BLIST" = "0,1,2,3,4,5,6,7,8,9,10,11,12,13,14,15,16,17,18,19,20,21,22,23,24,25,26,27,28,29,30,31"
 Will use up to   32 processors via shared memory.
 %RWF=/scratch/04843/aannabe/gaussian/
 %Int=/scratch/04843/aannabe/gaussian/
 %D2E=/scratch/04843/aannabe/gaussian/
 %NoSave
 %CHK=MnH
 ----------------------------------------------------------------------
 #P ROCCSD(T)=(maxcyc=150, Full, SaveAmplitudes, ReadAmplitudes)/Gen 5d
  7f SCF=(maxcycles=300, VShift=400) Integral(NoXCTest) MaxDisk=500GB P
 op=Full Pseudo=Read Guess=Read IOp(5/15=2)
 ----------------------------------------------------------------------
 1/38=1,172=1/1;
 2/12=2,17=6,18=5,40=1/2;
 3/5=7,8=11,11=2,16=1,17=8,25=1,30=1,47=8,116=101/1,2,3;
 4/5=1/1;
 5/5=2,7=300,10=400,15=2,38=6/2;
 8/5=-1,6=4,9=120000,10=90,24=1/1,4;
 9/5=7,6=150,14=2,77=1/13;
 6/7=3/1;
 99/5=1,9=1/99;
 Leave Link    1 at Sat May  5 12:18:35 2018, MaxMem= 21474836480 cpu:               2.8 elap:               0.1
 (Enter /home1/apps/gaussian/16rA.03/g16/l101.exe)
 ---
 MnH
 ---
 Symbolic Z-matrix:
 Charge =  0 Multiplicity = 7
 Mn                    0.        0.        0. 
 H                     0.        0.        2. 
 
 ITRead=  0  0
 MicOpt= -1 -1
 NAtoms=      2 NQM=        2 NQMF=       0 NMMI=      0 NMMIF=      0
                NMic=       0 NMicF=      0.
                    Isotopes and Nuclear Properties:
 (Nuclear quadrupole moments (NQMom) in fm**2, nuclear magnetic moments (NMagM)
  in nuclear magnetons)

  Atom         1           2
 IAtWgt=          55           1
 AtmWgt=  54.9380463   1.0078250
 NucSpn=           5           1
 AtZEff=  -0.0000000  -0.0000000
 NQMom=   33.0000000   0.0000000
 NMagM=    3.4532000   2.7928460
 AtZNuc=  25.0000000   1.0000000
 Leave Link  101 at Sat May  5 12:18:35 2018, MaxMem= 21474836480 cpu:               2.7 elap:               0.1
 (Enter /home1/apps/gaussian/16rA.03/g16/l202.exe)
                          Input orientation:                          
 ---------------------------------------------------------------------
 Center     Atomic      Atomic             Coordinates (Angstroms)
 Number     Number       Type             X           Y           Z
 ---------------------------------------------------------------------
      1         25           0        0.000000    0.000000    0.000000
      2          1           0        0.000000    0.000000    2.000000
 ---------------------------------------------------------------------
 Stoichiometry    HMn(7)
 Framework group  C*V[C*(HMn)]
 Deg. of freedom     1
 Full point group                 C*V     NOp   4
 Largest Abelian subgroup         C2V     NOp   4
 Largest concise Abelian subgroup C1      NOp   1
                         Standard orientation:                         
 ---------------------------------------------------------------------
 Center     Atomic      Atomic             Coordinates (Angstroms)
 Number     Number       Type             X           Y           Z
 ---------------------------------------------------------------------
      1         25           0        0.000000    0.000000    0.076923
      2          1           0        0.000000    0.000000   -1.923077
 ---------------------------------------------------------------------
 Rotational constants (GHZ):           0.0000000         127.6635440         127.6635440
 Leave Link  202 at Sat May  5 12:18:35 2018, MaxMem= 21474836480 cpu:               0.5 elap:               0.0
 (Enter /home1/apps/gaussian/16rA.03/g16/l301.exe)
 General basis read from cards:  (5D, 7F)
 Centers:       1
 S 1 1.00
     Exponent=  1.2471540000D+04 Coefficients=  1.0000000000D+00
 S 1 1.00
     Exponent=  4.5017430000D+03 Coefficients=  1.0000000000D+00
 S 1 1.00
     Exponent=  1.7552120000D+03 Coefficients=  1.0000000000D+00
 S 1 1.00
     Exponent=  7.2730390000D+02 Coefficients=  1.0000000000D+00
 S 1 1.00
     Exponent=  3.1636780000D+02 Coefficients=  1.0000000000D+00
 S 1 1.00
     Exponent=  1.4300980000D+02 Coefficients=  1.0000000000D+00
 S 1 1.00
     Exponent=  6.6218050000D+01 Coefficients=  1.0000000000D+00
 S 1 1.00
     Exponent=  2.9918960000D+01 Coefficients=  1.0000000000D+00
 S 1 1.00
     Exponent=  1.4303180000D+01 Coefficients=  1.0000000000D+00
 S 1 1.00
     Exponent=  6.8394510000D+00 Coefficients=  1.0000000000D+00
 S 1 1.00
     Exponent=  3.0123740000D+00 Coefficients=  1.0000000000D+00
 S 1 1.00
     Exponent=  1.4188080000D+00 Coefficients=  1.0000000000D+00
 S 1 1.00
     Exponent=  6.2362400000D-01 Coefficients=  1.0000000000D+00
 S 1 1.00
     Exponent=  1.3409800000D-01 Coefficients=  1.0000000000D+00
 S 1 1.00
     Exponent=  6.5548000000D-02 Coefficients=  1.0000000000D+00
 S 1 1.00
     Exponent=  2.9584000000D-02 Coefficients=  1.0000000000D+00
 S 1 1.00
     Exponent=  4.1714000000D+00 Coefficients=  1.0000000000D+00
 S 1 1.00
     Exponent=  1.0701000000D+00 Coefficients=  1.0000000000D+00
 S 1 1.00
     Exponent=  1.3350000000D-02 Coefficients=  1.0000000000D+00
 P 1 1.00
     Exponent=  3.8362740000D+03 Coefficients=  1.0000000000D+00
 P 1 1.00
     Exponent=  1.2460480000D+03 Coefficients=  1.0000000000D+00
 P 1 1.00
     Exponent=  4.7675350000D+02 Coefficients=  1.0000000000D+00
 P 1 1.00
     Exponent=  2.0218950000D+02 Coefficients=  1.0000000000D+00
 P 1 1.00
     Exponent=  9.2094870000D+01 Coefficients=  1.0000000000D+00
 P 1 1.00
     Exponent=  4.4147200000D+01 Coefficients=  1.0000000000D+00
 P 1 1.00
     Exponent=  2.1854680000D+01 Coefficients=  1.0000000000D+00
 P 1 1.00
     Exponent=  1.1085960000D+01 Coefficients=  1.0000000000D+00
 P 1 1.00
     Exponent=  5.6741080000D+00 Coefficients=  1.0000000000D+00
 P 1 1.00
     Exponent=  2.8231700000D+00 Coefficients=  1.0000000000D+00
 P 1 1.00
     Exponent=  1.3686210000D+00 Coefficients=  1.0000000000D+00
 P 1 1.00
     Exponent=  6.4443100000D-01 Coefficients=  1.0000000000D+00
 P 1 1.00
     Exponent=  2.4834600000D-01 Coefficients=  1.0000000000D+00
 P 1 1.00
     Exponent=  9.7175000000D-02 Coefficients=  1.0000000000D+00
 P 1 1.00
     Exponent=  3.6565000000D-02 Coefficients=  1.0000000000D+00
 P 1 1.00
     Exponent=  6.0568000000D+00 Coefficients=  1.0000000000D+00
 P 1 1.00
     Exponent=  1.3911000000D+00 Coefficients=  1.0000000000D+00
 P 1 1.00
     Exponent=  1.3760000000D-02 Coefficients=  1.0000000000D+00
 D 1 1.00
     Exponent=  1.0190400000D+02 Coefficients=  1.0000000000D+00
 D 1 1.00
     Exponent=  3.0033700000D+01 Coefficients=  1.0000000000D+00
 D 1 1.00
     Exponent=  1.0923800000D+01 Coefficients=  1.0000000000D+00
 D 1 1.00
     Exponent=  4.3974000000D+00 Coefficients=  1.0000000000D+00
 D 1 1.00
     Exponent=  1.8159500000D+00 Coefficients=  1.0000000000D+00
 D 1 1.00
     Exponent=  7.2573100000D-01 Coefficients=  1.0000000000D+00
 D 1 1.00
     Exponent=  2.6996100000D-01 Coefficients=  1.0000000000D+00
 D 1 1.00
     Exponent=  8.7760000000D-02 Coefficients=  1.0000000000D+00
 D 1 1.00
     Exponent=  3.9511000000D+00 Coefficients=  1.0000000000D+00
 D 1 1.00
     Exponent=  1.8488000000D+00 Coefficients=  1.0000000000D+00
 D 1 1.00
     Exponent=  2.8530000000D-02 Coefficients=  1.0000000000D+00
 F 1 1.00
     Exponent=  5.1541000000D+00 Coefficients=  1.0000000000D+00
 F 1 1.00
     Exponent=  1.9044000000D+00 Coefficients=  1.0000000000D+00
 F 1 1.00
     Exponent=  6.4380000000D-01 Coefficients=  1.0000000000D+00
 F 1 1.00
     Exponent=  2.1764000000D-01 Coefficients=  1.0000000000D+00
 G 1 1.00
     Exponent=  4.7163000000D+00 Coefficients=  1.0000000000D+00
 G 1 1.00
     Exponent=  1.7022000000D+00 Coefficients=  1.0000000000D+00
 G 1 1.00
     Exponent=  6.1436000000D-01 Coefficients=  1.0000000000D+00
 ****
 Centers:       2
 S 1 1.00
     Exponent=  3.3870000000D+01 Coefficients=  1.0000000000D+00
 S 1 1.00
     Exponent=  5.0950000000D+00 Coefficients=  1.0000000000D+00
 S 1 1.00
     Exponent=  1.1590000000D+00 Coefficients=  1.0000000000D+00
 S 1 1.00
     Exponent=  3.2580000000D-01 Coefficients=  1.0000000000D+00
 S 1 1.00
     Exponent=  1.0270000000D-01 Coefficients=  1.0000000000D+00
 S 1 1.00
     Exponent=  2.5260000000D-02 Coefficients=  1.0000000000D+00
 P 1 1.00
     Exponent=  1.4070000000D+00 Coefficients=  1.0000000000D+00
 P 1 1.00
     Exponent=  3.8800000000D-01 Coefficients=  1.0000000000D+00
 P 1 1.00
     Exponent=  1.0200000000D-01 Coefficients=  1.0000000000D+00
 D 1 1.00
     Exponent=  1.0570000000D+00 Coefficients=  1.0000000000D+00
 D 1 1.00
     Exponent=  2.4700000000D-01 Coefficients=  1.0000000000D+00
 ****
 ======================================================================================================
                                       Pseudopotential Parameters
 ======================================================================================================
  Center     Atomic      Valence      Angular      Power
  Number     Number     Electrons     Momentum     of R      Exponent        Coefficient   SO-Coeffient
 ======================================================================================================
    1         25           15
                                      D and up 
                                                     1       21.9193743       15.00000000    0.00000000
                                                     3       21.3552713      328.79061500    0.00000000
                                                     2       21.2716265     -162.05172805    0.00000000
                                                     2        7.9391396       -1.82694273    0.00000000
                                      S - D
                                                     2       18.9204497      244.66870493    0.00000000
                                                     2        8.3276476       33.54162717    0.00000000
                                      P - D
                                                     2       20.1734702      162.35033686    0.00000000
                                                     2        7.8004787       24.17956695    0.00000000
    2          1            1
                                      P and up 
                                                     2       21.7769666      -10.85192405    0.00000000
                                                     1       21.2435951        1.00000000    0.00000000
                                                     3       21.2435951       21.24359508    0.00000000
                                      S - P
                                                     2        1.0000000        0.00000000    0.00000000
 ======================================================================================================
 Ernie: Thresh=  0.10000D-02 Tol=  0.10000D-05 Strict=F.
 There are   115 symmetry adapted cartesian basis functions of A1  symmetry.
 There are    26 symmetry adapted cartesian basis functions of A2  symmetry.
 There are    55 symmetry adapted cartesian basis functions of B1  symmetry.
 There are    55 symmetry adapted cartesian basis functions of B2  symmetry.
 There are    89 symmetry adapted basis functions of A1  symmetry.
 There are    23 symmetry adapted basis functions of A2  symmetry.
 There are    48 symmetry adapted basis functions of B1  symmetry.
 There are    48 symmetry adapted basis functions of B2  symmetry.
   208 basis functions,   251 primitive gaussians,   251 cartesian basis functions
    11 alpha electrons        5 beta electrons
       nuclear repulsion energy         3.9688290819 Hartrees.
 IExCor=    0 DFT=F Ex=HF Corr=None ExCW=0 ScaHFX=  1.000000
 ScaDFX=  1.000000  1.000000  1.000000  1.000000 ScalE2=  1.000000  1.000000
 IRadAn=      5 IRanWt=     -1 IRanGd=            0 ICorTp=0 IEmpDi=  4
 NAtoms=    2 NActive=    2 NUniq=    2 SFac= 1.00D+00 NAtFMM=   60 NAOKFM=F Big=F
 Integral buffers will be    131072 words long.
 Raffenetti 2 integral format.
 Two-electron integral symmetry is turned on.
 Leave Link  301 at Sat May  5 12:18:36 2018, MaxMem= 21474836480 cpu:               3.0 elap:               0.1
 (Enter /home1/apps/gaussian/16rA.03/g16/l302.exe)
 NPDir=0 NMtPBC=     1 NCelOv=     1 NCel=       1 NClECP=     1 NCelD=      1
         NCelK=      1 NCelE2=     1 NClLst=     1 CellRange=     0.0.
 One-electron integrals computed using PRISM.
 One-electron integral symmetry used in STVInt
   4 Symmetry operations used in ECPInt.
 ECPInt:  NShTT=    2211 NPrTT=    2211 LenC2=    2181 LenP2D=    2180.
 LDataN:  DoStor=T MaxTD1= 8 Len=  415
 NBasis=   208 RedAO= T EigKep=  1.45D-06  NBF=    89    23    48    48
 NBsUse=   205 1.00D-06 EigRej=  1.76D-07 NBFU=    88    23    47    47
 Leave Link  302 at Sat May  5 12:18:36 2018, MaxMem= 21474836480 cpu:               6.6 elap:               0.2
 (Enter /home1/apps/gaussian/16rA.03/g16/l303.exe)
 DipDrv:  MaxL=1.
 Leave Link  303 at Sat May  5 12:18:36 2018, MaxMem= 21474836480 cpu:               1.0 elap:               0.1
 (Enter /home1/apps/gaussian/16rA.03/g16/l401.exe)
 Initial guess from the checkpoint file:  "MnH.chk"
 B after Tr=     0.000000    0.000000    0.000000
         Rot=    1.000000    0.000000    0.000000    0.000000 Ang=   0.00 deg.
 Guess basis will be translated and rotated to current coordinates.
 JPrj=2 DoOrth=T DoCkMO=T.
 Initial guess orbital symmetries:
       Occupied  (SG) (PI) (PI) (SG) (SG) (DLTA) (DLTA) (SG) (PI)
                 (PI) (SG)
       Virtual   (PI) (PI) (SG) (SG) (PI) (PI) (DLTA) (DLTA) (SG)
                 (PI) (PI) (SG) (SG) (SG) (PI) (PI) (SG) (DLTA)
                 (DLTA) (PI) (PI) (PI) (PI) (SG) (SG) (SG) (SG)
                 (DLTA) (DLTA) (PHI) (PHI) (PI) (PI) (PI) (PI)
                 (SG) (SG) (DLTA) (DLTA) (PI) (PI) (SG) (DLTA)
                 (DLTA) (PI) (PI) (SG) (PI) (PI) (SG) (SG) (PHI)
                 (PHI) (DLTA) (DLTA) (PI) (PI) (SG) (PI) (PI) (SG)
                 (?A) (?A) (PHI) (PHI) (SG) (DLTA) (DLTA) (PI)
                 (PI) (DLTA) (DLTA) (SG) (PI) (PI) (SG) (DLTA)
                 (DLTA) (PI) (PI) (PI) (PI) (SG) (SG) (SG) (PHI)
                 (PHI) (DLTA) (DLTA) (PI) (PI) (SG) (DLTA) (DLTA)
                 (PI) (PI) (PI) (PI) (SG) (SG) (?A) (?A) (PHI)
                 (PHI) (DLTA) (DLTA) (PI) (PI) (SG) (SG) (SG) (DLTA)
                 (DLTA) (PI) (PI) (SG) (PI) (PI) (PHI) (PHI) (DLTA)
                 (DLTA) (PI) (PI) (SG) (SG) (?A) (?A) (PHI) (PHI)
                 (DLTA) (DLTA) (PI) (PI) (SG) (SG) (DLTA) (DLTA)
                 (PI) (PI) (SG) (PI) (PI) (SG) (SG) (DLTA) (DLTA)
                 (PI) (PI) (SG) (PI) (PI) (SG) (SG) (SG) (PI) (PI)
                 (SG) (DLTA) (DLTA) (PI) (PI) (SG) (SG) (PI) (PI)
                 (SG) (SG) (DLTA) (DLTA) (PI) (PI) (SG) (PI) (PI)
                 (SG) (SG) (PI) (PI) (SG) (SG) (PI) (PI) (SG) (SG)
                 (PI) (PI) (SG) (SG) (PI) (PI) (SG) (SG) (SG)
 The electronic state of the initial guess is 7-SG.
 Leave Link  401 at Sat May  5 12:18:36 2018, MaxMem= 21474836480 cpu:               4.6 elap:               0.2
 (Enter /home1/apps/gaussian/16rA.03/g16/l502.exe)
 Keep R1 and R2 ints in memory in symmetry-blocked form, NReq=296667361.
 FoFCou: FMM=F IPFlag=           8 FMFlag=           0 FMFlg1=           0
         NFxFlg=           0 DoJE=F BraDBF=F KetDBF=F FulRan=T
         wScrn=  0.000000 ICntrl=       600 IOpCl=  0 I1Cent=           0 NGrid=           0
         NMat0=    1 NMatS0=  21736 NMatT0=    0 NMatD0=    1 NMtDS0=    0 NMtDT0=    0
 Petite list used in FoFCou.
 Restricted open shell SCF:
 Using DIIS extrapolation, IDIIS=  1040.
 NGot= 21474836480 LenX= 21353895727 LenY= 21353832285
 Requested convergence on RMS density matrix=1.00D-08 within 300 cycles.
 Requested convergence on MAX density matrix=1.00D-06.
 Requested convergence on             energy=1.00D-06.
 Virtual orbitals will be shifted by   0.400 hartree.
 No special actions if energy rises.

 Cycle   1  Pass 1  IDiag  1:
 E= -103.074323537297    
 DIIS: error= 4.71D-01 at cycle   1 NSaved=   1.
 NSaved= 1 IEnMin= 1 EnMin= -103.074323537297     IErMin= 1 ErrMin= 4.71D-01
 ErrMax= 4.71D-01  0.00D+00 EMaxC= 1.00D-01 BMatC= 2.81D+01 BMatP= 2.81D+01
 IDIUse=3 WtCom= 0.00D+00 WtEn= 1.00D+00
 Coeff-Com:  0.100D+01
 Coeff-En:   0.100D+01
 Coeff:      0.100D+01
 Gap=     0.041 Goal=   None    Shift=    0.400
 GapD=    0.041 DampG=0.250 DampE=0.125 DampFc=0.1250 IDamp=-1.
 Damping current iteration by 1.25D-01
 RMSDP=2.19D-02 MaxDP=1.53D+00              OVMax= 4.84D-02

 Cycle   2  Pass 1  IDiag  1:
 E= -103.162144594033     Delta-E=       -0.087821056735 Rises=F Damp=T
 DIIS: error= 4.07D-01 at cycle   2 NSaved=   2.
 NSaved= 2 IEnMin= 2 EnMin= -103.162144594033     IErMin= 2 ErrMin= 4.07D-01
 ErrMax= 4.07D-01  0.00D+00 EMaxC= 1.00D-01 BMatC= 2.13D+01 BMatP= 2.81D+01
 IDIUse=3 WtCom= 0.00D+00 WtEn= 1.00D+00
 Coeff-Com: -0.674D+01 0.774D+01
 Coeff-En:   0.000D+00 0.100D+01
 Coeff:      0.000D+00 0.100D+01
 Gap=     0.080 Goal=   None    Shift=    0.400
 RMSDP=1.92D-02 MaxDP=1.34D+00 DE=-8.78D-02 OVMax= 9.97D-03

 Cycle   3  Pass 1  IDiag  1:
 E= -103.787810402258     Delta-E=       -0.625665808225 Rises=F Damp=F
 DIIS: error= 2.08D-02 at cycle   3 NSaved=   3.
 NSaved= 3 IEnMin= 3 EnMin= -103.787810402258     IErMin= 3 ErrMin= 2.08D-02
 ErrMax= 2.08D-02  0.00D+00 EMaxC= 1.00D-01 BMatC= 2.63D-02 BMatP= 2.13D+01
 IDIUse=3 WtCom= 7.92D-01 WtEn= 2.08D-01
 Coeff-Com: -0.463D+00 0.513D+00 0.951D+00
 Coeff-En:   0.000D+00 0.000D+00 0.100D+01
 Coeff:     -0.367D+00 0.406D+00 0.961D+00
 Gap=     0.093 Goal=   None    Shift=    0.400
 RMSDP=3.19D-04 MaxDP=2.02D-02 DE=-6.26D-01 OVMax= 2.33D-02

 Cycle   4  Pass 1  IDiag  1:
 E= -103.792584150983     Delta-E=       -0.004773748726 Rises=F Damp=F
 DIIS: error= 6.31D-03 at cycle   4 NSaved=   4.
 NSaved= 4 IEnMin= 4 EnMin= -103.792584150983     IErMin= 4 ErrMin= 6.31D-03
 ErrMax= 6.31D-03  0.00D+00 EMaxC= 1.00D-01 BMatC= 4.19D-03 BMatP= 2.63D-02
 IDIUse=3 WtCom= 9.37D-01 WtEn= 6.31D-02
 Coeff-Com: -0.499D+00 0.565D+00 0.223D+00 0.711D+00
 Coeff-En:   0.000D+00 0.000D+00 0.970D-01 0.903D+00
 Coeff:     -0.467D+00 0.530D+00 0.215D+00 0.723D+00
 Gap=     0.083 Goal=   None    Shift=    0.400
 RMSDP=1.66D-04 MaxDP=1.13D-02 DE=-4.77D-03 OVMax= 4.40D-03

 Cycle   5  Pass 1  IDiag  1:
 E= -103.793319350510     Delta-E=       -0.000735199526 Rises=F Damp=F
 DIIS: error= 3.81D-03 at cycle   5 NSaved=   5.
 NSaved= 5 IEnMin= 5 EnMin= -103.793319350510     IErMin= 5 ErrMin= 3.81D-03
 ErrMax= 3.81D-03  0.00D+00 EMaxC= 1.00D-01 BMatC= 7.82D-04 BMatP= 4.19D-03
 IDIUse=3 WtCom= 9.62D-01 WtEn= 3.81D-02
 Coeff-Com: -0.456D+00 0.521D+00-0.934D-01-0.151D+00 0.118D+01
 Coeff-En:   0.000D+00 0.000D+00 0.000D+00 0.000D+00 0.100D+01
 Coeff:     -0.439D+00 0.502D+00-0.898D-01-0.145D+00 0.117D+01
 Gap=     0.082 Goal=   None    Shift=    0.400
 RMSDP=5.47D-05 MaxDP=2.73D-03 DE=-7.35D-04 OVMax= 2.98D-03

 Cycle   6  Pass 1  IDiag  1:
 E= -103.793562512312     Delta-E=       -0.000243161802 Rises=F Damp=F
 DIIS: error= 3.36D-03 at cycle   6 NSaved=   6.
 NSaved= 6 IEnMin= 6 EnMin= -103.793562512312     IErMin= 6 ErrMin= 3.36D-03
 ErrMax= 3.36D-03  0.00D+00 EMaxC= 1.00D-01 BMatC= 5.53D-04 BMatP= 7.82D-04
 IDIUse=3 WtCom= 9.66D-01 WtEn= 3.36D-02
 Coeff-Com: -0.370D+00 0.423D+00-0.724D-01 0.139D-01-0.211D+00 0.122D+01
 Coeff-En:   0.000D+00 0.000D+00 0.000D+00 0.000D+00 0.000D+00 0.100D+01
 Coeff:     -0.357D+00 0.408D+00-0.700D-01 0.134D-01-0.204D+00 0.121D+01
 Gap=     0.083 Goal=   None    Shift=    0.400
 RMSDP=6.80D-05 MaxDP=5.54D-03 DE=-2.43D-04 OVMax= 2.25D-03

 Cycle   7  Pass 1  IDiag  1:
 E= -103.793773721504     Delta-E=       -0.000211209192 Rises=F Damp=F
 DIIS: error= 2.74D-03 at cycle   7 NSaved=   7.
 NSaved= 7 IEnMin= 7 EnMin= -103.793773721504     IErMin= 7 ErrMin= 2.74D-03
 ErrMax= 2.74D-03  0.00D+00 EMaxC= 1.00D-01 BMatC= 3.74D-04 BMatP= 5.53D-04
 IDIUse=3 WtCom= 9.73D-01 WtEn= 2.74D-02
 Coeff-Com: -0.256D+00 0.293D+00-0.386D-01-0.583D-02-0.646D-01-0.845D+00
 Coeff-Com:  0.192D+01
 Coeff-En:   0.000D+00 0.000D+00 0.000D+00 0.000D+00 0.000D+00 0.000D+00
 Coeff-En:   0.100D+01
 Coeff:     -0.249D+00 0.285D+00-0.375D-01-0.567D-02-0.629D-01-0.822D+00
 Coeff:      0.189D+01
 Gap=     0.084 Goal=   None    Shift=    0.400
 RMSDP=6.99D-05 MaxDP=6.12D-03 DE=-2.11D-04 OVMax= 2.06D-03

 Cycle   8  Pass 1  IDiag  1:
 E= -103.793974425462     Delta-E=       -0.000200703958 Rises=F Damp=F
 DIIS: error= 1.95D-03 at cycle   8 NSaved=   8.
 NSaved= 8 IEnMin= 8 EnMin= -103.793974425462     IErMin= 8 ErrMin= 1.95D-03
 ErrMax= 1.95D-03  0.00D+00 EMaxC= 1.00D-01 BMatC= 1.89D-04 BMatP= 3.74D-04
 IDIUse=3 WtCom= 9.80D-01 WtEn= 1.95D-02
 Coeff-Com: -0.153D+00 0.175D+00-0.188D-01-0.118D-01 0.231D-01-0.609D+00
 Coeff-Com:  0.143D+00 0.145D+01
 Coeff-En:   0.000D+00 0.000D+00 0.000D+00 0.000D+00 0.000D+00 0.000D+00
 Coeff-En:   0.000D+00 0.100D+01
 Coeff:     -0.150D+00 0.171D+00-0.185D-01-0.116D-01 0.227D-01-0.597D+00
 Coeff:      0.141D+00 0.144D+01
 Gap=     0.085 Goal=   None    Shift=    0.400
 RMSDP=6.81D-05 MaxDP=5.96D-03 DE=-2.01D-04 OVMax= 1.84D-03

 Cycle   9  Pass 1  IDiag  1:
 E= -103.794107010492     Delta-E=       -0.000132585030 Rises=F Damp=F
 DIIS: error= 1.20D-03 at cycle   9 NSaved=   9.
 NSaved= 9 IEnMin= 9 EnMin= -103.794107010492     IErMin= 9 ErrMin= 1.20D-03
 ErrMax= 1.20D-03  0.00D+00 EMaxC= 1.00D-01 BMatC= 7.15D-05 BMatP= 1.89D-04
 IDIUse=3 WtCom= 9.88D-01 WtEn= 1.20D-02
 Coeff-Com: -0.159D-02 0.185D-02-0.140D-02 0.225D-01-0.113D+00 0.892D+00
 Coeff-Com: -0.753D+00-0.223D+01 0.318D+01
 Coeff-En:   0.000D+00 0.000D+00 0.000D+00 0.000D+00 0.000D+00 0.000D+00
 Coeff-En:   0.000D+00 0.000D+00 0.100D+01
 Coeff:     -0.157D-02 0.183D-02-0.138D-02 0.222D-01-0.111D+00 0.882D+00
 Coeff:     -0.743D+00-0.221D+01 0.316D+01
 Gap=     0.085 Goal=   None    Shift=    0.400
 RMSDP=1.10D-04 MaxDP=9.54D-03 DE=-1.33D-04 OVMax= 1.85D-03

 Cycle  10  Pass 1  IDiag  1:
 E= -103.794185254828     Delta-E=       -0.000078244336 Rises=F Damp=F
 DIIS: error= 1.84D-04 at cycle  10 NSaved=  10.
 NSaved=10 IEnMin=10 EnMin= -103.794185254828     IErMin=10 ErrMin= 1.84D-04
 ErrMax= 1.84D-04  0.00D+00 EMaxC= 1.00D-01 BMatC= 1.80D-06 BMatP= 7.15D-05
 IDIUse=3 WtCom= 9.98D-01 WtEn= 1.84D-03
 Coeff-Com:  0.179D-01-0.204D-01 0.241D-02 0.225D-01-0.123D+00 0.827D+00
 Coeff-Com: -0.603D+00-0.210D+01 0.268D+01 0.298D+00
 Coeff-En:   0.000D+00 0.000D+00 0.000D+00 0.000D+00 0.000D+00 0.000D+00
 Coeff-En:   0.000D+00 0.000D+00 0.000D+00 0.100D+01
 Coeff:      0.179D-01-0.204D-01 0.240D-02 0.224D-01-0.123D+00 0.825D+00
 Coeff:     -0.602D+00-0.210D+01 0.268D+01 0.300D+00
 Gap=     0.085 Goal=   None    Shift=    0.400
 RMSDP=2.62D-05 MaxDP=1.96D-03 DE=-7.82D-05 OVMax= 1.27D-03

 Cycle  11  Pass 1  IDiag  1:
 E= -103.794187139502     Delta-E=       -0.000001884674 Rises=F Damp=F
 DIIS: error= 1.11D-04 at cycle  11 NSaved=  11.
 NSaved=11 IEnMin=11 EnMin= -103.794187139502     IErMin=11 ErrMin= 1.11D-04
 ErrMax= 1.11D-04  0.00D+00 EMaxC= 1.00D-01 BMatC= 1.14D-06 BMatP= 1.80D-06
 IDIUse=3 WtCom= 9.99D-01 WtEn= 1.11D-03
 Coeff-Com: -0.132D-01 0.150D-01-0.132D-02 0.311D-02-0.197D-01 0.907D-01
 Coeff-Com: -0.124D+00-0.104D+00 0.596D+00-0.133D+01 0.189D+01
 Coeff-En:   0.000D+00 0.000D+00 0.000D+00 0.000D+00 0.000D+00 0.000D+00
 Coeff-En:   0.000D+00 0.000D+00 0.000D+00 0.000D+00 0.100D+01
 Coeff:     -0.132D-01 0.150D-01-0.132D-02 0.310D-02-0.196D-01 0.906D-01
 Coeff:     -0.124D+00-0.104D+00 0.595D+00-0.133D+01 0.189D+01
 Gap=     0.085 Goal=   None    Shift=    0.400
 RMSDP=2.06D-05 MaxDP=1.87D-03 DE=-1.88D-06 OVMax= 6.38D-04

 Cycle  12  Pass 1  IDiag  1:
 E= -103.794188258356     Delta-E=       -0.000001118854 Rises=F Damp=F
 DIIS: error= 9.90D-05 at cycle  12 NSaved=  12.
 NSaved=12 IEnMin=12 EnMin= -103.794188258356     IErMin=12 ErrMin= 9.90D-05
 ErrMax= 9.90D-05  0.00D+00 EMaxC= 1.00D-01 BMatC= 6.06D-07 BMatP= 1.14D-06
 IDIUse=1 WtCom= 1.00D+00 WtEn= 0.00D+00
 Coeff-Com: -0.111D-01 0.127D-01-0.280D-02-0.263D-02 0.312D-01-0.486D-01
 Coeff-Com: -0.135D+00 0.154D+00 0.523D-01-0.282D+00-0.317D+00 0.155D+01
 Coeff:     -0.111D-01 0.127D-01-0.280D-02-0.263D-02 0.312D-01-0.486D-01
 Coeff:     -0.135D+00 0.154D+00 0.523D-01-0.282D+00-0.317D+00 0.155D+01
 Gap=     0.085 Goal=   None    Shift=    0.400
 RMSDP=3.32D-06 MaxDP=2.97D-04 DE=-1.12D-06 OVMax= 4.78D-04

 Cycle  13  Pass 1  IDiag  1:
 E= -103.794188605271     Delta-E=       -0.000000346915 Rises=F Damp=F
 DIIS: error= 9.15D-05 at cycle  13 NSaved=  13.
 NSaved=13 IEnMin=13 EnMin= -103.794188605271     IErMin=13 ErrMin= 9.15D-05
 ErrMax= 9.15D-05  0.00D+00 EMaxC= 1.00D-01 BMatC= 4.56D-07 BMatP= 6.06D-07
 IDIUse=1 WtCom= 1.00D+00 WtEn= 0.00D+00
 Coeff-Com: -0.761D-02 0.869D-02-0.152D-02-0.264D-02 0.907D-02-0.361D-01
 Coeff-Com: -0.866D-03 0.148D+00-0.191D+00-0.896D-01-0.655D-01-0.490D+00
 Coeff-Com:  0.172D+01
 Coeff:     -0.761D-02 0.869D-02-0.152D-02-0.264D-02 0.907D-02-0.361D-01
 Coeff:     -0.866D-03 0.148D+00-0.191D+00-0.896D-01-0.655D-01-0.490D+00
 Coeff:      0.172D+01
 Gap=     0.085 Goal=   None    Shift=    0.400
 RMSDP=3.44D-06 MaxDP=2.33D-04 DE=-3.47D-07 OVMax= 3.40D-04

 Cycle  14  Pass 1  IDiag  1:
 E= -103.794188939610     Delta-E=       -0.000000334339 Rises=F Damp=F
 DIIS: error= 6.13D-05 at cycle  14 NSaved=  14.
 NSaved=14 IEnMin=14 EnMin= -103.794188939610     IErMin=14 ErrMin= 6.13D-05
 ErrMax= 6.13D-05  0.00D+00 EMaxC= 1.00D-01 BMatC= 2.18D-07 BMatP= 4.56D-07
 IDIUse=1 WtCom= 1.00D+00 WtEn= 0.00D+00
 Coeff-Com: -0.508D-02 0.580D-02-0.771D-03-0.108D-02-0.539D-03-0.253D-01
 Coeff-Com:  0.643D-01 0.479D-01-0.896D-01-0.174D+00 0.282D+00-0.561D+00
 Coeff-Com: -0.738D+00 0.220D+01
 Coeff:     -0.508D-02 0.580D-02-0.771D-03-0.108D-02-0.539D-03-0.253D-01
 Coeff:      0.643D-01 0.479D-01-0.896D-01-0.174D+00 0.282D+00-0.561D+00
 Coeff:     -0.738D+00 0.220D+01
 Gap=     0.085 Goal=   None    Shift=    0.400
 RMSDP=2.44D-06 MaxDP=1.38D-04 DE=-3.34D-07 OVMax= 2.32D-04

 Cycle  15  Pass 1  IDiag  1:
 E= -103.794189131757     Delta-E=       -0.000000192147 Rises=F Damp=F
 DIIS: error= 3.96D-05 at cycle  15 NSaved=  15.
 NSaved=15 IEnMin=15 EnMin= -103.794189131757     IErMin=15 ErrMin= 3.96D-05
 ErrMax= 3.96D-05  0.00D+00 EMaxC= 1.00D-01 BMatC= 9.36D-08 BMatP= 2.18D-07
 IDIUse=1 WtCom= 1.00D+00 WtEn= 0.00D+00
 Coeff-Com: -0.314D-02 0.358D-02-0.646D-03-0.403D-03 0.252D-02-0.880D-02
 Coeff-Com:  0.230D-01-0.127D-01 0.534D-01-0.191D+00 0.266D+00-0.309D+00
 Coeff-Com: -0.697D+00 0.393D+00 0.148D+01
 Coeff:     -0.314D-02 0.358D-02-0.646D-03-0.403D-03 0.252D-02-0.880D-02
 Coeff:      0.230D-01-0.127D-01 0.534D-01-0.191D+00 0.266D+00-0.309D+00
 Coeff:     -0.697D+00 0.393D+00 0.148D+01
 Gap=     0.085 Goal=   None    Shift=    0.400
 RMSDP=2.09D-06 MaxDP=1.52D-04 DE=-1.92D-07 OVMax= 1.73D-04

 Cycle  16  Pass 1  IDiag  1:
 E= -103.794189217319     Delta-E=       -0.000000085562 Rises=F Damp=F
 DIIS: error= 2.45D-05 at cycle  16 NSaved=  16.
 NSaved=16 IEnMin=16 EnMin= -103.794189217319     IErMin=16 ErrMin= 2.45D-05
 ErrMax= 2.45D-05  0.00D+00 EMaxC= 1.00D-01 BMatC= 3.78D-08 BMatP= 9.36D-08
 IDIUse=1 WtCom= 1.00D+00 WtEn= 0.00D+00
 Coeff-Com:  0.114D-03-0.131D-03-0.492D-04-0.181D-03 0.228D-02-0.121D-03
 Coeff-Com: -0.383D-02-0.117D-01 0.442D-01-0.764D-01 0.905D-01-0.890D-01
 Coeff-Com:  0.153D+00-0.265D+00-0.187D+01 0.303D+01
 Coeff:      0.114D-03-0.131D-03-0.492D-04-0.181D-03 0.228D-02-0.121D-03
 Coeff:     -0.383D-02-0.117D-01 0.442D-01-0.764D-01 0.905D-01-0.890D-01
 Coeff:      0.153D+00-0.265D+00-0.187D+01 0.303D+01
 Gap=     0.085 Goal=   None    Shift=    0.400
 RMSDP=2.66D-06 MaxDP=2.45D-04 DE=-8.56D-08 OVMax= 1.25D-04

 Cycle  17  Pass 1  IDiag  1:
 E= -103.794189264112     Delta-E=       -0.000000046793 Rises=F Damp=F
 DIIS: error= 7.20D-06 at cycle  17 NSaved=  17.
 NSaved=17 IEnMin=17 EnMin= -103.794189264112     IErMin=17 ErrMin= 7.20D-06
 ErrMax= 7.20D-06  0.00D+00 EMaxC= 1.00D-01 BMatC= 5.17D-09 BMatP= 3.78D-08
 IDIUse=1 WtCom= 1.00D+00 WtEn= 0.00D+00
 Coeff-Com:  0.773D-03-0.884D-03 0.221D-03-0.304D-03 0.863D-03-0.106D-01
 Coeff-Com:  0.932D-02 0.432D-01-0.453D-01-0.205D-01-0.613D-02-0.105D-01
 Coeff-Com:  0.277D+00 0.433D-01-0.205D+01 0.105D+01 0.173D+01
 Coeff:      0.773D-03-0.884D-03 0.221D-03-0.304D-03 0.863D-03-0.106D-01
 Coeff:      0.932D-02 0.432D-01-0.453D-01-0.205D-01-0.613D-02-0.105D-01
 Coeff:      0.277D+00 0.433D-01-0.205D+01 0.105D+01 0.173D+01
 Gap=     0.085 Goal=   None    Shift=    0.400
 RMSDP=8.59D-07 MaxDP=9.41D-05 DE=-4.68D-08 OVMax= 9.05D-05

 Cycle  18  Pass 1  IDiag  1:
 E= -103.794189273125     Delta-E=       -0.000000009013 Rises=F Damp=F
 DIIS: error= 5.61D-06 at cycle  18 NSaved=  18.
 NSaved=18 IEnMin=18 EnMin= -103.794189273125     IErMin=18 ErrMin= 5.61D-06
 ErrMax= 5.61D-06  0.00D+00 EMaxC= 1.00D-01 BMatC= 3.96D-09 BMatP= 5.17D-09
 IDIUse=1 WtCom= 1.00D+00 WtEn= 0.00D+00
 Coeff-Com:  0.183D-03-0.209D-03 0.708D-04-0.225D-03 0.109D-02-0.109D-01
 Coeff-Com:  0.191D-02 0.579D-01-0.608D-01 0.416D-01-0.691D-01 0.182D-01
 Coeff-Com:  0.418D-01 0.203D+00-0.681D+00-0.359D-01-0.114D+01 0.264D+01
 Coeff:      0.183D-03-0.209D-03 0.708D-04-0.225D-03 0.109D-02-0.109D-01
 Coeff:      0.191D-02 0.579D-01-0.608D-01 0.416D-01-0.691D-01 0.182D-01
 Coeff:      0.418D-01 0.203D+00-0.681D+00-0.359D-01-0.114D+01 0.264D+01
 Gap=     0.085 Goal=   None    Shift=    0.400
 RMSDP=6.82D-07 MaxDP=7.91D-05 DE=-9.01D-09 OVMax= 5.87D-05

 Cycle  19  Pass 1  IDiag  1:
 E= -103.794189279507     Delta-E=       -0.000000006382 Rises=F Damp=F
 DIIS: error= 3.95D-06 at cycle  19 NSaved=  19.
 NSaved=19 IEnMin=19 EnMin= -103.794189279507     IErMin=19 ErrMin= 3.95D-06
 ErrMax= 3.95D-06  0.00D+00 EMaxC= 1.00D-01 BMatC= 1.34D-09 BMatP= 3.96D-09
 IDIUse=1 WtCom= 1.00D+00 WtEn= 0.00D+00
 Coeff-Com:  0.140D-03-0.159D-03 0.710D-05-0.106D-03 0.100D-02-0.395D-02
 Coeff-Com: -0.754D-02 0.379D-01-0.392D-01 0.554D-01-0.513D-01 0.785D-02
 Coeff-Com: -0.319D-01 0.861D-01-0.221D+00 0.178D+00-0.131D+01 0.540D+00
 Coeff-Com:  0.176D+01
 Coeff:      0.140D-03-0.159D-03 0.710D-05-0.106D-03 0.100D-02-0.395D-02
 Coeff:     -0.754D-02 0.379D-01-0.392D-01 0.554D-01-0.513D-01 0.785D-02
 Coeff:     -0.319D-01 0.861D-01-0.221D+00 0.178D+00-0.131D+01 0.540D+00
 Coeff:      0.176D+01
 Gap=     0.085 Goal=   None    Shift=    0.400
 RMSDP=3.68D-07 MaxDP=5.82D-05 DE=-6.38D-09 OVMax= 4.27D-05

 Cycle  20  Pass 1  IDiag  1:
 E= -103.794189282050     Delta-E=       -0.000000002543 Rises=F Damp=F
 DIIS: error= 2.88D-06 at cycle  20 NSaved=  20.
 NSaved=20 IEnMin=20 EnMin= -103.794189282050     IErMin=20 ErrMin= 2.88D-06
 ErrMax= 2.88D-06  0.00D+00 EMaxC= 1.00D-01 BMatC= 6.84D-10 BMatP= 1.34D-09
 IDIUse=1 WtCom= 1.00D+00 WtEn= 0.00D+00
 Coeff-Com:  0.276D-03-0.315D-03 0.459D-04-0.720D-04 0.541D-03-0.714D-03
 Coeff-Com: -0.157D-02 0.418D-02-0.135D-01 0.255D-01-0.450D-02 0.196D-01
 Coeff-Com: -0.216D-01-0.968D-01-0.102D+00 0.580D+00-0.231D+00-0.910D+00
 Coeff-Com: -0.140D+01 0.316D+01
 Coeff:      0.276D-03-0.315D-03 0.459D-04-0.720D-04 0.541D-03-0.714D-03
 Coeff:     -0.157D-02 0.418D-02-0.135D-01 0.255D-01-0.450D-02 0.196D-01
 Coeff:     -0.216D-01-0.968D-01-0.102D+00 0.580D+00-0.231D+00-0.910D+00
 Coeff:     -0.140D+01 0.316D+01
 Gap=     0.085 Goal=   None    Shift=    0.400
 RMSDP=3.09D-07 MaxDP=4.43D-05 DE=-2.54D-09 OVMax= 2.96D-05

 Cycle  21  Pass 1  IDiag  1:
 E= -103.794189283179     Delta-E=       -0.000000001129 Rises=F Damp=F
 DIIS: error= 2.18D-06 at cycle  21 NSaved=  20.
 NSaved=20 IEnMin=20 EnMin= -103.794189283179     IErMin=20 ErrMin= 2.18D-06
 ErrMax= 2.18D-06  0.00D+00 EMaxC= 1.00D-01 BMatC= 5.36D-10 BMatP= 6.84D-10
 IDIUse=1 WtCom= 1.00D+00 WtEn= 0.00D+00
 Coeff-Com:  0.190D-06 0.113D-04-0.105D-03 0.825D-03-0.301D-02 0.564D-02
 Coeff-Com: -0.670D-02-0.737D-03 0.106D-01-0.874D-02 0.391D-01-0.261D-02
 Coeff-Com: -0.118D+00-0.154D+00 0.527D+00 0.971D-02-0.462D+00-0.156D+01
 Coeff-Com:  0.108D+01 0.164D+01
 Coeff:      0.190D-06 0.113D-04-0.105D-03 0.825D-03-0.301D-02 0.564D-02
 Coeff:     -0.670D-02-0.737D-03 0.106D-01-0.874D-02 0.391D-01-0.261D-02
 Coeff:     -0.118D+00-0.154D+00 0.527D+00 0.971D-02-0.462D+00-0.156D+01
 Coeff:      0.108D+01 0.164D+01
 Gap=     0.085 Goal=   None    Shift=    0.400
 RMSDP=2.58D-07 MaxDP=2.86D-05 DE=-1.13D-09 OVMax= 2.15D-05

 Cycle  22  Pass 1  IDiag  1:
 E= -103.794189283999     Delta-E=       -0.000000000819 Rises=F Damp=F
 DIIS: error= 1.54D-06 at cycle  22 NSaved=  20.
 NSaved=20 IEnMin=20 EnMin= -103.794189283999     IErMin=20 ErrMin= 1.54D-06
 ErrMax= 1.54D-06  0.00D+00 EMaxC= 1.00D-01 BMatC= 1.87D-10 BMatP= 5.36D-10
 IDIUse=1 WtCom= 1.00D+00 WtEn= 0.00D+00
 Coeff-Com:  0.507D-05-0.180D-04 0.144D-03-0.155D-02 0.692D-02-0.137D-01
 Coeff-Com:  0.519D-02 0.159D-01-0.188D-01 0.203D-01 0.784D-02 0.453D-03
 Coeff-Com: -0.181D+00 0.179D+00-0.468D-01 0.270D+00-0.607D+00 0.188D+00
 Coeff-Com: -0.186D+01 0.303D+01
 Coeff:      0.507D-05-0.180D-04 0.144D-03-0.155D-02 0.692D-02-0.137D-01
 Coeff:      0.519D-02 0.159D-01-0.188D-01 0.203D-01 0.784D-02 0.453D-03
 Coeff:     -0.181D+00 0.179D+00-0.468D-01 0.270D+00-0.607D+00 0.188D+00
 Coeff:     -0.186D+01 0.303D+01
 Gap=     0.085 Goal=   None    Shift=    0.400
 RMSDP=1.48D-07 MaxDP=1.84D-05 DE=-8.19D-10 OVMax= 1.54D-05

 Cycle  23  Pass 1  IDiag  1:
 E= -103.794189284352     Delta-E=       -0.000000000353 Rises=F Damp=F
 DIIS: error= 1.16D-06 at cycle  23 NSaved=  20.
 NSaved=20 IEnMin=20 EnMin= -103.794189284352     IErMin=20 ErrMin= 1.16D-06
 ErrMax= 1.16D-06  0.00D+00 EMaxC= 1.00D-01 BMatC= 1.11D-10 BMatP= 1.87D-10
 IDIUse=1 WtCom= 1.00D+00 WtEn= 0.00D+00
 Coeff-Com:  0.159D-04-0.232D-03-0.203D-04 0.429D-02-0.104D-01 0.399D-02
 Coeff-Com:  0.128D-01-0.109D-01 0.156D-02-0.832D-02 0.641D-01-0.985D-01
 Coeff-Com:  0.168D-01-0.131D+00 0.299D+00-0.279D+00 0.525D+00-0.223D+01
 Coeff-Com:  0.130D+01 0.154D+01
 Coeff:      0.159D-04-0.232D-03-0.203D-04 0.429D-02-0.104D-01 0.399D-02
 Coeff:      0.128D-01-0.109D-01 0.156D-02-0.832D-02 0.641D-01-0.985D-01
 Coeff:      0.168D-01-0.131D+00 0.299D+00-0.279D+00 0.525D+00-0.223D+01
 Coeff:      0.130D+01 0.154D+01
 Gap=     0.085 Goal=   None    Shift=    0.400
 RMSDP=9.90D-08 MaxDP=1.27D-05 DE=-3.53D-10 OVMax= 1.18D-05

 Cycle  24  Pass 1  IDiag  1:
 E= -103.794189284554     Delta-E=       -0.000000000201 Rises=F Damp=F
 DIIS: error= 8.59D-07 at cycle  24 NSaved=  20.
 NSaved=20 IEnMin=20 EnMin= -103.794189284554     IErMin=20 ErrMin= 8.59D-07
 ErrMax= 8.59D-07  0.00D+00 EMaxC= 1.00D-01 BMatC= 6.57D-11 BMatP= 1.11D-10
 IDIUse=1 WtCom= 1.00D+00 WtEn= 0.00D+00
 Coeff-Com: -0.112D-03 0.650D-03-0.180D-02 0.334D-02-0.411D-02 0.145D-02
 Coeff-Com:  0.479D-02-0.439D-02-0.105D-01 0.216D-01-0.865D-02 0.715D-01
 Coeff-Com: -0.116D+00-0.184D-01-0.306D+00 0.865D+00-0.519D+00-0.229D+00
 Coeff-Com: -0.235D+01 0.360D+01
 Coeff:     -0.112D-03 0.650D-03-0.180D-02 0.334D-02-0.411D-02 0.145D-02
 Coeff:      0.479D-02-0.439D-02-0.105D-01 0.216D-01-0.865D-02 0.715D-01
 Coeff:     -0.116D+00-0.184D-01-0.306D+00 0.865D+00-0.519D+00-0.229D+00
 Coeff:     -0.235D+01 0.360D+01
 Gap=     0.085 Goal=   None    Shift=    0.400
 RMSDP=7.37D-08 MaxDP=1.03D-05 DE=-2.01D-10 OVMax= 8.27D-06

 Cycle  25  Pass 1  IDiag  1:
 E= -103.794189284665     Delta-E=       -0.000000000111 Rises=F Damp=F
 DIIS: error= 6.61D-07 at cycle  25 NSaved=  20.
 NSaved=20 IEnMin=20 EnMin= -103.794189284665     IErMin=20 ErrMin= 6.61D-07
 ErrMax= 6.61D-07  0.00D+00 EMaxC= 1.00D-01 BMatC= 4.03D-11 BMatP= 6.57D-11
 IDIUse=1 WtCom= 1.00D+00 WtEn= 0.00D+00
 Coeff-Com:  0.749D-03-0.314D-02 0.517D-02-0.384D-02-0.268D-02 0.803D-02
 Coeff-Com: -0.126D-02-0.696D-02-0.251D-02-0.842D-02 0.112D+00-0.632D-01
 Coeff-Com: -0.712D-01-0.384D+00 0.670D+00 0.289D-01-0.852D-01-0.273D+01
 Coeff-Com:  0.234D+01 0.120D+01
 Coeff:      0.749D-03-0.314D-02 0.517D-02-0.384D-02-0.268D-02 0.803D-02
 Coeff:     -0.126D-02-0.696D-02-0.251D-02-0.842D-02 0.112D+00-0.632D-01
 Coeff:     -0.712D-01-0.384D+00 0.670D+00 0.289D-01-0.852D-01-0.273D+01
 Coeff:      0.234D+01 0.120D+01
 Gap=     0.085 Goal=   None    Shift=    0.400
 RMSDP=5.25D-08 MaxDP=6.12D-06 DE=-1.11D-10 OVMax= 6.43D-06

 Cycle  26  Pass 1  IDiag  1:
 E= -103.794189284730     Delta-E=       -0.000000000065 Rises=F Damp=F
 DIIS: error= 5.04D-07 at cycle  26 NSaved=  20.
 NSaved=20 IEnMin=20 EnMin= -103.794189284730     IErMin=20 ErrMin= 5.04D-07
 ErrMax= 5.04D-07  0.00D+00 EMaxC= 1.00D-01 BMatC= 2.55D-11 BMatP= 4.03D-11
 IDIUse=1 WtCom= 1.00D+00 WtEn= 0.00D+00
 Coeff-Com: -0.931D-03 0.234D-02-0.204D-02-0.615D-03 0.213D-02 0.659D-03
 Coeff-Com: -0.428D-02 0.389D-02-0.105D-01 0.417D-01-0.317D-01 0.682D-01
 Coeff-Com: -0.165D+00 0.105D+00-0.227D+00 0.638D+00-0.104D+01 0.881D+00
 Coeff-Com: -0.325D+01 0.398D+01
 Coeff:     -0.931D-03 0.234D-02-0.204D-02-0.615D-03 0.213D-02 0.659D-03
 Coeff:     -0.428D-02 0.389D-02-0.105D-01 0.417D-01-0.317D-01 0.682D-01
 Coeff:     -0.165D+00 0.105D+00-0.227D+00 0.638D+00-0.104D+01 0.881D+00
 Coeff:     -0.325D+01 0.398D+01
 Gap=     0.085 Goal=   None    Shift=    0.400
 RMSDP=4.52D-08 MaxDP=4.01D-06 DE=-6.53D-11 OVMax= 4.79D-06

 Cycle  27  Pass 1  IDiag  1:
 E= -103.794189284769     Delta-E=       -0.000000000039 Rises=F Damp=F
 DIIS: error= 3.93D-07 at cycle  27 NSaved=  20.
 NSaved=20 IEnMin=20 EnMin= -103.794189284769     IErMin=20 ErrMin= 3.93D-07
 ErrMax= 3.93D-07  0.00D+00 EMaxC= 1.00D-01 BMatC= 1.60D-11 BMatP= 2.55D-11
 IDIUse=1 WtCom= 1.00D+00 WtEn= 0.00D+00
 Coeff-Com: -0.187D-03 0.260D-03-0.706D-03 0.196D-02-0.129D-02-0.720D-02
 Coeff-Com:  0.110D-01 0.127D-01-0.302D-02-0.290D-01 0.463D-01-0.742D-01
 Coeff-Com:  0.100D+00-0.131D+00 0.296D+00-0.599D+00 0.982D+00-0.313D+01
 Coeff-Com:  0.139D+01 0.214D+01
 Coeff:     -0.187D-03 0.260D-03-0.706D-03 0.196D-02-0.129D-02-0.720D-02
 Coeff:      0.110D-01 0.127D-01-0.302D-02-0.290D-01 0.463D-01-0.742D-01
 Coeff:      0.100D+00-0.131D+00 0.296D+00-0.599D+00 0.982D+00-0.313D+01
 Coeff:      0.139D+01 0.214D+01
 Gap=     0.085 Goal=   None    Shift=    0.400
 RMSDP=3.06D-08 MaxDP=3.09D-06 DE=-3.88D-11 OVMax= 3.67D-06

 Cycle  28  Pass 1  IDiag  1:
 E= -103.794189284792     Delta-E=       -0.000000000024 Rises=F Damp=F
 DIIS: error= 3.09D-07 at cycle  28 NSaved=  20.
 NSaved=20 IEnMin=20 EnMin= -103.794189284792     IErMin=20 ErrMin= 3.09D-07
 ErrMax= 3.09D-07  0.00D+00 EMaxC= 1.00D-01 BMatC= 1.01D-11 BMatP= 1.60D-11
 IDIUse=1 WtCom= 1.00D+00 WtEn= 0.00D+00
 Coeff-Com:  0.153D-05-0.101D-02 0.227D-02-0.200D-02-0.506D-02 0.880D-02
 Coeff-Com:  0.154D-01-0.329D-02-0.247D-01 0.255D-02-0.500D-01 0.183D+00
 Coeff-Com: -0.231D-01-0.188D-01-0.707D+00 0.105D+01-0.152D+01 0.302D+00
 Coeff-Com: -0.438D+00 0.223D+01
 Coeff:      0.153D-05-0.101D-02 0.227D-02-0.200D-02-0.506D-02 0.880D-02
 Coeff:      0.154D-01-0.329D-02-0.247D-01 0.255D-02-0.500D-01 0.183D+00
 Coeff:     -0.231D-01-0.188D-01-0.707D+00 0.105D+01-0.152D+01 0.302D+00
 Coeff:     -0.438D+00 0.223D+01
 Gap=     0.085 Goal=   None    Shift=    0.400
 RMSDP=2.74D-08 MaxDP=1.87D-06 DE=-2.37D-11 OVMax= 2.84D-06

 Cycle  29  Pass 1  IDiag  1:
 E= -103.794189284806     Delta-E=       -0.000000000014 Rises=F Damp=F
 DIIS: error= 2.43D-07 at cycle  29 NSaved=  20.
 NSaved=20 IEnMin=20 EnMin= -103.794189284806     IErMin=20 ErrMin= 2.43D-07
 ErrMax= 2.43D-07  0.00D+00 EMaxC= 1.00D-01 BMatC= 6.49D-12 BMatP= 1.01D-11
 IDIUse=1 WtCom= 1.00D+00 WtEn= 0.00D+00
 Large coefficients: NSaved= 20 BigCof=    0.00 CofMax=   10.00 Det=-7.68D-15
 Inversion failed.  Reducing to 19 matrices.
 Large coefficients: NSaved= 19 BigCof=    0.00 CofMax=   10.00 Det=-7.68D-15
 Inversion failed.  Reducing to 18 matrices.
 Large coefficients: NSaved= 18 BigCof=    0.00 CofMax=   10.00 Det=-8.31D-15
 Inversion failed.  Reducing to 17 matrices.
 Large coefficients: NSaved= 17 BigCof=    0.00 CofMax=   10.00 Det=-8.48D-15
 Inversion failed.  Reducing to 16 matrices.
 Large coefficients: NSaved= 16 BigCof=    0.00 CofMax=   10.00 Det=-8.66D-15
 Inversion failed.  Reducing to 15 matrices.
 Coeff-Com:  0.111D-02 0.299D-02-0.915D-02 0.190D-01-0.252D-01 0.257D-01
 Coeff-Com:  0.744D-02 0.112D+00-0.332D+00 0.439D+00-0.860D+00 0.721D+00
 Coeff-Com: -0.914D+00-0.158D+01 0.339D+01
 Coeff:      0.111D-02 0.299D-02-0.915D-02 0.190D-01-0.252D-01 0.257D-01
 Coeff:      0.744D-02 0.112D+00-0.332D+00 0.439D+00-0.860D+00 0.721D+00
 Coeff:     -0.914D+00-0.158D+01 0.339D+01
 Gap=     0.085 Goal=   None    Shift=    0.400
 RMSDP=2.14D-08 MaxDP=1.50D-06 DE=-1.41D-11 OVMax= 2.24D-06

 Cycle  30  Pass 1  IDiag  1:
 E= -103.794189284816     Delta-E=       -0.000000000009 Rises=F Damp=F
 DIIS: error= 1.91D-07 at cycle  30 NSaved=  16.
 NSaved=16 IEnMin=16 EnMin= -103.794189284816     IErMin=16 ErrMin= 1.91D-07
 ErrMax= 1.91D-07  0.00D+00 EMaxC= 1.00D-01 BMatC= 4.05D-12 BMatP= 6.49D-12
 IDIUse=1 WtCom= 1.00D+00 WtEn= 0.00D+00
 Large coefficients: NSaved= 16 BigCof=    0.00 CofMax=   10.00 Det=-5.55D-15
 Inversion failed.  Reducing to 15 matrices.
 Coeff-Com:  0.273D-02-0.114D-01 0.343D-01-0.105D-01-0.995D-02-0.507D-01
 Coeff-Com:  0.164D+00-0.291D+00 0.407D+00-0.927D+00 0.676D+00 0.795D-01
 Coeff-Com: -0.152D+01 0.557D+00 0.190D+01
 Coeff:      0.273D-02-0.114D-01 0.343D-01-0.105D-01-0.995D-02-0.507D-01
 Coeff:      0.164D+00-0.291D+00 0.407D+00-0.927D+00 0.676D+00 0.795D-01
 Coeff:     -0.152D+01 0.557D+00 0.190D+01
 Gap=     0.085 Goal=   None    Shift=    0.400
 RMSDP=1.83D-08 MaxDP=1.26D-06 DE=-9.38D-12 OVMax= 1.75D-06

 Cycle  31  Pass 1  IDiag  1:
 E= -103.794189284821     Delta-E=       -0.000000000005 Rises=F Damp=F
 DIIS: error= 1.53D-07 at cycle  31 NSaved=  16.
 NSaved=16 IEnMin=16 EnMin= -103.794189284821     IErMin=16 ErrMin= 1.53D-07
 ErrMax= 1.53D-07  0.00D+00 EMaxC= 1.00D-01 BMatC= 2.63D-12 BMatP= 4.05D-12
 IDIUse=1 WtCom= 1.00D+00 WtEn= 0.00D+00
 Large coefficients: NSaved= 16 BigCof=    0.00 CofMax=   10.00 Det=-4.17D-15
 Inversion failed.  Reducing to 15 matrices.
 Coeff-Com:  0.182D-03 0.251D-01-0.141D-01-0.457D-01-0.383D-01 0.201D+00
 Coeff-Com: -0.184D+00 0.164D+00-0.749D+00 0.706D+00 0.942D+00-0.138D+01
 Coeff-Com: -0.122D+01-0.177D+00 0.277D+01
 Coeff:      0.182D-03 0.251D-01-0.141D-01-0.457D-01-0.383D-01 0.201D+00
 Coeff:     -0.184D+00 0.164D+00-0.749D+00 0.706D+00 0.942D+00-0.138D+01
 Coeff:     -0.122D+01-0.177D+00 0.277D+01
 Gap=     0.085 Goal=   None    Shift=    0.400
 RMSDP=1.46D-08 MaxDP=9.73D-07 DE=-5.50D-12 OVMax= 1.36D-06

 Cycle  32  Pass 1  IDiag  1:
 E= -103.794189284825     Delta-E=       -0.000000000004 Rises=F Damp=F
 DIIS: error= 1.20D-07 at cycle  32 NSaved=  16.
 NSaved=16 IEnMin=16 EnMin= -103.794189284825     IErMin=16 ErrMin= 1.20D-07
 ErrMax= 1.20D-07  0.00D+00 EMaxC= 1.00D-01 BMatC= 1.63D-12 BMatP= 2.63D-12
 IDIUse=1 WtCom= 1.00D+00 WtEn= 0.00D+00
 Large coefficients: NSaved= 16 BigCof=    0.00 CofMax=   10.00 Det=-3.38D-15
 Inversion failed.  Reducing to 15 matrices.
 Coeff-Com:  0.750D-02 0.152D-02-0.100D-01-0.180D-01 0.928D-01-0.171D+00
 Coeff-Com:  0.163D+00-0.296D+00 0.133D+00 0.438D+00-0.146D+00-0.621D+00
 Coeff-Com: -0.133D+01 0.516D+00 0.224D+01
 Coeff:      0.750D-02 0.152D-02-0.100D-01-0.180D-01 0.928D-01-0.171D+00
 Coeff:      0.163D+00-0.296D+00 0.133D+00 0.438D+00-0.146D+00-0.621D+00
 Coeff:     -0.133D+01 0.516D+00 0.224D+01
 Gap=     0.085 Goal=   None    Shift=    0.400
 RMSDP=1.08D-08 MaxDP=7.97D-07 DE=-3.61D-12 OVMax= 1.07D-06

 Cycle  33  Pass 1  IDiag  1:
 E= -103.794189284827     Delta-E=       -0.000000000002 Rises=F Damp=F
 DIIS: error= 9.36D-08 at cycle  33 NSaved=  16.
 NSaved=16 IEnMin=16 EnMin= -103.794189284827     IErMin=16 ErrMin= 9.36D-08
 ErrMax= 9.36D-08  0.00D+00 EMaxC= 1.00D-01 BMatC= 1.05D-12 BMatP= 1.63D-12
 IDIUse=1 WtCom= 1.00D+00 WtEn= 0.00D+00
 Large coefficients: NSaved= 16 BigCof=    0.00 CofMax=   10.00 Det=-2.11D-15
 Inversion failed.  Reducing to 15 matrices.
 Coeff-Com:  0.769D-02 0.801D-03-0.631D-02 0.332D-01-0.468D-01 0.436D-01
 Coeff-Com: -0.957D-01-0.682D-01 0.836D-01 0.150D+00 0.135D+00-0.147D+01
 Coeff-Com:  0.942D-01 0.652D-01 0.208D+01
 Coeff:      0.769D-02 0.801D-03-0.631D-02 0.332D-01-0.468D-01 0.436D-01
 Coeff:     -0.957D-01-0.682D-01 0.836D-01 0.150D+00 0.135D+00-0.147D+01
 Coeff:      0.942D-01 0.652D-01 0.208D+01
 Gap=     0.085 Goal=   None    Shift=    0.400
 RMSDP=9.37D-09 MaxDP=6.29D-07 DE=-2.23D-12 OVMax= 8.39D-07

 SCF Done:  E(ROHF) =  -103.794189285     A.U. after   33 cycles
            NFock= 33  Conv=0.94D-08     -V/T= 2.7908
 <Sx>= 0.0000 <Sy>= 0.0000 <Sz>= 3.0000 <S**2>=12.0000 S= 3.0000
 <L.S>=  0.00000000000    
 KE= 5.795834402985D+01 PE=-2.462150875984D+02 EE= 8.049372520178D+01
 Annihilation of the first spin contaminant:
 S**2 before annihilation    12.0000,   after    12.0000
 Leave Link  502 at Sat May  5 12:18:42 2018, MaxMem= 21474836480 cpu:             117.9 elap:               5.6
 (Enter /home1/apps/gaussian/16rA.03/g16/l801.exe)
 Windowed orbitals will be sorted by symmetry type.
 GenMOA:  NOpAll=  4 NOp2=4 NOpUse=  4 JSym2X=1
 FoFJK:  IHMeth= 1 ICntrl=       0 DoSepK=F KAlg= 0 I1Cent=           0 FoldK=F
 IRaf=         0 NMat=       1 IRICut=       1 DoRegI=T DoRafI=F ISym2E= 1 IDoP0=0 IntGTp=1.
 FoFCou: FMM=F IPFlag=           8 FMFlag=      100000 FMFlg1=           0
         NFxFlg=           0 DoJE=F BraDBF=F KetDBF=F FulRan=T
         wScrn=  0.000000 ICntrl=         0 IOpCl=  1 I1Cent=           0 NGrid=           0
         NMat0=    1 NMatS0=      1 NMatT0=    0 NMatD0=    1 NMtDS0=    0 NMtDT0=    0
 Petite list used in FoFCou.
 <Sx>= 0.0000 <Sy>= 0.0000 <Sz>= 3.0000 <S**2>=12.0000 S= 3.0000
 Range of M.O.s used for correlation:     1   205
 NBasis=   208 NAE=    11 NBE=     5 NFC=     0 NFV=     0
 NROrb=    205 NOA=    11 NOB=     5 NVA=   194 NVB=   200

 **** Warning!!: The largest alpha MO coefficient is  0.31651051D+03


 **** Warning!!: The largest beta MO coefficient is  0.31584378D+03

 Singles contribution to E2=   -0.1792641065D-02
 Leave Link  801 at Sat May  5 12:18:42 2018, MaxMem= 21474836480 cpu:              24.5 elap:               0.8
 (Enter /home1/apps/gaussian/16rA.03/g16/l804.exe)
 Open-shell transformation, MDV= 21474836480 ITran=4 ISComp=2.
 Unit  1 TFree=       1306034 TCopy=       1026599.
 Semi-Direct transformation.
 ModeAB=           2 MOrb=            11 LenV=   21473435846
 LASXX=     11721218 LTotXX=    11721218 LenRXX=    11721218
 LTotAB=    11968646 MaxLAS=    71316630 LenRXY=    71316630
 NonZer=    72683160 LenScr=   109783040 LnRSAI=           0
 LnScr1=           0 LExtra=     4498847 Total=    197319735
 MaxDsk= 67108864000 SrtSym=           F ITran=            4
 DoSDTr:  NPSUse= 32
 JobTyp=1 Pass  1:  I=   1 to  11.
 (rs|ai) integrals will be sorted in core.
 Complete sort for first half transformation.
 First half transformation complete.
 Begin second half transformation for I=  10.
 Begin second half transformation for I=  10.
 Complete sort for second half transformation.
 Second half transformation complete.
 ModeAB=           2 MOrb=             5 LenV=   21473435846
 LASXX=      5466175 LTotXX=     5466175 LenRXX=    32416650
 LTotAB=     4983668 MaxLAS=    32416650 LenRXY=     4983668
 NonZer=    33037800 LenScr=    50319360 LnRSAI=           0
 LnScr1=           0 LExtra=    87536695 Total=    175256373
 MaxDsk= 67108864000 SrtSym=           F ITran=            4
 DoSDTr:  NPSUse= 32
 JobTyp=2 Pass  1:  I=   1 to   5.
 (rs|ai) integrals will be sorted in core.
 Complete sort for first half transformation.
 First half transformation complete.
 Complete sort for second half transformation.
 Second half transformation complete.
 Spin components of T(2) and E(2):
     alpha-alpha T2 =       0.2450721581D-01 E2=     -0.1519900039D+00
     alpha-beta  T2 =       0.5410327436D-01 E2=     -0.3741172858D+00
     beta-beta   T2 =       0.6199755849D-02 E2=     -0.4045188054D-01
 ANorm=    0.1042009965D+01
 E2 =    -0.5683518113D+00 EUMP2 =    -0.10436254109613D+03
 (S**2,0)=  0.12000D+02           (S**2,1)=  0.12000D+02
 E(PUHF)=      -0.10379418928D+03        E(PMP2)=      -0.10436254110D+03
 Leave Link  804 at Sat May  5 12:19:09 2018, MaxMem= 21474836480 cpu:             828.3 elap:              26.0
 (Enter /home1/apps/gaussian/16rA.03/g16/l913.exe)
 CIDS:  MDV= 21474836480.
 IFCWin=0 IBDFC=1 NFBD=     0     0 NFCmp=     0     0 NFFFC=     0     0
 Using original routines for 1st iteration.
 Using DD4UQ or CC4UQ for 2nd and later iterations.
 Keep R2 and R3 ints in memory in symmetry-blocked form, NReq=296677674.
 FoFCou: FMM=F IPFlag=           8 FMFlag=           0 FMFlg1=           0
         NFxFlg=           0 DoJE=F BraDBF=F KetDBF=F FulRan=T
         wScrn=  0.000000 ICntrl=       600 IOpCl=  0 I1Cent=           0 NGrid=           0
         NMat0=    1 NMatS0=  21736 NMatT0=    0 NMatD0=    1 NMtDS0=    0 NMtDT0=    0
 Petite list used in FoFCou.
 CIDS: In Core Option IDoMem=           1.
 CCSD(T)
 =======
 Iterations= 150 Convergence= 0.100D-06
 Produce multiple copies of IABC intergrals
 Iteration Nr.   1
 **********************
 DD1Dir will call FoFMem   1 times, MxPair=       176
 NAB=    55 NAA=    55 NBB=    10.
 DD1Dir will call FoFMem   1 times, MxPair=       176
 NAB=    55 NAA=    55 NBB=    10.
 MP4(R+Q)=  0.97833446D-02
 Maximum subspace dimension=  5
 A-vector RMS=  9.2807339D-05 Max=  9.3246171D-04 conv= 1.00D-05.
 RLE energy=       -0.5613691260
 E3=       -0.27484535D-02        EROMP3=      -0.10436528955D+03
 E4(SDQ)=  -0.46183666D-02        ROMP4(SDQ)=  -0.10436990792D+03
 VARIATIONAL ENERGIES WITH THE FIRST-ORDER WAVEFUNCTION:
 DE(Corr)= -0.56128162     E(Corr)=     -104.35547091    
 NORM(A)=   0.10402392D+01
 Iteration Nr.   2
 **********************
 DD1Dir will call FoFMem   1 times, MxPair=       176
 NAB=    55 NAA=    55 NBB=    10.
 A-vector RMS=  2.2207612D-03 Max=  1.5023638D-02 conv= 1.00D-05.
 RLE energy=       -0.5618126972
 DE(Corr)= -0.56383474     E(CORR)=     -104.35802402     Delta=-2.55D-03
 NORM(A)=   0.10408872D+01
 Iteration Nr.   3
 **********************
 DD1Dir will call FoFMem   1 times, MxPair=       176
 NAB=    55 NAA=    55 NBB=    10.
 A-vector RMS=  1.9300561D-03 Max=  1.3724446D-02 conv= 1.00D-05.
 RLE energy=       -0.5684377746
 DE(Corr)= -0.56564412     E(CORR)=     -104.35983340     Delta=-1.81D-03
 NORM(A)=   0.10452077D+01
 Iteration Nr.   4
 **********************
 DD1Dir will call FoFMem   1 times, MxPair=       176
 NAB=    55 NAA=    55 NBB=    10.
 A-vector RMS=  1.3826828D-03 Max=  1.0684123D-02 conv= 1.00D-05.
 RLE energy=       -0.5863086492
 DE(Corr)= -0.56975428     E(CORR)=     -104.36394356     Delta=-4.11D-03
 NORM(A)=   0.10748931D+01
 Iteration Nr.   5
 **********************
 DD1Dir will call FoFMem   1 times, MxPair=       176
 NAB=    55 NAA=    55 NBB=    10.
 A-vector RMS=  1.2356872D-03 Max=  9.9560390D-03 conv= 1.00D-05.
 RLE energy=       -0.5772102782
 DE(Corr)= -0.58451769     E(CORR)=     -104.37870697     Delta=-1.48D-02
 NORM(A)=   0.10589648D+01
 Iteration Nr.   6
 **********************
 DD1Dir will call FoFMem   1 times, MxPair=       176
 NAB=    55 NAA=    55 NBB=    10.
 A-vector RMS=  1.5275842D-04 Max=  1.6838089D-03 conv= 1.00D-05.
 RLE energy=       -0.5769570528
 DE(Corr)= -0.57715052     E(CORR)=     -104.37133980     Delta= 7.37D-03
 NORM(A)=   0.10594323D+01
 Iteration Nr.   7
 **********************
 DD1Dir will call FoFMem   1 times, MxPair=       176
 NAB=    55 NAA=    55 NBB=    10.
 A-vector RMS=  4.7799977D-05 Max=  4.3179236D-04 conv= 1.00D-05.
 RLE energy=       -0.5769730011
 DE(Corr)= -0.57695203     E(CORR)=     -104.37114131     Delta= 1.98D-04
 NORM(A)=   0.10596926D+01
 Iteration Nr.   8
 **********************
 DD1Dir will call FoFMem   1 times, MxPair=       176
 NAB=    55 NAA=    55 NBB=    10.
 A-vector RMS=  2.6115202D-05 Max=  2.7440262D-04 conv= 1.00D-05.
 RLE energy=       -0.5769673982
 DE(Corr)= -0.57698637     E(CORR)=     -104.37117566     Delta=-3.43D-05
 NORM(A)=   0.10596743D+01
 Iteration Nr.   9
 **********************
 DD1Dir will call FoFMem   1 times, MxPair=       176
 NAB=    55 NAA=    55 NBB=    10.
 A-vector RMS=  8.1996918D-06 Max=  6.9139928D-05 conv= 1.00D-05.
 RLE energy=       -0.5769739447
 DE(Corr)= -0.57696562     E(CORR)=     -104.37115490     Delta= 2.08D-05
 NORM(A)=   0.10596871D+01
 Iteration Nr.  10
 **********************
 DD1Dir will call FoFMem   1 times, MxPair=       176
 NAB=    55 NAA=    55 NBB=    10.
 A-vector RMS=  5.0019583D-06 Max=  5.7171060D-05 conv= 1.00D-05.
 RLE energy=       -0.5769730689
 DE(Corr)= -0.57697340     E(CORR)=     -104.37116268     Delta=-7.78D-06
 NORM(A)=   0.10596718D+01
 Iteration Nr.  11
 **********************
 DD1Dir will call FoFMem   1 times, MxPair=       176
 NAB=    55 NAA=    55 NBB=    10.
 A-vector RMS=  3.2474494D-06 Max=  3.1119690D-05 conv= 1.00D-05.
 RLE energy=       -0.5769713387
 DE(Corr)= -0.57697086     E(CORR)=     -104.37116015     Delta= 2.53D-06
 NORM(A)=   0.10596668D+01
 Iteration Nr.  12
 **********************
 DD1Dir will call FoFMem   1 times, MxPair=       176
 NAB=    55 NAA=    55 NBB=    10.
 A-vector RMS=  1.5122292D-06 Max=  1.7190662D-05 conv= 1.00D-05.
 RLE energy=       -0.5769720602
 DE(Corr)= -0.57697185     E(CORR)=     -104.37116113     Delta=-9.85D-07
 NORM(A)=   0.10596631D+01
 Iteration Nr.  13
 **********************
 DD1Dir will call FoFMem   1 times, MxPair=       176
 NAB=    55 NAA=    55 NBB=    10.
 A-vector RMS=  1.3064041D-06 Max=  1.4345579D-05 conv= 1.00D-05.
 RLE energy=       -0.5769718032
 DE(Corr)= -0.57697141     E(CORR)=     -104.37116070     Delta= 4.39D-07
 NORM(A)=   0.10596638D+01
 Iteration Nr.  14
 **********************
 DD1Dir will call FoFMem   1 times, MxPair=       176
 NAB=    55 NAA=    55 NBB=    10.
 A-vector RMS=  4.2145828D-07 Max=  3.9061730D-06 conv= 1.00D-05.
 RLE energy=       -0.5769720812
 DE(Corr)= -0.57697197     E(CORR)=     -104.37116126     Delta=-5.61D-07
 NORM(A)=   0.10596649D+01
 Iteration Nr.  15
 **********************
 DD1Dir will call FoFMem   1 times, MxPair=       176
 NAB=    55 NAA=    55 NBB=    10.
 A-vector RMS=  3.9393366D-07 Max=  5.0512049D-06 conv= 1.00D-05.
 RLE energy=       -0.5769724034
 DE(Corr)= -0.57697218     E(CORR)=     -104.37116147     Delta=-2.12D-07
 NORM(A)=   0.10596661D+01
 Iteration Nr.  16
 **********************
 DD1Dir will call FoFMem   1 times, MxPair=       176
 NAB=    55 NAA=    55 NBB=    10.
 A-vector RMS=  1.9929809D-07 Max=  2.2252349D-06 conv= 1.00D-05.
 RLE energy=       -0.5769723978
 DE(Corr)= -0.57697233     E(CORR)=     -104.37116161     Delta=-1.46D-07
 NORM(A)=   0.10596670D+01
 Iteration Nr.  17
 **********************
 DD1Dir will call FoFMem   1 times, MxPair=       176
 NAB=    55 NAA=    55 NBB=    10.
 A-vector RMS=  1.0558398D-07 Max=  1.0568324D-06 conv= 1.00D-05.
 RLE energy=       -0.5769725581
 DE(Corr)= -0.57697250     E(CORR)=     -104.37116178     Delta=-1.69D-07
 NORM(A)=   0.10596674D+01
 Iteration Nr.  18
 **********************
 DD1Dir will call FoFMem   1 times, MxPair=       176
 NAB=    55 NAA=    55 NBB=    10.
 A-vector RMS=  6.5843617D-08 Max=  7.2953598D-07 conv= 1.00D-05.
 RLE energy=       -0.5769725419
 DE(Corr)= -0.57697252     E(CORR)=     -104.37116180     Delta=-2.07D-08
 NORM(A)=   0.10596676D+01
 CI/CC converged in   18 iterations to DelEn=-2.07D-08 Conv= 1.00D-07 ErrA1= 6.58D-08 Conv= 1.00D-05
 Wavefunction amplitudes converged. E(Corr)=     -104.37116180    
 Largest amplitude= 5.52D-02
 Time for triples=     2794.98 seconds.
 T4(CCSD)= -0.16270654D-01
 T5(CCSD)=  0.68167641D-03
 CCSD(T)= -0.10438675078D+03
 Discarding MO integrals.
 Leave Link  913 at Sat May  5 12:21:30 2018, MaxMem= 21474836480 cpu:            4507.7 elap:             141.9
 (Enter /home1/apps/gaussian/16rA.03/g16/l601.exe)
 Copying SCF densities to generalized density rwf, IOpCl= 0 IROHF=1.

 **********************************************************************

            Population analysis using the SCF density.

 **********************************************************************

 Orbital symmetries:
       Occupied  (SG) (PI) (PI) (SG) (SG) (DLTA) (DLTA) (PI) (PI)
                 (SG) (SG)
       Virtual   (PI) (PI) (SG) (SG) (PI) (PI) (SG) (DLTA) (DLTA)
                 (PI) (PI) (SG) (SG) (SG) (PI) (PI) (SG) (PI) (PI)
                 (DLTA) (DLTA) (PI) (PI) (SG) (SG) (SG) (SG) (DLTA)
                 (DLTA) (PHI) (PHI) (PI) (PI) (SG) (PI) (PI) (PI)
                 (PI) (SG) (DLTA) (DLTA) (SG) (DLTA) (DLTA) (PI)
                 (PI) (SG) (PI) (PI) (SG) (SG) (PHI) (PHI) (SG)
                 (DLTA) (DLTA) (PI) (PI) (SG) (PI) (PI) (?A) (?A)
                 (PHI) (PHI) (SG) (DLTA) (DLTA) (PI) (PI) (SG)
                 (DLTA) (DLTA) (PI) (PI) (SG) (DLTA) (DLTA) (PI)
                 (PI) (PI) (PI) (SG) (SG) (SG) (PHI) (PHI) (DLTA)
                 (DLTA) (PI) (PI) (SG) (DLTA) (DLTA) (PI) (PI)
                 (SG) (PI) (PI) (SG) (?A) (?A) (PHI) (PHI) (DLTA)
                 (DLTA) (PI) (PI) (SG) (SG) (SG) (DLTA) (DLTA)
                 (PI) (PI) (SG) (PHI) (PHI) (DLTA) (DLTA) (PI)
                 (PI) (SG) (PI) (PI) (SG) (?A) (?A) (PHI) (PHI)
                 (DLTA) (DLTA) (PI) (PI) (SG) (DLTA) (DLTA) (PI)
                 (PI) (SG) (SG) (PI) (PI) (SG) (DLTA) (DLTA) (PI)
                 (PI) (SG) (SG) (SG) (PI) (PI) (SG) (DLTA) (DLTA)
                 (PI) (PI) (SG) (SG) (PI) (PI) (SG) (SG) (PI) (PI)
                 (SG) (SG) (DLTA) (DLTA) (PI) (PI) (SG) (PI) (PI)
                 (SG) (SG) (PI) (PI) (SG) (SG) (PI) (PI) (SG) (SG)
                 (PI) (PI) (SG) (SG) (PI) (PI) (SG) (SG) (SG)
 The electronic state is 7-SG.
 Alpha  occ. eigenvalues --   -4.16360  -2.78459  -2.78459  -2.78191  -0.65838
 Alpha  occ. eigenvalues --   -0.65838  -0.65163  -0.65163  -0.65120  -0.38737
 Alpha  occ. eigenvalues --   -0.27015
 Alpha virt. eigenvalues --    0.01013   0.01013   0.02293   0.03137   0.05510
 Alpha virt. eigenvalues --    0.05510   0.07961   0.08378   0.08378   0.08876
 Alpha virt. eigenvalues --    0.08876   0.10349   0.13307   0.18152   0.22366
 Alpha virt. eigenvalues --    0.22366   0.23744   0.29024   0.29024   0.29308
 Alpha virt. eigenvalues --    0.29308   0.35108   0.35108   0.35809   0.42467
 Alpha virt. eigenvalues --    0.46936   0.68548   0.73832   0.73832   0.75664
 Alpha virt. eigenvalues --    0.75664   0.78270   0.78270   0.83493   0.85124
 Alpha virt. eigenvalues --    0.85124   0.95312   0.95312   0.96514   0.96768
 Alpha virt. eigenvalues --    0.96768   0.99748   1.00891   1.00891   1.12540
 Alpha virt. eigenvalues --    1.12540   1.26869   1.39543   1.39543   1.71598
 Alpha virt. eigenvalues --    1.84619   2.30341   2.30341   2.33687   2.33687
 Alpha virt. eigenvalues --    2.35070   2.37900   2.37900   2.58723   2.59707
 Alpha virt. eigenvalues --    2.59707   2.75391   2.75391   2.76780   2.76780
 Alpha virt. eigenvalues --    2.77139   2.81377   2.81377   2.85254   2.85254
 Alpha virt. eigenvalues --    2.86391   2.86391   2.86490   3.02659   3.02659
 Alpha virt. eigenvalues --    3.43040   3.99525   3.99525   4.12178   4.12178
 Alpha virt. eigenvalues --    4.33573   4.33573   4.44525   4.92710   5.18748
 Alpha virt. eigenvalues --    6.33739   6.33739   6.35659   6.35659   6.39842
 Alpha virt. eigenvalues --    6.39842   6.59114   6.73575   6.73575   6.78712
 Alpha virt. eigenvalues --    6.78712   6.88019   7.36126   7.36126   7.52505
 Alpha virt. eigenvalues --    8.13336   8.13336   8.14065   8.14065   8.16167
 Alpha virt. eigenvalues --    8.16167   8.26070   8.26070   8.52583  10.29333
 Alpha virt. eigenvalues --   12.13060  13.55656  13.55656  13.60159  13.60159
 Alpha virt. eigenvalues --   13.68343  17.37916  17.37916  17.39051  17.39051
 Alpha virt. eigenvalues --   17.41671  17.41671  17.48869  17.57337  17.57337
 Alpha virt. eigenvalues --   17.75374  22.03733  22.03733  22.04046  22.04046
 Alpha virt. eigenvalues --   22.05049  22.05049  22.09510  22.09510  22.20852
 Alpha virt. eigenvalues --   25.12046  25.12046  25.16090  25.16090  25.22208
 Alpha virt. eigenvalues --   25.48749  36.23390  36.23390  36.40886  45.88434
 Alpha virt. eigenvalues --   45.88434  45.91989  45.91989  45.98695  52.19607
 Alpha virt. eigenvalues --   63.89974  68.98641  68.98641  69.17449 101.94599
 Alpha virt. eigenvalues --  101.94599 101.97406 101.97406 102.02842 104.62236
 Alpha virt. eigenvalues --  128.74307 128.74307 128.92751 187.24605 242.60520
 Alpha virt. eigenvalues --  242.60520 242.78184 335.75254 354.49235 354.49235
 Alpha virt. eigenvalues --  354.50942 354.50942 354.54471 471.75978 471.75978
 Alpha virt. eigenvalues --  471.92605 638.30880 964.76057 964.76057 964.91266
 Alpha virt. eigenvalues -- 1284.565512120.427792120.427792120.563182744.56695
 Alpha virt. eigenvalues -- 5154.513755154.513755154.630486247.01158**********
 Alpha virt. eigenvalues -- ****************************************
     Molecular Orbital Coefficients:
                           1         2         3         4         5
                           O         O         O         O         O
     Eigenvalues --    -4.16360  -2.78459  -2.78459  -2.78191  -0.65838
   1 1   Mn 1S         -0.00001   0.00000   0.00000   0.00000   0.00000
   2        2S          0.00004   0.00000   0.00000  -0.00000  -0.00001
   3        3S         -0.00015   0.00000   0.00000   0.00000   0.00002
   4        4S          0.00051   0.00000   0.00000  -0.00000  -0.00007
   5        5S         -0.00157   0.00000   0.00000   0.00001   0.00021
   6        6S          0.00460   0.00000   0.00000  -0.00002  -0.00061
   7        7S         -0.01380   0.00000   0.00000   0.00006   0.00183
   8        8S          0.04397   0.00000   0.00000  -0.00019  -0.00599
   9        9S          0.02068   0.00000   0.00000   0.00001  -0.00148
  10       10S         -0.54552   0.00000   0.00000   0.00161   0.07225
  11       11S         -0.03724   0.00000   0.00000  -0.00158  -0.00266
  12       12S          0.85507   0.00000   0.00000   0.00144  -0.12640
  13       13S          0.40183   0.00000   0.00000   0.00112  -0.12432
  14       14S          0.01259   0.00000   0.00000   0.00175   0.19442
  15       15S         -0.00635   0.00000   0.00000   0.00459   0.14620
  16       16S          0.00285   0.00000   0.00000  -0.00148   0.02711
  17       17S          0.21755   0.00000   0.00000   0.00056  -0.02606
  18       18S         -0.09409   0.00000   0.00000  -0.00639  -0.00079
  19       19S         -0.00051   0.00000   0.00000  -0.00053  -0.01696
  20       20PX         0.00000  -0.00000   0.00000   0.00000   0.00000
  21       20PY         0.00000   0.00000  -0.00000   0.00000   0.00000
  22       20PZ        -0.00000   0.00000   0.00000  -0.00000  -0.00000
  23       21PX         0.00000   0.00001   0.00000   0.00000   0.00000
  24       21PY         0.00000   0.00000   0.00001   0.00000   0.00000
  25       21PZ         0.00000   0.00000   0.00000   0.00001   0.00000
  26       22PX         0.00000  -0.00006   0.00000   0.00000   0.00000
  27       22PY         0.00000   0.00000  -0.00006   0.00000   0.00000
  28       22PZ        -0.00000   0.00000   0.00000  -0.00006  -0.00000
  29       23PX         0.00000   0.00024   0.00000   0.00000   0.00000
  30       23PY         0.00000   0.00000   0.00024   0.00000   0.00000
  31       23PZ         0.00000   0.00000   0.00000   0.00024   0.00002
  32       24PX         0.00000  -0.00087   0.00000   0.00000   0.00000
  33       24PY         0.00000   0.00000  -0.00087   0.00000   0.00000
  34       24PZ        -0.00000   0.00000   0.00000  -0.00088  -0.00006
  35       25PX         0.00000   0.00330   0.00000   0.00000   0.00000
  36       25PY         0.00000   0.00000   0.00330   0.00000   0.00000
  37       25PZ         0.00002   0.00000   0.00000   0.00333   0.00026
  38       26PX         0.00000  -0.00001   0.00000   0.00000   0.00000
  39       26PY         0.00000   0.00000  -0.00001   0.00000   0.00000
  40       26PZ        -0.00002   0.00000   0.00000  -0.00008   0.00016
  41       27PX         0.00000  -0.08893   0.00000   0.00000   0.00000
  42       27PY         0.00000   0.00000  -0.08893   0.00000   0.00000
  43       27PZ        -0.00015   0.00000   0.00000  -0.08892  -0.00953
  44       28PX         0.00000  -0.00598   0.00000   0.00000   0.00000
  45       28PY         0.00000   0.00000  -0.00598   0.00000   0.00000
  46       28PZ         0.00167   0.00000   0.00000  -0.00190  -0.01547
  47       29PX         0.00000   0.32916   0.00000   0.00000   0.00000
  48       29PY         0.00000   0.00000   0.32916   0.00000   0.00000
  49       29PZ         0.00074   0.00000   0.00000   0.32962   0.03658
  50       30PX         0.00000   0.21873   0.00000   0.00000   0.00000
  51       30PY         0.00000   0.00000   0.21873   0.00000   0.00000
  52       30PZ        -0.00143   0.00000   0.00000   0.22148   0.01900
  53       31PX         0.00000   0.28778   0.00000   0.00000   0.00000
  54       31PY         0.00000   0.00000   0.28778   0.00000   0.00000
  55       31PZ         0.00070   0.00000   0.00000   0.28395   0.04243
  56       32PX         0.00000   0.03989   0.00000   0.00000   0.00000
  57       32PY         0.00000   0.00000   0.03989   0.00000   0.00000
  58       32PZ         0.00093   0.00000   0.00000   0.03915  -0.05944
  59       33PX         0.00000  -0.00338   0.00000   0.00000   0.00000
  60       33PY         0.00000   0.00000  -0.00338   0.00000   0.00000
  61       33PZ         0.00109   0.00000   0.00000  -0.00487  -0.10838
  62       34PX         0.00000   0.00154   0.00000   0.00000   0.00000
  63       34PY         0.00000   0.00000   0.00154   0.00000   0.00000
  64       34PZ         0.00015   0.00000   0.00000   0.00233  -0.03654
  65       35PX         0.00000   0.03566   0.00000   0.00000   0.00000
  66       35PY         0.00000   0.00000   0.03566   0.00000   0.00000
  67       35PZ        -0.00155   0.00000   0.00000   0.03195   0.01845
  68       36PX         0.00000   0.24288   0.00000   0.00000   0.00000
  69       36PY         0.00000   0.00000   0.24288   0.00000   0.00000
  70       36PZ         0.00259   0.00000   0.00000   0.24255   0.02720
  71       37PX         0.00000  -0.00046   0.00000   0.00000   0.00000
  72       37PY         0.00000   0.00000  -0.00046   0.00000   0.00000
  73       37PZ        -0.00011   0.00000   0.00000   0.00010   0.00793
  74       38D 0       -0.00000   0.00000   0.00000   0.00000   0.00002
  75       38D+1        0.00000   0.00000   0.00000   0.00000   0.00000
  76       38D-1        0.00000   0.00000   0.00000   0.00000   0.00000
  77       38D+2        0.00000   0.00000   0.00000  -0.00000   0.00000
  78       38D-2        0.00000   0.00000   0.00000   0.00000   0.00000
  79       39D 0       -0.00006   0.00000   0.00000   0.00011   0.00213
  80       39D+1        0.00000   0.00002   0.00000   0.00000   0.00000
  81       39D-1        0.00000   0.00000   0.00002   0.00000   0.00000
  82       39D+2        0.00000   0.00000   0.00000  -0.00000   0.00000
  83       39D-2        0.00000   0.00000   0.00000   0.00000   0.00000
  84       40D 0       -0.00023   0.00000   0.00000   0.00041   0.00822
  85       40D+1        0.00000   0.00008   0.00000   0.00000   0.00000
  86       40D-1        0.00000   0.00000   0.00008   0.00000   0.00000
  87       40D+2        0.00000   0.00000   0.00000  -0.00000   0.00000
  88       40D-2        0.00000   0.00000   0.00000   0.00000   0.00000
  89       41D 0        0.00000   0.00000   0.00000   0.00087   0.01544
  90       41D+1        0.00000   0.00051   0.00000   0.00000   0.00000
  91       41D-1        0.00000   0.00000   0.00051   0.00000   0.00000
  92       41D+2       -0.00000   0.00000   0.00000  -0.00000   0.00000
  93       41D-2        0.00000   0.00000   0.00000   0.00000   0.00000
  94       42D 0       -0.01212   0.00000   0.00000  -0.00031   0.07743
  95       42D+1        0.00000  -0.00721   0.00000   0.00000   0.00000
  96       42D-1        0.00000   0.00000  -0.00721   0.00000   0.00000
  97       42D+2        0.00000   0.00000   0.00000  -0.00000   0.00000
  98       42D-2        0.00000   0.00000   0.00000   0.00000   0.00000
  99       43D 0       -0.00182   0.00000   0.00000   0.00234   0.03124
 100       43D+1        0.00000   0.00063   0.00000   0.00000   0.00000
 101       43D-1        0.00000   0.00000   0.00063   0.00000   0.00000
 102       43D+2        0.00000   0.00000   0.00000  -0.00000   0.00000
 103       43D-2        0.00000   0.00000   0.00000   0.00000   0.00000
 104       44D 0       -0.00086   0.00000   0.00000   0.00139   0.04437
 105       44D+1        0.00000   0.00036   0.00000   0.00000   0.00000
 106       44D-1        0.00000   0.00000   0.00036   0.00000   0.00000
 107       44D+2        0.00000   0.00000   0.00000  -0.00000   0.00000
 108       44D-2        0.00000   0.00000   0.00000   0.00000   0.00000
 109       45D 0       -0.00021   0.00000   0.00000   0.00137   0.02583
 110       45D+1        0.00000   0.00010   0.00000   0.00000   0.00000
 111       45D-1        0.00000   0.00000   0.00010   0.00000   0.00000
 112       45D+2        0.00000   0.00000   0.00000  -0.00000  -0.00000
 113       45D-2        0.00000   0.00000   0.00000   0.00000   0.00000
 114       46D 0       -0.00071   0.00000   0.00000   0.00020   0.00501
 115       46D+1        0.00000  -0.00034   0.00000   0.00000   0.00000
 116       46D-1        0.00000   0.00000  -0.00034   0.00000   0.00000
 117       46D+2        0.00000   0.00000   0.00000  -0.00000   0.00000
 118       46D-2        0.00000   0.00000   0.00000   0.00000   0.00000
 119       47D 0        0.01109   0.00000   0.00000   0.00182  -0.04752
 120       47D+1        0.00000   0.00753   0.00000   0.00000   0.00000
 121       47D-1        0.00000   0.00000   0.00753   0.00000   0.00000
 122       47D+2       -0.00000   0.00000   0.00000   0.00000  -0.00000
 123       47D-2        0.00000   0.00000   0.00000   0.00000   0.00000
 124       48D 0        0.00006   0.00000   0.00000  -0.00050   0.00137
 125       48D+1        0.00000   0.00002   0.00000   0.00000   0.00000
 126       48D-1        0.00000   0.00000   0.00002   0.00000   0.00000
 127       48D+2       -0.00000   0.00000   0.00000   0.00000   0.00000
 128       48D-2        0.00000   0.00000   0.00000   0.00000   0.00000
 129       49F 0       -0.00001   0.00000   0.00000  -0.00007  -0.00019
 130       49F+1        0.00000  -0.00007   0.00000   0.00000   0.00000
 131       49F-1        0.00000   0.00000  -0.00007   0.00000   0.00000
 132       49F+2       -0.00000   0.00000   0.00000  -0.00000   0.00000
 133       49F-2        0.00000   0.00000   0.00000   0.00000   0.00000
 134       49F+3        0.00000  -0.00000   0.00000   0.00000   0.00000
 135       49F-3        0.00000   0.00000  -0.00000   0.00000   0.00000
 136       50F 0        0.00007   0.00000   0.00000  -0.00060  -0.00046
 137       50F+1        0.00000  -0.00045   0.00000   0.00000   0.00000
 138       50F-1        0.00000   0.00000  -0.00045   0.00000   0.00000
 139       50F+2       -0.00000   0.00000   0.00000  -0.00000   0.00000
 140       50F-2        0.00000   0.00000   0.00000   0.00000   0.00000
 141       50F+3        0.00000  -0.00000   0.00000   0.00000   0.00000
 142       50F-3        0.00000   0.00000  -0.00000   0.00000   0.00000
 143       51F 0        0.00018   0.00000   0.00000  -0.00133  -0.00351
 144       51F+1        0.00000  -0.00120   0.00000   0.00000   0.00000
 145       51F-1        0.00000   0.00000  -0.00120   0.00000   0.00000
 146       51F+2        0.00000   0.00000   0.00000  -0.00000   0.00000
 147       51F-2        0.00000   0.00000   0.00000   0.00000   0.00000
 148       51F+3        0.00000   0.00000   0.00000   0.00000   0.00000
 149       51F-3        0.00000   0.00000   0.00000   0.00000   0.00000
 150       52F 0        0.00017   0.00000   0.00000  -0.00009  -0.00788
 151       52F+1        0.00000   0.00009   0.00000   0.00000   0.00000
 152       52F-1        0.00000   0.00000   0.00009   0.00000   0.00000
 153       52F+2        0.00000   0.00000   0.00000  -0.00000   0.00000
 154       52F-2        0.00000   0.00000   0.00000   0.00000   0.00000
 155       52F+3        0.00000  -0.00000   0.00000   0.00000   0.00000
 156       52F-3        0.00000   0.00000  -0.00000   0.00000   0.00000
 157       53G 0       -0.00000   0.00000   0.00000  -0.00000   0.00003
 158       53G+1        0.00000  -0.00000   0.00000   0.00000   0.00000
 159       53G-1        0.00000   0.00000  -0.00000   0.00000   0.00000
 160       53G+2       -0.00000   0.00000   0.00000   0.00000  -0.00000
 161       53G-2        0.00000   0.00000   0.00000   0.00000   0.00000
 162       53G+3        0.00000   0.00000   0.00000   0.00000   0.00000
 163       53G-3        0.00000   0.00000   0.00000   0.00000   0.00000
 164       53G+4        0.00000   0.00000   0.00000  -0.00000   0.00000
 165       53G-4        0.00000   0.00000   0.00000   0.00000   0.00000
 166       54G 0        0.00000   0.00000   0.00000   0.00008  -0.00008
 167       54G+1        0.00000   0.00006   0.00000   0.00000   0.00000
 168       54G-1        0.00000   0.00000   0.00006   0.00000   0.00000
 169       54G+2       -0.00000   0.00000   0.00000  -0.00000  -0.00000
 170       54G-2        0.00000   0.00000   0.00000   0.00000   0.00000
 171       54G+3        0.00000  -0.00000   0.00000   0.00000   0.00000
 172       54G-3        0.00000   0.00000  -0.00000   0.00000   0.00000
 173       54G+4        0.00000   0.00000   0.00000   0.00000  -0.00000
 174       54G-4        0.00000   0.00000   0.00000   0.00000   0.00000
 175       55G 0       -0.00004   0.00000   0.00000   0.00005   0.00097
 176       55G+1        0.00000   0.00007   0.00000   0.00000   0.00000
 177       55G-1        0.00000   0.00000   0.00007   0.00000   0.00000
 178       55G+2       -0.00000   0.00000   0.00000   0.00000  -0.00000
 179       55G-2        0.00000   0.00000   0.00000   0.00000   0.00000
 180       55G+3        0.00000   0.00000   0.00000   0.00000   0.00000
 181       55G-3        0.00000   0.00000   0.00000   0.00000   0.00000
 182       55G+4       -0.00000   0.00000   0.00000   0.00000  -0.00000
 183       55G-4        0.00000   0.00000   0.00000   0.00000   0.00000
 184 2   H  1S          0.00000   0.00000   0.00000  -0.00004   0.00309
 185        2S          0.00004   0.00000   0.00000  -0.00033   0.03372
 186        3S          0.00004   0.00000   0.00000  -0.00122   0.12882
 187        4S          0.00050   0.00000   0.00000  -0.00272   0.30412
 188        5S          0.00136   0.00000   0.00000  -0.00521   0.32363
 189        6S         -0.00029   0.00000   0.00000   0.00176   0.05010
 190        7PX         0.00000   0.00004   0.00000   0.00000   0.00000
 191        7PY         0.00000   0.00000   0.00004   0.00000   0.00000
 192        7PZ         0.00003   0.00000   0.00000  -0.00026   0.00275
 193        8PX         0.00000   0.00014   0.00000   0.00000   0.00000
 194        8PY         0.00000   0.00000   0.00014   0.00000   0.00000
 195        8PZ         0.00054   0.00000   0.00000  -0.00087   0.02012
 196        9PX         0.00000   0.00012   0.00000   0.00000   0.00000
 197        9PY         0.00000   0.00000   0.00012   0.00000   0.00000
 198        9PZ         0.00062   0.00000   0.00000  -0.00180   0.02082
 199       10D 0        0.00012   0.00000   0.00000  -0.00032   0.00143
 200       10D+1        0.00000   0.00006   0.00000   0.00000   0.00000
 201       10D-1        0.00000   0.00000   0.00006   0.00000   0.00000
 202       10D+2       -0.00000   0.00000   0.00000   0.00000   0.00000
 203       10D-2        0.00000   0.00000   0.00000   0.00000   0.00000
 204       11D 0        0.00029   0.00000   0.00000  -0.00025   0.00149
 205       11D+1        0.00000  -0.00005   0.00000   0.00000   0.00000
 206       11D-1        0.00000   0.00000  -0.00005   0.00000   0.00000
 207       11D+2       -0.00000   0.00000   0.00000   0.00000   0.00000
 208       11D-2        0.00000   0.00000   0.00000   0.00000   0.00000
                           6         7         8         9        10
                           O         O         O         O         O
[...]
 170       54G-2        0.00000   0.00000   0.00000   0.00000
 171       54G+3       -0.00000  -0.00000  -0.00000  -0.00000
 172       54G-3       -0.00000  -0.00000  -0.00000  -0.00000
 173       54G+4       -0.00000  -0.00000   0.00000  -0.00000
 174       54G-4       -0.00000  -0.00000   0.00000  -0.00000
 175       55G 0        0.00009   0.00005   0.00004   0.00002
 176       55G+1        0.00001   0.00001   0.00000   0.00001
 177       55G-1        0.00001   0.00001   0.00000   0.00001
 178       55G+2        0.00000   0.00000   0.00000   0.00000
 179       55G-2        0.00000   0.00000  -0.00000   0.00000
 180       55G+3        0.00000   0.00000  -0.00000   0.00000
 181       55G-3        0.00000   0.00000  -0.00000   0.00000
 182       55G+4        0.00000   0.00000  -0.00000   0.00000
 183       55G-4        0.00000   0.00000   0.00000   0.00000
 184 2   H  1S          0.00062   0.00033   0.00030   0.00003
 185        2S          0.02167   0.01138   0.01029   0.00110
 186        3S          0.16597   0.08707   0.07890   0.00817
 187        4S          0.55856   0.29085   0.26771   0.02313
 188        5S          0.61203   0.31576   0.29628   0.01948
 189        6S          0.05889   0.02764   0.03125  -0.00361
 190        7PX         0.00001   0.00001   0.00000   0.00001
 191        7PY         0.00001   0.00001   0.00000   0.00001
 192        7PZ         0.00038   0.00021   0.00017   0.00005
 193        8PX         0.00015   0.00014   0.00000   0.00014
 194        8PY         0.00015   0.00014   0.00000   0.00014
 195        8PZ         0.00587   0.00271   0.00317  -0.00046
 196        9PX        -0.00012  -0.00013   0.00001  -0.00014
 197        9PY        -0.00012  -0.00013   0.00001  -0.00014
 198        9PZ         0.00679   0.00263   0.00417  -0.00154
 199       10D 0        0.00012   0.00007   0.00004   0.00003
 200       10D+1        0.00001   0.00001   0.00000   0.00001
 201       10D-1        0.00001   0.00001   0.00000   0.00001
 202       10D+2        0.00000   0.00000  -0.00000   0.00000
 203       10D-2        0.00000   0.00000  -0.00000   0.00000
 204       11D 0       -0.00001  -0.00015   0.00014  -0.00030
 205       11D+1       -0.00024  -0.00023  -0.00000  -0.00023
 206       11D-1       -0.00024  -0.00023  -0.00000  -0.00023
 207       11D+2       -0.00002  -0.00002  -0.00000  -0.00002
 208       11D-2       -0.00002  -0.00002  -0.00000  -0.00002
          Condensed to atoms (all electrons):
               1          2
     1  Mn  14.263852   0.305658
     2  H    0.305658   1.124831
          Atomic-Atomic Spin Densities.
               1          2
     1  Mn   5.993660  -0.039305
     2  H   -0.039305   0.084949
 Mulliken charges and spin densities:
               1          2
     1  Mn   0.430489   5.954356
     2  H   -0.430489   0.045644
 Sum of Mulliken charges =  -0.00000   6.00000
 Mulliken charges and spin densities with hydrogens summed into heavy atoms:
               1          2
     1  Mn  -0.000000   6.000000
 Electronic spatial extent (au):  <R**2>=             58.8641
 Charge=             -0.0000 electrons
 Dipole moment (field-independent basis, Debye):
    X=              0.0000    Y=              0.0000    Z=              2.4240  Tot=              2.4240
 Quadrupole moment (field-independent basis, Debye-Ang):
   XX=            -16.4734   YY=            -16.4734   ZZ=            -28.0378
   XY=              0.0000   XZ=              0.0000   YZ=              0.0000
 Traceless Quadrupole moment (field-independent basis, Debye-Ang):
   XX=              3.8548   YY=              3.8548   ZZ=             -7.7096
   XY=              0.0000   XZ=              0.0000   YZ=              0.0000
 Octapole moment (field-independent basis, Debye-Ang**2):
  XXX=              0.0000  YYY=              0.0000  ZZZ=             15.6862  XYY=              0.0000
  XXY=              0.0000  XXZ=              1.7299  XZZ=              0.0000  YZZ=              0.0000
  YYZ=              1.7299  XYZ=              0.0000
 Hexadecapole moment (field-independent basis, Debye-Ang**3):
 XXXX=            -27.9405 YYYY=            -27.9405 ZZZZ=           -125.9499 XXXY=              0.0000
 XXXZ=              0.0000 YYYX=              0.0000 YYYZ=              0.0000 ZZZX=              0.0000
 ZZZY=              0.0000 XXYY=             -9.3135 XXZZ=            -23.1221 YYZZ=            -23.1221
 XXYZ=              0.0000 YYXZ=              0.0000 ZZXY=              0.0000
 N-N= 3.968829081900D+00 E-N=-2.462150886253D+02  KE= 5.795834402985D+01
 Symmetry A1   KE= 2.502307166740D+01
 Symmetry A2   KE= 6.355121092147D+00
 Symmetry B1   KE= 1.329007563524D+01
 Symmetry B2   KE= 1.329007563509D+01
 Symmetry A1   SP= 3.000000000000D+00
 Symmetry A2   SP= 1.000000000000D+00
 Symmetry B1   SP= 1.000000000000D+00
 Symmetry B2   SP= 1.000000000000D+00
 Orbital energies and kinetic energies (alpha):
                                 1                 2
   1         O                -4.163604          2.066758
   2         O                -2.784594          3.455854
   3         O                -2.784594          3.455854
   4         O                -2.781914          3.465476
   5         O                -0.658381          0.439961
   6         O                -0.658381          6.355121
   7         O                -0.651628          6.355121
   8         O                -0.651628          6.378368
   9         O                -0.651201          6.378368
  10         O                -0.387366          5.442167
  11         O                -0.270154          1.281393
  12         V                 0.010135          0.072418
  13         V                 0.010135          0.072418
  14         V                 0.022928          0.039212
  15         V                 0.031365          0.041277
  16         V                 0.055105          0.181373
  17         V                 0.055105          0.181373
  18         V                 0.079606          0.131801
  19         V                 0.083778          0.107524
  20         V                 0.083778          0.107524
  21         V                 0.088758          0.109466
  22         V                 0.088758          0.109466
  23         V                 0.103487          0.127982
  24         V                 0.133068          0.243313
  25         V                 0.181521          0.332616
  26         V                 0.223660          0.467846
  27         V                 0.223660          0.467846
  28         V                 0.237439          0.474630
  29         V                 0.290236          0.567699
  30         V                 0.290236          0.567699
  31         V                 0.293084          0.607013
  32         V                 0.293084          0.607013
  33         V                 0.351083          0.409499
  34         V                 0.351083          0.409499
  35         V                 0.358092          0.551631
  36         V                 0.424667          0.620102
  37         V                 0.469363          0.821747
  38         V                 0.685478          0.865825
  39         V                 0.738317          0.869523
  40         V                 0.738317          0.869523
  41         V                 0.756638          0.949213
  42         V                 0.756638          0.949213
  43         V                 0.782699          1.422018
  44         V                 0.782699          1.422018
  45         V                 0.834930          1.354222
  46         V                 0.851235          1.080371
  47         V                 0.851235          1.080371
  48         V                 0.953124          2.247464
  49         V                 0.953124          2.247464
  50         V                 0.965135          1.645766
  51         V                 0.967680          1.653380
  52         V                 0.967680          1.653380
  53         V                 0.997477          1.732454
  54         V                 1.008911          1.986475
  55         V                 1.008911          1.986475
  56         V                 1.125396          1.172194
  57         V                 1.125396          1.172194
  58         V                 1.268686          1.772474
  59         V                 1.395432          1.837130
  60         V                 1.395432          1.837130
  61         V                 1.715978          2.451306
  62         V                 1.846185          2.588872
  63         V                 2.303408          3.315258
  64         V                 2.303408          3.315258
  65         V                 2.336871          3.169375
  66         V                 2.336871          3.334544
  67         V                 2.350700          3.334544
  68         V                 2.378996          3.359735
  69         V                 2.378996          3.359735
  70         V                 2.587233          3.755714
  71         V                 2.597070          4.268278
  72         V                 2.597070          4.268278
  73         V                 2.753905          3.254922
  74         V                 2.753905          3.254922
  75         V                 2.767798          3.255139
  76         V                 2.767798          3.255139
  77         V                 2.771391          3.871927
  78         V                 2.813768          3.292908
  79         V                 2.813768          3.292908
  80         V                 2.852537          4.963388
  81         V                 2.852537          4.963388
  82         V                 2.863907          5.709261
  83         V                 2.863907          6.826417
  84         V                 2.864898          6.826417
  85         V                 3.026586          5.286142
  86         V                 3.026586          5.286142
  87         V                 3.430399          5.038459
  88         V                 3.995250          4.143431
  89         V                 3.995250          4.143431
  90         V                 4.121783          4.327312
  91         V                 4.121783          4.327312
  92         V                 4.335726          4.779237
  93         V                 4.335726          4.779237
  94         V                 4.445253          4.888801
  95         V                 4.927098          5.558014
  96         V                 5.187478          6.807903
  97         V                 6.337394          9.967296
  98         V                 6.337394          9.967296
  99         V                 6.356592          9.978242
 100         V                 6.356592          9.978242
 101         V                 6.398416         10.014718
 102         V                 6.398416         10.014718
 103         V                 6.591142         10.155334
 104         V                 6.735755         13.210542
 105         V                 6.735755         13.210542
 106         V                 6.787125         13.209011
 107         V                 6.787125         13.209011
 108         V                 6.880192         13.059143
 109         V                 7.361264         10.269106
 110         V                 7.361264         10.269106
 111         V                 7.525053         10.413759
 112         V                 8.133361         10.188882
 113         V                 8.133361         10.188882
 114         V                 8.140645         10.188962
 115         V                 8.140645         10.188962
 116         V                 8.161668         10.204585
 117         V                 8.161668         10.204585
 118         V                 8.260697         10.305617
 119         V                 8.260697         10.305617
 120         V                 8.525830         10.604915
 121         V                10.293335         12.375846
 122         V                12.130600         14.030261
 123         V                13.556562         23.005316
 124         V                13.556562         23.005316
 125         V                13.601589         23.027165
 126         V                13.601589         23.027165
 127         V                13.683429         23.060538
 128         V                17.379159         27.618852
 129         V                17.379159         27.618852
 130         V                17.390514         27.623726
 131         V                17.390514         27.623726
 132         V                17.416706         27.637707
 133         V                17.416706         27.637707
 134         V                17.488689         27.055990
 135         V                17.573371         21.156840
 136         V                17.573371         21.156840
 137         V                17.753741         21.936854
 138         V                22.037331         29.430987
 139         V                22.037331         29.430987
 140         V                22.040460         29.430691
 141         V                22.040460         29.430691
 142         V                22.050488         29.437481
 143         V                22.050488         29.437481
 144         V                22.095103         29.478751
 145         V                22.095103         29.478751
 146         V                22.208521         29.587126
 147         V                25.120463         38.413756
 148         V                25.120463         38.413756
 149         V                25.160900         38.437282
 150         V                25.160900         38.437282
 151         V                25.222084         37.855927
 152         V                25.487492         27.153217
 153         V                36.233900         39.291487
 154         V                36.233900         39.291487
 155         V                36.408855         39.446086
 156         V                45.884340         68.104568
 157         V                45.884340         68.104568
 158         V                45.919885         68.127241
 159         V                45.919885         68.127241
 160         V                45.986949         68.173868
 161         V                52.196067         45.710788
 162         V                63.899743         69.675105
 163         V                68.986409         68.638959
 164         V                68.986409         68.638959
 165         V                69.174488         68.811509
 166         V               101.945988        150.369240
 167         V               101.945988        150.369240
 168         V               101.974065        150.388564
 169         V               101.974065        150.388564
 170         V               102.028420        150.409067
 171         V               104.622358         69.026994
 172         V               128.743065        120.893544
 173         V               128.743065        120.893544
 174         V               128.927506        121.079689
 175         V               187.246046        120.435856
 176         V               242.605204        225.984770
 177         V               242.605204        225.984770
 178         V               242.781840        226.167012
 179         V               335.752544        253.993354
 180         V               354.492354        452.569354
 181         V               354.492354        452.569354
 182         V               354.509420        452.583912
 183         V               354.509420        452.583912
 184         V               354.544714        452.615268
 185         V               471.759781        446.521743
 186         V               471.759781        446.521743
 187         V               471.926054        446.690824
 188         V               638.308804        540.573720
 189         V               964.760568        932.637545
 190         V               964.760568        932.637545
 191         V               964.912658        932.790380
 192         V              1284.565512       1172.851135
 193         V              2120.427794       2084.135095
 194         V              2120.427794       2084.135095
 195         V              2120.563178       2084.270536
 196         V              2744.566954       2623.423472
 197         V              5154.513754       5116.251640
 198         V              5154.513754       5116.251640
 199         V              5154.630475       5116.368314
 200         V              6247.011584       6120.561297
 201         V             14770.653333      14731.632444
 202         V             14770.653333      14731.632444
 203         V             14770.748512      14731.727597
 204         V             15305.482952      15176.388857
 205         V             42071.034089      41940.725521
 Total kinetic energy from orbitals= 9.014888242522D+01
                          Isotropic Fermi Contact Couplings
        Atom                 a.u.       MegaHertz       Gauss      10(-4) cm-1
     1  Mn(55)             0.00007       0.01204       0.00430       0.00402
     2  H(1)               0.01544      11.50076       4.10376       3.83624
 --------------------------------------------------------
       Center         ----  Spin Dipole Couplings  ----
                      3XX-RR        3YY-RR        3ZZ-RR
 --------------------------------------------------------
     1   Atom       -0.101533     -0.101533      0.203066
     2   Atom       -0.091024     -0.091024      0.182048
 --------------------------------------------------------
                        XY            XZ            YZ
 --------------------------------------------------------
     1   Atom        0.000000      0.000000      0.000000
     2   Atom        0.000000      0.000000      0.000000
 --------------------------------------------------------


 ---------------------------------------------------------------------------------
              Anisotropic Spin Dipole Couplings in Principal Axis System
 ---------------------------------------------------------------------------------

       Atom             a.u.   MegaHertz   Gauss  10(-4) cm-1        Axes

              Baa    -0.1015   -13.396    -4.780    -4.469 -0.0000  1.0000  0.0000
     1 Mn(55) Bbb    -0.1015   -13.396    -4.780    -4.469  1.0000  0.0000  0.0000
              Bcc     0.2031    26.793     9.560     8.937  0.0000  0.0000  1.0000
 
              Baa    -0.0910   -48.566   -17.330   -16.200  1.0000  0.0000  0.0000
     2 H(1)   Bbb    -0.0910   -48.566   -17.330   -16.200 -0.0000  1.0000  0.0000
              Bcc     0.1820    97.132    34.659    32.400  0.0000  0.0000  1.0000
 

 ---------------------------------------------------------------------------------

 No NMR shielding tensors so no spin-rotation constants.
 Leave Link  601 at Sat May  5 12:21:31 2018, MaxMem= 21474836480 cpu:              18.6 elap:               0.6
 (Enter /home1/apps/gaussian/16rA.03/g16/l9999.exe)

 Test job not archived.
 1\1\GINC-C495-054\SP\ROCCSD(T)-Full\Gen\H1Mn1(7)\AANNABE\05-May-2018\0
 \\#P ROCCSD(T)=(maxcyc=150, Full, SaveAmplitudes, ReadAmplitudes)/Gen 
 5d 7f SCF=(maxcycles=300, VShift=400) Integral(NoXCTest) MaxDisk=500GB
  Pop=Full Pseudo=Read Guess=Read IOp(5/15=2)\\MnH\\0,7\Mn,0,0.,0.,0.\H
 ,0,0.,0.,2.\\Version=ES64L-G16RevA.03\State=7-SG\HF=-103.7941893\MP2=-
 104.3625411\MP3=-104.3652895\PUHF=-103.7941893\PMP2-0=-104.3625411\MP4
 SDQ=-104.3699079\CCSD=-104.3711618\CCSD(T)=-104.3867508\RMSD=9.374e-09
 \PG=C*V [C*(H1Mn1)]\\@


 AN OPTIMIST IS A GUY
 THAT HAS NEVER HAD
 MUCH EXPERIENCE
   (CERTAIN MAXIMS OF ARCHY  -- DON MARQUIS)
 Job cpu time:       0 days  1 hours 32 minutes  0.3 seconds.
 Elapsed time:       0 days  0 hours  2 minutes 55.9 seconds.
 File lengths (MBytes):  RWF=   2304 Int=      0 D2E=      0 Chk=     12 Scr=      1
 Normal termination of Gaussian 16 at Sat May  5 12:21:31 2018.
