 Entering Gaussian System, Link 0=g16
 Initial command:
 /home1/apps/gaussian/16rA.03/g16/l1.exe "/tmp/Gau-229306.inp" -scrdir="/tmp/"
 Entering Link 1 = /home1/apps/gaussian/16rA.03/g16/l1.exe PID=    229307.
  
 Copyright (c) 1988,1990,1992,1993,1995,1998,2003,2009,2016,
            Gaussian, Inc.  All Rights Reserved.
  
 This is part of the Gaussian(R) 16 program.  It is based on
 the Gaussian(R) 09 system (copyright 2009, Gaussian, Inc.),
 the Gaussian(R) 03 system (copyright 2003, Gaussian, Inc.),
 the Gaussian(R) 98 system (copyright 1998, Gaussian, Inc.),
 the Gaussian(R) 94 system (copyright 1995, Gaussian, Inc.),
 the Gaussian 92(TM) system (copyright 1992, Gaussian, Inc.),
 the Gaussian 90(TM) system (copyright 1990, Gaussian, Inc.),
 the Gaussian 88(TM) system (copyright 1988, Gaussian, Inc.),
 the Gaussian 86(TM) system (copyright 1986, Carnegie Mellon
 University), and the Gaussian 82(TM) system (copyright 1983,
 Carnegie Mellon University). Gaussian is a federally registered
 trademark of Gaussian, Inc.
  
 This software contains proprietary and confidential information,
 including trade secrets, belonging to Gaussian, Inc.
  
 This software is provided under written license and may be
 used, copied, transmitted, or stored only in accord with that
 written license.
  
 The following legend is applicable only to US Government
 contracts under FAR:
  
                    RESTRICTED RIGHTS LEGEND
  
 Use, reproduction and disclosure by the US Government is
 subject to restrictions as set forth in subparagraphs (a)
 and (c) of the Commercial Computer Software - Restricted
 Rights clause in FAR 52.227-19.
  
 Gaussian, Inc.
 340 Quinnipiac St., Bldg. 40, Wallingford CT 06492
  
  
 ---------------------------------------------------------------
 Warning -- This program may not be used in any manner that
 competes with the business of Gaussian, Inc. or will provide
 assistance to any competitor of Gaussian, Inc.  The licensee
 of this program is prohibited from giving any competitor of
 Gaussian, Inc. access to this program.  By using this program,
 the user acknowledges that Gaussian, Inc. is engaged in the
 business of creating and licensing software in the field of
 computational chemistry and represents and warrants to the
 licensee that it is not a competitor of Gaussian, Inc. and that
 it will not use this program in any manner prohibited above.
 ---------------------------------------------------------------
  

 Cite this work as:
 Gaussian 16, Revision A.03,
 M. J. Frisch, G. W. Trucks, H. B. Schlegel, G. E. Scuseria, 
 M. A. Robb, J. R. Cheeseman, G. Scalmani, V. Barone, 
 G. A. Petersson, H. Nakatsuji, X. Li, M. Caricato, A. V. Marenich, 
 J. Bloino, B. G. Janesko, R. Gomperts, B. Mennucci, H. P. Hratchian, 
 J. V. Ortiz, A. F. Izmaylov, J. L. Sonnenberg, D. Williams-Young, 
 F. Ding, F. Lipparini, F. Egidi, J. Goings, B. Peng, A. Petrone, 
 T. Henderson, D. Ranasinghe, V. G. Zakrzewski, J. Gao, N. Rega, 
 G. Zheng, W. Liang, M. Hada, M. Ehara, K. Toyota, R. Fukuda, 
 J. Hasegawa, M. Ishida, T. Nakajima, Y. Honda, O. Kitao, H. Nakai, 
 T. Vreven, K. Throssell, J. A. Montgomery, Jr., J. E. Peralta, 
 F. Ogliaro, M. J. Bearpark, J. J. Heyd, E. N. Brothers, K. N. Kudin, 
 V. N. Staroverov, T. A. Keith, R. Kobayashi, J. Normand, 
 K. Raghavachari, A. P. Rendell, J. C. Burant, S. S. Iyengar, 
 J. Tomasi, M. Cossi, J. M. Millam, M. Klene, C. Adamo, R. Cammi, 
 J. W. Ochterski, R. L. Martin, K. Morokuma, O. Farkas, 
 J. B. Foresman, and D. J. Fox, Gaussian, Inc., Wallingford CT, 2016.
 
 ******************************************
 Gaussian 16:  ES64L-G16RevA.03 25-Dec-2016
                 8-Mar-2018 
 ******************************************
 %mem=80GB
 %cpu=0-31
 SetSPE:  set environment variable "MP_BIND" = "yes"
 SetSPE:  set environment variable "MP_BLIST" = "0,1,2,3,4,5,6,7,8,9,10,11,12,13,14,15,16,17,18,19,20,21,22,23,24,25,26,27,28,29,30,31"
 Will use up to   32 processors via shared memory.
 %chk=5z.chk
 %rwf=/scratch/04843/gwang18/feh/
 ----------------------------------------------------------------------
 #P ROCCSD(T)=(MaxCyc=150, Full)/Gen SCF=(maxcycle=400) Integral(DKHSO,
  NoXCTest) Pop=Regular MaxDisk=500GB Guess=Read IOp(5/15=2)
 ----------------------------------------------------------------------
 1/38=1,172=1/1;
 2/12=2,17=6,18=5,40=1/2;
 3/5=7,11=2,25=1,30=1,47=8,91=5,116=101/1,2,3;
 4/5=1/1;
 5/5=2,7=400,15=2,38=6/2;
 8/5=-1,6=4,9=120000,10=90/1,4;
 9/5=7,6=150,14=2/13;
 6//1;
 99/5=1,9=1/99;
 Leave Link    1 at Thu Mar  8 12:53:33 2018, MaxMem= 10737418240 cpu:               8.3 elap:               0.3
 (Enter /home1/apps/gaussian/16rA.03/g16/l101.exe)
 ---
 FeH
 ---
 Symbolic Z-matrix:
 Charge =  0 Multiplicity = 4
 Fe                    0.        0.        0. 
 H                     0.        0.        1.3 
 
 ITRead=  0  0
 MicOpt= -1 -1
 NAtoms=      2 NQM=        2 NQMF=       0 NMMI=      0 NMMIF=      0
                NMic=       0 NMicF=      0.
                    Isotopes and Nuclear Properties:
 (Nuclear quadrupole moments (NQMom) in fm**2, nuclear magnetic moments (NMagM)
  in nuclear magnetons)

  Atom         1           2
 IAtWgt=          56           1
 AtmWgt=  55.9349393   1.0078250
 NucSpn=           0           1
 AtZEff=  -0.0000000  -0.0000000
 NQMom=    0.0000000   0.0000000
 NMagM=    0.0000000   2.7928460
 AtZNuc=  26.0000000   1.0000000
 Leave Link  101 at Thu Mar  8 12:53:34 2018, MaxMem= 10737418240 cpu:               3.2 elap:               0.1
 (Enter /home1/apps/gaussian/16rA.03/g16/l202.exe)
                          Input orientation:                          
 ---------------------------------------------------------------------
 Center     Atomic      Atomic             Coordinates (Angstroms)
 Number     Number       Type             X           Y           Z
 ---------------------------------------------------------------------
      1         26           0        0.000000    0.000000    0.000000
      2          1           0        0.000000    0.000000    1.300000
 ---------------------------------------------------------------------
 Stoichiometry    FeH(4)
 Framework group  C*V[C*(HFe)]
 Deg. of freedom     1
 Full point group                 C*V     NOp   4
 Largest Abelian subgroup         C2V     NOp   4
 Largest concise Abelian subgroup C1      NOp   1
                         Standard orientation:                         
 ---------------------------------------------------------------------
 Center     Atomic      Atomic             Coordinates (Angstroms)
 Number     Number       Type             X           Y           Z
 ---------------------------------------------------------------------
      1         26           0        0.000000    0.000000    0.048148
      2          1           0        0.000000    0.000000   -1.251852
 ---------------------------------------------------------------------
 Rotational constants (GHZ):           0.0000000         302.0652229         302.0652229
 Leave Link  202 at Thu Mar  8 12:53:34 2018, MaxMem= 10737418240 cpu:               0.7 elap:               0.1
 (Enter /home1/apps/gaussian/16rA.03/g16/l301.exe)
 General basis read from cards:  (5D, 7F)
 Centers:       1
 S 1 1.00
     Exponent=  1.4976900000D+08 Coefficients=  1.0000000000D+00
 S 1 1.00
     Exponent=  2.6722500000D+07 Coefficients=  1.0000000000D+00
 S 1 1.00
     Exponent=  5.9590000000D+06 Coefficients=  1.0000000000D+00
 S 1 1.00
     Exponent=  1.5936100000D+06 Coefficients=  1.0000000000D+00
 S 1 1.00
     Exponent=  4.9346400000D+05 Coefficients=  1.0000000000D+00
 S 1 1.00
     Exponent=  1.7179000000D+05 Coefficients=  1.0000000000D+00
 S 1 1.00
     Exponent=  6.5620900000D+04 Coefficients=  1.0000000000D+00
 S 1 1.00
     Exponent=  2.6965600000D+04 Coefficients=  1.0000000000D+00
 S 1 1.00
     Exponent=  1.1735300000D+04 Coefficients=  1.0000000000D+00
 S 1 1.00
     Exponent=  5.3434300000D+03 Coefficients=  1.0000000000D+00
 S 1 1.00
     Exponent=  2.5225000000D+03 Coefficients=  1.0000000000D+00
 S 1 1.00
     Exponent=  1.2264300000D+03 Coefficients=  1.0000000000D+00
 S 1 1.00
     Exponent=  6.1126900000D+02 Coefficients=  1.0000000000D+00
 S 1 1.00
     Exponent=  3.1130800000D+02 Coefficients=  1.0000000000D+00
 S 1 1.00
     Exponent=  1.6162400000D+02 Coefficients=  1.0000000000D+00
 S 1 1.00
     Exponent=  8.5376700000D+01 Coefficients=  1.0000000000D+00
 S 1 1.00
     Exponent=  4.5791100000D+01 Coefficients=  1.0000000000D+00
 S 1 1.00
     Exponent=  2.4867700000D+01 Coefficients=  1.0000000000D+00
 S 1 1.00
     Exponent=  1.3620200000D+01 Coefficients=  1.0000000000D+00
 S 1 1.00
     Exponent=  7.4810600000D+00 Coefficients=  1.0000000000D+00
 S 1 1.00
     Exponent=  4.0881700000D+00 Coefficients=  1.0000000000D+00
 S 1 1.00
     Exponent=  2.1990500000D+00 Coefficients=  1.0000000000D+00
 S 1 1.00
     Exponent=  1.1481500000D+00 Coefficients=  1.0000000000D+00
 S 1 1.00
     Exponent=  5.7726500000D-01 Coefficients=  1.0000000000D+00
 S 1 1.00
     Exponent=  1.9763500000D-01 Coefficients=  1.0000000000D+00
 S 1 1.00
     Exponent=  1.0898600000D-01 Coefficients=  1.0000000000D+00
 S 1 1.00
     Exponent=  5.3216000000D-02 Coefficients=  1.0000000000D+00
 S 1 1.00
     Exponent=  2.5571000000D-02 Coefficients=  1.0000000000D+00
 S 1 1.00
     Exponent=  6.6224000000D+00 Coefficients=  1.0000000000D+00
 S 1 1.00
     Exponent=  2.2140000000D+00 Coefficients=  1.0000000000D+00
 S 1 1.00
     Exponent=  1.2290000000D-02 Coefficients=  1.0000000000D+00
 P 1 1.00
     Exponent=  8.6947300000D+04 Coefficients=  1.0000000000D+00
 P 1 1.00
     Exponent=  2.1254000000D+04 Coefficients=  1.0000000000D+00
 P 1 1.00
     Exponent=  6.7411400000D+03 Coefficients=  1.0000000000D+00
 P 1 1.00
     Exponent=  2.5571600000D+03 Coefficients=  1.0000000000D+00
 P 1 1.00
     Exponent=  1.0935100000D+03 Coefficients=  1.0000000000D+00
 P 1 1.00
     Exponent=  5.0616100000D+02 Coefficients=  1.0000000000D+00
 P 1 1.00
     Exponent=  2.4713900000D+02 Coefficients=  1.0000000000D+00
 P 1 1.00
     Exponent=  1.2541500000D+02 Coefficients=  1.0000000000D+00
 P 1 1.00
     Exponent=  6.5651200000D+01 Coefficients=  1.0000000000D+00
 P 1 1.00
     Exponent=  3.5307900000D+01 Coefficients=  1.0000000000D+00
 P 1 1.00
     Exponent=  1.9426000000D+01 Coefficients=  1.0000000000D+00
 P 1 1.00
     Exponent=  1.0843800000D+01 Coefficients=  1.0000000000D+00
 P 1 1.00
     Exponent=  6.0435900000D+00 Coefficients=  1.0000000000D+00
 P 1 1.00
     Exponent=  3.3024500000D+00 Coefficients=  1.0000000000D+00
 P 1 1.00
     Exponent=  1.7638900000D+00 Coefficients=  1.0000000000D+00
 P 1 1.00
     Exponent=  9.2138600000D-01 Coefficients=  1.0000000000D+00
 P 1 1.00
     Exponent=  4.6037300000D-01 Coefficients=  1.0000000000D+00
 P 1 1.00
     Exponent=  1.8377200000D-01 Coefficients=  1.0000000000D+00
 P 1 1.00
     Exponent=  7.5833000000D-02 Coefficients=  1.0000000000D+00
 P 1 1.00
     Exponent=  3.1099000000D-02 Coefficients=  1.0000000000D+00
 P 1 1.00
     Exponent=  1.0012800000D+01 Coefficients=  1.0000000000D+00
 P 1 1.00
     Exponent=  3.1869000000D+00 Coefficients=  1.0000000000D+00
 P 1 1.00
     Exponent=  1.2750000000D-02 Coefficients=  1.0000000000D+00
 D 1 1.00
     Exponent=  5.1841600000D+02 Coefficients=  1.0000000000D+00
 D 1 1.00
     Exponent=  1.5281900000D+02 Coefficients=  1.0000000000D+00
 D 1 1.00
     Exponent=  5.8586900000D+01 Coefficients=  1.0000000000D+00
 D 1 1.00
     Exponent=  2.5456400000D+01 Coefficients=  1.0000000000D+00
 D 1 1.00
     Exponent=  1.1786800000D+01 Coefficients=  1.0000000000D+00
 D 1 1.00
     Exponent=  5.7186100000D+00 Coefficients=  1.0000000000D+00
 D 1 1.00
     Exponent=  2.8241700000D+00 Coefficients=  1.0000000000D+00
 D 1 1.00
     Exponent=  1.3798500000D+00 Coefficients=  1.0000000000D+00
 D 1 1.00
     Exponent=  6.5616000000D-01 Coefficients=  1.0000000000D+00
 D 1 1.00
     Exponent=  2.9960900000D-01 Coefficients=  1.0000000000D+00
 D 1 1.00
     Exponent=  1.2936100000D-01 Coefficients=  1.0000000000D+00
 D 1 1.00
     Exponent=  5.1155000000D-02 Coefficients=  1.0000000000D+00
 D 1 1.00
     Exponent=  7.0982000000D+00 Coefficients=  1.0000000000D+00
 D 1 1.00
     Exponent=  4.2772000000D+00 Coefficients=  1.0000000000D+00
 D 1 1.00
     Exponent=  2.0230000000D-02 Coefficients=  1.0000000000D+00
 F 1 1.00
     Exponent=  1.1047100000D+01 Coefficients=  1.0000000000D+00
 F 1 1.00
     Exponent=  4.8541000000D+00 Coefficients=  1.0000000000D+00
 F 1 1.00
     Exponent=  2.1329000000D+00 Coefficients=  1.0000000000D+00
 F 1 1.00
     Exponent=  9.3720000000D-01 Coefficients=  1.0000000000D+00
 F 1 1.00
     Exponent=  3.1410000000D-01 Coefficients=  1.0000000000D+00
 F 1 1.00
     Exponent=  1.0527000000D-01 Coefficients=  1.0000000000D+00
 G 1 1.00
     Exponent=  7.5475000000D+00 Coefficients=  1.0000000000D+00
 G 1 1.00
     Exponent=  3.6737000000D+00 Coefficients=  1.0000000000D+00
 G 1 1.00
     Exponent=  1.7881000000D+00 Coefficients=  1.0000000000D+00
 G 1 1.00
     Exponent=  6.5640000000D-01 Coefficients=  1.0000000000D+00
 G 1 1.00
     Exponent=  2.4096000000D-01 Coefficients=  1.0000000000D+00
 H 1 1.00
     Exponent=  6.9263000000D+00 Coefficients=  1.0000000000D+00
 H 1 1.00
     Exponent=  3.2527000000D+00 Coefficients=  1.0000000000D+00
 H 1 1.00
     Exponent=  1.2964000000D+00 Coefficients=  1.0000000000D+00
 H 1 1.00
     Exponent=  5.1669000000D-01 Coefficients=  1.0000000000D+00
 I 1 1.00
     Exponent=  7.0569000000D+00 Coefficients=  1.0000000000D+00
 I 1 1.00
     Exponent=  1.3776500000D+00 Coefficients=  1.0000000000D+00
 ****
 Centers:       2
 S 1 1.00
     Exponent=  4.0200000000D+02 Coefficients=  1.0000000000D+00
 S 1 1.00
     Exponent=  6.0240000000D+01 Coefficients=  1.0000000000D+00
 S 1 1.00
     Exponent=  1.3730000000D+01 Coefficients=  1.0000000000D+00
 S 1 1.00
     Exponent=  3.9050000000D+00 Coefficients=  1.0000000000D+00
 S 1 1.00
     Exponent=  1.2830000000D+00 Coefficients=  1.0000000000D+00
 S 1 1.00
     Exponent=  4.6550000000D-01 Coefficients=  1.0000000000D+00
 S 1 1.00
     Exponent=  1.8110000000D-01 Coefficients=  1.0000000000D+00
 S 1 1.00
     Exponent=  7.2790000000D-02 Coefficients=  1.0000000000D+00
 S 1 1.00
     Exponent=  2.0700000000D-02 Coefficients=  1.0000000000D+00
 P 1 1.00
     Exponent=  4.5160000000D+00 Coefficients=  1.0000000000D+00
 P 1 1.00
     Exponent=  1.7120000000D+00 Coefficients=  1.0000000000D+00
 P 1 1.00
     Exponent=  6.4900000000D-01 Coefficients=  1.0000000000D+00
 P 1 1.00
     Exponent=  2.4600000000D-01 Coefficients=  1.0000000000D+00
 P 1 1.00
     Exponent=  7.4400000000D-02 Coefficients=  1.0000000000D+00
 D 1 1.00
     Exponent=  2.9500000000D+00 Coefficients=  1.0000000000D+00
 D 1 1.00
     Exponent=  1.2060000000D+00 Coefficients=  1.0000000000D+00
 D 1 1.00
     Exponent=  4.9300000000D-01 Coefficients=  1.0000000000D+00
 D 1 1.00
     Exponent=  1.5600000000D-01 Coefficients=  1.0000000000D+00
 F 1 1.00
     Exponent=  2.5060000000D+00 Coefficients=  1.0000000000D+00
 F 1 1.00
     Exponent=  8.7500000000D-01 Coefficients=  1.0000000000D+00
 F 1 1.00
     Exponent=  2.7400000000D-01 Coefficients=  1.0000000000D+00
 G 1 1.00
     Exponent=  2.3580000000D+00 Coefficients=  1.0000000000D+00
 G 1 1.00
     Exponent=  5.4300000000D-01 Coefficients=  1.0000000000D+00
 ****
 Ernie: Thresh=  0.10000D-02 Tol=  0.10000D-05 Strict=F.
 There are   238 symmetry adapted cartesian basis functions of A1  symmetry.
 There are    73 symmetry adapted cartesian basis functions of A2  symmetry.
 There are   131 symmetry adapted cartesian basis functions of B1  symmetry.
 There are   131 symmetry adapted cartesian basis functions of B2  symmetry.
 There are   165 symmetry adapted basis functions of A1  symmetry.
 There are    56 symmetry adapted basis functions of A2  symmetry.
 There are    97 symmetry adapted basis functions of B1  symmetry.
 There are    97 symmetry adapted basis functions of B2  symmetry.
   415 basis functions,   573 primitive gaussians,   573 cartesian basis functions
    15 alpha electrons       12 beta electrons
       nuclear repulsion energy        10.5835442184 Hartrees.
 IExCor=    0 DFT=F Ex=HF Corr=None ExCW=0 ScaHFX=  1.000000
 ScaDFX=  1.000000  1.000000  1.000000  1.000000 ScalE2=  1.000000  1.000000
 IRadAn=      5 IRanWt=     -1 IRanGd=            0 ICorTp=0 IEmpDi=  4
 NAtoms=    2 NActive=    2 NUniq=    2 SFac= 1.00D+00 NAtFMM=   60 NAOKFM=F Big=F
 Integral buffers will be    131072 words long.
 Raffenetti 2 integral format.
 Two-electron integral symmetry is turned on.
 FoFCou: FMM=F IPFlag=           8 FMFlag=           0 FMFlg1=           0
         NFxFlg=           0 DoJE=F BraDBF=T KetDBF=T FulRan=T
         wScrn=  0.000000 ICntrl=       600 IOpCl=  3 I1Cent=           6 NGrid=           0
         NMat0=    1 NMatS0=      2 NMatT0=    0 NMatD0=    1 NMtDS0=    0 NMtDT0=    0
 Symmetry not used in FoFCou.
 Finite nuclear repulsion energy        10.5835442184.
 Leave Link  301 at Thu Mar  8 12:53:35 2018, MaxMem= 10737418240 cpu:              17.1 elap:               0.6
 (Enter /home1/apps/gaussian/16rA.03/g16/l302.exe)
 Using DK4 one-electron Hamiltonian with SO, DoBoet=T.
 NPDir=0 NMtPBC=     1 NCelOv=     1 NCel=       1 NClECP=     1 NCelD=      1
         NCelK=      1 NCelE2=     1 NClLst=     1 CellRange=     0.0.
 One-electron integrals computed using PRISM.
 One-electron integral symmetry used in STVInt
 FoFCou: FMM=F IPFlag=           8 FMFlag=      100000 FMFlg1=           0
         NFxFlg=           0 DoJE=T BraDBF=F KetDBF=T FulRan=T
         wScrn=  0.000000 ICntrl=       500 IOpCl=  0 I1Cent=           4 NGrid=           0
         NMat0=    1 NMatS0=      1 NMatT0=    0 NMatD0=    1 NMtDS0=    0 NMtDT0=    0
 Symmetry not used in FoFCou.
 UnConB:  Uncontracting AO basis from    415 functions to    415 functions (excluding duplicates).
 RelInt: Using uncontracted basis, NUnBas=   415 NBsUse=   415 0.100E-13 EigKep=  4.85D-10 EigRej= -1.00D+00
 NBasis=   415 RedAO= T EigKep=  5.67D-06  NBF=   165    56    97    97
 NBsUse=   407 1.00D-06 EigRej=  9.18D-07 NBFU=   161    56    95    95
 Leave Link  302 at Thu Mar  8 12:54:00 2018, MaxMem= 10737418240 cpu:             650.9 elap:              24.9
 (Enter /home1/apps/gaussian/16rA.03/g16/l303.exe)
 DipDrv:  MaxL=1.
 Leave Link  303 at Thu Mar  8 12:54:01 2018, MaxMem= 10737418240 cpu:               4.5 elap:               0.2
 (Enter /home1/apps/gaussian/16rA.03/g16/l401.exe)
 Initial guess from the checkpoint file:  "5z.chk"
 B after Tr=     0.000000    0.000000    0.000000
         Rot=    1.000000    0.000000    0.000000    0.000000 Ang=   0.00 deg.
 Guess basis will be translated and rotated to current coordinates.
 JPrj=2 DoOrth=T DoCkMO=T.
 Initial guess orbital symmetries:
       Occupied  (SG) (SG) (PI) (PI) (SG) (SG) (SG) (PI) (PI) (SG)
                 (?A) (SG) (PI) (PI) (?A)
       Virtual   (SG) (PI) (PI) (SG) (SG) (PI) (PI) (SG) (DLTA)
                 (DLTA) (PI) (PI) (SG) (SG) (SG) (PI) (PI) (SG)
                 (PI) (PI) (?A) (?A) (SG) (PI) (PI) (SG) (SG) (SG)
                 (DLTA) (DLTA) (PI) (PI) (SG) (PHI) (PHI) (PI)
                 (PI) (SG) (PI) (PI) (?A) (?A) (PI) (PI) (SG) (?A)
                 (?A) (SG) (PI) (PI) (SG) (SG) (SG) (?B) (?B) (?B)
                 (?B) (SG) (DLTA) (?B) (?B) (DLTA) (SG) (SG) (PI)
                 (PI) (DLTA) (DLTA) (DLTA) (PHI) (PHI) (DLTA) (?C)
                 (?C) (PI) (PI) (DLTA) (DLTA) (SG) (PI) (PI) (PI)
                 (PI) (SG) (SG) (SG) (?D) (?D) (DLTA) (DLTA) (?D)
                 (?D) (DLTA) (DLTA) (SG) (?D) (?D) (PI) (PI) (SG)
                 (SG) (?E) (?E) (?C) (?C) (DLTA) (DLTA) (?E) (?E)
                 (SG) (SG) (SG) (DLTA) (DLTA) (PI) (PI) (SG) (PI)
                 (PI) (SG) (DLTA) (?E) (?E) (DLTA) (?E) (?E) (SG)
                 (?E) (?E) (DLTA) (?F) (?F) (DLTA) (?E) (?E) (?F)
                 (SG) (DLTA) (DLTA) (PI) (PI) (SG) (PI) (PI) (SG)
                 (DLTA) (DLTA) (PI) (PI) (SG) (SG) (SG) (PI) (PI)
                 (SG) (DLTA) (DLTA) (PI) (PI) (SG) (SG) (PI) (PI)
                 (SG) (SG) (PI) (PI) (SG) (DLTA) (DLTA) (PI) (PI)
                 (SG) (PI) (PI) (SG) (SG) (PI) (PI) (SG) (SG) (PI)
                 (PI) (SG) (SG) (SG) (PI) (PI) (SG) (SG) (PI) (PI)
                 (SG) (SG) (SG) (SG) (SG) (SG) (DLTA) (SG) (SG)
                 (SG) (DLTA) (SG) (SG) (SG) (DLTA) (SG) (SG) (SG)
                 (DLTA) (SG) (SG) (DLTA) (?C) (SG) (SG) (DLTA)
                 (DLTA) (SG) (SG) (?C) (SG) (DLTA) (SG) (SG) (SG)
                 (DLTA) (DLTA) (SG) (?C) (SG) (SG) (DLTA) (?C)
                 (SG) (DLTA) (SG) (SG) (DLTA) (SG) (DLTA) (SG)
                 (SG) (DLTA) (?C) (SG) (SG) (?C) (DLTA) (SG) (SG)
                 (DLTA) (SG) (?C) (DLTA) (?C) (DLTA) (?C) (DLTA)
                 (DLTA) (SG) (SG) (?C) (SG) (DLTA) (DLTA) (DLTA)
                 (DLTA) (DLTA) (?C) (DLTA) (DLTA) (?C) (DLTA) (DLTA)
                 (DLTA) (?C) (DLTA) (?C) (DLTA) (DLTA) (DLTA) (DLTA)
                 (?C) (SG) (?C) (DLTA) (DLTA) (SG) (?C) (DLTA)
                 (?C) (DLTA) (?C) (DLTA) (DLTA) (?C) (PI) (PI)
                 (PI) (PI) (PI) (PI) (PHI) (PI) (PI) (PI) (PHI)
                 (PI) (PI) (PHI) (PI) (PI) (?G) (PHI) (PI) (PI)
                 (PHI) (PI) (PI) (PHI) (PI) (PHI) (PI) (?G) (PI)
                 (PI) (PHI) (PI) (PI) (?G) (PHI) (PI) (PHI) (PI)
                 (?G) (PHI) (PHI) (PHI) (PI) (PHI) (?G) (PHI) (?G)
                 (PI) (PI) (PI) (PI) (PI) (PI) (PHI) (PI) (PI)
                 (PI) (PHI) (PI) (PI) (PHI) (PI) (PI) (?G) (PHI)
                 (PI) (PI) (PHI) (PI) (PI) (PHI) (PI) (PHI) (PI)
                 (?G) (PI) (PI) (PHI) (PI) (PI) (?G) (PHI) (PI)
                 (PHI) (PI) (?G) (PHI) (PHI) (PHI) (PI) (PHI) (?G)
                 (PHI) (?G)
 Leave Link  401 at Thu Mar  8 12:54:02 2018, MaxMem= 10737418240 cpu:              33.4 elap:               1.3
 (Enter /home1/apps/gaussian/16rA.03/g16/l502.exe)
 Keep R1 and R2 ints in memory in symmetry-blocked form, NReq=4666733380.
 FoFCou: FMM=F IPFlag=           8 FMFlag=           0 FMFlg1=           0
         NFxFlg=           0 DoJE=F BraDBF=F KetDBF=F FulRan=T
         wScrn=  0.000000 ICntrl=       600 IOpCl=  0 I1Cent=           0 NGrid=           0
         NMat0=    1 NMatS0=  86320 NMatT0=    0 NMatD0=    1 NMtDS0=    0 NMtDT0=    0
 Petite list used in FoFCou.
 Restricted open shell SCF:
 Using DIIS extrapolation, IDIIS=  1040.
 NGot= 10737418240 LenX=  8854695926 LenY=  8854367024
 Requested convergence on RMS density matrix=1.00D-08 within 400 cycles.
 Requested convergence on MAX density matrix=1.00D-06.
 Requested convergence on             energy=1.00D-06.
 No special actions if energy rises.

 Cycle   1  Pass 1  IDiag  1:
 E= -1271.78549581963    
 DIIS: error= 2.93D+00 at cycle   1 NSaved=   1.
 NSaved= 1 IEnMin= 1 EnMin= -1271.78549581963     IErMin= 1 ErrMin= 2.93D+00
 ErrMax= 2.93D+00  0.00D+00 EMaxC= 1.00D-01 BMatC= 1.29D+03 BMatP= 1.29D+03
 IDIUse=3 WtCom= 0.00D+00 WtEn= 1.00D+00
 Coeff-Com:  0.100D+01
 Coeff-En:   0.100D+01
 Coeff:      0.100D+01
 Fock symm off for IB=2 I1=   35 I=  196 J=  159 Cut=1.00D-07 Err=1.46D-07
 Fock matrix is not symmetric: symmetry in diagonalization turned off.
 Gap=    -1.222 Goal=   None    Shift=    0.000
 GapD=   -1.222 DampG=0.250 DampE=0.125 DampFc=0.1250 IDamp=-1.
 Damping current iteration by 1.25D-01
 RMSDP=1.06D-03 MaxDP=1.12D-01              OVMax= 1.00D+00

 Cycle   2  Pass 1  IDiag  1:
 E= -1271.78642669094     Delta-E=       -0.000930871311 Rises=F Damp=T
 DIIS: error= 2.56D+00 at cycle   2 NSaved=   2.
 NSaved= 2 IEnMin= 2 EnMin= -1271.78642669094     IErMin= 2 ErrMin= 2.56D+00
 ErrMax= 2.56D+00  0.00D+00 EMaxC= 1.00D-01 BMatC= 9.85D+02 BMatP= 1.29D+03
 IDIUse=3 WtCom= 0.00D+00 WtEn= 1.00D+00
 Coeff-Com: -0.700D+01 0.800D+01
 Coeff-En:   0.000D+00 0.100D+01
 Coeff:      0.000D+00 0.100D+01
 Gap=     0.015 Goal=   None    Shift=    0.000
 RMSDP=9.57D-04 MaxDP=9.85D-02 DE=-9.31D-04 OVMax= 1.61D-01

 Cycle   3  Pass 1  IDiag  1:
 Density matrix breaks symmetry, PCut= 1.00D-07
 Density matrix has no symmetry -- integrals replicated.
 E= -1271.77796267975     Delta-E=        0.008464011190 Rises=F Damp=F
 DIIS: error= 1.18D-02 at cycle   3 NSaved=   3.
 NSaved= 3 IEnMin= 2 EnMin= -1271.78642669094     IErMin= 3 ErrMin= 1.18D-02
 ErrMax= 1.18D-02  0.00D+00 EMaxC= 1.00D-01 BMatC= 8.97D-03 BMatP= 9.85D+02
 IDIUse=3 WtCom= 8.82D-01 WtEn= 1.18D-01
 Coeff-Com: -0.234D+01 0.267D+01 0.666D+00
 Coeff-En:   0.000D+00 0.635D+00 0.365D+00
 Coeff:     -0.206D+01 0.243D+01 0.631D+00
 Gap=     0.035 Goal=   None    Shift=    0.000
 RMSDP=6.08D-04 MaxDP=8.74D-02 DE= 8.46D-03 OVMax= 2.38D-01

 Cycle   4  Pass 1  IDiag  1:
 Density matrix breaks symmetry, PCut= 1.00D-07
 Density matrix has no symmetry -- integrals replicated.
 E= -1271.77317298125     Delta-E=        0.004789698501 Rises=F Damp=F
 DIIS: error= 9.28D-03 at cycle   4 NSaved=   4.
 NSaved= 4 IEnMin= 2 EnMin= -1271.78642669094     IErMin= 4 ErrMin= 9.28D-03
 ErrMax= 9.28D-03  0.00D+00 EMaxC= 1.00D-01 BMatC= 1.09D-02 BMatP= 8.97D-03
 IDIUse=3 WtCom= 9.40D-02 WtEn= 9.06D-01
 Coeff-Com: -0.148D+01 0.169D+01 0.449D+00 0.339D+00
 Coeff-En:   0.000D+00 0.000D+00 0.528D+00 0.472D+00
 Coeff:     -0.139D+00 0.159D+00 0.520D+00 0.460D+00
 Gap=     0.032 Goal=   None    Shift=    0.000
 RMSDP=9.90D-04 MaxDP=1.03D-01 DE= 4.79D-03 OVMax= 2.55D-01

 Cycle   5  Pass 1  IDiag  1:
 Density matrix breaks symmetry, PCut= 1.00D-07
 Density matrix has no symmetry -- integrals replicated.
 E= -1271.77830533610     Delta-E=       -0.005132354853 Rises=F Damp=F
 DIIS: error= 8.46D-03 at cycle   5 NSaved=   5.
 NSaved= 5 IEnMin= 2 EnMin= -1271.78642669094     IErMin= 5 ErrMin= 8.46D-03
 ErrMax= 8.46D-03  0.00D+00 EMaxC= 1.00D-01 BMatC= 7.88D-03 BMatP= 8.97D-03
 IDIUse=3 WtCom= 9.15D-01 WtEn= 8.46D-02
 EnCoef did     4 forward-backward iterations
 Coeff-Com: -0.683D+00 0.780D+00 0.361D+00 0.305D+00 0.236D+00
 Coeff-En:   0.000D+00 0.000D+00 0.336D+00 0.336D+00 0.328D+00
 Coeff:     -0.625D+00 0.714D+00 0.359D+00 0.308D+00 0.244D+00
 Gap=     0.029 Goal=   None    Shift=    0.000
 RMSDP=6.53D-04 MaxDP=6.94D-02 DE=-5.13D-03 OVMax= 1.57D-01

 Cycle   6  Pass 1  IDiag  1:
 Density matrix breaks symmetry, PCut= 1.00D-07
 Density matrix has no symmetry -- integrals replicated.
 E= -1271.79342948409     Delta-E=       -0.015124147988 Rises=F Damp=F
 DIIS: error= 3.97D-03 at cycle   6 NSaved=   6.
 NSaved= 6 IEnMin= 6 EnMin= -1271.79342948409     IErMin= 6 ErrMin= 3.97D-03
 ErrMax= 3.97D-03  0.00D+00 EMaxC= 1.00D-01 BMatC= 1.35D-03 BMatP= 7.88D-03
 IDIUse=3 WtCom= 9.60D-01 WtEn= 3.97D-02
 Rare condition: small coef for last iteration: -0.222D-15
 Coeff-Com: -0.748D+00 0.854D+00 0.248D+00 0.213D+00 0.157D+00 0.275D+00
 Coeff-En:   0.000D+00 0.000D+00 0.146D+00 0.209D+00 0.192D+00 0.453D+00
 Coeff:     -0.748D+00 0.854D+00 0.248D+00 0.213D+00 0.157D+00 0.275D+00
 Gap=     0.026 Goal=   None    Shift=    0.000
 RMSDP=1.13D-04 MaxDP=1.83D-02 DE=-1.51D-02 OVMax= 5.05D-02

 Cycle   7  Pass 1  IDiag  1:
 Density matrix breaks symmetry, PCut= 1.00D-07
 Density matrix has no symmetry -- integrals replicated.
 E= -1271.79471986926     Delta-E=       -0.001290385169 Rises=F Damp=F
 DIIS: error= 3.17D-03 at cycle   7 NSaved=   7.
 NSaved= 7 IEnMin= 7 EnMin= -1271.79471986926     IErMin= 7 ErrMin= 3.17D-03
 ErrMax= 3.17D-03  0.00D+00 EMaxC= 1.00D-01 BMatC= 4.50D-04 BMatP= 1.35D-03
 IDIUse=3 WtCom= 9.68D-01 WtEn= 3.17D-02
 EnCoef did   100 forward-backward iterations
 Rare condition: small coef for last iteration:  0.231D-16
 Coeff-Com: -0.728D+00 0.832D+00 0.155D+00 0.134D+00 0.952D-01 0.179D+00
 Coeff-Com:  0.332D+00
 Coeff-En:   0.000D+00 0.000D+00 0.161D+00 0.178D+00 0.163D+00 0.111D+00
 Coeff-En:   0.387D+00
 Coeff:     -0.728D+00 0.832D+00 0.155D+00 0.134D+00 0.952D-01 0.179D+00
 Coeff:      0.332D+00
 Gap=     0.024 Goal=   None    Shift=    0.000
 RMSDP=1.91D-04 MaxDP=2.50D-02 DE=-1.29D-03 OVMax= 4.15D-02

 Cycle   8  Pass 1  IDiag  1:
 Density matrix breaks symmetry, PCut= 1.00D-07
 Density matrix has no symmetry -- integrals replicated.
 E= -1271.79486354677     Delta-E=       -0.000143677509 Rises=F Damp=F
 DIIS: error= 2.52D-03 at cycle   8 NSaved=   8.
 NSaved= 8 IEnMin= 8 EnMin= -1271.79486354677     IErMin= 8 ErrMin= 2.52D-03
 ErrMax= 2.52D-03  0.00D+00 EMaxC= 1.00D-01 BMatC= 4.53D-04 BMatP= 4.50D-04
 IDIUse=3 WtCom= 9.75D-01 WtEn= 2.52D-02
 EnCoef did   100 forward-backward iterations
 Rare condition: small coef for last iteration:  0.000D+00
 Coeff-Com: -0.677D+00 0.774D+00 0.100D+00 0.900D-01 0.691D-01 0.113D+00
 Coeff-Com:  0.328D+00 0.204D+00
 Coeff-En:   0.000D+00 0.000D+00 0.170D+00 0.163D+00 0.157D+00 0.000D+00
 Coeff-En:   0.227D+00 0.282D+00
 Coeff:     -0.677D+00 0.774D+00 0.100D+00 0.900D-01 0.691D-01 0.113D+00
 Coeff:      0.328D+00 0.204D+00
 Gap=     0.023 Goal=   None    Shift=    0.000
 RMSDP=3.99D-04 MaxDP=5.42D-02 DE=-1.44D-04 OVMax= 7.56D-02

 Cycle   9  Pass 1  IDiag  1:
 Density matrix breaks symmetry, PCut= 1.00D-07
 Density matrix has no symmetry -- integrals replicated.
 E= -1271.79449674929     Delta-E=        0.000366797480 Rises=F Damp=F
 DIIS: error= 2.32D-03 at cycle   9 NSaved=   9.
 NSaved= 9 IEnMin= 8 EnMin= -1271.79486354677     IErMin= 9 ErrMin= 2.32D-03
 ErrMax= 2.32D-03  0.00D+00 EMaxC= 1.00D-01 BMatC= 6.31D-04 BMatP= 4.50D-04
 IDIUse=3 WtCom= 9.75D-01 WtEn= 2.52D-02
 EnCoef did   100 forward-backward iterations
 Coeff-Com: -0.609D+00 0.696D+00 0.484D-01 0.529D-01 0.493D-01 0.637D-01
 Coeff-Com:  0.230D+00 0.312D+00 0.157D+00
 Coeff-En:   0.000D+00 0.000D+00 0.332D+00 0.332D+00 0.325D+00 0.000D+00
 Coeff-En:   0.000D+00 0.620D-02 0.512D-02
 Coeff:     -0.593D+00 0.678D+00 0.556D-01 0.599D-01 0.562D-01 0.621D-01
 Coeff:      0.224D+00 0.304D+00 0.153D+00
 Gap=     0.023 Goal=   None    Shift=    0.000
 RMSDP=3.00D-04 MaxDP=4.00D-02 DE= 3.67D-04 OVMax= 5.66D-02

 Cycle  10  Pass 1  IDiag  1:
 Density matrix breaks symmetry, PCut= 1.00D-07
 Density matrix has no symmetry -- integrals replicated.
 E= -1271.79553126693     Delta-E=       -0.001034517635 Rises=F Damp=F
 DIIS: error= 2.17D-03 at cycle  10 NSaved=  10.
 NSaved=10 IEnMin=10 EnMin= -1271.79553126693     IErMin=10 ErrMin= 2.17D-03
 ErrMax= 2.17D-03  0.00D+00 EMaxC= 1.00D-01 BMatC= 2.40D-04 BMatP= 4.50D-04
 IDIUse=3 WtCom= 9.78D-01 WtEn= 2.17D-02
 EnCoef did   100 forward-backward iterations
 Rare condition: small coef for last iteration: -0.452D-15
 Coeff-Com: -0.317D+00 0.362D+00-0.251D-01 0.508D-01 0.233D-01 0.188D+00
 Coeff-Com: -0.567D+00-0.687D+00 0.132D-01 0.196D+01
 Coeff-En:   0.000D+00 0.000D+00 0.165D+00 0.159D+00 0.142D+00 0.000D+00
 Coeff-En:   0.000D+00 0.216D-01 0.135D+00 0.377D+00
 Coeff:     -0.317D+00 0.362D+00-0.251D-01 0.508D-01 0.233D-01 0.188D+00
 Coeff:     -0.567D+00-0.687D+00 0.132D-01 0.196D+01
 Gap=     0.024 Goal=   None    Shift=    0.000
 RMSDP=8.89D-05 MaxDP=8.58D-03 DE=-1.03D-03 OVMax= 1.97D-02

 Cycle  11  Pass 1  IDiag  1:
 Density matrix breaks symmetry, PCut= 1.00D-07
 Density matrix has no symmetry -- integrals replicated.
 E= -1271.79605269560     Delta-E=       -0.000521428676 Rises=F Damp=F
 DIIS: error= 1.39D-03 at cycle  11 NSaved=  11.
 NSaved=11 IEnMin=11 EnMin= -1271.79605269560     IErMin=11 ErrMin= 1.39D-03
 ErrMax= 1.39D-03  0.00D+00 EMaxC= 1.00D-01 BMatC= 1.68D-04 BMatP= 2.40D-04
 IDIUse=3 WtCom= 9.86D-01 WtEn= 1.39D-02
 EnCoef did   100 forward-backward iterations
 Rare condition: small coef for last iteration:  0.000D+00
 Coeff-Com: -0.142D+00 0.162D+00-0.557D-01 0.384D-01-0.304D-02 0.259D+00
 Coeff-Com: -0.728D+00-0.107D+01-0.134D+00 0.222D+01 0.453D+00
 Coeff-En:   0.000D+00 0.000D+00 0.178D+00 0.143D+00 0.108D+00 0.000D+00
 Coeff-En:   0.000D+00 0.000D+00 0.362D-01 0.000D+00 0.535D+00
 Coeff:     -0.142D+00 0.162D+00-0.557D-01 0.384D-01-0.304D-02 0.259D+00
 Coeff:     -0.728D+00-0.107D+01-0.134D+00 0.222D+01 0.453D+00
 Gap=     0.024 Goal=   None    Shift=    0.000
 RMSDP=1.57D-04 MaxDP=2.38D-02 DE=-5.21D-04 OVMax= 2.20D-02

 Cycle  12  Pass 1  IDiag  1:
 Density matrix breaks symmetry, PCut= 1.00D-07
 Density matrix has no symmetry -- integrals replicated.
 E= -1271.79643817919     Delta-E=       -0.000385483590 Rises=F Damp=F
 DIIS: error= 5.67D-04 at cycle  12 NSaved=  12.
 NSaved=12 IEnMin=12 EnMin= -1271.79643817919     IErMin=12 ErrMin= 5.67D-04
 ErrMax= 5.67D-04  0.00D+00 EMaxC= 1.00D-01 BMatC= 6.43D-05 BMatP= 1.68D-04
 IDIUse=3 WtCom= 9.94D-01 WtEn= 5.67D-03
 EnCoef did   100 forward-backward iterations
 Rare condition: small coef for last iteration:  0.000D+00
 Coeff-Com:  0.313D-02-0.358D-02-0.381D-01-0.156D-02-0.270D-01 0.224D+00
 Coeff-Com: -0.188D+00-0.665D+00-0.219D+00 0.628D+00 0.537D+00 0.751D+00
 Coeff-En:   0.000D+00 0.000D+00 0.177D+00 0.117D+00 0.840D-01 0.000D+00
 Coeff-En:   0.000D+00 0.000D+00 0.000D+00 0.000D+00 0.122D+00 0.500D+00
 Coeff:      0.313D-02-0.358D-02-0.381D-01-0.156D-02-0.270D-01 0.224D+00
 Coeff:     -0.188D+00-0.665D+00-0.219D+00 0.628D+00 0.537D+00 0.751D+00
 Gap=     0.026 Goal=   None    Shift=    0.000
 RMSDP=6.39D-04 MaxDP=1.03D-01 DE=-3.85D-04 OVMax= 3.06D-02

 Cycle  13  Pass 1  IDiag  1:
 Density matrix breaks symmetry, PCut= 1.00D-07
 Density matrix has no symmetry -- integrals replicated.
 E= -1271.79633390775     Delta-E=        0.000104271443 Rises=F Damp=F
 DIIS: error= 1.41D-03 at cycle  13 NSaved=  13.
 NSaved=13 IEnMin=12 EnMin= -1271.79643817919     IErMin=12 ErrMin= 5.67D-04
 ErrMax= 1.41D-03  0.00D+00 EMaxC= 1.00D-01 BMatC= 1.54D-04 BMatP= 6.43D-05
 IDIUse=3 WtCom= 9.94D-01 WtEn= 5.67D-03
 EnCoef did   100 forward-backward iterations
 Rare condition: small coef for last iteration:  0.000D+00
 Coeff-Com:  0.455D-01-0.520D-01-0.263D-01-0.115D-01-0.265D-01 0.192D+00
 Coeff-Com:  0.260D-02-0.455D+00-0.210D+00 0.857D-01 0.466D+00 0.811D+00
 Coeff-Com:  0.178D+00
 Coeff-En:   0.000D+00 0.000D+00 0.172D+00 0.103D+00 0.722D-01 0.000D+00
 Coeff-En:   0.000D+00 0.000D+00 0.000D+00 0.000D+00 0.000D+00 0.373D+00
 Coeff-En:   0.280D+00
 Coeff:      0.455D-01-0.520D-01-0.263D-01-0.115D-01-0.265D-01 0.192D+00
 Coeff:      0.260D-02-0.455D+00-0.210D+00 0.857D-01 0.466D+00 0.811D+00
 Coeff:      0.178D+00
 Gap=     0.027 Goal=   None    Shift=    0.000
 RMSDP=6.88D-04 MaxDP=1.14D-01 DE= 1.04D-04 OVMax= 3.45D-02

 Cycle  14  Pass 1  IDiag  1:
 Density matrix breaks symmetry, PCut= 1.00D-07
 Density matrix has no symmetry -- integrals replicated.
 E= -1271.79660561991     Delta-E=       -0.000271712157 Rises=F Damp=F
 DIIS: error= 5.13D-04 at cycle  14 NSaved=  14.
 NSaved=14 IEnMin=14 EnMin= -1271.79660561991     IErMin=14 ErrMin= 5.13D-04
 ErrMax= 5.13D-04  0.00D+00 EMaxC= 1.00D-01 BMatC= 3.51D-05 BMatP= 6.43D-05
 IDIUse=3 WtCom= 9.95D-01 WtEn= 5.13D-03
 EnCoef did   100 forward-backward iterations
 Rare condition: small coef for last iteration:  0.000D+00
 Coeff-Com:  0.113D+00-0.129D+00 0.328D-02-0.171D-01-0.535D-02 0.856D-01
 Coeff-Com:  0.270D+00 0.176D-01-0.987D-01-0.666D+00 0.137D+00 0.446D+00
 Coeff-Com:  0.283D+00 0.560D+00
 Coeff-En:   0.000D+00 0.000D+00 0.153D+00 0.830D-01 0.536D-01 0.000D+00
 Coeff-En:   0.000D+00 0.000D+00 0.000D+00 0.000D+00 0.000D+00 0.000D+00
 Coeff-En:   0.255D+00 0.455D+00
 Coeff:      0.113D+00-0.129D+00 0.328D-02-0.171D-01-0.535D-02 0.856D-01
 Coeff:      0.270D+00 0.176D-01-0.987D-01-0.666D+00 0.137D+00 0.446D+00
 Coeff:      0.283D+00 0.560D+00
 Gap=     0.029 Goal=   None    Shift=    0.000
 RMSDP=1.61D-04 MaxDP=2.45D-02 DE=-2.72D-04 OVMax= 1.09D-02

 Cycle  15  Pass 1  IDiag  1:
 Density matrix breaks symmetry, PCut= 1.00D-07
 Density matrix has no symmetry -- integrals replicated.
 E= -1271.79667106496     Delta-E=       -0.000065445048 Rises=F Damp=F
 DIIS: error= 5.76D-04 at cycle  15 NSaved=  15.
 NSaved=15 IEnMin=15 EnMin= -1271.79667106496     IErMin=14 ErrMin= 5.13D-04
 ErrMax= 5.76D-04  0.00D+00 EMaxC= 1.00D-01 BMatC= 1.05D-05 BMatP= 3.51D-05
 IDIUse=3 WtCom= 9.95D-01 WtEn= 5.13D-03
 EnCoef did   100 forward-backward iterations
 Rare condition: small coef for last iteration:  0.000D+00
 Coeff-Com:  0.133D+00-0.152D+00 0.126D-01-0.253D-02 0.964D-02 0.136D-01
 Coeff-Com:  0.163D+00 0.131D+00-0.317D-02-0.423D+00-0.652D-01 0.101D-01
 Coeff-Com:  0.993D-01 0.308D+00 0.765D+00
 Coeff-En:   0.000D+00 0.000D+00 0.140D+00 0.755D-01 0.387D-01 0.000D+00
 Coeff-En:   0.000D+00 0.000D+00 0.000D+00 0.000D+00 0.000D+00 0.000D+00
 Coeff-En:   0.116D+00 0.590D-01 0.571D+00
 Coeff:      0.133D+00-0.152D+00 0.126D-01-0.253D-02 0.964D-02 0.136D-01
 Coeff:      0.163D+00 0.131D+00-0.317D-02-0.423D+00-0.652D-01 0.101D-01
 Coeff:      0.993D-01 0.308D+00 0.765D+00
 Gap=     0.030 Goal=   None    Shift=    0.000
 RMSDP=2.52D-04 MaxDP=3.08D-02 DE=-6.54D-05 OVMax= 9.79D-03

 Cycle  16  Pass 1  IDiag  1:
 Density matrix breaks symmetry, PCut= 1.00D-07
 Density matrix has no symmetry -- integrals replicated.
 E= -1271.79666323148     Delta-E=        0.000007833475 Rises=F Damp=F
 DIIS: error= 5.61D-04 at cycle  16 NSaved=  16.
 NSaved=16 IEnMin=15 EnMin= -1271.79667106496     IErMin=14 ErrMin= 5.13D-04
 ErrMax= 5.61D-04  0.00D+00 EMaxC= 1.00D-01 BMatC= 1.62D-05 BMatP= 1.05D-05
 IDIUse=3 WtCom= 9.95D-01 WtEn= 5.13D-03
 EnCoef did   100 forward-backward iterations
 Rare condition: small coef for last iteration:  0.000D+00
 Coeff-Com:  0.137D+00-0.156D+00 0.149D-01 0.801D-02 0.155D-01-0.310D-01
 Coeff-Com:  0.349D-01 0.142D+00 0.548D-01-0.128D+00-0.155D+00-0.236D+00
 Coeff-Com: -0.347D-01 0.667D-01 0.944D+00 0.323D+00
 Coeff-En:   0.000D+00 0.000D+00 0.131D+00 0.713D-01 0.324D-01 0.000D+00
 Coeff-En:   0.000D+00 0.000D+00 0.000D+00 0.000D+00 0.000D+00 0.000D+00
 Coeff-En:   0.778D-01 0.000D+00 0.395D+00 0.292D+00
 Coeff:      0.137D+00-0.156D+00 0.149D-01 0.801D-02 0.155D-01-0.310D-01
 Coeff:      0.349D-01 0.142D+00 0.548D-01-0.128D+00-0.155D+00-0.236D+00
 Coeff:     -0.347D-01 0.667D-01 0.944D+00 0.323D+00
 Gap=     0.030 Goal=   None    Shift=    0.000
 RMSDP=2.26D-04 MaxDP=2.68D-02 DE= 7.83D-06 OVMax= 8.37D-03

 Cycle  17  Pass 1  IDiag  1:
 Density matrix breaks symmetry, PCut= 1.00D-07
 Density matrix has no symmetry -- integrals replicated.
 E= -1271.79668770178     Delta-E=       -0.000024470295 Rises=F Damp=F
 DIIS: error= 5.17D-04 at cycle  17 NSaved=  17.
 NSaved=17 IEnMin=17 EnMin= -1271.79668770178     IErMin=14 ErrMin= 5.13D-04
 ErrMax= 5.17D-04  0.00D+00 EMaxC= 1.00D-01 BMatC= 7.79D-06 BMatP= 1.05D-05
 IDIUse=3 WtCom= 9.95D-01 WtEn= 5.13D-03
 EnCoef did   100 forward-backward iterations
 Rare condition: small coef for last iteration:  0.208D-17
 Coeff-Com:  0.121D+00-0.138D+00 0.103D-01 0.101D-01 0.987D-02-0.404D-01
 Coeff-Com: -0.693D-01 0.618D-01 0.521D-01 0.106D+00-0.102D+00-0.196D+00
 Coeff-Com: -0.618D-01-0.490D-01 0.493D+00 0.253D+00 0.539D+00
 Coeff-En:   0.000D+00 0.000D+00 0.107D+00 0.603D-01 0.196D-01 0.000D+00
 Coeff-En:   0.000D+00 0.000D+00 0.000D+00 0.000D+00 0.000D+00 0.000D+00
 Coeff-En:   0.740D-02 0.000D+00 0.000D+00 0.176D+00 0.629D+00
 Coeff:      0.121D+00-0.138D+00 0.103D-01 0.101D-01 0.987D-02-0.404D-01
 Coeff:     -0.693D-01 0.618D-01 0.521D-01 0.106D+00-0.102D+00-0.196D+00
 Coeff:     -0.618D-01-0.490D-01 0.493D+00 0.253D+00 0.539D+00
 Gap=     0.030 Goal=   None    Shift=    0.000
 RMSDP=4.84D-05 MaxDP=5.88D-03 DE=-2.45D-05 OVMax= 3.38D-03

 Cycle  18  Pass 1  IDiag  1:
 Density matrix breaks symmetry, PCut= 1.00D-07
 Density matrix has no symmetry -- integrals replicated.
 E= -1271.79668829607     Delta-E=       -0.000000594299 Rises=F Damp=F
 DIIS: error= 5.01D-04 at cycle  18 NSaved=  18.
 NSaved=18 IEnMin=18 EnMin= -1271.79668829607     IErMin=18 ErrMin= 5.01D-04
 ErrMax= 5.01D-04  0.00D+00 EMaxC= 1.00D-01 BMatC= 7.87D-06 BMatP= 7.79D-06
 IDIUse=3 WtCom= 9.95D-01 WtEn= 5.01D-03
 EnCoef did   100 forward-backward iterations
 Rare condition: small coef for last iteration:  0.926D-18
 Coeff-Com:  0.110D+00-0.126D+00 0.878D-02 0.101D-01 0.741D-02-0.391D-01
 Coeff-Com: -0.967D-01 0.274D-01 0.437D-01 0.169D+00-0.690D-01-0.152D+00
 Coeff-Com: -0.589D-01-0.741D-01 0.266D+00 0.181D+00 0.580D+00 0.211D+00
 Coeff-En:   0.000D+00 0.000D+00 0.101D+00 0.569D-01 0.181D-01 0.000D+00
 Coeff-En:   0.000D+00 0.000D+00 0.000D+00 0.000D+00 0.000D+00 0.000D+00
 Coeff-En:   0.000D+00 0.000D+00 0.000D+00 0.579D-01 0.368D+00 0.398D+00
 Coeff:      0.110D+00-0.126D+00 0.878D-02 0.101D-01 0.741D-02-0.391D-01
 Coeff:     -0.967D-01 0.274D-01 0.437D-01 0.169D+00-0.690D-01-0.152D+00
 Coeff:     -0.589D-01-0.741D-01 0.266D+00 0.181D+00 0.580D+00 0.211D+00
 Gap=     0.030 Goal=   None    Shift=    0.000
 RMSDP=3.06D-05 MaxDP=3.74D-03 DE=-5.94D-07 OVMax= 4.00D-03

 Cycle  19  Pass 1  IDiag  1:
 Density matrix breaks symmetry, PCut= 1.00D-07
 Density matrix has no symmetry -- integrals replicated.
 E= -1271.79669480961     Delta-E=       -0.000006513535 Rises=F Damp=F
 DIIS: error= 4.37D-04 at cycle  19 NSaved=  19.
 NSaved=19 IEnMin=19 EnMin= -1271.79669480961     IErMin=19 ErrMin= 4.37D-04
 ErrMax= 4.37D-04  0.00D+00 EMaxC= 1.00D-01 BMatC= 5.10D-06 BMatP= 7.79D-06
 IDIUse=3 WtCom= 9.96D-01 WtEn= 4.37D-03
 EnCoef did   100 forward-backward iterations
 Rare condition: small coef for last iteration:  0.000D+00
 Coeff-Com:  0.979D-01-0.112D+00 0.924D-02 0.901D-02 0.690D-02-0.303D-01
 Coeff-Com: -0.788D-01 0.156D-01 0.301D-01 0.131D+00-0.425D-01-0.952D-01
 Coeff-Com: -0.370D-01-0.503D-01 0.130D+00 0.902D-01 0.308D+00 0.213D+00
 Coeff-Com:  0.404D+00
 Coeff-En:   0.000D+00 0.000D+00 0.935D-01 0.531D-01 0.178D-01 0.000D+00
 Coeff-En:   0.000D+00 0.000D+00 0.000D+00 0.000D+00 0.000D+00 0.000D+00
 Coeff-En:   0.000D+00 0.000D+00 0.000D+00 0.000D+00 0.000D+00 0.230D+00
 Coeff-En:   0.606D+00
 Coeff:      0.979D-01-0.112D+00 0.924D-02 0.901D-02 0.690D-02-0.303D-01
 Coeff:     -0.788D-01 0.156D-01 0.301D-01 0.131D+00-0.425D-01-0.952D-01
 Coeff:     -0.370D-01-0.503D-01 0.130D+00 0.902D-01 0.308D+00 0.213D+00
 Coeff:      0.404D+00
 Gap=     0.030 Goal=   None    Shift=    0.000
 RMSDP=3.45D-05 MaxDP=4.40D-03 DE=-6.51D-06 OVMax= 2.39D-03

 Cycle  20  Pass 1  IDiag  1:
 Density matrix breaks symmetry, PCut= 1.00D-07
 Density matrix has no symmetry -- integrals replicated.
 E= -1271.79669709236     Delta-E=       -0.000002282748 Rises=F Damp=F
 DIIS: error= 4.00D-04 at cycle  20 NSaved=  20.
 NSaved=20 IEnMin=20 EnMin= -1271.79669709236     IErMin=20 ErrMin= 4.00D-04
 ErrMax= 4.00D-04  0.00D+00 EMaxC= 1.00D-01 BMatC= 4.32D-06 BMatP= 5.10D-06
 IDIUse=3 WtCom= 9.96D-01 WtEn= 4.00D-03
 EnCoef did   100 forward-backward iterations
 Rare condition: small coef for last iteration: -0.175D-17
 Coeff-Com:  0.681D-01-0.778D-01 0.105D-01 0.586D-02 0.668D-02-0.795D-02
 Coeff-Com: -0.159D-01 0.587D-02 0.194D-02-0.165D-02 0.389D-02 0.186D-01
 Coeff-Com:  0.161D-01 0.258D-01-0.605D-01-0.906D-01-0.399D+00 0.668D-01
 Coeff-Com:  0.857D+00 0.567D+00
 Coeff-En:   0.000D+00 0.000D+00 0.913D-01 0.531D-01 0.184D-01 0.000D+00
 Coeff-En:   0.000D+00 0.000D+00 0.000D+00 0.000D+00 0.000D+00 0.000D+00
 Coeff-En:   0.000D+00 0.000D+00 0.000D+00 0.000D+00 0.000D+00 0.162D-01
 Coeff-En:   0.264D+00 0.557D+00
 Coeff:      0.681D-01-0.778D-01 0.105D-01 0.586D-02 0.668D-02-0.795D-02
 Coeff:     -0.159D-01 0.587D-02 0.194D-02-0.165D-02 0.389D-02 0.186D-01
 Coeff:      0.161D-01 0.258D-01-0.605D-01-0.906D-01-0.399D+00 0.668D-01
 Coeff:      0.857D+00 0.567D+00
 Gap=     0.030 Goal=   None    Shift=    0.000
 RMSDP=1.36D-05 MaxDP=1.49D-03 DE=-2.28D-06 OVMax= 2.57D-03

 Cycle  21  Pass 1  IDiag  1:
 Density matrix breaks symmetry, PCut= 1.00D-07
 Density matrix has no symmetry -- integrals replicated.
 E= -1271.79670296249     Delta-E=       -0.000005870130 Rises=F Damp=F
 DIIS: error= 2.72D-04 at cycle  21 NSaved=  20.
 NSaved=20 IEnMin=20 EnMin= -1271.79670296249     IErMin=20 ErrMin= 2.72D-04
 ErrMax= 2.72D-04  0.00D+00 EMaxC= 1.00D-01 BMatC= 2.14D-06 BMatP= 4.32D-06
 IDIUse=3 WtCom= 9.97D-01 WtEn= 2.72D-03
 EnCoef did   100 forward-backward iterations
 Coeff-Com:  0.551D-01-0.630D-01 0.594D-02 0.321D-02 0.623D-03 0.228D-01
 Coeff-Com:  0.991D-02-0.884D-02-0.813D-01 0.260D-01 0.775D-01 0.444D-01
 Coeff-Com:  0.716D-01-0.117D+00-0.149D+00-0.624D+00-0.158D-01 0.837D+00
 Coeff-Com:  0.636D+00 0.268D+00
 Coeff-En:   0.000D+00 0.000D+00 0.173D+00 0.272D+00 0.000D+00 0.000D+00
 Coeff-En:   0.301D+00 0.242D+00 0.000D+00 0.994D-03 0.510D-02 0.964D-03
 Coeff-En:   0.116D-02 0.000D+00 0.000D+00 0.000D+00 0.000D+00 0.000D+00
 Coeff-En:   0.000D+00 0.412D-02
 Coeff:      0.549D-01-0.628D-01 0.639D-02 0.395D-02 0.621D-03 0.227D-01
 Coeff:      0.107D-01-0.816D-02-0.811D-01 0.260D-01 0.773D-01 0.443D-01
 Coeff:      0.714D-01-0.117D+00-0.148D+00-0.623D+00-0.157D-01 0.835D+00
 Coeff:      0.634D+00 0.267D+00
 Gap=     0.030 Goal=   None    Shift=    0.000
 RMSDP=2.02D-05 MaxDP=2.72D-03 DE=-5.87D-06 OVMax= 1.62D-03

 Cycle  22  Pass 1  IDiag  1:
 Density matrix breaks symmetry, PCut= 1.00D-07
 Density matrix has no symmetry -- integrals replicated.
 E= -1271.79670422951     Delta-E=       -0.000001267025 Rises=F Damp=F
 DIIS: error= 2.33D-04 at cycle  22 NSaved=  20.
 NSaved=20 IEnMin=20 EnMin= -1271.79670422951     IErMin=20 ErrMin= 2.33D-04
 ErrMax= 2.33D-04  0.00D+00 EMaxC= 1.00D-01 BMatC= 1.50D-06 BMatP= 2.14D-06
 IDIUse=3 WtCom= 9.98D-01 WtEn= 2.33D-03
 EnCoef did     2 forward-backward iterations
 Coeff-Com:  0.373D-01-0.427D-01 0.146D-02 0.495D-03-0.338D-01-0.299D-01
 Coeff-Com:  0.329D-02 0.741D-01 0.137D-01 0.594D-02-0.354D-02-0.928D-02
 Coeff-Com: -0.335D-02-0.190D-01-0.122D+00-0.588D-01-0.546D-01 0.431D-01
 Coeff-Com:  0.340D+00 0.857D+00
 Coeff-En:   0.000D+00 0.000D+00 0.274D-01 0.000D+00 0.000D+00 0.000D+00
 Coeff-En:   0.000D+00 0.000D+00 0.000D+00 0.000D+00 0.000D+00 0.000D+00
 Coeff-En:   0.000D+00 0.000D+00 0.000D+00 0.000D+00 0.000D+00 0.000D+00
 Coeff-En:   0.205D-01 0.952D+00
 Coeff:      0.372D-01-0.426D-01 0.152D-02 0.494D-03-0.337D-01-0.299D-01
 Coeff:      0.328D-02 0.739D-01 0.137D-01 0.593D-02-0.353D-02-0.926D-02
 Coeff:     -0.334D-02-0.190D-01-0.121D+00-0.586D-01-0.545D-01 0.430D-01
 Coeff:      0.339D+00 0.858D+00
 Gap=     0.030 Goal=   None    Shift=    0.000
 DSYEVD-2 returned Info=       83639 IAlg= 4 N=   407 NDim=   407 NE2=    21755200 trying  DSYEV.
 RMSDP=9.71D-06 MaxDP=1.07D-03 DE=-1.27D-06 OVMax= 1.20D-03

 Cycle  23  Pass 1  IDiag  1:
 Density matrix breaks symmetry, PCut= 1.00D-07
 Density matrix has no symmetry -- integrals replicated.
 E= -1271.79670657147     Delta-E=       -0.000002341956 Rises=F Damp=F
 DIIS: error= 1.52D-04 at cycle  23 NSaved=  20.
 NSaved=20 IEnMin=20 EnMin= -1271.79670657147     IErMin=20 ErrMin= 1.52D-04
 ErrMax= 1.52D-04  0.00D+00 EMaxC= 1.00D-01 BMatC= 5.37D-07 BMatP= 1.50D-06
 IDIUse=3 WtCom= 9.98D-01 WtEn= 1.52D-03
 Coeff-Com:  0.145D-01-0.165D-01 0.134D-02 0.495D-02-0.101D-02 0.308D-02
 Coeff-Com: -0.604D-02 0.184D-02 0.327D-03-0.377D-03 0.241D-02 0.241D-01
 Coeff-Com:  0.304D-02-0.305D-01-0.752D-01-0.262D+00-0.114D+00 0.219D+00
 Coeff-Com:  0.478D+00 0.753D+00
 Coeff-En:   0.000D+00 0.000D+00 0.000D+00 0.000D+00 0.000D+00 0.000D+00
 Coeff-En:   0.000D+00 0.000D+00 0.000D+00 0.000D+00 0.000D+00 0.000D+00
 Coeff-En:   0.000D+00 0.000D+00 0.000D+00 0.000D+00 0.000D+00 0.000D+00
 Coeff-En:   0.000D+00 0.100D+01
 Coeff:      0.145D-01-0.165D-01 0.133D-02 0.494D-02-0.100D-02 0.307D-02
 Coeff:     -0.603D-02 0.184D-02 0.327D-03-0.377D-03 0.241D-02 0.241D-01
 Coeff:      0.304D-02-0.305D-01-0.751D-01-0.262D+00-0.113D+00 0.219D+00
 Coeff:      0.477D+00 0.754D+00
 Gap=     0.030 Goal=   None    Shift=    0.000
 RMSDP=9.30D-06 MaxDP=1.48D-03 DE=-2.34D-06 OVMax= 9.22D-04

 Cycle  24  Pass 1  IDiag  1:
 Density matrix breaks symmetry, PCut= 1.00D-07
 Density matrix has no symmetry -- integrals replicated.
 E= -1271.79670743639     Delta-E=       -0.000000864924 Rises=F Damp=F
 DIIS: error= 6.16D-05 at cycle  24 NSaved=  20.
 NSaved=20 IEnMin=20 EnMin= -1271.79670743639     IErMin=20 ErrMin= 6.16D-05
 ErrMax= 6.16D-05  0.00D+00 EMaxC= 1.00D-01 BMatC= 2.10D-07 BMatP= 5.37D-07
 IDIUse=1 WtCom= 1.00D+00 WtEn= 0.00D+00
 Coeff-Com: -0.111D-08 0.275D-02 0.184D-01 0.839D-02 0.333D-02-0.307D-01
 Coeff-Com: -0.397D-02-0.576D-02-0.322D-03 0.609D-02 0.395D-01 0.945D-02
 Coeff-Com: -0.205D-01-0.917D-01-0.347D+00-0.170D+00 0.176D+00 0.375D+00
 Coeff-Com:  0.851D+00 0.181D+00
 Coeff:     -0.111D-08 0.275D-02 0.184D-01 0.839D-02 0.333D-02-0.307D-01
 Coeff:     -0.397D-02-0.576D-02-0.322D-03 0.609D-02 0.395D-01 0.945D-02
 Coeff:     -0.205D-01-0.917D-01-0.347D+00-0.170D+00 0.176D+00 0.375D+00
 Coeff:      0.851D+00 0.181D+00
 Gap=     0.030 Goal=   None    Shift=    0.000
 RMSDP=3.02D-06 MaxDP=2.80D-04 DE=-8.65D-07 OVMax= 9.45D-04

 Cycle  25  Pass 1  IDiag  1:
 Density matrix breaks symmetry, PCut= 1.00D-07
 Density matrix has no symmetry -- integrals replicated.
 E= -1271.79670791903     Delta-E=       -0.000000482633 Rises=F Damp=F
 DIIS: error= 1.01D-05 at cycle  25 NSaved=  20.
 NSaved=20 IEnMin=20 EnMin= -1271.79670791903     IErMin=20 ErrMin= 1.01D-05
 ErrMax= 1.01D-05  0.00D+00 EMaxC= 1.00D-01 BMatC= 1.14D-08 BMatP= 2.10D-07
 IDIUse=1 WtCom= 1.00D+00 WtEn= 0.00D+00
 Coeff-Com:  0.843D-03 0.876D-02 0.538D-02 0.211D-02-0.155D-01-0.349D-02
 Coeff-Com: -0.534D-02-0.480D-03 0.309D-02 0.229D-01 0.691D-02-0.107D-02
 Coeff-Com: -0.348D-01-0.144D+00-0.765D-01 0.483D-01 0.937D-01 0.392D+00
 Coeff-Com:  0.190D+00 0.507D+00
 Coeff:      0.843D-03 0.876D-02 0.538D-02 0.211D-02-0.155D-01-0.349D-02
 Coeff:     -0.534D-02-0.480D-03 0.309D-02 0.229D-01 0.691D-02-0.107D-02
 Coeff:     -0.348D-01-0.144D+00-0.765D-01 0.483D-01 0.937D-01 0.392D+00
 Coeff:      0.190D+00 0.507D+00
 Gap=     0.030 Goal=   None    Shift=    0.000
 RMSDP=9.46D-06 MaxDP=1.60D-03 DE=-4.83D-07 OVMax= 3.40D-04

 Cycle  26  Pass 1  IDiag  1:
 Density matrix breaks symmetry, PCut= 1.00D-07
 Density matrix has no symmetry -- integrals replicated.
 E= -1271.79670792861     Delta-E=       -0.000000009581 Rises=F Damp=F
 DIIS: error= 1.05D-05 at cycle  26 NSaved=  20.
 NSaved=20 IEnMin=20 EnMin= -1271.79670792861     IErMin=19 ErrMin= 1.01D-05
 ErrMax= 1.05D-05  0.00D+00 EMaxC= 1.00D-01 BMatC= 7.45D-09 BMatP= 1.14D-08
 IDIUse=1 WtCom= 1.00D+00 WtEn= 0.00D+00
 Coeff-Com: -0.639D-03-0.301D-03 0.259D-03 0.766D-03-0.654D-03-0.152D-02
 Coeff-Com: -0.312D-03 0.584D-04 0.255D-02 0.205D-02 0.110D-01 0.810D-02
 Coeff-Com:  0.155D-01 0.642D-04-0.371D-01-0.778D-01 0.672D-02 0.110D+00
 Coeff-Com:  0.540D+00 0.421D+00
 Coeff:     -0.639D-03-0.301D-03 0.259D-03 0.766D-03-0.654D-03-0.152D-02
 Coeff:     -0.312D-03 0.584D-04 0.255D-02 0.205D-02 0.110D-01 0.810D-02
 Coeff:      0.155D-01 0.642D-04-0.371D-01-0.778D-01 0.672D-02 0.110D+00
 Coeff:      0.540D+00 0.421D+00
 Gap=     0.030 Goal=   None    Shift=    0.000
 RMSDP=5.99D-06 MaxDP=9.47D-04 DE=-9.58D-09 OVMax= 1.86D-04

 Cycle  27  Pass 1  IDiag  1:
 Density matrix breaks symmetry, PCut= 1.00D-07
 Density matrix has no symmetry -- integrals replicated.
 E= -1271.79670794150     Delta-E=       -0.000000012897 Rises=F Damp=F
 DIIS: error= 3.31D-06 at cycle  27 NSaved=  20.
 NSaved=20 IEnMin=20 EnMin= -1271.79670794150     IErMin=20 ErrMin= 3.31D-06
 ErrMax= 3.31D-06  0.00D+00 EMaxC= 1.00D-01 BMatC= 1.35D-09 BMatP= 7.45D-09
 IDIUse=1 WtCom= 1.00D+00 WtEn= 0.00D+00
 Coeff-Com: -0.131D-02-0.781D-03 0.185D-02-0.144D-03-0.566D-03-0.151D-03
 Coeff-Com: -0.244D-03 0.740D-04 0.122D-02 0.954D-02 0.889D-02 0.222D-01
 Coeff-Com:  0.598D-02-0.316D-01-0.645D-01-0.294D-01 0.637D-01 0.359D+00
 Coeff-Com:  0.336D+00 0.320D+00
 Coeff:     -0.131D-02-0.781D-03 0.185D-02-0.144D-03-0.566D-03-0.151D-03
 Coeff:     -0.244D-03 0.740D-04 0.122D-02 0.954D-02 0.889D-02 0.222D-01
 Coeff:      0.598D-02-0.316D-01-0.645D-01-0.294D-01 0.637D-01 0.359D+00
 Coeff:      0.336D+00 0.320D+00
 Gap=     0.030 Goal=   None    Shift=    0.000
 RMSDP=2.81D-06 MaxDP=4.16D-04 DE=-1.29D-08 OVMax= 1.37D-04

 Cycle  28  Pass 1  IDiag  1:
 Density matrix breaks symmetry, PCut= 1.00D-07
 Density matrix has no symmetry -- integrals replicated.
 E= -1271.79670794144     Delta-E=        0.000000000061 Rises=F Damp=F
 DIIS: error= 3.53D-06 at cycle  28 NSaved=  20.
 NSaved=20 IEnMin=19 EnMin= -1271.79670794150     IErMin=19 ErrMin= 3.31D-06
 ErrMax= 3.53D-06  0.00D+00 EMaxC= 1.00D-01 BMatC= 1.41D-09 BMatP= 1.35D-09
 IDIUse=1 WtCom= 1.00D+00 WtEn= 0.00D+00
 Coeff-Com:  0.241D-03-0.852D-03-0.248D-03-0.808D-04 0.204D-03 0.375D-03
 Coeff-Com:  0.559D-03 0.717D-03 0.335D-02 0.395D-02 0.126D-01 0.513D-02
 Coeff-Com: -0.145D-01-0.356D-01-0.143D-01 0.191D-01 0.125D+00 0.163D+00
 Coeff-Com:  0.408D+00 0.324D+00
 Coeff:      0.241D-03-0.852D-03-0.248D-03-0.808D-04 0.204D-03 0.375D-03
 Coeff:      0.559D-03 0.717D-03 0.335D-02 0.395D-02 0.126D-01 0.513D-02
 Coeff:     -0.145D-01-0.356D-01-0.143D-01 0.191D-01 0.125D+00 0.163D+00
 Coeff:      0.408D+00 0.324D+00
 Gap=     0.030 Goal=   None    Shift=    0.000
 RMSDP=2.09D-06 MaxDP=2.87D-04 DE= 6.07D-11 OVMax= 8.66D-05

 Cycle  29  Pass 1  IDiag  1:
 Density matrix breaks symmetry, PCut= 1.00D-07
 Density matrix has no symmetry -- integrals replicated.
 E= -1271.79670794398     Delta-E=       -0.000000002532 Rises=F Damp=F
 DIIS: error= 8.83D-07 at cycle  29 NSaved=  20.
 NSaved=20 IEnMin=20 EnMin= -1271.79670794398     IErMin=20 ErrMin= 8.83D-07
 ErrMax= 8.83D-07  0.00D+00 EMaxC= 1.00D-01 BMatC= 1.88D-10 BMatP= 1.35D-09
 IDIUse=1 WtCom= 1.00D+00 WtEn= 0.00D+00
 Coeff-Com: -0.339D-03 0.613D-04 0.378D-03 0.195D-03 0.207D-03-0.934D-03
 Coeff-Com: -0.228D-03-0.279D-02-0.795D-04 0.557D-02 0.494D-02 0.280D-02
 Coeff-Com:  0.183D-02-0.188D-01-0.155D-01-0.547D-01-0.648D-03 0.222D+00
 Coeff-Com:  0.300D+00 0.556D+00
 Coeff:     -0.339D-03 0.613D-04 0.378D-03 0.195D-03 0.207D-03-0.934D-03
 Coeff:     -0.228D-03-0.279D-02-0.795D-04 0.557D-02 0.494D-02 0.280D-02
 Coeff:      0.183D-02-0.188D-01-0.155D-01-0.547D-01-0.648D-03 0.222D+00
 Coeff:      0.300D+00 0.556D+00
 Gap=     0.030 Goal=   None    Shift=    0.000
 RMSDP=1.54D-06 MaxDP=2.11D-04 DE=-2.53D-09 OVMax= 4.57D-05

 Cycle  30  Pass 1  IDiag  1:
 Density matrix breaks symmetry, PCut= 1.00D-07
 Density matrix has no symmetry -- integrals replicated.
 E= -1271.79670794375     Delta-E=        0.000000000222 Rises=F Damp=F
 DIIS: error= 1.76D-06 at cycle  30 NSaved=  20.
 NSaved=20 IEnMin=19 EnMin= -1271.79670794398     IErMin=19 ErrMin= 8.83D-07
 ErrMax= 1.76D-06  0.00D+00 EMaxC= 1.00D-01 BMatC= 2.53D-10 BMatP= 1.88D-10
 IDIUse=1 WtCom= 1.00D+00 WtEn= 0.00D+00
 Coeff-Com: -0.106D-03 0.586D-04 0.105D-03 0.167D-03 0.408D-04 0.129D-04
 Coeff-Com: -0.274D-02 0.209D-03 0.659D-02 0.523D-02 0.178D-02 0.165D-02
 Coeff-Com: -0.222D-01-0.184D-01-0.724D-01-0.228D-01 0.167D+00 0.249D+00
 Coeff-Com:  0.514D+00 0.193D+00
 Coeff:     -0.106D-03 0.586D-04 0.105D-03 0.167D-03 0.408D-04 0.129D-04
 Coeff:     -0.274D-02 0.209D-03 0.659D-02 0.523D-02 0.178D-02 0.165D-02
 Coeff:     -0.222D-01-0.184D-01-0.724D-01-0.228D-01 0.167D+00 0.249D+00
 Coeff:      0.514D+00 0.193D+00
 Gap=     0.030 Goal=   None    Shift=    0.000
 RMSDP=5.12D-07 MaxDP=7.06D-05 DE= 2.22D-10 OVMax= 8.10D-05

 Cycle  31  Pass 1  IDiag  1:
 Density matrix breaks symmetry, PCut= 1.00D-07
 Density matrix has no symmetry -- integrals replicated.
 E= -1271.79670794349     Delta-E=        0.000000000264 Rises=F Damp=F
 DIIS: error= 2.04D-06 at cycle  31 NSaved=  20.
 NSaved=20 IEnMin=18 EnMin= -1271.79670794398     IErMin=18 ErrMin= 8.83D-07
 ErrMax= 2.04D-06  0.00D+00 EMaxC= 1.00D-01 BMatC= 3.72D-10 BMatP= 1.88D-10
 IDIUse=1 WtCom= 1.00D+00 WtEn= 0.00D+00
 Coeff-Com:  0.123D-03 0.481D-04-0.368D-05-0.425D-03-0.181D-03-0.202D-02
 Coeff-Com: -0.176D-03 0.324D-02 0.300D-02 0.192D-02 0.388D-02-0.118D-01
 Coeff-Com: -0.134D-01-0.637D-01-0.336D-01 0.742D-01 0.142D+00 0.356D+00
 Coeff-Com:  0.318D+00 0.222D+00
 Coeff:      0.123D-03 0.481D-04-0.368D-05-0.425D-03-0.181D-03-0.202D-02
 Coeff:     -0.176D-03 0.324D-02 0.300D-02 0.192D-02 0.388D-02-0.118D-01
 Coeff:     -0.134D-01-0.637D-01-0.336D-01 0.742D-01 0.142D+00 0.356D+00
 Coeff:      0.318D+00 0.222D+00
 Gap=     0.030 Goal=   None    Shift=    0.000
 RMSDP=2.18D-07 MaxDP=2.69D-05 DE= 2.64D-10 OVMax= 4.66D-05

 Cycle  32  Pass 1  IDiag  1:
 Density matrix breaks symmetry, PCut= 1.00D-07
 Density matrix has no symmetry -- integrals replicated.
 E= -1271.79670794431     Delta-E=       -0.000000000826 Rises=F Damp=F
 DIIS: error= 5.79D-07 at cycle  32 NSaved=  20.
 NSaved=20 IEnMin=20 EnMin= -1271.79670794431     IErMin=20 ErrMin= 5.79D-07
 ErrMax= 5.79D-07  0.00D+00 EMaxC= 1.00D-01 BMatC= 2.30D-11 BMatP= 1.88D-10
 IDIUse=1 WtCom= 1.00D+00 WtEn= 0.00D+00
 Coeff-Com:  0.821D-05-0.290D-04-0.155D-03-0.118D-03-0.110D-02 0.604D-04
 Coeff-Com:  0.223D-02 0.169D-02 0.206D-03 0.130D-02-0.676D-02-0.765D-02
 Coeff-Com: -0.400D-01-0.271D-01 0.117D-01 0.541D-01 0.186D+00 0.273D+00
 Coeff-Com:  0.199D+00 0.354D+00
 Coeff:      0.821D-05-0.290D-04-0.155D-03-0.118D-03-0.110D-02 0.604D-04
 Coeff:      0.223D-02 0.169D-02 0.206D-03 0.130D-02-0.676D-02-0.765D-02
 Coeff:     -0.400D-01-0.271D-01 0.117D-01 0.541D-01 0.186D+00 0.273D+00
 Coeff:      0.199D+00 0.354D+00
 Gap=     0.030 Goal=   None    Shift=    0.000
 RMSDP=1.38D-07 MaxDP=1.26D-05 DE=-8.26D-10 OVMax= 1.22D-05

 Cycle  33  Pass 1  IDiag  1:
 Density matrix breaks symmetry, PCut= 1.00D-07
 Density matrix has no symmetry -- integrals replicated.
 E= -1271.79670794435     Delta-E=       -0.000000000037 Rises=F Damp=F
 DIIS: error= 2.34D-07 at cycle  33 NSaved=  20.
 NSaved=20 IEnMin=20 EnMin= -1271.79670794435     IErMin=20 ErrMin= 2.34D-07
 ErrMax= 2.34D-07  0.00D+00 EMaxC= 1.00D-01 BMatC= 5.56D-12 BMatP= 2.30D-11
 IDIUse=1 WtCom= 1.00D+00 WtEn= 0.00D+00
 Coeff-Com:  0.701D-05-0.596D-04-0.377D-04-0.323D-03 0.112D-03 0.100D-02
 Coeff-Com:  0.650D-03-0.239D-03 0.390D-03-0.288D-02-0.382D-02-0.209D-01
 Coeff-Com: -0.157D-01-0.131D-03 0.221D-01 0.930D-01 0.168D+00 0.127D+00
 Coeff-Com:  0.295D+00 0.337D+00
 Coeff:      0.701D-05-0.596D-04-0.377D-04-0.323D-03 0.112D-03 0.100D-02
 Coeff:      0.650D-03-0.239D-03 0.390D-03-0.288D-02-0.382D-02-0.209D-01
 Coeff:     -0.157D-01-0.131D-03 0.221D-01 0.930D-01 0.168D+00 0.127D+00
 Coeff:      0.295D+00 0.337D+00
 Gap=     0.030 Goal=   None    Shift=    0.000
 RMSDP=6.95D-08 MaxDP=7.77D-06 DE=-3.68D-11 OVMax= 8.10D-06

 Cycle  34  Pass 1  IDiag  1:
 Density matrix breaks symmetry, PCut= 1.00D-07
 Density matrix has no symmetry -- integrals replicated.
 E= -1271.79670794435     Delta-E=       -0.000000000001 Rises=F Damp=F
 DIIS: error= 2.03D-07 at cycle  34 NSaved=  20.
 NSaved=20 IEnMin=20 EnMin= -1271.79670794435     IErMin=20 ErrMin= 2.03D-07
 ErrMax= 2.03D-07  0.00D+00 EMaxC= 1.00D-01 BMatC= 5.18D-12 BMatP= 5.56D-12
 IDIUse=1 WtCom= 1.00D+00 WtEn= 0.00D+00
 Coeff-Com:  0.408D-05 0.146D-05 0.194D-04 0.909D-04 0.286D-03 0.984D-04
 Coeff-Com: -0.328D-03 0.798D-04-0.732D-03-0.162D-02-0.968D-02-0.847D-02
 Coeff-Com: -0.453D-02 0.560D-02 0.388D-01 0.960D-01 0.781D-01 0.214D+00
 Coeff-Com:  0.372D+00 0.221D+00
 Coeff:      0.408D-05 0.146D-05 0.194D-04 0.909D-04 0.286D-03 0.984D-04
 Coeff:     -0.328D-03 0.798D-04-0.732D-03-0.162D-02-0.968D-02-0.847D-02
 Coeff:     -0.453D-02 0.560D-02 0.388D-01 0.960D-01 0.781D-01 0.214D+00
 Coeff:      0.372D+00 0.221D+00
 Gap=     0.030 Goal=   None    Shift=    0.000
 RMSDP=5.58D-08 MaxDP=6.72D-06 DE=-9.09D-13 OVMax= 6.97D-06

 Cycle  35  Pass 1  IDiag  1:
 Density matrix breaks symmetry, PCut= 1.00D-07
 Density matrix has no symmetry -- integrals replicated.
 E= -1271.79670794436     Delta-E=       -0.000000000007 Rises=F Damp=F
 DIIS: error= 9.06D-08 at cycle  35 NSaved=  20.
 NSaved=20 IEnMin=20 EnMin= -1271.79670794436     IErMin=20 ErrMin= 9.06D-08
 ErrMax= 9.06D-08  0.00D+00 EMaxC= 1.00D-01 BMatC= 1.66D-12 BMatP= 5.18D-12
 IDIUse=1 WtCom= 1.00D+00 WtEn= 0.00D+00
 Coeff-Com:  0.425D-04 0.119D-03 0.349D-04-0.164D-03-0.208D-03-0.239D-03
 Coeff-Com: -0.640D-04 0.719D-03 0.247D-04-0.111D-02-0.271D-02-0.767D-02
 Coeff-Com: -0.648D-02-0.217D-02 0.313D-01 0.329D-01 0.120D+00 0.293D+00
 Coeff-Com:  0.260D+00 0.282D+00
 Coeff:      0.425D-04 0.119D-03 0.349D-04-0.164D-03-0.208D-03-0.239D-03
 Coeff:     -0.640D-04 0.719D-03 0.247D-04-0.111D-02-0.271D-02-0.767D-02
 Coeff:     -0.648D-02-0.217D-02 0.313D-01 0.329D-01 0.120D+00 0.293D+00
 Coeff:      0.260D+00 0.282D+00
 Gap=     0.030 Goal=   None    Shift=    0.000
 RMSDP=5.84D-08 MaxDP=9.48D-06 DE=-6.82D-12 OVMax= 2.92D-06

 Cycle  36  Pass 1  IDiag  1:
 Density matrix breaks symmetry, PCut= 1.00D-07
 Density matrix has no symmetry -- integrals replicated.
 E= -1271.79670794436     Delta-E=       -0.000000000002 Rises=F Damp=F
 DIIS: error= 9.71D-08 at cycle  36 NSaved=  20.
 NSaved=20 IEnMin=20 EnMin= -1271.79670794436     IErMin=19 ErrMin= 9.06D-08
 ErrMax= 9.71D-08  0.00D+00 EMaxC= 1.00D-01 BMatC= 6.58D-13 BMatP= 1.66D-12
 IDIUse=1 WtCom= 1.00D+00 WtEn= 0.00D+00
 Coeff-Com:  0.935D-04 0.682D-05-0.217D-03-0.215D-03-0.137D-03 0.310D-04
 Coeff-Com:  0.869D-03 0.211D-03 0.582D-04-0.130D-02-0.467D-02-0.469D-02
 Coeff-Com: -0.500D-02 0.139D-01 0.205D-01 0.718D-01 0.195D+00 0.207D+00
 Coeff-Com:  0.278D+00 0.228D+00
 Coeff:      0.935D-04 0.682D-05-0.217D-03-0.215D-03-0.137D-03 0.310D-04
 Coeff:      0.869D-03 0.211D-03 0.582D-04-0.130D-02-0.467D-02-0.469D-02
 Coeff:     -0.500D-02 0.139D-01 0.205D-01 0.718D-01 0.195D+00 0.207D+00
 Coeff:      0.278D+00 0.228D+00
 Gap=     0.030 Goal=   None    Shift=    0.000
 RMSDP=5.63D-08 MaxDP=9.33D-06 DE=-2.27D-12 OVMax= 2.40D-06

 Cycle  37  Pass 1  IDiag  1:
 Density matrix breaks symmetry, PCut= 1.00D-07
 Density matrix has no symmetry -- integrals replicated.
 E= -1271.79670794436     Delta-E=       -0.000000000002 Rises=F Damp=F
 DIIS: error= 6.03D-08 at cycle  37 NSaved=  20.
 NSaved=20 IEnMin=20 EnMin= -1271.79670794436     IErMin=20 ErrMin= 6.03D-08
 ErrMax= 6.03D-08  0.00D+00 EMaxC= 1.00D-01 BMatC= 2.98D-13 BMatP= 6.58D-13
 IDIUse=1 WtCom= 1.00D+00 WtEn= 0.00D+00
 Coeff-Com:  0.449D-05-0.380D-04-0.637D-04-0.948D-04-0.125D-03 0.546D-03
 Coeff-Com:  0.188D-03 0.729D-03 0.157D-03-0.933D-04-0.816D-03-0.446D-02
 Coeff-Com: -0.795D-02 0.135D-02 0.137D-02 0.395D-01 0.779D-01 0.171D+00
 Coeff-Com:  0.312D+00 0.409D+00
 Coeff:      0.449D-05-0.380D-04-0.637D-04-0.948D-04-0.125D-03 0.546D-03
 Coeff:      0.188D-03 0.729D-03 0.157D-03-0.933D-04-0.816D-03-0.446D-02
 Coeff:     -0.795D-02 0.135D-02 0.137D-02 0.395D-01 0.779D-01 0.171D+00
 Coeff:      0.312D+00 0.409D+00
 Gap=     0.030 Goal=   None    Shift=    0.000
 RMSDP=3.82D-08 MaxDP=5.13D-06 DE=-2.05D-12 OVMax= 1.09D-06

 Cycle  38  Pass 1  IDiag  1:
 Density matrix breaks symmetry, PCut= 1.00D-07
 Density matrix has no symmetry -- integrals replicated.
 E= -1271.79670794436     Delta-E=        0.000000000001 Rises=F Damp=F
 DIIS: error= 2.68D-08 at cycle  38 NSaved=  20.
 NSaved=20 IEnMin=19 EnMin= -1271.79670794436     IErMin=20 ErrMin= 2.68D-08
 ErrMax= 2.68D-08  0.00D+00 EMaxC= 1.00D-01 BMatC= 7.76D-14 BMatP= 2.98D-13
 IDIUse=1 WtCom= 1.00D+00 WtEn= 0.00D+00
 Coeff-Com:  0.831D-04 0.502D-04-0.810D-04-0.121D-03 0.385D-04-0.142D-03
 Coeff-Com: -0.468D-03-0.468D-05 0.282D-02 0.332D-02 0.302D-02-0.113D-01
 Coeff-Com: -0.349D-02-0.267D-01-0.625D-01-0.418D-01 0.327D-02 0.152D+00
 Coeff-Com:  0.349D+00 0.633D+00
 Coeff:      0.831D-04 0.502D-04-0.810D-04-0.121D-03 0.385D-04-0.142D-03
 Coeff:     -0.468D-03-0.468D-05 0.282D-02 0.332D-02 0.302D-02-0.113D-01
 Coeff:     -0.349D-02-0.267D-01-0.625D-01-0.418D-01 0.327D-02 0.152D+00
 Coeff:      0.349D+00 0.633D+00
 Gap=     0.030 Goal=   None    Shift=    0.000
 RMSDP=1.03D-08 MaxDP=1.46D-06 DE= 1.14D-12 OVMax= 6.90D-07

 Cycle  39  Pass 1  IDiag  1:
 Density matrix breaks symmetry, PCut= 1.00D-07
 Density matrix has no symmetry -- integrals replicated.
 E= -1271.79670794436     Delta-E=       -0.000000000001 Rises=F Damp=F
 DIIS: error= 1.59D-08 at cycle  39 NSaved=  20.
 NSaved=20 IEnMin=20 EnMin= -1271.79670794436     IErMin=20 ErrMin= 1.59D-08
 ErrMax= 1.59D-08  0.00D+00 EMaxC= 1.00D-01 BMatC= 4.25D-14 BMatP= 7.76D-14
 IDIUse=1 WtCom= 1.00D+00 WtEn= 0.00D+00
 Coeff-Com:  0.411D-05-0.329D-04-0.314D-04 0.144D-03-0.507D-04-0.116D-03
 Coeff-Com:  0.557D-04 0.165D-02 0.183D-02 0.115D-02-0.938D-02-0.263D-02
 Coeff-Com: -0.194D-01-0.467D-01-0.330D-01-0.387D-02 0.936D-01 0.239D+00
 Coeff-Com:  0.507D+00 0.270D+00
 Coeff:      0.411D-05-0.329D-04-0.314D-04 0.144D-03-0.507D-04-0.116D-03
 Coeff:      0.557D-04 0.165D-02 0.183D-02 0.115D-02-0.938D-02-0.263D-02
 Coeff:     -0.194D-01-0.467D-01-0.330D-01-0.387D-02 0.936D-01 0.239D+00
 Coeff:      0.507D+00 0.270D+00
 Gap=     0.030 Goal=   None    Shift=    0.000
 RMSDP=7.96D-09 MaxDP=8.44D-07 DE=-1.36D-12 OVMax= 9.50D-07

 Density matrix breaks symmetry, PCut= 1.00D-07
 Density matrix has no symmetry -- integrals replicated.
 SCF Done:  E(ROHF) =  -1271.79670794     A.U. after   39 cycles
            NFock= 39  Conv=0.80D-08     -V/T= 1.9593
 <Sx>= 0.0000 <Sy>= 0.0000 <Sz>= 1.5000 <S**2>= 3.7500 S= 1.5000
 <L.S>=  0.00000000000    
 KE= 1.325809160560D+03 PE=-3.106487560295D+03 EE= 4.982981475722D+02
 Annihilation of the first spin contaminant:
 S**2 before annihilation     3.7500,   after     3.7500
 Leave Link  502 at Thu Mar  8 12:59:57 2018, MaxMem= 10737418240 cpu:            6699.8 elap:             354.5
 (Enter /home1/apps/gaussian/16rA.03/g16/l801.exe)
 Windowed orbitals will be sorted by symmetry type.
 An orbital has undefined symmetry, so N**3 symmetry is turned off.
 Density matrix breaks symmetry, PCut= 1.00D-07
 Density matrix has no symmetry -- integrals replicated.
 GenMOA:  NOpAll=  4 NOp2=4 NOpUse=  1 JSym2X=2
 FoFJK:  IHMeth= 1 ICntrl=       0 DoSepK=F KAlg= 0 I1Cent=           0 FoldK=F
 IRaf=         0 NMat=       1 IRICut=       1 DoRegI=T DoRafI=F ISym2E= 2 IDoP0=0 IntGTp=1.
 FoFCou: FMM=F IPFlag=           8 FMFlag=      100000 FMFlg1=           0
         NFxFlg=           0 DoJE=F BraDBF=F KetDBF=F FulRan=T
         wScrn=  0.000000 ICntrl=         0 IOpCl=  1 I1Cent=           0 NGrid=           0
         NMat0=    1 NMatS0=      1 NMatT0=    0 NMatD0=    1 NMtDS0=    0 NMtDT0=    0
 Integrals replicated using symmetry in FoFCou.
 <Sx>= 0.0000 <Sy>= 0.0000 <Sz>= 1.5000 <S**2>= 3.7500 S= 1.5000
 Range of M.O.s used for correlation:     1   407
 NBasis=   415 NAE=    15 NBE=    12 NFC=     0 NFV=     0
 NROrb=    407 NOA=    15 NOB=    12 NVA=   392 NVB=   395

 **** Warning!!: The largest alpha MO coefficient is  0.17197548D+03


 **** Warning!!: The largest beta MO coefficient is  0.17195637D+03

 Singles contribution to E2=   -0.7236950888D-02
 Leave Link  801 at Thu Mar  8 13:01:59 2018, MaxMem= 10737418240 cpu:            3865.5 elap:             120.9
 (Enter /home1/apps/gaussian/16rA.03/g16/l804.exe)
 Open-shell transformation, MDV= 10737418240 ITran=4 ISComp=1.
 Unit  1 TFree=       5184713 TCopy=       3975584.
 Semi-Direct transformation.
 ModeAB=           2 MOrb=            15 LenV=   10732389348
 LASXX=    493863825 LTotXX=   493863825 LenRXX=   493863825
 LTotAB=   498168000 MaxLAS=  1003973355 LenRXY=  1003973355
 NonZer=  1021293240 LenScr=  1537947648 LnRSAI=           0
 LnScr1=           0 LExtra=    45153860 Total=   3080938688
 MaxDsk= 67108864000 SrtSym=           F ITran=            4
 DoSDTr:  NPSUse= 32
 JobTyp=1 Pass  1:  I=   1 to  15.
 (rs|ai) integrals will be sorted in core.
 Complete sort for first half transformation.
 First half transformation complete.
 Begin second half transformation for I=  10.
 Begin second half transformation for I=  10.
 Complete sort for second half transformation.
 Second half transformation complete.
 ModeAB=           2 MOrb=            12 LenV=   10732389348
 LASXX=    396761541 LTotXX=   396761541 LenRXX=   803178684
 LTotAB=   371120904 MaxLAS=   803178684 LenRXY=   371120904
 NonZer=   817034592 LenScr=  1230358528 LnRSAI=           0
 LnScr1=           0 LExtra=  1542991040 Total=   3947649156
 MaxDsk= 67108864000 SrtSym=           F ITran=            4
 DoSDTr:  NPSUse= 32
 JobTyp=2 Pass  1:  I=   1 to  12.
 (rs|ai) integrals will be sorted in core.
 Complete sort for first half transformation.
 First half transformation complete.
 Begin second half transformation for I=  10.
 Begin second half transformation for I=  10.
 Complete sort for second half transformation.
 Second half transformation complete.
 SymMOI:  orbitals are not symmetric.
 Spin components of T(2) and E(2):
     alpha-alpha T2 =       0.3109963155D-01 E2=     -0.2445811798D+00
     alpha-beta  T2 =       0.9769020869D-01 E2=     -0.8675322088D+00
     beta-beta   T2 =       0.1230867480D-01 E2=     -0.1350645599D+00
 ANorm=    0.1069693981D+01
 E2 =    -0.1254414899D+01 EUMP2 =    -0.12730511228436D+04
 (S**2,0)=  0.37500D+01           (S**2,1)=  0.37500D+01
 E(PUHF)=      -0.12717967079D+04        E(PMP2)=      -0.12730511228D+04
 Leave Link  804 at Thu Mar  8 13:36:42 2018, MaxMem= 10737418240 cpu:           66601.8 elap:            2082.5
 (Enter /home1/apps/gaussian/16rA.03/g16/l913.exe)
 CIDS:  MDV= 10737418240.
 IFCWin=0 IBDFC=1 NFBD=     0     0 NFCmp=     0     0 NFFFC=     0     0
 Using original routines for 1st iteration.
 Using DD4UQ or CC4UQ for 2nd and later iterations.
 Keep R2 and R3 ints in memory in symmetry-blocked form, NReq=4666768820.
 FoFCou: FMM=F IPFlag=           8 FMFlag=           0 FMFlg1=           0
         NFxFlg=           0 DoJE=F BraDBF=F KetDBF=F FulRan=T
         wScrn=  0.000000 ICntrl=       600 IOpCl=  0 I1Cent=           0 NGrid=           0
         NMat0=    1 NMatS0=  86320 NMatT0=    0 NMatD0=    1 NMtDS0=    0 NMtDT0=    0
 Petite list used in FoFCou.
 CIDS: In Core Option IDoMem=           1.
 CCSD(T)
 =======
 Iterations= 150 Convergence= 0.100D-06
 Produce multiple copies of IABC intergrals
 Iteration Nr.   1
 **********************
 DD1Dir will call FoFMem   1 times, MxPair=       532
 NAB=   180 NAA=   105 NBB=    66.
 DD1Dir will call FoFMem   1 times, MxPair=       532
 NAB=   180 NAA=   105 NBB=    66.
 MP4(R+Q)= -0.76504431D-01
 Maximum subspace dimension=  5
 A-vector RMS=  3.3713312D-04 Max=  6.5329380D-03 conv= 1.00D-05.
 RLE energy=       -1.2449664462
 E3=        0.85596853D-01        EROMP3=      -0.12729655260D+04
 E4(SDQ)=  -0.42243370D-01        ROMP4(SDQ)=  -0.12730077694D+04
 VARIATIONAL ENERGIES WITH THE FIRST-ORDER WAVEFUNCTION:
 DE(Corr)=  -1.2448936     E(Corr)=     -1273.0416016    
 NORM(A)=   0.10646467D+01
 Iteration Nr.   2
 **********************
 DD1Dir will call FoFMem   1 times, MxPair=       532
 NAB=   180 NAA=   105 NBB=    66.
 A-vector RMS=  1.9743751D-03 Max=  2.8509971D-02 conv= 1.00D-05.
 RLE energy=       -1.2209042043
 DE(Corr)=  -1.1583747     E(CORR)=     -1272.9550826     Delta= 8.65D-02
 NORM(A)=   0.10608671D+01
 Iteration Nr.   3
 **********************
 DD1Dir will call FoFMem   1 times, MxPair=       532
 NAB=   180 NAA=   105 NBB=    66.
 A-vector RMS=  1.3331721D-03 Max=  1.8933486D-02 conv= 1.00D-05.
 RLE energy=       -1.2143450096
 DE(Corr)=  -1.1701141     E(CORR)=     -1272.9668220     Delta=-1.17D-02
 NORM(A)=   0.10632324D+01
 Iteration Nr.   4
 **********************
 DD1Dir will call FoFMem   1 times, MxPair=       532
 NAB=   180 NAA=   105 NBB=    66.
 A-vector RMS=  1.2290697D-03 Max=  1.9527505D-02 conv= 1.00D-05.
 RLE energy=       -1.1939086147
 DE(Corr)=  -1.1770107     E(CORR)=     -1272.9737186     Delta=-6.90D-03
 NORM(A)=   0.10717354D+01
 Iteration Nr.   5
 **********************
 DD1Dir will call FoFMem   1 times, MxPair=       532
 NAB=   180 NAA=   105 NBB=    66.
 A-vector RMS=  3.8019789D-04 Max=  7.9138165D-03 conv= 1.00D-05.
 RLE energy=       -1.1968256914
 DE(Corr)=  -1.1954925     E(CORR)=     -1272.9922005     Delta=-1.85D-02
 NORM(A)=   0.10783427D+01
 Iteration Nr.   6
 **********************
 DD1Dir will call FoFMem   1 times, MxPair=       532
 NAB=   180 NAA=   105 NBB=    66.
 A-vector RMS=  2.9318474D-04 Max=  1.0209123D-02 conv= 1.00D-05.
 RLE energy=       -1.1967223932
 DE(Corr)=  -1.1956299     E(CORR)=     -1272.9923378     Delta=-1.37D-04
 NORM(A)=   0.10857606D+01
 Iteration Nr.   7
 **********************
 DD1Dir will call FoFMem   1 times, MxPair=       532
 NAB=   180 NAA=   105 NBB=    66.
 A-vector RMS=  1.9994018D-04 Max=  5.1494335D-03 conv= 1.00D-05.
 RLE energy=       -1.1967994011
 DE(Corr)=  -1.1966592     E(CORR)=     -1272.9933672     Delta=-1.03D-03
 NORM(A)=   0.10907879D+01
 Iteration Nr.   8
 **********************
 DD1Dir will call FoFMem   1 times, MxPair=       532
 NAB=   180 NAA=   105 NBB=    66.
 A-vector RMS=  1.7106498D-04 Max=  4.9237444D-03 conv= 1.00D-05.
 RLE energy=       -1.1969748914
 DE(Corr)=  -1.1971210     E(CORR)=     -1272.9938290     Delta=-4.62D-04
 NORM(A)=   0.10951676D+01
 Iteration Nr.   9
 **********************
 DD1Dir will call FoFMem   1 times, MxPair=       532
 NAB=   180 NAA=   105 NBB=    66.
 A-vector RMS=  9.9987034D-05 Max=  2.4846907D-03 conv= 1.00D-05.
 RLE energy=       -1.1971591054
 DE(Corr)=  -1.1970693     E(CORR)=     -1272.9937773     Delta= 5.17D-05
 NORM(A)=   0.10977270D+01
 Iteration Nr.  10
 **********************
 DD1Dir will call FoFMem   1 times, MxPair=       532
 NAB=   180 NAA=   105 NBB=    66.
 A-vector RMS=  4.5200073D-05 Max=  1.1248924D-03 conv= 1.00D-05.
 RLE energy=       -1.1970214334
 DE(Corr)=  -1.1970965     E(CORR)=     -1272.9938044     Delta=-2.71D-05
 NORM(A)=   0.10981950D+01
 Iteration Nr.  11
 **********************
 DD1Dir will call FoFMem   1 times, MxPair=       532
 NAB=   180 NAA=   105 NBB=    66.
 A-vector RMS=  3.3197828D-05 Max=  1.0840806D-03 conv= 1.00D-05.
 RLE energy=       -1.1971816283
 DE(Corr)=  -1.1971877     E(CORR)=     -1272.9938956     Delta=-9.12D-05
 NORM(A)=   0.10984669D+01
 Iteration Nr.  12
 **********************
 DD1Dir will call FoFMem   1 times, MxPair=       532
 NAB=   180 NAA=   105 NBB=    66.
 A-vector RMS=  2.5594072D-05 Max=  7.3108951D-04 conv= 1.00D-05.
 RLE energy=       -1.1971474622
 DE(Corr)=  -1.1971215     E(CORR)=     -1272.9938294     Delta= 6.62D-05
 NORM(A)=   0.10988505D+01
 Iteration Nr.  13
 **********************
 DD1Dir will call FoFMem   1 times, MxPair=       532
 NAB=   180 NAA=   105 NBB=    66.
 A-vector RMS=  1.9273839D-05 Max=  3.9821885D-04 conv= 1.00D-05.
 RLE energy=       -1.1972016724
 DE(Corr)=  -1.1972099     E(CORR)=     -1272.9939178     Delta=-8.84D-05
 NORM(A)=   0.10988841D+01
 Iteration Nr.  14
 **********************
 DD1Dir will call FoFMem   1 times, MxPair=       532
 NAB=   180 NAA=   105 NBB=    66.
 A-vector RMS=  1.3860187D-05 Max=  3.6681007D-04 conv= 1.00D-05.
 RLE energy=       -1.1972094939
 DE(Corr)=  -1.1971906     E(CORR)=     -1272.9938986     Delta= 1.93D-05
 NORM(A)=   0.10989761D+01
 Iteration Nr.  15
 **********************
 DD1Dir will call FoFMem   1 times, MxPair=       532
 NAB=   180 NAA=   105 NBB=    66.
 A-vector RMS=  8.4626834D-06 Max=  1.6580648D-04 conv= 1.00D-05.
 RLE energy=       -1.1972040805
 DE(Corr)=  -1.1972014     E(CORR)=     -1272.9939093     Delta=-1.08D-05
 NORM(A)=   0.10990445D+01
 Iteration Nr.  16
 **********************
 DD1Dir will call FoFMem   1 times, MxPair=       532
 NAB=   180 NAA=   105 NBB=    66.
 A-vector RMS=  6.5599276D-06 Max=  2.1009339D-04 conv= 1.00D-05.
 RLE energy=       -1.1972152498
 DE(Corr)=  -1.1972175     E(CORR)=     -1272.9939255     Delta=-1.62D-05
 NORM(A)=   0.10990822D+01
 Iteration Nr.  17
 **********************
 DD1Dir will call FoFMem   1 times, MxPair=       532
 NAB=   180 NAA=   105 NBB=    66.
 A-vector RMS=  3.8562711D-06 Max=  9.5955299D-05 conv= 1.00D-05.
 RLE energy=       -1.1972214451
 DE(Corr)=  -1.1972154     E(CORR)=     -1272.9939233     Delta= 2.17D-06
 NORM(A)=   0.10991296D+01
 Iteration Nr.  18
 **********************
 DD1Dir will call FoFMem   1 times, MxPair=       532
 NAB=   180 NAA=   105 NBB=    66.
 A-vector RMS=  2.9014241D-06 Max=  9.7461224D-05 conv= 1.00D-05.
 RLE energy=       -1.1972167666
 DE(Corr)=  -1.1972166     E(CORR)=     -1272.9939245     Delta=-1.18D-06
 NORM(A)=   0.10991668D+01
 Iteration Nr.  19
 **********************
 DD1Dir will call FoFMem   1 times, MxPair=       532
 NAB=   180 NAA=   105 NBB=    66.
 A-vector RMS=  2.0636729D-06 Max=  6.9104053D-05 conv= 1.00D-05.
 RLE energy=       -1.1972246330
 DE(Corr)=  -1.1972255     E(CORR)=     -1272.9939335     Delta=-8.98D-06
 NORM(A)=   0.10991945D+01
 Iteration Nr.  20
 **********************
 DD1Dir will call FoFMem   1 times, MxPair=       532
 NAB=   180 NAA=   105 NBB=    66.
 A-vector RMS=  1.5345161D-06 Max=  4.4715229D-05 conv= 1.00D-05.
 RLE energy=       -1.1972264816
 DE(Corr)=  -1.1972227     E(CORR)=     -1272.9939307     Delta= 2.82D-06
 NORM(A)=   0.10992382D+01
 Iteration Nr.  21
 **********************
 DD1Dir will call FoFMem   1 times, MxPair=       532
 NAB=   180 NAA=   105 NBB=    66.
 A-vector RMS=  1.1470410D-06 Max=  3.1021940D-05 conv= 1.00D-05.
 RLE energy=       -1.1972264977
 DE(Corr)=  -1.1972263     E(CORR)=     -1272.9939343     Delta=-3.62D-06
 NORM(A)=   0.10992649D+01
 Iteration Nr.  22
 **********************
 DD1Dir will call FoFMem   1 times, MxPair=       532
 NAB=   180 NAA=   105 NBB=    66.
 A-vector RMS=  8.1245774D-07 Max=  2.1103888D-05 conv= 1.00D-05.
 RLE energy=       -1.1972289870
 DE(Corr)=  -1.1972287     E(CORR)=     -1272.9939366     Delta=-2.32D-06
 NORM(A)=   0.10992820D+01
 Iteration Nr.  23
 **********************
 DD1Dir will call FoFMem   1 times, MxPair=       532
 NAB=   180 NAA=   105 NBB=    66.
 A-vector RMS=  6.1114767D-07 Max=  1.7812426D-05 conv= 1.00D-05.
 RLE energy=       -1.1972293946
 DE(Corr)=  -1.1972283     E(CORR)=     -1272.9939362     Delta= 4.01D-07
 NORM(A)=   0.10992953D+01
 Iteration Nr.  24
 **********************
 DD1Dir will call FoFMem   1 times, MxPair=       532
 NAB=   180 NAA=   105 NBB=    66.
 A-vector RMS=  3.7811815D-07 Max=  1.1362983D-05 conv= 1.00D-05.
 RLE energy=       -1.1972286979
 DE(Corr)=  -1.1972289     E(CORR)=     -1272.9939368     Delta=-6.32D-07
 NORM(A)=   0.10993008D+01
 Iteration Nr.  25
 **********************
 DD1Dir will call FoFMem   1 times, MxPair=       532
 NAB=   180 NAA=   105 NBB=    66.
 A-vector RMS=  2.7159809D-07 Max=  1.0367523D-05 conv= 1.00D-05.
 RLE energy=       -1.1972295807
 DE(Corr)=  -1.1972296     E(CORR)=     -1272.9939375     Delta=-6.78D-07
 NORM(A)=   0.10993031D+01
 Iteration Nr.  26
 **********************
 DD1Dir will call FoFMem   1 times, MxPair=       532
 NAB=   180 NAA=   105 NBB=    66.
 A-vector RMS=  1.9771657D-07 Max=  5.1309008D-06 conv= 1.00D-05.
 RLE energy=       -1.1972292700
 DE(Corr)=  -1.1972289     E(CORR)=     -1272.9939369     Delta= 6.24D-07
 NORM(A)=   0.10993044D+01
 Iteration Nr.  27
 **********************
 DD1Dir will call FoFMem   1 times, MxPair=       532
 NAB=   180 NAA=   105 NBB=    66.
 A-vector RMS=  9.8599555D-08 Max=  1.8969004D-06 conv= 1.00D-05.
 RLE energy=       -1.1972291099
 DE(Corr)=  -1.1972292     E(CORR)=     -1272.9939371     Delta=-2.57D-07
 NORM(A)=   0.10993043D+01
 Iteration Nr.  28
 **********************
 DD1Dir will call FoFMem   1 times, MxPair=       532
 NAB=   180 NAA=   105 NBB=    66.
 A-vector RMS=  8.9647486D-08 Max=  2.0775076D-06 conv= 1.00D-05.
 RLE energy=       -1.1972292159
 DE(Corr)=  -1.1972292     E(CORR)=     -1272.9939371     Delta=-2.68D-09
 NORM(A)=   0.10993042D+01
 CI/CC converged in   28 iterations to DelEn=-2.68D-09 Conv= 1.00D-07 ErrA1= 8.96D-08 Conv= 1.00D-05
 Wavefunction amplitudes converged. E(Corr)=     -1272.9939371    
 Dominant configurations:
 ***********************
 Spin Case        I    J    A    B          Value
    BB           12        13            0.125721D+00
    BB           12        17            0.135256D+00
 Largest amplitude= 1.35D-01
 Time for triples=  1458085.50 seconds.
 T4(CCSD)= -0.36245394D-01
 T5(CCSD)=  0.34111771D-02
 CCSD(T)= -0.12730267714D+04
 Discarding MO integrals.
[...]
 196       72F-3        0.00002   0.00001   0.00001   0.00000
 197       73F 0        0.00093   0.00046   0.00046  -0.00000
 198       73F+1        0.00001   0.00001   0.00000   0.00001
 199       73F-1        0.00001   0.00001   0.00000   0.00001
 200       73F+2        0.00002   0.00002   0.00000   0.00002
 201       73F-2        0.00004   0.00002   0.00002   0.00000
 202       73F+3        0.00003   0.00002   0.00002   0.00000
 203       73F-3        0.00003   0.00002   0.00002   0.00000
 204       74F 0        0.00204   0.00102   0.00102  -0.00000
 205       74F+1        0.00001   0.00001   0.00000   0.00001
 206       74F-1        0.00001   0.00001   0.00000   0.00001
 207       74F+2        0.00006   0.00006   0.00000   0.00006
 208       74F-2        0.00014   0.00007   0.00007   0.00000
 209       74F+3        0.00001   0.00000   0.00000   0.00000
 210       74F-3        0.00001   0.00000   0.00000   0.00000
 211       75F 0        0.00059   0.00030   0.00030  -0.00000
 212       75F+1        0.00000   0.00000   0.00000   0.00000
 213       75F-1        0.00000   0.00000   0.00000   0.00000
 214       75F+2        0.00001   0.00001   0.00000   0.00001
 215       75F-2        0.00004   0.00002   0.00002   0.00000
 216       75F+3       -0.00000  -0.00000  -0.00000  -0.00000
 217       75F-3       -0.00000  -0.00000  -0.00000  -0.00000
 218       76G 0        0.00000   0.00000   0.00000   0.00000
 219       76G+1        0.00000   0.00000   0.00000   0.00000
 220       76G-1        0.00000   0.00000   0.00000   0.00000
 221       76G+2        0.00000   0.00000   0.00000   0.00000
 222       76G-2        0.00000   0.00000   0.00000   0.00000
 223       76G+3        0.00000   0.00000   0.00000   0.00000
 224       76G-3        0.00000   0.00000   0.00000   0.00000
 225       76G+4        0.00000   0.00000   0.00000   0.00000
 226       76G-4        0.00000   0.00000   0.00000   0.00000
 227       77G 0        0.00000   0.00000   0.00000   0.00000
 228       77G+1       -0.00000  -0.00000   0.00000  -0.00000
 229       77G-1       -0.00000  -0.00000   0.00000  -0.00000
 230       77G+2        0.00000   0.00000   0.00000   0.00000
 231       77G-2        0.00000   0.00000   0.00000   0.00000
 232       77G+3        0.00000   0.00000   0.00000   0.00000
 233       77G-3        0.00000   0.00000   0.00000   0.00000
 234       77G+4        0.00000   0.00000   0.00000   0.00000
 235       77G-4        0.00000   0.00000   0.00000   0.00000
 236       78G 0        0.00006   0.00003   0.00003   0.00000
 237       78G+1        0.00000   0.00000   0.00000   0.00000
 238       78G-1        0.00000   0.00000   0.00000   0.00000
 239       78G+2        0.00001   0.00001   0.00000   0.00001
 240       78G-2        0.00000   0.00000   0.00000   0.00000
 241       78G+3        0.00000   0.00000   0.00000   0.00000
 242       78G-3        0.00000   0.00000   0.00000   0.00000
 243       78G+4        0.00000   0.00000   0.00000   0.00000
 244       78G-4        0.00000   0.00000   0.00000   0.00000
 245       79G 0        0.00041   0.00020   0.00020  -0.00000
 246       79G+1        0.00002   0.00002   0.00000   0.00002
 247       79G-1        0.00002   0.00002   0.00000   0.00002
 248       79G+2        0.00001   0.00001   0.00000   0.00001
 249       79G-2        0.00000   0.00000   0.00000   0.00000
 250       79G+3        0.00000   0.00000   0.00000   0.00000
 251       79G-3        0.00000   0.00000   0.00000   0.00000
 252       79G+4        0.00000   0.00000   0.00000   0.00000
 253       79G-4        0.00000   0.00000   0.00000   0.00000
 254       80G 0        0.00025   0.00013   0.00013  -0.00000
 255       80G+1        0.00001   0.00001  -0.00000   0.00001
 256       80G-1        0.00001   0.00001  -0.00000   0.00001
 257       80G+2        0.00000   0.00000   0.00000   0.00000
 258       80G-2        0.00000   0.00000   0.00000   0.00000
 259       80G+3        0.00000   0.00000   0.00000   0.00000
 260       80G-3        0.00000   0.00000   0.00000   0.00000
 261       80G+4        0.00000   0.00000   0.00000   0.00000
 262       80G-4        0.00000   0.00000   0.00000   0.00000
 263       81H 0        0.00000   0.00000   0.00000   0.00000
 264       81H+1        0.00000   0.00000   0.00000   0.00000
 265       81H-1        0.00000   0.00000   0.00000   0.00000
 266       81H+2        0.00000   0.00000   0.00000   0.00000
 267       81H-2        0.00000   0.00000   0.00000  -0.00000
 268       81H+3        0.00000   0.00000   0.00000   0.00000
 269       81H-3        0.00000   0.00000   0.00000   0.00000
 270       81H+4        0.00000   0.00000   0.00000   0.00000
 271       81H-4        0.00000   0.00000   0.00000   0.00000
 272       81H+5        0.00000   0.00000   0.00000   0.00000
 273       81H-5        0.00000   0.00000   0.00000   0.00000
 274       82H 0        0.00000   0.00000   0.00000   0.00000
 275       82H+1        0.00000   0.00000   0.00000   0.00000
 276       82H-1        0.00000   0.00000   0.00000   0.00000
 277       82H+2        0.00000   0.00000   0.00000   0.00000
 278       82H-2        0.00000   0.00000   0.00000   0.00000
 279       82H+3        0.00000   0.00000   0.00000   0.00000
 280       82H-3        0.00000   0.00000   0.00000   0.00000
 281       82H+4        0.00000   0.00000   0.00000  -0.00000
 282       82H-4       -0.00000  -0.00000  -0.00000   0.00000
 283       82H+5        0.00000   0.00000   0.00000   0.00000
 284       82H-5        0.00000   0.00000   0.00000   0.00000
 285       83H 0        0.00001   0.00001   0.00001  -0.00000
 286       83H+1        0.00000   0.00000   0.00000   0.00000
 287       83H-1        0.00000   0.00000   0.00000   0.00000
 288       83H+2        0.00000   0.00000   0.00000   0.00000
 289       83H-2        0.00000   0.00000   0.00000   0.00000
 290       83H+3        0.00000   0.00000   0.00000   0.00000
 291       83H-3        0.00000   0.00000   0.00000   0.00000
 292       83H+4        0.00000   0.00000   0.00000   0.00000
 293       83H-4        0.00000   0.00000   0.00000  -0.00000
 294       83H+5        0.00000   0.00000   0.00000   0.00000
 295       83H-5        0.00000   0.00000   0.00000   0.00000
 296       84H 0        0.00003   0.00001   0.00001  -0.00000
 297       84H+1        0.00000   0.00000   0.00000   0.00000
 298       84H-1        0.00000   0.00000   0.00000   0.00000
 299       84H+2        0.00000   0.00000   0.00000   0.00000
 300       84H-2       -0.00000  -0.00000  -0.00000   0.00000
 301       84H+3       -0.00000  -0.00000   0.00000  -0.00000
 302       84H-3       -0.00000  -0.00000   0.00000  -0.00000
 303       84H+4        0.00000   0.00000   0.00000   0.00000
 304       84H-4        0.00000   0.00000   0.00000   0.00000
 305       84H+5        0.00000   0.00000   0.00000   0.00000
 306       84H-5        0.00000   0.00000   0.00000   0.00000
 307       85I 0        0.00000   0.00000   0.00000   0.00000
 308       85I+1        0.00000   0.00000  -0.00000   0.00000
 309       85I-1        0.00000   0.00000  -0.00000   0.00000
 310       85I+2        0.00000   0.00000   0.00000   0.00000
 311       85I-2        0.00000   0.00000   0.00000   0.00000
 312       85I+3        0.00000   0.00000   0.00000   0.00000
 313       85I-3        0.00000   0.00000   0.00000   0.00000
 314       85I+4        0.00000   0.00000   0.00000   0.00000
 315       85I-4        0.00000   0.00000   0.00000  -0.00000
 316       85I+5        0.00000   0.00000   0.00000   0.00000
 317       85I-5        0.00000   0.00000   0.00000   0.00000
 318       85I+6        0.00000   0.00000   0.00000   0.00000
 319       85I-6        0.00000   0.00000   0.00000   0.00000
 320       86I 0       -0.00000  -0.00000  -0.00000  -0.00000
 321       86I+1       -0.00000  -0.00000   0.00000  -0.00000
 322       86I-1       -0.00000  -0.00000   0.00000  -0.00000
 323       86I+2        0.00000   0.00000   0.00000   0.00000
 324       86I-2       -0.00000  -0.00000  -0.00000   0.00000
 325       86I+3        0.00000   0.00000  -0.00000   0.00000
 326       86I-3        0.00000   0.00000  -0.00000   0.00000
 327       86I+4        0.00000   0.00000   0.00000   0.00000
 328       86I-4        0.00000   0.00000   0.00000   0.00000
 329       86I+5        0.00000   0.00000   0.00000   0.00000
 330       86I-5        0.00000   0.00000   0.00000   0.00000
 331       86I+6        0.00000   0.00000   0.00000   0.00000
 332       86I-6        0.00000   0.00000   0.00000   0.00000
 333 2   H  1S          0.00001   0.00000   0.00000   0.00000
 334        2S          0.00029   0.00014   0.00014   0.00000
 335        3S          0.00386   0.00193   0.00193   0.00000
 336        4S          0.03045   0.01523   0.01523   0.00000
 337        5S          0.14685   0.07343   0.07343   0.00000
 338        6S          0.40302   0.20151   0.20151   0.00000
 339        7S          0.49098   0.24549   0.24549  -0.00000
 340        8S          0.19141   0.09571   0.09571  -0.00000
 341        9S          0.01256   0.00628   0.00628   0.00000
 342       10PX         0.00002   0.00002   0.00000   0.00002
 343       10PY         0.00002   0.00002   0.00000   0.00002
 344       10PZ         0.00014   0.00007   0.00007   0.00000
 345       11PX         0.00028   0.00027   0.00001   0.00026
 346       11PY         0.00028   0.00027   0.00001   0.00026
 347       11PZ         0.00169   0.00084   0.00084   0.00000
 348       12PX         0.00175   0.00172   0.00003   0.00169
 349       12PY         0.00175   0.00172   0.00003   0.00169
 350       12PZ         0.00799   0.00399   0.00399   0.00000
 351       13PX         0.00136   0.00135   0.00001   0.00134
 352       13PY         0.00136   0.00135   0.00001   0.00134
 353       13PZ         0.00036   0.00018   0.00018  -0.00000
 354       14PX         0.00025   0.00023   0.00002   0.00021
 355       14PY         0.00025   0.00023   0.00002   0.00021
 356       14PZ        -0.00085  -0.00042  -0.00042  -0.00000
 357       15D 0        0.00008   0.00004   0.00004   0.00000
 358       15D+1        0.00002   0.00002   0.00000   0.00002
 359       15D-1        0.00002   0.00002   0.00000   0.00002
 360       15D+2        0.00000   0.00000   0.00000   0.00000
 361       15D-2        0.00000   0.00000   0.00000   0.00000
 362       16D 0        0.00089   0.00044   0.00044   0.00000
 363       16D+1        0.00032   0.00031   0.00001   0.00029
 364       16D-1        0.00032   0.00031   0.00001   0.00029
 365       16D+2        0.00002   0.00002   0.00000   0.00002
 366       16D-2        0.00006   0.00003   0.00003   0.00000
 367       17D 0        0.00114   0.00057   0.00057   0.00000
 368       17D+1        0.00016   0.00019  -0.00003   0.00022
 369       17D-1        0.00016   0.00019  -0.00003   0.00022
 370       17D+2        0.00006   0.00006   0.00000   0.00006
 371       17D-2        0.00019   0.00009   0.00009   0.00000
 372       18D 0        0.00034   0.00017   0.00017   0.00000
 373       18D+1       -0.00008  -0.00005  -0.00003  -0.00002
 374       18D-1       -0.00008  -0.00005  -0.00003  -0.00002
 375       18D+2        0.00004   0.00004   0.00000   0.00004
 376       18D-2        0.00006   0.00003   0.00003   0.00000
 377       19F 0        0.00005   0.00003   0.00003   0.00000
 378       19F+1        0.00002   0.00002   0.00000   0.00002
 379       19F-1        0.00002   0.00002   0.00000   0.00002
 380       19F+2        0.00000   0.00000   0.00000   0.00000
 381       19F-2        0.00000   0.00000   0.00000   0.00000
 382       19F+3       -0.00000  -0.00000  -0.00000   0.00000
 383       19F-3       -0.00000  -0.00000  -0.00000   0.00000
 384       20F 0        0.00046   0.00023   0.00023   0.00000
 385       20F+1        0.00004   0.00004  -0.00001   0.00005
 386       20F-1        0.00004   0.00004  -0.00001   0.00005
 387       20F+2        0.00002   0.00002   0.00000   0.00002
 388       20F-2        0.00005   0.00003   0.00003   0.00000
 389       20F+3        0.00000   0.00000   0.00000  -0.00000
 390       20F-3        0.00000   0.00000   0.00000  -0.00000
 391       21F 0        0.00053   0.00026   0.00026  -0.00000
 392       21F+1       -0.00011  -0.00007  -0.00005  -0.00002
 393       21F-1       -0.00011  -0.00007  -0.00005  -0.00002
 394       21F+2       -0.00003  -0.00003   0.00000  -0.00003
 395       21F-2       -0.00006  -0.00003  -0.00003   0.00000
 396       21F+3       -0.00000  -0.00000  -0.00000  -0.00000
 397       21F-3       -0.00000  -0.00000  -0.00000  -0.00000
 398       22G 0        0.00002   0.00001   0.00001  -0.00000
 399       22G+1        0.00001   0.00001   0.00000   0.00001
 400       22G-1        0.00001   0.00001   0.00000   0.00001
 401       22G+2        0.00000   0.00000   0.00000   0.00000
 402       22G-2        0.00000   0.00000   0.00000   0.00000
 403       22G+3        0.00000   0.00000   0.00000   0.00000
 404       22G-3        0.00000   0.00000   0.00000   0.00000
 405       22G+4        0.00000   0.00000   0.00000   0.00000
 406       22G-4        0.00000   0.00000   0.00000   0.00000
 407       23G 0        0.00007   0.00004   0.00004  -0.00000
 408       23G+1       -0.00006  -0.00004  -0.00002  -0.00002
 409       23G-1       -0.00006  -0.00004  -0.00002  -0.00002
 410       23G+2       -0.00005  -0.00005   0.00000  -0.00005
 411       23G-2       -0.00007  -0.00004  -0.00004  -0.00000
 412       23G+3        0.00000   0.00000   0.00000  -0.00000
 413       23G-3        0.00000   0.00000   0.00000  -0.00000
 414       23G+4        0.00000   0.00000   0.00000  -0.00000
 415       23G-4       -0.00000  -0.00000  -0.00000   0.00000
          Condensed to atoms (all electrons):
               1          2
     1  Fe  25.319665   0.379736
     2  H    0.379736   0.920863
          Atomic-Atomic Spin Densities.
               1          2
     1  Fe   2.984102   0.007708
     2  H    0.007708   0.000483
 Mulliken charges and spin densities:
               1          2
     1  Fe   0.300599   2.991809
     2  H   -0.300599   0.008191
 Sum of Mulliken charges =  -0.00000   3.00000
 Mulliken charges and spin densities with hydrogens summed into heavy atoms:
               1          2
     1  Fe  -0.000000   3.000000
 Electronic spatial extent (au):  <R**2>=             42.7926
 Charge=             -0.0000 electrons
 Dipole moment (field-independent basis, Debye):
    X=             -0.0000    Y=             -0.0000    Z=              3.3676  Tot=              3.3676
 Quadrupole moment (field-independent basis, Debye-Ang):
   XX=            -16.6997   YY=            -16.6997   ZZ=            -16.3413
   XY=              0.0000   XZ=             -0.0000   YZ=             -0.0000
 Traceless Quadrupole moment (field-independent basis, Debye-Ang):
   XX=             -0.1195   YY=             -0.1195   ZZ=              0.2389
   XY=              0.0000   XZ=             -0.0000   YZ=             -0.0000
 Octapole moment (field-independent basis, Debye-Ang**2):
  XXX=             -0.0000  YYY=              0.0000  ZZZ=             11.0245  XYY=             -0.0000
  XXY=             -0.0000  XXZ=              2.7132  XZZ=             -0.0000  YZZ=             -0.0000
  YYZ=              2.7132  XYZ=             -0.0000
 Hexadecapole moment (field-independent basis, Debye-Ang**3):
 XXXX=            -28.2872 YYYY=            -28.2872 ZZZZ=            -39.5391 XXXY=              0.0000
 XXXZ=             -0.0000 YYYX=              0.0000 YYYZ=             -0.0000 ZZZX=             -0.0000
 ZZZY=             -0.0000 XXYY=             -9.7295 XXZZ=            -10.9789 YYZZ=            -10.9789
 XXYZ=             -0.0000 YYXZ=             -0.0000 ZZXY=              0.0000
 N-N= 1.058354421840D+01 E-N=-3.106487559960D+03  KE= 1.325809160560D+03
 Orbital energies and kinetic energies (alpha):
                                 1                 2
   8         O                -2.781923         11.074164
   9         O                -2.781923         11.074164
  10         O                -0.537396          3.430258
  11         O                -0.537396          6.667697
  12         O                -0.517195          2.811488
  13         O                -0.514936          6.937900
  14         O                -0.468133          6.937900
  15         O                -0.308647          6.980484
  16         V                 0.001863          0.286170
  17         V                 0.021908          0.046711
  18         V                 0.021908          0.046711
  19         V                 0.023979          0.035142
  20         V                 0.038131          0.353423
 Total kinetic energy from orbitals= 1.346665444567D+03
 FoFCou: FMM=F IPFlag=           8 FMFlag=           0 FMFlg1=           0
         NFxFlg=           0 DoJE=F BraDBF=T KetDBF=F FulRan=T
         wScrn=  0.000000 ICntrl=   2000500 IOpCl=  0 I1Cent=           5 NGrid=           0
         NMat0=    1 NMatS0=      1 NMatT0=    0 NMatD0=    1 NMtDS0=    0 NMtDT0=    0
 Symmetry not used in FoFCou.
                          Isotropic Fermi Contact Couplings
        Atom                 a.u.       MegaHertz       Gauss      10(-4) cm-1
     1  Fe(57)             0.00000       0.00000       0.00000       0.00000
     2  H(1)               0.00000       0.00000       0.00000       0.00000
 --------------------------------------------------------
       Center         ----  Spin Dipole Couplings  ----
                      3XX-RR        3YY-RR        3ZZ-RR
 --------------------------------------------------------
     1   Atom        0.008104      0.008100     -0.016205
     2   Atom       -0.162108     -0.162108      0.324216
 --------------------------------------------------------
                        XY            XZ            YZ
 --------------------------------------------------------
     1   Atom        0.000000      0.000000      0.000000
     2   Atom        0.000000      0.000000      0.000000
 --------------------------------------------------------


 ---------------------------------------------------------------------------------
              Anisotropic Spin Dipole Couplings in Principal Axis System
 ---------------------------------------------------------------------------------

       Atom             a.u.   MegaHertz   Gauss  10(-4) cm-1        Axes

              Baa    -0.0162    -0.281    -0.100    -0.094 -0.0000 -0.0000  1.0000
     1 Fe(57) Bbb     0.0081     0.140     0.050     0.047 -0.0029  1.0000  0.0000
              Bcc     0.0081     0.140     0.050     0.047  1.0000  0.0029  0.0000
 
              Baa    -0.1621   -86.493   -30.863   -28.851 -0.0025  1.0000 -0.0000
     2 H(1)   Bbb    -0.1621   -86.493   -30.863   -28.851  1.0000  0.0025 -0.0000
              Bcc     0.3242   172.986    61.726    57.702  0.0000  0.0000  1.0000
 

 ---------------------------------------------------------------------------------

 No NMR shielding tensors so no spin-rotation constants.
 Leave Link  601 at Fri Mar  9 06:03:52 2018, MaxMem= 10737418240 cpu:             384.8 elap:              12.6
 (Enter /home1/apps/gaussian/16rA.03/g16/l9999.exe)

 Test job not archived.
 1\1\GINC-C473-111\SP\ROCCSD(T)-Full\Gen\Fe1H1(4)\GWANG18\09-Mar-2018\0
 \\#P ROCCSD(T)=(MaxCyc=150, Full)/Gen SCF=(maxcycle=400) Integral(DKHS
 O, NoXCTest) Pop=Regular MaxDisk=500GB Guess=Read IOp(5/15=2)\\FeH\\0,
 4\Fe,0,0.,0.,0.\H,0,0.,0.,1.3\\Version=ES64L-G16RevA.03\HF=-1271.79670
 79\MP2=-1273.0511228\MP3=-1272.965526\PUHF=-1271.7967079\PMP2-0=-1273.
 0511228\MP4SDQ=-1273.0077694\CCSD=-1272.9939371\CCSD(T)=-1273.0267714\
 RMSD=7.958e-09\PG=C*V [C*(H1Fe1)]\\@


 MEN HAVE BECOME THE TOOLS OF THEIR TOOLS... THOREAU   
 Job cpu time:      22 days 15 hours 11 minutes 29.2 seconds.
 Elapsed time:       0 days 17 hours 10 minutes  3.0 seconds.
 File lengths (MBytes):  RWF= 143353 Int=      0 D2E=      0 Chk=     19 Scr=      1
 Normal termination of Gaussian 16 at Fri Mar  9 06:03:53 2018.
