 Entering Gaussian System, Link 0=g16
 Initial command:
 /home1/apps/gaussian/16rA.03/g16/l1.exe "/tmp/Gau-170777.inp" -scrdir="/tmp/"
 Entering Link 1 = /home1/apps/gaussian/16rA.03/g16/l1.exe PID=    170778.
  
 Copyright (c) 1988,1990,1992,1993,1995,1998,2003,2009,2016,
            Gaussian, Inc.  All Rights Reserved.
  
 This is part of the Gaussian(R) 16 program.  It is based on
 the Gaussian(R) 09 system (copyright 2009, Gaussian, Inc.),
 the Gaussian(R) 03 system (copyright 2003, Gaussian, Inc.),
 the Gaussian(R) 98 system (copyright 1998, Gaussian, Inc.),
 the Gaussian(R) 94 system (copyright 1995, Gaussian, Inc.),
 the Gaussian 92(TM) system (copyright 1992, Gaussian, Inc.),
 the Gaussian 90(TM) system (copyright 1990, Gaussian, Inc.),
 the Gaussian 88(TM) system (copyright 1988, Gaussian, Inc.),
 the Gaussian 86(TM) system (copyright 1986, Carnegie Mellon
 University), and the Gaussian 82(TM) system (copyright 1983,
 Carnegie Mellon University). Gaussian is a federally registered
 trademark of Gaussian, Inc.
  
 This software contains proprietary and confidential information,
 including trade secrets, belonging to Gaussian, Inc.
  
 This software is provided under written license and may be
 used, copied, transmitted, or stored only in accord with that
 written license.
  
 The following legend is applicable only to US Government
 contracts under FAR:
  
                    RESTRICTED RIGHTS LEGEND
  
 Use, reproduction and disclosure by the US Government is
 subject to restrictions as set forth in subparagraphs (a)
 and (c) of the Commercial Computer Software - Restricted
 Rights clause in FAR 52.227-19.
  
 Gaussian, Inc.
 340 Quinnipiac St., Bldg. 40, Wallingford CT 06492
  
  
 ---------------------------------------------------------------
 Warning -- This program may not be used in any manner that
 competes with the business of Gaussian, Inc. or will provide
 assistance to any competitor of Gaussian, Inc.  The licensee
 of this program is prohibited from giving any competitor of
 Gaussian, Inc. access to this program.  By using this program,
 the user acknowledges that Gaussian, Inc. is engaged in the
 business of creating and licensing software in the field of
 computational chemistry and represents and warrants to the
 licensee that it is not a competitor of Gaussian, Inc. and that
 it will not use this program in any manner prohibited above.
 ---------------------------------------------------------------
  

 Cite this work as:
 Gaussian 16, Revision A.03,
 M. J. Frisch, G. W. Trucks, H. B. Schlegel, G. E. Scuseria, 
 M. A. Robb, J. R. Cheeseman, G. Scalmani, V. Barone, 
 G. A. Petersson, H. Nakatsuji, X. Li, M. Caricato, A. V. Marenich, 
 J. Bloino, B. G. Janesko, R. Gomperts, B. Mennucci, H. P. Hratchian, 
 J. V. Ortiz, A. F. Izmaylov, J. L. Sonnenberg, D. Williams-Young, 
 F. Ding, F. Lipparini, F. Egidi, J. Goings, B. Peng, A. Petrone, 
 T. Henderson, D. Ranasinghe, V. G. Zakrzewski, J. Gao, N. Rega, 
 G. Zheng, W. Liang, M. Hada, M. Ehara, K. Toyota, R. Fukuda, 
 J. Hasegawa, M. Ishida, T. Nakajima, Y. Honda, O. Kitao, H. Nakai, 
 T. Vreven, K. Throssell, J. A. Montgomery, Jr., J. E. Peralta, 
 F. Ogliaro, M. J. Bearpark, J. J. Heyd, E. N. Brothers, K. N. Kudin, 
 V. N. Staroverov, T. A. Keith, R. Kobayashi, J. Normand, 
 K. Raghavachari, A. P. Rendell, J. C. Burant, S. S. Iyengar, 
 J. Tomasi, M. Cossi, J. M. Millam, M. Klene, C. Adamo, R. Cammi, 
 J. W. Ochterski, R. L. Martin, K. Morokuma, O. Farkas, 
 J. B. Foresman, and D. J. Fox, Gaussian, Inc., Wallingford CT, 2016.
 
 ******************************************
 Gaussian 16:  ES64L-G16RevA.03 25-Dec-2016
                 5-Apr-2018 
 ******************************************
 %MEM=80GB
 %CPU=0-19
 SetSPE:  set environment variable "MP_BIND" = "yes"
 SetSPE:  set environment variable "MP_BLIST" = "0,1,2,3,4,5,6,7,8,9,10,11,12,13,14,15,16,17,18,19"
 Will use up to   20 processors via shared memory.
 %RWF=/scratch/04843/aannabe/gaussian/
 %Int=/scratch/04843/aannabe/gaussian/
 %D2E=/scratch/04843/aannabe/gaussian/
 %NoSave
 %CHK=CrO
 ----------------------------------------------------------------------
 #P ROCCSD(T)=(maxcyc=150, Full, SaveAmplitudes, ReadAmplitudes)/Gen 5d
  7f SCF=(maxcycles=300, VShift=400) Integral(NoXCTest) MaxDisk=500GB P
 op=Full Pseudo=Read Guess=Read IOp(5/15=2)
 ----------------------------------------------------------------------
 1/38=1,172=1/1;
 2/12=2,17=6,18=5,40=1/2;
 3/5=7,8=11,11=2,16=1,17=8,25=1,30=1,47=8,116=101/1,2,3;
 4/5=1/1;
 5/5=2,7=300,10=400,15=2,38=6/2;
 8/5=-1,6=4,9=120000,10=90,24=1/1,4;
 9/5=7,6=150,14=2,77=1/13;
 6/7=3/1;
 99/5=1,9=1/99;
 Leave Link    1 at Thu Apr  5 19:16:23 2018, MaxMem= 10737418240 cpu:               6.5 elap:               0.3
 (Enter /home1/apps/gaussian/16rA.03/g16/l101.exe)
 ---
 CrO
 ---
 Symbolic Z-matrix:
 Charge =  0 Multiplicity = 5
 Cr                    0.        0.        0. 
 O                     0.        0.        1.5 
 
 ITRead=  0  0
 MicOpt= -1 -1
 NAtoms=      2 NQM=        2 NQMF=       0 NMMI=      0 NMMIF=      0
                NMic=       0 NMicF=      0.
                    Isotopes and Nuclear Properties:
 (Nuclear quadrupole moments (NQMom) in fm**2, nuclear magnetic moments (NMagM)
  in nuclear magnetons)

  Atom         1           2
 IAtWgt=          52          16
 AtmWgt=  51.9405097  15.9949146
 NucSpn=           0           0
 AtZEff=  -0.0000000  -0.0000000
 NQMom=    0.0000000   0.0000000
 NMagM=    0.0000000   0.0000000
 AtZNuc=  24.0000000   8.0000000
 Leave Link  101 at Thu Apr  5 19:16:26 2018, MaxMem= 10737418240 cpu:               2.1 elap:               0.2
 (Enter /home1/apps/gaussian/16rA.03/g16/l202.exe)
                          Input orientation:                          
 ---------------------------------------------------------------------
 Center     Atomic      Atomic             Coordinates (Angstroms)
 Number     Number       Type             X           Y           Z
 ---------------------------------------------------------------------
      1         24           0        0.000000    0.000000    0.000000
      2          8           0        0.000000    0.000000    1.500000
 ---------------------------------------------------------------------
 Stoichiometry    CrO(5)
 Framework group  C*V[C*(OCr)]
 Deg. of freedom     1
 Full point group                 C*V     NOp   4
 Largest Abelian subgroup         C2V     NOp   4
 Largest concise Abelian subgroup C1      NOp   1
                         Standard orientation:                         
 ---------------------------------------------------------------------
 Center     Atomic      Atomic             Coordinates (Angstroms)
 Number     Number       Type             X           Y           Z
 ---------------------------------------------------------------------
      1         24           0        0.000000    0.000000    0.375000
      2          8           0        0.000000    0.000000   -1.125000
 ---------------------------------------------------------------------
 Rotational constants (GHZ):           0.0000000          18.3671951          18.3671951
 Leave Link  202 at Thu Apr  5 19:16:27 2018, MaxMem= 10737418240 cpu:               0.5 elap:               0.1
 (Enter /home1/apps/gaussian/16rA.03/g16/l301.exe)
 General basis read from cards:  (5D, 7F)
 Centers:       1
 S 1 1.00
     Exponent=  5.9620050000D+04 Coefficients=  1.0000000000D+00
 S 1 1.00
     Exponent=  1.9450760000D+04 Coefficients=  1.0000000000D+00
 S 1 1.00
     Exponent=  7.0220560000D+03 Coefficients=  1.0000000000D+00
 S 1 1.00
     Exponent=  2.7387630000D+03 Coefficients=  1.0000000000D+00
 S 1 1.00
     Exponent=  1.1358140000D+03 Coefficients=  1.0000000000D+00
 S 1 1.00
     Exponent=  4.9509230000D+02 Coefficients=  1.0000000000D+00
 S 1 1.00
     Exponent=  2.2474870000D+02 Coefficients=  1.0000000000D+00
 S 1 1.00
     Exponent=  1.0538360000D+02 Coefficients=  1.0000000000D+00
 S 1 1.00
     Exponent=  5.0193590000D+01 Coefficients=  1.0000000000D+00
 S 1 1.00
     Exponent=  2.2249570000D+01 Coefficients=  1.0000000000D+00
 S 1 1.00
     Exponent=  1.0982650000D+01 Coefficients=  1.0000000000D+00
 S 1 1.00
     Exponent=  5.3836650000D+00 Coefficients=  1.0000000000D+00
 S 1 1.00
     Exponent=  2.3436850000D+00 Coefficients=  1.0000000000D+00
 S 1 1.00
     Exponent=  1.1052020000D+00 Coefficients=  1.0000000000D+00
 S 1 1.00
     Exponent=  4.8784800000D-01 Coefficients=  1.0000000000D+00
 S 1 1.00
     Exponent=  8.9599000000D-02 Coefficients=  1.0000000000D+00
 S 1 1.00
     Exponent=  3.3423000000D-02 Coefficients=  1.0000000000D+00
 S 1 1.00
     Exponent=  4.8281000000D+00 Coefficients=  1.0000000000D+00
 S 1 1.00
     Exponent=  1.1499000000D+00 Coefficients=  1.0000000000D+00
 S 1 1.00
     Exponent=  1.2470000000D-02 Coefficients=  1.0000000000D+00
 P 1 1.00
     Exponent=  3.4216760000D+03 Coefficients=  1.0000000000D+00
 P 1 1.00
     Exponent=  1.1113870000D+03 Coefficients=  1.0000000000D+00
 P 1 1.00
     Exponent=  4.2519180000D+02 Coefficients=  1.0000000000D+00
 P 1 1.00
     Exponent=  1.8026230000D+02 Coefficients=  1.0000000000D+00
 P 1 1.00
     Exponent=  8.2061170000D+01 Coefficients=  1.0000000000D+00
 P 1 1.00
     Exponent=  3.9297260000D+01 Coefficients=  1.0000000000D+00
 P 1 1.00
     Exponent=  1.9419590000D+01 Coefficients=  1.0000000000D+00
 P 1 1.00
     Exponent=  9.8288990000D+00 Coefficients=  1.0000000000D+00
 P 1 1.00
     Exponent=  5.0168100000D+00 Coefficients=  1.0000000000D+00
 P 1 1.00
     Exponent=  2.4870910000D+00 Coefficients=  1.0000000000D+00
 P 1 1.00
     Exponent=  1.1987800000D+00 Coefficients=  1.0000000000D+00
 P 1 1.00
     Exponent=  5.5869500000D-01 Coefficients=  1.0000000000D+00
 P 1 1.00
     Exponent=  2.0936600000D-01 Coefficients=  1.0000000000D+00
 P 1 1.00
     Exponent=  8.4722000000D-02 Coefficients=  1.0000000000D+00
 P 1 1.00
     Exponent=  3.3278000000D-02 Coefficients=  1.0000000000D+00
 P 1 1.00
     Exponent=  5.2718000000D+00 Coefficients=  1.0000000000D+00
 P 1 1.00
     Exponent=  1.2083000000D+00 Coefficients=  1.0000000000D+00
 P 1 1.00
     Exponent=  1.3070000000D-02 Coefficients=  1.0000000000D+00
 D 1 1.00
     Exponent=  8.9474500000D+01 Coefficients=  1.0000000000D+00
 D 1 1.00
     Exponent=  2.6336800000D+01 Coefficients=  1.0000000000D+00
 D 1 1.00
     Exponent=  9.5342900000D+00 Coefficients=  1.0000000000D+00
 D 1 1.00
     Exponent=  3.8211800000D+00 Coefficients=  1.0000000000D+00
 D 1 1.00
     Exponent=  1.5716900000D+00 Coefficients=  1.0000000000D+00
 D 1 1.00
     Exponent=  6.2642200000D-01 Coefficients=  1.0000000000D+00
 D 1 1.00
     Exponent=  2.3305500000D-01 Coefficients=  1.0000000000D+00
 D 1 1.00
     Exponent=  7.6303000000D-02 Coefficients=  1.0000000000D+00
 D 1 1.00
     Exponent=  3.4093000000D+00 Coefficients=  1.0000000000D+00
 D 1 1.00
     Exponent=  1.5874000000D+00 Coefficients=  1.0000000000D+00
 D 1 1.00
     Exponent=  2.4980000000D-02 Coefficients=  1.0000000000D+00
 F 1 1.00
     Exponent=  4.3629000000D+00 Coefficients=  1.0000000000D+00
 F 1 1.00
     Exponent=  1.5864000000D+00 Coefficients=  1.0000000000D+00
 F 1 1.00
     Exponent=  5.2310000000D-01 Coefficients=  1.0000000000D+00
 F 1 1.00
     Exponent=  1.7249000000D-01 Coefficients=  1.0000000000D+00
 G 1 1.00
     Exponent=  4.0406000000D+00 Coefficients=  1.0000000000D+00
 G 1 1.00
     Exponent=  1.4199000000D+00 Coefficients=  1.0000000000D+00
 G 1 1.00
     Exponent=  4.9896000000D-01 Coefficients=  1.0000000000D+00
 ****
 Centers:       2
 S 1 1.00
     Exponent=  1.5330000000D+04 Coefficients=  1.0000000000D+00
 S 1 1.00
     Exponent=  2.2990000000D+03 Coefficients=  1.0000000000D+00
 S 1 1.00
     Exponent=  5.2240000000D+02 Coefficients=  1.0000000000D+00
 S 1 1.00
     Exponent=  1.4730000000D+02 Coefficients=  1.0000000000D+00
 S 1 1.00
     Exponent=  4.7550000000D+01 Coefficients=  1.0000000000D+00
 S 1 1.00
     Exponent=  1.6760000000D+01 Coefficients=  1.0000000000D+00
 S 1 1.00
     Exponent=  6.2070000000D+00 Coefficients=  1.0000000000D+00
 S 1 1.00
     Exponent=  6.8820000000D-01 Coefficients=  1.0000000000D+00
 S 1 1.00
     Exponent=  1.7520000000D+00 Coefficients=  1.0000000000D+00
 S 1 1.00
     Exponent=  2.3840000000D-01 Coefficients=  1.0000000000D+00
 S 1 1.00
     Exponent=  7.8450000000D+00 Coefficients=  1.0000000000D+00
 S 1 1.00
     Exponent=  2.1032000000D+01 Coefficients=  1.0000000000D+00
 S 1 1.00
     Exponent=  7.3760000000D-02 Coefficients=  1.0000000000D+00
 P 1 1.00
     Exponent=  3.4460000000D+01 Coefficients=  1.0000000000D+00
 P 1 1.00
     Exponent=  7.7490000000D+00 Coefficients=  1.0000000000D+00
 P 1 1.00
     Exponent=  2.2800000000D+00 Coefficients=  1.0000000000D+00
 P 1 1.00
     Exponent=  7.1560000000D-01 Coefficients=  1.0000000000D+00
 P 1 1.00
     Exponent=  2.1400000000D-01 Coefficients=  1.0000000000D+00
 P 1 1.00
     Exponent=  1.5159000000D+01 Coefficients=  1.0000000000D+00
 P 1 1.00
     Exponent=  5.7437000000D+01 Coefficients=  1.0000000000D+00
 P 1 1.00
     Exponent=  5.9740000000D-02 Coefficients=  1.0000000000D+00
 D 1 1.00
     Exponent=  2.3140000000D+00 Coefficients=  1.0000000000D+00
 D 1 1.00
     Exponent=  6.4500000000D-01 Coefficients=  1.0000000000D+00
 D 1 1.00
     Exponent=  1.5858000000D+01 Coefficients=  1.0000000000D+00
 D 1 1.00
     Exponent=  2.1400000000D-01 Coefficients=  1.0000000000D+00
 F 1 1.00
     Exponent=  1.4280000000D+00 Coefficients=  1.0000000000D+00
 F 1 1.00
     Exponent=  5.0000000000D-01 Coefficients=  1.0000000000D+00
 ****
 ======================================================================================================
                                       Pseudopotential Parameters
 ======================================================================================================
  Center     Atomic      Valence      Angular      Power
  Number     Number     Electrons     Momentum     of R      Exponent        Coefficient   SO-Coeffient
 ======================================================================================================
    1         24           14
                                      D and up 
                                                     1       17.2876582       14.00000000    0.00000000
                                                     3       17.3786577      242.02721417    0.00000000
                                                     2       16.8819251     -132.23096913    0.00000000
                                                     2        5.2169635       -0.38905464    0.00000000
                                      S - D
                                                     2       16.6730276      219.47992344    0.00000000
                                                     2        7.6079180       28.22489494    0.00000000
                                      P - D
                                                     2       16.2836788      140.07443386    0.00000000
                                                     2        7.5042280       19.63822738    0.00000000
    2          8            6
                                      P and up 
                                                     1       12.3099700        6.00000000    0.00000000
                                                     3       14.7696200       73.85984000    0.00000000
                                                     2       13.7141900      -47.87600000    0.00000000
                                      S - P
                                                     2       13.6551200       85.86406000    0.00000000
 ======================================================================================================
 Ernie: Thresh=  0.10000D-02 Tol=  0.10000D-05 Strict=F.
 There are   140 symmetry adapted cartesian basis functions of A1  symmetry.
 There are    30 symmetry adapted cartesian basis functions of A2  symmetry.
 There are    68 symmetry adapted cartesian basis functions of B1  symmetry.
 There are    68 symmetry adapted cartesian basis functions of B2  symmetry.
 There are   110 symmetry adapted basis functions of A1  symmetry.
 There are    27 symmetry adapted basis functions of A2  symmetry.
 There are    59 symmetry adapted basis functions of B1  symmetry.
 There are    59 symmetry adapted basis functions of B2  symmetry.
   255 basis functions,   306 primitive gaussians,   306 cartesian basis functions
    12 alpha electrons        8 beta electrons
       nuclear repulsion energy        29.6339238115 Hartrees.
 IExCor=    0 DFT=F Ex=HF Corr=None ExCW=0 ScaHFX=  1.000000
 ScaDFX=  1.000000  1.000000  1.000000  1.000000 ScalE2=  1.000000  1.000000
 IRadAn=      5 IRanWt=     -1 IRanGd=            0 ICorTp=0 IEmpDi=  4
 NAtoms=    2 NActive=    2 NUniq=    2 SFac= 1.00D+00 NAtFMM=   60 NAOKFM=F Big=F
 Integral buffers will be    131072 words long.
 Raffenetti 2 integral format.
 Two-electron integral symmetry is turned on.
 Leave Link  301 at Thu Apr  5 19:16:28 2018, MaxMem= 10737418240 cpu:               5.0 elap:               0.5
 (Enter /home1/apps/gaussian/16rA.03/g16/l302.exe)
 NPDir=0 NMtPBC=     1 NCelOv=     1 NCel=       1 NClECP=     1 NCelD=      1
         NCelK=      1 NCelE2=     1 NClLst=     1 CellRange=     0.0.
 One-electron integrals computed using PRISM.
 One-electron integral symmetry used in STVInt
   4 Symmetry operations used in ECPInt.
 ECPInt:  NShTT=    3486 NPrTT=    3486 LenC2=    3259 LenP2D=    3258.
 LDataN:  DoStor=T MaxTD1= 8 Len=  415
 NBasis=   255 RedAO= T EigKep=  1.77D-06  NBF=   110    27    59    59
 NBsUse=   246 1.00D-06 EigRej=  4.93D-07 NBFU=   106    26    57    57
 Leave Link  302 at Thu Apr  5 19:16:31 2018, MaxMem= 10737418240 cpu:              19.1 elap:               1.0
 (Enter /home1/apps/gaussian/16rA.03/g16/l303.exe)
 DipDrv:  MaxL=1.
 Leave Link  303 at Thu Apr  5 19:16:32 2018, MaxMem= 10737418240 cpu:               1.5 elap:               0.2
 (Enter /home1/apps/gaussian/16rA.03/g16/l401.exe)
 Initial guess from the checkpoint file:  "CrO.chk"
 B after Tr=     0.000000    0.000000    0.000000
         Rot=    1.000000    0.000000    0.000000    0.000000 Ang=   0.00 deg.
 Guess basis will be translated and rotated to current coordinates.
 JPrj=2 DoOrth=T DoCkMO=T.
 Initial guess orbital symmetries:
       Occupied  (SG) (SG) (PI) (PI) (SG) (SG) (?A) (?A) (?B) (?B)
                 (?B) (?A)
       Virtual   (?B) (?A) (?A) (SG) (?B) (?A) (?A) (?B) (?B) (?A)
                 (?B) (?A) (SG) (?A) (?B) (?A) (?A) (?B) (?B) (?B)
                 (?A) (?A) (?B) (?A) (?A) (SG) (SG) (DLTA) (DLTA)
                 (PHI) (PHI) (?A) (SG) (?A) (?A) (?A) (?C) (?C)
                 (?C) (?C) (?A) (?A) (?C) (?C) (?A) (?A) (SG) (SG)
                 (?A) (?A) (SG) (DLTA) (DLTA) (?D) (?D) (?D) (?D)
                 (SG) (PHI) (PHI) (SG) (?E) (?E) (?F) (?F) (?E)
                 (?G) (?G) (?F) (?F) (DLTA) (DLTA) (PHI) (PHI)
                 (?H) (PI) (PI) (?H) (?H) (?H) (PI) (PI) (DLTA)
                 (DLTA) (SG) (SG) (?A) (?A) (PI) (PI) (SG) (PHI)
                 (PHI) (DLTA) (DLTA) (SG) (PI) (PI) (SG) (SG) (PI)
                 (PI) (?D) (?D) (?I) (?D) (?I) (?I) (?D) (?G) (?G)
                 (PHI) (PHI) (?J) (?J) (?J) (DLTA) (DLTA) (PI)
                 (PI) (PI) (PI) (?J) (?J) (?J) (PI) (PI) (SG) (SG)
                 (?D) (?D) (DLTA) (DLTA) (?D) (?D) (SG) (PI) (PI)
                 (SG) (PI) (PI) (SG) (SG) (?K) (?K) (PI) (PI) (?K)
                 (SG) (?D) (?D) (?L) (?L) (?L) (?L) (?D) (?D) (?L)
                 (PI) (PI) (SG) (DLTA) (DLTA) (PI) (PI) (SG) (SG)
                 (SG) (DLTA) (DLTA) (PI) (PI) (SG) (PI) (PI) (SG)
                 (PI) (PI) (SG) (SG) (SG) (DLTA) (DLTA) (PI) (PI)
                 (SG) (PI) (PI) (PI) (PI) (SG) (SG) (SG) (SG) (PI)
                 (PI) (SG) (SG) (SG) (PI) (PI) (SG) (DLTA) (DLTA)
                 (PI) (PI) (SG) (PI) (PI) (SG) (SG) (SG) (PI) (PI)
                 (SG) (SG) (SG) (PI) (PI) (SG) (SG) (SG) (PI) (PI)
                 (SG) (SG) (SG) (PI) (PI) (SG) (SG) (SG) (SG) (SG)
 Leave Link  401 at Thu Apr  5 19:16:33 2018, MaxMem= 10737418240 cpu:               9.3 elap:               0.5
 (Enter /home1/apps/gaussian/16rA.03/g16/l502.exe)
 Keep R1 and R2 ints in memory in symmetry-blocked form, NReq=669167781.
 FoFCou: FMM=F IPFlag=           8 FMFlag=           0 FMFlg1=           0
         NFxFlg=           0 DoJE=F BraDBF=F KetDBF=F FulRan=T
         wScrn=  0.000000 ICntrl=       600 IOpCl=  0 I1Cent=           0 NGrid=           0
         NMat0=    1 NMatS0=  32640 NMatT0=    0 NMatD0=    1 NMtDS0=    0 NMtDT0=    0
 Petite list used in FoFCou.
 Restricted open shell SCF:
 Using DIIS extrapolation, IDIIS=  1040.
 NGot= 10737418240 LenX= 10464367955 LenY= 10464273878
 Requested convergence on RMS density matrix=1.00D-08 within 300 cycles.
 Requested convergence on MAX density matrix=1.00D-06.
 Requested convergence on             energy=1.00D-06.
 Virtual orbitals will be shifted by   0.400 hartree.
 No special actions if energy rises.

 Cycle   1  Pass 1  IDiag  1:
 E= -101.477496936791    
 DIIS: error= 4.55D-02 at cycle   1 NSaved=   1.
 NSaved= 1 IEnMin= 1 EnMin= -101.477496936791     IErMin= 1 ErrMin= 4.55D-02
 ErrMax= 4.55D-02  0.00D+00 EMaxC= 1.00D-01 BMatC= 3.96D-01 BMatP= 3.96D-01
 IDIUse=3 WtCom= 5.45D-01 WtEn= 4.55D-01
 Coeff-Com:  0.100D+01
 Coeff-En:   0.100D+01
 Coeff:      0.100D+01
 Gap=     0.078 Goal=   None    Shift=    0.400
 GapD=    0.078 DampG=0.500 DampE=0.250 DampFc=0.1250 IDamp=-1.
 Damping current iteration by 1.25D-01
 RMSDP=7.60D-04 MaxDP=5.92D-02              OVMax= 1.80D-02

 Cycle   2  Pass 1  IDiag  1:
 E= -101.479474434746     Delta-E=       -0.001977497955 Rises=F Damp=T
 DIIS: error= 3.90D-02 at cycle   2 NSaved=   2.
 NSaved= 2 IEnMin= 2 EnMin= -101.479474434746     IErMin= 2 ErrMin= 3.90D-02
 ErrMax= 3.90D-02  0.00D+00 EMaxC= 1.00D-01 BMatC= 3.02D-01 BMatP= 3.96D-01
 IDIUse=3 WtCom= 6.10D-01 WtEn= 3.90D-01
 Coeff-Com: -0.681D+01 0.781D+01
 Coeff-En:   0.000D+00 0.100D+01
 Coeff:     -0.416D+01 0.516D+01
 Gap=     0.073 Goal=   None    Shift=    0.400
 RMSDP=6.70D-04 MaxDP=5.13D-02 DE=-1.98D-03 OVMax= 3.98D-02

 Cycle   3  Pass 1  IDiag  1:
 E= -101.487884483400     Delta-E=       -0.008410048654 Rises=F Damp=F
 DIIS: error= 5.41D-03 at cycle   3 NSaved=   3.
 NSaved= 3 IEnMin= 3 EnMin= -101.487884483400     IErMin= 3 ErrMin= 5.41D-03
 ErrMax= 5.41D-03  0.00D+00 EMaxC= 1.00D-01 BMatC= 2.00D-03 BMatP= 3.02D-01
 IDIUse=3 WtCom= 9.46D-01 WtEn= 5.41D-02
 Coeff-Com: -0.235D+01 0.267D+01 0.678D+00
 Coeff-En:   0.000D+00 0.000D+00 0.100D+01
 Coeff:     -0.222D+01 0.252D+01 0.695D+00
 Gap=     0.076 Goal=   None    Shift=    0.400
 RMSDP=1.19D-04 MaxDP=8.43D-03 DE=-8.41D-03 OVMax= 8.56D-03

 Cycle   4  Pass 1  IDiag  1:
 E= -101.492629240489     Delta-E=       -0.004744757088 Rises=F Damp=F
 DIIS: error= 5.80D-03 at cycle   4 NSaved=   4.
 NSaved= 4 IEnMin= 4 EnMin= -101.492629240489     IErMin= 3 ErrMin= 5.41D-03
 ErrMax= 5.80D-03  0.00D+00 EMaxC= 1.00D-01 BMatC= 1.86D-03 BMatP= 2.00D-03
 IDIUse=3 WtCom= 9.42D-01 WtEn= 5.80D-02
 Coeff-Com: -0.225D+01 0.256D+01 0.234D+00 0.454D+00
 Coeff-En:   0.000D+00 0.000D+00 0.000D+00 0.100D+01
 Coeff:     -0.212D+01 0.241D+01 0.221D+00 0.486D+00
 Gap=     0.070 Goal=   None    Shift=    0.400
 RMSDP=5.32D-05 MaxDP=3.01D-03 DE=-4.74D-03 OVMax= 6.11D-03

 Cycle   5  Pass 1  IDiag  1:
 E= -101.493091639560     Delta-E=       -0.000462399071 Rises=F Damp=F
 DIIS: error= 3.54D-03 at cycle   5 NSaved=   5.
 NSaved= 5 IEnMin= 5 EnMin= -101.493091639560     IErMin= 5 ErrMin= 3.54D-03
 ErrMax= 3.54D-03  0.00D+00 EMaxC= 1.00D-01 BMatC= 7.84D-04 BMatP= 1.86D-03
 IDIUse=3 WtCom= 9.65D-01 WtEn= 3.54D-02
 Coeff-Com: -0.168D+01 0.192D+01-0.133D+00-0.667D-01 0.963D+00
 Coeff-En:   0.000D+00 0.000D+00 0.000D+00 0.000D+00 0.100D+01
 Coeff:     -0.162D+01 0.185D+01-0.129D+00-0.643D-01 0.965D+00
 Gap=     0.072 Goal=   None    Shift=    0.400
 RMSDP=5.52D-05 MaxDP=3.30D-03 DE=-4.62D-04 OVMax= 6.98D-03

 Cycle   6  Pass 1  IDiag  1:
 E= -101.494063519617     Delta-E=       -0.000971880056 Rises=F Damp=F
 DIIS: error= 2.99D-03 at cycle   6 NSaved=   6.
 NSaved= 6 IEnMin= 6 EnMin= -101.494063519617     IErMin= 6 ErrMin= 2.99D-03
 ErrMax= 2.99D-03  0.00D+00 EMaxC= 1.00D-01 BMatC= 5.15D-04 BMatP= 7.84D-04
 IDIUse=3 WtCom= 9.70D-01 WtEn= 2.99D-02
 Coeff-Com: -0.115D+01 0.131D+01-0.913D-01 0.848D-01-0.108D+01 0.192D+01
 Coeff-En:   0.000D+00 0.000D+00 0.000D+00 0.000D+00 0.000D+00 0.100D+01
 Coeff:     -0.111D+01 0.127D+01-0.886D-01 0.823D-01-0.105D+01 0.190D+01
 Gap=     0.073 Goal=   None    Shift=    0.400
 RMSDP=6.51D-05 MaxDP=3.73D-03 DE=-9.72D-04 OVMax= 9.43D-03

 Cycle   7  Pass 1  IDiag  1:
 E= -101.495002265958     Delta-E=       -0.000938746341 Rises=F Damp=F
 DIIS: error= 2.41D-03 at cycle   7 NSaved=   7.
 NSaved= 7 IEnMin= 7 EnMin= -101.495002265958     IErMin= 7 ErrMin= 2.41D-03
 ErrMax= 2.41D-03  0.00D+00 EMaxC= 1.00D-01 BMatC= 3.17D-04 BMatP= 5.15D-04
 IDIUse=3 WtCom= 9.76D-01 WtEn= 2.41D-02
 Coeff-Com: -0.653D+00 0.745D+00 0.122D+00 0.156D+00-0.769D+00-0.108D+01
 Coeff-Com:  0.248D+01
 Coeff-En:   0.000D+00 0.000D+00 0.000D+00 0.000D+00 0.000D+00 0.000D+00
 Coeff-En:   0.100D+01
 Coeff:     -0.637D+00 0.727D+00 0.119D+00 0.152D+00-0.751D+00-0.105D+01
 Coeff:      0.244D+01
 Gap=     0.075 Goal=   None    Shift=    0.400
 RMSDP=7.44D-05 MaxDP=4.35D-03 DE=-9.39D-04 OVMax= 1.16D-02

 Cycle   8  Pass 1  IDiag  1:
 E= -101.495733959980     Delta-E=       -0.000731694022 Rises=F Damp=F
 DIIS: error= 1.78D-03 at cycle   8 NSaved=   8.
 NSaved= 8 IEnMin= 8 EnMin= -101.495733959980     IErMin= 8 ErrMin= 1.78D-03
 ErrMax= 1.78D-03  0.00D+00 EMaxC= 1.00D-01 BMatC= 1.82D-04 BMatP= 3.17D-04
 IDIUse=3 WtCom= 9.82D-01 WtEn= 1.78D-02
 Coeff-Com: -0.587D+00 0.670D+00 0.719D-01 0.564D-01-0.816D-01-0.118D+01
 Coeff-Com:  0.104D+01 0.101D+01
 Coeff-En:   0.000D+00 0.000D+00 0.000D+00 0.000D+00 0.000D+00 0.000D+00
 Coeff-En:   0.000D+00 0.100D+01
 Coeff:     -0.576D+00 0.658D+00 0.706D-01 0.554D-01-0.802D-01-0.116D+01
 Coeff:      0.102D+01 0.101D+01
 Gap=     0.076 Goal=   None    Shift=    0.400
 RMSDP=4.46D-05 MaxDP=3.49D-03 DE=-7.32D-04 OVMax= 9.12D-03

 Cycle   9  Pass 1  IDiag  1:
 E= -101.496010268234     Delta-E=       -0.000276308254 Rises=F Damp=F
 DIIS: error= 1.42D-03 at cycle   9 NSaved=   9.
 NSaved= 9 IEnMin= 9 EnMin= -101.496010268234     IErMin= 9 ErrMin= 1.42D-03
 ErrMax= 1.42D-03  0.00D+00 EMaxC= 1.00D-01 BMatC= 1.02D-04 BMatP= 1.82D-04
 IDIUse=3 WtCom= 9.86D-01 WtEn= 1.42D-02
 Coeff-Com: -0.221D+00 0.253D+00-0.174D+00 0.368D+00-0.412D+00 0.167D+01
 Coeff-Com: -0.247D+01-0.149D+01 0.348D+01
 Coeff-En:   0.000D+00 0.000D+00 0.000D+00 0.000D+00 0.000D+00 0.000D+00
 Coeff-En:   0.000D+00 0.000D+00 0.100D+01
 Coeff:     -0.218D+00 0.249D+00-0.171D+00 0.362D+00-0.406D+00 0.165D+01
 Coeff:     -0.244D+01-0.147D+01 0.344D+01
 Gap=     0.080 Goal=   None    Shift=    0.400
 RMSDP=5.52D-05 MaxDP=2.99D-03 DE=-2.76D-04 OVMax= 1.07D-02

 Cycle  10  Pass 1  IDiag  1:
 E= -101.496289153225     Delta-E=       -0.000278884991 Rises=F Damp=F
 DIIS: error= 9.84D-04 at cycle  10 NSaved=  10.
 NSaved=10 IEnMin=10 EnMin= -101.496289153225     IErMin=10 ErrMin= 9.84D-04
 ErrMax= 9.84D-04  0.00D+00 EMaxC= 1.00D-01 BMatC= 8.06D-05 BMatP= 1.02D-04
 IDIUse=3 WtCom= 9.90D-01 WtEn= 9.84D-03
 Coeff-Com: -0.188D+00 0.215D+00-0.119D+00 0.152D+00-0.287D+00 0.902D+00
 Coeff-Com:  0.168D+00-0.356D+01 0.218D+01 0.154D+01
 Coeff-En:   0.000D+00 0.000D+00 0.000D+00 0.000D+00 0.000D+00 0.000D+00
 Coeff-En:   0.000D+00 0.000D+00 0.000D+00 0.100D+01
 Coeff:     -0.186D+00 0.213D+00-0.118D+00 0.150D+00-0.285D+00 0.893D+00
 Coeff:      0.166D+00-0.352D+01 0.216D+01 0.153D+01
 Gap=     0.081 Goal=   None    Shift=    0.400
 RMSDP=3.53D-05 MaxDP=2.31D-03 DE=-2.79D-04 OVMax= 8.10D-03

 Cycle  11  Pass 1  IDiag  1:
 E= -101.496413599601     Delta-E=       -0.000124446376 Rises=F Damp=F
 DIIS: error= 7.45D-04 at cycle  11 NSaved=  11.
 NSaved=11 IEnMin=11 EnMin= -101.496413599601     IErMin=11 ErrMin= 7.45D-04
 ErrMax= 7.45D-04  0.00D+00 EMaxC= 1.00D-01 BMatC= 5.69D-05 BMatP= 8.06D-05
 IDIUse=3 WtCom= 9.93D-01 WtEn= 7.45D-03
 Coeff-Com: -0.134D+00 0.152D+00-0.862D-02 0.370D-01-0.264D+00 0.329D+00
 Coeff-Com:  0.202D+00-0.107D+01 0.109D+01-0.211D+01 0.278D+01
 Coeff-En:   0.000D+00 0.000D+00 0.000D+00 0.000D+00 0.000D+00 0.000D+00
 Coeff-En:   0.000D+00 0.000D+00 0.000D+00 0.000D+00 0.100D+01
 Coeff:     -0.133D+00 0.151D+00-0.856D-02 0.367D-01-0.262D+00 0.327D+00
 Coeff:      0.200D+00-0.106D+01 0.108D+01-0.210D+01 0.276D+01
 Gap=     0.082 Goal=   None    Shift=    0.400
 RMSDP=2.98D-05 MaxDP=2.00D-03 DE=-1.24D-04 OVMax= 6.51D-03

 Cycle  12  Pass 1  IDiag  1:
 E= -101.496490381981     Delta-E=       -0.000076782379 Rises=F Damp=F
 DIIS: error= 6.66D-04 at cycle  12 NSaved=  12.
 NSaved=12 IEnMin=12 EnMin= -101.496490381981     IErMin=12 ErrMin= 6.66D-04
 ErrMax= 6.66D-04  0.00D+00 EMaxC= 1.00D-01 BMatC= 4.14D-05 BMatP= 5.69D-05
 IDIUse=3 WtCom= 9.93D-01 WtEn= 6.66D-03
 Coeff-Com: -0.561D-01 0.633D-01-0.511D-03 0.832D-01-0.265D+00 0.711D+00
 Coeff-Com: -0.122D+01 0.358D+00 0.134D+01-0.217D+01-0.246D+00 0.240D+01
 Coeff-En:   0.000D+00 0.000D+00 0.000D+00 0.000D+00 0.000D+00 0.000D+00
 Coeff-En:   0.000D+00 0.000D+00 0.000D+00 0.000D+00 0.000D+00 0.100D+01
 Coeff:     -0.558D-01 0.629D-01-0.508D-03 0.827D-01-0.263D+00 0.706D+00
 Coeff:     -0.121D+01 0.355D+00 0.133D+01-0.216D+01-0.244D+00 0.239D+01
 Gap=     0.083 Goal=   None    Shift=    0.400
 RMSDP=2.75D-05 MaxDP=1.76D-03 DE=-7.68D-05 OVMax= 5.55D-03

 Cycle  13  Pass 1  IDiag  1:
 E= -101.496545558038     Delta-E=       -0.000055176058 Rises=F Damp=F
 DIIS: error= 6.27D-04 at cycle  13 NSaved=  13.
 NSaved=13 IEnMin=13 EnMin= -101.496545558038     IErMin=13 ErrMin= 6.27D-04
 ErrMax= 6.27D-04  0.00D+00 EMaxC= 1.00D-01 BMatC= 3.24D-05 BMatP= 4.14D-05
 IDIUse=3 WtCom= 9.94D-01 WtEn= 6.27D-03
 Coeff-Com: -0.966D-02 0.108D-01-0.519D-01 0.122D+00-0.156D+00 0.807D+00
 Coeff-Com: -0.105D+01-0.879D+00 0.186D+01-0.350D+00-0.996D+00-0.892D+00
 Coeff-Com:  0.259D+01
 Coeff-En:   0.000D+00 0.000D+00 0.000D+00 0.000D+00 0.000D+00 0.000D+00
 Coeff-En:   0.000D+00 0.000D+00 0.000D+00 0.000D+00 0.000D+00 0.000D+00
 Coeff-En:   0.100D+01
 Coeff:     -0.960D-02 0.108D-01-0.515D-01 0.121D+00-0.155D+00 0.802D+00
 Coeff:     -0.105D+01-0.874D+00 0.185D+01-0.348D+00-0.990D+00-0.886D+00
 Coeff:      0.258D+01
 Gap=     0.083 Goal=   None    Shift=    0.400
 RMSDP=2.50D-05 MaxDP=1.61D-03 DE=-5.52D-05 OVMax= 5.00D-03

 Cycle  14  Pass 1  IDiag  1:
 E= -101.496584323527     Delta-E=       -0.000038765489 Rises=F Damp=F
 DIIS: error= 5.60D-04 at cycle  14 NSaved=  14.
 NSaved=14 IEnMin=14 EnMin= -101.496584323527     IErMin=14 ErrMin= 5.60D-04
 ErrMax= 5.60D-04  0.00D+00 EMaxC= 1.00D-01 BMatC= 2.32D-05 BMatP= 3.24D-05
 IDIUse=3 WtCom= 9.94D-01 WtEn= 5.60D-03
 Coeff-Com: -0.460D-02 0.543D-02-0.625D-01 0.849D-01-0.365D-01 0.311D+00
 Coeff-Com:  0.257D+00-0.188D+01 0.134D+01 0.647D+00 0.205D+00-0.238D+01
 Coeff-Com: -0.892D+00 0.341D+01
 Coeff-En:   0.000D+00 0.000D+00 0.000D+00 0.000D+00 0.000D+00 0.000D+00
 Coeff-En:   0.000D+00 0.000D+00 0.000D+00 0.000D+00 0.000D+00 0.000D+00
 Coeff-En:   0.000D+00 0.100D+01
 Coeff:     -0.458D-02 0.540D-02-0.621D-01 0.844D-01-0.363D-01 0.309D+00
 Coeff:      0.255D+00-0.187D+01 0.133D+01 0.643D+00 0.204D+00-0.237D+01
 Coeff:     -0.887D+00 0.340D+01
 Gap=     0.084 Goal=   None    Shift=    0.400
 RMSDP=2.41D-05 MaxDP=1.64D-03 DE=-3.88D-05 OVMax= 5.09D-03

 Cycle  15  Pass 1  IDiag  1:
 E= -101.496611297056     Delta-E=       -0.000026973528 Rises=F Damp=F
 DIIS: error= 4.75D-04 at cycle  15 NSaved=  15.
 NSaved=15 IEnMin=15 EnMin= -101.496611297056     IErMin=15 ErrMin= 4.75D-04
 ErrMax= 4.75D-04  0.00D+00 EMaxC= 1.00D-01 BMatC= 1.44D-05 BMatP= 2.32D-05
 IDIUse=3 WtCom= 9.95D-01 WtEn= 4.75D-03
 Coeff-Com: -0.100D-01 0.116D-01-0.601D-01 0.849D-01-0.410D-01 0.304D+00
 Coeff-Com:  0.213D+00-0.173D+01 0.128D+01 0.519D+00 0.201D+00-0.217D+01
 Coeff-Com: -0.779D+00 0.291D+01 0.272D+00
 Coeff-En:   0.000D+00 0.000D+00 0.000D+00 0.000D+00 0.000D+00 0.000D+00
 Coeff-En:   0.000D+00 0.000D+00 0.000D+00 0.000D+00 0.000D+00 0.000D+00
 Coeff-En:   0.000D+00 0.000D+00 0.100D+01
 Coeff:     -0.100D-01 0.116D-01-0.598D-01 0.845D-01-0.408D-01 0.303D+00
 Coeff:      0.212D+00-0.172D+01 0.127D+01 0.516D+00 0.200D+00-0.216D+01
 Coeff:     -0.775D+00 0.289D+01 0.275D+00
 Gap=     0.084 Goal=   None    Shift=    0.400
 RMSDP=1.52D-05 MaxDP=1.10D-03 DE=-2.70D-05 OVMax= 3.61D-03

 Cycle  16  Pass 1  IDiag  1:
 E= -101.496627849227     Delta-E=       -0.000016552171 Rises=F Damp=F
 DIIS: error= 3.22D-04 at cycle  16 NSaved=  16.
 NSaved=16 IEnMin=16 EnMin= -101.496627849227     IErMin=16 ErrMin= 3.22D-04
 ErrMax= 3.22D-04  0.00D+00 EMaxC= 1.00D-01 BMatC= 7.05D-06 BMatP= 1.44D-05
 IDIUse=3 WtCom= 9.97D-01 WtEn= 3.22D-03
 Coeff-Com: -0.302D-02 0.333D-02 0.102D-01 0.160D-01-0.505D-01 0.425D-01
 Coeff-Com: -0.198D+00 0.564D+00-0.260D+00-0.485D+00 0.441D+00 0.108D+00
 Coeff-Com: -0.664D+00 0.697D+00-0.317D+01 0.395D+01
 Coeff-En:   0.000D+00 0.000D+00 0.000D+00 0.000D+00 0.000D+00 0.000D+00
 Coeff-En:   0.000D+00 0.000D+00 0.000D+00 0.000D+00 0.000D+00 0.000D+00
 Coeff-En:   0.000D+00 0.000D+00 0.000D+00 0.100D+01
 Coeff:     -0.301D-02 0.332D-02 0.102D-01 0.159D-01-0.504D-01 0.423D-01
 Coeff:     -0.198D+00 0.562D+00-0.259D+00-0.483D+00 0.440D+00 0.108D+00
 Coeff:     -0.662D+00 0.695D+00-0.316D+01 0.394D+01
 Gap=     0.084 Goal=   None    Shift=    0.400
 RMSDP=1.38D-05 MaxDP=9.84D-04 DE=-1.66D-05 OVMax= 3.45D-03

 Cycle  17  Pass 1  IDiag  1:
 E= -101.496637477062     Delta-E=       -0.000009627836 Rises=F Damp=F
 DIIS: error= 2.89D-04 at cycle  17 NSaved=  17.
 NSaved=17 IEnMin=17 EnMin= -101.496637477062     IErMin=17 ErrMin= 2.89D-04
 ErrMax= 2.89D-04  0.00D+00 EMaxC= 1.00D-01 BMatC= 5.26D-06 BMatP= 7.05D-06
 IDIUse=3 WtCom= 9.97D-01 WtEn= 2.89D-03
 Coeff-Com: -0.105D-01 0.120D-01 0.298D-02-0.753D-02 0.169D-01-0.312D-01
 Coeff-Com: -0.725D-01 0.365D+00-0.261D+00-0.432D-01 0.121D+00-0.978D-01
 Coeff-Com: -0.125D+00 0.104D+01-0.393D+01 0.228D+01 0.174D+01
 Coeff-En:   0.000D+00 0.000D+00 0.000D+00 0.000D+00 0.000D+00 0.000D+00
 Coeff-En:   0.000D+00 0.000D+00 0.000D+00 0.000D+00 0.000D+00 0.000D+00
 Coeff-En:   0.000D+00 0.000D+00 0.000D+00 0.000D+00 0.100D+01
 Coeff:     -0.104D-01 0.119D-01 0.297D-02-0.751D-02 0.168D-01-0.311D-01
 Coeff:     -0.723D-01 0.364D+00-0.260D+00-0.431D-01 0.121D+00-0.975D-01
 Coeff:     -0.124D+00 0.104D+01-0.392D+01 0.227D+01 0.174D+01
 Gap=     0.084 Goal=   None    Shift=    0.400
 RMSDP=9.90D-06 MaxDP=7.98D-04 DE=-9.63D-06 OVMax= 2.50D-03

 Cycle  18  Pass 1  IDiag  1:
 E= -101.496643260180     Delta-E=       -0.000005783118 Rises=F Damp=F
 DIIS: error= 2.14D-04 at cycle  18 NSaved=  18.
 NSaved=18 IEnMin=18 EnMin= -101.496643260180     IErMin=18 ErrMin= 2.14D-04
 ErrMax= 2.14D-04  0.00D+00 EMaxC= 1.00D-01 BMatC= 3.10D-06 BMatP= 5.26D-06
 IDIUse=3 WtCom= 9.98D-01 WtEn= 2.14D-03
 Coeff-Com: -0.681D-02 0.785D-02-0.569D-02-0.758D-02 0.496D-01-0.289D-02
 Coeff-Com: -0.151D+00 0.258D+00-0.140D+00 0.967D-01-0.632D-02-0.196D+00
 Coeff-Com: -0.346D-01 0.953D+00-0.317D+01 0.185D+01 0.549D+00 0.954D+00
 Coeff-En:   0.000D+00 0.000D+00 0.000D+00 0.000D+00 0.000D+00 0.000D+00
 Coeff-En:   0.000D+00 0.000D+00 0.000D+00 0.000D+00 0.000D+00 0.000D+00
 Coeff-En:   0.000D+00 0.000D+00 0.000D+00 0.000D+00 0.000D+00 0.100D+01
 Coeff:     -0.680D-02 0.783D-02-0.567D-02-0.757D-02 0.495D-01-0.288D-02
 Coeff:     -0.151D+00 0.258D+00-0.139D+00 0.965D-01-0.631D-02-0.195D+00
 Coeff:     -0.345D-01 0.951D+00-0.317D+01 0.185D+01 0.548D+00 0.954D+00
 Gap=     0.084 Goal=   None    Shift=    0.400
 RMSDP=6.96D-06 MaxDP=5.58D-04 DE=-5.78D-06 OVMax= 1.84D-03

 Cycle  19  Pass 1  IDiag  1:
 E= -101.496646520281     Delta-E=       -0.000003260100 Rises=F Damp=F
 DIIS: error= 1.62D-04 at cycle  19 NSaved=  19.
 NSaved=19 IEnMin=19 EnMin= -101.496646520281     IErMin=19 ErrMin= 1.62D-04
 ErrMax= 1.62D-04  0.00D+00 EMaxC= 1.00D-01 BMatC= 1.84D-06 BMatP= 3.10D-06
 IDIUse=3 WtCom= 9.98D-01 WtEn= 1.62D-03
 Coeff-Com: -0.342D-03 0.377D-03 0.551D-02-0.865D-02-0.195D-01 0.332D-01
 Coeff-Com: -0.253D-01 0.285D-01-0.113D-01-0.123D+00-0.127D-01 0.270D+00
 Coeff-Com:  0.139D+00-0.286D+00 0.116D-01 0.947D-01 0.821D+00-0.520D+01
 Coeff-Com:  0.528D+01
 Coeff-En:   0.000D+00 0.000D+00 0.000D+00 0.000D+00 0.000D+00 0.000D+00
 Coeff-En:   0.000D+00 0.000D+00 0.000D+00 0.000D+00 0.000D+00 0.000D+00
 Coeff-En:   0.000D+00 0.000D+00 0.000D+00 0.000D+00 0.000D+00 0.000D+00
 Coeff-En:   0.100D+01
 Coeff:     -0.341D-03 0.376D-03 0.551D-02-0.863D-02-0.195D-01 0.331D-01
 Coeff:     -0.253D-01 0.285D-01-0.113D-01-0.123D+00-0.127D-01 0.269D+00
 Coeff:      0.139D+00-0.286D+00 0.116D-01 0.946D-01 0.820D+00-0.519D+01
 Coeff:      0.527D+01
 Gap=     0.084 Goal=   None    Shift=    0.400
 RMSDP=5.96D-06 MaxDP=4.94D-04 DE=-3.26D-06 OVMax= 1.46D-03

 Cycle  20  Pass 1  IDiag  1:
 E= -101.496648528783     Delta-E=       -0.000002008502 Rises=F Damp=F
 DIIS: error= 1.38D-04 at cycle  20 NSaved=  20.
 NSaved=20 IEnMin=20 EnMin= -101.496648528783     IErMin=20 ErrMin= 1.38D-04
 ErrMax= 1.38D-04  0.00D+00 EMaxC= 1.00D-01 BMatC= 1.23D-06 BMatP= 1.84D-06
 IDIUse=3 WtCom= 9.99D-01 WtEn= 1.38D-03
 Coeff-Com:  0.104D-02-0.122D-02 0.678D-02 0.314D-02-0.442D-01 0.216D-01
 Coeff-Com:  0.607D-01-0.920D-01 0.572D-01-0.101D+00-0.175D-01 0.134D+00
 Coeff-Com:  0.226D+00-0.313D+00 0.206D+00-0.526D-01 0.809D+00-0.422D+01
 Coeff-Com:  0.272D+01 0.159D+01
 Coeff-En:   0.000D+00 0.000D+00 0.000D+00 0.000D+00 0.000D+00 0.000D+00
 Coeff-En:   0.000D+00 0.000D+00 0.000D+00 0.000D+00 0.000D+00 0.000D+00
 Coeff-En:   0.000D+00 0.000D+00 0.000D+00 0.000D+00 0.000D+00 0.000D+00
 Coeff-En:   0.000D+00 0.100D+01
 Coeff:      0.104D-02-0.121D-02 0.677D-02 0.313D-02-0.442D-01 0.215D-01
 Coeff:      0.606D-01-0.919D-01 0.571D-01-0.101D+00-0.175D-01 0.134D+00
 Coeff:      0.226D+00-0.312D+00 0.206D+00-0.526D-01 0.808D+00-0.421D+01
 Coeff:      0.272D+01 0.159D+01
 Gap=     0.084 Goal=   None    Shift=    0.400
 RMSDP=4.63D-06 MaxDP=3.68D-04 DE=-2.01D-06 OVMax= 1.19D-03

 Cycle  21  Pass 1  IDiag  1:
 E= -101.496649832568     Delta-E=       -0.000001303785 Rises=F Damp=F
 DIIS: error= 1.08D-04 at cycle  21 NSaved=  20.
 NSaved=20 IEnMin=20 EnMin= -101.496649832568     IErMin=20 ErrMin= 1.08D-04
 ErrMax= 1.08D-04  0.00D+00 EMaxC= 1.00D-01 BMatC= 7.42D-07 BMatP= 1.23D-06
 IDIUse=3 WtCom= 9.99D-01 WtEn= 1.08D-03
 Coeff-Com: -0.270D-05 0.324D-02 0.381D-02-0.311D-01 0.764D-02 0.565D-01
 Coeff-Com: -0.407D-01-0.547D-02 0.958D-03 0.352D-02-0.610D-01 0.165D+00
 Coeff-Com: -0.770D-01-0.698D-01 0.418D-01 0.392D+00-0.202D+01 0.248D+01
 Coeff-Com: -0.316D+01 0.331D+01
 Coeff-En:   0.000D+00 0.000D+00 0.000D+00 0.000D+00 0.000D+00 0.000D+00
 Coeff-En:   0.000D+00 0.000D+00 0.000D+00 0.000D+00 0.000D+00 0.000D+00
 Coeff-En:   0.000D+00 0.000D+00 0.000D+00 0.000D+00 0.000D+00 0.000D+00
 Coeff-En:   0.000D+00 0.100D+01
 Coeff:     -0.270D-05 0.324D-02 0.381D-02-0.310D-01 0.763D-02 0.565D-01
 Coeff:     -0.407D-01-0.547D-02 0.957D-03 0.352D-02-0.609D-01 0.165D+00
 Coeff:     -0.769D-01-0.698D-01 0.418D-01 0.392D+00-0.201D+01 0.248D+01
 Coeff:     -0.316D+01 0.330D+01
 Gap=     0.084 Goal=   None    Shift=    0.400
 RMSDP=3.75D-06 MaxDP=3.09D-04 DE=-1.30D-06 OVMax= 9.45D-04

 Cycle  22  Pass 1  IDiag  1:
 E= -101.496650645683     Delta-E=       -0.000000813116 Rises=F Damp=F
 DIIS: error= 8.02D-05 at cycle  22 NSaved=  20.
 NSaved=20 IEnMin=20 EnMin= -101.496650645683     IErMin=20 ErrMin= 8.02D-05
 ErrMax= 8.02D-05  0.00D+00 EMaxC= 1.00D-01 BMatC= 4.30D-07 BMatP= 7.42D-07
 IDIUse=1 WtCom= 1.00D+00 WtEn= 0.00D+00
 Coeff-Com:  0.894D-03 0.683D-03-0.987D-02 0.205D-01-0.367D-01 0.487D-01
 Coeff-Com: -0.219D-01-0.331D-01 0.289D-01-0.110D-01 0.883D-01-0.128D+00
 Coeff-Com:  0.153D+00 0.122D+00 0.190D-01-0.210D+01 0.295D+01-0.170D+01
 Coeff-Com: -0.991D+00 0.260D+01
 Coeff:      0.894D-03 0.683D-03-0.987D-02 0.205D-01-0.367D-01 0.487D-01
 Coeff:     -0.219D-01-0.331D-01 0.289D-01-0.110D-01 0.883D-01-0.128D+00
 Coeff:      0.153D+00 0.122D+00 0.190D-01-0.210D+01 0.295D+01-0.170D+01
 Coeff:     -0.991D+00 0.260D+01
 Gap=     0.084 Goal=   None    Shift=    0.400
 RMSDP=2.81D-06 MaxDP=2.40D-04 DE=-8.13D-07 OVMax= 7.10D-04

 Cycle  23  Pass 1  IDiag  1:
 E= -101.496651124496     Delta-E=       -0.000000478813 Rises=F Damp=F
 DIIS: error= 5.96D-05 at cycle  23 NSaved=  20.
 NSaved=20 IEnMin=20 EnMin= -101.496651124496     IErMin=20 ErrMin= 5.96D-05
 ErrMax= 5.96D-05  0.00D+00 EMaxC= 1.00D-01 BMatC= 2.39D-07 BMatP= 4.30D-07
 IDIUse=1 WtCom= 1.00D+00 WtEn= 0.00D+00
 Coeff-Com:  0.372D-02-0.101D-01 0.631D-02 0.165D-01-0.478D-01 0.336D-01
 Coeff-Com: -0.264D-01 0.285D-01-0.396D-01 0.104D+00-0.155D+00 0.366D+00
 Coeff-Com: -0.117D+00 0.114D+00-0.194D+01 0.162D+01 0.116D+01-0.136D+01
 Coeff-Com: -0.191D+01 0.314D+01
 Coeff:      0.372D-02-0.101D-01 0.631D-02 0.165D-01-0.478D-01 0.336D-01
 Coeff:     -0.264D-01 0.285D-01-0.396D-01 0.104D+00-0.155D+00 0.366D+00
 Coeff:     -0.117D+00 0.114D+00-0.194D+01 0.162D+01 0.116D+01-0.136D+01
 Coeff:     -0.191D+01 0.314D+01
 Gap=     0.084 Goal=   None    Shift=    0.400
 RMSDP=2.01D-06 MaxDP=1.49D-04 DE=-4.79D-07 OVMax= 4.90D-04

 Cycle  24  Pass 1  IDiag  1:
 E= -101.496651399957     Delta-E=       -0.000000275461 Rises=F Damp=F
 DIIS: error= 4.26D-05 at cycle  24 NSaved=  20.
 NSaved=20 IEnMin=20 EnMin= -101.496651399957     IErMin=20 ErrMin= 4.26D-05
 ErrMax= 4.26D-05  0.00D+00 EMaxC= 1.00D-01 BMatC= 1.29D-07 BMatP= 2.39D-07
 IDIUse=1 WtCom= 1.00D+00 WtEn= 0.00D+00
 Coeff-Com:  0.235D-02-0.153D-01 0.256D-01-0.192D-01 0.357D-02-0.176D-01
 Coeff-Com:  0.233D-01-0.208D-01 0.121D+00-0.231D+00 0.385D+00-0.192D+00
 Coeff-Com: -0.288D-02-0.113D+01 0.119D+01-0.490D-01 0.565D+00-0.129D+01
 Coeff-Com: -0.961D+00 0.260D+01
 Coeff:      0.235D-02-0.153D-01 0.256D-01-0.192D-01 0.357D-02-0.176D-01
 Coeff:      0.233D-01-0.208D-01 0.121D+00-0.231D+00 0.385D+00-0.192D+00
 Coeff:     -0.288D-02-0.113D+01 0.119D+01-0.490D-01 0.565D+00-0.129D+01
 Coeff:     -0.961D+00 0.260D+01
 Gap=     0.084 Goal=   None    Shift=    0.400
 RMSDP=1.56D-06 MaxDP=1.27D-04 DE=-2.75D-07 OVMax= 3.72D-04

 Cycle  25  Pass 1  IDiag  1:
 E= -101.496651550501     Delta-E=       -0.000000150543 Rises=F Damp=F
 DIIS: error= 3.04D-05 at cycle  25 NSaved=  20.
 NSaved=20 IEnMin=20 EnMin= -101.496651550501     IErMin=20 ErrMin= 3.04D-05
 ErrMax= 3.04D-05  0.00D+00 EMaxC= 1.00D-01 BMatC= 7.22D-08 BMatP= 1.29D-07
 IDIUse=1 WtCom= 1.00D+00 WtEn= 0.00D+00
 Coeff-Com: -0.117D-02-0.117D-01 0.356D-01-0.210D-01-0.217D-01 0.230D-01
 Coeff-Com: -0.104D-01 0.933D-01-0.154D+00 0.126D+00 0.196D-01-0.107D+00
 Coeff-Com: -0.441D+00 0.877D+00-0.126D+01 0.126D+01 0.631D+00-0.224D+01
 Coeff-Com: -0.397D+00 0.260D+01
 Coeff:     -0.117D-02-0.117D-01 0.356D-01-0.210D-01-0.217D-01 0.230D-01
 Coeff:     -0.104D-01 0.933D-01-0.154D+00 0.126D+00 0.196D-01-0.107D+00
 Coeff:     -0.441D+00 0.877D+00-0.126D+01 0.126D+01 0.631D+00-0.224D+01
 Coeff:     -0.397D+00 0.260D+01
 Gap=     0.084 Goal=   None    Shift=    0.400
 RMSDP=1.27D-06 MaxDP=9.61D-05 DE=-1.51D-07 OVMax= 2.50D-04

 Cycle  26  Pass 1  IDiag  1:
 E= -101.496651637748     Delta-E=       -0.000000087247 Rises=F Damp=F
 DIIS: error= 2.11D-05 at cycle  26 NSaved=  20.
 NSaved=20 IEnMin=20 EnMin= -101.496651637748     IErMin=20 ErrMin= 2.11D-05
 ErrMax= 2.11D-05  0.00D+00 EMaxC= 1.00D-01 BMatC= 3.74D-08 BMatP= 7.22D-08
 IDIUse=1 WtCom= 1.00D+00 WtEn= 0.00D+00
 Coeff-Com: -0.678D-02 0.210D-01-0.157D-01-0.870D-02 0.368D-01-0.463D-01
 Coeff-Com:  0.324D-01-0.123D-01-0.344D-01 0.857D-01 0.622D-02-0.217D+00
 Coeff-Com:  0.252D+00-0.268D+00-0.348D-01 0.473D+00 0.249D+00-0.159D+01
 Coeff-Com: -0.507D+00 0.258D+01
 Coeff:     -0.678D-02 0.210D-01-0.157D-01-0.870D-02 0.368D-01-0.463D-01
 Coeff:      0.324D-01-0.123D-01-0.344D-01 0.857D-01 0.622D-02-0.217D+00
 Coeff:      0.252D+00-0.268D+00-0.348D-01 0.473D+00 0.249D+00-0.159D+01
 Coeff:     -0.507D+00 0.258D+01
 Gap=     0.084 Goal=   None    Shift=    0.400
 RMSDP=9.97D-07 MaxDP=6.40D-05 DE=-8.72D-08 OVMax= 1.74D-04

 Cycle  27  Pass 1  IDiag  1:
 E= -101.496651683463     Delta-E=       -0.000000045715 Rises=F Damp=F
 DIIS: error= 1.40D-05 at cycle  27 NSaved=  20.
 NSaved=20 IEnMin=20 EnMin= -101.496651683463     IErMin=20 ErrMin= 1.40D-05
 ErrMax= 1.40D-05  0.00D+00 EMaxC= 1.00D-01 BMatC= 1.86D-08 BMatP= 3.74D-08
 IDIUse=1 WtCom= 1.00D+00 WtEn= 0.00D+00
 Coeff-Com: -0.216D-02 0.465D-02-0.102D-01 0.103D-01-0.161D-01 0.473D-01
 Coeff-Com: -0.617D-01 0.719D-01-0.664D-01 0.125D+00-0.247D+00-0.616D-01
 Coeff-Com:  0.642D+00-0.603D+00-0.483D+00 0.141D+01-0.535D+00-0.123D+01
 Coeff-Com: -0.698D+00 0.271D+01
 Coeff:     -0.216D-02 0.465D-02-0.102D-01 0.103D-01-0.161D-01 0.473D-01
 Coeff:     -0.617D-01 0.719D-01-0.664D-01 0.125D+00-0.247D+00-0.616D-01
 Coeff:      0.642D+00-0.603D+00-0.483D+00 0.141D+01-0.535D+00-0.123D+01
 Coeff:     -0.698D+00 0.271D+01
 Gap=     0.084 Goal=   None    Shift=    0.400
 RMSDP=6.77D-07 MaxDP=4.48D-05 DE=-4.57D-08 OVMax= 1.28D-04

 Cycle  28  Pass 1  IDiag  1:
 E= -101.496651706623     Delta-E=       -0.000000023161 Rises=F Damp=F
 DIIS: error= 1.01D-05 at cycle  28 NSaved=  20.
 NSaved=20 IEnMin=20 EnMin= -101.496651706623     IErMin=20 ErrMin= 1.01D-05
 ErrMax= 1.01D-05  0.00D+00 EMaxC= 1.00D-01 BMatC= 1.01D-08 BMatP= 1.86D-08
 IDIUse=1 WtCom= 1.00D+00 WtEn= 0.00D+00
 Coeff-Com:  0.169D-02-0.474D-02 0.214D-02-0.929D-02 0.389D-01-0.615D-01
 Coeff-Com:  0.893D-01-0.755D-01 0.257D-01-0.119D+00 0.691D-01 0.160D+00
 Coeff-Com: -0.110D+00-0.257D+00 0.384D+00-0.152D+00 0.427D-02-0.671D+00
 Coeff-Com: -0.489D+00 0.217D+01
 Coeff:      0.169D-02-0.474D-02 0.214D-02-0.929D-02 0.389D-01-0.615D-01
 Coeff:      0.893D-01-0.755D-01 0.257D-01-0.119D+00 0.691D-01 0.160D+00
 Coeff:     -0.110D+00-0.257D+00 0.384D+00-0.152D+00 0.427D-02-0.671D+00
 Coeff:     -0.489D+00 0.217D+01
 Gap=     0.084 Goal=   None    Shift=    0.400
 RMSDP=5.01D-07 MaxDP=3.40D-05 DE=-2.32D-08 OVMax= 1.07D-04

 Cycle  29  Pass 1  IDiag  1:
 E= -101.496651718980     Delta-E=       -0.000000012356 Rises=F Damp=F
 DIIS: error= 8.67D-06 at cycle  29 NSaved=  20.
 NSaved=20 IEnMin=20 EnMin= -101.496651718980     IErMin=20 ErrMin= 8.67D-06
 ErrMax= 8.67D-06  0.00D+00 EMaxC= 1.00D-01 BMatC= 6.46D-09 BMatP= 1.01D-08
 IDIUse=1 WtCom= 1.00D+00 WtEn= 0.00D+00
 Coeff-Com:  0.379D-03 0.136D-01-0.228D-01-0.272D-02 0.328D-01-0.301D-01
 Coeff-Com:  0.270D-01-0.352D-01-0.245D-01 0.641D-01-0.589D-01 0.252D-01
 Coeff-Com:  0.900D-01-0.452D-01-0.392D+00 0.281D+00 0.324D+00-0.632D+00
 Coeff-Com: -0.127D+01 0.265D+01
 Coeff:      0.379D-03 0.136D-01-0.228D-01-0.272D-02 0.328D-01-0.301D-01
 Coeff:      0.270D-01-0.352D-01-0.245D-01 0.641D-01-0.589D-01 0.252D-01
 Coeff:      0.900D-01-0.452D-01-0.392D+00 0.281D+00 0.324D+00-0.632D+00
 Coeff:     -0.127D+01 0.265D+01
 Gap=     0.084 Goal=   None    Shift=    0.400
 RMSDP=3.51D-07 MaxDP=2.53D-05 DE=-1.24D-08 OVMax= 7.29D-05

 Cycle  30  Pass 1  IDiag  1:
 E= -101.496651728162     Delta-E=       -0.000000009183 Rises=F Damp=F
 DIIS: error= 5.52D-06 at cycle  30 NSaved=  20.
 NSaved=20 IEnMin=20 EnMin= -101.496651728162     IErMin=20 ErrMin= 5.52D-06
 ErrMax= 5.52D-06  0.00D+00 EMaxC= 1.00D-01 BMatC= 3.27D-09 BMatP= 6.46D-09
 IDIUse=1 WtCom= 1.00D+00 WtEn= 0.00D+00
 Coeff-Com:  0.121D-01-0.185D-01 0.165D-02 0.127D-01-0.204D-03-0.634D-02
 Coeff-Com:  0.402D-02 0.111D-01-0.298D-01-0.568D-01 0.494D-01 0.251D-01
 Coeff-Com:  0.158D+00-0.312D+00-0.134D+00 0.164D+00 0.573D+00-0.141D+01
 Coeff-Com: -0.320D+00 0.228D+01
 Coeff:      0.121D-01-0.185D-01 0.165D-02 0.127D-01-0.204D-03-0.634D-02
 Coeff:      0.402D-02 0.111D-01-0.298D-01-0.568D-01 0.494D-01 0.251D-01
 Coeff:      0.158D+00-0.312D+00-0.134D+00 0.164D+00 0.573D+00-0.141D+01
 Coeff:     -0.320D+00 0.228D+01
 Gap=     0.084 Goal=   None    Shift=    0.400
 RMSDP=2.46D-07 MaxDP=1.93D-05 DE=-9.18D-09 OVMax= 4.98D-05

 Cycle  31  Pass 1  IDiag  1:
 E= -101.496651733050     Delta-E=       -0.000000004888 Rises=F Damp=F
 DIIS: error= 3.59D-06 at cycle  31 NSaved=  20.
 NSaved=20 IEnMin=20 EnMin= -101.496651733050     IErMin=20 ErrMin= 3.59D-06
 ErrMax= 3.59D-06  0.00D+00 EMaxC= 1.00D-01 BMatC= 1.63D-09 BMatP= 3.27D-09
 IDIUse=1 WtCom= 1.00D+00 WtEn= 0.00D+00
 Coeff-Com: -0.479D-02 0.215D-01-0.286D-01 0.296D-01-0.499D-01 0.295D-01
 Coeff-Com:  0.638D-01-0.169D-01-0.180D+00 0.242D+00-0.181D+00-0.576D-02
 Coeff-Com:  0.140D+00 0.110D+00-0.498D+00 0.513D-01 0.640D+00 0.141D+00
 Coeff-Com: -0.355D+01 0.405D+01
 Coeff:     -0.479D-02 0.215D-01-0.286D-01 0.296D-01-0.499D-01 0.295D-01
 Coeff:      0.638D-01-0.169D-01-0.180D+00 0.242D+00-0.181D+00-0.576D-02
 Coeff:      0.140D+00 0.110D+00-0.498D+00 0.513D-01 0.640D+00 0.141D+00
 Coeff:     -0.355D+01 0.405D+01
 Gap=     0.084 Goal=   None    Shift=    0.400
 RMSDP=2.13D-07 MaxDP=1.83D-05 DE=-4.89D-09 OVMax= 3.30D-05

 Cycle  32  Pass 1  IDiag  1:
 E= -101.496651735453     Delta-E=       -0.000000002403 Rises=F Damp=F
 DIIS: error= 2.43D-06 at cycle  32 NSaved=  20.
 NSaved=20 IEnMin=20 EnMin= -101.496651735453     IErMin=20 ErrMin= 2.43D-06
 ErrMax= 2.43D-06  0.00D+00 EMaxC= 1.00D-01 BMatC= 8.57D-10 BMatP= 1.63D-09
 IDIUse=1 WtCom= 1.00D+00 WtEn= 0.00D+00
 Coeff-Com:  0.339D-02-0.522D-02 0.639D-02-0.193D-01 0.322D-03 0.724D-01
 Coeff-Com: -0.187D-01-0.130D+00 0.136D+00-0.653D-01-0.261D-01 0.186D-01
 Coeff-Com:  0.176D+00-0.172D+00-0.216D+00 0.331D-01 0.843D+00-0.212D+01
 Coeff-Com:  0.191D+00 0.230D+01
 Coeff:      0.339D-02-0.522D-02 0.639D-02-0.193D-01 0.322D-03 0.724D-01
 Coeff:     -0.187D-01-0.130D+00 0.136D+00-0.653D-01-0.261D-01 0.186D-01
 Coeff:      0.176D+00-0.172D+00-0.216D+00 0.331D-01 0.843D+00-0.212D+01
 Coeff:      0.191D+00 0.230D+01
 Gap=     0.084 Goal=   None    Shift=    0.400
 RMSDP=1.31D-07 MaxDP=1.05D-05 DE=-2.40D-09 OVMax= 2.44D-05

 Cycle  33  Pass 1  IDiag  1:
 E= -101.496651736699     Delta-E=       -0.000000001246 Rises=F Damp=F
 DIIS: error= 1.90D-06 at cycle  33 NSaved=  20.
 NSaved=20 IEnMin=20 EnMin= -101.496651736699     IErMin=20 ErrMin= 1.90D-06
 ErrMax= 1.90D-06  0.00D+00 EMaxC= 1.00D-01 BMatC= 4.88D-10 BMatP= 8.57D-10
 IDIUse=1 WtCom= 1.00D+00 WtEn= 0.00D+00
 Coeff-Com: -0.173D-02 0.227D-02-0.283D-02-0.114D-01 0.604D-01-0.231D-01
 Coeff-Com: -0.912D-01 0.819D-01-0.266D-01-0.280D-01 0.817D-02 0.139D+00
 Coeff-Com: -0.844D-01-0.539D-01-0.107D+00 0.422D+00-0.892D+00 0.129D-01
 Coeff-Com: -0.711D+00 0.231D+01
 Coeff:     -0.173D-02 0.227D-02-0.283D-02-0.114D-01 0.604D-01-0.231D-01
 Coeff:     -0.912D-01 0.819D-01-0.266D-01-0.280D-01 0.817D-02 0.139D+00
 Coeff:     -0.844D-01-0.539D-01-0.107D+00 0.422D+00-0.892D+00 0.129D-01
 Coeff:     -0.711D+00 0.231D+01
 Gap=     0.084 Goal=   None    Shift=    0.400
 RMSDP=9.08D-08 MaxDP=8.10D-06 DE=-1.25D-09 OVMax= 1.84D-05

 Cycle  34  Pass 1  IDiag  1:
 E= -101.496651737355     Delta-E=       -0.000000000656 Rises=F Damp=F
 DIIS: error= 1.63D-06 at cycle  34 NSaved=  20.
 NSaved=20 IEnMin=20 EnMin= -101.496651737355     IErMin=20 ErrMin= 1.63D-06
 ErrMax= 1.63D-06  0.00D+00 EMaxC= 1.00D-01 BMatC= 3.23D-10 BMatP= 4.88D-10
 IDIUse=1 WtCom= 1.00D+00 WtEn= 0.00D+00
 Coeff-Com: -0.937D-02 0.128D-01-0.740D-02 0.249D-01-0.159D-01-0.126D-01
 Coeff-Com:  0.123D-01-0.955D-02 0.560D-02-0.575D-01 0.858D-01-0.586D-01
 Coeff-Com:  0.437D-01-0.568D-01 0.742D-01-0.371D+00 0.973D+00-0.124D+01
 Coeff-Com: -0.156D+01 0.318D+01
 Coeff:     -0.937D-02 0.128D-01-0.740D-02 0.249D-01-0.159D-01-0.126D-01
 Coeff:      0.123D-01-0.955D-02 0.560D-02-0.575D-01 0.858D-01-0.586D-01
 Coeff:      0.437D-01-0.568D-01 0.742D-01-0.371D+00 0.973D+00-0.124D+01
 Coeff:     -0.156D+01 0.318D+01
 Gap=     0.084 Goal=   None    Shift=    0.400
 RMSDP=7.32D-08 MaxDP=5.94D-06 DE=-6.56D-10 OVMax= 1.37D-05

 Cycle  35  Pass 1  IDiag  1:
 E= -101.496651737738     Delta-E=       -0.000000000383 Rises=F Damp=F
 DIIS: error= 1.32D-06 at cycle  35 NSaved=  20.
 NSaved=20 IEnMin=20 EnMin= -101.496651737738     IErMin=20 ErrMin= 1.32D-06
 ErrMax= 1.32D-06  0.00D+00 EMaxC= 1.00D-01 BMatC= 2.02D-10 BMatP= 3.23D-10
 IDIUse=1 WtCom= 1.00D+00 WtEn= 0.00D+00
 Coeff-Com: -0.140D-02-0.589D-02 0.240D-01-0.940D-02-0.194D-01 0.157D-01
 Coeff-Com: -0.181D-01 0.413D-01-0.747D-01 0.771D-01-0.446D-01-0.664D-02
 Coeff-Com:  0.148D-01 0.165D+00-0.976D+00 0.108D+01 0.378D+00-0.142D+01
 Coeff-Com: -0.988D+00 0.276D+01
 Coeff:     -0.140D-02-0.589D-02 0.240D-01-0.940D-02-0.194D-01 0.157D-01
 Coeff:     -0.181D-01 0.413D-01-0.747D-01 0.771D-01-0.446D-01-0.664D-02
 Coeff:      0.148D-01 0.165D+00-0.976D+00 0.108D+01 0.378D+00-0.142D+01
 Coeff:     -0.988D+00 0.276D+01
 Gap=     0.084 Goal=   None    Shift=    0.400
 RMSDP=5.32D-08 MaxDP=5.08D-06 DE=-3.83D-10 OVMax= 1.12D-05

 Cycle  36  Pass 1  IDiag  1:
 E= -101.496651737976     Delta-E=       -0.000000000238 Rises=F Damp=F
 DIIS: error= 1.01D-06 at cycle  36 NSaved=  20.
 NSaved=20 IEnMin=20 EnMin= -101.496651737976     IErMin=20 ErrMin= 1.01D-06
 ErrMax= 1.01D-06  0.00D+00 EMaxC= 1.00D-01 BMatC= 1.17D-10 BMatP= 2.02D-10
 IDIUse=1 WtCom= 1.00D+00 WtEn= 0.00D+00
 Coeff-Com: -0.480D-02 0.110D-01-0.822D-03-0.171D-01 0.245D-01-0.150D-01
 Coeff-Com: -0.404D-02-0.219D-01 0.743D-01-0.744D-01-0.113D-01 0.467D-01
 Coeff-Com:  0.162D+00-0.469D+00 0.378D+00-0.174D+00-0.204D+00 0.252D+00
 Coeff-Com: -0.173D+01 0.278D+01
 Coeff:     -0.480D-02 0.110D-01-0.822D-03-0.171D-01 0.245D-01-0.150D-01
 Coeff:     -0.404D-02-0.219D-01 0.743D-01-0.744D-01-0.113D-01 0.467D-01
 Coeff:      0.162D+00-0.469D+00 0.378D+00-0.174D+00-0.204D+00 0.252D+00
 Coeff:     -0.173D+01 0.278D+01
 Gap=     0.084 Goal=   None    Shift=    0.400
 RMSDP=4.05D-08 MaxDP=3.78D-06 DE=-2.38D-10 OVMax= 8.13D-06

 Cycle  37  Pass 1  IDiag  1:
 E= -101.496651738118     Delta-E=       -0.000000000142 Rises=F Damp=F
 DIIS: error= 7.07D-07 at cycle  37 NSaved=  20.
 NSaved=20 IEnMin=20 EnMin= -101.496651738118     IErMin=20 ErrMin= 7.07D-07
 ErrMax= 7.07D-07  0.00D+00 EMaxC= 1.00D-01 BMatC= 6.44D-11 BMatP= 1.17D-10
 IDIUse=1 WtCom= 1.00D+00 WtEn= 0.00D+00
 Coeff-Com: -0.442D-03 0.586D-03-0.121D-02 0.129D-01-0.213D-01-0.258D-02
 Coeff-Com:  0.144D-01 0.304D-01-0.646D-01 0.444D-01-0.378D-01 0.344D-01
 Coeff-Com:  0.111D+00-0.604D-01-0.592D+00 0.361D+00 0.113D+01-0.278D+01
 Coeff-Com:  0.664D+00 0.216D+01
 Coeff:     -0.442D-03 0.586D-03-0.121D-02 0.129D-01-0.213D-01-0.258D-02
 Coeff:      0.144D-01 0.304D-01-0.646D-01 0.444D-01-0.378D-01 0.344D-01
 Coeff:      0.111D+00-0.604D-01-0.592D+00 0.361D+00 0.113D+01-0.278D+01
 Coeff:      0.664D+00 0.216D+01
 Gap=     0.084 Goal=   None    Shift=    0.400
 RMSDP=3.10D-08 MaxDP=2.99D-06 DE=-1.42D-10 OVMax= 6.21D-06

 Cycle  38  Pass 1  IDiag  1:
 E= -101.496651738204     Delta-E=       -0.000000000086 Rises=F Damp=F
 DIIS: error= 4.61D-07 at cycle  38 NSaved=  20.
 NSaved=20 IEnMin=20 EnMin= -101.496651738204     IErMin=20 ErrMin= 4.61D-07
 ErrMax= 4.61D-07  0.00D+00 EMaxC= 1.00D-01 BMatC= 3.43D-11 BMatP= 6.44D-11
 IDIUse=1 WtCom= 1.00D+00 WtEn= 0.00D+00
 Coeff-Com:  0.106D-02-0.338D-02 0.915D-02-0.490D-02-0.591D-02-0.288D-02
 Coeff-Com:  0.155D-01-0.343D-01 0.664D-01-0.784D-01-0.643D-01 0.176D+00
 Coeff-Com:  0.253D+00-0.729D+00-0.156D+00 0.114D+01-0.102D+01-0.707D-01
 Coeff-Com: -0.456D+00 0.197D+01
 Coeff:      0.106D-02-0.338D-02 0.915D-02-0.490D-02-0.591D-02-0.288D-02
 Coeff:      0.155D-01-0.343D-01 0.664D-01-0.784D-01-0.643D-01 0.176D+00
 Coeff:      0.253D+00-0.729D+00-0.156D+00 0.114D+01-0.102D+01-0.707D-01
 Coeff:     -0.456D+00 0.197D+01
 Gap=     0.084 Goal=   None    Shift=    0.400
 RMSDP=2.58D-08 MaxDP=2.79D-06 DE=-8.55D-11 OVMax= 4.77D-06

 Cycle  39  Pass 1  IDiag  1:
 E= -101.496651738253     Delta-E=       -0.000000000049 Rises=F Damp=F
 DIIS: error= 3.57D-07 at cycle  39 NSaved=  20.
 NSaved=20 IEnMin=20 EnMin= -101.496651738253     IErMin=20 ErrMin= 3.57D-07
 ErrMax= 3.57D-07  0.00D+00 EMaxC= 1.00D-01 BMatC= 2.04D-11 BMatP= 3.43D-11
 IDIUse=1 WtCom= 1.00D+00 WtEn= 0.00D+00
 Coeff-Com: -0.256D-02 0.671D-02-0.297D-02-0.304D-02 0.306D-04 0.788D-02
 Coeff-Com: -0.255D-01 0.507D-01-0.406D-02-0.826D-01-0.626D-01 0.411D+00
 Coeff-Com: -0.283D+00-0.449D+00 0.260D+00 0.182D+00 0.313D+00-0.795D+00
 Coeff-Com: -0.152D+01 0.300D+01
 Coeff:     -0.256D-02 0.671D-02-0.297D-02-0.304D-02 0.306D-04 0.788D-02
 Coeff:     -0.255D-01 0.507D-01-0.406D-02-0.826D-01-0.626D-01 0.411D+00
 Coeff:     -0.283D+00-0.449D+00 0.260D+00 0.182D+00 0.313D+00-0.795D+00
 Coeff:     -0.152D+01 0.300D+01
 Gap=     0.084 Goal=   None    Shift=    0.400
 RMSDP=1.91D-08 MaxDP=1.95D-06 DE=-4.89D-11 OVMax= 3.66D-06

 Cycle  40  Pass 1  IDiag  1:
 E= -101.496651738282     Delta-E=       -0.000000000029 Rises=F Damp=F
 DIIS: error= 2.73D-07 at cycle  40 NSaved=  20.
 NSaved=20 IEnMin=20 EnMin= -101.496651738282     IErMin=20 ErrMin= 2.73D-07
 ErrMax= 2.73D-07  0.00D+00 EMaxC= 1.00D-01 BMatC= 1.27D-11 BMatP= 2.04D-11
 IDIUse=1 WtCom= 1.00D+00 WtEn= 0.00D+00
 Coeff-Com:  0.402D-02-0.783D-02 0.348D-02-0.776D-03 0.129D-01-0.259D-01
 Coeff-Com:  0.136D-01 0.156D-01-0.254D-02-0.116D+00 0.186D+00 0.103D-01
 Coeff-Com: -0.165D+00-0.137D+00-0.130D+00 0.555D+00-0.144D+00-0.116D+01
 Coeff-Com:  0.724D-01 0.201D+01
 Coeff:      0.402D-02-0.783D-02 0.348D-02-0.776D-03 0.129D-01-0.259D-01
 Coeff:      0.136D-01 0.156D-01-0.254D-02-0.116D+00 0.186D+00 0.103D-01
 Coeff:     -0.165D+00-0.137D+00-0.130D+00 0.555D+00-0.144D+00-0.116D+01
 Coeff:      0.724D-01 0.201D+01
 Gap=     0.084 Goal=   None    Shift=    0.400
 RMSDP=1.80D-08 MaxDP=1.94D-06 DE=-2.92D-11 OVMax= 2.78D-06

 Cycle  41  Pass 1  IDiag  1:
 E= -101.496651738299     Delta-E=       -0.000000000017 Rises=F Damp=F
 DIIS: error= 2.05D-07 at cycle  41 NSaved=  20.
 NSaved=20 IEnMin=20 EnMin= -101.496651738299     IErMin=20 ErrMin= 2.05D-07
 ErrMax= 2.05D-07  0.00D+00 EMaxC= 1.00D-01 BMatC= 7.61D-12 BMatP= 1.27D-11
 IDIUse=1 WtCom= 1.00D+00 WtEn= 0.00D+00
 Coeff-Com:  0.422D-03 0.401D-02-0.941D-02 0.888D-02-0.308D-02 0.122D-02
 Coeff-Com: -0.147D-01 0.598D-02 0.239D-01-0.496D-01 0.179D-01 0.722D-01
 Coeff-Com: -0.139D+00-0.680D-01 0.224D+00-0.884D-01 0.681D-01-0.222D+00
 Coeff-Com: -0.239D+01 0.356D+01
 Coeff:      0.422D-03 0.401D-02-0.941D-02 0.888D-02-0.308D-02 0.122D-02
 Coeff:     -0.147D-01 0.598D-02 0.239D-01-0.496D-01 0.179D-01 0.722D-01
 Coeff:     -0.139D+00-0.680D-01 0.224D+00-0.884D-01 0.681D-01-0.222D+00
 Coeff:     -0.239D+01 0.356D+01
 Gap=     0.084 Goal=   None    Shift=    0.400
 RMSDP=1.44D-08 MaxDP=1.68D-06 DE=-1.74D-11 OVMax= 2.27D-06

 Cycle  42  Pass 1  IDiag  1:
 E= -101.496651738309     Delta-E=       -0.000000000010 Rises=F Damp=F
 DIIS: error= 1.71D-07 at cycle  42 NSaved=  20.
 NSaved=20 IEnMin=20 EnMin= -101.496651738309     IErMin=20 ErrMin= 1.71D-07
 ErrMax= 1.71D-07  0.00D+00 EMaxC= 1.00D-01 BMatC= 4.72D-12 BMatP= 7.61D-12
 IDIUse=1 WtCom= 1.00D+00 WtEn= 0.00D+00
 Coeff-Com:  0.307D-02-0.927D-02 0.432D-02 0.117D-01 0.930D-02-0.408D-01
 Coeff-Com: -0.188D-01 0.121D+00-0.852D-01-0.939D-01 0.534D-01 0.142D-01
 Coeff-Com:  0.101D+00-0.899D-01-0.279D+00 0.644D+00 0.659D+00-0.367D+01
 Coeff-Com:  0.166D+01 0.201D+01
 Coeff:      0.307D-02-0.927D-02 0.432D-02 0.117D-01 0.930D-02-0.408D-01
 Coeff:     -0.188D-01 0.121D+00-0.852D-01-0.939D-01 0.534D-01 0.142D-01
 Coeff:      0.101D+00-0.899D-01-0.279D+00 0.644D+00 0.659D+00-0.367D+01
 Coeff:      0.166D+01 0.201D+01
 Gap=     0.084 Goal=   None    Shift=    0.400
 RMSDP=1.12D-08 MaxDP=1.12D-06 DE=-9.95D-12 OVMax= 1.74D-06

 Cycle  43  Pass 1  IDiag  1:
 E= -101.496651738316     Delta-E=       -0.000000000007 Rises=F Damp=F
 DIIS: error= 1.47D-07 at cycle  43 NSaved=  20.
 NSaved=20 IEnMin=20 EnMin= -101.496651738316     IErMin=20 ErrMin= 1.47D-07
 ErrMax= 1.47D-07  0.00D+00 EMaxC= 1.00D-01 BMatC= 3.02D-12 BMatP= 4.72D-12
 IDIUse=1 WtCom= 1.00D+00 WtEn= 0.00D+00
 Large coefficients: NSaved= 20 BigCof=    0.00 CofMax=   10.00 Det=-3.12D-15
 Inversion failed.  Reducing to 19 matrices.
 Large coefficients: NSaved= 19 BigCof=    0.00 CofMax=   10.00 Det=-3.75D-15
 Inversion failed.  Reducing to 18 matrices.
 Large coefficients: NSaved= 18 BigCof=    0.00 CofMax=   10.00 Det=-3.76D-15
 Inversion failed.  Reducing to 17 matrices.
 Large coefficients: NSaved= 17 BigCof=    0.00 CofMax=   10.00 Det=-4.48D-15
 Inversion failed.  Reducing to 16 matrices.
 Large coefficients: NSaved= 16 BigCof=    0.00 CofMax=   10.00 Det=-6.19D-15
 Inversion failed.  Reducing to 15 matrices.
 Coeff-Com: -0.205D-02 0.372D-01-0.542D-01 0.177D-02 0.592D-01-0.816D-01
 Coeff-Com: -0.350D-01 0.116D+00-0.223D+00-0.327D-01 0.416D+00-0.760D+00
 Coeff-Com:  0.729D+00-0.226D+01 0.308D+01
 Coeff:     -0.205D-02 0.372D-01-0.542D-01 0.177D-02 0.592D-01-0.816D-01
 Coeff:     -0.350D-01 0.116D+00-0.223D+00-0.327D-01 0.416D+00-0.760D+00
 Coeff:      0.729D+00-0.226D+01 0.308D+01
 Gap=     0.084 Goal=   None    Shift=    0.400
 RMSDP=8.45D-09 MaxDP=7.97D-07 DE=-6.54D-12 OVMax= 1.44D-06

 SCF Done:  E(ROHF) =  -101.496651738     A.U. after   43 cycles
            NFock= 43  Conv=0.84D-08     -V/T= 2.8036
 <Sx>= 0.0000 <Sy>= 0.0000 <Sz>= 2.0000 <S**2>= 6.0000 S= 2.0000
 <L.S>=  0.00000000000    
 KE= 5.627332071356D+01 PE=-2.902052110756D+02 EE= 1.028013148122D+02
 Annihilation of the first spin contaminant:
 S**2 before annihilation     6.0000,   after     6.0000
 Leave Link  502 at Thu Apr  5 19:17:11 2018, MaxMem= 10737418240 cpu:             583.7 elap:              36.9
 (Enter /home1/apps/gaussian/16rA.03/g16/l801.exe)
 Windowed orbitals will be sorted by symmetry type.
 GenMOA:  NOpAll=  4 NOp2=4 NOpUse=  4 JSym2X=1
 FoFJK:  IHMeth= 1 ICntrl=       0 DoSepK=F KAlg= 0 I1Cent=           0 FoldK=F
 IRaf=         0 NMat=       1 IRICut=       1 DoRegI=T DoRafI=F ISym2E= 1 IDoP0=0 IntGTp=1.
 FoFCou: FMM=F IPFlag=           8 FMFlag=      100000 FMFlg1=           0
         NFxFlg=           0 DoJE=F BraDBF=F KetDBF=F FulRan=T
         wScrn=  0.000000 ICntrl=         0 IOpCl=  1 I1Cent=           0 NGrid=           0
         NMat0=    1 NMatS0=      1 NMatT0=    0 NMatD0=    1 NMtDS0=    0 NMtDT0=    0
 Petite list used in FoFCou.
 <Sx>= 0.0000 <Sy>= 0.0000 <Sz>= 2.0000 <S**2>= 6.0000 S= 2.0000
 Range of M.O.s used for correlation:     1   246
 NBasis=   255 NAE=    12 NBE=     8 NFC=     0 NFV=     0
 NROrb=    246 NOA=    12 NOB=     8 NVA=   234 NVB=   238

 **** Warning!!: The largest alpha MO coefficient is  0.28627297D+03


 **** Warning!!: The largest beta MO coefficient is  0.28622087D+03

 Singles contribution to E2=   -0.6464073641D-02
 Leave Link  801 at Thu Apr  5 19:17:20 2018, MaxMem= 10737418240 cpu:             107.6 elap:               5.5
 (Enter /home1/apps/gaussian/16rA.03/g16/l804.exe)
 Open-shell transformation, MDV= 10737418240 ITran=4 ISComp=2.
 Unit  1 TFree=       1998778 TCopy=       1462078.
 Semi-Direct transformation.
 ModeAB=           4 MOrb=            12 LenV=   10735500812
 LASXX=     22190123 LTotXX=    22190123 LenRXX=    44765834
 LTotAB=    22575711 MaxLAS=   137592720 LenRXY=           0
 NonZer=    66955957 LenScr=   101190656 LnRSAI=   137592720
 LnScr1=   207199232 LExtra=     9510181 Total=    500258623
 MaxDsk= 67108864000 SrtSym=           T ITran=            4
 DoSDTr:  NPSUse= 20
 JobTyp=1 Pass  1:  I=   1 to  12.
 (rs|ai) integrals will be sorted in core.
 Complete sort for first half transformation.
 First half transformation complete.
 Begin second half transformation for I=  10.
 Complete sort for second half transformation.
 Second half transformation complete.
 ModeAB=           4 MOrb=             8 LenV=   10735500812
 LASXX=     15014998 LTotXX=    15014998 LenRXX=    28813258
 LTotAB=    13798260 MaxLAS=    91728480 LenRXY=           0
 NonZer=    43828256 LenScr=    66504192 LnRSAI=    91728480
 LnScr1=   138344448 LExtra=    54276015 Total=    379666393
 MaxDsk= 67108864000 SrtSym=           T ITran=            4
 DoSDTr:  NPSUse= 20
 JobTyp=2 Pass  1:  I=   1 to   8.
 (rs|ai) integrals will be sorted in core.
 Complete sort for first half transformation.
 First half transformation complete.
 Complete sort for second half transformation.
 Second half transformation complete.
 Spin components of T(2) and E(2):
     alpha-alpha T2 =       0.4302908442D-01 E2=     -0.1702326777D+00
     alpha-beta  T2 =       0.1330345329D+00 E2=     -0.6043148061D+00
     beta-beta   T2 =       0.2609670197D-01 E2=     -0.9648573347D-01
 ANorm=    0.1098721326D+01
 E2 =    -0.8774972909D+00 EUMP2 =    -0.10237414902926D+03
 (S**2,0)=  0.60000D+01           (S**2,1)=  0.60000D+01
 E(PUHF)=      -0.10149665174D+03        E(PMP2)=      -0.10237414903D+03
 Leave Link  804 at Thu Apr  5 19:19:22 2018, MaxMem= 10737418240 cpu:            2416.1 elap:             121.0
 (Enter /home1/apps/gaussian/16rA.03/g16/l913.exe)
 CIDS:  MDV= 10737418240.
 IFCWin=0 IBDFC=1 NFBD=     0     0 NFCmp=     0     0 NFFFC=     0     0
 Using original routines for 1st iteration.
 Using DD4UQ or CC4UQ for 2nd and later iterations.
 Keep R2 and R3 ints in memory in symmetry-blocked form, NReq=669181884.
 FoFCou: FMM=F IPFlag=           8 FMFlag=           0 FMFlg1=           0
         NFxFlg=           0 DoJE=F BraDBF=F KetDBF=F FulRan=T
         wScrn=  0.000000 ICntrl=       600 IOpCl=  0 I1Cent=           0 NGrid=           0
         NMat0=    1 NMatS0=  32640 NMatT0=    0 NMatD0=    1 NMtDS0=    0 NMtDT0=    0
 Petite list used in FoFCou.
 CIDS: In Core Option IDoMem=           1.
 CCSD(T)
 =======
 Iterations= 150 Convergence= 0.100D-06
 Produce multiple copies of IABC intergrals
 Iteration Nr.   1
 **********************
 DD1Dir will call FoFMem   1 times, MxPair=       286
 NAB=    96 NAA=    66 NBB=    28.
 DD1Dir will call FoFMem   1 times, MxPair=       286
 NAB=    96 NAA=    66 NBB=    28.
 MP4(R+Q)= -0.42070541D-01
 Maximum subspace dimension=  5
 A-vector RMS=  5.3486056D-04 Max=  4.8503970D-03 conv= 1.00D-05.
 RLE energy=       -0.8578426403
 E3=        0.61456039D-01        EROMP3=      -0.10231269299D+03
 E4(SDQ)=  -0.64933710D-01        ROMP4(SDQ)=  -0.10237762670D+03
 VARIATIONAL ENERGIES WITH THE FIRST-ORDER WAVEFUNCTION:
 DE(Corr)= -0.85738555     E(Corr)=     -102.35403728    
 NORM(A)=   0.10912930D+01
 Iteration Nr.   2
 **********************
 DD1Dir will call FoFMem   1 times, MxPair=       286
 NAB=    96 NAA=    66 NBB=    28.
 A-vector RMS=  6.7134945D-03 Max=  8.4389147D-02 conv= 1.00D-05.
 RLE energy=       -0.8323954446
 DE(Corr)= -0.79148353     E(CORR)=     -102.28813526     Delta= 6.59D-02
 NORM(A)=   0.10860347D+01
 Iteration Nr.   3
 **********************
 DD1Dir will call FoFMem   1 times, MxPair=       286
 NAB=    96 NAA=    66 NBB=    28.
 A-vector RMS=  2.7313624D-03 Max=  3.5977765D-02 conv= 1.00D-05.
 RLE energy=       -0.8499674402
 DE(Corr)= -0.82240669     E(CORR)=     -102.31905842     Delta=-3.09D-02
 NORM(A)=   0.10914588D+01
 Iteration Nr.   4
 **********************
 DD1Dir will call FoFMem   1 times, MxPair=       286
 NAB=    96 NAA=    66 NBB=    28.
 A-vector RMS=  4.4409750D-03 Max=  5.8954790D-02 conv= 1.00D-05.
 RLE energy=       -0.8468599944
 DE(Corr)= -0.81349082     E(CORR)=     -102.31014255     Delta= 8.92D-03
 NORM(A)=   0.11194375D+01
 Iteration Nr.   5
 **********************
 DD1Dir will call FoFMem   1 times, MxPair=       286
 NAB=    96 NAA=    66 NBB=    28.
 A-vector RMS=  7.0368829D-04 Max=  7.7220227D-03 conv= 1.00D-05.
 RLE energy=       -0.8505098803
 DE(Corr)= -0.85022091     E(CORR)=     -102.34687264     Delta=-3.67D-02
 NORM(A)=   0.11363931D+01
 Iteration Nr.   6
 **********************
 DD1Dir will call FoFMem   1 times, MxPair=       286
 NAB=    96 NAA=    66 NBB=    28.
 A-vector RMS=  4.3337964D-04 Max=  4.3095880D-03 conv= 1.00D-05.
 RLE energy=       -0.8517870811
 DE(Corr)= -0.85424861     E(CORR)=     -102.35090035     Delta=-4.03D-03
 NORM(A)=   0.11375911D+01
 Iteration Nr.   7
 **********************
 DD1Dir will call FoFMem   1 times, MxPair=       286
 NAB=    96 NAA=    66 NBB=    28.
 A-vector RMS=  1.6653699D-04 Max=  2.1983619D-03 conv= 1.00D-05.
 RLE energy=       -0.8514646299
 DE(Corr)= -0.85112011     E(CORR)=     -102.34777184     Delta= 3.13D-03
 NORM(A)=   0.11393767D+01
 Iteration Nr.   8
 **********************
 DD1Dir will call FoFMem   1 times, MxPair=       286
 NAB=    96 NAA=    66 NBB=    28.
 A-vector RMS=  1.2359221D-04 Max=  1.1696104D-03 conv= 1.00D-05.
 RLE energy=       -0.8517145799
 DE(Corr)= -0.85179162     E(CORR)=     -102.34844336     Delta=-6.72D-04
 NORM(A)=   0.11404459D+01
 Iteration Nr.   9
 **********************
 DD1Dir will call FoFMem   1 times, MxPair=       286
 NAB=    96 NAA=    66 NBB=    28.
 A-vector RMS=  7.0952323D-05 Max=  8.0963325D-04 conv= 1.00D-05.
 RLE energy=       -0.8519321192
 DE(Corr)= -0.85170524     E(CORR)=     -102.34835697     Delta= 8.64D-05
 NORM(A)=   0.11409146D+01
 Iteration Nr.  10
 **********************
 DD1Dir will call FoFMem   1 times, MxPair=       286
 NAB=    96 NAA=    66 NBB=    28.
 A-vector RMS=  3.1445998D-05 Max=  4.9456571D-04 conv= 1.00D-05.
 RLE energy=       -0.8518362825
 DE(Corr)= -0.85173822     E(CORR)=     -102.34838996     Delta=-3.30D-05
 NORM(A)=   0.11410251D+01
 Iteration Nr.  11
 **********************
 DD1Dir will call FoFMem   1 times, MxPair=       286
 NAB=    96 NAA=    66 NBB=    28.
 A-vector RMS=  1.7398008D-05 Max=  2.5582640D-04 conv= 1.00D-05.
 RLE energy=       -0.8518609016
 DE(Corr)= -0.85187476     E(CORR)=     -102.34852650     Delta=-1.37D-04
 NORM(A)=   0.11409841D+01
 Iteration Nr.  12
 **********************
 DD1Dir will call FoFMem   1 times, MxPair=       286
 NAB=    96 NAA=    66 NBB=    28.
 A-vector RMS=  1.1552449D-05 Max=  1.3261881D-04 conv= 1.00D-05.
 RLE energy=       -0.8518380315
 DE(Corr)= -0.85181464     E(CORR)=     -102.34846638     Delta= 6.01D-05
 NORM(A)=   0.11410465D+01
 Iteration Nr.  13
 **********************
 DD1Dir will call FoFMem   1 times, MxPair=       286
 NAB=    96 NAA=    66 NBB=    28.
 A-vector RMS=  5.5384784D-06 Max=  4.7079180D-05 conv= 1.00D-05.
 RLE energy=       -0.8518581048
 DE(Corr)= -0.85186303     E(CORR)=     -102.34851476     Delta=-4.84D-05
 NORM(A)=   0.11410559D+01
 Iteration Nr.  14
 **********************
 DD1Dir will call FoFMem   1 times, MxPair=       286
 NAB=    96 NAA=    66 NBB=    28.
 A-vector RMS=  4.0017272D-06 Max=  5.9453286D-05 conv= 1.00D-05.
 RLE energy=       -0.8518496274
 DE(Corr)= -0.85184420     E(CORR)=     -102.34849593     Delta= 1.88D-05
 NORM(A)=   0.11410874D+01
 Iteration Nr.  15
 **********************
 DD1Dir will call FoFMem   1 times, MxPair=       286
 NAB=    96 NAA=    66 NBB=    28.
 A-vector RMS=  1.8095960D-06 Max=  2.2898161D-05 conv= 1.00D-05.
 RLE energy=       -0.8518622443
 DE(Corr)= -0.85186188     E(CORR)=     -102.34851361     Delta=-1.77D-05
 NORM(A)=   0.11411027D+01
 Iteration Nr.  16
 **********************
 DD1Dir will call FoFMem   1 times, MxPair=       286
 NAB=    96 NAA=    66 NBB=    28.
 A-vector RMS=  1.3636942D-06 Max=  1.8385144D-05 conv= 1.00D-05.
 RLE energy=       -0.8518592634
 DE(Corr)= -0.85185659     E(CORR)=     -102.34850833     Delta= 5.29D-06
 NORM(A)=   0.11411144D+01
 Iteration Nr.  17
 **********************
 DD1Dir will call FoFMem   1 times, MxPair=       286
 NAB=    96 NAA=    66 NBB=    28.
 A-vector RMS=  9.2252456D-07 Max=  1.1427920D-05 conv= 1.00D-05.
 RLE energy=       -0.8518618028
 DE(Corr)= -0.85186159     E(CORR)=     -102.34851333     Delta=-5.00D-06
 NORM(A)=   0.11411219D+01
 Iteration Nr.  18
 **********************
 DD1Dir will call FoFMem   1 times, MxPair=       286
 NAB=    96 NAA=    66 NBB=    28.
 A-vector RMS=  5.4797346D-07 Max=  7.5188170D-06 conv= 1.00D-05.
 RLE energy=       -0.8518622680
 DE(Corr)= -0.85186153     E(CORR)=     -102.34851327     Delta= 5.69D-08
 NORM(A)=   0.11411254D+01
 CI/CC converged in   18 iterations to DelEn= 5.69D-08 Conv= 1.00D-07 ErrA1= 5.48D-07 Conv= 1.00D-05
 Wavefunction amplitudes converged. E(Corr)=     -102.34851327    
 Dominant configurations:
 ***********************
 Spin Case        I    J    A    B          Value
    AA           10        26            0.147135D+00
 Largest amplitude= 1.47D-01
 Time for triples=    16797.85 seconds.
 T4(CCSD)= -0.63856617D-01
 T5(CCSD)=  0.16203367D-01
 CCSD(T)= -0.10239616652D+03
 Discarding MO integrals.
 Leave Link  913 at Thu Apr  5 19:38:59 2018, MaxMem= 10737418240 cpu:           23471.4 elap:            1175.2
 (Enter /home1/apps/gaussian/16rA.03/g16/l601.exe)
 Copying SCF densities to generalized density rwf, IOpCl= 0 IROHF=1.

 **********************************************************************

            Population analysis using the SCF density.

 **********************************************************************

 Orbital symmetries:
       Occupied  (SG) (SG) (PI) (PI) (SG) (SG) (?A) (?A) (?B) (?B)
                 (?B) (?A)
       Virtual   (?A) (SG) (?A) (SG) (?A) (?B) (?A) (?B) (?B) (?A)
                 (?A) (?B) (?B) (?A) (?B) (?A) (?A) (?B) (?A) (?B)
                 (?B) (?A) (?B) (?A) (?A) (SG) (?B) (DLTA) (DLTA)
                 (PHI) (PHI) (SG) (?A) (?A) (?A) (?A) (?C) (?C)
                 (?C) (?C) (?A) (?A) (?C) (?C) (?A) (?A) (?C) (SG)
                 (PI) (PI) (SG) (DLTA) (DLTA) (?D) (?D) (?D) (?D)
                 (PHI) (PHI) (SG) (SG) (?E) (?E) (?F) (?E) (?F)
                 (?G) (?G) (?F) (?F) (DLTA) (DLTA) (PHI) (PHI)
                 (?H) (PI) (PI) (?H) (?H) (?H) (PI) (PI) (DLTA)
                 (DLTA) (SG) (SG) (PI) (PI) (PI) (PI) (SG) (PHI)
                 (PHI) (DLTA) (DLTA) (SG) (PI) (PI) (SG) (SG) (PI)
                 (PI) (?D) (?D) (?D) (?D) (?I) (?I) (?I) (?G) (?G)
                 (PHI) (PHI) (?J) (?J) (?J) (DLTA) (DLTA) (?J)
                 (?J) (?F) (?F) (?F) (?F) (SG) (PI) (PI) (SG) (SG)
                 (?D) (?D) (DLTA) (DLTA) (?D) (?D) (SG) (PI) (PI)
                 (SG) (PI) (PI) (SG) (?K) (?K) (PI) (PI) (?K) (SG)
                 (SG) (?L) (?L) (?D) (?D) (?L) (?L) (?D) (?D) (SG)
                 (PI) (PI) (SG) (DLTA) (DLTA) (PI) (PI) (SG) (SG)
                 (SG) (DLTA) (DLTA) (PI) (PI) (SG) (PI) (PI) (SG)
                 (PI) (PI) (SG) (SG) (SG) (DLTA) (DLTA) (PI) (PI)
                 (SG) (PI) (PI) (SG) (PI) (PI) (SG) (SG) (SG) (PI)
                 (PI) (SG) (SG) (SG) (PI) (PI) (SG) (DLTA) (DLTA)
                 (PI) (PI) (SG) (PI) (PI) (SG) (SG) (SG) (PI) (PI)
                 (SG) (SG) (SG) (PI) (PI) (SG) (SG) (SG) (PI) (PI)
                 (SG) (SG) (SG) (PI) (PI) (SG) (SG) (SG) (SG) (SG)
 Unable to determine electronic state:  an orbital has unidentified symmetry.
 Alpha  occ. eigenvalues --   -3.76441  -2.48606  -2.44560  -2.42022  -1.21223
 Alpha  occ. eigenvalues --   -0.63317  -0.57357  -0.55845  -0.50512  -0.48108
 Alpha  occ. eigenvalues --   -0.39621  -0.30119
 Alpha virt. eigenvalues --    0.00804   0.01171   0.01934   0.03202   0.04677
 Alpha virt. eigenvalues --    0.04963   0.06379   0.07619   0.07628   0.08019
 Alpha virt. eigenvalues --    0.08451   0.08567   0.12847   0.14491   0.16824
 Alpha virt. eigenvalues --    0.21235   0.23439   0.25779   0.26420   0.26432
 Alpha virt. eigenvalues --    0.26802   0.27547   0.28884   0.30847   0.31317
 Alpha virt. eigenvalues --    0.37497   0.51679   0.61723   0.61729   0.62396
 Alpha virt. eigenvalues --    0.62397   0.67930   0.68102   0.68172   0.71695
 Alpha virt. eigenvalues --    0.72917   0.73523   0.83338   0.83407   0.87849
 Alpha virt. eigenvalues --    0.90843   0.91678   0.95131   0.95183   1.01960
 Alpha virt. eigenvalues --    1.04555   1.09560   1.33533   1.38850   1.39767
 Alpha virt. eigenvalues --    1.52352   1.82800   1.82818   1.89764   1.89875
 Alpha virt. eigenvalues --    1.90835   1.92106   2.03954   2.03954   2.04927
 Alpha virt. eigenvalues --    2.15204   2.23269   2.23275   2.26326   2.26906
 Alpha virt. eigenvalues --    2.26923   2.28110   2.28110   2.32366   2.32371
 Alpha virt. eigenvalues --    2.42310   2.42312   2.52022   2.52022   2.64516
 Alpha virt. eigenvalues --    2.74054   2.74540   2.74608   2.76829   2.87814
 Alpha virt. eigenvalues --    2.97406   2.98209   3.06205   3.06213   3.27193
 Alpha virt. eigenvalues --    3.40801   3.53569   3.54087   4.42041   4.42687
 Alpha virt. eigenvalues --    4.72179   5.28469   5.28472   5.39055   5.39077
 Alpha virt. eigenvalues --    5.61472   5.70059   5.72509   5.82579   6.41359
 Alpha virt. eigenvalues --    6.46793   6.47436   6.52900   6.54298   6.56788
 Alpha virt. eigenvalues --    6.56788   6.57463   6.58291   6.58333   6.80663
 Alpha virt. eigenvalues --    6.80663   6.85806   6.85806   7.00775   7.04813
 Alpha virt. eigenvalues --    7.04829   7.16059   7.16062   7.34628   7.34734
 Alpha virt. eigenvalues --    7.38445   7.39432   7.43448   7.43583   7.59125
 Alpha virt. eigenvalues --    7.90173   7.90422   8.26603   8.92439  14.61624
 Alpha virt. eigenvalues --   14.61629  14.66749  14.66777  14.77798  14.78435
 Alpha virt. eigenvalues --   14.89420  15.03288  15.03598  15.54355  15.74487
 Alpha virt. eigenvalues --   15.76615  15.87514  16.59186  16.59247  16.79920
 Alpha virt. eigenvalues --   16.80474  16.88456  17.05886  17.72024  18.77145
 Alpha virt. eigenvalues --   18.77145  18.77747  18.77748  18.83624  18.83628
 Alpha virt. eigenvalues --   18.90535  18.91350  19.30473  32.69645  32.72116
 Alpha virt. eigenvalues --   32.83850  34.59042  34.59068  34.73657  34.75487
 Alpha virt. eigenvalues --   35.03739  38.39121  38.86721  43.73256  43.73260
 Alpha virt. eigenvalues --   43.87382  43.87948  43.98866  45.63245  45.64324
 Alpha virt. eigenvalues --   46.61692  62.46486  62.48961  62.65461  74.58613
 Alpha virt. eigenvalues --   81.71614  85.43323  85.43335  85.54503  85.56147
 Alpha virt. eigenvalues --   85.81240 116.53174 116.55233 116.70151 118.99794
 Alpha virt. eigenvalues --  119.00718 119.80345 136.81474 151.25178 218.85219
 Alpha virt. eigenvalues --  218.86738 219.00661 257.56503 266.40548 286.28551
 Alpha virt. eigenvalues --  286.29120 287.02620 312.85164 312.85170 312.92838
 Alpha virt. eigenvalues --  312.93524 313.08147 423.90936 423.91929 424.06247
 Alpha virt. eigenvalues --  492.95156 555.05942 864.22074 864.22636 864.36592
 Alpha virt. eigenvalues --  958.702061529.586701895.512781895.515511895.64576
 Alpha virt. eigenvalues -- 1961.253144231.539724602.177384602.178504602.29571
 Alpha virt. eigenvalues -- 5659.746459657.34240******************************
 Alpha virt. eigenvalues -- ****************************************
     Molecular Orbital Coefficients:
                           1         2         3         4         5
                           O         O         O         O         O
     Eigenvalues --    -3.76441  -2.48606  -2.44560  -2.42022  -1.21223
   1 1   Cr 1S          0.00000  -0.00000   0.00000   0.00000   0.00000
   2        2S         -0.00000   0.00000   0.00000   0.00000  -0.00000
   3        3S          0.00002  -0.00000   0.00000   0.00000   0.00000
   4        4S         -0.00007   0.00000   0.00000   0.00000  -0.00001
   5        5S          0.00022  -0.00001   0.00000   0.00000   0.00002
   6        6S         -0.00066   0.00002   0.00000   0.00000  -0.00007
   7        7S          0.00190  -0.00006   0.00000   0.00000   0.00021
   8        8S         -0.00541   0.00017   0.00000   0.00000  -0.00061
   9        9S          0.01689  -0.00047   0.00000   0.00000   0.00193
  10       10S         -0.07767   0.00186   0.00000   0.00000  -0.00919
  11       11S          0.07261  -0.00342   0.00000   0.00000   0.00903
  12       12S          0.87712   0.01306   0.00000   0.00000   0.11761
  13       13S         -0.23440   0.00861   0.00000   0.00000  -0.02801
  14       14S         -0.62020  -0.00375   0.00000   0.00000  -0.09869
  15       15S         -0.26269   0.02220   0.00000   0.00000  -0.03685
[...]
          Condensed to atoms (all electrons):
               1          2
     1  Cr  12.767122   0.214198
     2  O    0.214198   6.804482
          Atomic-Atomic Spin Densities.
               1          2
     1  Cr   3.821328   0.008630
     2  O    0.008630   0.161412
 Mulliken charges and spin densities:
               1          2
     1  Cr   1.018680   3.829958
     2  O   -1.018680   0.170042
 Sum of Mulliken charges =  -0.00000   4.00000
 Mulliken charges and spin densities with hydrogens summed into heavy atoms:
               1          2
     1  Cr   1.018680   3.829958
     2  O   -1.018680   0.170042
 Electronic spatial extent (au):  <R**2>=             82.4621
 Charge=             -0.0000 electrons
 Dipole moment (field-independent basis, Debye):
    X=              0.0000    Y=              0.0000    Z=              4.4806  Tot=              4.4806
 Quadrupole moment (field-independent basis, Debye-Ang):
   XX=            -20.8574   YY=            -19.7485   ZZ=            -24.3778
   XY=              0.0000   XZ=              0.0000   YZ=              0.0000
 Traceless Quadrupole moment (field-independent basis, Debye-Ang):
   XX=              0.8038   YY=              1.9128   ZZ=             -2.7166
   XY=              0.0000   XZ=              0.0000   YZ=              0.0000
 Octapole moment (field-independent basis, Debye-Ang**2):
  XXX=              0.0000  YYY=              0.0000  ZZZ=              5.9936  XYY=              0.0000
  XXY=              0.0000  XXZ=              0.2852  XZZ=              0.0000  YZZ=              0.0000
  YYZ=              0.8292  XYZ=              0.0000
 Hexadecapole moment (field-independent basis, Debye-Ang**3):
 XXXX=            -31.3104 YYYY=            -28.0971 ZZZZ=            -98.8489 XXXY=              0.0000
 XXXZ=              0.0000 YYYX=              0.0000 YYYZ=              0.0000 ZZZX=              0.0000
 ZZZY=              0.0000 XXYY=             -9.9007 XXZZ=            -22.4588 YYZZ=            -20.7244
 XXYZ=              0.0000 YYXZ=              0.0000 ZZXY=              0.0000
 N-N= 2.963392381152D+01 E-N=-2.902052073267D+02  KE= 5.627332071356D+01
 Symmetry A1   KE= 2.430511460274D+01
 Symmetry A2   KE= 5.411087312405D+00
 Symmetry B1   KE= 1.592915898586D+01
 Symmetry B2   KE= 1.062795981281D+01
 Symmetry A1   SP= 2.000000000000D+00
 Symmetry A2   SP= 1.000000000000D+00
 Symmetry B1   SP= 1.000000000000D+00
 Symmetry B2   SP= 0.000000000000D+00
 Orbital energies and kinetic energies (alpha):
                                 1                 2
   1         O                -3.764413          1.877819
   2         O                -2.486056          2.953907
   3         O                -2.445600          3.086219
   4         O                -2.420217          3.081117
   5         O                -1.212225          1.201752
   6         O                -0.633174          2.945588
   7         O                -0.573572          2.196506
   8         O                -0.558453          2.227761
   9         O                -0.505124          4.063328
  10         O                -0.481076          5.411087
  11         O                -0.396214          2.283654
  12         O                -0.301185          5.373912
  13         V                 0.008037          0.151084
  14         V                 0.011705          0.151774
  15         V                 0.019339          0.080012
  16         V                 0.032020          0.043543
  17         V                 0.046766          0.398442
  18         V                 0.049633          0.488538
  19         V                 0.063787          0.179616
  20         V                 0.076188          0.095069
  21         V                 0.076280          0.094161
  22         V                 0.080191          0.174193
  23         V                 0.084512          0.251627
  24         V                 0.085674          0.531012
  25         V                 0.128470          0.378152
  26         V                 0.144912          2.216698
  27         V                 0.168241          0.742222
  28         V                 0.212351          0.617270
  29         V                 0.234389          1.176639
  30         V                 0.257792          0.414129
  31         V                 0.264202          0.337559
  32         V                 0.264317          0.546781
  33         V                 0.268018          0.546741
  34         V                 0.275466          1.304070
  35         V                 0.288835          1.455961
  36         V                 0.308470          0.532168
  37         V                 0.313168          0.756595
  38         V                 0.374972          0.497696
  39         V                 0.516787          1.866291
  40         V                 0.617229          0.742278
  41         V                 0.617286          0.742575
  42         V                 0.623957          0.753380
  43         V                 0.623966          0.753400
  44         V                 0.679295          1.039772
  45         V                 0.681018          1.097043
  46         V                 0.681716          1.032499
  47         V                 0.716950          1.329570
  48         V                 0.729175          1.413344
  49         V                 0.735226          1.597193
  50         V                 0.833379          1.514252
  51         V                 0.834075          1.517637
  52         V                 0.878488          1.334494
  53         V                 0.908430          1.205307
  54         V                 0.916780          1.323659
  55         V                 0.951313          1.797250
  56         V                 0.951832          1.807316
  57         V                 1.019600          2.396269
  58         V                 1.045553          2.679260
  59         V                 1.095602          2.412064
  60         V                 1.335329          1.951634
  61         V                 1.388495          2.106374
  62         V                 1.397671          2.256965
  63         V                 1.523518          2.265907
  64         V                 1.827998          2.476447
  65         V                 1.828182          2.476335
  66         V                 1.897642          2.809130
  67         V                 1.898752          2.817046
  68         V                 1.908353          2.651859
  69         V                 1.921057          2.658298
  70         V                 2.039542          2.237016
  71         V                 2.039544          2.237006
  72         V                 2.049271          2.973583
  73         V                 2.152041          2.957669
  74         V                 2.232691          2.806995
  75         V                 2.232747          2.808634
  76         V                 2.263258          3.194937
  77         V                 2.269055          3.528484
  78         V                 2.269225          3.110734
  79         V                 2.281103          2.652226
  80         V                 2.281103          2.652231
  81         V                 2.323657          3.406536
  82         V                 2.323709          3.488941
  83         V                 2.423102          2.709463
  84         V                 2.423118          2.709498
  85         V                 2.520220          2.789312
  86         V                 2.520221          2.789337
  87         V                 2.645164          4.021301
  88         V                 2.740542          5.047458
  89         V                 2.745401          5.087257
  90         V                 2.746082          6.584742
  91         V                 2.768290          6.557963
  92         V                 2.878139          4.341861
  93         V                 2.974061          4.309945
  94         V                 2.982095          4.511103
  95         V                 3.062054          3.624054
  96         V                 3.062130          3.624673
  97         V                 3.271929          5.182655
  98         V                 3.408010          5.928209
  99         V                 3.535695          5.387722
 100         V                 3.540875          5.333012
 101         V                 4.420405          7.518120
 102         V                 4.426865          7.502536
 103         V                 4.721788          6.681752
 104         V                 5.284686          8.248514
 105         V                 5.284718          8.248523
 106         V                 5.390549          8.305461
 107         V                 5.390770          8.305383
 108         V                 5.614720          7.994366
 109         V                 5.700593          8.576831
 110         V                 5.725087          8.584849
 111         V                 5.825788          7.765239
 112         V                 6.413591          8.180035
 113         V                 6.467928          7.758240
 114         V                 6.474361          7.740853
 115         V                 6.529000          9.084320
 116         V                 6.542982          9.032326
 117         V                 6.567876          7.470021
 118         V                 6.567879          7.537634
 119         V                 6.574626          7.812945
 120         V                 6.582905          7.638872
 121         V                 6.583327          8.470554
 122         V                 6.806626          8.464190
 123         V                 6.806626          8.464185
 124         V                 6.858057          8.477402
 125         V                 6.858058          8.477451
 126         V                 7.007753         11.400705
 127         V                 7.048127          8.652978
 128         V                 7.048292          8.664265
 129         V                 7.160587          9.777272
 130         V                 7.160622          9.776517
 131         V                 7.346280         14.893115
 132         V                 7.347336         14.888205
 133         V                 7.384450         11.206247
 134         V                 7.394322         11.502834
 135         V                 7.434482         10.839640
 136         V                 7.435832         10.545050
 137         V                 7.591254         10.731236
 138         V                 7.901732         12.202045
 139         V                 7.904218         12.129792
 140         V                 8.266028         11.732991
 141         V                 8.924393         12.367107
 142         V                14.616242         23.221411
 143         V                14.616289         23.221398
 144         V                14.667494         23.264934
 145         V                14.667767         23.264636
 146         V                14.777982         23.208377
 147         V                14.784352         23.203174
 148         V                14.894205         23.249779
 149         V                15.032878         23.156293
 150         V                15.035984         23.145162
 151         V                15.543545         19.233731
 152         V                15.744869         18.991137
 153         V                15.766145         18.994110
 154         V                15.875140         19.901920
 155         V                16.591861         28.216856
 156         V                16.592469         28.234885
 157         V                16.799205         28.225974
 158         V                16.804735         28.208548
 159         V                16.884561         21.126203
 160         V                17.058861         23.846572
 161         V                17.720238         22.306420
 162         V                18.771449         25.008407
 163         V                18.771449         25.008405
 164         V                18.777473         25.024074
 165         V                18.777480         25.023963
 166         V                18.836239         25.085707
 167         V                18.836276         25.085451
 168         V                18.905348         25.162661
 169         V                18.913502         25.162056
 170         V                19.304728         25.391623
 171         V                32.696453         35.190485
 172         V                32.721164         35.190628
 173         V                32.838501         36.009899
 174         V                34.590423         54.348198
 175         V                34.590683         54.349058
 176         V                34.736567         54.422825
 177         V                34.754867         54.411499
 178         V                35.037390         53.640669
 179         V                38.391208         32.008210
 180         V                38.867212         36.229717
 181         V                43.732564         58.203456
 182         V                43.732602         58.203428
 183         V                43.873816         58.331617
 184         V                43.879478         58.331372
 185         V                43.988655         58.428299
 186         V                45.632452         59.058556
 187         V                45.643243         59.057466
 188         V                46.616923         59.763280
 189         V                62.464865         61.202343
 190         V                62.489606         61.201851
 191         V                62.654612         61.427283
 192         V                74.586125         61.221518
 193         V                81.716143         57.931425
 194         V                85.433234        127.680687
 195         V                85.433355        127.681372
 196         V                85.545027        127.797812
 197         V                85.561469        127.790976
 198         V                85.812397        127.436804
 199         V               116.531743        107.448648
 200         V               116.552327        107.449841
 201         V               116.701507        107.684526
 202         V               118.997940        139.023120
 203         V               119.007179        139.022398
 204         V               119.803452        139.687320
 205         V               136.814740        118.457369
 206         V               151.251784         92.910380
 207         V               218.852193        200.870913
 208         V               218.867377        200.872091
 209         V               219.006612        201.045399
 210         V               257.565034        231.760307
 211         V               266.405479        190.859705
 212         V               286.285507        314.527691
 213         V               286.291196        314.527401
 214         V               287.026201        315.204614
 215         V               312.851639        394.221049
 216         V               312.851698        394.221012
 217         V               312.928380        394.302536
 218         V               312.935241        394.301557
 219         V               313.081473        394.429836
 220         V               423.909357        397.335656
 221         V               423.919287        397.336174
 222         V               424.062469        397.501544
 223         V               492.951555        402.767773
 224         V               555.059421        520.283500
 225         V               864.220738        830.672804
 226         V               864.226362        830.672943
 227         V               864.365917        830.823997
 228         V               958.702063        854.020271
 229         V              1529.586696       1488.558001
 230         V              1895.512777       1857.544742
 231         V              1895.515509       1857.544767
 232         V              1895.645758       1857.679180
 233         V              1961.253145       1845.561351
 234         V              4231.539720       4108.955106
 235         V              4602.177377       4561.964677
 236         V              4602.178504       4561.964681
 237         V              4602.295710       4562.084178
 238         V              5659.746451       5616.034498
 239         V              9657.342402       9531.003330
 240         V             13179.527686      13138.361004
 241         V             13179.528052      13138.361004
 242         V             13179.625103      13138.458801
 243         V             23474.695345      23346.505178
 244         V             31586.326676      31541.792229
 245         V             61786.029874      61656.997750
 246         V            184804.509463     184675.121430
 Total kinetic energy from orbitals= 7.340530131799D+01
                          Isotropic Fermi Contact Couplings
        Atom                 a.u.       MegaHertz       Gauss      10(-4) cm-1
     1  Cr(53)             0.00006      -0.00386      -0.00138      -0.00129
     2  O(17)              0.00004      -0.00577      -0.00206      -0.00192
 --------------------------------------------------------
       Center         ----  Spin Dipole Couplings  ----
                      3XX-RR        3YY-RR        3ZZ-RR
 --------------------------------------------------------
     1   Atom        2.118457      0.045619     -2.164076
     2   Atom        0.132986     -0.238353      0.105366
 --------------------------------------------------------
                        XY            XZ            YZ
 --------------------------------------------------------
     1   Atom        0.000000      0.000000      0.000000
     2   Atom        0.000000      0.000000      0.000000
 --------------------------------------------------------


 ---------------------------------------------------------------------------------
              Anisotropic Spin Dipole Couplings in Principal Axis System
 ---------------------------------------------------------------------------------

       Atom             a.u.   MegaHertz   Gauss  10(-4) cm-1        Axes

              Baa    -2.1641    65.396    23.335    21.814  0.0000  0.0000  1.0000
     1 Cr(53) Bbb     0.0456    -1.379    -0.492    -0.460 -0.0000  1.0000  0.0000
              Bcc     2.1185   -64.018   -22.843   -21.354  1.0000  0.0000  0.0000
 
              Baa    -0.2384    17.247     6.154     5.753 -0.0000  1.0000  0.0000
     2 O(17)  Bbb     0.1054    -7.624    -2.721    -2.543  0.0000  0.0000  1.0000
              Bcc     0.1330    -9.623    -3.434    -3.210  1.0000  0.0000  0.0000
 

 ---------------------------------------------------------------------------------

 No NMR shielding tensors so no spin-rotation constants.
 Leave Link  601 at Thu Apr  5 19:39:04 2018, MaxMem= 10737418240 cpu:              89.3 elap:               4.6
 (Enter /home1/apps/gaussian/16rA.03/g16/l9999.exe)

 Test job not archived.
 1\1\GINC-C445-014\SP\ROCCSD(T)-Full\Gen\Cr1O1(5)\AANNABE\05-Apr-2018\0
 \\#P ROCCSD(T)=(maxcyc=150, Full, SaveAmplitudes, ReadAmplitudes)/Gen 
 5d 7f SCF=(maxcycles=300, VShift=400) Integral(NoXCTest) MaxDisk=500GB
  Pop=Full Pseudo=Read Guess=Read IOp(5/15=2)\\CrO\\0,5\Cr,0,0.,0.,0.\O
 ,0,0.,0.,1.5\\Version=ES64L-G16RevA.03\HF=-101.4966517\MP2=-102.374149
 \MP3=-102.312693\PUHF=-101.4966517\PMP2-0=-102.374149\MP4SDQ=-102.3776
 267\CCSD=-102.3485133\CCSD(T)=-102.3961665\RMSD=8.448e-09\PG=C*V [C*(O
 1Cr1)]\\@


 A COMPLEXITY IS MERELY A DISARRANGEMENT OF SIMPLICITIES.

                                    -- G. O. ABELL IN "EXPLORATION OF THE UNIVERSE"
 Job cpu time:       0 days  7 hours 25 minutes 17.3 seconds.
 Elapsed time:       0 days  0 hours 22 minutes 26.3 seconds.
 File lengths (MBytes):  RWF=   3822 Int=      0 D2E=      0 Chk=     23 Scr=      1
 Normal termination of Gaussian 16 at Thu Apr  5 19:39:06 2018.
