 Entering Gaussian System, Link 0=g16
 Initial command:
 /home1/apps/gaussian/16rA.03/g16/l1.exe "/tmp/Gau-168231.inp" -scrdir="/tmp/"
 Entering Link 1 = /home1/apps/gaussian/16rA.03/g16/l1.exe PID=    168232.
  
 Copyright (c) 1988,1990,1992,1993,1995,1998,2003,2009,2016,
            Gaussian, Inc.  All Rights Reserved.
  
 This is part of the Gaussian(R) 16 program.  It is based on
 the Gaussian(R) 09 system (copyright 2009, Gaussian, Inc.),
 the Gaussian(R) 03 system (copyright 2003, Gaussian, Inc.),
 the Gaussian(R) 98 system (copyright 1998, Gaussian, Inc.),
 the Gaussian(R) 94 system (copyright 1995, Gaussian, Inc.),
 the Gaussian 92(TM) system (copyright 1992, Gaussian, Inc.),
 the Gaussian 90(TM) system (copyright 1990, Gaussian, Inc.),
 the Gaussian 88(TM) system (copyright 1988, Gaussian, Inc.),
 the Gaussian 86(TM) system (copyright 1986, Carnegie Mellon
 University), and the Gaussian 82(TM) system (copyright 1983,
 Carnegie Mellon University). Gaussian is a federally registered
 trademark of Gaussian, Inc.
  
 This software contains proprietary and confidential information,
 including trade secrets, belonging to Gaussian, Inc.
  
 This software is provided under written license and may be
 used, copied, transmitted, or stored only in accord with that
 written license.
  
 The following legend is applicable only to US Government
 contracts under FAR:
  
                    RESTRICTED RIGHTS LEGEND
  
 Use, reproduction and disclosure by the US Government is
 subject to restrictions as set forth in subparagraphs (a)
 and (c) of the Commercial Computer Software - Restricted
 Rights clause in FAR 52.227-19.
  
 Gaussian, Inc.
 340 Quinnipiac St., Bldg. 40, Wallingford CT 06492
  
  
 ---------------------------------------------------------------
 Warning -- This program may not be used in any manner that
 competes with the business of Gaussian, Inc. or will provide
 assistance to any competitor of Gaussian, Inc.  The licensee
 of this program is prohibited from giving any competitor of
 Gaussian, Inc. access to this program.  By using this program,
 the user acknowledges that Gaussian, Inc. is engaged in the
 business of creating and licensing software in the field of
 computational chemistry and represents and warrants to the
 licensee that it is not a competitor of Gaussian, Inc. and that
 it will not use this program in any manner prohibited above.
 ---------------------------------------------------------------
  

 Cite this work as:
 Gaussian 16, Revision A.03,
 M. J. Frisch, G. W. Trucks, H. B. Schlegel, G. E. Scuseria, 
 M. A. Robb, J. R. Cheeseman, G. Scalmani, V. Barone, 
 G. A. Petersson, H. Nakatsuji, X. Li, M. Caricato, A. V. Marenich, 
 J. Bloino, B. G. Janesko, R. Gomperts, B. Mennucci, H. P. Hratchian, 
 J. V. Ortiz, A. F. Izmaylov, J. L. Sonnenberg, D. Williams-Young, 
 F. Ding, F. Lipparini, F. Egidi, J. Goings, B. Peng, A. Petrone, 
 T. Henderson, D. Ranasinghe, V. G. Zakrzewski, J. Gao, N. Rega, 
 G. Zheng, W. Liang, M. Hada, M. Ehara, K. Toyota, R. Fukuda, 
 J. Hasegawa, M. Ishida, T. Nakajima, Y. Honda, O. Kitao, H. Nakai, 
 T. Vreven, K. Throssell, J. A. Montgomery, Jr., J. E. Peralta, 
 F. Ogliaro, M. J. Bearpark, J. J. Heyd, E. N. Brothers, K. N. Kudin, 
 V. N. Staroverov, T. A. Keith, R. Kobayashi, J. Normand, 
 K. Raghavachari, A. P. Rendell, J. C. Burant, S. S. Iyengar, 
 J. Tomasi, M. Cossi, J. M. Millam, M. Klene, C. Adamo, R. Cammi, 
 J. W. Ochterski, R. L. Martin, K. Morokuma, O. Farkas, 
 J. B. Foresman, and D. J. Fox, Gaussian, Inc., Wallingford CT, 2016.
 
 ******************************************
 Gaussian 16:  ES64L-G16RevA.03 25-Dec-2016
                28-Feb-2018 
 ******************************************
 %mem=80GB
 %cpu=0-31
 SetSPE:  set environment variable "MP_BIND" = "yes"
 SetSPE:  set environment variable "MP_BLIST" = "0,1,2,3,4,5,6,7,8,9,10,11,12,13,14,15,16,17,18,19,20,21,22,23,24,25,26,27,28,29,30,31"
 Will use up to   32 processors via shared memory.
 %chk=qz.chk
 %rwf=/scratch/04843/gwang18/feo/
 ----------------------------------------------------------------------
 #P ROCCSD(T)=(MaxCyc=150, Window=(7,0))/Gen SCF=(maxcycle=400) Integra
 l(DKHSO, NoXCTest) Pop=Regular MaxDisk=500GB
 ----------------------------------------------------------------------
 1/38=1,172=1/1;
 2/12=2,17=6,18=5,40=1/2;
 3/5=7,11=2,25=1,30=1,47=8,91=5,116=101/1,2,3;
 4//1;
 5/5=2,7=400,38=5/2;
 8/5=-1,6=4,9=120000,10=91,37=7/1,4;
 9/5=7,6=150,14=2/13;
 6//1;
 99/5=1,9=1/99;
 Leave Link    1 at Wed Feb 28 21:59:31 2018, MaxMem= 10737418240 cpu:               6.6 elap:               0.2
 (Enter /home1/apps/gaussian/16rA.03/g16/l101.exe)
 ---
 FeO
 ---
 Symbolic Z-matrix:
 Charge =  0 Multiplicity = 5
 Fe                    0.        0.        0. 
 O                     0.        0.        1.3 
 
 ITRead=  0  0
 MicOpt= -1 -1
 NAtoms=      2 NQM=        2 NQMF=       0 NMMI=      0 NMMIF=      0
                NMic=       0 NMicF=      0.
                    Isotopes and Nuclear Properties:
 (Nuclear quadrupole moments (NQMom) in fm**2, nuclear magnetic moments (NMagM)
  in nuclear magnetons)

  Atom         1           2
 IAtWgt=          56          16
 AtmWgt=  55.9349393  15.9949146
 NucSpn=           0           0
 AtZEff=  -0.0000000  -0.0000000
 NQMom=    0.0000000   0.0000000
 NMagM=    0.0000000   0.0000000
 AtZNuc=  26.0000000   8.0000000
 Leave Link  101 at Wed Feb 28 21:59:31 2018, MaxMem= 10737418240 cpu:               2.9 elap:               0.1
 (Enter /home1/apps/gaussian/16rA.03/g16/l202.exe)
                          Input orientation:                          
 ---------------------------------------------------------------------
 Center     Atomic      Atomic             Coordinates (Angstroms)
 Number     Number       Type             X           Y           Z
 ---------------------------------------------------------------------
      1         26           0        0.000000    0.000000    0.000000
      2          8           0        0.000000    0.000000    1.300000
 ---------------------------------------------------------------------
 Stoichiometry    FeO(5)
 Framework group  C*V[C*(OFe)]
 Deg. of freedom     1
 Full point group                 C*V     NOp   4
 Largest Abelian subgroup         C2V     NOp   4
 Largest concise Abelian subgroup C1      NOp   1
                         Standard orientation:                         
 ---------------------------------------------------------------------
 Center     Atomic      Atomic             Coordinates (Angstroms)
 Number     Number       Type             X           Y           Z
 ---------------------------------------------------------------------
      1         26           0        0.000000    0.000000    0.305882
      2          8           0        0.000000    0.000000   -0.994118
 ---------------------------------------------------------------------
 Rotational constants (GHZ):           0.0000000          24.0422205          24.0422205
 Leave Link  202 at Wed Feb 28 21:59:31 2018, MaxMem= 10737418240 cpu:               0.7 elap:               0.1
 (Enter /home1/apps/gaussian/16rA.03/g16/l301.exe)
 General basis read from cards:  (5D, 7F)
 Centers:       1
 S 1 1.00
     Exponent=  1.3277140000D+07 Coefficients=  1.0000000000D+00
 S 1 1.00
     Exponent=  1.9878880000D+06 Coefficients=  1.0000000000D+00
 S 1 1.00
     Exponent=  4.5238710000D+05 Coefficients=  1.0000000000D+00
 S 1 1.00
     Exponent=  1.2814370000D+05 Coefficients=  1.0000000000D+00
 S 1 1.00
     Exponent=  4.1809170000D+04 Coefficients=  1.0000000000D+00
 S 1 1.00
     Exponent=  1.5095330000D+04 Coefficients=  1.0000000000D+00
 S 1 1.00
     Exponent=  5.8884380000D+03 Coefficients=  1.0000000000D+00
 S 1 1.00
     Exponent=  2.4428760000D+03 Coefficients=  1.0000000000D+00
 S 1 1.00
     Exponent=  1.0658570000D+03 Coefficients=  1.0000000000D+00
 S 1 1.00
     Exponent=  4.8490960000D+02 Coefficients=  1.0000000000D+00
 S 1 1.00
     Exponent=  2.2845850000D+02 Coefficients=  1.0000000000D+00
 S 1 1.00
     Exponent=  1.1074530000D+02 Coefficients=  1.0000000000D+00
 S 1 1.00
     Exponent=  5.4431160000D+01 Coefficients=  1.0000000000D+00
 S 1 1.00
     Exponent=  2.5010960000D+01 Coefficients=  1.0000000000D+00
 S 1 1.00
     Exponent=  1.2592620000D+01 Coefficients=  1.0000000000D+00
 S 1 1.00
     Exponent=  6.3232020000D+00 Coefficients=  1.0000000000D+00
 S 1 1.00
     Exponent=  2.8833840000D+00 Coefficients=  1.0000000000D+00
 S 1 1.00
     Exponent=  1.3828680000D+00 Coefficients=  1.0000000000D+00
 S 1 1.00
     Exponent=  6.3220100000D-01 Coefficients=  1.0000000000D+00
 S 1 1.00
     Exponent=  1.4923800000D-01 Coefficients=  1.0000000000D+00
 S 1 1.00
     Exponent=  6.8494000000D-02 Coefficients=  1.0000000000D+00
 S 1 1.00
     Exponent=  3.0381000000D-02 Coefficients=  1.0000000000D+00
 S 1 1.00
     Exponent=  5.7900000000D+00 Coefficients=  1.0000000000D+00
 S 1 1.00
     Exponent=  1.7335000000D+00 Coefficients=  1.0000000000D+00
 S 1 1.00
     Exponent=  1.3480000000D-02 Coefficients=  1.0000000000D+00
 P 1 1.00
     Exponent=  3.8282050000D+04 Coefficients=  1.0000000000D+00
 P 1 1.00
     Exponent=  9.0615560000D+03 Coefficients=  1.0000000000D+00
 P 1 1.00
     Exponent=  2.9444500000D+03 Coefficients=  1.0000000000D+00
 P 1 1.00
     Exponent=  1.1281580000D+03 Coefficients=  1.0000000000D+00
 P 1 1.00
     Exponent=  4.8033800000D+02 Coefficients=  1.0000000000D+00
 P 1 1.00
     Exponent=  2.2013680000D+02 Coefficients=  1.0000000000D+00
 P 1 1.00
     Exponent=  1.0654820000D+02 Coefficients=  1.0000000000D+00
 P 1 1.00
     Exponent=  5.3742620000D+01 Coefficients=  1.0000000000D+00
 P 1 1.00
     Exponent=  2.7863180000D+01 Coefficients=  1.0000000000D+00
 P 1 1.00
     Exponent=  1.4743820000D+01 Coefficients=  1.0000000000D+00
 P 1 1.00
     Exponent=  7.8933510000D+00 Coefficients=  1.0000000000D+00
 P 1 1.00
     Exponent=  4.1794970000D+00 Coefficients=  1.0000000000D+00
 P 1 1.00
     Exponent=  2.1656690000D+00 Coefficients=  1.0000000000D+00
 P 1 1.00
     Exponent=  1.0972400000D+00 Coefficients=  1.0000000000D+00
 P 1 1.00
     Exponent=  5.3608500000D-01 Coefficients=  1.0000000000D+00
 P 1 1.00
     Exponent=  2.0245300000D-01 Coefficients=  1.0000000000D+00
 P 1 1.00
     Exponent=  8.1695000000D-02 Coefficients=  1.0000000000D+00
 P 1 1.00
     Exponent=  3.2614000000D-02 Coefficients=  1.0000000000D+00
 P 1 1.00
     Exponent=  8.3687000000D+00 Coefficients=  1.0000000000D+00
 P 1 1.00
     Exponent=  2.2601000000D+00 Coefficients=  1.0000000000D+00
 P 1 1.00
     Exponent=  1.3020000000D-02 Coefficients=  1.0000000000D+00
 D 1 1.00
     Exponent=  3.5099500000D+02 Coefficients=  1.0000000000D+00
 D 1 1.00
     Exponent=  1.0366700000D+02 Coefficients=  1.0000000000D+00
 D 1 1.00
     Exponent=  3.9704300000D+01 Coefficients=  1.0000000000D+00
 D 1 1.00
     Exponent=  1.7031000000D+01 Coefficients=  1.0000000000D+00
 D 1 1.00
     Exponent=  7.7890200000D+00 Coefficients=  1.0000000000D+00
 D 1 1.00
     Exponent=  3.6995500000D+00 Coefficients=  1.0000000000D+00
 D 1 1.00
     Exponent=  1.7553200000D+00 Coefficients=  1.0000000000D+00
 D 1 1.00
     Exponent=  8.1284500000D-01 Coefficients=  1.0000000000D+00
 D 1 1.00
     Exponent=  3.6144100000D-01 Coefficients=  1.0000000000D+00
 D 1 1.00
     Exponent=  1.5134600000D-01 Coefficients=  1.0000000000D+00
 D 1 1.00
     Exponent=  5.7513000000D-02 Coefficients=  1.0000000000D+00
 D 1 1.00
     Exponent=  5.4967000000D+00 Coefficients=  1.0000000000D+00
 D 1 1.00
     Exponent=  2.8925000000D+00 Coefficients=  1.0000000000D+00
 D 1 1.00
     Exponent=  2.1860000000D-02 Coefficients=  1.0000000000D+00
 F 1 1.00
     Exponent=  7.7828000000D+00 Coefficients=  1.0000000000D+00
 F 1 1.00
     Exponent=  3.2584000000D+00 Coefficients=  1.0000000000D+00
 F 1 1.00
     Exponent=  1.3641000000D+00 Coefficients=  1.0000000000D+00
 F 1 1.00
     Exponent=  4.5640000000D-01 Coefficients=  1.0000000000D+00
 F 1 1.00
     Exponent=  1.5270000000D-01 Coefficients=  1.0000000000D+00
 G 1 1.00
     Exponent=  6.3816000000D+00 Coefficients=  1.0000000000D+00
 G 1 1.00
     Exponent=  2.7717000000D+00 Coefficients=  1.0000000000D+00
 G 1 1.00
     Exponent=  1.0505000000D+00 Coefficients=  1.0000000000D+00
 G 1 1.00
     Exponent=  3.9815000000D-01 Coefficients=  1.0000000000D+00
 H 1 1.00
     Exponent=  5.8964000000D+00 Coefficients=  1.0000000000D+00
 H 1 1.00
     Exponent=  2.3448000000D+00 Coefficients=  1.0000000000D+00
 H 1 1.00
     Exponent=  9.3245000000D-01 Coefficients=  1.0000000000D+00
 ****
 Centers:       2
 S 1 1.00
     Exponent=  6.1420000000D+04 Coefficients=  1.0000000000D+00
 S 1 1.00
     Exponent=  9.1990000000D+03 Coefficients=  1.0000000000D+00
 S 1 1.00
     Exponent=  2.0910000000D+03 Coefficients=  1.0000000000D+00
 S 1 1.00
     Exponent=  5.9090000000D+02 Coefficients=  1.0000000000D+00
 S 1 1.00
     Exponent=  1.9230000000D+02 Coefficients=  1.0000000000D+00
 S 1 1.00
     Exponent=  6.9320000000D+01 Coefficients=  1.0000000000D+00
 S 1 1.00
     Exponent=  2.6970000000D+01 Coefficients=  1.0000000000D+00
 S 1 1.00
     Exponent=  1.1100000000D+01 Coefficients=  1.0000000000D+00
 S 1 1.00
     Exponent=  4.6820000000D+00 Coefficients=  1.0000000000D+00
 S 1 1.00
     Exponent=  1.4280000000D+00 Coefficients=  1.0000000000D+00
 S 1 1.00
     Exponent=  5.5470000000D-01 Coefficients=  1.0000000000D+00
 S 1 1.00
     Exponent=  2.0670000000D-01 Coefficients=  1.0000000000D+00
 S 1 1.00
     Exponent=  1.2974000000D+01 Coefficients=  1.0000000000D+00
 S 1 1.00
     Exponent=  3.4900000000D+01 Coefficients=  1.0000000000D+00
 S 1 1.00
     Exponent=  9.3881000000D+01 Coefficients=  1.0000000000D+00
 S 1 1.00
     Exponent=  6.9590000000D-02 Coefficients=  1.0000000000D+00
 P 1 1.00
     Exponent=  6.3420000000D+01 Coefficients=  1.0000000000D+00
 P 1 1.00
     Exponent=  1.4660000000D+01 Coefficients=  1.0000000000D+00
 P 1 1.00
     Exponent=  4.4590000000D+00 Coefficients=  1.0000000000D+00
 P 1 1.00
     Exponent=  1.5310000000D+00 Coefficients=  1.0000000000D+00
 P 1 1.00
     Exponent=  5.3020000000D-01 Coefficients=  1.0000000000D+00
 P 1 1.00
     Exponent=  1.7500000000D-01 Coefficients=  1.0000000000D+00
 P 1 1.00
     Exponent=  1.4475000000D+01 Coefficients=  1.0000000000D+00
 P 1 1.00
     Exponent=  4.2730000000D+01 Coefficients=  1.0000000000D+00
 P 1 1.00
     Exponent=  1.2614000000D+02 Coefficients=  1.0000000000D+00
 P 1 1.00
     Exponent=  5.3480000000D-02 Coefficients=  1.0000000000D+00
 D 1 1.00
     Exponent=  3.7750000000D+00 Coefficients=  1.0000000000D+00
 D 1 1.00
     Exponent=  1.3000000000D+00 Coefficients=  1.0000000000D+00
 D 1 1.00
     Exponent=  4.4400000000D-01 Coefficients=  1.0000000000D+00
 D 1 1.00
     Exponent=  1.4927000000D+01 Coefficients=  1.0000000000D+00
 D 1 1.00
     Exponent=  5.7544000000D+01 Coefficients=  1.0000000000D+00
 D 1 1.00
     Exponent=  1.5400000000D-01 Coefficients=  1.0000000000D+00
 F 1 1.00
     Exponent=  2.6660000000D+00 Coefficients=  1.0000000000D+00
 F 1 1.00
     Exponent=  8.5900000000D-01 Coefficients=  1.0000000000D+00
 F 1 1.00
     Exponent=  2.6483000000D+01 Coefficients=  1.0000000000D+00
 F 1 1.00
     Exponent=  3.2400000000D-01 Coefficients=  1.0000000000D+00
 G 1 1.00
     Exponent=  1.8460000000D+00 Coefficients=  1.0000000000D+00
 G 1 1.00
     Exponent=  7.1400000000D-01 Coefficients=  1.0000000000D+00
 ****
 Ernie: Thresh=  0.10000D-02 Tol=  0.10000D-05 Strict=F.
 There are   213 symmetry adapted cartesian basis functions of A1  symmetry.
 There are    56 symmetry adapted cartesian basis functions of A2  symmetry.
 There are   114 symmetry adapted cartesian basis functions of B1  symmetry.
 There are   114 symmetry adapted cartesian basis functions of B2  symmetry.
 There are   157 symmetry adapted basis functions of A1  symmetry.
 There are    47 symmetry adapted basis functions of A2  symmetry.
 There are    90 symmetry adapted basis functions of B1  symmetry.
 There are    90 symmetry adapted basis functions of B2  symmetry.
   384 basis functions,   497 primitive gaussians,   497 cartesian basis functions
    19 alpha electrons       15 beta electrons
       nuclear repulsion energy        84.6683537472 Hartrees.
 IExCor=    0 DFT=F Ex=HF Corr=None ExCW=0 ScaHFX=  1.000000
 ScaDFX=  1.000000  1.000000  1.000000  1.000000 ScalE2=  1.000000  1.000000
 IRadAn=      5 IRanWt=     -1 IRanGd=            0 ICorTp=0 IEmpDi=  4
 NAtoms=    2 NActive=    2 NUniq=    2 SFac= 1.00D+00 NAtFMM=   60 NAOKFM=F Big=F
 Integral buffers will be    131072 words long.
 Raffenetti 2 integral format.
 Two-electron integral symmetry is turned on.
 FoFCou: FMM=F IPFlag=           8 FMFlag=           0 FMFlg1=           0
         NFxFlg=           0 DoJE=F BraDBF=T KetDBF=T FulRan=T
         wScrn=  0.000000 ICntrl=       600 IOpCl=  3 I1Cent=           6 NGrid=           0
         NMat0=    1 NMatS0=      2 NMatT0=    0 NMatD0=    1 NMtDS0=    0 NMtDT0=    0
 Symmetry not used in FoFCou.
 Finite nuclear repulsion energy        84.6683537472.
 Leave Link  301 at Wed Feb 28 21:59:32 2018, MaxMem= 10737418240 cpu:              15.9 elap:               0.6
 (Enter /home1/apps/gaussian/16rA.03/g16/l302.exe)
 Using DK4 one-electron Hamiltonian with SO, DoBoet=T.
 NPDir=0 NMtPBC=     1 NCelOv=     1 NCel=       1 NClECP=     1 NCelD=      1
         NCelK=      1 NCelE2=     1 NClLst=     1 CellRange=     0.0.
 One-electron integrals computed using PRISM.
 One-electron integral symmetry used in STVInt
 FoFCou: FMM=F IPFlag=           8 FMFlag=      100000 FMFlg1=           0
         NFxFlg=           0 DoJE=T BraDBF=F KetDBF=T FulRan=T
         wScrn=  0.000000 ICntrl=       500 IOpCl=  0 I1Cent=           4 NGrid=           0
         NMat0=    1 NMatS0=      1 NMatT0=    0 NMatD0=    1 NMtDS0=    0 NMtDT0=    0
 Symmetry not used in FoFCou.
 UnConB:  Uncontracting AO basis from    384 functions to    384 functions (excluding duplicates).
 RelInt: Using uncontracted basis, NUnBas=   384 NBsUse=   384 0.100E-13 EigKep=  1.70D-07 EigRej= -1.00D+00
 NBasis=   384 RedAO= T EigKep=  1.40D-06  NBF=   157    47    90    90
 NBsUse=   380 1.00D-06 EigRej=  4.20D-07 NBFU=   155    47    89    89
 Leave Link  302 at Wed Feb 28 21:59:49 2018, MaxMem= 10737418240 cpu:             490.2 elap:              17.4
 (Enter /home1/apps/gaussian/16rA.03/g16/l303.exe)
 DipDrv:  MaxL=1.
 Leave Link  303 at Wed Feb 28 21:59:49 2018, MaxMem= 10737418240 cpu:               3.8 elap:               0.2
 (Enter /home1/apps/gaussian/16rA.03/g16/l401.exe)
 ExpMin= 1.30D-02 ExpMax= 1.33D+07 ExpMxC= 1.33D+07 IAcc=4 IRadAn=    399590 AccDes= 0.00D+00
 Harris functional with IExCor=  205 and IRadAn=  399590 diagonalized for initial guess.
 HarFok:  IExCor=  205 AccDes= 0.00D+00 IRadAn=    399590 IDoV= 1 UseB2=F ITyADJ=14
 ICtDFT=  3500011 ScaDFX=  1.000000  1.000000  1.000000  1.000000
 FoFCou: FMM=F IPFlag=           8 FMFlag=      100000 FMFlg1=           0
         NFxFlg=           0 DoJE=T BraDBF=F KetDBF=T FulRan=T
         wScrn=  0.000000 ICntrl=       500 IOpCl=  0 I1Cent=   200000004 NGrid=           0
         NMat0=    1 NMatS0=      1 NMatT0=    0 NMatD0=    1 NMtDS0=    0 NMtDT0=    0
 Petite list used in FoFCou.
 Harris En= -1345.51198859525    
 JPrj=0 DoOrth=F DoCkMO=F.
 Initial guess orbital symmetries:
       Occupied  (SG) (SG) (SG) (PI) (PI) (SG) (SG) (SG) (PI) (PI)
                 (SG) (PI) (PI) (SG) (DLTA) (DLTA) (SG) (PI) (PI)
       Virtual   (SG) (PI) (PI) (SG) (SG) (PI) (PI) (DLTA) (DLTA)
                 (PI) (PI) (SG) (SG) (SG) (PI) (PI) (SG) (PI) (PI)
                 (DLTA) (DLTA) (SG) (PI) (PI) (SG) (SG) (DLTA)
                 (DLTA) (SG) (PI) (PI) (PHI) (PHI) (DLTA) (DLTA)
                 (SG) (PI) (PI) (PI) (PI) (SG) (DLTA) (DLTA) (PI)
                 (PI) (SG) (SG) (PI) (PI) (SG) (DLTA) (DLTA) (PHI)
                 (PHI) (PI) (PI) (SG) (SG) (DLTA) (DLTA) (PI) (PI)
                 (DLTA) (DLTA) (SG) (PHI) (PHI) (SG) (PI) (PI)
                 (?A) (?A) (DLTA) (DLTA) (PI) (PI) (PHI) (PHI)
                 (SG) (SG) (PI) (PI) (PI) (PI) (DLTA) (DLTA) (SG)
                 (SG) (PI) (PI) (DLTA) (DLTA) (?A) (?A) (PI) (PI)
                 (SG) (SG) (PHI) (PHI) (DLTA) (DLTA) (SG) (PI)
                 (PI) (PHI) (PHI) (DLTA) (DLTA) (SG) (PI) (PI)
                 (PHI) (PHI) (PI) (PI) (SG) (DLTA) (DLTA) (DLTA)
                 (DLTA) (SG) (?A) (?A) (?B) (?B) (PI) (PI) (PHI)
                 (PHI) (?A) (?A) (SG) (PI) (PI) (DLTA) (DLTA) (SG)
                 (PHI) (PHI) (PI) (PI) (SG) (DLTA) (DLTA) (PI)
                 (PI) (SG) (SG) (DLTA) (DLTA) (PI) (PI) (SG) (PI)
                 (PI) (SG) (?A) (?A) (PHI) (PHI) (DLTA) (DLTA)
                 (PI) (PI) (SG) (PHI) (PHI) (PHI) (PHI) (DLTA)
                 (DLTA) (SG) (DLTA) (DLTA) (PI) (PI) (PI) (PI)
                 (DLTA) (DLTA) (SG) (PI) (PI) (SG) (?A) (?A) (PHI)
                 (PHI) (SG) (PI) (PI) (DLTA) (DLTA) (?B) (?B) (?A)
                 (?A) (SG) (PHI) (PHI) (PI) (PI) (DLTA) (DLTA)
                 (DLTA) (DLTA) (SG) (PI) (PI) (PI) (PI) (SG) (SG)
                 (SG) (PI) (PI) (SG) (DLTA) (DLTA) (PI) (PI) (PI)
                 (PI) (SG) (SG) (PHI) (PHI) (DLTA) (DLTA) (PI)
                 (PI) (SG) (?A) (?A) (PHI) (PHI) (DLTA) (DLTA)
                 (PI) (PI) (SG) (?B) (?B) (?A) (?A) (PHI) (PHI)
                 (SG) (DLTA) (DLTA) (PI) (PI) (SG) (SG) (DLTA)
                 (DLTA) (DLTA) (DLTA) (PI) (PI) (SG) (PI) (PI)
                 (SG) (PI) (PI) (SG) (PI) (PI) (SG) (SG) (DLTA)
                 (DLTA) (PI) (PI) (SG) (SG) (PI) (PI) (SG) (PHI)
                 (PHI) (DLTA) (DLTA) (PI) (PI) (SG) (PI) (PI) (SG)
                 (SG) (DLTA) (DLTA) (PI) (PI) (SG) (PI) (PI) (SG)
                 (DLTA) (DLTA) (PI) (PI) (SG) (SG) (SG) (PI) (PI)
                 (SG) (PI) (PI) (DLTA) (DLTA) (PI) (PI) (SG) (SG)
                 (SG) (SG) (PI) (PI) (SG) (PI) (PI) (SG) (SG) (DLTA)
                 (DLTA) (PI) (PI) (SG) (SG) (PI) (PI) (SG) (SG)
                 (SG) (PI) (PI) (SG) (SG) (SG) (PI) (PI) (SG) (SG)
                 (SG) (PI) (PI) (SG) (SG) (PI) (PI) (SG) (SG) (SG)
                 (SG) (SG) (SG) (SG)
 Leave Link  401 at Wed Feb 28 21:59:52 2018, MaxMem= 10737418240 cpu:              72.5 elap:               2.4
 (Enter /home1/apps/gaussian/16rA.03/g16/l502.exe)
 Keep R1 and R2 ints in memory in symmetry-blocked form, NReq=3425113631.
 FoFCou: FMM=F IPFlag=           8 FMFlag=           0 FMFlg1=           0
         NFxFlg=           0 DoJE=F BraDBF=F KetDBF=F FulRan=T
         wScrn=  0.000000 ICntrl=       600 IOpCl=  0 I1Cent=           0 NGrid=           0
         NMat0=    1 NMatS0=  73920 NMatT0=    0 NMatD0=    1 NMtDS0=    0 NMtDT0=    0
 Petite list used in FoFCou.
 Restricted open shell SCF:
 Using DIIS extrapolation, IDIIS=  1040.
 NGot= 10737418240 LenX=  9351085953 LenY=  9350838447
 Requested convergence on RMS density matrix=1.00D-08 within 400 cycles.
 Requested convergence on MAX density matrix=1.00D-06.
 Requested convergence on             energy=1.00D-06.
 No special actions if energy rises.

 Cycle   1  Pass 1  IDiag  1:
 E= -1345.81790133988    
 DIIS: error= 9.70D-02 at cycle   1 NSaved=   1.
 NSaved= 1 IEnMin= 1 EnMin= -1345.81790133988     IErMin= 1 ErrMin= 9.70D-02
 ErrMax= 9.70D-02  0.00D+00 EMaxC= 1.00D-01 BMatC= 2.20D+00 BMatP= 2.20D+00
 IDIUse=3 WtCom= 3.02D-02 WtEn= 9.70D-01
 Coeff-Com:  0.100D+01
 Coeff-En:   0.100D+01
 Coeff:      0.100D+01
 Fock symm off for IB=4 I1=   86 I=  377 J=  271 Cut=1.00D-07 Err=1.01D-07
 Fock matrix is not symmetric: symmetry in diagonalization turned off.
 Gap=     0.000 Goal=   None    Shift=    0.000
 GapD=    0.000 DampG=0.250 DampE=0.250 DampFc=0.1250 IDamp=-1.
 Damping current iteration by 1.25D-01
 RMSDP=1.51D-03 MaxDP=1.01D-01              OVMax= 1.00D+00

 Cycle   2  Pass 1  IDiag  1:
 E= -1345.84804572924     Delta-E=       -0.030144389360 Rises=F Damp=T
 DIIS: error= 8.52D-02 at cycle   2 NSaved=   2.
 NSaved= 2 IEnMin= 2 EnMin= -1345.84804572924     IErMin= 2 ErrMin= 8.52D-02
 ErrMax= 8.52D-02  0.00D+00 EMaxC= 1.00D-01 BMatC= 1.62D+00 BMatP= 2.20D+00
 IDIUse=3 WtCom= 1.48D-01 WtEn= 8.52D-01
 Coeff-Com: -0.396D+01 0.496D+01
 Coeff-En:   0.000D+00 0.100D+01
 Coeff:     -0.586D+00 0.159D+01
 Gap=     0.037 Goal=   None    Shift=    0.000
 RMSDP=1.58D-03 MaxDP=1.70D-01 DE=-3.01D-02 OVMax= 5.49D-01

 Cycle   3  Pass 1  IDiag  1:
 E= -1345.80352365073     Delta-E=        0.044522078505 Rises=F Damp=F
 DIIS: error= 6.57D-02 at cycle   3 NSaved=   3.
 NSaved= 3 IEnMin= 2 EnMin= -1345.84804572924     IErMin= 3 ErrMin= 6.57D-02
 ErrMax= 6.57D-02  0.00D+00 EMaxC= 1.00D-01 BMatC= 2.52D-01 BMatP= 1.62D+00
 IDIUse=3 WtCom= 3.43D-01 WtEn= 6.57D-01
 Coeff-Com: -0.159D+01 0.192D+01 0.664D+00
 Coeff-En:   0.000D+00 0.555D+00 0.445D+00
 Coeff:     -0.545D+00 0.102D+01 0.520D+00
 Gap=     0.129 Goal=   None    Shift=    0.000
 RMSDP=1.59D-03 MaxDP=1.44D-01 DE= 4.45D-02 OVMax= 4.87D-01

 Cycle   4  Pass 1  IDiag  1:
 E= -1345.98062155153     Delta-E=       -0.177097900796 Rises=F Damp=F
 DIIS: error= 2.75D-02 at cycle   4 NSaved=   4.
 NSaved= 4 IEnMin= 4 EnMin= -1345.98062155153     IErMin= 4 ErrMin= 2.75D-02
 ErrMax= 2.75D-02  0.00D+00 EMaxC= 1.00D-01 BMatC= 7.17D-02 BMatP= 2.52D-01
 IDIUse=3 WtCom= 7.25D-01 WtEn= 2.75D-01
 Coeff-Com: -0.404D+00 0.473D+00 0.323D+00 0.609D+00
 Coeff-En:   0.000D+00 0.000D+00 0.323D+00 0.677D+00
 Coeff:     -0.293D+00 0.343D+00 0.323D+00 0.627D+00
 Gap=     0.101 Goal=   None    Shift=    0.000
 RMSDP=1.10D-03 MaxDP=9.17D-02 DE=-1.77D-01 OVMax= 2.10D-01

 Cycle   5  Pass 1  IDiag  1:
 E= -1346.02830132652     Delta-E=       -0.047679774993 Rises=F Damp=F
 DIIS: error= 1.86D-02 at cycle   5 NSaved=   5.
 NSaved= 5 IEnMin= 5 EnMin= -1346.02830132652     IErMin= 5 ErrMin= 1.86D-02
 ErrMax= 1.86D-02  0.00D+00 EMaxC= 1.00D-01 BMatC= 2.43D-02 BMatP= 7.17D-02
 IDIUse=3 WtCom= 8.14D-01 WtEn= 1.86D-01
 EnCoef did     4 forward-backward iterations
 Coeff-Com: -0.325D+00 0.366D+00 0.910D-01 0.335D+00 0.533D+00
 Coeff-En:   0.000D+00 0.000D+00 0.185D+00 0.362D+00 0.453D+00
 Coeff:     -0.265D+00 0.298D+00 0.109D+00 0.340D+00 0.518D+00
 Gap=     0.090 Goal=   None    Shift=    0.000
 RMSDP=8.40D-04 MaxDP=8.37D-02 DE=-4.77D-02 OVMax= 1.31D-01

 Cycle   6  Pass 1  IDiag  1:
 E= -1346.03710968118     Delta-E=       -0.008808354655 Rises=F Damp=F
 DIIS: error= 5.21D-03 at cycle   6 NSaved=   6.
 NSaved= 6 IEnMin= 6 EnMin= -1346.03710968118     IErMin= 6 ErrMin= 5.21D-03
 ErrMax= 5.21D-03  0.00D+00 EMaxC= 1.00D-01 BMatC= 3.89D-03 BMatP= 2.43D-02
 IDIUse=3 WtCom= 9.48D-01 WtEn= 5.21D-02
 EnCoef did     5 forward-backward iterations
 Coeff-Com: -0.275D+00 0.310D+00 0.159D-01 0.123D+00 0.319D+00 0.507D+00
 Coeff-En:   0.000D+00 0.000D+00 0.152D+00 0.293D+00 0.401D+00 0.154D+00
 Coeff:     -0.260D+00 0.294D+00 0.230D-01 0.131D+00 0.323D+00 0.489D+00
 Gap=     0.075 Goal=   None    Shift=    0.000
 RMSDP=3.02D-04 MaxDP=2.09D-02 DE=-8.81D-03 OVMax= 8.52D-02

 Cycle   7  Pass 1  IDiag  1:
 E= -1346.04164920727     Delta-E=       -0.004539526095 Rises=F Damp=F
 DIIS: error= 7.63D-03 at cycle   7 NSaved=   7.
 NSaved= 7 IEnMin= 7 EnMin= -1346.04164920727     IErMin= 6 ErrMin= 5.21D-03
 ErrMax= 7.63D-03  0.00D+00 EMaxC= 1.00D-01 BMatC= 2.88D-03 BMatP= 3.89D-03
 IDIUse=3 WtCom= 9.48D-01 WtEn= 5.21D-02
 EnCoef did   100 forward-backward iterations
 Coeff-Com: -0.245D+00 0.278D+00 0.646D-02 0.633D-01 0.145D+00 0.346D+00
 Coeff-Com:  0.406D+00
 Coeff-En:   0.000D+00 0.000D+00 0.996D-01 0.000D+00 0.180D-01 0.285D-01
 Coeff-En:   0.854D+00
 Coeff:     -0.232D+00 0.264D+00 0.113D-01 0.600D-01 0.138D+00 0.329D+00
 Coeff:      0.429D+00
 Gap=     0.075 Goal=   None    Shift=    0.000
 RMSDP=4.22D-04 MaxDP=3.52D-02 DE=-4.54D-03 OVMax= 7.05D-02

 Cycle   8  Pass 1  IDiag  1:
 Density matrix breaks symmetry, PCut= 1.00D-07
 Density matrix has no symmetry -- integrals replicated.
 E= -1346.04290980527     Delta-E=       -0.001260597993 Rises=F Damp=F
 DIIS: error= 5.14D-03 at cycle   8 NSaved=   8.
 NSaved= 8 IEnMin= 8 EnMin= -1346.04290980527     IErMin= 8 ErrMin= 5.14D-03
 ErrMax= 5.14D-03  0.00D+00 EMaxC= 1.00D-01 BMatC= 2.03D-03 BMatP= 2.88D-03
 IDIUse=3 WtCom= 9.49D-01 WtEn= 5.14D-02
 EnCoef did     4 forward-backward iterations
 Coeff-Com: -0.158D+00 0.182D+00-0.325D-01-0.385D-01-0.134D+00-0.404D-01
 Coeff-Com:  0.418D+00 0.803D+00
 Coeff-En:   0.000D+00 0.000D+00 0.744D-01 0.000D+00 0.000D+00 0.000D+00
 Coeff-En:   0.609D+00 0.316D+00
 Coeff:     -0.150D+00 0.173D+00-0.270D-01-0.366D-01-0.127D+00-0.384D-01
 Coeff:      0.428D+00 0.778D+00
 Gap=     0.071 Goal=   None    Shift=    0.000
 RMSDP=4.28D-04 MaxDP=3.63D-02 DE=-1.26D-03 OVMax= 7.23D-02

 Cycle   9  Pass 1  IDiag  1:
 Density matrix breaks symmetry, PCut= 1.00D-07
 Density matrix has no symmetry -- integrals replicated.
 E= -1346.04633919289     Delta-E=       -0.003429387625 Rises=F Damp=F
 DIIS: error= 4.25D-03 at cycle   9 NSaved=   9.
 NSaved= 9 IEnMin= 9 EnMin= -1346.04633919289     IErMin= 9 ErrMin= 4.25D-03
 ErrMax= 4.25D-03  0.00D+00 EMaxC= 1.00D-01 BMatC= 1.17D-03 BMatP= 2.03D-03
 IDIUse=3 WtCom= 9.58D-01 WtEn= 4.25D-02
 EnCoef did   100 forward-backward iterations
 Coeff-Com: -0.806D-01 0.939D-01-0.288D-01-0.416D-01-0.135D+00-0.670D-01
 Coeff-Com: -0.539D-01 0.755D+00 0.558D+00
 Coeff-En:   0.000D+00 0.000D+00 0.891D-01 0.000D+00 0.000D+00 0.000D+00
 Coeff-En:   0.000D+00 0.277D-01 0.883D+00
 Coeff:     -0.772D-01 0.899D-01-0.238D-01-0.398D-01-0.129D+00-0.641D-01
 Coeff:     -0.516D-01 0.724D+00 0.572D+00
 Gap=     0.078 Goal=   None    Shift=    0.000
 RMSDP=2.03D-04 MaxDP=2.09D-02 DE=-3.43D-03 OVMax= 4.71D-02

 Cycle  10  Pass 1  IDiag  1:
 Density matrix breaks symmetry, PCut= 1.00D-07
 Density matrix has no symmetry -- integrals replicated.
 E= -1346.04860258771     Delta-E=       -0.002263394817 Rises=F Damp=F
 DIIS: error= 1.71D-03 at cycle  10 NSaved=  10.
 NSaved=10 IEnMin=10 EnMin= -1346.04860258771     IErMin=10 ErrMin= 1.71D-03
 ErrMax= 1.71D-03  0.00D+00 EMaxC= 1.00D-01 BMatC= 4.64D-04 BMatP= 1.17D-03
 IDIUse=3 WtCom= 9.83D-01 WtEn= 1.71D-02
 Coeff-Com: -0.131D-01 0.159D-01-0.100D-01-0.175D-01-0.385D-01 0.163D-01
 Coeff-Com: -0.373D+00 0.381D+00 0.464D+00 0.575D+00
 Coeff-En:   0.000D+00 0.000D+00 0.775D-01 0.000D+00 0.000D+00 0.000D+00
 Coeff-En:   0.000D+00 0.000D+00 0.000D+00 0.922D+00
 Coeff:     -0.129D-01 0.156D-01-0.853D-02-0.172D-01-0.379D-01 0.161D-01
 Coeff:     -0.367D+00 0.374D+00 0.456D+00 0.581D+00
 Gap=     0.085 Goal=   None    Shift=    0.000
 RMSDP=1.40D-04 MaxDP=1.25D-02 DE=-2.26D-03 OVMax= 4.60D-02

 Cycle  11  Pass 1  IDiag  1:
 Density matrix breaks symmetry, PCut= 1.00D-07
 Density matrix has no symmetry -- integrals replicated.
 E= -1346.05004196896     Delta-E=       -0.001439381247 Rises=F Damp=F
 DIIS: error= 1.72D-03 at cycle  11 NSaved=  11.
 NSaved=11 IEnMin=11 EnMin= -1346.05004196896     IErMin=10 ErrMin= 1.71D-03
 ErrMax= 1.72D-03  0.00D+00 EMaxC= 1.00D-01 BMatC= 1.80D-04 BMatP= 4.64D-04
 IDIUse=3 WtCom= 9.83D-01 WtEn= 1.71D-02
 Coeff-Com:  0.465D-01-0.529D-01 0.400D-02 0.388D-02 0.312D-01-0.119D-01
 Coeff-Com: -0.828D-01-0.123D-01-0.205D+00 0.180D+00 0.110D+01
 Coeff-En:   0.000D+00 0.000D+00 0.502D-01 0.000D+00 0.000D+00 0.000D+00
 Coeff-En:   0.000D+00 0.000D+00 0.000D+00 0.000D+00 0.950D+00
 Coeff:      0.457D-01-0.520D-01 0.480D-02 0.382D-02 0.306D-01-0.117D-01
 Coeff:     -0.814D-01-0.121D-01-0.201D+00 0.177D+00 0.110D+01
 Gap=     0.092 Goal=   None    Shift=    0.000
 RMSDP=1.86D-04 MaxDP=2.22D-02 DE=-1.44D-03 OVMax= 6.29D-02

 Cycle  12  Pass 1  IDiag  1:
 Density matrix breaks symmetry, PCut= 1.00D-07
 Density matrix has no symmetry -- integrals replicated.
 E= -1346.05071216618     Delta-E=       -0.000670197223 Rises=F Damp=F
 DIIS: error= 1.21D-03 at cycle  12 NSaved=  12.
 NSaved=12 IEnMin=12 EnMin= -1346.05071216618     IErMin=12 ErrMin= 1.21D-03
 ErrMax= 1.21D-03  0.00D+00 EMaxC= 1.00D-01 BMatC= 1.47D-04 BMatP= 1.80D-04
 IDIUse=3 WtCom= 9.88D-01 WtEn= 1.21D-02
 Coeff-Com:  0.668D-01-0.765D-01 0.769D-02 0.225D-01 0.293D-02-0.187D+00
 Coeff-Com:  0.340D+00-0.624D-01-0.301D+00-0.464D+00 0.449D+00 0.120D+01
 Coeff-En:   0.000D+00 0.000D+00 0.203D-01 0.000D+00 0.000D+00 0.000D+00
 Coeff-En:   0.000D+00 0.000D+00 0.000D+00 0.000D+00 0.000D+00 0.980D+00
 Coeff:      0.660D-01-0.756D-01 0.784D-02 0.222D-01 0.290D-02-0.185D+00
 Coeff:      0.336D+00-0.616D-01-0.297D+00-0.458D+00 0.444D+00 0.120D+01
 Gap=     0.098 Goal=   None    Shift=    0.000
 RMSDP=1.76D-04 MaxDP=2.35D-02 DE=-6.70D-04 OVMax= 5.29D-02

 Cycle  13  Pass 1  IDiag  1:
 Density matrix breaks symmetry, PCut= 1.00D-07
 Density matrix has no symmetry -- integrals replicated.
 E= -1346.05080552623     Delta-E=       -0.000093360055 Rises=F Damp=F
 DIIS: error= 1.12D-03 at cycle  13 NSaved=  13.
 NSaved=13 IEnMin=13 EnMin= -1346.05080552623     IErMin=13 ErrMin= 1.12D-03
 ErrMax= 1.12D-03  0.00D+00 EMaxC= 1.00D-01 BMatC= 8.83D-05 BMatP= 1.47D-04
 IDIUse=3 WtCom= 9.89D-01 WtEn= 1.12D-02
 Rare condition: small coef for last iteration:  0.000D+00
 Coeff-Com:  0.255D-01-0.293D-01 0.259D-02 0.158D-01-0.138D-01-0.942D-01
 Coeff-Com:  0.629D-01 0.618D-01 0.148D+00 0.224D-01-0.273D+00 0.112D+00
 Coeff-Com:  0.960D+00
 Coeff-En:   0.000D+00 0.000D+00 0.000D+00 0.000D+00 0.000D+00 0.000D+00
 Coeff-En:   0.000D+00 0.000D+00 0.000D+00 0.000D+00 0.000D+00 0.000D+00
 Coeff-En:   0.100D+01
 Coeff:      0.255D-01-0.293D-01 0.259D-02 0.158D-01-0.138D-01-0.942D-01
 Coeff:      0.629D-01 0.618D-01 0.148D+00 0.224D-01-0.273D+00 0.112D+00
 Coeff:      0.960D+00
 Gap=     0.097 Goal=   None    Shift=    0.000
 RMSDP=1.47D-04 MaxDP=3.81D-02 DE=-9.34D-05 OVMax= 1.50D-02

 Cycle  14  Pass 1  IDiag  1:
 Density matrix breaks symmetry, PCut= 1.00D-07
 Density matrix has no symmetry -- integrals replicated.
 E= -1346.05096242282     Delta-E=       -0.000156896587 Rises=F Damp=F
 DIIS: error= 4.69D-04 at cycle  14 NSaved=  14.
 NSaved=14 IEnMin=14 EnMin= -1346.05096242282     IErMin=14 ErrMin= 4.69D-04
 ErrMax= 4.69D-04  0.00D+00 EMaxC= 1.00D-01 BMatC= 2.52D-05 BMatP= 8.83D-05
 IDIUse=3 WtCom= 9.95D-01 WtEn= 4.69D-03
 Coeff-Com:  0.127D-01-0.146D-01-0.885D-03 0.442D-02-0.127D-01-0.367D-01
 Coeff-Com: -0.225D-01 0.612D-01 0.155D+00 0.131D+00-0.220D+00-0.208D+00
 Coeff-Com:  0.523D+00 0.627D+00
 Coeff-En:   0.000D+00 0.000D+00 0.000D+00 0.000D+00 0.000D+00 0.000D+00
 Coeff-En:   0.000D+00 0.000D+00 0.000D+00 0.000D+00 0.000D+00 0.000D+00
 Coeff-En:   0.000D+00 0.100D+01
 Coeff:      0.127D-01-0.145D-01-0.881D-03 0.440D-02-0.127D-01-0.365D-01
 Coeff:     -0.224D-01 0.609D-01 0.154D+00 0.131D+00-0.219D+00-0.207D+00
 Coeff:      0.521D+00 0.629D+00
 Gap=     0.096 Goal=   None    Shift=    0.000
 RMSDP=6.29D-05 MaxDP=1.91D-02 DE=-1.57D-04 OVMax= 7.79D-03

 Cycle  15  Pass 1  IDiag  1:
 Density matrix breaks symmetry, PCut= 1.00D-07
 Density matrix has no symmetry -- integrals replicated.
 E= -1346.05100545747     Delta-E=       -0.000043034651 Rises=F Damp=F
 DIIS: error= 3.64D-04 at cycle  15 NSaved=  15.
 NSaved=15 IEnMin=15 EnMin= -1346.05100545747     IErMin=15 ErrMin= 3.64D-04
 ErrMax= 3.64D-04  0.00D+00 EMaxC= 1.00D-01 BMatC= 1.01D-05 BMatP= 2.52D-05
 IDIUse=3 WtCom= 9.96D-01 WtEn= 3.64D-03
 EnCoef did     7 forward-backward iterations
 Coeff-Com:  0.985D-02-0.113D-01-0.189D-03 0.848D-03-0.175D-02-0.137D-02
 Coeff-Com: -0.424D-01 0.206D-01 0.681D-01 0.104D+00-0.715D-01-0.206D+00
 Coeff-Com:  0.104D+00 0.488D+00 0.540D+00
 Coeff-En:   0.000D+00 0.000D+00 0.225D-02 0.000D+00 0.000D+00 0.000D+00
 Coeff-En:   0.000D+00 0.000D+00 0.000D+00 0.000D+00 0.000D+00 0.000D+00
 Coeff-En:   0.000D+00 0.447D-01 0.953D+00
 Coeff:      0.981D-02-0.112D-01-0.180D-03 0.845D-03-0.174D-02-0.136D-02
 Coeff:     -0.423D-01 0.206D-01 0.679D-01 0.103D+00-0.712D-01-0.206D+00
 Coeff:      0.103D+00 0.486D+00 0.542D+00
 Gap=     0.096 Goal=   None    Shift=    0.000
 RMSDP=3.10D-05 MaxDP=8.44D-03 DE=-4.30D-05 OVMax= 3.02D-03

 Cycle  16  Pass 1  IDiag  1:
 Density matrix breaks symmetry, PCut= 1.00D-07
 Density matrix has no symmetry -- integrals replicated.
 E= -1346.05102016141     Delta-E=       -0.000014703938 Rises=F Damp=F
 DIIS: error= 2.08D-04 at cycle  16 NSaved=  16.
 NSaved=16 IEnMin=16 EnMin= -1346.05102016141     IErMin=16 ErrMin= 2.08D-04
 ErrMax= 2.08D-04  0.00D+00 EMaxC= 1.00D-01 BMatC= 3.51D-06 BMatP= 1.01D-05
 IDIUse=3 WtCom= 9.98D-01 WtEn= 2.08D-03
 EnCoef did     6 forward-backward iterations
 Coeff-Com:  0.700D-02-0.795D-02-0.161D-03-0.101D-02-0.246D-02 0.349D-02
 Coeff-Com: -0.111D-02 0.120D-01-0.182D-02 0.494D-02 0.299D-02-0.254D-01
 Coeff-Com: -0.422D-01-0.131D-01 0.239D+00 0.826D+00
 Coeff-En:   0.000D+00 0.000D+00 0.128D-02 0.000D+00 0.000D+00 0.000D+00
 Coeff-En:   0.000D+00 0.000D+00 0.000D+00 0.000D+00 0.000D+00 0.000D+00
 Coeff-En:   0.000D+00 0.000D+00 0.162D+00 0.837D+00
 Coeff:      0.699D-02-0.794D-02-0.158D-03-0.101D-02-0.246D-02 0.348D-02
 Coeff:     -0.110D-02 0.120D-01-0.182D-02 0.493D-02 0.299D-02-0.253D-01
 Coeff:     -0.421D-01-0.130D-01 0.238D+00 0.826D+00
 Gap=     0.096 Goal=   None    Shift=    0.000
 RMSDP=3.04D-05 MaxDP=9.32D-03 DE=-1.47D-05 OVMax= 2.67D-03

 Cycle  17  Pass 1  IDiag  1:
 Density matrix breaks symmetry, PCut= 1.00D-07
 Density matrix has no symmetry -- integrals replicated.
 E= -1346.05102554007     Delta-E=       -0.000005378657 Rises=F Damp=F
 DIIS: error= 1.06D-04 at cycle  17 NSaved=  17.
 NSaved=17 IEnMin=17 EnMin= -1346.05102554007     IErMin=17 ErrMin= 1.06D-04
 ErrMax= 1.06D-04  0.00D+00 EMaxC= 1.00D-01 BMatC= 1.46D-06 BMatP= 3.51D-06
 IDIUse=3 WtCom= 9.99D-01 WtEn= 1.06D-03
 Coeff-Com:  0.313D-02-0.354D-02-0.305D-03-0.618D-03-0.366D-02 0.358D-02
 Coeff-Com:  0.474D-02 0.147D-01-0.316D-02-0.159D-01-0.251D-02 0.251D-01
 Coeff-Com: -0.107D-01-0.146D+00-0.117D+00 0.290D+00 0.962D+00
 Coeff-En:   0.000D+00 0.000D+00 0.175D-02 0.000D+00 0.000D+00 0.000D+00
 Coeff-En:   0.000D+00 0.000D+00 0.000D+00 0.000D+00 0.000D+00 0.000D+00
 Coeff-En:   0.000D+00 0.000D+00 0.000D+00 0.000D+00 0.998D+00
 Coeff:      0.313D-02-0.354D-02-0.303D-03-0.617D-03-0.366D-02 0.357D-02
 Coeff:      0.474D-02 0.147D-01-0.316D-02-0.159D-01-0.251D-02 0.250D-01
 Coeff:     -0.107D-01-0.146D+00-0.117D+00 0.290D+00 0.962D+00
 Gap=     0.095 Goal=   None    Shift=    0.000
 RMSDP=1.23D-05 MaxDP=1.49D-03 DE=-5.38D-06 OVMax= 3.23D-03

 Cycle  18  Pass 1  IDiag  1:
 Density matrix breaks symmetry, PCut= 1.00D-07
 Density matrix has no symmetry -- integrals replicated.
 E= -1346.05102970396     Delta-E=       -0.000004163888 Rises=F Damp=F
 DIIS: error= 7.19D-05 at cycle  18 NSaved=  18.
 NSaved=18 IEnMin=18 EnMin= -1346.05102970396     IErMin=18 ErrMin= 7.19D-05
 ErrMax= 7.19D-05  0.00D+00 EMaxC= 1.00D-01 BMatC= 4.72D-07 BMatP= 1.46D-06
 IDIUse=1 WtCom= 1.00D+00 WtEn= 0.00D+00
 Coeff-Com:  0.169D-02-0.191D-02-0.138D-03-0.417D-03-0.220D-02 0.220D-02
 Coeff-Com:  0.319D-02 0.905D-02-0.382D-02-0.140D-01-0.766D-03 0.203D-01
 Coeff-Com:  0.123D-02-0.102D+00-0.138D+00 0.195D-01 0.500D+00 0.706D+00
 Coeff:      0.169D-02-0.191D-02-0.138D-03-0.417D-03-0.220D-02 0.220D-02
 Coeff:      0.319D-02 0.905D-02-0.382D-02-0.140D-01-0.766D-03 0.203D-01
 Coeff:      0.123D-02-0.102D+00-0.138D+00 0.195D-01 0.500D+00 0.706D+00
 Gap=     0.095 Goal=   None    Shift=    0.000
 RMSDP=9.23D-06 MaxDP=1.12D-03 DE=-4.16D-06 OVMax= 1.31D-03

 Cycle  19  Pass 1  IDiag  1:
 Density matrix breaks symmetry, PCut= 1.00D-07
 Density matrix has no symmetry -- integrals replicated.
 E= -1346.05103027622     Delta-E=       -0.000000572261 Rises=F Damp=F
 DIIS: error= 4.14D-05 at cycle  19 NSaved=  19.
 NSaved=19 IEnMin=19 EnMin= -1346.05103027622     IErMin=19 ErrMin= 4.14D-05
 ErrMax= 4.14D-05  0.00D+00 EMaxC= 1.00D-01 BMatC= 3.19D-07 BMatP= 4.72D-07
 IDIUse=1 WtCom= 1.00D+00 WtEn= 0.00D+00
 Coeff-Com:  0.970D-03-0.110D-02-0.520D-04-0.315D-03-0.113D-02 0.107D-02
 Coeff-Com:  0.207D-02 0.511D-02-0.342D-02-0.101D-01 0.165D-03 0.128D-01
 Coeff-Com:  0.531D-02-0.586D-01-0.105D+00-0.743D-01 0.150D+00 0.721D+00
 Coeff-Com:  0.355D+00
 Coeff:      0.970D-03-0.110D-02-0.520D-04-0.315D-03-0.113D-02 0.107D-02
 Coeff:      0.207D-02 0.511D-02-0.342D-02-0.101D-01 0.165D-03 0.128D-01
 Coeff:      0.531D-02-0.586D-01-0.105D+00-0.743D-01 0.150D+00 0.721D+00
 Coeff:      0.355D+00
 Gap=     0.095 Goal=   None    Shift=    0.000
 RMSDP=6.56D-06 MaxDP=6.01D-04 DE=-5.72D-07 OVMax= 1.05D-03

 Cycle  20  Pass 1  IDiag  1:
 Density matrix breaks symmetry, PCut= 1.00D-07
 Density matrix has no symmetry -- integrals replicated.
 E= -1346.05103089360     Delta-E=       -0.000000617383 Rises=F Damp=F
 DIIS: error= 2.07D-05 at cycle  20 NSaved=  20.
 NSaved=20 IEnMin=20 EnMin= -1346.05103089360     IErMin=20 ErrMin= 2.07D-05
 ErrMax= 2.07D-05  0.00D+00 EMaxC= 1.00D-01 BMatC= 5.05D-08 BMatP= 3.19D-07
 IDIUse=1 WtCom= 1.00D+00 WtEn= 0.00D+00
 Coeff-Com:  0.178D-03-0.198D-03-0.405D-04-0.135D-03 0.133D-03-0.679D-03
 Coeff-Com:  0.666D-03 0.676D-03 0.299D-03 0.164D-03-0.105D-02-0.168D-02
 Coeff-Com:  0.407D-02 0.114D-01 0.155D-01-0.127D-01-0.183D+00-0.116D+00
 Coeff-Com:  0.160D+00 0.112D+01
 Coeff:      0.178D-03-0.198D-03-0.405D-04-0.135D-03 0.133D-03-0.679D-03
 Coeff:      0.666D-03 0.676D-03 0.299D-03 0.164D-03-0.105D-02-0.168D-02
 Coeff:      0.407D-02 0.114D-01 0.155D-01-0.127D-01-0.183D+00-0.116D+00
 Coeff:      0.160D+00 0.112D+01
 Gap=     0.095 Goal=   None    Shift=    0.000
 RMSDP=2.56D-06 MaxDP=4.09D-04 DE=-6.17D-07 OVMax= 5.90D-04

 Cycle  21  Pass 1  IDiag  1:
 Density matrix breaks symmetry, PCut= 1.00D-07
 Density matrix has no symmetry -- integrals replicated.
 E= -1346.05103103517     Delta-E=       -0.000000141565 Rises=F Damp=F
 DIIS: error= 4.15D-06 at cycle  21 NSaved=  20.
 NSaved=20 IEnMin=20 EnMin= -1346.05103103517     IErMin=20 ErrMin= 4.15D-06
 ErrMax= 4.15D-06  0.00D+00 EMaxC= 1.00D-01 BMatC= 2.55D-09 BMatP= 5.05D-08
 IDIUse=1 WtCom= 1.00D+00 WtEn= 0.00D+00
 Coeff-Com:  0.267D-05-0.312D-05 0.300D-04 0.146D-03-0.223D-03-0.301D-03
 Coeff-Com: -0.253D-03 0.176D-03 0.104D-02 0.502D-03-0.145D-02-0.911D-03
 Coeff-Com:  0.776D-02 0.161D-01 0.187D-01-0.547D-01-0.154D+00-0.311D-01
 Coeff-Com:  0.231D+00 0.968D+00
 Coeff:      0.267D-05-0.312D-05 0.300D-04 0.146D-03-0.223D-03-0.301D-03
 Coeff:     -0.253D-03 0.176D-03 0.104D-02 0.502D-03-0.145D-02-0.911D-03
 Coeff:      0.776D-02 0.161D-01 0.187D-01-0.547D-01-0.154D+00-0.311D-01
 Coeff:      0.231D+00 0.968D+00
 Gap=     0.095 Goal=   None    Shift=    0.000
 RMSDP=1.03D-06 MaxDP=2.55D-04 DE=-1.42D-07 OVMax= 1.35D-04

 Cycle  22  Pass 1  IDiag  1:
 Density matrix breaks symmetry, PCut= 1.00D-07
 Density matrix has no symmetry -- integrals replicated.
 E= -1346.05103104192     Delta-E=       -0.000000006750 Rises=F Damp=F
 DIIS: error= 1.21D-06 at cycle  22 NSaved=  20.
 NSaved=20 IEnMin=20 EnMin= -1346.05103104192     IErMin=20 ErrMin= 1.21D-06
 ErrMax= 1.21D-06  0.00D+00 EMaxC= 1.00D-01 BMatC= 5.21D-10 BMatP= 2.55D-09
 IDIUse=1 WtCom= 1.00D+00 WtEn= 0.00D+00
 Coeff-Com: -0.554D-06 0.334D-04 0.567D-04-0.703D-04-0.191D-03-0.293D-03
 Coeff-Com:  0.261D-04 0.515D-03 0.488D-03-0.594D-03-0.117D-02 0.300D-02
 Coeff-Com:  0.783D-02 0.133D-01-0.757D-02-0.736D-01-0.384D-01-0.140D-01
 Coeff-Com:  0.506D+00 0.605D+00
 Coeff:     -0.554D-06 0.334D-04 0.567D-04-0.703D-04-0.191D-03-0.293D-03
 Coeff:      0.261D-04 0.515D-03 0.488D-03-0.594D-03-0.117D-02 0.300D-02
 Coeff:      0.783D-02 0.133D-01-0.757D-02-0.736D-01-0.384D-01-0.140D-01
 Coeff:      0.506D+00 0.605D+00
 Gap=     0.095 Goal=   None    Shift=    0.000
 RMSDP=9.13D-07 MaxDP=9.03D-05 DE=-6.75D-09 OVMax= 5.49D-05

 Cycle  23  Pass 1  IDiag  1:
 Density matrix breaks symmetry, PCut= 1.00D-07
 Density matrix has no symmetry -- integrals replicated.
 E= -1346.05103104156     Delta-E=        0.000000000352 Rises=F Damp=F
 DIIS: error= 2.06D-06 at cycle  23 NSaved=  20.
 NSaved=20 IEnMin=19 EnMin= -1346.05103104192     IErMin=19 ErrMin= 1.21D-06
 ErrMax= 2.06D-06  0.00D+00 EMaxC= 1.00D-01 BMatC= 7.50D-10 BMatP= 5.21D-10
 IDIUse=1 WtCom= 1.00D+00 WtEn= 0.00D+00
 Coeff-Com:  0.225D-04 0.195D-04-0.111D-04-0.800D-04-0.247D-03-0.154D-04
 Coeff-Com:  0.235D-03 0.326D-03-0.239D-03-0.885D-03 0.102D-02 0.354D-02
 Coeff-Com:  0.769D-02 0.627D-02-0.290D-01-0.274D-01-0.708D-01 0.208D+00
 Coeff-Com:  0.563D+00 0.338D+00
 Coeff:      0.225D-04 0.195D-04-0.111D-04-0.800D-04-0.247D-03-0.154D-04
 Coeff:      0.235D-03 0.326D-03-0.239D-03-0.885D-03 0.102D-02 0.354D-02
 Coeff:      0.769D-02 0.627D-02-0.290D-01-0.274D-01-0.708D-01 0.208D+00
 Coeff:      0.563D+00 0.338D+00
 Gap=     0.095 Goal=   None    Shift=    0.000
 RMSDP=5.72D-07 MaxDP=6.02D-05 DE= 3.52D-10 OVMax= 3.87D-05

 Cycle  24  Pass 1  IDiag  1:
 Density matrix breaks symmetry, PCut= 1.00D-07
 Density matrix has no symmetry -- integrals replicated.
 E= -1346.05103104293     Delta-E=       -0.000000001369 Rises=F Damp=F
 DIIS: error= 4.37D-07 at cycle  24 NSaved=  20.
 NSaved=20 IEnMin=20 EnMin= -1346.05103104293     IErMin=20 ErrMin= 4.37D-07
 ErrMax= 4.37D-07  0.00D+00 EMaxC= 1.00D-01 BMatC= 4.36D-11 BMatP= 5.21D-10
 IDIUse=1 WtCom= 1.00D+00 WtEn= 0.00D+00
 Coeff-Com:  0.304D-05 0.184D-04 0.412D-04-0.918D-04 0.270D-04 0.347D-04
 Coeff-Com: -0.293D-04-0.753D-04-0.418D-04 0.290D-04-0.162D-03-0.411D-03
 Coeff-Com:  0.479D-02 0.913D-02-0.120D-02-0.312D-01-0.746D-01 0.913D-01
 Coeff-Com:  0.192D+00 0.810D+00
 Coeff:      0.304D-05 0.184D-04 0.412D-04-0.918D-04 0.270D-04 0.347D-04
 Coeff:     -0.293D-04-0.753D-04-0.418D-04 0.290D-04-0.162D-03-0.411D-03
 Coeff:      0.479D-02 0.913D-02-0.120D-02-0.312D-01-0.746D-01 0.913D-01
 Coeff:      0.192D+00 0.810D+00
 Gap=     0.095 Goal=   None    Shift=    0.000
 RMSDP=1.74D-07 MaxDP=3.36D-05 DE=-1.37D-09 OVMax= 9.96D-06

 Cycle  25  Pass 1  IDiag  1:
 Density matrix breaks symmetry, PCut= 1.00D-07
 Density matrix has no symmetry -- integrals replicated.
 E= -1346.05103104299     Delta-E=       -0.000000000062 Rises=F Damp=F
 DIIS: error= 3.30D-07 at cycle  25 NSaved=  20.
 NSaved=20 IEnMin=20 EnMin= -1346.05103104299     IErMin=20 ErrMin= 3.30D-07
 ErrMax= 3.30D-07  0.00D+00 EMaxC= 1.00D-01 BMatC= 1.18D-11 BMatP= 4.36D-11
 IDIUse=1 WtCom= 1.00D+00 WtEn= 0.00D+00
 Coeff-Com:  0.901D-05 0.388D-04-0.521D-04 0.155D-04-0.154D-05-0.304D-04
 Coeff-Com: -0.196D-04 0.277D-04-0.577D-04-0.375D-03-0.796D-03 0.288D-02
 Coeff-Com:  0.815D-02 0.813D-03-0.177D-01-0.647D-01 0.302D-01 0.113D+00
 Coeff-Com:  0.559D+00 0.370D+00
 Coeff:      0.901D-05 0.388D-04-0.521D-04 0.155D-04-0.154D-05-0.304D-04
 Coeff:     -0.196D-04 0.277D-04-0.577D-04-0.375D-03-0.796D-03 0.288D-02
 Coeff:      0.815D-02 0.813D-03-0.177D-01-0.647D-01 0.302D-01 0.113D+00
 Coeff:      0.559D+00 0.370D+00
 Gap=     0.095 Goal=   None    Shift=    0.000
 RMSDP=1.22D-07 MaxDP=1.34D-05 DE=-6.16D-11 OVMax= 6.48D-06

 Cycle  26  Pass 1  IDiag  1:
 Density matrix breaks symmetry, PCut= 1.00D-07
 Density matrix has no symmetry -- integrals replicated.
 E= -1346.05103104301     Delta-E=       -0.000000000014 Rises=F Damp=F
 DIIS: error= 2.13D-07 at cycle  26 NSaved=  20.
 NSaved=20 IEnMin=20 EnMin= -1346.05103104301     IErMin=20 ErrMin= 2.13D-07
 ErrMax= 2.13D-07  0.00D+00 EMaxC= 1.00D-01 BMatC= 4.88D-12 BMatP= 1.18D-11
 IDIUse=1 WtCom= 1.00D+00 WtEn= 0.00D+00
 Coeff-Com:  0.160D-04-0.144D-04-0.154D-04-0.267D-04 0.203D-04 0.240D-04
 Coeff-Com:  0.971D-05-0.588D-04-0.267D-03-0.664D-03-0.275D-03 0.332D-02
 Coeff-Com:  0.188D-02 0.695D-03-0.270D-01-0.231D-01 0.748D-02 0.123D+00
 Coeff-Com:  0.377D+00 0.539D+00
 Coeff:      0.160D-04-0.144D-04-0.154D-04-0.267D-04 0.203D-04 0.240D-04
 Coeff:      0.971D-05-0.588D-04-0.267D-03-0.664D-03-0.275D-03 0.332D-02
 Coeff:      0.188D-02 0.695D-03-0.270D-01-0.231D-01 0.748D-02 0.123D+00
 Coeff:      0.377D+00 0.539D+00
 Gap=     0.095 Goal=   None    Shift=    0.000
 RMSDP=5.82D-08 MaxDP=1.26D-05 DE=-1.36D-11 OVMax= 3.07D-06

 Cycle  27  Pass 1  IDiag  1:
 Density matrix breaks symmetry, PCut= 1.00D-07
 Density matrix has no symmetry -- integrals replicated.
 E= -1346.05103104302     Delta-E=       -0.000000000007 Rises=F Damp=F
 DIIS: error= 4.23D-08 at cycle  27 NSaved=  20.
 NSaved=20 IEnMin=20 EnMin= -1346.05103104302     IErMin=20 ErrMin= 4.23D-08
 ErrMax= 4.23D-08  0.00D+00 EMaxC= 1.00D-01 BMatC= 4.23D-13 BMatP= 4.88D-12
 IDIUse=1 WtCom= 1.00D+00 WtEn= 0.00D+00
 Coeff-Com: -0.102D-05-0.120D-04-0.119D-04 0.232D-04 0.995D-05-0.115D-04
 Coeff-Com: -0.128D-04-0.681D-04-0.214D-03-0.638D-03 0.655D-03 0.909D-03
 Coeff-Com:  0.289D-02-0.516D-02-0.176D-01-0.140D-01-0.223D-01 0.168D+00
 Coeff-Com:  0.332D+00 0.555D+00
 Coeff:     -0.102D-05-0.120D-04-0.119D-04 0.232D-04 0.995D-05-0.115D-04
 Coeff:     -0.128D-04-0.681D-04-0.214D-03-0.638D-03 0.655D-03 0.909D-03
 Coeff:      0.289D-02-0.516D-02-0.176D-01-0.140D-01-0.223D-01 0.168D+00
 Coeff:      0.332D+00 0.555D+00
 Gap=     0.095 Goal=   None    Shift=    0.000
 RMSDP=3.51D-08 MaxDP=5.59D-06 DE=-7.28D-12 OVMax= 1.62D-06

 Cycle  28  Pass 1  IDiag  1:
 Density matrix breaks symmetry, PCut= 1.00D-07
 Density matrix has no symmetry -- integrals replicated.
 E= -1346.05103104302     Delta-E=       -0.000000000002 Rises=F Damp=F
 DIIS: error= 2.96D-08 at cycle  28 NSaved=  20.
 NSaved=20 IEnMin=20 EnMin= -1346.05103104302     IErMin=20 ErrMin= 2.96D-08
 ErrMax= 2.96D-08  0.00D+00 EMaxC= 1.00D-01 BMatC= 2.53D-13 BMatP= 4.23D-13
 IDIUse=1 WtCom= 1.00D+00 WtEn= 0.00D+00
 Coeff-Com: -0.891D-05-0.635D-05 0.170D-04 0.682D-05-0.176D-04 0.379D-05
 Coeff-Com:  0.205D-04 0.213D-04-0.341D-03-0.236D-03 0.149D-03 0.134D-02
 Coeff-Com:  0.213D-02-0.589D-02-0.105D-01-0.413D-01 0.462D-01 0.137D+00
 Coeff-Com:  0.451D+00 0.420D+00
 Coeff:     -0.891D-05-0.635D-05 0.170D-04 0.682D-05-0.176D-04 0.379D-05
 Coeff:      0.205D-04 0.213D-04-0.341D-03-0.236D-03 0.149D-03 0.134D-02
 Coeff:      0.213D-02-0.589D-02-0.105D-01-0.413D-01 0.462D-01 0.137D+00
 Coeff:      0.451D+00 0.420D+00
 Gap=     0.095 Goal=   None    Shift=    0.000
 RMSDP=1.96D-08 MaxDP=2.80D-06 DE=-2.05D-12 OVMax= 8.57D-07

 Cycle  29  Pass 1  IDiag  1:
 Density matrix breaks symmetry, PCut= 1.00D-07
 Density matrix has no symmetry -- integrals replicated.
 E= -1346.05103104302     Delta-E=        0.000000000002 Rises=F Damp=F
 DIIS: error= 1.32D-08 at cycle  29 NSaved=  20.
 NSaved=20 IEnMin=19 EnMin= -1346.05103104302     IErMin=20 ErrMin= 1.32D-08
 ErrMax= 1.32D-08  0.00D+00 EMaxC= 1.00D-01 BMatC= 3.35D-14 BMatP= 2.53D-13
 IDIUse=1 WtCom= 1.00D+00 WtEn= 0.00D+00
 Coeff-Com:  0.580D-06 0.149D-05-0.354D-06-0.446D-05 0.115D-04 0.367D-04
 Coeff-Com:  0.704D-04-0.425D-04-0.307D-03-0.148D-03 0.395D-05 0.262D-02
 Coeff-Com:  0.107D-02-0.296D-02-0.210D-01-0.142D-01 0.969D-03 0.130D+00
 Coeff-Com:  0.256D+00 0.648D+00
 Coeff:      0.580D-06 0.149D-05-0.354D-06-0.446D-05 0.115D-04 0.367D-04
 Coeff:      0.704D-04-0.425D-04-0.307D-03-0.148D-03 0.395D-05 0.262D-02
 Coeff:      0.107D-02-0.296D-02-0.210D-01-0.142D-01 0.969D-03 0.130D+00
 Coeff:      0.256D+00 0.648D+00
 Gap=     0.095 Goal=   None    Shift=    0.000
 RMSDP=5.32D-09 MaxDP=6.79D-07 DE= 1.82D-12 OVMax= 4.81D-07

 Density matrix breaks symmetry, PCut= 1.00D-07
 Density matrix has no symmetry -- integrals replicated.
 SCF Done:  E(ROHF) =  -1346.05103104     A.U. after   29 cycles
            NFock= 29  Conv=0.53D-08     -V/T= 1.9605
 <Sx>= 0.0000 <Sy>= 0.0000 <Sz>= 2.0000 <S**2>= 6.0000 S= 2.0000
 <L.S>=  0.00000000000    
 KE= 1.401476788433D+03 PE=-3.430125127127D+03 EE= 5.979289539034D+02
 Annihilation of the first spin contaminant:
 S**2 before annihilation     6.0000,   after     6.0000
 Leave Link  502 at Wed Feb 28 22:02:24 2018, MaxMem= 10737418240 cpu:            2754.5 elap:             152.3
 (Enter /home1/apps/gaussian/16rA.03/g16/l801.exe)
 Windowed orbitals will be sorted by symmetry type.
 An orbital has undefined symmetry, so N**3 symmetry is turned off.
 Density matrix breaks symmetry, PCut= 1.00D-07
 Density matrix has no symmetry -- integrals replicated.
 GenMOA:  NOpAll=  4 NOp2=4 NOpUse=  1 JSym2X=2
 FoFJK:  IHMeth= 1 ICntrl=       0 DoSepK=F KAlg= 0 I1Cent=           0 FoldK=F
 IRaf=         0 NMat=       1 IRICut=       1 DoRegI=T DoRafI=F ISym2E= 2 IDoP0=0 IntGTp=1.
 FoFCou: FMM=F IPFlag=           8 FMFlag=      100000 FMFlg1=           0
         NFxFlg=           0 DoJE=F BraDBF=F KetDBF=F FulRan=T
         wScrn=  0.000000 ICntrl=         0 IOpCl=  1 I1Cent=           0 NGrid=           0
         NMat0=    1 NMatS0=      1 NMatT0=    0 NMatD0=    1 NMtDS0=    0 NMtDT0=    0
 Integrals replicated using symmetry in FoFCou.
 <Sx>= 0.0000 <Sy>= 0.0000 <Sz>= 2.0000 <S**2>= 6.0000 S= 2.0000
 Range of M.O.s used for correlation:     7   380
 NBasis=   384 NAE=    19 NBE=    15 NFC=     6 NFV=     0
 NROrb=    374 NOA=    13 NOB=     9 NVA=   361 NVB=   365

 **** Warning!!: The largest alpha MO coefficient is  0.28619100D+03


 **** Warning!!: The largest beta MO coefficient is  0.28619267D+03

 Singles contribution to E2=   -0.9468748940D-02
 Leave Link  801 at Wed Feb 28 22:03:26 2018, MaxMem= 10737418240 cpu:            1971.4 elap:              61.7
 (Enter /home1/apps/gaussian/16rA.03/g16/l804.exe)
 Open-shell transformation, MDV= 10737418240 ITran=4 ISComp=1.
 Unit  1 TFree=       4442681 TCopy=       3431361.
 Semi-Direct transformation.
 ModeAB=           4 MOrb=            13 LenV=   10733226180
 LASXX=    332412964 LTotXX=   332412964 LenRXX=   667890964
 LTotAB=   335478000 MaxLAS=   596309714 LenRXY=           0
 NonZer=  1000303928 LenScr=  1506340864 LnRSAI=   596309714
 LnScr1=   897973248 LExtra=    26426925 Total=   3694941715
 MaxDsk= 67108864000 SrtSym=           T ITran=            4
 DoSDTr:  NPSUse= 32
 JobTyp=1 Pass  1:  I=   1 to  13.
 (rs|ai) integrals will be sorted in core.
 Complete sort for first half transformation.
 First half transformation complete.
 Begin second half transformation for I=  10.
 Complete sort for second half transformation.
 Second half transformation complete.
 ModeAB=           4 MOrb=             9 LenV=   10733226180
 LASXX=    231524181 LTotXX=   231524181 LenRXX=   449109711
 LTotAB=   217585530 MaxLAS=   412829802 LenRXY=           0
 NonZer=   680633892 LenScr=  1024955392 LnRSAI=   412829802
 LnScr1=   621673472 LExtra=   694317889 Total=   3202886266
 MaxDsk= 67108864000 SrtSym=           T ITran=            4
 DoSDTr:  NPSUse= 32
 JobTyp=2 Pass  1:  I=   1 to   9.
 (rs|ai) integrals will be sorted in core.
 Complete sort for first half transformation.
 First half transformation complete.
 Complete sort for second half transformation.
 Second half transformation complete.
 SymMOI:  orbitals are not symmetric.
 Spin components of T(2) and E(2):
     alpha-alpha T2 =       0.4078915943D-01 E2=     -0.2131592044D+00
     alpha-beta  T2 =       0.1296494416D+00 E2=     -0.7309756986D+00
     beta-beta   T2 =       0.2801425497D-01 E2=     -0.1230075559D+00
 ANorm=    0.1096897461D+01
 E2 =    -0.1076611208D+01 EUMP2 =    -0.13471276422508D+04
 (S**2,0)=  0.60000D+01           (S**2,1)=  0.60000D+01
 E(PUHF)=      -0.13460510310D+04        E(PMP2)=      -0.13471276423D+04
 Leave Link  804 at Wed Feb 28 22:20:28 2018, MaxMem= 10737418240 cpu:           32689.7 elap:            1022.2
 (Enter /home1/apps/gaussian/16rA.03/g16/l913.exe)
 CIDS:  MDV= 10737418240.
 Frozen-core window:  NFC=   6 NFV=   0.
 IFCWin=0 IBDFC=1 NFBD=     0     0 NFCmp=     0     0 NFFFC=     0     0
 Using original routines for 1st iteration.
 Using DD4UQ or CC4UQ for 2nd and later iterations.
 Keep R2 and R3 ints in memory in symmetry-blocked form, NReq=3425141095.
 FoFCou: FMM=F IPFlag=           8 FMFlag=           0 FMFlg1=           0
         NFxFlg=           0 DoJE=F BraDBF=F KetDBF=F FulRan=T
         wScrn=  0.000000 ICntrl=       600 IOpCl=  0 I1Cent=           0 NGrid=           0
         NMat0=    1 NMatS0=  73920 NMatT0=    0 NMatD0=    1 NMtDS0=    0 NMtDT0=    0
 Petite list used in FoFCou.
 CIDS: In Core Option IDoMem=           1.
 CCSD(T)
 =======
 Iterations= 150 Convergence= 0.100D-06
 Produce multiple copies of IABC intergrals
 Iteration Nr.   1
 **********************
 DD1Dir will call FoFMem   1 times, MxPair=       348
 NAB=   117 NAA=    78 NBB=    36.
 DD1Dir will call FoFMem   1 times, MxPair=       348
 NAB=   117 NAA=    78 NBB=    36.
 MP4(R+Q)= -0.10999450D+00
 Maximum subspace dimension=  5
 A-vector RMS=  3.0572422D-04 Max=  3.8586068D-03 conv= 1.00D-05.
 RLE energy=       -1.0654429140
 E3=        0.12066319D+00        EROMP3=      -0.13470069791D+04
 E4(SDQ)=  -0.86934940D-01        ROMP4(SDQ)=  -0.13470939140D+04
 VARIATIONAL ENERGIES WITH THE FIRST-ORDER WAVEFUNCTION:
 DE(Corr)=  -1.0653234     E(Corr)=     -1347.1163544    
 NORM(A)=   0.10925482D+01
 Iteration Nr.   2
 **********************
 DD1Dir will call FoFMem   1 times, MxPair=       348
 NAB=   117 NAA=    78 NBB=    36.
 A-vector RMS=  4.4142472D-03 Max=  7.3821131D-02 conv= 1.00D-05.
 RLE energy=       -1.0363689258
 DE(Corr)= -0.94125348     E(CORR)=     -1346.9922845     Delta= 1.24D-01
 NORM(A)=   0.10863904D+01
 Iteration Nr.   3
 **********************
 DD1Dir will call FoFMem   1 times, MxPair=       348
 NAB=   117 NAA=    78 NBB=    36.
 A-vector RMS=  3.0752280D-03 Max=  4.9929226D-02 conv= 1.00D-05.
 RLE energy=       -1.0184058147
 DE(Corr)= -0.96015493     E(CORR)=     -1347.0111860     Delta=-1.89D-02
 NORM(A)=   0.10894069D+01
 Iteration Nr.   4
 **********************
 DD1Dir will call FoFMem   1 times, MxPair=       348
 NAB=   117 NAA=    78 NBB=    36.
 A-vector RMS=  2.1059975D-03 Max=  3.5363917D-02 conv= 1.00D-05.
 RLE energy=       -0.9724014268
 DE(Corr)= -0.98137467     E(CORR)=     -1347.0324057     Delta=-2.12D-02
 NORM(A)=   0.11417352D+01
 Iteration Nr.   5
 **********************
 DD1Dir will call FoFMem   1 times, MxPair=       348
 NAB=   117 NAA=    78 NBB=    36.
 A-vector RMS=  2.5484128D-03 Max=  4.3084497D-02 conv= 1.00D-05.
 RLE energy=       -1.0038589912
 DE(Corr)=  -1.0495944     E(CORR)=     -1347.1006255     Delta=-6.82D-02
 NORM(A)=   0.11398594D+01
 Iteration Nr.   6
 **********************
 DD1Dir will call FoFMem   1 times, MxPair=       348
 NAB=   117 NAA=    78 NBB=    36.
 A-vector RMS=  7.8803185D-04 Max=  9.6206391D-03 conv= 1.00D-05.
 RLE energy=       -1.0110937464
 DE(Corr)=  -1.0243602     E(CORR)=     -1347.0753912     Delta= 2.52D-02
 NORM(A)=   0.11232838D+01
 Iteration Nr.   7
 **********************
 DD1Dir will call FoFMem   1 times, MxPair=       348
 NAB=   117 NAA=    78 NBB=    36.
 A-vector RMS=  1.0628663D-04 Max=  1.8368675D-03 conv= 1.00D-05.
 RLE energy=       -1.0098696517
 DE(Corr)=  -1.0097812     E(CORR)=     -1347.0608122     Delta= 1.46D-02
 NORM(A)=   0.11231658D+01
 Iteration Nr.   8
 **********************
 DD1Dir will call FoFMem   1 times, MxPair=       348
 NAB=   117 NAA=    78 NBB=    36.
 A-vector RMS=  8.0296753D-05 Max=  1.3090725D-03 conv= 1.00D-05.
 RLE energy=       -1.0100260208
 DE(Corr)=  -1.0102144     E(CORR)=     -1347.0612454     Delta=-4.33D-04
 NORM(A)=   0.11238488D+01
 Iteration Nr.   9
 **********************
 DD1Dir will call FoFMem   1 times, MxPair=       348
 NAB=   117 NAA=    78 NBB=    36.
 A-vector RMS=  3.9048733D-05 Max=  7.1302520D-04 conv= 1.00D-05.
 RLE energy=       -1.0102147108
 DE(Corr)=  -1.0100887     E(CORR)=     -1347.0611197     Delta= 1.26D-04
 NORM(A)=   0.11245264D+01
 Iteration Nr.  10
 **********************
 DD1Dir will call FoFMem   1 times, MxPair=       348
 NAB=   117 NAA=    78 NBB=    36.
 A-vector RMS=  2.2010051D-05 Max=  3.9128514D-04 conv= 1.00D-05.
 RLE energy=       -1.0102301101
 DE(Corr)=  -1.0102036     E(CORR)=     -1347.0612347     Delta=-1.15D-04
 NORM(A)=   0.11246664D+01
 Iteration Nr.  11
 **********************
 DD1Dir will call FoFMem   1 times, MxPair=       348
 NAB=   117 NAA=    78 NBB=    36.
 A-vector RMS=  9.6980575D-06 Max=  1.3435487D-04 conv= 1.00D-05.
 RLE energy=       -1.0102267392
 DE(Corr)=  -1.0102122     E(CORR)=     -1347.0612432     Delta=-8.55D-06
 NORM(A)=   0.11247664D+01
 Iteration Nr.  12
 **********************
 DD1Dir will call FoFMem   1 times, MxPair=       348
 NAB=   117 NAA=    78 NBB=    36.
 A-vector RMS=  8.0807808D-06 Max=  1.2767538D-04 conv= 1.00D-05.
 RLE energy=       -1.0102690599
 DE(Corr)=  -1.0102510     E(CORR)=     -1347.0612821     Delta=-3.89D-05
 NORM(A)=   0.11247469D+01
 Iteration Nr.  13
 **********************
 DD1Dir will call FoFMem   1 times, MxPair=       348
 NAB=   117 NAA=    78 NBB=    36.
 A-vector RMS=  2.6484940D-06 Max=  3.3480485D-05 conv= 1.00D-05.
 RLE energy=       -1.0102134817
 DE(Corr)=  -1.0102128     E(CORR)=     -1347.0612438     Delta= 3.83D-05
 NORM(A)=   0.11247222D+01
 Iteration Nr.  14
 **********************
 DD1Dir will call FoFMem   1 times, MxPair=       348
 NAB=   117 NAA=    78 NBB=    36.
 A-vector RMS=  2.0480787D-06 Max=  4.2278001D-05 conv= 1.00D-05.
 RLE energy=       -1.0102235805
 DE(Corr)=  -1.0102324     E(CORR)=     -1347.0612635     Delta=-1.97D-05
 NORM(A)=   0.11247001D+01
 Iteration Nr.  15
 **********************
 DD1Dir will call FoFMem   1 times, MxPair=       348
 NAB=   117 NAA=    78 NBB=    36.
 A-vector RMS=  5.4156290D-07 Max=  8.3551166D-06 conv= 1.00D-05.
 RLE energy=       -1.0102157542
 DE(Corr)=  -1.0102145     E(CORR)=     -1347.0612455     Delta= 1.79D-05
 NORM(A)=   0.11246956D+01
 Iteration Nr.  16
 **********************
 DD1Dir will call FoFMem   1 times, MxPair=       348
 NAB=   117 NAA=    78 NBB=    36.
 A-vector RMS=  3.5861689D-07 Max=  6.4971196D-06 conv= 1.00D-05.
 RLE energy=       -1.0102161908
 DE(Corr)=  -1.0102168     E(CORR)=     -1347.0612479     Delta=-2.34D-06
 NORM(A)=   0.11246956D+01
 Iteration Nr.  17
 **********************
 DD1Dir will call FoFMem   1 times, MxPair=       348
 NAB=   117 NAA=    78 NBB=    36.
 A-vector RMS=  2.2438327D-07 Max=  4.5631374D-06 conv= 1.00D-05.
 RLE energy=       -1.0102159829
 DE(Corr)=  -1.0102158     E(CORR)=     -1347.0612468     Delta= 1.05D-06
 NORM(A)=   0.11246977D+01
 Iteration Nr.  18
 **********************
 DD1Dir will call FoFMem   1 times, MxPair=       348
 NAB=   117 NAA=    78 NBB=    36.
 A-vector RMS=  1.4702515D-07 Max=  3.5597223D-06 conv= 1.00D-05.
 RLE energy=       -1.0102166389
 DE(Corr)=  -1.0102164     E(CORR)=     -1347.0612475     Delta=-6.57D-07
 NORM(A)=   0.11247001D+01
 Iteration Nr.  19
 **********************
 DD1Dir will call FoFMem   1 times, MxPair=       348
 NAB=   117 NAA=    78 NBB=    36.
 A-vector RMS=  9.0819567D-08 Max=  2.1317510D-06 conv= 1.00D-05.
 RLE energy=       -1.0102168981
 DE(Corr)=  -1.0102167     E(CORR)=     -1347.0612477     Delta=-2.60D-07
 NORM(A)=   0.11247021D+01
 Iteration Nr.  20
 **********************
 DD1Dir will call FoFMem   1 times, MxPair=       348
 NAB=   117 NAA=    78 NBB=    36.
 A-vector RMS=  7.2563705D-08 Max=  1.4510767D-06 conv= 1.00D-05.
 RLE energy=       -1.0102173247
 DE(Corr)=  -1.0102171     E(CORR)=     -1347.0612482     Delta=-4.36D-07
 NORM(A)=   0.11247030D+01
 Iteration Nr.  21
 **********************
 DD1Dir will call FoFMem   1 times, MxPair=       348
 NAB=   117 NAA=    78 NBB=    36.
 A-vector RMS=  4.0549955D-08 Max=  5.8761567D-07 conv= 1.00D-05.
 RLE energy=       -1.0102171620
 DE(Corr)=  -1.0102171     E(CORR)=     -1347.0612481     Delta= 4.34D-08
 NORM(A)=   0.11247033D+01
 CI/CC converged in   21 iterations to DelEn= 4.34D-08 Conv= 1.00D-07 ErrA1= 4.05D-08 Conv= 1.00D-05
 Wavefunction amplitudes converged. E(Corr)=     -1347.0612481    
 Largest amplitude= 9.42D-02
 Time for triples=   619472.47 seconds.
 T4(CCSD)= -0.57234797D-01
 T5(CCSD)=  0.11481648D-01
 CCSD(T)= -0.13471070013D+04
 Discarding MO integrals.
 Leave Link  913 at Thu Mar  1 04:42:22 2018, MaxMem= 10737418240 cpu:          726444.1 elap:           22914.2
 (Enter /home1/apps/gaussian/16rA.03/g16/l601.exe)
 Copying SCF densities to generalized density rwf, IOpCl= 0 IROHF=1.
 SCF density gives NOpUse=  1 NOpAll=  4.
 Marking SCF density as not fully symmetric.

 **********************************************************************

            Population analysis using the SCF density.

 **********************************************************************

 Orbital symmetries:
       Occupied  (SG) (SG) (SG) (PI) (PI) (SG) (SG) (SG) (PI) (PI)
                 (SG) (PI) (PI) (SG) (DLTA) (DLTA) (SG) (PI) (PI)
       Virtual   (SG) (PI) (PI) (SG) (SG) (PI) (PI) (DLTA) (DLTA)
                 (SG) (PI) (PI) (SG) (SG) (PI) (PI) (SG) (DLTA)
                 (DLTA) (PI) (PI) (SG) (PI) (PI) (SG) (SG) (SG)
                 (PI) (PI) (DLTA) (DLTA) (PHI) (PHI) (DLTA) (DLTA)
                 (SG) (PI) (PI) (SG) (PI) (PI) (DLTA) (DLTA) (PI)
                 (PI) (SG) (SG) (PI) (PI) (SG) (PHI) (PHI) (?A)
                 (?A) (SG) (PI) (PI) (SG) (?A) (?A) (PI) (PI) (DLTA)
                 (DLTA) (SG) (PHI) (PHI) (SG) (PI) (PI) (?B) (?B)
                 (DLTA) (DLTA) (?C) (?C) (?C) (?C) (SG) (SG) (PI)
                 (PI) (PI) (PI) (DLTA) (DLTA) (SG) (SG) (PI) (PI)
                 (?B) (?B) (DLTA) (DLTA) (PI) (PI) (SG) (SG) (PHI)
                 (PHI) (PI) (PI) (DLTA) (DLTA) (PHI) (PHI) (SG)
                 (DLTA) (DLTA) (SG) (PI) (PI) (?C) (?C) (?C) (?C)
                 (SG) (DLTA) (DLTA) (DLTA) (DLTA) (SG) (?D) (?D)
                 (?B) (?B) (?B) (?B) (?C) (?C) (?C) (?C) (SG) (PI)
                 (PI) (DLTA) (DLTA) (PHI) (PHI) (SG) (PI) (PI)
                 (SG) (DLTA) (DLTA) (PI) (PI) (SG) (SG) (DLTA)
                 (DLTA) (PI) (PI) (SG) (PI) (PI) (?B) (?B) (SG)
                 (PHI) (PHI) (DLTA) (DLTA) (PI) (PI) (SG) (PHI)
                 (PHI) (PHI) (PHI) (DLTA) (DLTA) (SG) (DLTA) (DLTA)
                 (PI) (PI) (PI) (PI) (DLTA) (DLTA) (SG) (PI) (PI)
                 (SG) (?E) (?E) (?C) (?C) (?E) (?C) (?C) (DLTA)
                 (DLTA) (?D) (?D) (?F) (?F) (?C) (?C) (?F) (?C)
                 (?C) (DLTA) (DLTA) (DLTA) (DLTA) (SG) (PI) (PI)
                 (PI) (PI) (SG) (SG) (SG) (PI) (PI) (SG) (DLTA)
                 (DLTA) (PI) (PI) (PI) (PI) (SG) (SG) (PHI) (PHI)
                 (DLTA) (DLTA) (PI) (PI) (SG) (?B) (?B) (?C) (?C)
                 (DLTA) (DLTA) (?C) (?C) (SG) (?G) (?G) (?D) (?D)
                 (?C) (?C) (DLTA) (DLTA) (?G) (?C) (?C) (SG) (SG)
                 (DLTA) (DLTA) (PI) (PI) (DLTA) (DLTA) (SG) (PI)
                 (PI) (SG) (PI) (PI) (SG) (PI) (PI) (SG) (SG) (DLTA)
                 (DLTA) (PI) (PI) (SG) (SG) (PI) (PI) (SG) (PHI)
                 (PHI) (DLTA) (DLTA) (PI) (PI) (SG) (PI) (PI) (SG)
                 (SG) (DLTA) (DLTA) (PI) (PI) (SG) (PI) (PI) (SG)
                 (DLTA) (DLTA) (PI) (PI) (SG) (SG) (SG) (PI) (PI)
                 (SG) (PI) (PI) (DLTA) (DLTA) (PI) (PI) (SG) (SG)
                 (SG) (SG) (PI) (PI) (SG) (PI) (PI) (SG) (SG) (DLTA)
                 (DLTA) (PI) (PI) (SG) (SG) (PI) (PI) (SG) (SG)
                 (SG) (PI) (PI) (SG) (SG) (SG) (PI) (PI) (SG) (SG)
                 (SG) (PI) (PI) (SG) (SG) (PI) (PI) (SG) (SG) (SG)
                 (SG) (SG) (SG) (SG)
 Unable to determine electronic state:  partially filled degenerate orbitals.
 Alpha  occ. eigenvalues -- -263.68566 -32.48873 -27.56703 -27.54478 -27.54478
 Alpha  occ. eigenvalues --  -20.55599  -4.38918  -2.97175  -2.90714  -2.90714
 Alpha  occ. eigenvalues --   -1.27728  -0.75904  -0.75904  -0.62633  -0.61536
 Alpha  occ. eigenvalues --   -0.58286  -0.43124  -0.43124  -0.30773
 Alpha virt. eigenvalues --    0.01689   0.02276   0.02276   0.03037   0.05437
 Alpha virt. eigenvalues --    0.06446   0.06446   0.06659   0.06669   0.07675
 Alpha virt. eigenvalues --    0.07968   0.07968   0.11476   0.15544   0.19559
 Alpha virt. eigenvalues --    0.19559   0.21137   0.21270   0.21449   0.21752
 Alpha virt. eigenvalues --    0.21752   0.22926   0.25707   0.25707   0.31761
 Alpha virt. eigenvalues --    0.45890   0.51773   0.52910   0.52910   0.54470
 Alpha virt. eigenvalues --    0.54559   0.57302   0.57860   0.58016   0.58016
 Alpha virt. eigenvalues --    0.60055   0.60319   0.60319   0.68864   0.70875
 Alpha virt. eigenvalues --    0.70875   0.71794   0.71911   0.77687   0.77687
 Alpha virt. eigenvalues --    0.81984   0.84239   1.08051   1.08051   1.22712
 Alpha virt. eigenvalues --    1.42641   1.42641   1.47133   1.47761   1.51186
 Alpha virt. eigenvalues --    1.51186   1.51746   1.53918   1.55726   1.56811
 Alpha virt. eigenvalues --    1.62177   1.62177   1.64031   1.64157   1.70820
 Alpha virt. eigenvalues --    1.77422   1.77422   1.79677   1.84323   1.84323
 Alpha virt. eigenvalues --    1.87851   1.87853   1.97686   1.98183   2.08560
 Alpha virt. eigenvalues --    2.08560   2.09067   2.09067   2.13771   2.26320
 Alpha virt. eigenvalues --    2.34933   2.34933   2.49706   2.49706   2.58804
 Alpha virt. eigenvalues --    2.59434   2.75328   3.15956   3.67523   3.67523
 Alpha virt. eigenvalues --    3.68388   3.70300   3.70300   3.70543   3.70555
 Alpha virt. eigenvalues --    3.70555   3.83309   3.87394   4.00262   4.00262
 Alpha virt. eigenvalues --    4.13454   4.13454   4.14276   4.14784   4.16779
 Alpha virt. eigenvalues --    4.16900   4.16900   4.23886   4.23962   4.31411
 Alpha virt. eigenvalues --    4.67220   4.67220   4.73352   4.73352   4.80556
 Alpha virt. eigenvalues --    4.80556   4.87035   4.90368   4.91738   4.92373
 Alpha virt. eigenvalues --    4.93315   5.20034   5.27670   5.27670   5.32369
 Alpha virt. eigenvalues --    5.32377   5.39582   5.39585   5.40060   5.40060
 Alpha virt. eigenvalues --    5.41373   5.41373   5.50514   5.69845   5.69845
 Alpha virt. eigenvalues --    5.77524   5.78661   6.02234   6.02234   6.09928
 Alpha virt. eigenvalues --    6.72602   6.72602   7.02958   7.09746   7.10761
 Alpha virt. eigenvalues --    7.33193   7.33193   7.58692   7.89462   7.99199
 Alpha virt. eigenvalues --    8.02176   8.20660   8.20660   8.69443  10.01482
 Alpha virt. eigenvalues --   10.01482  10.67573  10.67573  10.75719  10.80080
 Alpha virt. eigenvalues --   10.80080  11.02463  11.02866  11.06431  11.06431
 Alpha virt. eigenvalues --   11.35319  11.82181  11.82181  11.93102  11.94726
 Alpha virt. eigenvalues --   11.94726  11.95436  12.01649  12.28342  12.28681
 Alpha virt. eigenvalues --   12.33311  12.33311  12.74729  12.74729  12.87818
 Alpha virt. eigenvalues --   12.87819  12.88077  12.98613  12.98613  13.39682
 Alpha virt. eigenvalues --   13.47547  13.47575  13.50791  13.50791  13.74306
 Alpha virt. eigenvalues --   13.75382  13.75382  13.89872  13.92111  14.27130
 Alpha virt. eigenvalues --   14.27130  14.28238  14.28274  14.47875  14.47875
 Alpha virt. eigenvalues --   14.50748  14.73084  14.73084  14.77804  14.79856
 Alpha virt. eigenvalues --   15.40719  15.44168  15.45561  15.52100  15.52100
 Alpha virt. eigenvalues --   15.72208  15.72208  16.12888  16.82203  18.43624
 Alpha virt. eigenvalues --   26.44928  26.44928  27.14373  27.51767  27.55425
 Alpha virt. eigenvalues --   27.57411  27.57411  27.92059  27.92059  28.19597
 Alpha virt. eigenvalues --   28.82531  29.18377  29.18377  29.25535  29.28245
 Alpha virt. eigenvalues --   29.99782  29.99782  31.40319  32.22271  32.22271
 Alpha virt. eigenvalues --   32.22982  32.22997  32.41407  32.44145  32.70685
 Alpha virt. eigenvalues --   32.70685  32.98142  35.77321  35.77363  35.79495
 Alpha virt. eigenvalues --   35.79495  35.85408  35.85408  35.96324  35.99042
 Alpha virt. eigenvalues --   36.06018  36.07272  36.07272  36.55770  37.56611
 Alpha virt. eigenvalues --   46.88443  46.92210  46.95394  46.95394  47.13035
 Alpha virt. eigenvalues --   47.13100  47.44690  47.79545  47.79545  48.84274
 Alpha virt. eigenvalues --   50.39621  50.39621  51.83834  67.32154  67.32154
 Alpha virt. eigenvalues --   68.45204  79.21227  80.80591  80.83948  80.86680
 Alpha virt. eigenvalues --   80.86680  81.26148  87.32165  95.03149  95.03149
 Alpha virt. eigenvalues --   96.81859 103.03708 103.03708 103.06756 103.06757
 Alpha virt. eigenvalues --  103.11341 103.11341 103.19571 146.78423 146.78423
 Alpha virt. eigenvalues --  147.73390 153.43474 157.62440 157.64518 157.68153
 Alpha virt. eigenvalues --  157.68153 158.05663 185.36573 185.36573 186.85687
 Alpha virt. eigenvalues --  197.22723 197.22724 197.57188 197.57188 198.12165
 Alpha virt. eigenvalues --  216.67877 280.20255 306.98355 306.98355 307.93839
 Alpha virt. eigenvalues --  376.00254 376.00254 376.69390 376.70199 376.74423
 Alpha virt. eigenvalues --  376.74423 376.89182 377.66836 501.57913 529.95389
 Alpha virt. eigenvalues --  630.71724 630.71724 631.56767 787.50739 787.50739
 Alpha virt. eigenvalues --  788.91277 913.252771173.322601173.324351173.35759
 Alpha virt. eigenvalues -- 1173.357591173.538811244.334441694.626211694.62621
 Alpha virt. eigenvalues -- 1695.860311892.545742806.292543734.024673734.02467
 Alpha virt. eigenvalues -- 3735.047374902.047426085.028038384.107968384.10796
 Alpha virt. eigenvalues -- 8384.87936****************************************
 Alpha virt. eigenvalues -- **************************************************
 Alpha virt. eigenvalues -- **************************************************
 Alpha virt. eigenvalues -- **********
     Molecular Orbital Coefficients:
                          11        12        13        14        15
                           O         O         O         O         O
     Eigenvalues --    -1.27728  -0.75904  -0.75904  -0.62633  -0.61536
   1 1   Fe 1S         -0.00000  -0.00000  -0.00000  -0.00000  -0.00000
   2        2S         -0.00000  -0.00000  -0.00000  -0.00000  -0.00000
   3        3S         -0.00001  -0.00000  -0.00000  -0.00000  -0.00000
   4        4S         -0.00002  -0.00000  -0.00000  -0.00001  -0.00000
   5        5S         -0.00004  -0.00000  -0.00000  -0.00003  -0.00000
   6        6S         -0.00010  -0.00000  -0.00000  -0.00007  -0.00000
   7        7S         -0.00025  -0.00000  -0.00000  -0.00017  -0.00000
   8        8S         -0.00062  -0.00000  -0.00000  -0.00042  -0.00000
   9        9S         -0.00146  -0.00000  -0.00000  -0.00099  -0.00000
  10       10S         -0.00327  -0.00000  -0.00000  -0.00224  -0.00000
  11       11S         -0.00621  -0.00000  -0.00000  -0.00421  -0.00000
  12       12S         -0.00968  -0.00000  -0.00000  -0.00666  -0.00000
  13       13S         -0.00654  -0.00000  -0.00000  -0.00434  -0.00000
  14       14S          0.01305   0.00000   0.00000   0.00862   0.00000
  15       15S          0.05445   0.00000   0.00000   0.03870   0.00000
  16       16S          0.03644  -0.00000   0.00000   0.01954  -0.00000
  17       17S         -0.04643  -0.00000  -0.00000  -0.02572  -0.00000
  18       18S         -0.10780   0.00000  -0.00000  -0.03799   0.00000
  19       19S         -0.08364  -0.00000  -0.00000  -0.08653  -0.00000
  20       20S         -0.01937  -0.00000   0.00000   0.02028   0.00000
  21       21S         -0.00141   0.00000  -0.00000   0.08977  -0.00000
  22       22S         -0.00539  -0.00000  -0.00000   0.00336   0.00000
  23       23S          0.01406   0.00000   0.00000   0.01442   0.00000
  24       24S         -0.02092  -0.00000  -0.00000  -0.05765  -0.00000
  25       25S          0.00139   0.00000   0.00000   0.00144   0.00000
  26       26PX        -0.00000   0.00000   0.00000  -0.00000  -0.00000
  27       26PY        -0.00000  -0.00000   0.00000  -0.00000  -0.00000
  28       26PZ        -0.00000  -0.00000  -0.00000  -0.00000  -0.00000
  29       27PX        -0.00000   0.00001   0.00000  -0.00000  -0.00000
  30       27PY         0.00000  -0.00000   0.00001  -0.00000  -0.00000
  31       27PZ        -0.00002  -0.00000  -0.00000  -0.00001   0.00000
  32       28PX        -0.00000   0.00003   0.00001  -0.00000  -0.00000
  33       28PY        -0.00000  -0.00001   0.00003  -0.00000  -0.00000
  34       28PZ        -0.00007  -0.00000  -0.00000  -0.00004  -0.00000
  35       29PX        -0.00000   0.00012   0.00005  -0.00000  -0.00000
  36       29PY         0.00000  -0.00005   0.00012  -0.00000  -0.00000
  37       29PZ        -0.00027  -0.00000  -0.00000  -0.00014   0.00000
  38       30PX        -0.00000   0.00040   0.00016  -0.00000  -0.00000
  39       30PY        -0.00000  -0.00016   0.00040  -0.00000  -0.00000
  40       30PZ        -0.00096  -0.00000  -0.00000  -0.00047  -0.00000
  41       31PX        -0.00000   0.00127   0.00049  -0.00000  -0.00000
  42       31PY         0.00000  -0.00049   0.00127  -0.00000  -0.00000
  43       31PZ        -0.00295  -0.00000  -0.00000  -0.00145   0.00000
  44       32PX        -0.00000   0.00331   0.00128  -0.00000  -0.00000
  45       32PY        -0.00000  -0.00128   0.00331  -0.00000  -0.00000
  46       32PZ        -0.00788  -0.00000  -0.00000  -0.00385   0.00000
  47       33PX        -0.00000   0.00746   0.00288  -0.00000  -0.00000
  48       33PY         0.00000  -0.00288   0.00746  -0.00000  -0.00000
  49       33PZ        -0.01727  -0.00000  -0.00000  -0.00856  -0.00000
  50       34PX        -0.00000   0.01227   0.00473  -0.00000  -0.00000
  51       34PY        -0.00000  -0.00473   0.01227  -0.00000  -0.00000
  52       34PZ        -0.02960  -0.00000  -0.00000  -0.01439   0.00000
  53       35PX        -0.00000   0.01621   0.00625  -0.00000  -0.00000
  54       35PY         0.00000  -0.00625   0.01621  -0.00000  -0.00000
  55       35PZ        -0.03505  -0.00000  -0.00000  -0.01800  -0.00000
  56       36PX        -0.00000   0.01776   0.00685  -0.00000  -0.00000
  57       36PY         0.00000  -0.00685   0.01776  -0.00000  -0.00000
  58       36PZ         0.00473   0.00000  -0.00000  -0.00623  -0.00000
  59       37PX         0.00000  -0.02416  -0.00932   0.00000   0.00000
  60       37PY        -0.00000   0.00932  -0.02416   0.00000   0.00000
  61       37PZ         0.04948   0.00000   0.00000   0.02642   0.00000
  62       38PX         0.00000  -0.00968  -0.00373   0.00000   0.00000
  63       38PY         0.00000   0.00373  -0.00968   0.00000  -0.00000
  64       38PZ         0.06394   0.00000  -0.00000   0.02451  -0.00000
  65       39PX         0.00000  -0.05684  -0.02192   0.00000   0.00000
  66       39PY        -0.00000   0.02192  -0.05684   0.00000   0.00000
  67       39PZ         0.10624   0.00000   0.00000   0.05065   0.00000
  68       40PX         0.00000  -0.00821  -0.00316   0.00000   0.00000
  69       40PY         0.00000   0.00316  -0.00821   0.00000   0.00000
  70       40PZ         0.04476   0.00000   0.00000   0.02762   0.00000
  71       41PX        -0.00000   0.01536   0.00592  -0.00000  -0.00000
  72       41PY        -0.00000  -0.00592   0.01536  -0.00000  -0.00000
  73       41PZ         0.00191   0.00000   0.00000  -0.03462   0.00000
  74       42PX         0.00000   0.00603   0.00233  -0.00000  -0.00000
  75       42PY        -0.00000  -0.00233   0.00603  -0.00000  -0.00000
  76       42PZ         0.00041  -0.00000   0.00000  -0.03007   0.00000
  77       43PX        -0.00000   0.00248   0.00096  -0.00000   0.00000
  78       43PY        -0.00000  -0.00096   0.00248  -0.00000   0.00000
  79       43PZ         0.00040  -0.00000   0.00000  -0.00043  -0.00000
  80       44PX         0.00000  -0.01326  -0.00511   0.00000   0.00000
  81       44PY        -0.00000   0.00511  -0.01326   0.00000   0.00000
  82       44PZ        -0.01464  -0.00000   0.00000   0.00181   0.00000
  83       45PX         0.00000  -0.03711  -0.01431   0.00000   0.00000
  84       45PY        -0.00000   0.01431  -0.03711   0.00000   0.00000
  85       45PZ         0.05218  -0.00000   0.00000   0.03878   0.00000
  86       46PX        -0.00000  -0.00171  -0.00066   0.00000   0.00000
  87       46PY        -0.00000   0.00066  -0.00171  -0.00000   0.00000
  88       46PZ        -0.00017  -0.00000  -0.00000  -0.00004   0.00000
  89       47D 0        0.00008   0.00000   0.00000   0.00020   0.00000
  90       47D+1        0.00000  -0.00010  -0.00004   0.00000   0.00000
  91       47D-1       -0.00000   0.00004  -0.00010   0.00000   0.00000
[...]
 168       62F-1        0.00009   0.00004   0.00005  -0.00000
 169       62F+2        0.00000   0.00000   0.00000   0.00000
 170       62F-2        0.00000   0.00000   0.00000   0.00000
 171       62F+3        0.00001   0.00001   0.00001   0.00000
 172       62F-3        0.00001   0.00001   0.00001   0.00000
 173       63F 0        0.00479   0.00241   0.00238   0.00003
 174       63F+1        0.00247   0.00127   0.00121   0.00006
 175       63F-1        0.00247   0.00127   0.00121   0.00006
 176       63F+2        0.00001   0.00000   0.00000   0.00000
 177       63F-2        0.00000   0.00000   0.00000   0.00000
 178       63F+3        0.00004   0.00002   0.00002  -0.00000
 179       63F-3        0.00004   0.00002   0.00002  -0.00000
 180       64F 0        0.00523   0.00259   0.00265  -0.00006
 181       64F+1        0.01481   0.00870   0.00611   0.00259
 182       64F-1        0.01481   0.00870   0.00611   0.00259
 183       64F+2       -0.00001  -0.00001  -0.00001  -0.00000
 184       64F-2        0.00001   0.00001   0.00000   0.00001
 185       64F+3        0.00002   0.00001   0.00001   0.00000
 186       64F-3        0.00002   0.00001   0.00001   0.00000
 187       65F 0       -0.00475  -0.00272  -0.00203  -0.00070
 188       65F+1       -0.00044   0.00036  -0.00081   0.00117
 189       65F-1       -0.00044   0.00036  -0.00081   0.00117
 190       65F+2       -0.00000  -0.00000  -0.00000   0.00000
 191       65F-2        0.00001   0.00001   0.00000   0.00001
 192       65F+3        0.00000   0.00000   0.00000   0.00000
 193       65F-3        0.00000   0.00000   0.00000   0.00000
 194       66G 0        0.00000   0.00000   0.00000   0.00000
 195       66G+1        0.00000   0.00000   0.00000   0.00000
 196       66G-1        0.00000   0.00000   0.00000   0.00000
 197       66G+2        0.00000   0.00000   0.00000   0.00000
 198       66G-2        0.00000   0.00000   0.00000   0.00000
 199       66G+3        0.00000   0.00000   0.00000   0.00000
 200       66G-3        0.00000   0.00000   0.00000   0.00000
 201       66G+4        0.00000   0.00000   0.00000  -0.00000
 202       66G-4       -0.00000  -0.00000  -0.00000  -0.00000
 203       67G 0        0.00015   0.00007   0.00007  -0.00000
 204       67G+1        0.00005   0.00002   0.00003  -0.00000
 205       67G-1        0.00005   0.00002   0.00003  -0.00000
 206       67G+2        0.00001   0.00000   0.00000   0.00000
 207       67G-2        0.00001   0.00001   0.00000   0.00001
 208       67G+3        0.00000   0.00000   0.00000   0.00000
 209       67G-3        0.00000   0.00000   0.00000   0.00000
 210       67G+4        0.00000   0.00000   0.00000   0.00000
 211       67G-4        0.00000   0.00000   0.00000   0.00000
 212       68G 0        0.00148   0.00074   0.00074  -0.00001
 213       68G+1        0.00152   0.00074   0.00078  -0.00004
 214       68G-1        0.00152   0.00074   0.00078  -0.00004
 215       68G+2        0.00002   0.00001   0.00001   0.00000
 216       68G-2        0.00002   0.00002   0.00000   0.00002
 217       68G+3        0.00000   0.00000   0.00000   0.00000
 218       68G-3        0.00000   0.00000   0.00000   0.00000
 219       68G+4        0.00000   0.00000   0.00000   0.00000
 220       68G-4        0.00000   0.00000   0.00000  -0.00000
 221       69G 0       -0.00024  -0.00009  -0.00015   0.00006
 222       69G+1        0.00205   0.00120   0.00085   0.00035
 223       69G-1        0.00205   0.00120   0.00085   0.00035
 224       69G+2        0.00000   0.00000   0.00000   0.00000
 225       69G-2        0.00000   0.00000   0.00000   0.00000
 226       69G+3        0.00000   0.00000   0.00000   0.00000
 227       69G-3        0.00000   0.00000   0.00000   0.00000
 228       69G+4        0.00000   0.00000   0.00000   0.00000
 229       69G-4        0.00000   0.00000   0.00000   0.00000
 230       70H 0        0.00000   0.00000   0.00000   0.00000
 231       70H+1        0.00000   0.00000   0.00000  -0.00000
 232       70H-1        0.00000   0.00000   0.00000  -0.00000
 233       70H+2        0.00000   0.00000   0.00000   0.00000
 234       70H-2        0.00000   0.00000   0.00000   0.00000
 235       70H+3        0.00000   0.00000   0.00000   0.00000
 236       70H-3        0.00000   0.00000   0.00000   0.00000
 237       70H+4        0.00000   0.00000   0.00000   0.00000
 238       70H-4        0.00000   0.00000   0.00000   0.00000
 239       70H+5        0.00000   0.00000   0.00000   0.00000
 240       70H-5        0.00000   0.00000   0.00000   0.00000
 241       71H 0        0.00005   0.00002   0.00002  -0.00000
 242       71H+1        0.00003   0.00001   0.00002  -0.00000
 243       71H-1        0.00003   0.00001   0.00002  -0.00000
 244       71H+2        0.00000   0.00000   0.00000  -0.00000
 245       71H-2        0.00000   0.00000   0.00000   0.00000
 246       71H+3        0.00000   0.00000   0.00000   0.00000
 247       71H-3        0.00000   0.00000   0.00000   0.00000
 248       71H+4        0.00000   0.00000   0.00000  -0.00000
 249       71H-4       -0.00000  -0.00000   0.00000  -0.00000
 250       71H+5        0.00000   0.00000   0.00000  -0.00000
 251       71H-5        0.00000   0.00000   0.00000  -0.00000
 252       72H 0        0.00019   0.00010   0.00010  -0.00000
 253       72H+1        0.00054   0.00026   0.00028  -0.00002
 254       72H-1        0.00054   0.00026   0.00028  -0.00002
 255       72H+2        0.00000   0.00000   0.00000   0.00000
 256       72H-2        0.00000   0.00000   0.00000   0.00000
 257       72H+3        0.00000  -0.00000   0.00000  -0.00000
 258       72H-3        0.00000  -0.00000   0.00000  -0.00000
 259       72H+4        0.00000   0.00000   0.00000   0.00000
 260       72H-4        0.00000   0.00000   0.00000   0.00000
 261       72H+5        0.00000   0.00000   0.00000   0.00000
 262       72H-5        0.00000   0.00000   0.00000   0.00000
 263 2   O  1S          0.00001   0.00000   0.00000   0.00000
 264        2S          0.00009   0.00004   0.00004   0.00000
 265        3S          0.00107   0.00054   0.00054   0.00000
 266        4S          0.00930   0.00465   0.00465   0.00000
 267        5S          0.05615   0.02808   0.02807   0.00001
 268        6S          0.22320   0.11161   0.11159   0.00002
 269        7S          0.56302   0.28153   0.28150   0.00003
 270        8S          0.72310   0.36155   0.36155  -0.00000
 271        9S          0.30236   0.15110   0.15126  -0.00017
 272       10S          0.40534   0.20323   0.20211   0.00112
 273       11S          1.02606   0.51329   0.51277   0.00053
 274       12S          0.59057   0.28998   0.30059  -0.01061
 275       13S          0.04954   0.02478   0.02477   0.00001
 276       14S          0.02807   0.01404   0.01403   0.00002
 277       15S          0.00557   0.00278   0.00278   0.00000
 278       16S          0.05069   0.01051   0.04017  -0.02966
 279       17PX        -0.00037  -0.00020  -0.00017  -0.00002
 280       17PY        -0.00037  -0.00020  -0.00017  -0.00002
 281       17PZ        -0.00034  -0.00017  -0.00017  -0.00001
 282       18PX        -0.12587  -0.06649  -0.05938  -0.00710
 283       18PY        -0.12587  -0.06649  -0.05938  -0.00710
 284       18PZ        -0.12010  -0.06099  -0.05911  -0.00188
 285       19PX         0.14336   0.07661   0.06675   0.00986
 286       19PY         0.14336   0.07661   0.06675   0.00986
 287       19PZ         0.11977   0.06095   0.05882   0.00212
 288       20PX         0.49001   0.25948   0.23053   0.02895
 289       20PY         0.49001   0.25948   0.23053   0.02895
 290       20PZ         0.42638   0.21660   0.20978   0.00681
 291       21PX         0.71080   0.37308   0.33772   0.03536
 292       21PY         0.71080   0.37308   0.33772   0.03536
 293       21PZ         0.48549   0.25055   0.23494   0.01561
 294       22PX         0.39950   0.21828   0.18121   0.03707
 295       22PY         0.39950   0.21828   0.18121   0.03707
 296       22PZ         0.16196   0.09519   0.06676   0.02843
 297       23PX         0.14465   0.07651   0.06814   0.00838
 298       23PY         0.14465   0.07651   0.06814   0.00838
 299       23PZ         0.13618   0.06917   0.06701   0.00216
 300       24PX         0.00196   0.00105   0.00092   0.00013
 301       24PY         0.00196   0.00105   0.00092   0.00013
 302       24PZ         0.00171   0.00087   0.00084   0.00003
 303       25PX         0.00013   0.00007   0.00006   0.00001
 304       25PY         0.00013   0.00007   0.00006   0.00001
 305       25PZ         0.00011   0.00006   0.00006   0.00000
 306       26PX         0.02677   0.01674   0.01002   0.00672
 307       26PY         0.02677   0.01674   0.01002   0.00672
 308       26PZ         0.00921   0.00749   0.00172   0.00577
 309       27D 0        0.00050   0.00026   0.00024   0.00002
 310       27D+1        0.00021   0.00013   0.00008   0.00005
 311       27D-1        0.00021   0.00013   0.00008   0.00005
 312       27D+2        0.00002   0.00001   0.00001   0.00000
 313       27D-2        0.00001   0.00001   0.00000   0.00001
 314       28D 0        0.00775   0.00406   0.00369   0.00036
 315       28D+1        0.00450   0.00278   0.00173   0.00105
 316       28D-1        0.00450   0.00278   0.00173   0.00105
 317       28D+2        0.00052   0.00026   0.00026  -0.00000
 318       28D-2        0.00022   0.00022   0.00000   0.00022
 319       29D 0        0.00117   0.00081   0.00037   0.00044
 320       29D+1        0.00976   0.00536   0.00440   0.00096
 321       29D-1        0.00976   0.00536   0.00440   0.00096
 322       29D+2        0.00217   0.00109   0.00109   0.00000
 323       29D-2        0.00085   0.00085   0.00000   0.00085
 324       30D 0        0.00001   0.00000   0.00000   0.00000
 325       30D+1        0.00000   0.00000   0.00000   0.00000
 326       30D-1        0.00000   0.00000   0.00000   0.00000
 327       30D+2        0.00000   0.00000   0.00000   0.00000
 328       30D-2        0.00000   0.00000   0.00000   0.00000
 329       31D 0        0.00000   0.00000   0.00000   0.00000
 330       31D+1        0.00000   0.00000   0.00000   0.00000
 331       31D-1        0.00000   0.00000   0.00000   0.00000
 332       31D+2        0.00000   0.00000   0.00000   0.00000
 333       31D-2        0.00000   0.00000  -0.00000   0.00000
 334       32D 0       -0.00180  -0.00089  -0.00091   0.00001
 335       32D+1        0.00243   0.00128   0.00115   0.00014
 336       32D-1        0.00243   0.00128   0.00115   0.00014
 337       32D+2        0.00043   0.00022   0.00022   0.00000
 338       32D-2        0.00017   0.00017   0.00000   0.00017
 339       33F 0        0.00036   0.00019   0.00017   0.00002
 340       33F+1        0.00017   0.00011   0.00005   0.00006
 341       33F-1        0.00017   0.00011   0.00005   0.00006
 342       33F+2        0.00003   0.00001   0.00001   0.00000
 343       33F-2        0.00001   0.00001  -0.00000   0.00001
 344       33F+3        0.00000   0.00000   0.00000   0.00000
 345       33F-3        0.00000   0.00000   0.00000   0.00000
 346       34F 0        0.00247   0.00135   0.00112   0.00023
 347       34F+1        0.00227   0.00146   0.00081   0.00064
 348       34F-1        0.00227   0.00146   0.00081   0.00064
 349       34F+2        0.00080   0.00040   0.00040  -0.00000
 350       34F-2        0.00034   0.00034  -0.00000   0.00034
 351       34F+3        0.00000   0.00000   0.00000  -0.00000
 352       34F-3        0.00000   0.00000   0.00000  -0.00000
 353       35F 0        0.00000   0.00000   0.00000   0.00000
 354       35F+1        0.00000   0.00000   0.00000   0.00000
 355       35F-1        0.00000   0.00000   0.00000   0.00000
 356       35F+2        0.00000   0.00000   0.00000   0.00000
 357       35F-2        0.00000   0.00000   0.00000   0.00000
 358       35F+3        0.00000   0.00000   0.00000  -0.00000
 359       35F-3        0.00000   0.00000   0.00000  -0.00000
 360       36F 0       -0.00075  -0.00036  -0.00039   0.00003
 361       36F+1        0.00037   0.00023   0.00015   0.00008
 362       36F-1        0.00037   0.00023   0.00015   0.00008
 363       36F+2        0.00015   0.00008   0.00008   0.00000
 364       36F-2        0.00002   0.00002  -0.00000   0.00002
 365       36F+3       -0.00000  -0.00000  -0.00000  -0.00000
 366       36F-3       -0.00000  -0.00000  -0.00000  -0.00000
 367       37G 0        0.00029   0.00016   0.00013   0.00002
 368       37G+1        0.00018   0.00013   0.00005   0.00007
 369       37G-1        0.00018   0.00013   0.00005   0.00007
 370       37G+2        0.00006   0.00003   0.00003   0.00000
 371       37G-2        0.00003   0.00003   0.00000   0.00003
 372       37G+3        0.00000   0.00000   0.00000  -0.00000
 373       37G-3        0.00000   0.00000   0.00000  -0.00000
 374       37G+4        0.00000   0.00000   0.00000   0.00000
 375       37G-4        0.00000   0.00000   0.00000   0.00000
 376       38G 0        0.00028   0.00016   0.00012   0.00003
 377       38G+1        0.00036   0.00025   0.00011   0.00014
 378       38G-1        0.00036   0.00025   0.00011   0.00014
 379       38G+2        0.00023   0.00011   0.00011   0.00000
 380       38G-2        0.00008   0.00008  -0.00000   0.00008
 381       38G+3       -0.00000  -0.00000  -0.00000  -0.00000
 382       38G-3       -0.00000  -0.00000  -0.00000  -0.00000
 383       38G+4       -0.00000  -0.00000   0.00000  -0.00000
 384       38G-4       -0.00000  -0.00000  -0.00000  -0.00000
          Condensed to atoms (all electrons):
               1          2
     1  Fe  25.156311  -0.049644
     2  O   -0.049644   8.942978
          Atomic-Atomic Spin Densities.
               1          2
     1  Fe   3.858594  -0.126937
     2  O   -0.126937   0.395281
 Mulliken charges and spin densities:
               1          2
     1  Fe   0.893334   3.731656
     2  O   -0.893334   0.268344
 Sum of Mulliken charges =  -0.00000   4.00000
 Mulliken charges and spin densities with hydrogens summed into heavy atoms:
               1          2
     1  Fe   0.893334   3.731656
     2  O   -0.893334   0.268344
 Electronic spatial extent (au):  <R**2>=             82.5086
 Charge=             -0.0000 electrons
 Dipole moment (field-independent basis, Debye):
    X=              0.0000    Y=             -0.0000    Z=              2.9064  Tot=              2.9064
 Quadrupole moment (field-independent basis, Debye-Ang):
   XX=            -19.6661   YY=            -19.6661   ZZ=            -21.9852
   XY=              0.0000   XZ=             -0.0000   YZ=              0.0000
 Traceless Quadrupole moment (field-independent basis, Debye-Ang):
   XX=              0.7730   YY=              0.7730   ZZ=             -1.5461
   XY=              0.0000   XZ=             -0.0000   YZ=              0.0000
 Octapole moment (field-independent basis, Debye-Ang**2):
  XXX=              0.0000  YYY=             -0.0000  ZZZ=              4.0583  XYY=              0.0000
  XXY=             -0.0000  XXZ=              0.5855  XZZ=             -0.0000  YZZ=              0.0000
  YYZ=              0.5855  XYZ=              0.0000
 Hexadecapole moment (field-independent basis, Debye-Ang**3):
 XXXX=            -25.7482 YYYY=            -25.7482 ZZZZ=            -71.7848 XXXY=              0.0000
 XXXZ=             -0.0000 YYYX=              0.0000 YYYZ=              0.0000 ZZZX=             -0.0000
 ZZZY=              0.0000 XXYY=             -8.3851 XXZZ=            -16.7967 YYZZ=            -16.7967
 XXYZ=             -0.0000 YYXZ=             -0.0000 ZZXY=              0.0000
 N-N= 8.466835374720D+01 E-N=-3.430125125902D+03  KE= 1.401476788433D+03
 Orbital energies and kinetic energies (alpha):
                                 1                 2
  11         O                -1.277276          4.212810
  12         O                -0.759038          2.661861
  13         O                -0.759038          2.661861
  14         O                -0.626331          4.197039
  15         O                -0.615362          6.961577
  16         O                -0.582856          7.149965
  17         O                -0.431240          1.618825
  18         O                -0.431240          6.992031
  19         O                -0.307734          6.992031
  20         V                 0.016887          0.149283
  21         V                 0.022760          0.064434
  22         V                 0.022760          0.064434
  23         V                 0.030373          0.037892
  24         V                 0.054366          0.230919
 Total kinetic energy from orbitals= 1.424229641271D+03
 FoFCou: FMM=F IPFlag=           8 FMFlag=           0 FMFlg1=           0
         NFxFlg=           0 DoJE=F BraDBF=T KetDBF=F FulRan=T
         wScrn=  0.000000 ICntrl=   2000500 IOpCl=  0 I1Cent=           5 NGrid=           0
         NMat0=    1 NMatS0=      1 NMatT0=    0 NMatD0=    1 NMtDS0=    0 NMtDT0=    0
 Symmetry not used in FoFCou.
                          Isotropic Fermi Contact Couplings
        Atom                 a.u.       MegaHertz       Gauss      10(-4) cm-1
     1  Fe(57)             7.27380     263.74764      94.11172      87.97674
     2  O(17)              0.03688      -5.58954      -1.99449      -1.86447
 --------------------------------------------------------
       Center         ----  Spin Dipole Couplings  ----
                      3XX-RR        3YY-RR        3ZZ-RR
 --------------------------------------------------------
     1   Atom        0.150028      0.150028     -0.300056
     2   Atom        0.006003      0.006003     -0.012006
 --------------------------------------------------------
                        XY            XZ            YZ
 --------------------------------------------------------
     1   Atom       -0.000000      0.000000     -0.000000
     2   Atom        0.000000     -0.000000      0.000000
 --------------------------------------------------------


 ---------------------------------------------------------------------------------
              Anisotropic Spin Dipole Couplings in Principal Axis System
 ---------------------------------------------------------------------------------

       Atom             a.u.   MegaHertz   Gauss  10(-4) cm-1        Axes

              Baa    -0.3001    -5.195    -1.854    -1.733 -0.0000  0.0000  1.0000
     1 Fe(57) Bbb     0.1500     2.597     0.927     0.866  0.6918  0.7221  0.0000
              Bcc     0.1500     2.597     0.927     0.866  0.7221 -0.6918  0.0000
 
              Baa    -0.0120     0.869     0.310     0.290  0.0000 -0.0000  1.0000
     2 O(17)  Bbb     0.0060    -0.434    -0.155    -0.145 -0.6148  0.7887  0.0000
              Bcc     0.0060    -0.434    -0.155    -0.145  0.7887  0.6148 -0.0000
 

 ---------------------------------------------------------------------------------

 No NMR shielding tensors so no spin-rotation constants.
 Leave Link  601 at Thu Mar  1 04:42:44 2018, MaxMem= 10737418240 cpu:             219.6 elap:               7.3
 (Enter /home1/apps/gaussian/16rA.03/g16/l9999.exe)
 1\1\GINC-C421-084\SP\ROCCSD(T)-RW\Gen\Fe1O1(5)\GWANG18\01-Mar-2018\0\\
 #P ROCCSD(T)=(MaxCyc=150, Window=(7,0))/Gen SCF=(maxcycle=400) Integra
 l(DKHSO, NoXCTest) Pop=Regular MaxDisk=500GB\\FeO\\0,5\Fe,0,0.,0.,0.\O
 ,0,0.,0.,1.3\\Version=ES64L-G16RevA.03\HF=-1346.051031\MP2=-1347.12764
 23\MP3=-1347.0069791\PUHF=-1346.051031\PMP2-0=-1347.1276423\MP4SDQ=-13
 47.093914\CCSD=-1347.0612481\CCSD(T)=-1347.1070013\RMSD=5.317e-09\PG=C
 *V [C*(O1Fe1)]\\@


 TRUTH, IN SCIENCE, CAN BE DEFINED AS THE WORKING HYPOTHESIS 
 BEST FITTED TO OPEN THE WAY TO THE NEXT BETTER ONE.

                              -- KONRAD LORENZ
 Job cpu time:       8 days 20 hours 24 minutes 52.7 seconds.
 Elapsed time:       0 days  6 hours 42 minutes 59.1 seconds.
 File lengths (MBytes):  RWF=  76166 Int=      0 D2E=      0 Chk=     16 Scr=      1
 Normal termination of Gaussian 16 at Thu Mar  1 04:42:46 2018.
