 Entering Gaussian System, Link 0=g16
 Initial command:
 /home1/apps/gaussian/16rA.03/g16/l1.exe "/tmp/Gau-212946.inp" -scrdir="/tmp/"
 Entering Link 1 = /home1/apps/gaussian/16rA.03/g16/l1.exe PID=    212947.
  
 Copyright (c) 1988,1990,1992,1993,1995,1998,2003,2009,2016,
            Gaussian, Inc.  All Rights Reserved.
  
 This is part of the Gaussian(R) 16 program.  It is based on
 the Gaussian(R) 09 system (copyright 2009, Gaussian, Inc.),
 the Gaussian(R) 03 system (copyright 2003, Gaussian, Inc.),
 the Gaussian(R) 98 system (copyright 1998, Gaussian, Inc.),
 the Gaussian(R) 94 system (copyright 1995, Gaussian, Inc.),
 the Gaussian 92(TM) system (copyright 1992, Gaussian, Inc.),
 the Gaussian 90(TM) system (copyright 1990, Gaussian, Inc.),
 the Gaussian 88(TM) system (copyright 1988, Gaussian, Inc.),
 the Gaussian 86(TM) system (copyright 1986, Carnegie Mellon
 University), and the Gaussian 82(TM) system (copyright 1983,
 Carnegie Mellon University). Gaussian is a federally registered
 trademark of Gaussian, Inc.
  
 This software contains proprietary and confidential information,
 including trade secrets, belonging to Gaussian, Inc.
  
 This software is provided under written license and may be
 used, copied, transmitted, or stored only in accord with that
 written license.
  
 The following legend is applicable only to US Government
 contracts under FAR:
  
                    RESTRICTED RIGHTS LEGEND
  
 Use, reproduction and disclosure by the US Government is
 subject to restrictions as set forth in subparagraphs (a)
 and (c) of the Commercial Computer Software - Restricted
 Rights clause in FAR 52.227-19.
  
 Gaussian, Inc.
 340 Quinnipiac St., Bldg. 40, Wallingford CT 06492
  
  
 ---------------------------------------------------------------
 Warning -- This program may not be used in any manner that
 competes with the business of Gaussian, Inc. or will provide
 assistance to any competitor of Gaussian, Inc.  The licensee
 of this program is prohibited from giving any competitor of
 Gaussian, Inc. access to this program.  By using this program,
 the user acknowledges that Gaussian, Inc. is engaged in the
 business of creating and licensing software in the field of
 computational chemistry and represents and warrants to the
 licensee that it is not a competitor of Gaussian, Inc. and that
 it will not use this program in any manner prohibited above.
 ---------------------------------------------------------------
  

 Cite this work as:
 Gaussian 16, Revision A.03,
 M. J. Frisch, G. W. Trucks, H. B. Schlegel, G. E. Scuseria, 
 M. A. Robb, J. R. Cheeseman, G. Scalmani, V. Barone, 
 G. A. Petersson, H. Nakatsuji, X. Li, M. Caricato, A. V. Marenich, 
 J. Bloino, B. G. Janesko, R. Gomperts, B. Mennucci, H. P. Hratchian, 
 J. V. Ortiz, A. F. Izmaylov, J. L. Sonnenberg, D. Williams-Young, 
 F. Ding, F. Lipparini, F. Egidi, J. Goings, B. Peng, A. Petrone, 
 T. Henderson, D. Ranasinghe, V. G. Zakrzewski, J. Gao, N. Rega, 
 G. Zheng, W. Liang, M. Hada, M. Ehara, K. Toyota, R. Fukuda, 
 J. Hasegawa, M. Ishida, T. Nakajima, Y. Honda, O. Kitao, H. Nakai, 
 T. Vreven, K. Throssell, J. A. Montgomery, Jr., J. E. Peralta, 
 F. Ogliaro, M. J. Bearpark, J. J. Heyd, E. N. Brothers, K. N. Kudin, 
 V. N. Staroverov, T. A. Keith, R. Kobayashi, J. Normand, 
 K. Raghavachari, A. P. Rendell, J. C. Burant, S. S. Iyengar, 
 J. Tomasi, M. Cossi, J. M. Millam, M. Klene, C. Adamo, R. Cammi, 
 J. W. Ochterski, R. L. Martin, K. Morokuma, O. Farkas, 
 J. B. Foresman, and D. J. Fox, Gaussian, Inc., Wallingford CT, 2016.
 
 ******************************************
 Gaussian 16:  ES64L-G16RevA.03 25-Dec-2016
                14-Feb-2018 
 ******************************************
 %mem=64GB
 %cpu=0-31
 SetSPE:  set environment variable "MP_BIND" = "yes"
 SetSPE:  set environment variable "MP_BLIST" = "0,1,2,3,4,5,6,7,8,9,10,11,12,13,14,15,16,17,18,19,20,21,22,23,24,25,26,27,28,29,30,31"
 Will use up to   32 processors via shared memory.
 %chk=ScH
 ----------------------------------------------------------------------
 #P ROCCSD(T)=(maxcyc=150, FrzINGC)/Gen 5d 7f SCF=(maxcycles=300) Integ
 ral(NoXCTest, DKHSO) MaxDisk=500GB Pop=Regular IOp(5/15=2) Guess=Read
 ----------------------------------------------------------------------
 1/38=1,172=1/1;
 2/12=2,17=6,18=5,40=1/2;
 3/5=7,8=11,11=2,25=1,30=1,47=8,91=5,116=101/1,2,3;
 4/5=1/1;
 5/5=2,7=300,15=2,38=6/2;
 8/5=-1,6=4,9=120000,10=3/1,4;
 9/5=7,6=150,14=2/13;
 6//1;
 99/5=1,9=1/99;
 Leave Link    1 at Wed Feb 14 18:53:47 2018, MaxMem=  8589934592 cpu:              11.5 elap:               0.4
 (Enter /home1/apps/gaussian/16rA.03/g16/l101.exe)
 ---
 ScH
 ---
 Symbolic Z-matrix:
 Charge =  0 Multiplicity = 1
 Sc                    0.        0.        0. 
 H                     0.        0.        2.2 
 
 ITRead=  0  0
 MicOpt= -1 -1
 NAtoms=      2 NQM=        2 NQMF=       0 NMMI=      0 NMMIF=      0
                NMic=       0 NMicF=      0.
                    Isotopes and Nuclear Properties:
 (Nuclear quadrupole moments (NQMom) in fm**2, nuclear magnetic moments (NMagM)
  in nuclear magnetons)

  Atom         1           2
 IAtWgt=          45           1
 AtmWgt=  44.9559136   1.0078250
 NucSpn=           7           1
 AtZEff=  -0.0000000  -0.0000000
 NQMom=  -22.0000000   0.0000000
 NMagM=    4.7564830   2.7928460
 AtZNuc=  21.0000000   1.0000000
 Leave Link  101 at Wed Feb 14 18:53:47 2018, MaxMem=  8589934592 cpu:               3.2 elap:               0.1
 (Enter /home1/apps/gaussian/16rA.03/g16/l202.exe)
                          Input orientation:                          
 ---------------------------------------------------------------------
 Center     Atomic      Atomic             Coordinates (Angstroms)
 Number     Number       Type             X           Y           Z
 ---------------------------------------------------------------------
      1         21           0        0.000000    0.000000    0.000000
      2          1           0        0.000000    0.000000    2.200000
 ---------------------------------------------------------------------
 Stoichiometry    HSc
 Framework group  C*V[C*(HSc)]
 Deg. of freedom     1
 Full point group                 C*V     NOp   4
 Largest Abelian subgroup         C2V     NOp   4
 Largest concise Abelian subgroup C1      NOp   1
                         Standard orientation:                         
 ---------------------------------------------------------------------
 Center     Atomic      Atomic             Coordinates (Angstroms)
 Number     Number       Type             X           Y           Z
 ---------------------------------------------------------------------
      1         21           0        0.000000    0.000000    0.100000
      2          1           0        0.000000    0.000000   -2.100000
 ---------------------------------------------------------------------
 Rotational constants (GHZ):           0.0000000         105.9290832         105.9290832
 Leave Link  202 at Wed Feb 14 18:53:48 2018, MaxMem=  8589934592 cpu:               0.7 elap:               0.1
 (Enter /home1/apps/gaussian/16rA.03/g16/l301.exe)
 General basis read from cards:  (5D, 7F)
 Centers:       1
 S 1 1.00
     Exponent=  1.1949500000D+08 Coefficients=  1.0000000000D+00
 S 1 1.00
     Exponent=  2.1499200000D+07 Coefficients=  1.0000000000D+00
 S 1 1.00
     Exponent=  4.8070300000D+06 Coefficients=  1.0000000000D+00
 S 1 1.00
     Exponent=  1.2844000000D+06 Coefficients=  1.0000000000D+00
 S 1 1.00
     Exponent=  3.9659500000D+05 Coefficients=  1.0000000000D+00
 S 1 1.00
     Exponent=  1.3757500000D+05 Coefficients=  1.0000000000D+00
 S 1 1.00
     Exponent=  5.2366800000D+04 Coefficients=  1.0000000000D+00
 S 1 1.00
     Exponent=  2.1454900000D+04 Coefficients=  1.0000000000D+00
 S 1 1.00
     Exponent=  9.3160600000D+03 Coefficients=  1.0000000000D+00
 S 1 1.00
     Exponent=  4.2354000000D+03 Coefficients=  1.0000000000D+00
 S 1 1.00
     Exponent=  1.9974400000D+03 Coefficients=  1.0000000000D+00
 S 1 1.00
     Exponent=  9.7043000000D+02 Coefficients=  1.0000000000D+00
 S 1 1.00
     Exponent=  4.8327100000D+02 Coefficients=  1.0000000000D+00
 S 1 1.00
     Exponent=  2.4580600000D+02 Coefficients=  1.0000000000D+00
 S 1 1.00
     Exponent=  1.2736000000D+02 Coefficients=  1.0000000000D+00
 S 1 1.00
     Exponent=  6.7078800000D+01 Coefficients=  1.0000000000D+00
 S 1 1.00
     Exponent=  3.5837100000D+01 Coefficients=  1.0000000000D+00
 S 1 1.00
     Exponent=  1.9371300000D+01 Coefficients=  1.0000000000D+00
 S 1 1.00
     Exponent=  1.0557100000D+01 Coefficients=  1.0000000000D+00
 S 1 1.00
     Exponent=  5.7724900000D+00 Coefficients=  1.0000000000D+00
 S 1 1.00
     Exponent=  3.1454000000D+00 Coefficients=  1.0000000000D+00
 S 1 1.00
     Exponent=  1.6924900000D+00 Coefficients=  1.0000000000D+00
 S 1 1.00
     Exponent=  8.8864900000D-01 Coefficients=  1.0000000000D+00
 S 1 1.00
     Exponent=  4.7109300000D-01 Coefficients=  1.0000000000D+00
 S 1 1.00
     Exponent=  2.4928600000D-01 Coefficients=  1.0000000000D+00
 S 1 1.00
     Exponent=  9.9988000000D-02 Coefficients=  1.0000000000D+00
 S 1 1.00
     Exponent=  4.6369000000D-02 Coefficients=  1.0000000000D+00
 S 1 1.00
     Exponent=  2.1606000000D-02 Coefficients=  1.0000000000D+00
 S 1 1.00
     Exponent=  4.3955000000D+00 Coefficients=  1.0000000000D+00
 S 1 1.00
     Exponent=  1.1564000000D+00 Coefficients=  1.0000000000D+00
 S 1 1.00
     Exponent=  1.0070000000D-02 Coefficients=  1.0000000000D+00
 P 1 1.00
     Exponent=  5.5070500000D+04 Coefficients=  1.0000000000D+00
 P 1 1.00
     Exponent=  1.3741700000D+04 Coefficients=  1.0000000000D+00
 P 1 1.00
     Exponent=  4.3654000000D+03 Coefficients=  1.0000000000D+00
 P 1 1.00
     Exponent=  1.6422600000D+03 Coefficients=  1.0000000000D+00
 P 1 1.00
     Exponent=  6.9406600000D+02 Coefficients=  1.0000000000D+00
 P 1 1.00
     Exponent=  3.1774200000D+02 Coefficients=  1.0000000000D+00
 P 1 1.00
     Exponent=  1.5389900000D+02 Coefficients=  1.0000000000D+00
 P 1 1.00
     Exponent=  7.7766500000D+01 Coefficients=  1.0000000000D+00
 P 1 1.00
     Exponent=  4.0673600000D+01 Coefficients=  1.0000000000D+00
 P 1 1.00
     Exponent=  2.1906100000D+01 Coefficients=  1.0000000000D+00
 P 1 1.00
     Exponent=  1.2079500000D+01 Coefficients=  1.0000000000D+00
 P 1 1.00
     Exponent=  6.7534900000D+00 Coefficients=  1.0000000000D+00
 P 1 1.00
     Exponent=  3.7632100000D+00 Coefficients=  1.0000000000D+00
 P 1 1.00
     Exponent=  2.0497300000D+00 Coefficients=  1.0000000000D+00
 P 1 1.00
     Exponent=  1.0864500000D+00 Coefficients=  1.0000000000D+00
 P 1 1.00
     Exponent=  5.6408700000D-01 Coefficients=  1.0000000000D+00
 P 1 1.00
     Exponent=  2.8102000000D-01 Coefficients=  1.0000000000D+00
 P 1 1.00
     Exponent=  1.2143200000D-01 Coefficients=  1.0000000000D+00
 P 1 1.00
     Exponent=  5.3345000000D-02 Coefficients=  1.0000000000D+00
 P 1 1.00
     Exponent=  2.3143000000D-02 Coefficients=  1.0000000000D+00
 P 1 1.00
     Exponent=  5.1300000000D+00 Coefficients=  1.0000000000D+00
 P 1 1.00
     Exponent=  1.2315000000D+00 Coefficients=  1.0000000000D+00
 P 1 1.00
     Exponent=  1.0040000000D-02 Coefficients=  1.0000000000D+00
 D 1 1.00
     Exponent=  2.0684900000D+02 Coefficients=  1.0000000000D+00
 D 1 1.00
     Exponent=  6.0997700000D+01 Coefficients=  1.0000000000D+00
 D 1 1.00
     Exponent=  2.3308500000D+01 Coefficients=  1.0000000000D+00
 D 1 1.00
     Exponent=  9.9288100000D+00 Coefficients=  1.0000000000D+00
 D 1 1.00
     Exponent=  4.4867000000D+00 Coefficients=  1.0000000000D+00
 D 1 1.00
     Exponent=  2.1263200000D+00 Coefficients=  1.0000000000D+00
 D 1 1.00
     Exponent=  1.0200800000D+00 Coefficients=  1.0000000000D+00
 D 1 1.00
     Exponent=  4.8537300000D-01 Coefficients=  1.0000000000D+00
 D 1 1.00
     Exponent=  2.2719800000D-01 Coefficients=  1.0000000000D+00
 D 1 1.00
     Exponent=  1.0420400000D-01 Coefficients=  1.0000000000D+00
 D 1 1.00
     Exponent=  4.6835000000D-02 Coefficients=  1.0000000000D+00
 D 1 1.00
     Exponent=  2.0259000000D-02 Coefficients=  1.0000000000D+00
 D 1 1.00
     Exponent=  2.6491000000D+00 Coefficients=  1.0000000000D+00
 D 1 1.00
     Exponent=  1.4102000000D+00 Coefficients=  1.0000000000D+00
 D 1 1.00
     Exponent=  8.7600000000D-03 Coefficients=  1.0000000000D+00
 F 1 1.00
     Exponent=  3.5989000000D+00 Coefficients=  1.0000000000D+00
 F 1 1.00
     Exponent=  1.5145000000D+00 Coefficients=  1.0000000000D+00
 F 1 1.00
     Exponent=  6.3730000000D-01 Coefficients=  1.0000000000D+00
 F 1 1.00
     Exponent=  2.6820000000D-01 Coefficients=  1.0000000000D+00
 F 1 1.00
     Exponent=  8.0900000000D-02 Coefficients=  1.0000000000D+00
 F 1 1.00
     Exponent=  2.4400000000D-02 Coefficients=  1.0000000000D+00
 G 1 1.00
     Exponent=  3.1618000000D+00 Coefficients=  1.0000000000D+00
 G 1 1.00
     Exponent=  1.3736000000D+00 Coefficients=  1.0000000000D+00
 G 1 1.00
     Exponent=  5.9680000000D-01 Coefficients=  1.0000000000D+00
 G 1 1.00
     Exponent=  1.7110000000D-01 Coefficients=  1.0000000000D+00
 G 1 1.00
     Exponent=  4.9050000000D-02 Coefficients=  1.0000000000D+00
 H 1 1.00
     Exponent=  2.9441000000D+00 Coefficients=  1.0000000000D+00
 H 1 1.00
     Exponent=  1.1635000000D+00 Coefficients=  1.0000000000D+00
 H 1 1.00
     Exponent=  3.2900000000D-01 Coefficients=  1.0000000000D+00
 H 1 1.00
     Exponent=  9.3030000000D-02 Coefficients=  1.0000000000D+00
 I 1 1.00
     Exponent=  3.1150000000D+00 Coefficients=  1.0000000000D+00
 I 1 1.00
     Exponent=  1.1682000000D+00 Coefficients=  1.0000000000D+00
 I 1 1.00
     Exponent=  4.3810000000D-01 Coefficients=  1.0000000000D+00
 ****
 Centers:       2
 S 1 1.00
     Exponent=  4.0200000000D+02 Coefficients=  1.0000000000D+00
 S 1 1.00
     Exponent=  6.0240000000D+01 Coefficients=  1.0000000000D+00
 S 1 1.00
     Exponent=  1.3730000000D+01 Coefficients=  1.0000000000D+00
 S 1 1.00
     Exponent=  3.9050000000D+00 Coefficients=  1.0000000000D+00
 S 1 1.00
     Exponent=  1.2830000000D+00 Coefficients=  1.0000000000D+00
 S 1 1.00
     Exponent=  4.6550000000D-01 Coefficients=  1.0000000000D+00
 S 1 1.00
     Exponent=  1.8110000000D-01 Coefficients=  1.0000000000D+00
 S 1 1.00
     Exponent=  7.2790000000D-02 Coefficients=  1.0000000000D+00
 S 1 1.00
     Exponent=  2.0700000000D-02 Coefficients=  1.0000000000D+00
 P 1 1.00
     Exponent=  4.5160000000D+00 Coefficients=  1.0000000000D+00
 P 1 1.00
     Exponent=  1.7120000000D+00 Coefficients=  1.0000000000D+00
 P 1 1.00
     Exponent=  6.4900000000D-01 Coefficients=  1.0000000000D+00
 P 1 1.00
     Exponent=  2.4600000000D-01 Coefficients=  1.0000000000D+00
 P 1 1.00
     Exponent=  7.4400000000D-02 Coefficients=  1.0000000000D+00
 D 1 1.00
     Exponent=  2.9500000000D+00 Coefficients=  1.0000000000D+00
 D 1 1.00
     Exponent=  1.2060000000D+00 Coefficients=  1.0000000000D+00
 D 1 1.00
     Exponent=  4.9300000000D-01 Coefficients=  1.0000000000D+00
 D 1 1.00
     Exponent=  1.5600000000D-01 Coefficients=  1.0000000000D+00
 F 1 1.00
     Exponent=  2.5060000000D+00 Coefficients=  1.0000000000D+00
 F 1 1.00
     Exponent=  8.7500000000D-01 Coefficients=  1.0000000000D+00
 F 1 1.00
     Exponent=  2.7400000000D-01 Coefficients=  1.0000000000D+00
 G 1 1.00
     Exponent=  2.3580000000D+00 Coefficients=  1.0000000000D+00
 G 1 1.00
     Exponent=  5.4300000000D-01 Coefficients=  1.0000000000D+00
 ****
 Ernie: Thresh=  0.10000D-02 Tol=  0.10000D-05 Strict=F.
 There are   248 symmetry adapted cartesian basis functions of A1  symmetry.
 There are    79 symmetry adapted cartesian basis functions of A2  symmetry.
 There are   137 symmetry adapted cartesian basis functions of B1  symmetry.
 There are   137 symmetry adapted cartesian basis functions of B2  symmetry.
 There are   169 symmetry adapted basis functions of A1  symmetry.
 There are    59 symmetry adapted basis functions of A2  symmetry.
 There are   100 symmetry adapted basis functions of B1  symmetry.
 There are   100 symmetry adapted basis functions of B2  symmetry.
   428 basis functions,   601 primitive gaussians,   601 cartesian basis functions
    11 alpha electrons       11 beta electrons
       nuclear repulsion energy         5.0512370133 Hartrees.
 IExCor=    0 DFT=F Ex=HF Corr=None ExCW=0 ScaHFX=  1.000000
 ScaDFX=  1.000000  1.000000  1.000000  1.000000 ScalE2=  1.000000  1.000000
 IRadAn=      5 IRanWt=     -1 IRanGd=            0 ICorTp=0 IEmpDi=  4
 NAtoms=    2 NActive=    2 NUniq=    2 SFac= 1.00D+00 NAtFMM=   60 NAOKFM=F Big=F
 Integral buffers will be    131072 words long.
 Raffenetti 2 integral format.
 Two-electron integral symmetry is turned on.
 FoFCou: FMM=F IPFlag=           8 FMFlag=           0 FMFlg1=           0
         NFxFlg=           0 DoJE=F BraDBF=T KetDBF=T FulRan=T
         wScrn=  0.000000 ICntrl=       600 IOpCl=  3 I1Cent=           6 NGrid=           0
         NMat0=    1 NMatS0=      2 NMatT0=    0 NMatD0=    1 NMtDS0=    0 NMtDT0=    0
 Symmetry not used in FoFCou.
 Finite nuclear repulsion energy         5.0512370133.
 Leave Link  301 at Wed Feb 14 18:53:49 2018, MaxMem=  8589934592 cpu:              16.8 elap:               0.6
 (Enter /home1/apps/gaussian/16rA.03/g16/l302.exe)
 Using DK4 one-electron Hamiltonian with SO, DoBoet=T.
 NPDir=0 NMtPBC=     1 NCelOv=     1 NCel=       1 NClECP=     1 NCelD=      1
         NCelK=      1 NCelE2=     1 NClLst=     1 CellRange=     0.0.
 One-electron integrals computed using PRISM.
 One-electron integral symmetry used in STVInt
 FoFCou: FMM=F IPFlag=           8 FMFlag=      100000 FMFlg1=           0
         NFxFlg=           0 DoJE=T BraDBF=F KetDBF=T FulRan=T
         wScrn=  0.000000 ICntrl=       500 IOpCl=  0 I1Cent=           4 NGrid=           0
         NMat0=    1 NMatS0=      1 NMatT0=    0 NMatD0=    1 NMtDS0=    0 NMtDT0=    0
 Symmetry not used in FoFCou.
 UnConB:  Uncontracting AO basis from    428 functions to    428 functions (excluding duplicates).
 RelInt: Using uncontracted basis, NUnBas=   428 NBsUse=   428 0.100E-13 EigKep=  2.14D-07 EigRej= -1.00D+00
 NBasis=   428 RedAO= T EigKep=  1.08D-06  NBF=   169    59   100   100
 NBsUse=   426 1.00D-06 EigRej=  9.82D-07 NBFU=   167    59   100   100
 Leave Link  302 at Wed Feb 14 18:54:16 2018, MaxMem=  8589934592 cpu:             693.3 elap:              26.2
 (Enter /home1/apps/gaussian/16rA.03/g16/l303.exe)
 DipDrv:  MaxL=1.
 Leave Link  303 at Wed Feb 14 18:54:17 2018, MaxMem=  8589934592 cpu:               4.7 elap:               0.2
 (Enter /home1/apps/gaussian/16rA.03/g16/l401.exe)
 Initial guess from the checkpoint file:  "ScH.chk"
 B after Tr=     0.000000    0.000000   -0.000000
         Rot=    1.000000    0.000000    0.000000    0.000000 Ang=   0.00 deg.
 Guess basis will be translated and rotated to current coordinates.
 JPrj=2 DoOrth=T DoCkMO=T.
 Initial guess orbital symmetries:
       Occupied  (SG) (SG) (PI) (PI) (SG) (SG) (SG) (PI) (PI) (SG)
                 (SG)
       Virtual   (PI) (PI) (SG) (SG) (SG) (DLTA) (DLTA) (PI) (PI)
                 (PI) (PI) (SG) (DLTA) (DLTA) (SG) (PI) (PI) (SG)
                 (SG) (PI) (PI) (SG) (PI) (PI) (PHI) (PHI) (DLTA)
                 (DLTA) (DLTA) (DLTA) (PI) (PI) (SG) (SG) (SG)
                 (PI) (PI) (SG) (DLTA) (DLTA) (DLTA) (DLTA) (PI)
                 (PI) (?A) (?A) (PHI) (PHI) (SG) (PI) (PI) (SG)
                 (PI) (PI) (PHI) (PHI) (DLTA) (DLTA) (SG) (SG)
                 (PI) (PI) (SG) (SG) (PI) (PI) (DLTA) (DLTA) (SG)
                 (DLTA) (DLTA) (PI) (PI) (SG) (PI) (PI) (PI) (PI)
                 (SG) (SG) (?A) (?A) (PHI) (PHI) (DLTA) (DLTA)
                 (PI) (PI) (PHI) (PHI) (DLTA) (DLTA) (SG) (PI)
                 (PI) (SG) (DLTA) (DLTA) (SG) (PI) (PI) (SG) (SG)
                 (PI) (PI) (DLTA) (DLTA) (SG) (PI) (PI) (PI) (PI)
                 (SG) (SG) (DLTA) (DLTA) (PI) (PI) (SG) (PHI) (PHI)
                 (DLTA) (DLTA) (PI) (PI) (SG) (?A) (?A) (PHI) (PHI)
                 (DLTA) (DLTA) (PI) (PI) (SG) (SG) (PI) (PI) (SG)
                 (SG) (DLTA) (DLTA) (PI) (PI) (SG) (SG) (PI) (PI)
                 (SG) (DLTA) (DLTA) (PI) (PI) (SG) (SG) (PI) (PI)
                 (SG) (DLTA) (DLTA) (PI) (PI) (SG) (SG) (SG) (PI)
                 (PI) (SG) (DLTA) (DLTA) (PI) (PI) (SG) (PI) (PI)
                 (SG) (SG) (PI) (PI) (SG) (SG) (PI) (PI) (SG) (SG)
                 (PI) (PI) (SG) (SG) (PI) (PI) (SG) (SG) (SG) (PI)
                 (PI) (SG) (SG) (SG) (SG) (SG) (SG) (SG) (DLTA)
                 (SG) (SG) (SG) (DLTA) (SG) (SG) (SG) (SG) (DLTA)
                 (SG) (SG) (DLTA) (SG) (DLTA) (SG) (DLTA) (SG)
                 (SG) (?A) (SG) (DLTA) (SG) (SG) (SG) (DLTA) (DLTA)
                 (?A) (SG) (DLTA) (SG) (?A) (SG) (SG) (DLTA) (SG)
                 (SG) (DLTA) (SG) (?A) (DLTA) (?A) (SG) (SG) (DLTA)
                 (SG) (DLTA) (?A) (SG) (SG) (DLTA) (SG) (SG) (DLTA)
                 (SG) (?A) (SG) (DLTA) (SG) (?A) (DLTA) (DLTA)
                 (SG) (SG) (DLTA) (?A) (?A) (DLTA) (SG) (SG) (?A)
                 (SG) (DLTA) (DLTA) (DLTA) (DLTA) (DLTA) (DLTA)
                 (?A) (DLTA) (DLTA) (DLTA) (?A) (DLTA) (?A) (SG)
                 (DLTA) (DLTA) (?A) (DLTA) (?A) (DLTA) (DLTA) (?A)
                 (DLTA) (DLTA) (?A) (SG) (DLTA) (?A) (DLTA) (DLTA)
                 (DLTA) (?A) (?A) (DLTA) (SG) (?A) (PI) (PI) (PI)
                 (PI) (PI) (PI) (PI) (PHI) (PI) (PI) (PHI) (PI)
                 (PI) (PHI) (PI) (PI) (PI) (PHI) (?B) (PI) (PHI)
                 (?B) (PHI) (PI) (PI) (PI) (PHI) (PI) (PHI) (PI)
                 (PI) (PHI) (?B) (PI) (PI) (PHI) (PI) (PHI) (?B)
                 (PI) (PI) (PHI) (PHI) (PI) (?B) (PHI) (PHI) (PI)
                 (PHI) (?B) (?B) (PI) (PI) (PI) (PI) (PI) (PI)
                 (PI) (PI) (PHI) (PI) (PI) (PHI) (PI) (PI) (PHI)
                 (PI) (PI) (PI) (PHI) (?B) (PI) (PHI) (?B) (PHI)
                 (PI) (PI) (PI) (PHI) (PI) (PHI) (PI) (PI) (PHI)
                 (?B) (PI) (PI) (PHI) (PI) (PHI) (?B) (PI) (PI)
                 (PHI) (PHI) (PI) (?B) (PHI) (PHI) (PI) (PHI) (?B)
                 (?B) (PI)
 The electronic state of the initial guess is 1-SG.
 Leave Link  401 at Wed Feb 14 18:54:18 2018, MaxMem=  8589934592 cpu:              35.0 elap:               1.4
 (Enter /home1/apps/gaussian/16rA.03/g16/l502.exe)
 Keep R1 and R2 ints in memory in symmetry-blocked form, NReq=5277864979.
 FoFCou: FMM=F IPFlag=           8 FMFlag=           0 FMFlg1=           0
         NFxFlg=           0 DoJE=F BraDBF=F KetDBF=F FulRan=T
         wScrn=  0.000000 ICntrl=       600 IOpCl=  0 I1Cent=           0 NGrid=           0
         NMat0=    1 NMatS0=  91806 NMatT0=    0 NMatD0=    1 NMtDS0=    0 NMtDT0=    0
 Petite list used in FoFCou.
 Restricted open shell SCF:
 Using DIIS extrapolation, IDIIS=  1040.
 NGot=  8589934592 LenX=  6462098699 LenY=  6461736897
 Requested convergence on RMS density matrix=1.00D-08 within 300 cycles.
 Requested convergence on MAX density matrix=1.00D-06.
 Requested convergence on             energy=1.00D-06.
 No special actions if energy rises.

 Cycle   1  Pass 1  IDiag  1:
 E= -763.795216096663    
 DIIS: error= 1.96D+00 at cycle   1 NSaved=   1.
 NSaved= 1 IEnMin= 1 EnMin= -763.795216096663     IErMin= 1 ErrMin= 1.96D+00
 ErrMax= 1.96D+00  0.00D+00 EMaxC= 1.00D-01 BMatC= 6.31D+02 BMatP= 6.31D+02
 IDIUse=3 WtCom= 0.00D+00 WtEn= 1.00D+00
 Coeff-Com:  0.100D+01
 Coeff-En:   0.100D+01
 Coeff:      0.100D+01
 Fock symm off for IB=3 I1=   89 I=  315 J=  167 Cut=1.00D-07 Err=1.48D-07
 Fock matrix is not symmetric: symmetry in diagonalization turned off.
 Gap=     0.066 Goal=   None    Shift=    0.000
 GapD=    0.066 DampG=0.500 DampE=0.125 DampFc=0.1250 IDamp=-1.
 Damping current iteration by 1.25D-01
 RMSDP=9.64D-04 MaxDP=7.48D-02              OVMax= 1.00D+00

 Cycle   2  Pass 1  IDiag  1:
 E= -763.796714451757     Delta-E=       -0.001498355094 Rises=F Damp=T
 DIIS: error= 1.72D+00 at cycle   2 NSaved=   2.
 NSaved= 2 IEnMin= 2 EnMin= -763.796714451757     IErMin= 2 ErrMin= 1.72D+00
 ErrMax= 1.72D+00  0.00D+00 EMaxC= 1.00D-01 BMatC= 4.83D+02 BMatP= 6.31D+02
 IDIUse=3 WtCom= 0.00D+00 WtEn= 1.00D+00
 Coeff-Com: -0.700D+01 0.800D+01
 Coeff-En:   0.000D+00 0.100D+01
 Coeff:      0.000D+00 0.100D+01
 Gap=     0.248 Goal=   None    Shift=    0.000
 RMSDP=8.50D-04 MaxDP=6.59D-02 DE=-1.50D-03 OVMax= 4.03D-03

 Cycle   3  Pass 1  IDiag  1:
 E= -763.809924215670     Delta-E=       -0.013209763912 Rises=F Damp=F
 DIIS: error= 2.78D-03 at cycle   3 NSaved=   3.
 NSaved= 3 IEnMin= 3 EnMin= -763.809924215670     IErMin= 3 ErrMin= 2.78D-03
 ErrMax= 2.78D-03  0.00D+00 EMaxC= 1.00D-01 BMatC= 3.65D-04 BMatP= 4.83D+02
 IDIUse=3 WtCom= 9.72D-01 WtEn= 2.78D-02
 Large coefficients: NSaved=  3 BigCof=   62.40 CofMax=   10.00 Det=-6.26D-08
 Inversion failed.  Reducing to  2 matrices.
 Coeff-Com: -0.189D-04 0.100D+01
 Coeff-En:   0.000D+00 0.100D+01
 Coeff:     -0.184D-04 0.100D+01
 Gap=     0.250 Goal=   None    Shift=    0.000
 RMSDP=8.62D-05 MaxDP=1.20D-02 DE=-1.32D-02 OVMax= 2.93D-02

 Cycle   4  Pass 1  IDiag  1:
 E= -763.811527582228     Delta-E=       -0.001603366558 Rises=F Damp=F
 DIIS: error= 1.55D-03 at cycle   4 NSaved=   3.
 NSaved= 3 IEnMin= 3 EnMin= -763.811527582228     IErMin= 3 ErrMin= 1.55D-03
 ErrMax= 1.55D-03  0.00D+00 EMaxC= 1.00D-01 BMatC= 9.66D-05 BMatP= 3.65D-04
 IDIUse=3 WtCom= 9.84D-01 WtEn= 1.55D-02
 Coeff-Com:  0.767D-05-0.445D+00 0.145D+01
 Coeff-En:   0.000D+00 0.000D+00 0.100D+01
 Coeff:      0.756D-05-0.438D+00 0.144D+01
 Gap=     0.254 Goal=   None    Shift=    0.000
 RMSDP=7.55D-05 MaxDP=1.44D-02 DE=-1.60D-03 OVMax= 2.11D-02

 Cycle   5  Pass 1  IDiag  1:
 E= -763.812112580454     Delta-E=       -0.000584998227 Rises=F Damp=F
 DIIS: error= 5.26D-04 at cycle   5 NSaved=   4.
 NSaved= 4 IEnMin= 4 EnMin= -763.812112580454     IErMin= 4 ErrMin= 5.26D-04
 ErrMax= 5.26D-04  0.00D+00 EMaxC= 1.00D-01 BMatC= 1.36D-05 BMatP= 9.66D-05
 IDIUse=3 WtCom= 9.95D-01 WtEn= 5.26D-03
 Coeff-Com:  0.303D-05-0.165D+00 0.687D-01 0.110D+01
 Coeff-En:   0.000D+00 0.000D+00 0.000D+00 0.100D+01
 Coeff:      0.301D-05-0.164D+00 0.683D-01 0.110D+01
 Gap=     0.254 Goal=   None    Shift=    0.000
 RMSDP=3.41D-05 MaxDP=7.02D-03 DE=-5.85D-04 OVMax= 8.87D-03

 Cycle   6  Pass 1  IDiag  1:
 E= -763.812212685123     Delta-E=       -0.000100104668 Rises=F Damp=F
 DIIS: error= 1.43D-04 at cycle   6 NSaved=   5.
 NSaved= 5 IEnMin= 5 EnMin= -763.812212685123     IErMin= 5 ErrMin= 1.43D-04
 ErrMax= 1.43D-04  0.00D+00 EMaxC= 1.00D-01 BMatC= 2.86D-06 BMatP= 1.36D-05
 IDIUse=3 WtCom= 9.99D-01 WtEn= 1.43D-03
 Coeff-Com: -0.159D-05 0.905D-01-0.282D+00 0.990D-02 0.118D+01
 Coeff-En:   0.000D+00 0.000D+00 0.000D+00 0.000D+00 0.100D+01
 Coeff:     -0.159D-05 0.903D-01-0.282D+00 0.989D-02 0.118D+01
 Gap=     0.255 Goal=   None    Shift=    0.000
 RMSDP=1.76D-05 MaxDP=3.69D-03 DE=-1.00D-04 OVMax= 5.18D-03

 Cycle   7  Pass 1  IDiag  1:
 E= -763.812233203717     Delta-E=       -0.000020518595 Rises=F Damp=F
 DIIS: error= 9.72D-05 at cycle   7 NSaved=   6.
 NSaved= 6 IEnMin= 6 EnMin= -763.812233203717     IErMin= 6 ErrMin= 9.72D-05
 ErrMax= 9.72D-05  0.00D+00 EMaxC= 1.00D-01 BMatC= 8.52D-07 BMatP= 2.86D-06
 IDIUse=1 WtCom= 1.00D+00 WtEn= 0.00D+00
 Coeff-Com:  0.191D-06-0.116D-01 0.323D-01 0.108D+00-0.769D+00 0.164D+01
 Coeff:      0.191D-06-0.116D-01 0.323D-01 0.108D+00-0.769D+00 0.164D+01
 Gap=     0.255 Goal=   None    Shift=    0.000
 RMSDP=8.44D-06 MaxDP=1.47D-03 DE=-2.05D-05 OVMax= 3.54D-03

 Cycle   8  Pass 1  IDiag  1:
 E= -763.812240705148     Delta-E=       -0.000007501431 Rises=F Damp=F
 DIIS: error= 6.37D-05 at cycle   8 NSaved=   7.
 NSaved= 7 IEnMin= 7 EnMin= -763.812240705148     IErMin= 7 ErrMin= 6.37D-05
 ErrMax= 6.37D-05  0.00D+00 EMaxC= 1.00D-01 BMatC= 2.86D-07 BMatP= 8.52D-07
 IDIUse=1 WtCom= 1.00D+00 WtEn= 0.00D+00
 Coeff-Com:  0.758D-07-0.407D-02 0.115D-01 0.211D-01 0.115D+00-0.147D+01
 Coeff-Com:  0.232D+01
 Coeff:      0.758D-07-0.407D-02 0.115D-01 0.211D-01 0.115D+00-0.147D+01
 Coeff:      0.232D+01
 Gap=     0.255 Goal=   None    Shift=    0.000
 RMSDP=8.66D-06 MaxDP=1.24D-03 DE=-7.50D-06 OVMax= 4.08D-03

 Cycle   9  Pass 1  IDiag  1:
 E= -763.812244851549     Delta-E=       -0.000004146401 Rises=F Damp=F
 DIIS: error= 1.60D-05 at cycle   9 NSaved=   8.
 NSaved= 8 IEnMin= 8 EnMin= -763.812244851549     IErMin= 8 ErrMin= 1.60D-05
 ErrMax= 1.60D-05  0.00D+00 EMaxC= 1.00D-01 BMatC= 2.53D-08 BMatP= 2.86D-07
 IDIUse=1 WtCom= 1.00D+00 WtEn= 0.00D+00
 Coeff-Com: -0.131D-06 0.762D-02-0.307D-01 0.367D-02 0.104D+00 0.152D+00
 Coeff-Com: -0.737D+00 0.150D+01
 Coeff:     -0.131D-06 0.762D-02-0.307D-01 0.367D-02 0.104D+00 0.152D+00
 Coeff:     -0.737D+00 0.150D+01
 Gap=     0.255 Goal=   None    Shift=    0.000
 RMSDP=2.42D-06 MaxDP=3.99D-04 DE=-4.15D-06 OVMax= 1.08D-03

 Cycle  10  Pass 1  IDiag  1:
 E= -763.812245081481     Delta-E=       -0.000000229932 Rises=F Damp=F
 DIIS: error= 2.15D-06 at cycle  10 NSaved=   9.
 NSaved= 9 IEnMin= 9 EnMin= -763.812245081481     IErMin= 9 ErrMin= 2.15D-06
 ErrMax= 2.15D-06  0.00D+00 EMaxC= 1.00D-01 BMatC= 5.08D-10 BMatP= 2.53D-08
 IDIUse=1 WtCom= 1.00D+00 WtEn= 0.00D+00
 Coeff-Com: -0.195D-07 0.110D-02-0.194D-02-0.310D-02 0.147D-01 0.699D-02
 Coeff-Com: -0.504D-02-0.160D+00 0.115D+01
 Coeff:     -0.195D-07 0.110D-02-0.194D-02-0.310D-02 0.147D-01 0.699D-02
 Coeff:     -0.504D-02-0.160D+00 0.115D+01
 Gap=     0.255 Goal=   None    Shift=    0.000
 RMSDP=1.71D-07 MaxDP=1.94D-05 DE=-2.30D-07 OVMax= 5.44D-05

 Cycle  11  Pass 1  IDiag  1:
 E= -763.812245083878     Delta-E=       -0.000000002397 Rises=F Damp=F
 DIIS: error= 9.34D-07 at cycle  11 NSaved=  10.
 NSaved=10 IEnMin=10 EnMin= -763.812245083878     IErMin=10 ErrMin= 9.34D-07
 ErrMax= 9.34D-07  0.00D+00 EMaxC= 1.00D-01 BMatC= 6.12D-11 BMatP= 5.08D-10
 IDIUse=1 WtCom= 1.00D+00 WtEn= 0.00D+00
 Coeff-Com:  0.124D-07-0.716D-03 0.253D-02 0.131D-03-0.104D-01-0.425D-02
 Coeff-Com:  0.518D-01-0.142D+00 0.101D+00 0.100D+01
 Coeff:      0.124D-07-0.716D-03 0.253D-02 0.131D-03-0.104D-01-0.425D-02
 Coeff:      0.518D-01-0.142D+00 0.101D+00 0.100D+01
 Gap=     0.255 Goal=   None    Shift=    0.000
 RMSDP=6.10D-08 MaxDP=1.26D-05 DE=-2.40D-09 OVMax= 1.59D-05

 Cycle  12  Pass 1  IDiag  1:
 E= -763.812245084017     Delta-E=       -0.000000000139 Rises=F Damp=F
 DIIS: error= 9.81D-08 at cycle  12 NSaved=  11.
 NSaved=11 IEnMin=11 EnMin= -763.812245084017     IErMin=11 ErrMin= 9.81D-08
 ErrMax= 9.81D-08  0.00D+00 EMaxC= 1.00D-01 BMatC= 1.11D-12 BMatP= 6.12D-11
 IDIUse=1 WtCom= 1.00D+00 WtEn= 0.00D+00
 Coeff-Com: -0.120D-08 0.698D-04-0.291D-03 0.769D-04 0.875D-03 0.785D-03
 Coeff-Com: -0.871D-02 0.298D-01-0.670D-01-0.871D-01 0.113D+01
 Coeff:     -0.120D-08 0.698D-04-0.291D-03 0.769D-04 0.875D-03 0.785D-03
 Coeff:     -0.871D-02 0.298D-01-0.670D-01-0.871D-01 0.113D+01
 Gap=     0.255 Goal=   None    Shift=    0.000
 RMSDP=1.20D-08 MaxDP=2.19D-06 DE=-1.39D-10 OVMax= 2.11D-06

 Cycle  13  Pass 1  IDiag  1:
 E= -763.812245084021     Delta-E=       -0.000000000003 Rises=F Damp=F
 DIIS: error= 1.75D-08 at cycle  13 NSaved=  12.
 NSaved=12 IEnMin=12 EnMin= -763.812245084021     IErMin=12 ErrMin= 1.75D-08
 ErrMax= 1.75D-08  0.00D+00 EMaxC= 1.00D-01 BMatC= 2.93D-14 BMatP= 1.11D-12
 IDIUse=1 WtCom= 1.00D+00 WtEn= 0.00D+00
 Coeff-Com:  0.227D-09-0.133D-04 0.547D-04-0.190D-04-0.159D-03-0.147D-03
 Coeff-Com:  0.156D-02-0.578D-02 0.137D-01 0.994D-02-0.276D+00 0.126D+01
 Coeff:      0.227D-09-0.133D-04 0.547D-04-0.190D-04-0.159D-03-0.147D-03
 Coeff:      0.156D-02-0.578D-02 0.137D-01 0.994D-02-0.276D+00 0.126D+01
 Gap=     0.255 Goal=   None    Shift=    0.000
 RMSDP=3.22D-09 MaxDP=4.51D-07 DE=-3.30D-12 OVMax= 8.51D-07

 SCF Done:  E(ROHF) =  -763.812245084     A.U. after   13 cycles
            NFock= 13  Conv=0.32D-08     -V/T= 1.9726
 <Sx>= 0.0000 <Sy>= 0.0000 <Sz>= 0.0000 <S**2>=-0.0000 S=-0.0000
 <L.S>=  0.00000000000    
 KE= 7.853340911253D+02 PE=-1.838465089175D+03 EE= 2.842675159523D+02
 Annihilation of the first spin contaminant:
 S**2 before annihilation    -0.0000,   after     0.0000
 Leave Link  502 at Wed Feb 14 18:56:56 2018, MaxMem=  8589934592 cpu:            4743.9 elap:             156.9
 (Enter /home1/apps/gaussian/16rA.03/g16/l801.exe)
 Windowed orbitals will be sorted by symmetry type.
 An orbital has undefined symmetry, so N**3 symmetry is turned off.
 GenMOA:  NOpAll=  4 NOp2=4 NOpUse=  4 JSym2X=1
 FoFJK:  IHMeth= 1 ICntrl=       0 DoSepK=F KAlg= 0 I1Cent=           0 FoldK=F
 IRaf=         0 NMat=       1 IRICut=       1 DoRegI=T DoRafI=F ISym2E= 1 IDoP0=0 IntGTp=1.
 FoFCou: FMM=F IPFlag=           8 FMFlag=      100000 FMFlg1=           0
         NFxFlg=           0 DoJE=F BraDBF=F KetDBF=F FulRan=T
         wScrn=  0.000000 ICntrl=         0 IOpCl=  1 I1Cent=           0 NGrid=           0
         NMat0=    1 NMatS0=      1 NMatT0=    0 NMatD0=    1 NMtDS0=    0 NMtDT0=    0
 Petite list used in FoFCou.
 <Sx>= 0.0000 <Sy>= 0.0000 <Sz>= 0.0000 <S**2>=-0.0000 S=-0.0000
 ExpMin= 8.76D-03 ExpMax= 1.19D+08 ExpMxC= 1.19D+08 IAcc=4 IRadAn=    399590 AccDes= 0.00D+00
 HarFok:  IExCor=  205 AccDes= 0.00D+00 IRadAn=    399590 IDoV=-2 UseB2=F ITyADJ=14
 ICtDFT= 12500011 ScaDFX=  1.000000  1.000000  1.000000  1.000000
 Spurious integrated density or basis function:
 NE=   22 NElCor=    0 El error=5.90D-09 rel=2.68D-10 Tolerance=1.00D-03
 Shell     1     absolute error=5.76D-02              Tolerance=1.20D-02
 Shell     1       signed error=5.76D-02              Tolerance=1.00D-01
 Largest valence mixing into a core orbital is  2.80D-04
 Largest core mixing into a valence orbital is  1.20D-04
 Largest valence mixing into a core orbital is  2.80D-04
 Largest core mixing into a valence orbital is  1.20D-04
 Range of M.O.s used for correlation:     6   426
 NBasis=   428 NAE=    11 NBE=    11 NFC=     5 NFV=     0
 NROrb=    421 NOA=     6 NOB=     6 NVA=   415 NVB=   415

 **** Warning!!: The largest alpha MO coefficient is  0.26611626D+03


 **** Warning!!: The largest beta MO coefficient is  0.26611626D+03

 Singles contribution to E2=   -0.6158317405D-14
 Leave Link  801 at Wed Feb 14 18:57:53 2018, MaxMem=  8589934592 cpu:            1809.3 elap:              56.6
 (Enter /home1/apps/gaussian/16rA.03/g16/l804.exe)
 Open-shell transformation, MDV=  8589934592 ITran=4 ISComp=1.
 Unit  1 TFree=       5606058 TCopy=       4347995.
 Semi-Direct transformation.
 ModeAB=           2 MOrb=             6 LenV=    8584528814
 LASXX=    221429595 LTotXX=   221429595 LenRXX=   221429595
 LTotAB=   223054641 MaxLAS=   456955926 LenRXY=   456955926
 NonZer=   463743288 LenScr=   698343424 LnRSAI=           0
 LnScr1=           0 LExtra=    13136146 Total=   1389865091
 MaxDsk= 67108864000 SrtSym=           F ITran=            4
 DoSDTr:  NPSUse= 32
 JobTyp=1 Pass  1:  I=   1 to   6.
 (rs|ai) integrals will be sorted in core.
 Complete sort for first half transformation.
 First half transformation complete.
 Complete sort for second half transformation.
 Second half transformation complete.
 ModeAB=           2 MOrb=             6 LenV=    8584528814
 LASXX=    221429595 LTotXX=   221429595 LenRXX=   456955926
 LTotAB=   216749520 MaxLAS=   456955926 LenRXY=   216749520
 NonZer=   463743288 LenScr=   698343424 LnRSAI=           0
 LnScr1=           0 LExtra=   691521667 Total=   2063570537
 MaxDsk= 67108864000 SrtSym=           F ITran=            4
 DoSDTr:  NPSUse= 32
 JobTyp=2 Pass  1:  I=   1 to   6.
 (rs|ai) integrals will be sorted in core.
 Complete sort for first half transformation.
 First half transformation complete.
 Complete sort for second half transformation.
 Second half transformation complete.
 SymMOI:  orbitals are not symmetric.
 Spin components of T(2) and E(2):
     alpha-alpha T2 =       0.1108744118D-01 E2=     -0.4487821072D-01
     alpha-beta  T2 =       0.9610168198D-01 E2=     -0.3058492728D+00
     beta-beta   T2 =       0.1108744118D-01 E2=     -0.4487821072D-01
 ANorm=    0.1057485964D+01
 E2 =    -0.3956056942D+00 EUMP2 =    -0.76420785077824D+03
 (S**2,0)=  0.00000D+00           (S**2,1)=  0.00000D+00
 E(PUHF)=      -0.76381224508D+03        E(PMP2)=      -0.76420785078D+03
 Leave Link  804 at Wed Feb 14 19:23:00 2018, MaxMem=  8589934592 cpu:           48202.6 elap:            1506.3
 (Enter /home1/apps/gaussian/16rA.03/g16/l913.exe)
 CIDS:  MDV=  8589934592.
 Frozen-core window:  NFC=   5 NFV=   0.
 IFCWin=0 IBDFC=1 NFBD=     0     0 NFCmp=     0     0 NFFFC=     0     0
 Using original routines for 1st iteration.
 Using DD4UQ or CC4UQ for 2nd and later iterations.
 Keep R2 and R3 ints in memory in symmetry-blocked form, NReq=5277883541.
 FoFCou: FMM=F IPFlag=           8 FMFlag=           0 FMFlg1=           0
         NFxFlg=           0 DoJE=F BraDBF=F KetDBF=F FulRan=T
         wScrn=  0.000000 ICntrl=       600 IOpCl=  0 I1Cent=           0 NGrid=           0
         NMat0=    1 NMatS0=  91806 NMatT0=    0 NMatD0=    1 NMtDS0=    0 NMtDT0=    0
 Petite list used in FoFCou.
 CIDS: In Core Option IDoMem=           1.
 CCSD(T)
 =======
 Iterations= 150 Convergence= 0.100D-06
 Produce multiple copies of IABC intergrals
 Iteration Nr.   1
 **********************
 DD1Dir will call FoFMem   1 times, MxPair=       102
 NAB=    36 NAA=    15 NBB=    15.
 DD1Dir will call FoFMem   1 times, MxPair=       102
 NAB=    36 NAA=    15 NBB=    15.
 MP4(R+Q)=  0.32453280D-01
 Maximum subspace dimension=  5
 A-vector RMS=  1.8659508D-05 Max=  5.6815807D-03 conv= 1.00D-05.
 RLE energy=       -0.3848330871
 E3=       -0.21379116D-01        EROMP3=      -0.76422922989D+03
 E4(SDQ)=  -0.37822017D-02        ROMP4(SDQ)=  -0.76423301210D+03
 VARIATIONAL ENERGIES WITH THE FIRST-ORDER WAVEFUNCTION:
 DE(Corr)= -0.38453153     E(Corr)=     -764.19677661    
 NORM(A)=   0.10511945D+01
 Iteration Nr.   2
 **********************
 DD1Dir will call FoFMem   1 times, MxPair=       102
 NAB=    36 NAA=    15 NBB=    15.
 A-vector RMS=  2.9326533D-03 Max=  3.5156788D-02 conv= 1.00D-05.
 RLE energy=       -0.3912525825
 DE(Corr)= -0.40494300     E(CORR)=     -764.21718809     Delta=-2.04D-02
 NORM(A)=   0.10555886D+01
 Iteration Nr.   3
 **********************
 DD1Dir will call FoFMem   1 times, MxPair=       102
 NAB=    36 NAA=    15 NBB=    15.
 A-vector RMS=  2.1774777D-03 Max=  2.6604163D-02 conv= 1.00D-05.
 RLE energy=       -0.4009629474
 DE(Corr)= -0.40865559     E(CORR)=     -764.22090067     Delta=-3.71D-03
 NORM(A)=   0.10635562D+01
 Iteration Nr.   4
 **********************
 DD1Dir will call FoFMem   1 times, MxPair=       102
 NAB=    36 NAA=    15 NBB=    15.
 A-vector RMS=  2.0711405D-03 Max=  2.4802506D-02 conv= 1.00D-05.
 RLE energy=       -0.4344854566
 DE(Corr)= -0.41143168     E(CORR)=     -764.22367677     Delta=-2.78D-03
 NORM(A)=   0.11331876D+01
 Iteration Nr.   5
 **********************
 DD1Dir will call FoFMem   1 times, MxPair=       102
 NAB=    36 NAA=    15 NBB=    15.
 A-vector RMS=  1.1469179D-03 Max=  9.4571849D-03 conv= 1.00D-05.
 RLE energy=       -0.4317843342
 DE(Corr)= -0.42810619     E(CORR)=     -764.24035127     Delta=-1.67D-02
 NORM(A)=   0.11361024D+01
 Iteration Nr.   6
 **********************
 DD1Dir will call FoFMem   1 times, MxPair=       102
 NAB=    36 NAA=    15 NBB=    15.
 A-vector RMS=  6.2770128D-04 Max=  6.0802164D-03 conv= 1.00D-05.
 RLE energy=       -0.4223370835
 DE(Corr)= -0.42668136     E(CORR)=     -764.23892644     Delta= 1.42D-03
 NORM(A)=   0.11150234D+01
 Iteration Nr.   7
 **********************
 DD1Dir will call FoFMem   1 times, MxPair=       102
 NAB=    36 NAA=    15 NBB=    15.
 A-vector RMS=  2.8580151D-04 Max=  4.4490675D-03 conv= 1.00D-05.
 RLE energy=       -0.4228695763
 DE(Corr)= -0.42228131     E(CORR)=     -764.23452639     Delta= 4.40D-03
 NORM(A)=   0.11254395D+01
 Iteration Nr.   8
 **********************
 DD1Dir will call FoFMem   1 times, MxPair=       102
 NAB=    36 NAA=    15 NBB=    15.
 A-vector RMS=  7.5436982D-05 Max=  7.0776026D-04 conv= 1.00D-05.
 RLE energy=       -0.4227630799
 DE(Corr)= -0.42294794     E(CORR)=     -764.23519302     Delta=-6.67D-04
 NORM(A)=   0.11253301D+01
 Iteration Nr.   9
 **********************
 DD1Dir will call FoFMem   1 times, MxPair=       102
 NAB=    36 NAA=    15 NBB=    15.
 A-vector RMS=  8.4602963D-05 Max=  1.1172975D-03 conv= 1.00D-05.
 RLE energy=       -0.4227780455
 DE(Corr)= -0.42273271     E(CORR)=     -764.23497780     Delta= 2.15D-04
 NORM(A)=   0.11271079D+01
 Iteration Nr.  10
 **********************
 DD1Dir will call FoFMem   1 times, MxPair=       102
 NAB=    36 NAA=    15 NBB=    15.
 A-vector RMS=  2.1131884D-05 Max=  2.5598929D-04 conv= 1.00D-05.
 RLE energy=       -0.4227247186
 DE(Corr)= -0.42277248     E(CORR)=     -764.23501757     Delta=-3.98D-05
 NORM(A)=   0.11270386D+01
 Iteration Nr.  11
 **********************
 DD1Dir will call FoFMem   1 times, MxPair=       102
 NAB=    36 NAA=    15 NBB=    15.
 A-vector RMS=  1.8545119D-05 Max=  2.6251710D-04 conv= 1.00D-05.
 RLE energy=       -0.4227561750
 DE(Corr)= -0.42273772     E(CORR)=     -764.23498280     Delta= 3.48D-05
 NORM(A)=   0.11272703D+01
 Iteration Nr.  12
 **********************
 DD1Dir will call FoFMem   1 times, MxPair=       102
 NAB=    36 NAA=    15 NBB=    15.
 A-vector RMS=  7.4315155D-06 Max=  9.6141017D-05 conv= 1.00D-05.
 RLE energy=       -0.4227337511
 DE(Corr)= -0.42272602     E(CORR)=     -764.23497111     Delta= 1.17D-05
 NORM(A)=   0.11273021D+01
 Iteration Nr.  13
 **********************
 DD1Dir will call FoFMem   1 times, MxPair=       102
 NAB=    36 NAA=    15 NBB=    15.
 A-vector RMS=  3.1204515D-06 Max=  3.8763747D-05 conv= 1.00D-05.
 RLE energy=       -0.4227410086
 DE(Corr)= -0.42273867     E(CORR)=     -764.23498375     Delta=-1.26D-05
 NORM(A)=   0.11273543D+01
 Iteration Nr.  14
 **********************
 DD1Dir will call FoFMem   1 times, MxPair=       102
 NAB=    36 NAA=    15 NBB=    15.
 A-vector RMS=  1.9512230D-06 Max=  1.9744910D-05 conv= 1.00D-05.
 RLE energy=       -0.4227379784
 DE(Corr)= -0.42273801     E(CORR)=     -764.23498309     Delta= 6.62D-07
 NORM(A)=   0.11273903D+01
 Iteration Nr.  15
 **********************
 DD1Dir will call FoFMem   1 times, MxPair=       102
 NAB=    36 NAA=    15 NBB=    15.
 A-vector RMS=  7.6692337D-07 Max=  7.8400044D-06 conv= 1.00D-05.
 RLE energy=       -0.4227401932
 DE(Corr)= -0.42274053     E(CORR)=     -764.23498561     Delta=-2.52D-06
 NORM(A)=   0.11273997D+01
 Iteration Nr.  16
 **********************
 DD1Dir will call FoFMem   1 times, MxPair=       102
 NAB=    36 NAA=    15 NBB=    15.
 A-vector RMS=  6.8996713D-07 Max=  8.5134222D-06 conv= 1.00D-05.
 RLE energy=       -0.4227398811
 DE(Corr)= -0.42273983     E(CORR)=     -764.23498492     Delta= 6.96D-07
 NORM(A)=   0.11274065D+01
 Iteration Nr.  17
 **********************
 DD1Dir will call FoFMem   1 times, MxPair=       102
 NAB=    36 NAA=    15 NBB=    15.
 A-vector RMS=  3.8317178D-07 Max=  5.7401737D-06 conv= 1.00D-05.
 RLE energy=       -0.4227393635
 DE(Corr)= -0.42273982     E(CORR)=     -764.23498491     Delta= 9.84D-09
 NORM(A)=   0.11274125D+01
 CI/CC converged in   17 iterations to DelEn= 9.84D-09 Conv= 1.00D-07 ErrA1= 3.83D-07 Conv= 1.00D-05
 Wavefunction amplitudes converged. E(Corr)=     -764.23498491    
 Dominant configurations:
 ***********************
 Spin Case        I    J    A    B          Value
    AA           11        14            0.105633D+00
    AA           11        21            0.121765D+00
    BB           11        14            0.105633D+00
    BB           11        21            0.121765D+00
 Largest amplitude= 1.22D-01
 Time for triples=    68579.67 seconds.
 T4(CCSD)= -0.22312075D-01
 T5(CCSD)=  0.30361664D-02
 CCSD(T)= -0.76425426082D+03
 Discarding MO integrals.
 Leave Link  913 at Wed Feb 14 20:25:41 2018, MaxMem=  8589934592 cpu:          120087.4 elap:            3760.7
 (Enter /home1/apps/gaussian/16rA.03/g16/l601.exe)
 Copying SCF densities to generalized density rwf, IOpCl= 0 IROHF=1.

 **********************************************************************

            Population analysis using the SCF density.

 **********************************************************************

 Orbital symmetries:
       Occupied  (SG) (SG) (PI) (PI) (SG) (SG) (PI) (PI) (SG) (SG)
                 (SG)
       Virtual   (PI) (PI) (SG) (SG) (DLTA) (DLTA) (PI) (PI) (SG)
                 (SG) (PI) (PI) (DLTA) (DLTA) (PI) (PI) (SG) (SG)
                 (DLTA) (DLTA) (PI) (PI) (SG) (PHI) (PHI) (PI)
                 (PI) (DLTA) (DLTA) (SG) (PI) (PI) (SG) (SG) (DLTA)
                 (DLTA) (PI) (PI) (SG) (PI) (PI) (SG) (DLTA) (DLTA)
                 (?A) (?A) (PHI) (PHI) (PI) (PI) (SG) (SG) (PHI)
                 (PHI) (DLTA) (DLTA) (PI) (PI) (SG) (PI) (PI) (SG)
                 (DLTA) (DLTA) (PI) (PI) (SG) (DLTA) (DLTA) (?B)
                 (?B) (SG) (PHI) (PHI) (?A) (?A) (PI) (PI) (SG)
                 (DLTA) (DLTA) (PI) (PI) (SG) (PI) (PI) (?A) (?A)
                 (PHI) (PHI) (SG) (SG) (DLTA) (DLTA) (PHI) (PHI)
                 (PI) (PI) (DLTA) (DLTA) (SG) (PI) (PI) (DLTA)
                 (DLTA) (PI) (PI) (SG) (SG) (PI) (PI) (SG) (PHI)
                 (PHI) (SG) (DLTA) (DLTA) (PI) (PI) (SG) (DLTA)
                 (DLTA) (PI) (PI) (?A) (?A) (?B) (?B) (PHI) (PHI)
                 (SG) (DLTA) (DLTA) (SG) (PI) (PI) (PI) (PI) (DLTA)
                 (DLTA) (PI) (PI) (PHI) (PHI) (SG) (DLTA) (DLTA)
                 (SG) (PI) (PI) (SG) (PI) (PI) (DLTA) (DLTA) (PHI)
                 (PHI) (?A) (?A) (SG) (?A) (?A) (PHI) (PHI) (SG)
                 (SG) (?B) (?B) (SG) (PI) (PI) (?A) (?A) (DLTA)
                 (DLTA) (SG) (PI) (PI) (SG) (PHI) (PHI) (PI) (PI)
                 (DLTA) (DLTA) (SG) (SG) (PHI) (PHI) (DLTA) (DLTA)
                 (SG) (PI) (PI) (DLTA) (DLTA) (PI) (PI) (SG) (DLTA)
                 (DLTA) (PI) (PI) (SG) (PI) (PI) (PHI) (PHI) (DLTA)
                 (DLTA) (SG) (PI) (PI) (PI) (PI) (SG) (?B) (?B)
                 (?A) (?A) (SG) (PHI) (PHI) (DLTA) (DLTA) (PI)
                 (PI) (SG) (?A) (?A) (PHI) (PHI) (DLTA) (DLTA)
                 (SG) (PI) (PI) (SG) (?B) (?B) (SG) (SG) (?A) (?A)
                 (PHI) (PHI) (DLTA) (DLTA) (PI) (PI) (SG) (DLTA)
                 (DLTA) (PI) (PI) (SG) (SG) (PI) (PI) (SG) (PHI)
                 (PHI) (DLTA) (DLTA) (SG) (?A) (?A) (PI) (PI) (PHI)
                 (PHI) (DLTA) (DLTA) (PI) (PI) (SG) (SG) (PHI)
                 (PHI) (DLTA) (DLTA) (PI) (PI) (DLTA) (DLTA) (SG)
                 (PI) (PI) (SG) (DLTA) (DLTA) (PI) (PI) (SG) (?A)
                 (?A) (PHI) (PHI) (DLTA) (DLTA) (PI) (PI) (SG)
                 (PI) (PI) (?B) (?B) (?A) (?A) (PHI) (PHI) (SG)
                 (DLTA) (DLTA) (PI) (PI) (SG) (PI) (PI) (SG) (SG)
                 (?B) (?B) (?A) (?A) (PHI) (PHI) (DLTA) (DLTA)
                 (PI) (PI) (SG) (SG) (SG) (DLTA) (DLTA) (PI) (PI)
                 (SG) (PI) (PI) (SG) (SG) (DLTA) (DLTA) (PI) (PI)
                 (SG) (SG) (PI) (PI) (SG) (SG) (DLTA) (DLTA) (PI)
                 (PI) (SG) (PI) (PI) (SG) (SG) (PI) (PI) (SG) (DLTA)
                 (DLTA) (PI) (PI) (SG) (SG) (PI) (PI) (SG) (SG)
                 (PI) (PI) (DLTA) (DLTA) (PI) (PI) (SG) (SG) (SG)
                 (SG) (PI) (PI) (SG) (SG) (PI) (PI) (SG) (SG) (PI)
                 (PI) (SG) (SG) (SG) (PI) (PI) (SG) (SG) (PI) (PI)
                 (SG) (SG) (PI) (PI) (SG) (SG) (SG) (SG) (SG) (SG)
                 (SG)
 The electronic state is 1-SG.
 Alpha  occ. eigenvalues -- -166.96003 -19.41699 -15.84039 -15.84039 -15.83200
 Alpha  occ. eigenvalues --   -2.72132  -1.69467  -1.69467  -1.69243  -0.35854
 Alpha  occ. eigenvalues --   -0.24658
 Alpha virt. eigenvalues --    0.00807   0.00807   0.01033   0.01860   0.02546
 Alpha virt. eigenvalues --    0.02546   0.02687   0.02687   0.02774   0.03359
 Alpha virt. eigenvalues --    0.03668   0.03668   0.05894   0.05894   0.06773
 Alpha virt. eigenvalues --    0.06773   0.07246   0.08288   0.09320   0.09320
 Alpha virt. eigenvalues --    0.09551   0.09551   0.09738   0.10222   0.10222
 Alpha virt. eigenvalues --    0.10335   0.10335   0.10474   0.10474   0.10558
 Alpha virt. eigenvalues --    0.13696   0.13696   0.16023   0.18803   0.21618
 Alpha virt. eigenvalues --    0.21618   0.21707   0.21707   0.22523   0.23316
 Alpha virt. eigenvalues --    0.23316   0.24907   0.25452   0.25452   0.25554
 Alpha virt. eigenvalues --    0.25554   0.25814   0.25814   0.28569   0.28569
 Alpha virt. eigenvalues --    0.31104   0.32813   0.34587   0.34587   0.34742
 Alpha virt. eigenvalues --    0.34742   0.39767   0.39767   0.42469   0.43526
 Alpha virt. eigenvalues --    0.43526   0.44547   0.49114   0.49114   0.49427
 Alpha virt. eigenvalues --    0.49427   0.50907   0.56682   0.56682   0.57604
 Alpha virt. eigenvalues --    0.57604   0.57685   0.57766   0.57766   0.57914
 Alpha virt. eigenvalues --    0.57914   0.59192   0.59192   0.63083   0.72075
 Alpha virt. eigenvalues --    0.72075   0.73040   0.73040   0.77285   0.85707
 Alpha virt. eigenvalues --    0.85707   0.88052   0.88052   0.88203   0.88203
 Alpha virt. eigenvalues --    0.90407   0.94881   0.95138   0.95138   0.98939
 Alpha virt. eigenvalues --    0.98939   1.00045   1.00045   1.03327   1.03327
 Alpha virt. eigenvalues --    1.07339   1.07552   1.07552   1.10129   1.10129
 Alpha virt. eigenvalues --    1.10821   1.10821   1.11260   1.24209   1.34926
 Alpha virt. eigenvalues --    1.34926   1.37573   1.38876   1.38876   1.51582
 Alpha virt. eigenvalues --    1.58452   1.58452   1.62610   1.62610   1.71693
 Alpha virt. eigenvalues --    1.96735   1.96735   1.98454   1.98454   1.99356
 Alpha virt. eigenvalues --    1.99356   1.99365   1.99365   2.01273   2.01273
 Alpha virt. eigenvalues --    2.12261   2.21375   2.21375   2.23458   2.26644
 Alpha virt. eigenvalues --    2.26644   2.36232   2.36232   2.37606   2.37606
 Alpha virt. eigenvalues --    2.41275   2.41275   2.43501   2.43501   2.44084
 Alpha virt. eigenvalues --    2.52477   2.52477   2.52736   2.60443   2.60443
 Alpha virt. eigenvalues --    2.64047   2.68515   2.68515   2.71372   2.71372
 Alpha virt. eigenvalues --    2.74589   2.74589   2.74856   2.74856   2.80899
 Alpha virt. eigenvalues --    2.86406   2.86406   2.88460   2.88460   2.97208
 Alpha virt. eigenvalues --    2.97208   2.97240   2.97240   2.99679   3.04898
 Alpha virt. eigenvalues --    3.04898   3.15219   3.15219   3.16916   3.16916
 Alpha virt. eigenvalues --    3.31033   3.38057   3.38057   3.53779   3.54524
 Alpha virt. eigenvalues --    3.54524   3.86409   3.86409   3.92465   3.92465
 Alpha virt. eigenvalues --    3.93046   4.06936   4.32406   4.32406   4.47864
 Alpha virt. eigenvalues --    4.47864   4.51942   4.72174   4.72174   4.76840
 Alpha virt. eigenvalues --    4.76840   4.91966   4.91966   5.08609   5.40875
 Alpha virt. eigenvalues --    5.40875   5.52859   5.52859   5.65583   5.67973
 Alpha virt. eigenvalues --    5.67973   5.78640   5.78640   5.87635   5.87635
 Alpha virt. eigenvalues --    5.93956   6.01820   6.01820   6.36271   6.36271
 Alpha virt. eigenvalues --    6.36709   6.59000   6.59000   6.59109   6.59109
 Alpha virt. eigenvalues --    6.60965   6.61753   6.61753   6.70327   6.70327
 Alpha virt. eigenvalues --    6.80135   6.80135   6.87496   6.89586   6.89586
 Alpha virt. eigenvalues --    6.90304   6.90304   7.01346   7.01346   7.31937
 Alpha virt. eigenvalues --    7.45626   7.45626   7.76949   8.28172   8.28172
 Alpha virt. eigenvalues --    8.28324   8.28324   8.29048   8.29048   8.35009
 Alpha virt. eigenvalues --    8.35009   8.43015   8.43015   8.46578   8.46578
 Alpha virt. eigenvalues --    8.50465   8.81452   8.81452   8.86027   8.86027
 Alpha virt. eigenvalues --    9.02411  10.23607  10.50527  10.50527  11.65082
 Alpha virt. eigenvalues --   13.03095  13.03095  13.09756  13.09756  13.18162
 Alpha virt. eigenvalues --   13.25834  13.25834  13.26481  13.26481  13.31635
 Alpha virt. eigenvalues --   13.31635  13.41834  13.41834  13.47518  13.47518
 Alpha virt. eigenvalues --   13.50565  13.78424  13.88495  13.88495  13.95060
 Alpha virt. eigenvalues --   13.95060  14.10684  14.10684  14.11736  14.11736
 Alpha virt. eigenvalues --   14.33411  14.37246  14.37246  15.06341  15.34901
 Alpha virt. eigenvalues --   15.34901  15.39495  15.39495  15.54739  16.31185
 Alpha virt. eigenvalues --   16.31185  16.32190  16.32190  16.38579  16.38579
 Alpha virt. eigenvalues --   16.65909  16.65909  16.72490  17.16331  17.16331
 Alpha virt. eigenvalues --   17.67867  17.67867  17.68435  17.68435  17.70263
 Alpha virt. eigenvalues --   17.70263  17.74917  17.75057  17.75057  17.78796
 Alpha virt. eigenvalues --   17.78796  17.86537  18.78707  18.78707  22.07169
 Alpha virt. eigenvalues --   22.07169  22.07505  22.07505  22.08386  22.08386
 Alpha virt. eigenvalues --   22.11182  22.11182  22.14798  22.14798  22.16529
 Alpha virt. eigenvalues --   22.16529  22.17870  22.71866  25.59132  25.81951
 Alpha virt. eigenvalues --   25.81951  25.86118  25.86118  26.00805  32.46993
 Alpha virt. eigenvalues --   32.46993  33.45822  43.83356  44.98014  44.98014
 Alpha virt. eigenvalues --   45.01898  45.01898  45.13808  46.15562  54.98364
 Alpha virt. eigenvalues --   54.98364  83.14191  87.72137  90.32723  90.32723
 Alpha virt. eigenvalues --   90.35798  90.35798  90.46191  93.87819  93.87819
 Alpha virt. eigenvalues --  135.49991 155.91507 166.83281 166.83281 178.65476
 Alpha virt. eigenvalues --  220.88720 220.88720 220.90799 220.90799 220.98475
 Alpha virt. eigenvalues --  301.54124 311.87244 311.87244 367.54269 600.08129
 Alpha virt. eigenvalues --  609.47219 609.47219 700.82646 700.82646 700.83857
 Alpha virt. eigenvalues --  700.83857 700.88637 752.97761 779.068001225.72754
 Alpha virt. eigenvalues -- 1234.053031234.053031525.057882563.928112571.09220
 Alpha virt. eigenvalues -- 2571.092203036.120495475.735335481.580735481.58073
 Alpha virt. eigenvalues -- 5898.88559****************************************
 Alpha virt. eigenvalues -- **************************************************
 Alpha virt. eigenvalues -- **************************************************
 Alpha virt. eigenvalues -- **************************************************
     Molecular Orbital Coefficients:
                           7         8         9        10        11
                           O         O         O         O         O
     Eigenvalues --    -1.69467  -1.69467  -1.69243  -0.35854  -0.24658
   1 1   Sc 1S         -0.00000  -0.00000  -0.00000  -0.00000  -0.00000
   2        2S         -0.00000  -0.00000  -0.00000  -0.00000  -0.00000
   3        3S         -0.00000  -0.00000  -0.00000  -0.00000  -0.00000
   4        4S         -0.00000  -0.00000  -0.00000  -0.00000  -0.00000
   5        5S         -0.00000  -0.00000  -0.00000  -0.00000  -0.00001
   6        6S         -0.00000  -0.00000  -0.00000  -0.00001  -0.00001
   7        7S         -0.00000  -0.00000  -0.00000  -0.00001  -0.00003
   8        8S         -0.00000  -0.00000  -0.00000  -0.00003  -0.00005
   9        9S         -0.00000  -0.00000  -0.00000  -0.00007  -0.00012
  10       10S         -0.00000  -0.00000  -0.00001  -0.00015  -0.00027
  11       11S         -0.00000  -0.00000  -0.00002  -0.00034  -0.00059
  12       12S         -0.00000  -0.00000  -0.00003  -0.00076  -0.00131
  13       13S         -0.00000  -0.00000  -0.00008  -0.00158  -0.00273
  14       14S         -0.00000  -0.00000  -0.00012  -0.00313  -0.00539
  15       15S         -0.00000  -0.00000  -0.00028  -0.00536  -0.00923
  16       16S         -0.00000  -0.00000  -0.00023  -0.00756  -0.01305
  17       17S         -0.00000  -0.00000  -0.00047  -0.00556  -0.00953
  18       18S          0.00000   0.00000   0.00067   0.00366   0.00619
  19       19S         -0.00000   0.00000  -0.00018   0.02629   0.04587
  20       20S          0.00000   0.00000   0.00677   0.04055   0.06881
  21       21S          0.00000   0.00000   0.00461   0.01512   0.02319
  22       22S          0.00000   0.00000   0.00188  -0.01418  -0.02394
  23       23S          0.00000   0.00000   0.00630  -0.06305  -0.12213
  24       24S         -0.00000  -0.00000  -0.00313  -0.15896  -0.27685
  25       25S         -0.00000   0.00000   0.00633   0.01047  -0.01129
  26       26S          0.00000   0.00000   0.00077   0.19505   0.44636
  27       27S          0.00000  -0.00000  -0.00153   0.14082   0.47053
  28       28S         -0.00000   0.00000  -0.00228   0.02099   0.09312
  29       29S         -0.00000  -0.00000  -0.00641   0.01828   0.03517
  30       30S         -0.00000  -0.00000  -0.01495  -0.05185  -0.08957
  31       31S         -0.00000   0.00000  -0.00046  -0.00112   0.00019
  32       32PX         0.00000  -0.00000   0.00000  -0.00000  -0.00000
  33       32PY        -0.00000  -0.00000   0.00000  -0.00000   0.00000
  34       32PZ        -0.00000  -0.00000  -0.00000  -0.00000   0.00000
  35       33PX         0.00001  -0.00001   0.00000  -0.00000   0.00000
  36       33PY        -0.00001  -0.00001   0.00000   0.00000  -0.00000
  37       33PZ        -0.00000  -0.00000  -0.00002  -0.00000   0.00000
  38       34PX         0.00003  -0.00006   0.00000   0.00000  -0.00000
  39       34PY        -0.00006  -0.00003   0.00000  -0.00000   0.00000
  40       34PZ        -0.00000  -0.00000  -0.00007  -0.00001   0.00001
  41       35PX         0.00012  -0.00022   0.00000  -0.00000  -0.00000
  42       35PY        -0.00022  -0.00012   0.00000   0.00000  -0.00000
  43       35PZ        -0.00000  -0.00000  -0.00026  -0.00003   0.00002
  44       36PX         0.00044  -0.00080   0.00000  -0.00000  -0.00000
  45       36PY        -0.00080  -0.00044   0.00000   0.00000   0.00000
  46       36PZ        -0.00000  -0.00000  -0.00093  -0.00010   0.00007
  47       37PX         0.00141  -0.00256   0.00000  -0.00000  -0.00000
  48       37PY        -0.00256  -0.00141   0.00000   0.00000   0.00000
  49       37PZ        -0.00000  -0.00000  -0.00292  -0.00032   0.00024
  50       38PX         0.00409  -0.00742   0.00000  -0.00000  -0.00000
  51       38PY        -0.00742  -0.00409   0.00000   0.00000   0.00000
  52       38PZ        -0.00000  -0.00000  -0.00861  -0.00093   0.00070
  53       39PX         0.01048  -0.01901   0.00000  -0.00000  -0.00000
  54       39PY        -0.01901  -0.01048   0.00000   0.00000   0.00000
  55       39PZ        -0.00000  -0.00000  -0.02157  -0.00235   0.00176
  56       40PX         0.02286  -0.04145   0.00000  -0.00000  -0.00000
  57       40PY        -0.04145  -0.02286   0.00000   0.00000   0.00000
  58       40PZ        -0.00000  -0.00000  -0.04830  -0.00520   0.00393
  59       41PX         0.03985  -0.07225   0.00000  -0.00000  -0.00000
  60       41PY        -0.07225  -0.03985   0.00000   0.00000   0.00000
  61       41PZ        -0.00000  -0.00000  -0.08095  -0.00890   0.00666
  62       42PX         0.05521  -0.10009   0.00000  -0.00000  -0.00000
  63       42PY        -0.10009  -0.05521   0.00000   0.00000   0.00000
  64       42PZ        -0.00000  -0.00000  -0.12131  -0.01293   0.00988
  65       43PX         0.05338  -0.09677   0.00000  -0.00000  -0.00000
  66       43PY        -0.09677  -0.05338   0.00000   0.00000  -0.00000
  67       43PZ        -0.00000  -0.00000  -0.07552  -0.00995   0.00673
  68       44PX        -0.00089   0.00161  -0.00000   0.00000  -0.00000
  69       44PY         0.00161   0.00089  -0.00000   0.00000  -0.00000
  70       44PZ         0.00000   0.00000   0.06174   0.00541  -0.00546
  71       45PX        -0.10783   0.19549  -0.00000   0.00000   0.00000
  72       45PY         0.19549   0.10783  -0.00000  -0.00000  -0.00000
  73       45PZ         0.00000   0.00000   0.17211   0.02383  -0.01713
  74       46PX        -0.19531   0.35410  -0.00000   0.00000   0.00000
  75       46PY         0.35410   0.19531  -0.00000  -0.00000  -0.00000
  76       46PZ         0.00000   0.00000   0.25437   0.03061  -0.02045
  77       47PX        -0.17480   0.31690  -0.00000   0.00000   0.00000
  78       47PY         0.31690   0.17480  -0.00000  -0.00000  -0.00000
  79       47PZ         0.00000   0.00000   0.38444   0.06285  -0.05316
  80       48PX        -0.06099   0.11058  -0.00000  -0.00000  -0.00000
  81       48PY         0.11058   0.06099  -0.00000  -0.00000  -0.00000
  82       48PZ         0.00000   0.00000   0.11189  -0.01235  -0.00332
  83       49PX        -0.00523   0.00949  -0.00000  -0.00000  -0.00000
  84       49PY         0.00949   0.00523  -0.00000   0.00000   0.00000
  85       49PZ        -0.00000   0.00000   0.00642  -0.07934   0.13323
  86       50PX        -0.00029   0.00052  -0.00000  -0.00000  -0.00000
  87       50PY         0.00052   0.00029  -0.00000   0.00000   0.00000
  88       50PZ        -0.00000   0.00000   0.00008  -0.05870   0.16385
  89       51PX         0.00001  -0.00001   0.00000  -0.00000  -0.00000
  90       51PY        -0.00001  -0.00001   0.00000   0.00000   0.00000
  91       51PZ         0.00000   0.00000   0.00184  -0.01099   0.03068
  92       52PX         0.00085  -0.00153   0.00000  -0.00000   0.00000
  93       52PY        -0.00153  -0.00085   0.00000  -0.00000   0.00000
  94       52PZ        -0.00000  -0.00000  -0.07186  -0.00479   0.00498
  95       53PX        -0.00241   0.00437  -0.00000   0.00000  -0.00000
  96       53PY         0.00437   0.00241  -0.00000  -0.00000  -0.00000
  97       53PZ         0.00000   0.00000   0.17559   0.02139  -0.01898
  98       54PX        -0.00001   0.00001  -0.00000   0.00000  -0.00000
  99       54PY         0.00001   0.00001   0.00000   0.00000   0.00000
 100       54PZ        -0.00000  -0.00000   0.00011   0.00070  -0.00143
 101       55D 0        0.00000   0.00000   0.00000   0.00005  -0.00011
 102       55D+1        0.00000  -0.00000   0.00000  -0.00000   0.00000
 103       55D-1       -0.00000  -0.00000   0.00000  -0.00000  -0.00000
 104       55D+2       -0.00000  -0.00000  -0.00000  -0.00000   0.00000
 105       55D-2       -0.00000  -0.00000   0.00000  -0.00000   0.00000
 106       56D 0        0.00000   0.00000   0.00004   0.00045  -0.00096
 107       56D+1        0.00000  -0.00001   0.00000  -0.00000   0.00000
 108       56D-1       -0.00001  -0.00000   0.00000  -0.00000  -0.00000
 109       56D+2       -0.00000  -0.00000  -0.00000  -0.00000   0.00000
 110       56D-2       -0.00000  -0.00000   0.00000  -0.00000   0.00000
 111       57D 0        0.00000   0.00000   0.00020   0.00220  -0.00476
 112       57D+1        0.00001  -0.00003   0.00000  -0.00000  -0.00000
 113       57D-1       -0.00003  -0.00001   0.00000  -0.00000  -0.00000
 114       57D+2       -0.00000  -0.00000  -0.00000  -0.00000   0.00000
 115       57D-2       -0.00000  -0.00000   0.00000  -0.00000   0.00000
 116       58D 0        0.00000   0.00000   0.00069   0.00731  -0.01568
 117       58D+1        0.00003  -0.00006   0.00000  -0.00000   0.00000
 118       58D-1       -0.00006  -0.00003   0.00000  -0.00000  -0.00000
 119       58D+2       -0.00000  -0.00000   0.00000  -0.00000   0.00000
 120       58D-2       -0.00000  -0.00000   0.00000  -0.00000   0.00000
 121       59D 0        0.00000   0.00000   0.00196   0.01825  -0.04040
 122       59D+1        0.00013  -0.00023   0.00000  -0.00000  -0.00000
 123       59D-1       -0.00023  -0.00013   0.00000  -0.00000  -0.00000
 124       59D+2       -0.00000  -0.00000   0.00000  -0.00000   0.00000
 125       59D-2       -0.00000  -0.00000   0.00000  -0.00000   0.00000
 126       60D 0        0.00000   0.00000   0.00512   0.02894  -0.07643
 127       60D+1        0.00043  -0.00078   0.00000  -0.00000  -0.00000
 128       60D-1       -0.00078  -0.00043   0.00000  -0.00000  -0.00000
 129       60D+2       -0.00000  -0.00000   0.00000  -0.00000   0.00000
 130       60D-2       -0.00000  -0.00000   0.00000  -0.00000   0.00000
 131       61D 0        0.00000   0.00000   0.00725   0.04566  -0.11170
 132       61D+1        0.00030  -0.00054   0.00000  -0.00000  -0.00000
 133       61D-1       -0.00054  -0.00030   0.00000  -0.00000  -0.00000
 134       61D+2       -0.00000  -0.00000   0.00000  -0.00000   0.00000
 135       61D-2       -0.00000  -0.00000   0.00000  -0.00000   0.00000
 136       62D 0        0.00000   0.00000   0.00560   0.06584  -0.13248
 137       62D+1       -0.00091   0.00165  -0.00000  -0.00000  -0.00000
 138       62D-1        0.00165   0.00091  -0.00000  -0.00000  -0.00000
 139       62D+2       -0.00000  -0.00000   0.00000  -0.00000   0.00000
 140       62D-2       -0.00000  -0.00000   0.00000  -0.00000   0.00000
 141       63D 0        0.00000   0.00000   0.00277   0.06593  -0.12562
 142       63D+1       -0.00104   0.00189  -0.00000  -0.00000  -0.00000
 143       63D-1        0.00189   0.00104  -0.00000  -0.00000  -0.00000
 144       63D+2       -0.00000  -0.00000   0.00000  -0.00000  -0.00000
 145       63D-2        0.00000   0.00000   0.00000  -0.00000  -0.00000
 146       64D 0       -0.00000  -0.00000  -0.00094   0.04667  -0.08840
 147       64D+1       -0.00047   0.00085  -0.00000   0.00000  -0.00000
 148       64D-1        0.00085   0.00047  -0.00000  -0.00000   0.00000
 149       64D+2       -0.00000  -0.00000   0.00000  -0.00000  -0.00000
 150       64D-2        0.00000   0.00000   0.00000  -0.00000  -0.00000
 151       65D 0        0.00000  -0.00000  -0.00064   0.02038  -0.03188
 152       65D+1       -0.00017   0.00031  -0.00000  -0.00000  -0.00000
 153       65D-1        0.00031   0.00017  -0.00000  -0.00000   0.00000
 154       65D+2       -0.00000  -0.00000   0.00000  -0.00000  -0.00000
 155       65D-2        0.00000   0.00000  -0.00000  -0.00000  -0.00000
 156       66D 0       -0.00000  -0.00000  -0.00049   0.00245  -0.00174
 157       66D+1        0.00001  -0.00002  -0.00000  -0.00000  -0.00000
 158       66D-1       -0.00002  -0.00001   0.00000   0.00000   0.00000
 159       66D+2       -0.00000   0.00000   0.00000  -0.00000  -0.00000
 160       66D-2        0.00000  -0.00000  -0.00000  -0.00000  -0.00000
 161       67D 0       -0.00000  -0.00000  -0.00137   0.00426  -0.00085
 162       67D+1        0.00009  -0.00016   0.00000  -0.00000   0.00000
 163       67D-1       -0.00016  -0.00009   0.00000  -0.00000   0.00000
 164       67D+2       -0.00000  -0.00000   0.00000  -0.00000  -0.00000
 165       67D-2       -0.00000  -0.00000  -0.00000   0.00000  -0.00000
 166       68D 0       -0.00000  -0.00000  -0.00327   0.00847  -0.00111
 167       68D+1        0.00020  -0.00037   0.00000  -0.00000  -0.00000
 168       68D-1       -0.00037  -0.00020   0.00000  -0.00000   0.00000
 169       68D+2       -0.00000  -0.00000   0.00000  -0.00000  -0.00000
 170       68D-2       -0.00000  -0.00000   0.00000   0.00000  -0.00000
 171       69D 0        0.00000   0.00000  -0.00001  -0.00024   0.00014
 172       69D+1       -0.00000   0.00000  -0.00000  -0.00000  -0.00000
 173       69D-1        0.00000   0.00000  -0.00000   0.00000   0.00000
 174       69D+2       -0.00000   0.00000   0.00000  -0.00000   0.00000
 175       69D-2        0.00000  -0.00000  -0.00000   0.00000  -0.00000
 176       70F 0        0.00000   0.00000   0.00017  -0.00045   0.00003
 177       70F+1        0.00026  -0.00047   0.00000  -0.00000   0.00000
 178       70F-1       -0.00047  -0.00026   0.00000   0.00000   0.00000
 179       70F+2       -0.00000  -0.00000  -0.00000  -0.00000  -0.00000
 180       70F-2        0.00000   0.00000   0.00000  -0.00000  -0.00000
 181       70F+3        0.00000  -0.00000   0.00000  -0.00000   0.00000
 182       70F-3       -0.00000  -0.00000   0.00000  -0.00000   0.00000
 183       71F 0       -0.00000  -0.00000  -0.00041  -0.00126   0.00017
 184       71F+1        0.00084  -0.00152   0.00000  -0.00000   0.00000
 185       71F-1       -0.00152  -0.00084   0.00000   0.00000   0.00000
 186       71F+2       -0.00000  -0.00000  -0.00000  -0.00000  -0.00000
 187       71F-2        0.00000   0.00000   0.00000  -0.00000  -0.00000
 188       71F+3        0.00000  -0.00000   0.00000   0.00000  -0.00000
 189       71F-3       -0.00000  -0.00000   0.00000   0.00000  -0.00000
 190       72F 0        0.00000   0.00000   0.00119  -0.00464  -0.00210
 191       72F+1        0.00099  -0.00179   0.00000  -0.00000   0.00000
 192       72F-1       -0.00179  -0.00099   0.00000   0.00000   0.00000
 193       72F+2       -0.00000  -0.00000   0.00000  -0.00000  -0.00000
 194       72F-2        0.00000   0.00000   0.00000  -0.00000  -0.00000
 195       72F+3       -0.00000   0.00000  -0.00000  -0.00000   0.00000
 196       72F-3        0.00000   0.00000   0.00000  -0.00000   0.00000
 197       73F 0       -0.00000  -0.00000   0.00002  -0.01134  -0.00178
 198       73F+1        0.00089  -0.00161   0.00000  -0.00000   0.00000
 199       73F-1       -0.00161  -0.00089   0.00000   0.00000   0.00000
 200       73F+2       -0.00000   0.00000   0.00000  -0.00000  -0.00000
 201       73F-2        0.00000  -0.00000  -0.00000  -0.00000  -0.00000
 202       73F+3       -0.00000   0.00000   0.00000   0.00000   0.00000
 203       73F-3        0.00000   0.00000   0.00000   0.00000   0.00000
 204       74F 0       -0.00000   0.00000   0.00046  -0.01128   0.00019
 205       74F+1        0.00021  -0.00038   0.00000  -0.00000  -0.00000
 206       74F-1       -0.00038  -0.00021   0.00000   0.00000   0.00000
 207       74F+2       -0.00000   0.00000   0.00000  -0.00000   0.00000
 208       74F-2       -0.00000  -0.00000  -0.00000  -0.00000  -0.00000
 209       74F+3        0.00000  -0.00000  -0.00000   0.00000  -0.00000
 210       74F-3       -0.00000  -0.00000  -0.00000  -0.00000   0.00000
 211       75F 0        0.00000   0.00000   0.00023  -0.00233   0.00024
 212       75F+1        0.00001  -0.00001   0.00000  -0.00000  -0.00000
 213       75F-1       -0.00001  -0.00001  -0.00000   0.00000   0.00000
 214       75F+2       -0.00000   0.00000   0.00000  -0.00000   0.00000
 215       75F-2        0.00000  -0.00000  -0.00000   0.00000  -0.00000
 216       75F+3        0.00000  -0.00000  -0.00000  -0.00000   0.00000
 217       75F-3       -0.00000  -0.00000  -0.00000   0.00000   0.00000
 218       76G 0        0.00000  -0.00000  -0.00009  -0.00001   0.00018
 219       76G+1        0.00003  -0.00006   0.00000   0.00000  -0.00000
 220       76G-1       -0.00006  -0.00003   0.00000  -0.00000  -0.00000
 221       76G+2        0.00000   0.00000   0.00000   0.00000   0.00000
 222       76G-2        0.00000  -0.00000  -0.00000   0.00000   0.00000
 223       76G+3       -0.00000   0.00000   0.00000   0.00000  -0.00000
 224       76G-3        0.00000   0.00000  -0.00000  -0.00000   0.00000
 225       76G+4        0.00000  -0.00000   0.00000   0.00000  -0.00000
 226       76G-4        0.00000   0.00000  -0.00000  -0.00000  -0.00000
 227       77G 0        0.00000   0.00000   0.00003  -0.00014   0.00048
 228       77G+1       -0.00003   0.00005  -0.00000  -0.00000   0.00000
 229       77G-1        0.00005   0.00003  -0.00000  -0.00000   0.00000
 230       77G+2        0.00000   0.00000   0.00000   0.00000   0.00000
 231       77G-2       -0.00000  -0.00000  -0.00000   0.00000   0.00000
 232       77G+3       -0.00000   0.00000  -0.00000  -0.00000   0.00000
 233       77G-3        0.00000   0.00000   0.00000   0.00000  -0.00000
 234       77G+4        0.00000   0.00000  -0.00000  -0.00000   0.00000
 235       77G-4        0.00000   0.00000  -0.00000  -0.00000   0.00000
 236       78G 0        0.00000   0.00000   0.00062   0.00182   0.00017
 237       78G+1       -0.00025   0.00045  -0.00000   0.00000  -0.00000
 238       78G-1        0.00045   0.00025  -0.00000  -0.00000  -0.00000
 239       78G+2        0.00000   0.00000   0.00000   0.00000  -0.00000
 240       78G-2       -0.00000  -0.00000  -0.00000   0.00000   0.00000
 241       78G+3        0.00000  -0.00000   0.00000   0.00000  -0.00000
 242       78G-3       -0.00000  -0.00000  -0.00000  -0.00000   0.00000
 243       78G+4        0.00000  -0.00000   0.00000   0.00000  -0.00000
 244       78G-4        0.00000   0.00000  -0.00000  -0.00000  -0.00000
 245       79G 0        0.00000   0.00000   0.00015   0.00093   0.00087
 246       79G+1       -0.00001   0.00003  -0.00000   0.00000   0.00000
 247       79G-1        0.00003   0.00001   0.00000  -0.00000  -0.00000
 248       79G+2        0.00000  -0.00000  -0.00000   0.00000  -0.00000
 249       79G-2       -0.00000   0.00000   0.00000   0.00000   0.00000
 250       79G+3       -0.00000   0.00000  -0.00000  -0.00000   0.00000
 251       79G-3        0.00000   0.00000  -0.00000   0.00000  -0.00000
 252       79G+4        0.00000   0.00000   0.00000   0.00000  -0.00000
 253       79G-4        0.00000   0.00000  -0.00000  -0.00000  -0.00000
 254       80G 0       -0.00000  -0.00000  -0.00011   0.00152   0.00012
 255       80G+1       -0.00003   0.00005  -0.00000   0.00000   0.00000
 256       80G-1        0.00005   0.00003   0.00000  -0.00000  -0.00000
 257       80G+2        0.00000  -0.00000  -0.00000   0.00000  -0.00000
 258       80G-2        0.00000   0.00000   0.00000  -0.00000   0.00000
 259       80G+3       -0.00000   0.00000   0.00000   0.00000  -0.00000
 260       80G-3        0.00000   0.00000   0.00000  -0.00000   0.00000
 261       80G+4       -0.00000  -0.00000  -0.00000   0.00000   0.00000
 262       80G-4        0.00000   0.00000  -0.00000  -0.00000  -0.00000
 263       81H 0       -0.00000  -0.00000  -0.00008  -0.00001   0.00007
 264       81H+1        0.00003  -0.00005   0.00000   0.00000  -0.00000
 265       81H-1       -0.00005  -0.00003   0.00000  -0.00000   0.00000
 266       81H+2        0.00000  -0.00000   0.00000   0.00000  -0.00000
 267       81H-2        0.00000   0.00000   0.00000  -0.00000  -0.00000
 268       81H+3       -0.00000   0.00000   0.00000   0.00000  -0.00000
 269       81H-3        0.00000   0.00000  -0.00000  -0.00000   0.00000
 270       81H+4       -0.00000   0.00000   0.00000   0.00000  -0.00000
 271       81H-4        0.00000   0.00000  -0.00000  -0.00000   0.00000
 272       81H+5       -0.00000   0.00000  -0.00000  -0.00000   0.00000
 273       81H-5        0.00000   0.00000  -0.00000  -0.00000   0.00000
 274       82H 0       -0.00000  -0.00000  -0.00014  -0.00017  -0.00004
 275       82H+1        0.00006  -0.00012   0.00000  -0.00000   0.00000
 276       82H-1       -0.00012  -0.00006   0.00000   0.00000   0.00000
 277       82H+2       -0.00000  -0.00000   0.00000  -0.00000  -0.00000
 278       82H-2        0.00000   0.00000   0.00000  -0.00000  -0.00000
 279       82H+3       -0.00000   0.00000  -0.00000  -0.00000   0.00000
 280       82H-3        0.00000   0.00000   0.00000   0.00000  -0.00000
 281       82H+4        0.00000  -0.00000  -0.00000  -0.00000   0.00000
 282       82H-4       -0.00000   0.00000   0.00000  -0.00000   0.00000
 283       82H+5       -0.00000   0.00000   0.00000   0.00000  -0.00000
 284       82H-5        0.00000   0.00000   0.00000   0.00000  -0.00000
 285       83H 0       -0.00000  -0.00000  -0.00005   0.00036  -0.00085
 286       83H+1       -0.00001   0.00002  -0.00000  -0.00000  -0.00000
 287       83H-1        0.00002   0.00001  -0.00000   0.00000   0.00000
 288       83H+2       -0.00000   0.00000  -0.00000  -0.00000  -0.00000
 289       83H-2        0.00000   0.00000   0.00000  -0.00000  -0.00000
 290       83H+3        0.00000  -0.00000   0.00000   0.00000  -0.00000
 291       83H-3       -0.00000  -0.00000   0.00000  -0.00000   0.00000
 292       83H+4        0.00000   0.00000   0.00000   0.00000   0.00000
 293       83H-4        0.00000   0.00000   0.00000   0.00000  -0.00000
 294       83H+5       -0.00000   0.00000  -0.00000  -0.00000   0.00000
 295       83H-5       -0.00000  -0.00000  -0.00000  -0.00000   0.00000
 296       84H 0       -0.00000  -0.00000  -0.00006   0.00037  -0.00034
 297       84H+1        0.00001  -0.00001   0.00000  -0.00000  -0.00000
 298       84H-1       -0.00001  -0.00001  -0.00000   0.00000   0.00000
 299       84H+2       -0.00000   0.00000   0.00000  -0.00000   0.00000
 300       84H-2        0.00000  -0.00000  -0.00000  -0.00000  -0.00000
 301       84H+3        0.00000  -0.00000  -0.00000   0.00000  -0.00000
 302       84H-3       -0.00000  -0.00000  -0.00000   0.00000   0.00000
 303       84H+4       -0.00000  -0.00000  -0.00000  -0.00000   0.00000
 304       84H-4        0.00000  -0.00000   0.00000   0.00000  -0.00000
 305       84H+5       -0.00000  -0.00000  -0.00000   0.00000  -0.00000
 306       84H-5        0.00000   0.00000  -0.00000   0.00000  -0.00000
 307       85I 0        0.00000  -0.00000   0.00000  -0.00002   0.00003
 308       85I+1       -0.00000   0.00000  -0.00000   0.00000  -0.00000
 309       85I-1        0.00000   0.00000  -0.00000  -0.00000  -0.00000
 310       85I+2        0.00000   0.00000   0.00000   0.00000  -0.00000
 311       85I-2       -0.00000  -0.00000  -0.00000   0.00000   0.00000
 312       85I+3        0.00000  -0.00000   0.00000   0.00000  -0.00000
 313       85I-3       -0.00000  -0.00000   0.00000   0.00000  -0.00000
 314       85I+4        0.00000  -0.00000   0.00000   0.00000  -0.00000
 315       85I-4        0.00000  -0.00000  -0.00000  -0.00000   0.00000
 316       85I+5        0.00000   0.00000  -0.00000  -0.00000   0.00000
 317       85I-5       -0.00000   0.00000   0.00000   0.00000  -0.00000
 318       85I+6        0.00000  -0.00000  -0.00000   0.00000  -0.00000
 319       85I-6       -0.00000  -0.00000  -0.00000  -0.00000   0.00000
 320       86I 0       -0.00000   0.00000  -0.00001   0.00000   0.00010
 321       86I+1       -0.00000   0.00000  -0.00000   0.00000  -0.00000
 322       86I-1        0.00000   0.00000   0.00000  -0.00000  -0.00000
 323       86I+2       -0.00000   0.00000   0.00000   0.00000  -0.00000
 324       86I-2       -0.00000  -0.00000  -0.00000   0.00000   0.00000
 325       86I+3        0.00000  -0.00000  -0.00000  -0.00000   0.00000
 326       86I-3       -0.00000  -0.00000  -0.00000  -0.00000   0.00000
 327       86I+4       -0.00000   0.00000  -0.00000  -0.00000   0.00000
 328       86I-4       -0.00000   0.00000   0.00000   0.00000  -0.00000
 329       86I+5        0.00000  -0.00000   0.00000   0.00000  -0.00000
 330       86I-5       -0.00000  -0.00000  -0.00000  -0.00000   0.00000
 331       86I+6       -0.00000   0.00000  -0.00000   0.00000  -0.00000
 332       86I-6        0.00000   0.00000   0.00000   0.00000  -0.00000
 333       87I 0        0.00000  -0.00000   0.00005  -0.00027   0.00018
 334       87I+1        0.00000  -0.00001   0.00000   0.00000  -0.00000
 335       87I-1       -0.00001  -0.00000   0.00000  -0.00000  -0.00000
 336       87I+2        0.00000   0.00000   0.00000   0.00000  -0.00000
 337       87I-2       -0.00000  -0.00000  -0.00000   0.00000   0.00000
 338       87I+3        0.00000  -0.00000   0.00000   0.00000  -0.00000
 339       87I-3       -0.00000  -0.00000  -0.00000   0.00000  -0.00000
 340       87I+4        0.00000  -0.00000   0.00000   0.00000  -0.00000
 341       87I-4        0.00000   0.00000   0.00000  -0.00000   0.00000
 342       87I+5       -0.00000   0.00000   0.00000  -0.00000   0.00000
 343       87I-5       -0.00000   0.00000   0.00000   0.00000  -0.00000
 344       87I+6        0.00000  -0.00000  -0.00000  -0.00000   0.00000
 345       87I-6        0.00000   0.00000  -0.00000  -0.00000   0.00000
 346 2   H  1S         -0.00000  -0.00000  -0.00000   0.00021  -0.00005
 347        2S         -0.00000  -0.00000  -0.00004   0.00158  -0.00036
 348        3S         -0.00000  -0.00000  -0.00018   0.00804  -0.00186
 349        4S         -0.00000  -0.00000  -0.00079   0.03178  -0.00734
 350        5S         -0.00000  -0.00000  -0.00171   0.09182  -0.02152
 351        6S         -0.00000  -0.00000  -0.00445   0.19366  -0.04640
 352        7S         -0.00000  -0.00000  -0.00790   0.30791  -0.06682
 353        8S         -0.00000   0.00000   0.00107   0.17105  -0.04587
 354        9S          0.00000  -0.00000   0.00253   0.00235  -0.00630
[...]
 208       74F-2        0.00000   0.00000   0.00000   0.00000
 209       74F+3        0.00000   0.00000   0.00000   0.00000
 210       74F-3        0.00000   0.00000   0.00000   0.00000
 211       75F 0        0.00043   0.00022   0.00022   0.00000
 212       75F+1        0.00000   0.00000   0.00000   0.00000
 213       75F-1        0.00000   0.00000   0.00000   0.00000
 214       75F+2        0.00000   0.00000   0.00000   0.00000
 215       75F-2        0.00000   0.00000   0.00000   0.00000
 216       75F+3        0.00000   0.00000   0.00000   0.00000
 217       75F-3        0.00000   0.00000   0.00000   0.00000
 218       76G 0        0.00000   0.00000   0.00000   0.00000
 219       76G+1       -0.00000  -0.00000  -0.00000   0.00000
 220       76G-1       -0.00000  -0.00000  -0.00000   0.00000
 221       76G+2        0.00000   0.00000   0.00000   0.00000
 222       76G-2        0.00000   0.00000   0.00000   0.00000
 223       76G+3        0.00000   0.00000   0.00000   0.00000
 224       76G-3        0.00000   0.00000   0.00000   0.00000
 225       76G+4       -0.00000  -0.00000  -0.00000   0.00000
 226       76G-4        0.00000   0.00000   0.00000   0.00000
 227       77G 0       -0.00000  -0.00000  -0.00000   0.00000
 228       77G+1        0.00000   0.00000   0.00000   0.00000
 229       77G-1        0.00000   0.00000   0.00000   0.00000
 230       77G+2        0.00000   0.00000   0.00000   0.00000
 231       77G-2        0.00000   0.00000   0.00000   0.00000
 232       77G+3       -0.00000  -0.00000  -0.00000   0.00000
 233       77G-3        0.00000   0.00000   0.00000   0.00000
 234       77G+4        0.00000   0.00000   0.00000   0.00000
 235       77G-4        0.00000   0.00000   0.00000   0.00000
 236       78G 0        0.00011   0.00006   0.00006   0.00000
 237       78G+1        0.00000   0.00000   0.00000   0.00000
 238       78G-1        0.00000   0.00000   0.00000   0.00000
 239       78G+2        0.00000   0.00000   0.00000   0.00000
 240       78G-2        0.00000   0.00000   0.00000   0.00000
 241       78G+3        0.00000   0.00000   0.00000   0.00000
 242       78G-3       -0.00000  -0.00000  -0.00000   0.00000
 243       78G+4       -0.00000  -0.00000  -0.00000   0.00000
 244       78G-4        0.00000   0.00000   0.00000   0.00000
 245       79G 0        0.00026   0.00013   0.00013   0.00000
 246       79G+1        0.00000   0.00000   0.00000   0.00000
 247       79G-1        0.00000   0.00000   0.00000   0.00000
 248       79G+2        0.00000   0.00000   0.00000   0.00000
 249       79G-2        0.00000   0.00000   0.00000   0.00000
 250       79G+3        0.00000   0.00000   0.00000   0.00000
 251       79G-3        0.00000   0.00000   0.00000   0.00000
 252       79G+4        0.00000   0.00000   0.00000   0.00000
 253       79G-4        0.00000   0.00000   0.00000   0.00000
 254       80G 0        0.00030   0.00015   0.00015   0.00000
 255       80G+1       -0.00000  -0.00000  -0.00000   0.00000
 256       80G-1       -0.00000  -0.00000  -0.00000   0.00000
 257       80G+2        0.00000   0.00000   0.00000   0.00000
 258       80G-2        0.00000   0.00000   0.00000   0.00000
 259       80G+3        0.00000   0.00000   0.00000   0.00000
 260       80G-3        0.00000   0.00000   0.00000   0.00000
 261       80G+4       -0.00000  -0.00000  -0.00000   0.00000
 262       80G-4        0.00000   0.00000   0.00000   0.00000
 263       81H 0        0.00000   0.00000   0.00000   0.00000
 264       81H+1        0.00000   0.00000   0.00000   0.00000
 265       81H-1        0.00000   0.00000   0.00000   0.00000
 266       81H+2        0.00000   0.00000   0.00000   0.00000
 267       81H-2        0.00000   0.00000   0.00000   0.00000
 268       81H+3        0.00000   0.00000   0.00000   0.00000
 269       81H-3        0.00000   0.00000   0.00000   0.00000
 270       81H+4       -0.00000  -0.00000  -0.00000   0.00000
 271       81H-4        0.00000   0.00000   0.00000   0.00000
 272       81H+5        0.00000   0.00000   0.00000   0.00000
 273       81H-5        0.00000   0.00000   0.00000   0.00000
 274       82H 0        0.00000   0.00000   0.00000   0.00000
 275       82H+1        0.00000   0.00000   0.00000   0.00000
 276       82H-1        0.00000   0.00000   0.00000   0.00000
 277       82H+2        0.00000   0.00000   0.00000   0.00000
 278       82H-2        0.00000   0.00000   0.00000   0.00000
 279       82H+3        0.00000   0.00000   0.00000   0.00000
 280       82H-3        0.00000   0.00000   0.00000   0.00000
 281       82H+4        0.00000   0.00000   0.00000   0.00000
 282       82H-4        0.00000   0.00000   0.00000   0.00000
 283       82H+5       -0.00000  -0.00000  -0.00000   0.00000
 284       82H-5       -0.00000  -0.00000  -0.00000   0.00000
 285       83H 0       -0.00009  -0.00004  -0.00004   0.00000
 286       83H+1        0.00000   0.00000   0.00000   0.00000
 287       83H-1        0.00000   0.00000   0.00000   0.00000
 288       83H+2        0.00000   0.00000   0.00000   0.00000
 289       83H-2        0.00000   0.00000   0.00000   0.00000
 290       83H+3        0.00000   0.00000   0.00000   0.00000
 291       83H-3        0.00000   0.00000   0.00000   0.00000
 292       83H+4        0.00000   0.00000   0.00000   0.00000
 293       83H-4        0.00000   0.00000   0.00000   0.00000
 294       83H+5       -0.00000  -0.00000  -0.00000   0.00000
 295       83H-5        0.00000   0.00000   0.00000   0.00000
 296       84H 0       -0.00009  -0.00005  -0.00005   0.00000
 297       84H+1       -0.00000  -0.00000  -0.00000   0.00000
 298       84H-1       -0.00000  -0.00000  -0.00000   0.00000
 299       84H+2        0.00000   0.00000   0.00000   0.00000
 300       84H-2        0.00000   0.00000   0.00000   0.00000
 301       84H+3        0.00000   0.00000   0.00000   0.00000
 302       84H-3        0.00000   0.00000   0.00000   0.00000
 303       84H+4        0.00000   0.00000   0.00000   0.00000
 304       84H-4        0.00000   0.00000   0.00000   0.00000
 305       84H+5        0.00000   0.00000   0.00000   0.00000
 306       84H-5       -0.00000  -0.00000  -0.00000   0.00000
 307       85I 0        0.00000   0.00000   0.00000   0.00000
 308       85I+1        0.00000   0.00000   0.00000   0.00000
 309       85I-1        0.00000   0.00000   0.00000   0.00000
 310       85I+2        0.00000   0.00000   0.00000   0.00000
 311       85I-2        0.00000   0.00000   0.00000   0.00000
 312       85I+3        0.00000   0.00000   0.00000   0.00000
 313       85I-3        0.00000   0.00000   0.00000   0.00000
 314       85I+4        0.00000   0.00000   0.00000   0.00000
 315       85I-4        0.00000   0.00000   0.00000   0.00000
 316       85I+5        0.00000   0.00000   0.00000   0.00000
 317       85I-5        0.00000   0.00000   0.00000   0.00000
 318       85I+6        0.00000   0.00000   0.00000   0.00000
 319       85I-6        0.00000   0.00000   0.00000   0.00000
 320       86I 0       -0.00000  -0.00000  -0.00000   0.00000
 321       86I+1       -0.00000  -0.00000  -0.00000   0.00000
 322       86I-1       -0.00000  -0.00000  -0.00000   0.00000
 323       86I+2        0.00000   0.00000   0.00000   0.00000
 324       86I-2        0.00000   0.00000   0.00000   0.00000
 325       86I+3        0.00000   0.00000   0.00000   0.00000
 326       86I-3        0.00000   0.00000   0.00000   0.00000
 327       86I+4        0.00000   0.00000   0.00000   0.00000
 328       86I-4       -0.00000  -0.00000  -0.00000   0.00000
 329       86I+5       -0.00000  -0.00000  -0.00000   0.00000
 330       86I-5       -0.00000  -0.00000  -0.00000   0.00000
 331       86I+6        0.00000   0.00000   0.00000   0.00000
 332       86I-6       -0.00000  -0.00000  -0.00000   0.00000
 333       87I 0       -0.00003  -0.00001  -0.00001   0.00000
 334       87I+1        0.00000   0.00000   0.00000   0.00000
 335       87I-1        0.00000   0.00000   0.00000   0.00000
 336       87I+2        0.00000   0.00000   0.00000   0.00000
 337       87I-2        0.00000   0.00000   0.00000   0.00000
 338       87I+3        0.00000   0.00000   0.00000   0.00000
 339       87I-3        0.00000   0.00000   0.00000   0.00000
 340       87I+4        0.00000   0.00000   0.00000   0.00000
 341       87I-4       -0.00000  -0.00000  -0.00000   0.00000
 342       87I+5       -0.00000  -0.00000  -0.00000   0.00000
 343       87I-5       -0.00000  -0.00000  -0.00000   0.00000
 344       87I+6        0.00000   0.00000   0.00000   0.00000
 345       87I-6       -0.00000  -0.00000  -0.00000   0.00000
 346 2   H  1S          0.00001   0.00000   0.00000   0.00000
 347        2S          0.00022   0.00011   0.00011   0.00000
 348        3S          0.00289   0.00145   0.00145   0.00000
 349        4S          0.02345   0.01172   0.01172   0.00000
 350        5S          0.11337   0.05668   0.05668   0.00000
 351        6S          0.33177   0.16589   0.16589   0.00000
 352        7S          0.58715   0.29358   0.29358   0.00000
 353        8S          0.28151   0.14076   0.14076   0.00000
 354        9S         -0.00272  -0.00136  -0.00136   0.00000
 355       10PX         0.00000   0.00000   0.00000   0.00000
 356       10PY         0.00000   0.00000   0.00000   0.00000
 357       10PZ         0.00002   0.00001   0.00001   0.00000
 358       11PX         0.00000   0.00000   0.00000   0.00000
 359       11PY         0.00000   0.00000   0.00000   0.00000
 360       11PZ         0.00008   0.00004   0.00004   0.00000
 361       12PX         0.00000   0.00000   0.00000   0.00000
 362       12PY         0.00000   0.00000   0.00000   0.00000
 363       12PZ         0.00179   0.00089   0.00089   0.00000
 364       13PX         0.00002   0.00001   0.00001   0.00000
 365       13PY         0.00002   0.00001   0.00001   0.00000
 366       13PZ         0.01197   0.00598   0.00598   0.00000
 367       14PX         0.00008   0.00004   0.00004   0.00000
 368       14PY         0.00008   0.00004   0.00004   0.00000
 369       14PZ         0.00414   0.00207   0.00207   0.00000
 370       15D 0        0.00000   0.00000   0.00000   0.00000
 371       15D+1        0.00000   0.00000   0.00000   0.00000
 372       15D-1        0.00000   0.00000   0.00000   0.00000
 373       15D+2        0.00000   0.00000   0.00000   0.00000
 374       15D-2        0.00000   0.00000   0.00000   0.00000
 375       16D 0        0.00000   0.00000   0.00000   0.00000
 376       16D+1        0.00000   0.00000   0.00000   0.00000
 377       16D-1        0.00000   0.00000   0.00000   0.00000
 378       16D+2        0.00000   0.00000   0.00000   0.00000
 379       16D-2        0.00000   0.00000   0.00000   0.00000
 380       17D 0        0.00072   0.00036   0.00036   0.00000
 381       17D+1        0.00001   0.00000   0.00000   0.00000
 382       17D-1        0.00001   0.00000   0.00000   0.00000
 383       17D+2        0.00000   0.00000   0.00000   0.00000
 384       17D-2        0.00000   0.00000   0.00000   0.00000
 385       18D 0        0.00088   0.00044   0.00044   0.00000
 386       18D+1        0.00005   0.00003   0.00003   0.00000
 387       18D-1        0.00005   0.00003   0.00003   0.00000
 388       18D+2       -0.00000  -0.00000  -0.00000   0.00000
 389       18D-2        0.00000   0.00000   0.00000   0.00000
 390       19F 0       -0.00000  -0.00000  -0.00000   0.00000
 391       19F+1       -0.00000  -0.00000  -0.00000   0.00000
 392       19F-1       -0.00000  -0.00000  -0.00000   0.00000
 393       19F+2        0.00000   0.00000   0.00000   0.00000
 394       19F-2        0.00000   0.00000   0.00000   0.00000
 395       19F+3        0.00000   0.00000   0.00000   0.00000
 396       19F-3        0.00000   0.00000   0.00000   0.00000
 397       20F 0        0.00004   0.00002   0.00002   0.00000
 398       20F+1        0.00000   0.00000   0.00000   0.00000
 399       20F-1        0.00000   0.00000   0.00000   0.00000
 400       20F+2       -0.00000  -0.00000  -0.00000   0.00000
 401       20F-2        0.00000   0.00000   0.00000   0.00000
 402       20F+3        0.00000   0.00000   0.00000   0.00000
 403       20F-3        0.00000   0.00000   0.00000   0.00000
 404       21F 0        0.00026   0.00013   0.00013   0.00000
 405       21F+1        0.00002   0.00001   0.00001   0.00000
 406       21F-1        0.00002   0.00001   0.00001   0.00000
 407       21F+2        0.00000   0.00000   0.00000   0.00000
 408       21F-2       -0.00000  -0.00000  -0.00000   0.00000
 409       21F+3       -0.00000  -0.00000  -0.00000   0.00000
 410       21F-3       -0.00000  -0.00000  -0.00000   0.00000
 411       22G 0        0.00000   0.00000   0.00000   0.00000
 412       22G+1        0.00000   0.00000   0.00000   0.00000
 413       22G-1        0.00000   0.00000   0.00000   0.00000
 414       22G+2        0.00000   0.00000   0.00000   0.00000
 415       22G-2        0.00000   0.00000   0.00000   0.00000
 416       22G+3        0.00000   0.00000   0.00000   0.00000
 417       22G-3        0.00000   0.00000   0.00000   0.00000
 418       22G+4        0.00000   0.00000   0.00000   0.00000
 419       22G-4        0.00000   0.00000   0.00000   0.00000
 420       23G 0       -0.00000  -0.00000  -0.00000   0.00000
 421       23G+1        0.00000   0.00000   0.00000   0.00000
 422       23G-1        0.00000   0.00000   0.00000   0.00000
 423       23G+2       -0.00000  -0.00000  -0.00000   0.00000
 424       23G-2        0.00000   0.00000   0.00000   0.00000
 425       23G+3        0.00000   0.00000   0.00000   0.00000
 426       23G-3        0.00000   0.00000   0.00000   0.00000
 427       23G+4       -0.00000  -0.00000  -0.00000   0.00000
 428       23G-4       -0.00000  -0.00000  -0.00000   0.00000
          Condensed to atoms (all electrons):
               1          2
     1  Sc  20.327842   0.314252
     2  H    0.314252   1.043654
          Atomic-Atomic Spin Densities.
               1          2
     1  Sc   0.000000   0.000000
     2  H    0.000000   0.000000
 Mulliken charges and spin densities:
               1          2
     1  Sc   0.357906   0.000000
     2  H   -0.357906   0.000000
 Sum of Mulliken charges =  -0.00000   0.00000
 Mulliken charges and spin densities with hydrogens summed into heavy atoms:
               1          2
     1  Sc  -0.000000   0.000000
 Electronic spatial extent (au):  <R**2>=             74.0317
 Charge=             -0.0000 electrons
 Dipole moment (field-independent basis, Debye):
    X=              0.0000    Y=             -0.0000    Z=              2.8853  Tot=              2.8853
 Quadrupole moment (field-independent basis, Debye-Ang):
   XX=            -23.3017   YY=            -23.3017   ZZ=            -30.7810
   XY=             -0.0000   XZ=              0.0000   YZ=             -0.0000
 Traceless Quadrupole moment (field-independent basis, Debye-Ang):
   XX=              2.4931   YY=              2.4931   ZZ=             -4.9862
   XY=             -0.0000   XZ=              0.0000   YZ=             -0.0000
 Octapole moment (field-independent basis, Debye-Ang**2):
  XXX=              0.0000  YYY=             -0.0000  ZZZ=             17.0044  XYY=              0.0000
  XXY=             -0.0000  XXZ=             -1.4368  XZZ=              0.0000  YZZ=             -0.0000
  YYZ=             -1.4368  XYZ=             -0.0000
 Hexadecapole moment (field-independent basis, Debye-Ang**3):
 XXXX=            -66.4257 YYYY=            -66.4257 ZZZZ=           -154.5144 XXXY=             -0.0000
 XXXZ=              0.0000 YYYX=             -0.0000 YYYZ=             -0.0000 ZZZX=              0.0000
 ZZZY=              0.0000 XXYY=            -22.1419 XXZZ=            -32.8310 YYZZ=            -32.8310
 XXYZ=             -0.0000 YYXZ=              0.0000 ZZXY=             -0.0000
 N-N= 5.051237013327D+00 E-N=-1.838465086432D+03  KE= 7.853340911253D+02
 Orbital energies and kinetic energies (alpha):
                                 1                 2
   7         O                -1.694666          6.021531
   8         O                -1.694666          6.021531
   9         O                -1.692432          6.077295
  10         O                -0.358543          0.622578
  11         O                -0.246576          1.069131
  12         V                 0.008073          0.139732
  13         V                 0.008073          0.139732
  14         V                 0.010326          0.336638
  15         V                 0.018604          0.051539
  16         V                 0.025464          0.038154
 Total kinetic energy from orbitals= 7.853340911253D+02
 FoFCou: FMM=F IPFlag=           8 FMFlag=           0 FMFlg1=           0
         NFxFlg=           0 DoJE=F BraDBF=T KetDBF=F FulRan=T
         wScrn=  0.000000 ICntrl=   2000500 IOpCl=  0 I1Cent=           5 NGrid=           0
         NMat0=    1 NMatS0=      1 NMatT0=    0 NMatD0=    1 NMtDS0=    0 NMtDT0=    0
 Symmetry not used in FoFCou.
                          Isotropic Fermi Contact Couplings
        Atom                 a.u.       MegaHertz       Gauss      10(-4) cm-1
     1  Sc(45)             0.00000       0.00000       0.00000       0.00000
     2  H(1)               0.00000       0.00000       0.00000       0.00000
 --------------------------------------------------------
       Center         ----  Spin Dipole Couplings  ----
                      3XX-RR        3YY-RR        3ZZ-RR
 --------------------------------------------------------
     1   Atom        0.000000      0.000000      0.000000
     2   Atom        0.000000      0.000000      0.000000
 --------------------------------------------------------
                        XY            XZ            YZ
 --------------------------------------------------------
     1   Atom        0.000000      0.000000      0.000000
     2   Atom        0.000000      0.000000      0.000000
 --------------------------------------------------------


 ---------------------------------------------------------------------------------
              Anisotropic Spin Dipole Couplings in Principal Axis System
 ---------------------------------------------------------------------------------

       Atom             a.u.   MegaHertz   Gauss  10(-4) cm-1        Axes

              Baa     0.0000     0.000     0.000     0.000  1.0000  0.0000  0.0000
     1 Sc(45) Bbb     0.0000     0.000     0.000     0.000 -0.0000  1.0000  0.0000
              Bcc     0.0000     0.000     0.000     0.000  0.0000  0.0000  1.0000
 
              Baa     0.0000     0.000     0.000     0.000  1.0000  0.0000  0.0000
     2 H(1)   Bbb     0.0000     0.000     0.000     0.000 -0.0000  1.0000  0.0000
              Bcc     0.0000     0.000     0.000     0.000  0.0000  0.0000  1.0000
 

 ---------------------------------------------------------------------------------

 No NMR shielding tensors so no spin-rotation constants.
 Leave Link  601 at Wed Feb 14 20:25:55 2018, MaxMem=  8589934592 cpu:             288.7 elap:               9.6
 (Enter /home1/apps/gaussian/16rA.03/g16/l9999.exe)

 Test job not archived.
 1\1\GINC-C425-032\SP\ROCCSD(T)-FC1\Gen\H1Sc1\AANNABE\14-Feb-2018\0\\#P
  ROCCSD(T)=(maxcyc=150, FrzINGC)/Gen 5d 7f SCF=(maxcycles=300) Integra
 l(NoXCTest, DKHSO) MaxDisk=500GB Pop=Regular IOp(5/15=2) Guess=Read\\S
 cH\\0,1\Sc,0,0.,0.,0.\H,0,0.,0.,2.2\\Version=ES64L-G16RevA.03\State=1-
 SG\HF=-763.8122451\MP2=-764.2078508\MP3=-764.2292299\PUHF=-763.8122451
 \PMP2-0=-764.2078508\MP4SDQ=-764.2330121\CCSD=-764.2349849\CCSD(T)=-76
 4.2542608\RMSD=3.216e-09\PG=C*V [C*(H1Sc1)]\\@


 FOR THE NATURE OF THE CHEMICAL BOND
 IS THE PROBLEM AT THE HEART OF ALL CHEMISTRY.

                     -- BRYCE CRAWFORD, JR., 1953
 Job cpu time:       2 days  0 hours 51 minutes 50.0 seconds.
 Elapsed time:       0 days  1 hours 31 minutes 59.4 seconds.
 File lengths (MBytes):  RWF=  44128 Int=      0 D2E=      0 Chk=     21 Scr=      1
 Normal termination of Gaussian 16 at Wed Feb 14 20:26:04 2018.
