 Entering Gaussian System, Link 0=g16
 Initial command:
 /home1/apps/gaussian/16rA.03/g16/l1.exe "/tmp/Gau-258550.inp" -scrdir="/tmp/"
 Entering Link 1 = /home1/apps/gaussian/16rA.03/g16/l1.exe PID=    258551.
  
 Copyright (c) 1988,1990,1992,1993,1995,1998,2003,2009,2016,
            Gaussian, Inc.  All Rights Reserved.
  
 This is part of the Gaussian(R) 16 program.  It is based on
 the Gaussian(R) 09 system (copyright 2009, Gaussian, Inc.),
 the Gaussian(R) 03 system (copyright 2003, Gaussian, Inc.),
 the Gaussian(R) 98 system (copyright 1998, Gaussian, Inc.),
 the Gaussian(R) 94 system (copyright 1995, Gaussian, Inc.),
 the Gaussian 92(TM) system (copyright 1992, Gaussian, Inc.),
 the Gaussian 90(TM) system (copyright 1990, Gaussian, Inc.),
 the Gaussian 88(TM) system (copyright 1988, Gaussian, Inc.),
 the Gaussian 86(TM) system (copyright 1986, Carnegie Mellon
 University), and the Gaussian 82(TM) system (copyright 1983,
 Carnegie Mellon University). Gaussian is a federally registered
 trademark of Gaussian, Inc.
  
 This software contains proprietary and confidential information,
 including trade secrets, belonging to Gaussian, Inc.
  
 This software is provided under written license and may be
 used, copied, transmitted, or stored only in accord with that
 written license.
  
 The following legend is applicable only to US Government
 contracts under FAR:
  
                    RESTRICTED RIGHTS LEGEND
  
 Use, reproduction and disclosure by the US Government is
 subject to restrictions as set forth in subparagraphs (a)
 and (c) of the Commercial Computer Software - Restricted
 Rights clause in FAR 52.227-19.
  
 Gaussian, Inc.
 340 Quinnipiac St., Bldg. 40, Wallingford CT 06492
  
  
 ---------------------------------------------------------------
 Warning -- This program may not be used in any manner that
 competes with the business of Gaussian, Inc. or will provide
 assistance to any competitor of Gaussian, Inc.  The licensee
 of this program is prohibited from giving any competitor of
 Gaussian, Inc. access to this program.  By using this program,
 the user acknowledges that Gaussian, Inc. is engaged in the
 business of creating and licensing software in the field of
 computational chemistry and represents and warrants to the
 licensee that it is not a competitor of Gaussian, Inc. and that
 it will not use this program in any manner prohibited above.
 ---------------------------------------------------------------
  

 Cite this work as:
 Gaussian 16, Revision A.03,
 M. J. Frisch, G. W. Trucks, H. B. Schlegel, G. E. Scuseria, 
 M. A. Robb, J. R. Cheeseman, G. Scalmani, V. Barone, 
 G. A. Petersson, H. Nakatsuji, X. Li, M. Caricato, A. V. Marenich, 
 J. Bloino, B. G. Janesko, R. Gomperts, B. Mennucci, H. P. Hratchian, 
 J. V. Ortiz, A. F. Izmaylov, J. L. Sonnenberg, D. Williams-Young, 
 F. Ding, F. Lipparini, F. Egidi, J. Goings, B. Peng, A. Petrone, 
 T. Henderson, D. Ranasinghe, V. G. Zakrzewski, J. Gao, N. Rega, 
 G. Zheng, W. Liang, M. Hada, M. Ehara, K. Toyota, R. Fukuda, 
 J. Hasegawa, M. Ishida, T. Nakajima, Y. Honda, O. Kitao, H. Nakai, 
 T. Vreven, K. Throssell, J. A. Montgomery, Jr., J. E. Peralta, 
 F. Ogliaro, M. J. Bearpark, J. J. Heyd, E. N. Brothers, K. N. Kudin, 
 V. N. Staroverov, T. A. Keith, R. Kobayashi, J. Normand, 
 K. Raghavachari, A. P. Rendell, J. C. Burant, S. S. Iyengar, 
 J. Tomasi, M. Cossi, J. M. Millam, M. Klene, C. Adamo, R. Cammi, 
 J. W. Ochterski, R. L. Martin, K. Morokuma, O. Farkas, 
 J. B. Foresman, and D. J. Fox, Gaussian, Inc., Wallingford CT, 2016.
 
 ******************************************
 Gaussian 16:  ES64L-G16RevA.03 25-Dec-2016
                 3-May-2018 
 ******************************************
 %mem=160GB
 %cpu=0-31
 SetSPE:  set environment variable "MP_BIND" = "yes"
 SetSPE:  set environment variable "MP_BLIST" = "0,1,2,3,4,5,6,7,8,9,10,11,12,13,14,15,16,17,18,19,20,21,22,23,24,25,26,27,28,29,30,31"
 Will use up to   32 processors via shared memory.
 %chk=5z.chk
 %rwf=/scratch/04843/gwang18/cuh/
 ----------------------------------------------------------------------
 #P ROCCSD(T)=(MaxCyc=150, Full)/Gen SCF=(maxcycle=400) Pseudo=Read Int
 egral(NoXCTest) Pop=Regular MaxDisk=500GB Guess=Read IOp(5/15=2)
 ----------------------------------------------------------------------
 1/38=1,172=1/1;
 2/12=2,17=6,18=5,40=1/2;
 3/5=7,11=2,16=1,17=8,25=1,30=1,47=8,116=101/1,2,3;
 4/5=1/1;
 5/5=2,7=400,15=2,38=6/2;
 8/5=-1,6=4,9=120000,10=90/1,4;
 9/5=7,6=150,14=2/13;
 6//1;
 99/5=1,9=1/99;
 Leave Link    1 at Thu May  3 09:56:46 2018, MaxMem= 21474836480 cpu:               2.3 elap:               0.1
 (Enter /home1/apps/gaussian/16rA.03/g16/l101.exe)
 ---
 CuH
 ---
 Symbolic Z-matrix:
 Charge =  0 Multiplicity = 1
 Cu                    0.        0.        0. 
 H                     0.        0.        1.5 
 
 ITRead=  0  0
 MicOpt= -1 -1
 NAtoms=      2 NQM=        2 NQMF=       0 NMMI=      0 NMMIF=      0
                NMic=       0 NMicF=      0.
                    Isotopes and Nuclear Properties:
 (Nuclear quadrupole moments (NQMom) in fm**2, nuclear magnetic moments (NMagM)
  in nuclear magnetons)

  Atom         1           2
 IAtWgt=          63           1
 AtmWgt=  62.9295992   1.0078250
 NucSpn=           3           1
 AtZEff=  -0.0000000  -0.0000000
 NQMom=  -22.0000000   0.0000000
 NMagM=    2.2233000   2.7928460
 AtZNuc=  29.0000000   1.0000000
 Leave Link  101 at Thu May  3 09:56:46 2018, MaxMem= 21474836480 cpu:               2.7 elap:               0.1
 (Enter /home1/apps/gaussian/16rA.03/g16/l202.exe)
                          Input orientation:                          
 ---------------------------------------------------------------------
 Center     Atomic      Atomic             Coordinates (Angstroms)
 Number     Number       Type             X           Y           Z
 ---------------------------------------------------------------------
      1         29           0        0.000000    0.000000    0.000000
      2          1           0        0.000000    0.000000    1.500000
 ---------------------------------------------------------------------
 Stoichiometry    CuH
 Framework group  C*V[C*(HCu)]
 Deg. of freedom     1
 Full point group                 C*V     NOp   4
 Largest Abelian subgroup         C2V     NOp   4
 Largest concise Abelian subgroup C1      NOp   1
                         Standard orientation:                         
 ---------------------------------------------------------------------
 Center     Atomic      Atomic             Coordinates (Angstroms)
 Number     Number       Type             X           Y           Z
 ---------------------------------------------------------------------
      1         29           0        0.000000    0.000000    0.050000
      2          1           0        0.000000    0.000000   -1.450000
 ---------------------------------------------------------------------
 Rotational constants (GHZ):           0.0000000         226.4382079         226.4382079
 Leave Link  202 at Thu May  3 09:56:46 2018, MaxMem= 21474836480 cpu:               2.4 elap:               0.1
 (Enter /home1/apps/gaussian/16rA.03/g16/l301.exe)
 General basis read from cards:  (5D, 7F)
 Centers:       1
 S 1 1.00
     Exponent=  1.9318800000D+08 Coefficients=  1.0000000000D+00
 S 1 1.00
     Exponent=  3.3945200000D+07 Coefficients=  1.0000000000D+00
 S 1 1.00
     Exponent=  7.5104600000D+06 Coefficients=  1.0000000000D+00
 S 1 1.00
     Exponent=  2.0019900000D+06 Coefficients=  1.0000000000D+00
 S 1 1.00
     Exponent=  6.1937800000D+05 Coefficients=  1.0000000000D+00
 S 1 1.00
     Exponent=  2.1560600000D+05 Coefficients=  1.0000000000D+00
 S 1 1.00
     Exponent=  8.2327100000D+04 Coefficients=  1.0000000000D+00
 S 1 1.00
     Exponent=  3.3788400000D+04 Coefficients=  1.0000000000D+00
 S 1 1.00
     Exponent=  1.4670000000D+04 Coefficients=  1.0000000000D+00
 S 1 1.00
     Exponent=  6.6574400000D+03 Coefficients=  1.0000000000D+00
 S 1 1.00
     Exponent=  3.1302600000D+03 Coefficients=  1.0000000000D+00
 S 1 1.00
     Exponent=  1.5156100000D+03 Coefficients=  1.0000000000D+00
 S 1 1.00
     Exponent=  7.5258800000D+02 Coefficients=  1.0000000000D+00
 S 1 1.00
     Exponent=  3.8224900000D+02 Coefficients=  1.0000000000D+00
 S 1 1.00
     Exponent=  1.9823700000D+02 Coefficients=  1.0000000000D+00
 S 1 1.00
     Exponent=  1.0481000000D+02 Coefficients=  1.0000000000D+00
 S 1 1.00
     Exponent=  5.6388500000D+01 Coefficients=  1.0000000000D+00
 S 1 1.00
     Exponent=  3.0783000000D+01 Coefficients=  1.0000000000D+00
 S 1 1.00
     Exponent=  1.6977000000D+01 Coefficients=  1.0000000000D+00
 S 1 1.00
     Exponent=  9.3972500000D+00 Coefficients=  1.0000000000D+00
 S 1 1.00
     Exponent=  5.1723800000D+00 Coefficients=  1.0000000000D+00
 S 1 1.00
     Exponent=  2.7953500000D+00 Coefficients=  1.0000000000D+00
 S 1 1.00
     Exponent=  1.4589000000D+00 Coefficients=  1.0000000000D+00
 S 1 1.00
     Exponent=  7.2871100000D-01 Coefficients=  1.0000000000D+00
 S 1 1.00
     Exponent=  2.3764200000D-01 Coefficients=  1.0000000000D+00
 S 1 1.00
     Exponent=  1.2782100000D-01 Coefficients=  1.0000000000D+00
 S 1 1.00
     Exponent=  6.1815000000D-02 Coefficients=  1.0000000000D+00
 S 1 1.00
     Exponent=  2.9303000000D-02 Coefficients=  1.0000000000D+00
 S 1 1.00
     Exponent=  9.3455000000D+00 Coefficients=  1.0000000000D+00
 S 1 1.00
     Exponent=  3.3051000000D+00 Coefficients=  1.0000000000D+00
 S 1 1.00
     Exponent=  1.3890000000D-02 Coefficients=  1.0000000000D+00
 P 1 1.00
     Exponent=  1.1029400000D+05 Coefficients=  1.0000000000D+00
 P 1 1.00
     Exponent=  2.6939100000D+04 Coefficients=  1.0000000000D+00
 P 1 1.00
     Exponent=  8.5507100000D+03 Coefficients=  1.0000000000D+00
 P 1 1.00
     Exponent=  3.2461900000D+03 Coefficients=  1.0000000000D+00
 P 1 1.00
     Exponent=  1.3884600000D+03 Coefficients=  1.0000000000D+00
 P 1 1.00
     Exponent=  6.4247400000D+02 Coefficients=  1.0000000000D+00
 P 1 1.00
     Exponent=  3.1357000000D+02 Coefficients=  1.0000000000D+00
 P 1 1.00
     Exponent=  1.5916100000D+02 Coefficients=  1.0000000000D+00
 P 1 1.00
     Exponent=  8.3441400000D+01 Coefficients=  1.0000000000D+00
 P 1 1.00
     Exponent=  4.5019600000D+01 Coefficients=  1.0000000000D+00
 P 1 1.00
     Exponent=  2.4889400000D+01 Coefficients=  1.0000000000D+00
 P 1 1.00
     Exponent=  1.3973100000D+01 Coefficients=  1.0000000000D+00
 P 1 1.00
     Exponent=  7.8257100000D+00 Coefficients=  1.0000000000D+00
 P 1 1.00
     Exponent=  4.2863200000D+00 Coefficients=  1.0000000000D+00
 P 1 1.00
     Exponent=  2.2903400000D+00 Coefficients=  1.0000000000D+00
 P 1 1.00
     Exponent=  1.1934200000D+00 Coefficients=  1.0000000000D+00
 P 1 1.00
     Exponent=  5.9376500000D-01 Coefficients=  1.0000000000D+00
 P 1 1.00
     Exponent=  2.2398700000D-01 Coefficients=  1.0000000000D+00
 P 1 1.00
     Exponent=  8.9026000000D-02 Coefficients=  1.0000000000D+00
 P 1 1.00
     Exponent=  3.5213000000D-02 Coefficients=  1.0000000000D+00
 P 1 1.00
     Exponent=  1.4003500000D+01 Coefficients=  1.0000000000D+00
 P 1 1.00
     Exponent=  4.5398000000D+00 Coefficients=  1.0000000000D+00
 P 1 1.00
     Exponent=  1.3930000000D-02 Coefficients=  1.0000000000D+00
 D 1 1.00
     Exponent=  7.3289300000D+02 Coefficients=  1.0000000000D+00
 D 1 1.00
     Exponent=  2.2075300000D+02 Coefficients=  1.0000000000D+00
 D 1 1.00
     Exponent=  8.5626800000D+01 Coefficients=  1.0000000000D+00
 D 1 1.00
     Exponent=  3.7717800000D+01 Coefficients=  1.0000000000D+00
 D 1 1.00
     Exponent=  1.7764700000D+01 Coefficients=  1.0000000000D+00
 D 1 1.00
     Exponent=  8.7641500000D+00 Coefficients=  1.0000000000D+00
 D 1 1.00
     Exponent=  4.4178660000D+00 Coefficients=  1.0000000000D+00
 D 1 1.00
     Exponent=  2.2180390000D+00 Coefficients=  1.0000000000D+00
 D 1 1.00
     Exponent=  1.0935310000D+00 Coefficients=  1.0000000000D+00
 D 1 1.00
     Exponent=  5.2309100000D-01 Coefficients=  1.0000000000D+00
 D 1 1.00
     Exponent=  2.3847500000D-01 Coefficients=  1.0000000000D+00
 D 1 1.00
     Exponent=  1.0002600000D-01 Coefficients=  1.0000000000D+00
 D 1 1.00
     Exponent=  1.0853400000D+01 Coefficients=  1.0000000000D+00
 D 1 1.00
     Exponent=  6.4396000000D+00 Coefficients=  1.0000000000D+00
 D 1 1.00
     Exponent=  4.1950000000D-02 Coefficients=  1.0000000000D+00
 F 1 1.00
     Exponent=  1.6409600000D+01 Coefficients=  1.0000000000D+00
 F 1 1.00
     Exponent=  7.3000000000D+00 Coefficients=  1.0000000000D+00
 F 1 1.00
     Exponent=  3.2475000000D+00 Coefficients=  1.0000000000D+00
 F 1 1.00
     Exponent=  1.4447000000D+00 Coefficients=  1.0000000000D+00
 F 1 1.00
     Exponent=  5.0050000000D-01 Coefficients=  1.0000000000D+00
 F 1 1.00
     Exponent=  1.7339000000D-01 Coefficients=  1.0000000000D+00
 G 1 1.00
     Exponent=  1.1598400000D+01 Coefficients=  1.0000000000D+00
 G 1 1.00
     Exponent=  5.7591000000D+00 Coefficients=  1.0000000000D+00
 G 1 1.00
     Exponent=  2.8596000000D+00 Coefficients=  1.0000000000D+00
 G 1 1.00
     Exponent=  1.1042000000D+00 Coefficients=  1.0000000000D+00
 G 1 1.00
     Exponent=  4.2637000000D-01 Coefficients=  1.0000000000D+00
 H 1 1.00
     Exponent=  1.0031900000D+01 Coefficients=  1.0000000000D+00
 H 1 1.00
     Exponent=  4.8836000000D+00 Coefficients=  1.0000000000D+00
 H 1 1.00
     Exponent=  2.1024000000D+00 Coefficients=  1.0000000000D+00
 H 1 1.00
     Exponent=  9.0509000000D-01 Coefficients=  1.0000000000D+00
 I 1 1.00
     Exponent=  9.9825000000D+00 Coefficients=  1.0000000000D+00
 I 1 1.00
     Exponent=  4.9428000000D+00 Coefficients=  1.0000000000D+00
 I 1 1.00
     Exponent=  2.4474100000D+00 Coefficients=  1.0000000000D+00
 ****
 Centers:       2
 S 1 1.00
     Exponent=  4.0200000000D+02 Coefficients=  1.0000000000D+00
 S 1 1.00
     Exponent=  6.0240000000D+01 Coefficients=  1.0000000000D+00
 S 1 1.00
     Exponent=  1.3730000000D+01 Coefficients=  1.0000000000D+00
 S 1 1.00
     Exponent=  3.9050000000D+00 Coefficients=  1.0000000000D+00
 S 1 1.00
     Exponent=  1.2830000000D+00 Coefficients=  1.0000000000D+00
 S 1 1.00
     Exponent=  4.6550000000D-01 Coefficients=  1.0000000000D+00
 S 1 1.00
     Exponent=  1.8110000000D-01 Coefficients=  1.0000000000D+00
 S 1 1.00
     Exponent=  7.2790000000D-02 Coefficients=  1.0000000000D+00
 S 1 1.00
     Exponent=  2.0700000000D-02 Coefficients=  1.0000000000D+00
 P 1 1.00
     Exponent=  4.5160000000D+00 Coefficients=  1.0000000000D+00
 P 1 1.00
     Exponent=  1.7120000000D+00 Coefficients=  1.0000000000D+00
 P 1 1.00
     Exponent=  6.4900000000D-01 Coefficients=  1.0000000000D+00
 P 1 1.00
     Exponent=  2.4600000000D-01 Coefficients=  1.0000000000D+00
 P 1 1.00
     Exponent=  7.4400000000D-02 Coefficients=  1.0000000000D+00
 D 1 1.00
     Exponent=  2.9500000000D+00 Coefficients=  1.0000000000D+00
 D 1 1.00
     Exponent=  1.2060000000D+00 Coefficients=  1.0000000000D+00
 D 1 1.00
     Exponent=  4.9300000000D-01 Coefficients=  1.0000000000D+00
 D 1 1.00
     Exponent=  1.5600000000D-01 Coefficients=  1.0000000000D+00
 F 1 1.00
     Exponent=  2.5060000000D+00 Coefficients=  1.0000000000D+00
 F 1 1.00
     Exponent=  8.7500000000D-01 Coefficients=  1.0000000000D+00
 F 1 1.00
     Exponent=  2.7400000000D-01 Coefficients=  1.0000000000D+00
 G 1 1.00
     Exponent=  2.3580000000D+00 Coefficients=  1.0000000000D+00
 G 1 1.00
     Exponent=  5.4300000000D-01 Coefficients=  1.0000000000D+00
 ****
 ======================================================================================================
                                       Pseudopotential Parameters
 ======================================================================================================
  Center     Atomic      Valence      Angular      Power
  Number     Number     Electrons     Momentum     of R      Exponent        Coefficient   SO-Coeffient
 ======================================================================================================
    1         29           19
                                      F and up 
                                                     1       19.8766258       19.00000000    0.00000000
                                                     2       18.7139733    13322.83154110    0.00000000
                                                     2        8.2459765     -143.81933419    0.00000000
                                                     2       17.9972640    -6835.89401414    0.00000000
                                                     2       19.5065353    -6413.73731394    0.00000000
                                                     3        9.3593639      377.65588950    0.00000000
                                      S - F
                                                     2       12.0432768    **************    0.00000000
                                                     2       11.9835228    **************    0.00000000
                                                     2        9.6774450     1647.53099822    0.00000000
                                                     2       17.5806873    -5124.79596488    0.00000000
                                                     2       17.5092588     -963.56912390    0.00000000
                                                     2       19.8072416     3071.81011765    0.00000000
                                      P - F
                                                     2       15.4855973    **************    0.00000000
                                                     2       15.4243041    **************    0.00000000
                                                     2       17.8198035    -1937.67548293    0.00000000
                                                     2       17.6907439    -2335.92086442    0.00000000
                                                     2       17.9886727    -8634.52846732    0.00000000
                                                     2       19.8246035     4504.58524733    0.00000000
                                      D - F
                                                     2       10.9144805    -5224.34215851    0.00000000
                                                     2       14.6996934    -3653.65459704    0.00000000
                                                     2       11.5237033     8159.25189768    0.00000000
                                                     2       19.8115397    -2763.94279097    0.00000000
                                                     2       18.0197982     6020.80732635    0.00000000
                                                     2       14.4648005    -2560.14492979    0.00000000
    2          1            1
                                      P and up 
                                                     2       21.7769666      -10.85192405    0.00000000
                                                     1       21.2435951        1.00000000    0.00000000
                                                     3       21.2435951       21.24359508    0.00000000
                                      S - P
                                                     2        1.0000000        0.00000000    0.00000000
 ======================================================================================================
 Ernie: Thresh=  0.10000D-02 Tol=  0.10000D-05 Strict=F.
 There are   248 symmetry adapted cartesian basis functions of A1  symmetry.
 There are    79 symmetry adapted cartesian basis functions of A2  symmetry.
 There are   137 symmetry adapted cartesian basis functions of B1  symmetry.
 There are   137 symmetry adapted cartesian basis functions of B2  symmetry.
 There are   169 symmetry adapted basis functions of A1  symmetry.
 There are    59 symmetry adapted basis functions of A2  symmetry.
 There are   100 symmetry adapted basis functions of B1  symmetry.
 There are   100 symmetry adapted basis functions of B2  symmetry.
   428 basis functions,   601 primitive gaussians,   601 cartesian basis functions
    10 alpha electrons       10 beta electrons
       nuclear repulsion energy         6.7029113383 Hartrees.
 IExCor=    0 DFT=F Ex=HF Corr=None ExCW=0 ScaHFX=  1.000000
 ScaDFX=  1.000000  1.000000  1.000000  1.000000 ScalE2=  1.000000  1.000000
 IRadAn=      5 IRanWt=     -1 IRanGd=            0 ICorTp=0 IEmpDi=  4
 NAtoms=    2 NActive=    2 NUniq=    2 SFac= 1.00D+00 NAtFMM=   60 NAOKFM=F Big=F
 Integral buffers will be    131072 words long.
 Raffenetti 2 integral format.
 Two-electron integral symmetry is turned on.
 Leave Link  301 at Thu May  3 09:56:46 2018, MaxMem= 21474836480 cpu:               3.8 elap:               0.1
 (Enter /home1/apps/gaussian/16rA.03/g16/l302.exe)
 NPDir=0 NMtPBC=     1 NCelOv=     1 NCel=       1 NClECP=     1 NCelD=      1
         NCelK=      1 NCelE2=     1 NClLst=     1 CellRange=     0.0.
 One-electron integrals computed using PRISM.
 One-electron integral symmetry used in STVInt
   4 Symmetry operations used in ECPInt.
 ECPInt:  NShTT=    6105 NPrTT=    6105 LenC2=    5994 LenP2D=    5993.
 LDataN:  DoStor=T MaxTD1=12 Len= 1566
 NBasis=   428 RedAO= T EigKep=  5.03D-06  NBF=   169    59   100   100
 NBsUse=   420 1.00D-06 EigRej=  8.39D-07 NBFU=   165    59    98    98
 Leave Link  302 at Thu May  3 09:56:55 2018, MaxMem= 21474836480 cpu:              50.2 elap:               6.2
 (Enter /home1/apps/gaussian/16rA.03/g16/l303.exe)
 DipDrv:  MaxL=1.
 Leave Link  303 at Thu May  3 09:56:56 2018, MaxMem= 21474836480 cpu:               1.9 elap:               0.1
 (Enter /home1/apps/gaussian/16rA.03/g16/l401.exe)
 Initial guess from the checkpoint file:  "5z.chk"
 B after Tr=     0.000000    0.000000    0.000000
         Rot=    1.000000    0.000000    0.000000    0.000000 Ang=   0.00 deg.
 Guess basis will be translated and rotated to current coordinates.
 JPrj=2 DoOrth=T DoCkMO=T.
 Initial guess orbital symmetries:
       Occupied  (SG) (SG) (PI) (PI) (SG) (PI) (PI) (DLTA) (DLTA)
                 (SG)
       Virtual   (SG) (PI) (PI) (SG) (SG) (PI) (PI) (SG) (SG) (PI)
                 (PI) (DLTA) (DLTA) (SG) (SG) (PI) (PI) (SG) (PI)
                 (PI) (SG) (PI) (PI) (DLTA) (DLTA) (SG) (SG) (SG)
                 (DLTA) (DLTA) (SG) (PI) (PI) (PI) (PI) (SG) (PHI)
                 (PHI) (PI) (PI) (DLTA) (DLTA) (PI) (PI) (DLTA)
                 (DLTA) (SG) (SG) (PI) (PI) (PHI) (PHI) (SG) (SG)
                 (DLTA) (DLTA) (PI) (PI) (SG) (PI) (PI) (SG) (DLTA)
                 (DLTA) (PI) (PI) (SG) (PHI) (PHI) (SG) (DLTA)
                 (DLTA) (PI) (PI) (DLTA) (DLTA) (PI) (PI) (SG)
                 (?A) (?A) (PHI) (PHI) (PI) (PI) (SG) (DLTA) (DLTA)
                 (SG) (PI) (PI) (SG) (SG) (PI) (PI) (SG) (DLTA)
                 (DLTA) (PHI) (PHI) (PI) (PI) (DLTA) (DLTA) (SG)
                 (PI) (PI) (SG) (PHI) (PHI) (DLTA) (DLTA) (PI)
                 (PI) (SG) (PI) (PI) (DLTA) (DLTA) (SG) (PI) (PI)
                 (?A) (?A) (PHI) (PHI) (DLTA) (DLTA) (?A) (?A)
                 (?B) (?B) (PHI) (PHI) (SG) (SG) (PI) (PI) (DLTA)
                 (DLTA) (PI) (PI) (SG) (SG) (PI) (PI) (DLTA) (DLTA)
                 (SG) (PI) (PI) (SG) (PHI) (PHI) (DLTA) (DLTA)
                 (PI) (PI) (SG) (?A) (?A) (PHI) (PHI) (DLTA) (DLTA)
                 (SG) (PI) (PI) (SG) (?A) (?A) (?B) (?B) (PHI)
                 (PHI) (DLTA) (DLTA) (PI) (PI) (SG) (PI) (PI) (SG)
                 (DLTA) (DLTA) (PI) (PI) (SG) (SG) (SG) (PHI) (PHI)
                 (PI) (PI) (DLTA) (DLTA) (PI) (PI) (SG) (SG) (DLTA)
                 (DLTA) (PI) (PI) (SG) (?A) (?A) (PHI) (PHI) (DLTA)
                 (DLTA) (PI) (PI) (SG) (?B) (?B) (?A) (?A) (PHI)
                 (PHI) (DLTA) (DLTA) (PI) (PI) (SG) (SG) (PI) (PI)
                 (SG) (DLTA) (DLTA) (PI) (PI) (SG) (PI) (PI) (SG)
                 (DLTA) (DLTA) (PI) (PI) (SG) (SG) (SG) (PI) (PI)
                 (SG) (SG) (DLTA) (DLTA) (PI) (PI) (SG) (PI) (PI)
                 (SG) (SG) (PI) (PI) (SG) (DLTA) (DLTA) (PI) (PI)
                 (SG) (SG) (PI) (PI) (SG) (DLTA) (DLTA) (PI) (PI)
                 (SG) (SG) (PI) (PI) (SG) (SG) (PI) (PI) (SG) (SG)
                 (PI) (PI) (SG) (SG) (PI) (PI) (SG) (SG) (PI) (PI)
                 (SG) (SG) (SG) (SG) (SG) (SG) (DLTA) (SG) (SG)
                 (SG) (SG) (SG) (DLTA) (SG) (SG) (DLTA) (SG) (DLTA)
                 (?A) (SG) (DLTA) (DLTA) (SG) (?A) (DLTA) (SG)
                 (?A) (SG) (DLTA) (SG) (SG) (DLTA) (DLTA) (SG)
                 (SG) (?A) (SG) (?A) (SG) (SG) (?A) (SG) (DLTA)
                 (SG) (?A) (SG) (DLTA) (DLTA) (DLTA) (DLTA) (?A)
                 (DLTA) (DLTA) (?A) (DLTA) (?A) (SG) (DLTA) (DLTA)
                 (DLTA) (?A) (?A) (?A) (SG) (DLTA) (SG) (?A) (PI)
                 (PI) (PHI) (PI) (PI) (PHI) (PI) (PI) (PHI) (PI)
                 (?B) (PI) (PHI) (PI) (?B) (PHI) (PI) (PI) (PHI)
                 (PHI) (PI) (PHI) (?B) (PHI) (?B) (PI) (PI) (PHI)
                 (PI) (PI) (PHI) (PI) (PI) (PHI) (PI) (?B) (PI)
                 (PHI) (PI) (?B) (PHI) (PI) (PI) (PHI) (PHI) (PI)
                 (PHI) (?B) (PHI) (?B)
 The electronic state of the initial guess is 1-SG.
 Leave Link  401 at Thu May  3 09:56:56 2018, MaxMem= 21474836480 cpu:              12.4 elap:               0.5
 (Enter /home1/apps/gaussian/16rA.03/g16/l502.exe)
 Keep R1 and R2 ints in memory in symmetry-blocked form, NReq=5277864979.
 FoFCou: FMM=F IPFlag=           8 FMFlag=           0 FMFlg1=           0
         NFxFlg=           0 DoJE=F BraDBF=F KetDBF=F FulRan=T
         wScrn=  0.000000 ICntrl=       600 IOpCl=  0 I1Cent=           0 NGrid=           0
         NMat0=    1 NMatS0=  91806 NMatT0=    0 NMatD0=    1 NMtDS0=    0 NMtDT0=    0
 Petite list used in FoFCou.
 Restricted open shell SCF:
 Using DIIS extrapolation, IDIIS=  1040.
 NGot= 21474836480 LenX= 19347000587 LenY= 19346638785
 Requested convergence on RMS density matrix=1.00D-08 within 400 cycles.
 Requested convergence on MAX density matrix=1.00D-06.
 Requested convergence on             energy=1.00D-06.
 No special actions if energy rises.

 Cycle   1  Pass 1  IDiag  1:
 E= -197.119386093849    
 DIIS: error= 4.77D+00 at cycle   1 NSaved=   1.
 NSaved= 1 IEnMin= 1 EnMin= -197.119386093849     IErMin= 1 ErrMin= 4.77D+00
 ErrMax= 4.77D+00  0.00D+00 EMaxC= 1.00D-01 BMatC= 1.86D+03 BMatP= 1.86D+03
 IDIUse=3 WtCom= 0.00D+00 WtEn= 1.00D+00
 Coeff-Com:  0.100D+01
 Coeff-En:   0.100D+01
 Coeff:      0.100D+01
 Gap=     0.342 Goal=   None    Shift=    0.000
 GapD=    0.342 DampG=1.000 DampE=0.125 DampFc=0.1250 IDamp=-1.
 Damping current iteration by 1.25D-01
 RMSDP=1.23D-03 MaxDP=5.80D-02              OVMax= 2.72D-03

 Cycle   2  Pass 1  IDiag  1:
 E= -197.119540240807     Delta-E=       -0.000154146958 Rises=F Damp=T
 DIIS: error= 4.18D+00 at cycle   2 NSaved=   2.
 NSaved= 2 IEnMin= 2 EnMin= -197.119540240807     IErMin= 2 ErrMin= 4.18D+00
 ErrMax= 4.18D+00  0.00D+00 EMaxC= 1.00D-01 BMatC= 1.43D+03 BMatP= 1.86D+03
 IDIUse=3 WtCom= 0.00D+00 WtEn= 1.00D+00
 Coeff-Com: -0.700D+01 0.800D+01
 Coeff-En:   0.000D+00 0.100D+01
 Coeff:      0.000D+00 0.100D+01
 Gap=     0.340 Goal=   None    Shift=    0.000
 RMSDP=1.08D-03 MaxDP=5.08D-02 DE=-1.54D-04 OVMax= 1.76D-05

 Cycle   3  Pass 1  IDiag  1:
 E= -197.120627944240     Delta-E=       -0.001087703433 Rises=F Damp=F
 DIIS: error= 2.38D-04 at cycle   3 NSaved=   3.
 NSaved= 3 IEnMin= 3 EnMin= -197.120627944240     IErMin= 3 ErrMin= 2.38D-04
 ErrMax= 2.38D-04  0.00D+00 EMaxC= 1.00D-01 BMatC= 2.69D-06 BMatP= 1.43D+03
 IDIUse=3 WtCom= 9.98D-01 WtEn= 2.38D-03
 Large coefficients: NSaved=  3 BigCof=   42.77 CofMax=   10.00 Det=-1.23D-09
 Inversion failed.  Reducing to  2 matrices.
 Coeff-Com: -0.404D-06 0.100D+01
 Coeff-En:   0.000D+00 0.100D+01
 Coeff:     -0.403D-06 0.100D+01
 Gap=     0.340 Goal=   None    Shift=    0.000
 RMSDP=1.61D-05 MaxDP=8.30D-04 DE=-1.09D-03 OVMax= 1.15D-04

 Cycle   4  Pass 1  IDiag  1:
 E= -197.120628218642     Delta-E=       -0.000000274403 Rises=F Damp=F
 DIIS: error= 6.66D-05 at cycle   4 NSaved=   3.
 NSaved= 3 IEnMin= 3 EnMin= -197.120628218642     IErMin= 3 ErrMin= 6.66D-05
 ErrMax= 6.66D-05  0.00D+00 EMaxC= 1.00D-01 BMatC= 3.12D-07 BMatP= 2.69D-06
 IDIUse=1 WtCom= 1.00D+00 WtEn= 0.00D+00
 Coeff-Com: -0.611D-07 0.146D+00 0.854D+00
 Coeff:     -0.611D-07 0.146D+00 0.854D+00
 Gap=     0.340 Goal=   None    Shift=    0.000
 RMSDP=1.19D-06 MaxDP=1.08D-04 DE=-2.74D-07 OVMax= 9.92D-05

 Cycle   5  Pass 1  IDiag  1:
 E= -197.120628211318     Delta-E=        0.000000007325 Rises=F Damp=F
 DIIS: error= 6.90D-05 at cycle   5 NSaved=   4.
 NSaved= 4 IEnMin= 3 EnMin= -197.120628218642     IErMin= 3 ErrMin= 6.66D-05
 ErrMax= 6.90D-05  0.00D+00 EMaxC= 1.00D-01 BMatC= 3.51D-07 BMatP= 3.12D-07
 IDIUse=1 WtCom= 1.00D+00 WtEn= 0.00D+00
 Coeff-Com:  0.426D-08-0.130D-01 0.517D+00 0.496D+00
 Coeff:      0.426D-08-0.130D-01 0.517D+00 0.496D+00
 Gap=     0.340 Goal=   None    Shift=    0.000
 RMSDP=3.39D-07 MaxDP=2.45D-05 DE= 7.32D-09 OVMax= 5.01D-05

 Cycle   6  Pass 1  IDiag  1:
 E= -197.120628300880     Delta-E=       -0.000000089562 Rises=F Damp=F
 DIIS: error= 4.12D-07 at cycle   6 NSaved=   5.
 NSaved= 5 IEnMin= 5 EnMin= -197.120628300880     IErMin= 5 ErrMin= 4.12D-07
 ErrMax= 4.12D-07  0.00D+00 EMaxC= 1.00D-01 BMatC= 2.79D-11 BMatP= 3.12D-07
 IDIUse=1 WtCom= 1.00D+00 WtEn= 0.00D+00
 Coeff-Com: -0.356D-09 0.120D-02-0.699D-01-0.640D-01 0.113D+01
 Coeff:     -0.356D-09 0.120D-02-0.699D-01-0.640D-01 0.113D+01
 Gap=     0.340 Goal=   None    Shift=    0.000
 RMSDP=1.34D-07 MaxDP=1.20D-05 DE=-8.96D-08 OVMax= 3.36D-06

 Cycle   7  Pass 1  IDiag  1:
 E= -197.120628300936     Delta-E=       -0.000000000057 Rises=F Damp=F
 DIIS: error= 2.16D-07 at cycle   7 NSaved=   6.
 NSaved= 6 IEnMin= 6 EnMin= -197.120628300936     IErMin= 6 ErrMin= 2.16D-07
 ErrMax= 2.16D-07  0.00D+00 EMaxC= 1.00D-01 BMatC= 2.35D-12 BMatP= 2.79D-11
 IDIUse=1 WtCom= 1.00D+00 WtEn= 0.00D+00
 Coeff-Com:  0.161D-10-0.140D-03 0.106D-01 0.720D-02-0.245D+00 0.123D+01
 Coeff:      0.161D-10-0.140D-03 0.106D-01 0.720D-02-0.245D+00 0.123D+01
 Gap=     0.340 Goal=   None    Shift=    0.000
 RMSDP=8.53D-09 MaxDP=7.59D-07 DE=-5.65D-11 OVMax= 1.28D-06

 SCF Done:  E(ROHF) =  -197.120628301     A.U. after    7 cycles
            NFock=  7  Conv=0.85D-08     -V/T= 2.5502
 <Sx>= 0.0000 <Sy>= 0.0000 <Sz>= 0.0000 <S**2>=-0.0000 S=-0.0000
 <L.S>=  0.00000000000    
 KE= 1.271582893700D+02 PE=-4.975339924137D+02 EE= 1.665521634045D+02
 Annihilation of the first spin contaminant:
 S**2 before annihilation    -0.0000,   after     0.0000
 Leave Link  502 at Thu May  3 09:57:42 2018, MaxMem= 21474836480 cpu:            1282.8 elap:              43.8
 (Enter /home1/apps/gaussian/16rA.03/g16/l801.exe)
 Windowed orbitals will be sorted by symmetry type.
 GenMOA:  NOpAll=  4 NOp2=4 NOpUse=  4 JSym2X=1
 FoFJK:  IHMeth= 1 ICntrl=       0 DoSepK=F KAlg= 0 I1Cent=           0 FoldK=F
 IRaf=         0 NMat=       1 IRICut=       1 DoRegI=T DoRafI=F ISym2E= 1 IDoP0=0 IntGTp=1.
 FoFCou: FMM=F IPFlag=           8 FMFlag=      100000 FMFlg1=           0
         NFxFlg=           0 DoJE=F BraDBF=F KetDBF=F FulRan=T
         wScrn=  0.000000 ICntrl=         0 IOpCl=  1 I1Cent=           0 NGrid=           0
         NMat0=    1 NMatS0=      1 NMatT0=    0 NMatD0=    1 NMtDS0=    0 NMtDT0=    0
 Petite list used in FoFCou.
 <Sx>= 0.0000 <Sy>= 0.0000 <Sz>= 0.0000 <S**2>=-0.0000 S=-0.0000
 Range of M.O.s used for correlation:     1   420
 NBasis=   428 NAE=    10 NBE=    10 NFC=     0 NFV=     0
 NROrb=    420 NOA=    10 NOB=    10 NVA=   410 NVB=   410

 **** Warning!!: The largest alpha MO coefficient is  0.18142478D+03


 **** Warning!!: The largest beta MO coefficient is  0.18142478D+03

 Singles contribution to E2=   -0.5440542950D-12
 Leave Link  801 at Thu May  3 09:58:06 2018, MaxMem= 21474836480 cpu:             581.1 elap:              22.8
 (Enter /home1/apps/gaussian/16rA.03/g16/l804.exe)
 Open-shell transformation, MDV= 21474836480 ITran=4 ISComp=2.
 Unit  1 TFree=       5559576 TCopy=       2528220.
 Semi-Direct transformation.
 ModeAB=           2 MOrb=            10 LenV=   21469449593
 LASXX=     92246279 LTotXX=    92246279 LenRXX=    92246279
 LTotAB=    93071561 MaxLAS=   759784200 LenRXY=   759784200
 NonZer=   772455600 LenScr=  1163228160 LnRSAI=           0
 LnScr1=           0 LExtra=    28413665 Total=   2043672304
 MaxDsk= 67108864000 SrtSym=           F ITran=            4
 DoSDTr:  NPSUse= 32
 JobTyp=1 Pass  1:  I=   1 to  10.
 (rs|ai) integrals will be sorted in core.
 Complete sort for first half transformation.
 First half transformation complete.
 Begin second half transformation for I=  10.
 Begin second half transformation for I=  10.
 Complete sort for second half transformation.
 Second half transformation complete.
 ModeAB=           2 MOrb=            10 LenV=   21469449593
 LASXX=     92246279 LTotXX=    92246279 LenRXX=   759784200
 LTotAB=    88666064 MaxLAS=   759784200 LenRXY=    88666064
 NonZer=   772455600 LenScr=  1163228160 LnRSAI=           0
 LnScr1=           0 LExtra=   880444144 Total=   2892122568
 MaxDsk= 67108864000 SrtSym=           F ITran=            4
 DoSDTr:  NPSUse= 32
 JobTyp=2 Pass  1:  I=   1 to  10.
 (rs|ai) integrals will be sorted in core.
 Complete sort for first half transformation.
 First half transformation complete.
 Begin second half transformation for I=  10.
 Begin second half transformation for I=  10.
 Complete sort for second half transformation.
 Second half transformation complete.
 Spin components of T(2) and E(2):
     alpha-alpha T2 =       0.2395818969D-01 E2=     -0.1739661154D+00
     alpha-beta  T2 =       0.1047525417D+00 E2=     -0.8079671196D+00
     beta-beta   T2 =       0.2395818969D-01 E2=     -0.1739661154D+00
 ANorm=    0.1073624199D+01
 E2 =    -0.1155899350D+01 EUMP2 =    -0.19827652765120D+03
 (S**2,0)=  0.00000D+00           (S**2,1)=  0.00000D+00
 E(PUHF)=      -0.19712062830D+03        E(PMP2)=      -0.19827652765D+03
 Leave Link  804 at Thu May  3 10:08:39 2018, MaxMem= 21474836480 cpu:           20182.8 elap:             632.4
 (Enter /home1/apps/gaussian/16rA.03/g16/l913.exe)
 CIDS:  MDV= 21474836480.
 IFCWin=0 IBDFC=1 NFBD=     0     0 NFCmp=     0     0 NFFFC=     0     0
 Using original routines for 1st iteration.
 Using DD4UQ or CC4UQ for 2nd and later iterations.
 Keep R2 and R3 ints in memory in symmetry-blocked form, NReq=5277887473.
 FoFCou: FMM=F IPFlag=           8 FMFlag=           0 FMFlg1=           0
         NFxFlg=           0 DoJE=F BraDBF=F KetDBF=F FulRan=T
         wScrn=  0.000000 ICntrl=       600 IOpCl=  0 I1Cent=           0 NGrid=           0
         NMat0=    1 NMatS0=  91806 NMatT0=    0 NMatD0=    1 NMtDS0=    0 NMtDT0=    0
 Petite list used in FoFCou.
 CIDS: In Core Option IDoMem=           1.
 CCSD(T)
 =======
 Iterations= 150 Convergence= 0.100D-06
 Produce multiple copies of IABC intergrals
 Iteration Nr.   1
 **********************
 DD1Dir will call FoFMem   1 times, MxPair=       290
 NAB=   100 NAA=    45 NBB=    45.
 DD1Dir will call FoFMem   1 times, MxPair=       290
 NAB=   100 NAA=    45 NBB=    45.
 MP4(R+Q)= -0.21180851D+00
 Maximum subspace dimension=  5
 A-vector RMS=  1.6576466D-05 Max=  1.9767618D-03 conv= 1.00D-05.
 RLE energy=       -1.1682115141
 E3=        0.19962610D+00        EROMP3=      -0.19807690155D+03
 E4(SDQ)=  -0.14984396D+00        ROMP4(SDQ)=  -0.19822674551D+03
 VARIATIONAL ENERGIES WITH THE FIRST-ORDER WAVEFUNCTION:
 DE(Corr)=  -1.1680818     E(Corr)=     -198.28871005    
 NORM(A)=   0.10754304D+01
 Iteration Nr.   2
 **********************
 DD1Dir will call FoFMem   1 times, MxPair=       290
 NAB=   100 NAA=    45 NBB=    45.
 A-vector RMS=  3.9947541D-03 Max=  3.5183506D-02 conv= 1.00D-05.
 RLE energy=       -1.1335789094
 DE(Corr)= -0.95535407     E(CORR)=     -198.07598237     Delta= 2.13D-01
 NORM(A)=   0.10690318D+01
 Iteration Nr.   3
 **********************
 DD1Dir will call FoFMem   1 times, MxPair=       290
 NAB=   100 NAA=    45 NBB=    45.
 A-vector RMS=  2.9109265D-03 Max=  2.4796001D-02 conv= 1.00D-05.
 RLE energy=       -1.0880708183
 DE(Corr)= -0.97300157     E(CORR)=     -198.09362988     Delta=-1.76D-02
 NORM(A)=   0.10646854D+01
 Iteration Nr.   4
 **********************
 DD1Dir will call FoFMem   1 times, MxPair=       290
 NAB=   100 NAA=    45 NBB=    45.
 A-vector RMS=  2.1715904D-03 Max=  1.8592021D-02 conv= 1.00D-05.
 RLE energy=       -0.9643675180
 DE(Corr)= -0.99748407     E(CORR)=     -198.11811237     Delta=-2.45D-02
 NORM(A)=   0.10767493D+01
 Iteration Nr.   5
 **********************
 DD1Dir will call FoFMem   1 times, MxPair=       290
 NAB=   100 NAA=    45 NBB=    45.
 A-vector RMS=  2.1393914D-03 Max=  1.9455291D-02 conv= 1.00D-05.
 RLE energy=       -1.0156407125
 DE(Corr)=  -1.0813884     E(CORR)=     -198.20201672     Delta=-8.39D-02
 NORM(A)=   0.10813907D+01
 Iteration Nr.   6
 **********************
 DD1Dir will call FoFMem   1 times, MxPair=       290
 NAB=   100 NAA=    45 NBB=    45.
 A-vector RMS=  6.0685680D-04 Max=  6.3205057D-03 conv= 1.00D-05.
 RLE energy=       -1.0391736678
 DE(Corr)=  -1.0499426     E(CORR)=     -198.17057093     Delta= 3.14D-02
 NORM(A)=   0.10776269D+01
 Iteration Nr.   7
 **********************
 DD1Dir will call FoFMem   1 times, MxPair=       290
 NAB=   100 NAA=    45 NBB=    45.
 A-vector RMS=  2.0343782D-04 Max=  2.6731654D-03 conv= 1.00D-05.
 RLE energy=       -1.0357012422
 DE(Corr)=  -1.0342570     E(CORR)=     -198.15488533     Delta= 1.57D-02
 NORM(A)=   0.10790797D+01
 Iteration Nr.   8
 **********************
 DD1Dir will call FoFMem   1 times, MxPair=       290
 NAB=   100 NAA=    45 NBB=    45.
 A-vector RMS=  1.9155366D-04 Max=  3.6883442D-03 conv= 1.00D-05.
 RLE energy=       -1.0357445415
 DE(Corr)=  -1.0363227     E(CORR)=     -198.15695095     Delta=-2.07D-03
 NORM(A)=   0.10808835D+01
 Iteration Nr.   9
 **********************
 DD1Dir will call FoFMem   1 times, MxPair=       290
 NAB=   100 NAA=    45 NBB=    45.
 A-vector RMS=  9.9049890D-05 Max=  1.8129260D-03 conv= 1.00D-05.
 RLE energy=       -1.0360832421
 DE(Corr)=  -1.0360205     E(CORR)=     -198.15664884     Delta= 3.02D-04
 NORM(A)=   0.10828841D+01
 Iteration Nr.  10
 **********************
 DD1Dir will call FoFMem   1 times, MxPair=       290
 NAB=   100 NAA=    45 NBB=    45.
 A-vector RMS=  5.9524719D-05 Max=  1.2073288D-03 conv= 1.00D-05.
 RLE energy=       -1.0361537165
 DE(Corr)=  -1.0361001     E(CORR)=     -198.15672837     Delta=-7.95D-05
 NORM(A)=   0.10833613D+01
 Iteration Nr.  11
 **********************
 DD1Dir will call FoFMem   1 times, MxPair=       290
 NAB=   100 NAA=    45 NBB=    45.
 A-vector RMS=  4.5301963D-05 Max=  9.6435009D-04 conv= 1.00D-05.
 RLE energy=       -1.0359481871
 DE(Corr)=  -1.0360595     E(CORR)=     -198.15668777     Delta= 4.06D-05
 NORM(A)=   0.10835111D+01
 Iteration Nr.  12
 **********************
 DD1Dir will call FoFMem   1 times, MxPair=       290
 NAB=   100 NAA=    45 NBB=    45.
 A-vector RMS=  2.6354997D-05 Max=  3.6202303D-04 conv= 1.00D-05.
 RLE energy=       -1.0362043106
 DE(Corr)=  -1.0361901     E(CORR)=     -198.15681837     Delta=-1.31D-04
 NORM(A)=   0.10834196D+01
 Iteration Nr.  13
 **********************
 DD1Dir will call FoFMem   1 times, MxPair=       290
 NAB=   100 NAA=    45 NBB=    45.
 A-vector RMS=  1.4342288D-05 Max=  1.5847498D-04 conv= 1.00D-05.
 RLE energy=       -1.0360449160
 DE(Corr)=  -1.0359858     E(CORR)=     -198.15661412     Delta= 2.04D-04
 NORM(A)=   0.10834107D+01
 Iteration Nr.  14
 **********************
 DD1Dir will call FoFMem   1 times, MxPair=       290
 NAB=   100 NAA=    45 NBB=    45.
 A-vector RMS=  6.9454839D-06 Max=  8.5770222D-05 conv= 1.00D-05.
 RLE energy=       -1.0360753235
 DE(Corr)=  -1.0361011     E(CORR)=     -198.15672937     Delta=-1.15D-04
 NORM(A)=   0.10833944D+01
 Iteration Nr.  15
 **********************
 DD1Dir will call FoFMem   1 times, MxPair=       290
 NAB=   100 NAA=    45 NBB=    45.
 A-vector RMS=  4.2246042D-06 Max=  7.0165839D-05 conv= 1.00D-05.
 RLE energy=       -1.0360648663
 DE(Corr)=  -1.0360609     E(CORR)=     -198.15668918     Delta= 4.02D-05
 NORM(A)=   0.10833753D+01
 Iteration Nr.  16
 **********************
 DD1Dir will call FoFMem   1 times, MxPair=       290
 NAB=   100 NAA=    45 NBB=    45.
 A-vector RMS=  2.2097113D-06 Max=  3.4933166D-05 conv= 1.00D-05.
 RLE energy=       -1.0360638039
 DE(Corr)=  -1.0360657     E(CORR)=     -198.15669398     Delta=-4.80D-06
 NORM(A)=   0.10833612D+01
 Iteration Nr.  17
 **********************
 DD1Dir will call FoFMem   1 times, MxPair=       290
 NAB=   100 NAA=    45 NBB=    45.
 A-vector RMS=  1.7374465D-06 Max=  3.1434008D-05 conv= 1.00D-05.
 RLE energy=       -1.0360609071
 DE(Corr)=  -1.0360637     E(CORR)=     -198.15669200     Delta= 1.98D-06
 NORM(A)=   0.10833452D+01
 Iteration Nr.  18
 **********************
 DD1Dir will call FoFMem   1 times, MxPair=       290
 NAB=   100 NAA=    45 NBB=    45.
 A-vector RMS=  1.4066338D-06 Max=  2.7743679D-05 conv= 1.00D-05.
 RLE energy=       -1.0360644057
 DE(Corr)=  -1.0360632     E(CORR)=     -198.15669155     Delta= 4.51D-07
 NORM(A)=   0.10833266D+01
 Iteration Nr.  19
 **********************
 DD1Dir will call FoFMem   1 times, MxPair=       290
 NAB=   100 NAA=    45 NBB=    45.
 A-vector RMS=  9.3970913D-07 Max=  1.3477397D-05 conv= 1.00D-05.
 RLE energy=       -1.0360571432
 DE(Corr)=  -1.0360576     E(CORR)=     -198.15668594     Delta= 5.61D-06
 NORM(A)=   0.10833193D+01
 Iteration Nr.  20
 **********************
 DD1Dir will call FoFMem   1 times, MxPair=       290
 NAB=   100 NAA=    45 NBB=    45.
 A-vector RMS=  7.9814235D-07 Max=  1.2967747D-05 conv= 1.00D-05.
 RLE energy=       -1.0360622922
 DE(Corr)=  -1.0360639     E(CORR)=     -198.15669223     Delta=-6.28D-06
 NORM(A)=   0.10833117D+01
 Iteration Nr.  21
 **********************
 DD1Dir will call FoFMem   1 times, MxPair=       290
 NAB=   100 NAA=    45 NBB=    45.
 A-vector RMS=  5.0722177D-07 Max=  7.1164545D-06 conv= 1.00D-05.
 RLE energy=       -1.0360599828
 DE(Corr)=  -1.0360587     E(CORR)=     -198.15668705     Delta= 5.18D-06
 NORM(A)=   0.10833071D+01
 Iteration Nr.  22
 **********************
 DD1Dir will call FoFMem   1 times, MxPair=       290
 NAB=   100 NAA=    45 NBB=    45.
 A-vector RMS=  4.1590415D-07 Max=  5.8160503D-06 conv= 1.00D-05.
 RLE energy=       -1.0360600616
 DE(Corr)=  -1.0360606     E(CORR)=     -198.15668890     Delta=-1.85D-06
 NORM(A)=   0.10833042D+01
 Iteration Nr.  23
 **********************
 DD1Dir will call FoFMem   1 times, MxPair=       290
 NAB=   100 NAA=    45 NBB=    45.
 A-vector RMS=  3.0083793D-07 Max=  5.4244103D-06 conv= 1.00D-05.
 RLE energy=       -1.0360602061
 DE(Corr)=  -1.0360605     E(CORR)=     -198.15668880     Delta= 1.00D-07
 NORM(A)=   0.10833028D+01
 CI/CC converged in   23 iterations to DelEn= 1.00D-07 Conv= 1.00D-07 ErrA1= 3.01D-07 Conv= 1.00D-05
 Wavefunction amplitudes converged. E(Corr)=     -198.15668880    
 Largest amplitude= 7.08D-02
 Time for triples=    96656.63 seconds.
 T4(CCSD)= -0.47775349D-01
 T5(CCSD)=  0.83444189D-02
 CCSD(T)= -0.19819611973D+03
 Discarding MO integrals.
 Leave Link  913 at Thu May  3 11:09:22 2018, MaxMem= 21474836480 cpu:          115199.0 elap:            3641.6
 (Enter /home1/apps/gaussian/16rA.03/g16/l601.exe)
 Copying SCF densities to generalized density rwf, IOpCl= 0 IROHF=1.

 **********************************************************************

            Population analysis using the SCF density.

 **********************************************************************

 Orbital symmetries:
       Occupied  (SG) (SG) (PI) (PI) (SG) (PI) (PI) (DLTA) (DLTA)
                 (SG)
       Virtual   (SG) (PI) (PI) (SG) (SG) (SG) (PI) (PI) (PI) (PI)
                 (SG) (DLTA) (DLTA) (SG) (SG) (PI) (PI) (SG) (PI)
                 (PI) (SG) (PI) (PI) (DLTA) (DLTA) (SG) (SG) (SG)
                 (DLTA) (DLTA) (SG) (PI) (PI) (PHI) (PHI) (PI)
                 (PI) (DLTA) (DLTA) (PI) (PI) (SG) (SG) (PI) (PI)
                 (DLTA) (DLTA) (SG) (SG) (PI) (PI) (SG) (PHI) (PHI)
                 (SG) (PI) (PI) (DLTA) (DLTA) (SG) (DLTA) (DLTA)
                 (PI) (PI) (?A) (?A) (PHI) (PHI) (SG) (DLTA) (DLTA)
                 (PI) (PI) (PHI) (PHI) (PI) (PI) (SG) (DLTA) (DLTA)
                 (SG) (PI) (PI) (SG) (PI) (PI) (DLTA) (DLTA) (SG)
                 (?A) (?A) (PI) (PI) (SG) (PHI) (PHI) (SG) (PI)
                 (PI) (DLTA) (DLTA) (SG) (PHI) (PHI) (DLTA) (DLTA)
                 (SG) (SG) (PI) (PI) (?B) (?B) (?A) (?A) (DLTA)
                 (DLTA) (PHI) (PHI) (PI) (PI) (DLTA) (DLTA) (SG)
                 (DLTA) (DLTA) (PI) (PI) (PHI) (PHI) (?A) (?A)
                 (SG) (PHI) (PHI) (SG) (PI) (PI) (DLTA) (DLTA)
                 (PI) (PI) (PI) (PI) (SG) (DLTA) (DLTA) (PI) (PI)
                 (SG) (SG) (PI) (PI) (SG) (SG) (SG) (DLTA) (DLTA)
                 (PI) (PI) (SG) (PHI) (PHI) (DLTA) (DLTA) (PI)
                 (PI) (SG) (PHI) (PHI) (SG) (PI) (PI) (?A) (?A)
                 (DLTA) (DLTA) (PHI) (PHI) (DLTA) (DLTA) (?B) (?B)
                 (?A) (?A) (PHI) (PHI) (PI) (PI) (DLTA) (DLTA)
                 (SG) (?A) (?A) (PI) (PI) (PHI) (PHI) (DLTA) (DLTA)
                 (DLTA) (DLTA) (SG) (PI) (PI) (SG) (PI) (PI) (PI)
                 (PI) (SG) (?B) (?B) (?A) (?A) (SG) (SG) (PHI)
                 (PHI) (DLTA) (DLTA) (SG) (PI) (PI) (PI) (PI) (SG)
                 (SG) (SG) (DLTA) (DLTA) (PI) (PI) (SG) (PHI) (PHI)
                 (DLTA) (DLTA) (PI) (PI) (SG) (?B) (?B) (?A) (?A)
                 (PHI) (PHI) (?A) (?A) (PHI) (PHI) (DLTA) (DLTA)
                 (DLTA) (DLTA) (PI) (PI) (SG) (PI) (PI) (SG) (PI)
                 (PI) (SG) (SG) (SG) (SG) (?B) (?B) (?A) (?A) (PHI)
                 (PHI) (DLTA) (DLTA) (PI) (PI) (SG) (DLTA) (DLTA)
                 (PI) (PI) (SG) (SG) (PI) (PI) (SG) (?A) (?A) (PHI)
                 (PHI) (DLTA) (DLTA) (PI) (PI) (?B) (?B) (?A) (?A)
                 (SG) (PHI) (PHI) (DLTA) (DLTA) (PI) (PI) (SG)
                 (PHI) (PHI) (DLTA) (DLTA) (PI) (PI) (SG) (DLTA)
                 (DLTA) (PI) (PI) (SG) (SG) (SG) (?B) (?B) (?A)
                 (?A) (PHI) (PHI) (DLTA) (DLTA) (PI) (PI) (SG)
                 (SG) (DLTA) (DLTA) (PI) (PI) (SG) (PI) (PI) (SG)
                 (SG) (SG) (DLTA) (DLTA) (PI) (PI) (SG) (PI) (PI)
                 (SG) (SG) (PI) (PI) (SG) (DLTA) (DLTA) (PI) (PI)
                 (SG) (SG) (PI) (PI) (SG) (SG) (SG) (DLTA) (DLTA)
                 (PI) (PI) (SG) (PI) (PI) (SG) (SG) (PI) (PI) (SG)
                 (SG) (DLTA) (DLTA) (PI) (PI) (SG) (SG) (PI) (PI)
                 (SG) (SG) (PI) (PI) (SG) (SG) (PI) (PI) (SG) (SG)
                 (PI) (PI) (SG) (SG) (SG) (PI) (PI) (SG) (SG) (SG)
                 (SG) (SG) (SG) (SG)
 The electronic state is 1-SG.
 Alpha  occ. eigenvalues --   -5.25092  -3.51913  -3.51575  -3.51575  -0.50516
 Alpha  occ. eigenvalues --   -0.49810  -0.49810  -0.49636  -0.49636  -0.34005
 Alpha virt. eigenvalues --    0.00031   0.02553   0.02553   0.02975   0.04253
 Alpha virt. eigenvalues --    0.07729   0.08584   0.08584   0.12117   0.12117
 Alpha virt. eigenvalues --    0.12137   0.12473   0.12473   0.15176   0.18587
 Alpha virt. eigenvalues --    0.24005   0.24005   0.24476   0.27366   0.27366
 Alpha virt. eigenvalues --    0.35734   0.38569   0.38569   0.39146   0.39146
 Alpha virt. eigenvalues --    0.40248   0.44538   0.54708   0.59143   0.59143
 Alpha virt. eigenvalues --    0.61621   0.63365   0.63365   0.68886   0.68886
 Alpha virt. eigenvalues --    0.72115   0.72115   0.79012   0.79012   0.79958
 Alpha virt. eigenvalues --    0.79958   0.85024   0.90524   0.95096   0.95096
 Alpha virt. eigenvalues --    1.02684   1.02684   1.04942   1.13563   1.27178
 Alpha virt. eigenvalues --    1.27178   1.28390   1.28408   1.28408   1.42661
 Alpha virt. eigenvalues --    1.47534   1.47534   1.51438   1.51438   1.69445
 Alpha virt. eigenvalues --    1.84313   1.84313   1.91472   1.91472   2.07528
 Alpha virt. eigenvalues --    2.07528   2.09264   2.09264   2.12562   2.15158
 Alpha virt. eigenvalues --    2.15158   2.19041   2.19041   2.21822   2.21822
 Alpha virt. eigenvalues --    2.26802   2.26802   2.32263   2.45158   2.45158
 Alpha virt. eigenvalues --    2.48264   2.59015   2.59015   2.62481   2.66902
 Alpha virt. eigenvalues --    2.66902   2.70102   2.70102   2.92850   3.02773
 Alpha virt. eigenvalues --    3.02773   3.21004   3.21004   3.23862   3.35892
 Alpha virt. eigenvalues --    3.35892   3.52557   3.59751   3.59751   3.68253
 Alpha virt. eigenvalues --    3.68253   3.75956   4.22946   4.22946   4.43082
 Alpha virt. eigenvalues --    4.43082   4.44367   4.78368   4.84159   4.84159
 Alpha virt. eigenvalues --    5.21145   5.21145   5.26577   5.26577   5.29907
 Alpha virt. eigenvalues --    5.29907   5.35848   5.35848   5.42998   5.42998
 Alpha virt. eigenvalues --    5.46864   5.46864   5.47281   5.52514   5.52514
 Alpha virt. eigenvalues --    5.56301   5.56301   5.64826   5.64826   5.81565
 Alpha virt. eigenvalues --    5.81565   5.82314   5.89673   5.89673   5.97135
 Alpha virt. eigenvalues --    5.97611   5.97611   6.06935   6.06935   6.08904
 Alpha virt. eigenvalues --    6.08904   6.21817   6.21817   6.33135   6.60458
 Alpha virt. eigenvalues --    6.60458   6.63971   6.63971   6.68432   7.67696
 Alpha virt. eigenvalues --    7.86697   7.86697   8.72214   9.65654  10.80514
 Alpha virt. eigenvalues --   11.45005  11.45005  11.48847  11.48847  11.67097
 Alpha virt. eigenvalues --   12.34208  12.34208  12.43306  12.43306  12.68077
 Alpha virt. eigenvalues --   12.68077  12.70037  12.99064  12.99064  13.12646
 Alpha virt. eigenvalues --   13.16661  13.16661  13.23177  13.23177  13.23459
 Alpha virt. eigenvalues --   13.23459  13.29046  13.29046  13.29871  13.29871
 Alpha virt. eigenvalues --   13.30344  13.30344  13.33833  13.33833  13.48895
 Alpha virt. eigenvalues --   13.48895  13.66540  13.66540  13.79512  13.79512
 Alpha virt. eigenvalues --   13.84976  14.07458  14.07458  14.10246  14.10246
 Alpha virt. eigenvalues --   14.12287  14.12287  14.13211  14.13211  14.35900
 Alpha virt. eigenvalues --   14.35900  14.41823  14.48516  14.48516  14.52070
 Alpha virt. eigenvalues --   14.69216  14.69216  15.05061  15.05061  15.61284
 Alpha virt. eigenvalues --   15.86829  15.86829  15.86845  15.86845  15.87020
 Alpha virt. eigenvalues --   15.87020  15.89039  15.89039  16.11501  16.11501
 Alpha virt. eigenvalues --   16.40162  16.92295  16.92295  17.59269  17.59269
 Alpha virt. eigenvalues --   18.14016  18.78656  21.86455  22.66304  22.66304
 Alpha virt. eigenvalues --   22.76128  22.76128  23.27025  28.11868  28.11868
 Alpha virt. eigenvalues --   28.22893  28.22893  28.46633  28.46633  29.17447
 Alpha virt. eigenvalues --   30.42825  30.42825  30.43964  30.43964  30.51000
 Alpha virt. eigenvalues --   30.51000  30.51982  30.51982  30.56419  30.56419
 Alpha virt. eigenvalues --   30.63332  30.63332  30.68176  30.68176  30.70718
 Alpha virt. eigenvalues --   30.70718  30.82146  31.00384  31.00384  31.23451
 Alpha virt. eigenvalues --   31.79948  31.79948  32.86068  34.37802  36.61793
 Alpha virt. eigenvalues --   36.61793  36.61801  36.61801  36.61820  36.61820
 Alpha virt. eigenvalues --   36.62739  36.62739  36.68437  36.68437  36.88351
 Alpha virt. eigenvalues --   36.88351  37.04112  41.98979  41.98979  42.07805
 Alpha virt. eigenvalues --   42.07805  42.23773  42.99555  63.52259  63.52259
 Alpha virt. eigenvalues --   64.15495  64.90493  64.90493  64.92926  64.92926
 Alpha virt. eigenvalues --   64.99413  64.99413  65.25282  65.25282  65.63833
 Alpha virt. eigenvalues --   65.63833  65.64817  65.64817  65.67372  65.70245
 Alpha virt. eigenvalues --   65.70245  65.79426  65.79426  65.85550  65.85550
 Alpha virt. eigenvalues --   65.92060  72.21329  72.21329  72.30476  72.30476
 Alpha virt. eigenvalues --   72.48420  72.48420  72.75237  73.13724  73.13724
 Alpha virt. eigenvalues --   73.23067  73.23067  73.66477  77.57447  77.57447
 Alpha virt. eigenvalues --   77.57743  77.57743  77.57909  77.57909  77.58473
 Alpha virt. eigenvalues --   77.58473  77.61369  77.61369  77.70928  77.70928
 Alpha virt. eigenvalues --   77.75579  78.31140 121.90022 121.90022 121.96899
 Alpha virt. eigenvalues --  121.96899 122.14273 122.43882 122.43882 123.25609
 Alpha virt. eigenvalues --  139.83919 144.79089 214.45654 214.45654 214.52653
 Alpha virt. eigenvalues --  214.52653 214.74786 230.91403 230.91403 231.61634
 Alpha virt. eigenvalues --  265.15658 431.77540 431.77540 432.42965 440.12616
 Alpha virt. eigenvalues --  440.12616 440.18465 440.18465 440.38225 484.31906
 Alpha virt. eigenvalues --  813.53961 813.53961 814.16093 817.44739 893.23343
 Alpha virt. eigenvalues -- 1065.190711065.190711065.235441065.235441065.38653
 Alpha virt. eigenvalues -- 1565.720061565.720061566.307141675.937503112.35513
 Alpha virt. eigenvalues -- 3112.355133112.897153209.680903224.967193224.96719
 Alpha virt. eigenvalues -- 3224.997183224.997183225.104526286.704756470.67813
 Alpha virt. eigenvalues -- 6470.678136471.17241******************************
 Alpha virt. eigenvalues -- **************************************************
 Alpha virt. eigenvalues -- **************************************************
 Alpha virt. eigenvalues -- **************************************************
 Alpha virt. eigenvalues -- **************************************************
     Molecular Orbital Coefficients:
                           6         7         8         9        10
                           O         O         O         O         O
     Eigenvalues --    -0.49810  -0.49810  -0.49636  -0.49636  -0.34005
   1 1   Cu 1S          0.00000   0.00000   0.00000   0.00000   0.00000
   2        2S          0.00000   0.00000   0.00000  -0.00000  -0.00000
   3        3S          0.00000   0.00000   0.00000   0.00000   0.00000
   4        4S          0.00000   0.00000   0.00000  -0.00000  -0.00000
   5        5S          0.00000   0.00000   0.00000   0.00000   0.00000
   6        6S          0.00000   0.00000   0.00000  -0.00000  -0.00000
   7        7S          0.00000   0.00000   0.00000  -0.00000   0.00000
   8        8S          0.00000   0.00000   0.00000   0.00000  -0.00000
   9        9S          0.00000   0.00000   0.00000  -0.00000   0.00001
  10       10S          0.00000   0.00000   0.00000   0.00000  -0.00002
  11       11S          0.00000   0.00000   0.00000  -0.00000   0.00005
  12       12S          0.00000   0.00000   0.00000   0.00000  -0.00012
  13       13S          0.00000   0.00000   0.00000  -0.00000   0.00030
  14       14S          0.00000   0.00000   0.00000   0.00000  -0.00074
  15       15S          0.00000   0.00000   0.00000  -0.00000   0.00174
  16       16S          0.00000   0.00000   0.00000   0.00000  -0.00392
  17       17S          0.00000   0.00000   0.00000  -0.00000   0.00793
  18       18S          0.00000   0.00000   0.00000   0.00000  -0.00906
  19       19S          0.00000   0.00000   0.00000   0.00000  -0.02618
  20       20S          0.00000   0.00000   0.00000  -0.00000   0.05734
  21       21S          0.00000   0.00000   0.00000  -0.00000  -0.04209
  22       22S          0.00000   0.00000   0.00000   0.00000  -0.02469
  23       23S          0.00000   0.00000   0.00000   0.00000  -0.15667
  24       24S          0.00000   0.00000   0.00000   0.00000  -0.08178
  25       25S          0.00000   0.00000   0.00000   0.00000   0.05684
  26       26S          0.00000   0.00000   0.00000   0.00000   0.20438
  27       27S          0.00000   0.00000   0.00000   0.00000   0.18235
  28       28S          0.00000   0.00000   0.00000  -0.00000   0.04170
  29       29S          0.00000   0.00000   0.00000  -0.00000   0.05710
  30       30S          0.00000   0.00000   0.00000   0.00000  -0.03133
  31       31S          0.00000   0.00000   0.00000   0.00000  -0.00499
  32       32PX        -0.00000   0.00000   0.00000   0.00000   0.00000
  33       32PY         0.00000  -0.00000   0.00000   0.00000   0.00000
  34       32PZ         0.00000   0.00000   0.00000   0.00000   0.00000
  35       33PX         0.00000   0.00000   0.00000   0.00000   0.00000
  36       33PY         0.00000   0.00000   0.00000   0.00000   0.00000
  37       33PZ         0.00000   0.00000   0.00000  -0.00000  -0.00000
  38       34PX        -0.00000   0.00000   0.00000   0.00000   0.00000
  39       34PY         0.00000  -0.00000   0.00000   0.00000   0.00000
  40       34PZ         0.00000   0.00000   0.00000   0.00000   0.00000
  41       35PX         0.00000   0.00000   0.00000   0.00000   0.00000
  42       35PY         0.00000   0.00000   0.00000   0.00000   0.00000
  43       35PZ         0.00000   0.00000   0.00000  -0.00000  -0.00000
  44       36PX        -0.00000   0.00000   0.00000   0.00000   0.00000
  45       36PY         0.00000  -0.00000   0.00000   0.00000   0.00000
  46       36PZ         0.00000   0.00000   0.00000   0.00000   0.00000
  47       37PX         0.00000   0.00000   0.00000   0.00000   0.00000
  48       37PY         0.00000   0.00000   0.00000   0.00000   0.00000
  49       37PZ         0.00000   0.00000   0.00000  -0.00000  -0.00000
  50       38PX        -0.00000   0.00000   0.00000   0.00000   0.00000
  51       38PY         0.00000  -0.00000   0.00000   0.00000   0.00000
  52       38PZ         0.00000   0.00000   0.00000   0.00000   0.00001
  53       39PX         0.00000   0.00000   0.00000   0.00000   0.00000
  54       39PY         0.00000   0.00000   0.00000   0.00000   0.00000
  55       39PZ         0.00000   0.00000   0.00000  -0.00000  -0.00004
  56       40PX        -0.00002   0.00000   0.00000   0.00000   0.00000
  57       40PY         0.00000  -0.00002   0.00000   0.00000   0.00000
  58       40PZ         0.00000   0.00000   0.00000   0.00000   0.00015
  59       41PX         0.00009   0.00000   0.00000   0.00000   0.00000
  60       41PY         0.00000   0.00009   0.00000   0.00000   0.00000
  61       41PZ         0.00000   0.00000   0.00000   0.00000  -0.00067
  62       42PX        -0.00050   0.00000   0.00000   0.00000   0.00000
  63       42PY         0.00000  -0.00050   0.00000   0.00000   0.00000
  64       42PZ         0.00000   0.00000   0.00000  -0.00000   0.00347
  65       43PX         0.00076   0.00000   0.00000   0.00000   0.00000
  66       43PY         0.00000   0.00076   0.00000   0.00000   0.00000
  67       43PZ         0.00000   0.00000   0.00000   0.00000  -0.00547
  68       44PX        -0.00046   0.00000   0.00000   0.00000   0.00000
  69       44PY         0.00000  -0.00046   0.00000   0.00000   0.00000
  70       44PZ         0.00000   0.00000   0.00000  -0.00000   0.00435
  71       45PX        -0.00263   0.00000   0.00000   0.00000   0.00000
  72       45PY         0.00000  -0.00263   0.00000   0.00000   0.00000
  73       45PZ         0.00000   0.00000   0.00000  -0.00000   0.01551
  74       46PX        -0.00518   0.00000   0.00000   0.00000   0.00000
  75       46PY         0.00000  -0.00518   0.00000   0.00000   0.00000
  76       46PZ         0.00000   0.00000   0.00000  -0.00000   0.03661
  77       47PX        -0.00520   0.00000   0.00000   0.00000   0.00000
  78       47PY         0.00000  -0.00520   0.00000   0.00000   0.00000
  79       47PZ         0.00000   0.00000   0.00000  -0.00000   0.03494
  80       48PX         0.00412   0.00000   0.00000   0.00000   0.00000
  81       48PY         0.00000   0.00412   0.00000   0.00000   0.00000
  82       48PZ         0.00000   0.00000   0.00000  -0.00000  -0.00629
  83       49PX         0.01356   0.00000   0.00000   0.00000   0.00000
  84       49PY         0.00000   0.01356   0.00000   0.00000   0.00000
  85       49PZ         0.00000   0.00000   0.00000  -0.00000  -0.05185
  86       50PX         0.00485   0.00000   0.00000   0.00000   0.00000
  87       50PY         0.00000   0.00485   0.00000   0.00000   0.00000
  88       50PZ         0.00000   0.00000   0.00000  -0.00000  -0.05723
  89       51PX        -0.00058   0.00000   0.00000   0.00000   0.00000
  90       51PY         0.00000  -0.00058   0.00000   0.00000   0.00000
  91       51PZ         0.00000   0.00000   0.00000  -0.00000  -0.01400
  92       52PX         0.00078   0.00000   0.00000   0.00000   0.00000
  93       52PY         0.00000   0.00078   0.00000   0.00000   0.00000
  94       52PZ         0.00000   0.00000   0.00000   0.00000  -0.00551
  95       53PX        -0.00150   0.00000   0.00000   0.00000   0.00000
  96       53PY         0.00000  -0.00150   0.00000   0.00000   0.00000
  97       53PZ         0.00000   0.00000   0.00000  -0.00000   0.01170
  98       54PX         0.00016   0.00000   0.00000   0.00000   0.00000
  99       54PY         0.00000   0.00016   0.00000   0.00000   0.00000
 100       54PZ         0.00000   0.00000   0.00000  -0.00000   0.00128
 101       55D 0        0.00000   0.00000   0.00000  -0.00000  -0.00000
 102       55D+1        0.00001   0.00000   0.00000   0.00000   0.00000
 103       55D-1        0.00000   0.00001   0.00000   0.00000   0.00000
 104       55D+2        0.00000   0.00000   0.00000   0.00001  -0.00000
 105       55D-2        0.00000   0.00000   0.00001   0.00000   0.00000
 106       56D 0        0.00000   0.00000   0.00000   0.00000   0.00004
 107       56D+1       -0.00011   0.00000   0.00000   0.00000   0.00000
 108       56D-1        0.00000  -0.00011   0.00000   0.00000   0.00000
 109       56D+2        0.00000   0.00000   0.00000  -0.00011   0.00000
 110       56D-2        0.00000   0.00000  -0.00011   0.00000   0.00000
 111       57D 0        0.00000   0.00000   0.00000  -0.00000  -0.00027
 112       57D+1        0.00074   0.00000   0.00000   0.00000   0.00000
 113       57D-1        0.00000   0.00074   0.00000   0.00000   0.00000
 114       57D+2        0.00000   0.00000   0.00000   0.00074  -0.00000
 115       57D-2        0.00000   0.00000   0.00074   0.00000   0.00000
 116       58D 0        0.00000   0.00000   0.00000   0.00000   0.00304
 117       58D+1       -0.00828   0.00000   0.00000   0.00000   0.00000
 118       58D-1        0.00000  -0.00828   0.00000   0.00000   0.00000
 119       58D+2        0.00000   0.00000   0.00000  -0.00831   0.00000
 120       58D-2        0.00000   0.00000  -0.00831   0.00000   0.00000
 121       59D 0        0.00000   0.00000   0.00000  -0.00000  -0.02921
 122       59D+1        0.07920   0.00000   0.00000   0.00000   0.00000
 123       59D-1        0.00000   0.07920   0.00000   0.00000   0.00000
 124       59D+2        0.00000   0.00000   0.00000   0.07950  -0.00000
 125       59D-2        0.00000   0.00000   0.07950   0.00000   0.00000
 126       60D 0        0.00000   0.00000   0.00000   0.00000   0.03737
 127       60D+1       -0.09584   0.00000   0.00000   0.00000   0.00000
 128       60D-1        0.00000  -0.09584   0.00000   0.00000   0.00000
 129       60D+2        0.00000   0.00000   0.00000  -0.09608  -0.00000
 130       60D-2        0.00000   0.00000  -0.09608   0.00000   0.00000
 131       61D 0        0.00000   0.00000   0.00000  -0.00000  -0.07274
 132       61D+1        0.20052   0.00000   0.00000   0.00000   0.00000
 133       61D-1        0.00000   0.20052   0.00000   0.00000   0.00000
 134       61D+2        0.00000   0.00000   0.00000   0.20123  -0.00000
 135       61D-2        0.00000   0.00000   0.20123   0.00000   0.00000
 136       62D 0        0.00000   0.00000   0.00000  -0.00000  -0.10780
 137       62D+1        0.28970   0.00000   0.00000   0.00000   0.00000
 138       62D-1        0.00000   0.28970   0.00000   0.00000   0.00000
 139       62D+2        0.00000   0.00000   0.00000   0.29055   0.00000
 140       62D-2        0.00000   0.00000   0.29055   0.00000   0.00000
 141       63D 0        0.00000   0.00000   0.00000  -0.00000  -0.09504
 142       63D+1        0.25963   0.00000   0.00000   0.00000   0.00000
 143       63D-1        0.00000   0.25963   0.00000   0.00000   0.00000
 144       63D+2        0.00000   0.00000   0.00000   0.26033  -0.00000
 145       63D-2        0.00000   0.00000   0.26033   0.00000   0.00000
 146       64D 0        0.00000   0.00000   0.00000  -0.00000  -0.07291
 147       64D+1        0.20597   0.00000   0.00000   0.00000   0.00000
 148       64D-1        0.00000   0.20597   0.00000   0.00000   0.00000
 149       64D+2        0.00000   0.00000   0.00000   0.20601   0.00000
 150       64D-2        0.00000   0.00000   0.20601   0.00000   0.00000
 151       65D 0        0.00000   0.00000   0.00000  -0.00000  -0.04551
 152       65D+1        0.11712   0.00000   0.00000   0.00000   0.00000
 153       65D-1        0.00000   0.11712   0.00000   0.00000   0.00000
 154       65D+2        0.00000   0.00000   0.00000   0.11630  -0.00000
 155       65D-2        0.00000   0.00000   0.11630   0.00000   0.00000
 156       66D 0        0.00000   0.00000   0.00000   0.00000  -0.01543
 157       66D+1        0.03366   0.00000   0.00000   0.00000   0.00000
 158       66D-1        0.00000   0.03366   0.00000   0.00000   0.00000
 159       66D+2        0.00000   0.00000   0.00000   0.03269   0.00000
 160       66D-2        0.00000   0.00000   0.03269   0.00000   0.00000
 161       67D 0        0.00000   0.00000   0.00000  -0.00000  -0.06247
 162       67D+1        0.16670   0.00000   0.00000   0.00000   0.00000
 163       67D-1        0.00000   0.16670   0.00000   0.00000   0.00000
 164       67D+2        0.00000   0.00000   0.00000   0.16723   0.00000
 165       67D-2        0.00000   0.00000   0.16723   0.00000   0.00000
 166       68D 0        0.00000   0.00000   0.00000  -0.00000  -0.05034
 167       68D+1        0.13025   0.00000   0.00000   0.00000   0.00000
 168       68D-1        0.00000   0.13025   0.00000   0.00000   0.00000
 169       68D+2        0.00000   0.00000   0.00000   0.13071   0.00000
 170       68D-2        0.00000   0.00000   0.13071   0.00000   0.00000
 171       69D 0        0.00000   0.00000   0.00000  -0.00000  -0.00033
 172       69D+1        0.00059   0.00000   0.00000   0.00000   0.00000
 173       69D-1        0.00000   0.00059   0.00000   0.00000   0.00000
 174       69D+2        0.00000   0.00000   0.00000   0.00014  -0.00000
 175       69D-2        0.00000   0.00000   0.00014   0.00000   0.00000
 176       70F 0        0.00000   0.00000   0.00000  -0.00000  -0.00003
 177       70F+1        0.00006   0.00000   0.00000   0.00000   0.00000
 178       70F-1        0.00000   0.00006   0.00000   0.00000   0.00000
 179       70F+2        0.00000   0.00000   0.00000   0.00004   0.00000
 180       70F-2        0.00000   0.00000   0.00004   0.00000   0.00000
 181       70F+3       -0.00000   0.00000   0.00000   0.00000   0.00000
 182       70F-3        0.00000  -0.00000   0.00000   0.00000   0.00000
 183       71F 0        0.00000   0.00000   0.00000  -0.00000  -0.00039
 184       71F+1        0.00041   0.00000   0.00000   0.00000   0.00000
 185       71F-1        0.00000   0.00041   0.00000   0.00000   0.00000
 186       71F+2        0.00000   0.00000   0.00000   0.00034  -0.00000
 187       71F-2        0.00000   0.00000   0.00034   0.00000   0.00000
 188       71F+3       -0.00000   0.00000   0.00000   0.00000   0.00000
 189       71F-3        0.00000   0.00000   0.00000   0.00000   0.00000
 190       72F 0        0.00000   0.00000   0.00000  -0.00000  -0.00042
 191       72F+1        0.00066   0.00000   0.00000   0.00000   0.00000
 192       72F-1        0.00000   0.00066   0.00000   0.00000   0.00000
 193       72F+2        0.00000   0.00000   0.00000   0.00054   0.00000
 194       72F-2        0.00000   0.00000   0.00054   0.00000   0.00000
 195       72F+3       -0.00000   0.00000   0.00000   0.00000   0.00000
 196       72F-3        0.00000  -0.00000   0.00000   0.00000   0.00000
 197       73F 0        0.00000   0.00000   0.00000  -0.00000  -0.00273
 198       73F+1        0.00236   0.00000   0.00000   0.00000   0.00000
 199       73F-1        0.00000   0.00236   0.00000   0.00000   0.00000
 200       73F+2        0.00000   0.00000   0.00000   0.00195  -0.00000
 201       73F-2        0.00000   0.00000   0.00195   0.00000   0.00000
 202       73F+3       -0.00000   0.00000   0.00000   0.00000   0.00000
 203       73F-3        0.00000   0.00000   0.00000   0.00000   0.00000
 204       74F 0        0.00000   0.00000   0.00000  -0.00000  -0.00626
 205       74F+1        0.00579   0.00000   0.00000   0.00000   0.00000
 206       74F-1        0.00000   0.00579   0.00000   0.00000   0.00000
 207       74F+2        0.00000   0.00000   0.00000   0.00535  -0.00000
 208       74F-2        0.00000   0.00000   0.00535   0.00000   0.00000
 209       74F+3       -0.00000   0.00000   0.00000   0.00000   0.00000
 210       74F-3        0.00000  -0.00000   0.00000   0.00000   0.00000
 211       75F 0        0.00000   0.00000   0.00000  -0.00000  -0.00407
 212       75F+1        0.00455   0.00000   0.00000   0.00000   0.00000
 213       75F-1        0.00000   0.00455   0.00000   0.00000   0.00000
 214       75F+2        0.00000   0.00000   0.00000   0.00421  -0.00000
 215       75F-2        0.00000   0.00000   0.00421   0.00000   0.00000
 216       75F+3        0.00000   0.00000   0.00000   0.00000   0.00000
 217       75F-3        0.00000  -0.00000   0.00000   0.00000   0.00000
 218       76G 0        0.00000   0.00000   0.00000  -0.00000   0.00001
 219       76G+1       -0.00002   0.00000   0.00000   0.00000   0.00000
 220       76G-1        0.00000  -0.00002   0.00000   0.00000   0.00000
 221       76G+2        0.00000   0.00000   0.00000  -0.00000   0.00000
 222       76G-2        0.00000   0.00000  -0.00000   0.00000   0.00000
 223       76G+3       -0.00000   0.00000   0.00000   0.00000   0.00000
 224       76G-3        0.00000   0.00000   0.00000   0.00000   0.00000
 225       76G+4        0.00000   0.00000   0.00000   0.00000  -0.00000
 226       76G-4        0.00000   0.00000   0.00000   0.00000   0.00000
 227       77G 0        0.00000   0.00000   0.00000   0.00000   0.00002
 228       77G+1       -0.00001   0.00000   0.00000   0.00000   0.00000
 229       77G-1        0.00000  -0.00001   0.00000   0.00000   0.00000
 230       77G+2        0.00000   0.00000   0.00000  -0.00001  -0.00000
 231       77G-2        0.00000   0.00000  -0.00001   0.00000   0.00000
 232       77G+3       -0.00000   0.00000   0.00000   0.00000   0.00000
 233       77G-3        0.00000   0.00000   0.00000   0.00000   0.00000
 234       77G+4        0.00000   0.00000   0.00000  -0.00000   0.00000
 235       77G-4        0.00000   0.00000   0.00000   0.00000   0.00000
 236       78G 0        0.00000   0.00000   0.00000  -0.00000   0.00002
 237       78G+1        0.00005   0.00000   0.00000   0.00000   0.00000
 238       78G-1        0.00000   0.00005   0.00000   0.00000   0.00000
 239       78G+2        0.00000   0.00000   0.00000   0.00007  -0.00000
 240       78G-2        0.00000   0.00000   0.00007   0.00000   0.00000
 241       78G+3        0.00000   0.00000   0.00000   0.00000   0.00000
 242       78G-3        0.00000   0.00000   0.00000   0.00000   0.00000
 243       78G+4        0.00000   0.00000   0.00000   0.00000  -0.00000
 244       78G-4        0.00000   0.00000  -0.00000   0.00000   0.00000
 245       79G 0        0.00000   0.00000   0.00000   0.00000   0.00041
 246       79G+1        0.00049   0.00000   0.00000   0.00000   0.00000
 247       79G-1        0.00000   0.00049   0.00000   0.00000   0.00000
 248       79G+2        0.00000   0.00000   0.00000   0.00023  -0.00000
 249       79G-2        0.00000   0.00000   0.00023   0.00000   0.00000
 250       79G+3       -0.00000   0.00000   0.00000   0.00000   0.00000
 251       79G-3        0.00000  -0.00000   0.00000   0.00000   0.00000
 252       79G+4        0.00000   0.00000   0.00000  -0.00000   0.00000
 253       79G-4        0.00000   0.00000  -0.00000   0.00000   0.00000
 254       80G 0        0.00000   0.00000   0.00000  -0.00000   0.00022
 255       80G+1        0.00042   0.00000   0.00000   0.00000   0.00000
 256       80G-1        0.00000   0.00042   0.00000   0.00000   0.00000
 257       80G+2        0.00000   0.00000   0.00000   0.00007   0.00000
 258       80G-2        0.00000   0.00000   0.00007   0.00000   0.00000
 259       80G+3       -0.00000   0.00000   0.00000   0.00000   0.00000
 260       80G-3        0.00000  -0.00000   0.00000   0.00000   0.00000
 261       80G+4        0.00000   0.00000   0.00000   0.00000  -0.00000
 262       80G-4        0.00000   0.00000  -0.00000   0.00000   0.00000
 263       81H 0        0.00000   0.00000   0.00000   0.00000  -0.00000
 264       81H+1       -0.00001   0.00000   0.00000   0.00000   0.00000
 265       81H-1        0.00000  -0.00001   0.00000   0.00000   0.00000
 266       81H+2        0.00000   0.00000   0.00000  -0.00000  -0.00000
 267       81H-2        0.00000   0.00000  -0.00000   0.00000   0.00000
 268       81H+3        0.00000   0.00000   0.00000   0.00000   0.00000
 269       81H-3        0.00000   0.00000   0.00000   0.00000   0.00000
 270       81H+4        0.00000   0.00000   0.00000   0.00000  -0.00000
 271       81H-4        0.00000   0.00000   0.00000   0.00000   0.00000
 272       81H+5       -0.00000   0.00000   0.00000   0.00000   0.00000
 273       81H-5        0.00000  -0.00000   0.00000   0.00000   0.00000
 274       82H 0        0.00000   0.00000   0.00000  -0.00000   0.00002
 275       82H+1       -0.00001   0.00000   0.00000   0.00000   0.00000
 276       82H-1        0.00000  -0.00001   0.00000   0.00000   0.00000
 277       82H+2        0.00000   0.00000   0.00000  -0.00001   0.00000
 278       82H-2        0.00000   0.00000  -0.00001   0.00000   0.00000
 279       82H+3        0.00000   0.00000   0.00000   0.00000   0.00000
 280       82H-3        0.00000  -0.00000   0.00000   0.00000   0.00000
 281       82H+4        0.00000   0.00000   0.00000  -0.00000   0.00000
 282       82H-4        0.00000   0.00000   0.00000   0.00000   0.00000
 283       82H+5        0.00000   0.00000   0.00000   0.00000   0.00000
 284       82H-5        0.00000   0.00000   0.00000   0.00000   0.00000
 285       83H 0        0.00000   0.00000   0.00000   0.00000  -0.00007
 286       83H+1        0.00001   0.00000   0.00000   0.00000   0.00000
 287       83H-1        0.00000   0.00001   0.00000   0.00000   0.00000
 288       83H+2        0.00000   0.00000   0.00000   0.00002  -0.00000
 289       83H-2        0.00000   0.00000   0.00002   0.00000   0.00000
 290       83H+3       -0.00000   0.00000   0.00000   0.00000   0.00000
 291       83H-3        0.00000   0.00000   0.00000   0.00000   0.00000
 292       83H+4        0.00000   0.00000   0.00000   0.00000  -0.00000
 293       83H-4        0.00000   0.00000  -0.00000   0.00000   0.00000
 294       83H+5       -0.00000   0.00000   0.00000   0.00000   0.00000
 295       83H-5        0.00000  -0.00000   0.00000   0.00000   0.00000
 296       84H 0        0.00000   0.00000   0.00000   0.00000  -0.00006
 297       84H+1       -0.00016   0.00000   0.00000   0.00000   0.00000
 298       84H-1        0.00000  -0.00016   0.00000   0.00000   0.00000
 299       84H+2        0.00000   0.00000   0.00000  -0.00004  -0.00000
 300       84H-2        0.00000   0.00000  -0.00004   0.00000   0.00000
 301       84H+3       -0.00000   0.00000   0.00000   0.00000   0.00000
 302       84H-3        0.00000  -0.00000   0.00000   0.00000   0.00000
 303       84H+4        0.00000   0.00000   0.00000  -0.00000   0.00000
 304       84H-4        0.00000   0.00000  -0.00000   0.00000   0.00000
 305       84H+5        0.00000   0.00000   0.00000   0.00000   0.00000
 306       84H-5        0.00000  -0.00000   0.00000   0.00000   0.00000
 307       85I 0        0.00000   0.00000   0.00000  -0.00000  -0.00000
 308       85I+1        0.00002   0.00000   0.00000   0.00000   0.00000
 309       85I-1        0.00000   0.00002   0.00000   0.00000   0.00000
 310       85I+2        0.00000   0.00000   0.00000   0.00001  -0.00000
 311       85I-2        0.00000   0.00000   0.00001   0.00000   0.00000
 312       85I+3        0.00000   0.00000   0.00000   0.00000   0.00000
 313       85I-3        0.00000   0.00000   0.00000   0.00000   0.00000
 314       85I+4        0.00000   0.00000   0.00000   0.00000  -0.00000
 315       85I-4        0.00000   0.00000  -0.00000   0.00000   0.00000
 316       85I+5       -0.00000   0.00000   0.00000   0.00000   0.00000
 317       85I-5        0.00000   0.00000   0.00000   0.00000   0.00000
 318       85I+6        0.00000   0.00000   0.00000  -0.00000   0.00000
 319       85I-6        0.00000   0.00000   0.00000   0.00000   0.00000
 320       86I 0        0.00000   0.00000   0.00000   0.00000  -0.00000
 321       86I+1       -0.00001   0.00000   0.00000   0.00000   0.00000
 322       86I-1        0.00000  -0.00001   0.00000   0.00000   0.00000
 323       86I+2        0.00000   0.00000   0.00000  -0.00000   0.00000
 324       86I-2        0.00000   0.00000  -0.00000   0.00000   0.00000
 325       86I+3       -0.00000   0.00000   0.00000   0.00000   0.00000
 326       86I-3        0.00000  -0.00000   0.00000   0.00000   0.00000
 327       86I+4        0.00000   0.00000   0.00000  -0.00000   0.00000
 328       86I-4        0.00000   0.00000   0.00000   0.00000   0.00000
 329       86I+5        0.00000   0.00000   0.00000   0.00000   0.00000
 330       86I-5        0.00000  -0.00000   0.00000   0.00000   0.00000
 331       86I+6        0.00000   0.00000   0.00000   0.00000  -0.00000
 332       86I-6        0.00000   0.00000   0.00000   0.00000   0.00000
 333       87I 0        0.00000   0.00000   0.00000  -0.00000  -0.00000
 334       87I+1        0.00007   0.00000   0.00000   0.00000   0.00000
 335       87I-1        0.00000   0.00007   0.00000   0.00000   0.00000
 336       87I+2        0.00000   0.00000   0.00000   0.00003  -0.00000
 337       87I-2        0.00000   0.00000   0.00003   0.00000   0.00000
 338       87I+3       -0.00000   0.00000   0.00000   0.00000   0.00000
 339       87I-3        0.00000  -0.00000   0.00000   0.00000   0.00000
 340       87I+4        0.00000   0.00000   0.00000   0.00000  -0.00000
 341       87I-4        0.00000   0.00000  -0.00000   0.00000   0.00000
 342       87I+5       -0.00000   0.00000   0.00000   0.00000   0.00000
 343       87I-5        0.00000  -0.00000   0.00000   0.00000   0.00000
 344       87I+6        0.00000   0.00000   0.00000  -0.00000   0.00000
 345       87I-6        0.00000   0.00000  -0.00000   0.00000   0.00000
 346 2   H  1S          0.00000   0.00000   0.00000   0.00000  -0.00002
 347        2S          0.00000   0.00000   0.00000  -0.00000   0.00040
 348        3S          0.00000   0.00000   0.00000  -0.00000   0.00788
 349        4S          0.00000   0.00000   0.00000  -0.00000   0.02783
 350        5S          0.00000   0.00000   0.00000  -0.00000   0.08281
 351        6S          0.00000   0.00000   0.00000  -0.00000   0.18126
 352        7S          0.00000   0.00000   0.00000  -0.00000   0.25685
 353        8S          0.00000   0.00000   0.00000  -0.00000   0.15248
 354        9S          0.00000   0.00000   0.00000  -0.00000   0.01145
 355       10PX        -0.00027   0.00000   0.00000   0.00000   0.00000
 356       10PY         0.00000  -0.00027   0.00000   0.00000   0.00000
 357       10PZ         0.00000   0.00000   0.00000  -0.00000   0.00021
 358       11PX        -0.00118   0.00000   0.00000   0.00000   0.00000
 359       11PY         0.00000  -0.00118   0.00000   0.00000   0.00000
 360       11PZ         0.00000   0.00000   0.00000   0.00000   0.00058
 361       12PX        -0.00468   0.00000   0.00000   0.00000   0.00000
 362       12PY         0.00000  -0.00468   0.00000   0.00000   0.00000
 363       12PZ         0.00000   0.00000   0.00000  -0.00000   0.00741
[...]
 206       74F-1        0.00007   0.00003   0.00003   0.00000
 207       74F+2        0.00009   0.00005   0.00005   0.00000
 208       74F-2        0.00009   0.00005   0.00005   0.00000
 209       74F+3       -0.00000  -0.00000  -0.00000   0.00000
 210       74F-3       -0.00000  -0.00000  -0.00000   0.00000
 211       75F 0        0.00080   0.00040   0.00040   0.00000
 212       75F+1        0.00003   0.00001   0.00001   0.00000
 213       75F-1        0.00003   0.00001   0.00001   0.00000
 214       75F+2        0.00006   0.00003   0.00003   0.00000
 215       75F-2        0.00006   0.00003   0.00003   0.00000
 216       75F+3        0.00000   0.00000   0.00000   0.00000
 217       75F-3       -0.00000  -0.00000  -0.00000   0.00000
 218       76G 0       -0.00000  -0.00000  -0.00000   0.00000
 219       76G+1       -0.00000  -0.00000  -0.00000   0.00000
 220       76G-1       -0.00000  -0.00000  -0.00000   0.00000
 221       76G+2       -0.00000  -0.00000  -0.00000   0.00000
 222       76G-2       -0.00000  -0.00000  -0.00000   0.00000
 223       76G+3       -0.00000  -0.00000  -0.00000   0.00000
 224       76G-3        0.00000   0.00000   0.00000   0.00000
 225       76G+4        0.00000   0.00000   0.00000   0.00000
 226       76G-4        0.00000   0.00000   0.00000   0.00000
 227       77G 0        0.00000   0.00000   0.00000   0.00000
 228       77G+1       -0.00000  -0.00000  -0.00000   0.00000
 229       77G-1       -0.00000  -0.00000  -0.00000   0.00000
 230       77G+2       -0.00000  -0.00000  -0.00000   0.00000
 231       77G-2       -0.00000  -0.00000  -0.00000   0.00000
 232       77G+3        0.00000   0.00000   0.00000   0.00000
 233       77G-3        0.00000   0.00000   0.00000   0.00000
 234       77G+4       -0.00000  -0.00000  -0.00000   0.00000
 235       77G-4        0.00000   0.00000   0.00000   0.00000
 236       78G 0        0.00000   0.00000   0.00000   0.00000
 237       78G+1        0.00000   0.00000   0.00000   0.00000
 238       78G-1        0.00000   0.00000   0.00000   0.00000
 239       78G+2        0.00000   0.00000   0.00000   0.00000
 240       78G-2        0.00000   0.00000   0.00000   0.00000
 241       78G+3       -0.00000  -0.00000  -0.00000   0.00000
 242       78G-3        0.00000   0.00000   0.00000   0.00000
 243       78G+4        0.00000   0.00000   0.00000   0.00000
 244       78G-4        0.00000   0.00000   0.00000   0.00000
 245       79G 0        0.00004   0.00002   0.00002   0.00000
 246       79G+1        0.00000   0.00000   0.00000   0.00000
 247       79G-1        0.00000   0.00000   0.00000   0.00000
 248       79G+2        0.00000   0.00000   0.00000   0.00000
 249       79G-2        0.00000   0.00000   0.00000   0.00000
 250       79G+3        0.00000   0.00000   0.00000   0.00000
 251       79G-3        0.00000   0.00000   0.00000   0.00000
 252       79G+4       -0.00000  -0.00000  -0.00000   0.00000
 253       79G-4        0.00000   0.00000   0.00000   0.00000
 254       80G 0        0.00011   0.00005   0.00005   0.00000
 255       80G+1        0.00000   0.00000   0.00000   0.00000
 256       80G-1        0.00000   0.00000   0.00000   0.00000
 257       80G+2        0.00000   0.00000   0.00000   0.00000
 258       80G-2        0.00000   0.00000   0.00000   0.00000
 259       80G+3        0.00000   0.00000   0.00000   0.00000
 260       80G-3        0.00000   0.00000   0.00000   0.00000
 261       80G+4        0.00000   0.00000   0.00000   0.00000
 262       80G-4        0.00000   0.00000   0.00000   0.00000
 263       81H 0        0.00000   0.00000   0.00000   0.00000
 264       81H+1        0.00000   0.00000   0.00000   0.00000
 265       81H-1        0.00000   0.00000   0.00000   0.00000
 266       81H+2        0.00000   0.00000   0.00000   0.00000
 267       81H-2        0.00000   0.00000   0.00000   0.00000
 268       81H+3        0.00000   0.00000   0.00000   0.00000
 269       81H-3        0.00000   0.00000   0.00000   0.00000
 270       81H+4        0.00000   0.00000   0.00000   0.00000
 271       81H-4        0.00000   0.00000   0.00000   0.00000
 272       81H+5        0.00000   0.00000   0.00000   0.00000
 273       81H-5        0.00000   0.00000   0.00000   0.00000
 274       82H 0       -0.00000  -0.00000  -0.00000   0.00000
 275       82H+1        0.00000   0.00000   0.00000   0.00000
 276       82H-1        0.00000   0.00000   0.00000   0.00000
 277       82H+2        0.00000   0.00000   0.00000   0.00000
 278       82H-2        0.00000   0.00000   0.00000   0.00000
 279       82H+3       -0.00000  -0.00000  -0.00000   0.00000
 280       82H-3        0.00000   0.00000   0.00000   0.00000
 281       82H+4       -0.00000  -0.00000  -0.00000   0.00000
 282       82H-4       -0.00000  -0.00000  -0.00000   0.00000
 283       82H+5        0.00000   0.00000   0.00000   0.00000
 284       82H-5       -0.00000  -0.00000  -0.00000   0.00000
 285       83H 0        0.00000   0.00000   0.00000   0.00000
 286       83H+1       -0.00000  -0.00000  -0.00000   0.00000
 287       83H-1       -0.00000  -0.00000  -0.00000   0.00000
 288       83H+2       -0.00000  -0.00000  -0.00000   0.00000
 289       83H-2       -0.00000  -0.00000  -0.00000   0.00000
 290       83H+3        0.00000   0.00000   0.00000   0.00000
 291       83H-3       -0.00000  -0.00000  -0.00000   0.00000
 292       83H+4        0.00000   0.00000   0.00000   0.00000
 293       83H-4        0.00000   0.00000   0.00000   0.00000
 294       83H+5       -0.00000  -0.00000  -0.00000   0.00000
 295       83H-5       -0.00000  -0.00000  -0.00000   0.00000
 296       84H 0        0.00001   0.00001   0.00001   0.00000
 297       84H+1        0.00000   0.00000   0.00000   0.00000
 298       84H-1        0.00000   0.00000   0.00000   0.00000
 299       84H+2        0.00000   0.00000   0.00000   0.00000
 300       84H-2        0.00000   0.00000   0.00000   0.00000
 301       84H+3        0.00000   0.00000   0.00000   0.00000
 302       84H-3        0.00000   0.00000   0.00000   0.00000
 303       84H+4        0.00000   0.00000   0.00000   0.00000
 304       84H-4        0.00000   0.00000   0.00000   0.00000
 305       84H+5        0.00000   0.00000   0.00000   0.00000
 306       84H-5        0.00000   0.00000   0.00000   0.00000
 307       85I 0        0.00000   0.00000   0.00000   0.00000
 308       85I+1        0.00000   0.00000   0.00000   0.00000
 309       85I-1        0.00000   0.00000   0.00000   0.00000
 310       85I+2        0.00000   0.00000   0.00000   0.00000
 311       85I-2        0.00000   0.00000   0.00000   0.00000
 312       85I+3        0.00000   0.00000   0.00000   0.00000
 313       85I-3        0.00000   0.00000   0.00000   0.00000
 314       85I+4        0.00000   0.00000   0.00000   0.00000
 315       85I-4        0.00000   0.00000   0.00000   0.00000
 316       85I+5        0.00000   0.00000   0.00000   0.00000
 317       85I-5       -0.00000  -0.00000  -0.00000   0.00000
 318       85I+6        0.00000   0.00000   0.00000   0.00000
 319       85I-6        0.00000   0.00000   0.00000   0.00000
 320       86I 0       -0.00000  -0.00000  -0.00000   0.00000
 321       86I+1       -0.00000  -0.00000  -0.00000   0.00000
 322       86I-1       -0.00000  -0.00000  -0.00000   0.00000
 323       86I+2       -0.00000  -0.00000  -0.00000   0.00000
 324       86I-2       -0.00000  -0.00000  -0.00000   0.00000
 325       86I+3        0.00000   0.00000   0.00000   0.00000
 326       86I-3        0.00000   0.00000   0.00000   0.00000
 327       86I+4       -0.00000  -0.00000  -0.00000   0.00000
 328       86I-4       -0.00000  -0.00000  -0.00000   0.00000
 329       86I+5       -0.00000  -0.00000  -0.00000   0.00000
 330       86I-5        0.00000   0.00000   0.00000   0.00000
 331       86I+6       -0.00000  -0.00000  -0.00000   0.00000
 332       86I-6        0.00000   0.00000   0.00000   0.00000
 333       87I 0        0.00000   0.00000   0.00000   0.00000
 334       87I+1        0.00000   0.00000   0.00000   0.00000
 335       87I-1        0.00000   0.00000   0.00000   0.00000
 336       87I+2        0.00000   0.00000   0.00000   0.00000
 337       87I-2        0.00000   0.00000   0.00000   0.00000
 338       87I+3        0.00000   0.00000   0.00000   0.00000
 339       87I-3        0.00000   0.00000   0.00000   0.00000
 340       87I+4        0.00000   0.00000   0.00000   0.00000
 341       87I-4        0.00000   0.00000   0.00000   0.00000
 342       87I+5        0.00000   0.00000   0.00000   0.00000
 343       87I-5        0.00000   0.00000   0.00000   0.00000
 344       87I+6        0.00000   0.00000   0.00000   0.00000
 345       87I-6        0.00000   0.00000   0.00000   0.00000
 346 2   H  1S         -0.00000  -0.00000  -0.00000   0.00000
 347        2S          0.00006   0.00003   0.00003   0.00000
 348        3S          0.00341   0.00171   0.00171   0.00000
 349        4S          0.02454   0.01227   0.01227   0.00000
 350        5S          0.12228   0.06114   0.06114   0.00000
 351        6S          0.35398   0.17699   0.17699   0.00000
 352        7S          0.50987   0.25494   0.25494   0.00000
 353        8S          0.26357   0.13178   0.13178   0.00000
 354        9S          0.01385   0.00692   0.00692   0.00000
 355       10PX         0.00001   0.00000   0.00000   0.00000
 356       10PY         0.00001   0.00000   0.00000   0.00000
 357       10PZ         0.00005   0.00002   0.00002   0.00000
 358       11PX         0.00011   0.00006   0.00006   0.00000
 359       11PY         0.00011   0.00006   0.00006   0.00000
 360       11PZ         0.00046   0.00023   0.00023   0.00000
 361       12PX         0.00121   0.00061   0.00061   0.00000
 362       12PY         0.00121   0.00061   0.00061   0.00000
 363       12PZ         0.00468   0.00234   0.00234   0.00000
 364       13PX         0.00173   0.00087   0.00087   0.00000
 365       13PY         0.00173   0.00087   0.00087   0.00000
 366       13PZ        -0.00164  -0.00082  -0.00082   0.00000
 367       14PX        -0.00002  -0.00001  -0.00001   0.00000
 368       14PY        -0.00002  -0.00001  -0.00001   0.00000
 369       14PZ        -0.00214  -0.00107  -0.00107   0.00000
 370       15D 0        0.00001   0.00000   0.00000   0.00000
 371       15D+1        0.00000   0.00000   0.00000   0.00000
 372       15D-1        0.00000   0.00000   0.00000   0.00000
 373       15D+2        0.00000   0.00000   0.00000   0.00000
 374       15D-2        0.00000   0.00000   0.00000   0.00000
 375       16D 0        0.00032   0.00016   0.00016   0.00000
 376       16D+1        0.00020   0.00010   0.00010   0.00000
 377       16D-1        0.00020   0.00010   0.00010   0.00000
 378       16D+2        0.00001   0.00000   0.00000   0.00000
 379       16D-2        0.00001   0.00000   0.00000   0.00000
 380       17D 0        0.00185   0.00093   0.00093   0.00000
 381       17D+1        0.00042   0.00021   0.00021   0.00000
 382       17D-1        0.00042   0.00021   0.00021   0.00000
 383       17D+2        0.00009   0.00004   0.00004   0.00000
 384       17D-2        0.00009   0.00004   0.00004   0.00000
 385       18D 0        0.00153   0.00077   0.00077   0.00000
 386       18D+1       -0.00010  -0.00005  -0.00005   0.00000
 387       18D-1       -0.00010  -0.00005  -0.00005   0.00000
 388       18D+2        0.00009   0.00004   0.00004   0.00000
 389       18D-2        0.00009   0.00004   0.00004   0.00000
 390       19F 0        0.00000   0.00000   0.00000   0.00000
 391       19F+1        0.00001   0.00000   0.00000   0.00000
 392       19F-1        0.00001   0.00000   0.00000   0.00000
 393       19F+2        0.00000   0.00000   0.00000   0.00000
 394       19F-2        0.00000   0.00000   0.00000   0.00000
 395       19F+3       -0.00000  -0.00000  -0.00000   0.00000
 396       19F-3       -0.00000  -0.00000  -0.00000   0.00000
 397       20F 0        0.00079   0.00039   0.00039   0.00000
 398       20F+1        0.00015   0.00007   0.00007   0.00000
 399       20F-1        0.00015   0.00007   0.00007   0.00000
 400       20F+2        0.00003   0.00002   0.00002   0.00000
 401       20F-2        0.00003   0.00002   0.00002   0.00000
 402       20F+3        0.00000   0.00000   0.00000   0.00000
 403       20F-3        0.00000   0.00000   0.00000   0.00000
 404       21F 0        0.00321   0.00161   0.00161   0.00000
 405       21F+1       -0.00011  -0.00006  -0.00006   0.00000
 406       21F-1       -0.00011  -0.00006  -0.00006   0.00000
 407       21F+2        0.00001   0.00000   0.00000   0.00000
 408       21F-2        0.00001   0.00000   0.00000   0.00000
 409       21F+3       -0.00000  -0.00000  -0.00000   0.00000
 410       21F-3        0.00000   0.00000   0.00000   0.00000
 411       22G 0        0.00001   0.00001   0.00001   0.00000
 412       22G+1        0.00000   0.00000   0.00000   0.00000
 413       22G-1        0.00000   0.00000   0.00000   0.00000
 414       22G+2        0.00000   0.00000   0.00000   0.00000
 415       22G-2        0.00000   0.00000   0.00000   0.00000
 416       22G+3        0.00000   0.00000   0.00000   0.00000
 417       22G-3       -0.00000  -0.00000  -0.00000   0.00000
 418       22G+4        0.00000   0.00000   0.00000   0.00000
 419       22G-4        0.00000   0.00000   0.00000   0.00000
 420       23G 0        0.00137   0.00069   0.00069   0.00000
 421       23G+1        0.00001   0.00001   0.00001   0.00000
 422       23G-1        0.00001   0.00001   0.00001   0.00000
 423       23G+2        0.00001   0.00001   0.00001   0.00000
 424       23G-2        0.00001   0.00001   0.00001   0.00000
 425       23G+3       -0.00000  -0.00000  -0.00000   0.00000
 426       23G-3        0.00000   0.00000   0.00000   0.00000
 427       23G+4        0.00000   0.00000   0.00000   0.00000
 428       23G-4       -0.00000  -0.00000  -0.00000   0.00000
          Condensed to atoms (all electrons):
               1          2
     1  Cu  18.328448   0.361753
     2  H    0.361753   0.948046
          Atomic-Atomic Spin Densities.
               1          2
     1  Cu   0.000000   0.000000
     2  H    0.000000   0.000000
 Mulliken charges and spin densities:
               1          2
     1  Cu   0.309799   0.000000
     2  H   -0.309799   0.000000
 Sum of Mulliken charges =   0.00000   0.00000
 Mulliken charges and spin densities with hydrogens summed into heavy atoms:
               1          2
     1  Cu   0.000000   0.000000
 Electronic spatial extent (au):  <R**2>=             39.8517
 Charge=              0.0000 electrons
 Dipole moment (field-independent basis, Debye):
    X=              0.0000    Y=              0.0000    Z=              3.9810  Tot=              3.9810
 Quadrupole moment (field-independent basis, Debye-Ang):
   XX=            -13.6310   YY=            -13.6310   ZZ=            -16.0130
   XY=              0.0000   XZ=              0.0000   YZ=              0.0000
 Traceless Quadrupole moment (field-independent basis, Debye-Ang):
   XX=              0.7940   YY=              0.7940   ZZ=             -1.5880
   XY=              0.0000   XZ=              0.0000   YZ=              0.0000
 Octapole moment (field-independent basis, Debye-Ang**2):
  XXX=              0.0000  YYY=              0.0000  ZZZ=             14.5516  XYY=              0.0000
  XXY=              0.0000  XXZ=              3.9532  XZZ=              0.0000  YZZ=              0.0000
  YYZ=              3.9532  XYZ=              0.0000
 Hexadecapole moment (field-independent basis, Debye-Ang**3):
 XXXX=            -16.3924 YYYY=            -16.3924 ZZZZ=            -44.9182 XXXY=              0.0000
 XXXZ=              0.0000 YYYX=              0.0000 YYYZ=              0.0000 ZZZX=              0.0000
 ZZZY=              0.0000 XXYY=             -5.4641 XXZZ=             -9.9684 YYZZ=             -9.9684
 XXYZ=              0.0000 YYXZ=              0.0000 ZZXY=              0.0000
 N-N= 6.702911338320D+00 E-N=-4.975339862166D+02  KE= 1.271582893700D+02
 Symmetry A1   KE= 5.206923967328D+01
 Symmetry A2   KE= 1.830028134891D+01
 Symmetry B1   KE= 2.839438417453D+01
 Symmetry B2   KE= 2.839438417257D+01
 Symmetry A1   SP= 0.000000000000D+00
 Symmetry A2   SP= 0.000000000000D+00
 Symmetry B1   SP= 0.000000000000D+00
 Symmetry B2   SP= 0.000000000000D+00
 Orbital energies and kinetic energies (alpha):
                                 1                 2
   6         O                -0.498102          9.095152
   7         O                -0.498102          9.095152
   8         O                -0.496363          9.150141
   9         O                -0.496363          9.150141
  10         O                -0.340048          1.622774
  11         V                 0.000310          0.135678
  12         V                 0.025529          0.037533
  13         V                 0.025529          0.037533
  14         V                 0.029753          0.033221
  15         V                 0.042531          0.199659
 Total kinetic energy from orbitals= 1.271582893700D+02
                          Isotropic Fermi Contact Couplings
        Atom                 a.u.       MegaHertz       Gauss      10(-4) cm-1
     1  Cu(63)             0.00000       0.00000       0.00000       0.00000
     2  H(1)               0.00000       0.00000       0.00000       0.00000
 --------------------------------------------------------
       Center         ----  Spin Dipole Couplings  ----
                      3XX-RR        3YY-RR        3ZZ-RR
 --------------------------------------------------------
     1   Atom        0.000000      0.000000      0.000000
     2   Atom        0.000000      0.000000      0.000000
 --------------------------------------------------------
                        XY            XZ            YZ
 --------------------------------------------------------
     1   Atom        0.000000      0.000000      0.000000
     2   Atom        0.000000      0.000000      0.000000
 --------------------------------------------------------


 ---------------------------------------------------------------------------------
              Anisotropic Spin Dipole Couplings in Principal Axis System
 ---------------------------------------------------------------------------------

       Atom             a.u.   MegaHertz   Gauss  10(-4) cm-1        Axes

              Baa     0.0000     0.000     0.000     0.000  1.0000  0.0000  0.0000
     1 Cu(63) Bbb     0.0000     0.000     0.000     0.000 -0.0000  1.0000  0.0000
              Bcc     0.0000     0.000     0.000     0.000  0.0000  0.0000  1.0000
 
              Baa     0.0000     0.000     0.000     0.000  1.0000  0.0000  0.0000
     2 H(1)   Bbb     0.0000     0.000     0.000     0.000 -0.0000  1.0000  0.0000
              Bcc     0.0000     0.000     0.000     0.000  0.0000  0.0000  1.0000
 

 ---------------------------------------------------------------------------------

 No NMR shielding tensors so no spin-rotation constants.
 Leave Link  601 at Thu May  3 11:09:25 2018, MaxMem= 21474836480 cpu:              61.4 elap:               2.0
 (Enter /home1/apps/gaussian/16rA.03/g16/l9999.exe)

 Test job not archived.
 1\1\GINC-C488-021\SP\ROCCSD(T)-Full\Gen\Cu1H1\GWANG18\03-May-2018\0\\#
 P ROCCSD(T)=(MaxCyc=150, Full)/Gen SCF=(maxcycle=400) Pseudo=Read Inte
 gral(NoXCTest) Pop=Regular MaxDisk=500GB Guess=Read IOp(5/15=2)\\CuH\\
 0,1\Cu,0,0.,0.,0.\H,0,0.,0.,1.5\\Version=ES64L-G16RevA.03\State=1-SG\H
 F=-197.1206283\MP2=-198.2765277\MP3=-198.0769015\PUHF=-197.1206283\PMP
 2-0=-198.2765277\MP4SDQ=-198.2267455\CCSD=-198.1566888\CCSD(T)=-198.19
 61197\RMSD=8.528e-09\PG=C*V [C*(H1Cu1)]\\@


 THOSE WITH THE GOLD MAKE THE RULES.

             -- PETER'S GOLDEN RULE
 Job cpu time:       1 days 14 hours  9 minutes 45.4 seconds.
 Elapsed time:       0 days  1 hours 12 minutes 29.9 seconds.
 File lengths (MBytes):  RWF=  27410 Int=      0 D2E=      0 Chk=     23 Scr=      1
 Normal termination of Gaussian 16 at Thu May  3 11:09:25 2018.
