
 Primary working directories    : /tmp/cmelton
 Secondary working directories  : /tmp/cmelton
 Wavefunction directory         : /remote/cmelton/wfu/
 Main file repository           : /tmp/cmelton/

 SHA1      : 4c1979699e6aeda0524d0210415ba82a958648b0
 NAME      : 2012.1.39
 ARCHNAME  : Linux/x86_64
 FC        : /projects/sems/install/rhel6-x86_64/sems/compiler/intel/16.0.1/base/bin/ifort
 FCVERSION : 16.0.1
 BLASLIB   : -L/projects/sems/install/rhel6-x86_64/sems/compiler/intel/16.0.1/base/compilers_and_libraries_2016.1.150/linux/mkl/lib/intel64 -lmkl_intel_ilp64 -lmkl_sequential -lmkl_core
 id        : sandiacon

 Nodes           nprocs
 breve.sandia.gov    1

 Using customized tuning parameters: mindgm=7; mindgv=16; mindgc=1; mindgr=1; noblas=0; minvec=7
 default implementation of scratch files=df  

 ***,Calculation for Be atom, singlet and triplet
 memory,512,m
 gthresh,twoint=1.0E-12
 
 set,dkroll=1,dkho=10,dkhp=4
 basis={
 Including file /remote/cmelton/data/corrECP/NiH/uc/aug-cc-pwCVQZ-dk.basis
 }
 
 ne    =29
 symm  =4
 ss    =1
 
 do i=1,21
     z(i) = 1.075 + 0.05*(i-1)
     geometry={
         2
         Oxygen
         Ni  0.0 0.0 0.0
         H  0.0 0.0 z(i)
     }
     {rhf
      wf,ne,symm,ss
      print,orbitals=3
     }
     scf(i)=energy
     _CC_NORM_MAX=2.0
     {rccsd(t);maxit,100;core,3,1,1,0}
     ccsd(i)=energy
 enddo
 
 geometry={
    1
    Vanadium
    Ni 0.0 0.0 0.0
 }
 {rhf;
  start,atden
  wf,28,6,2;
  occ,6,2,2,1,2,1,1,0;
  open,1.4,1.7
  sym,1,1,1,1,1,3,2
 }
 Ni_scf=energy
 _CC_NORM_MAX=2.0
 {rccsd(t);maxit,100;core,2,1,1,0,1,0,0}
 Ni_ccsd=energy
 
 geometry={
    1
    Oxygen
    H 0.0 0.0 0.0
 }
 {rhf;
  wf,1,1,1;
  occ,1,0,0,0,0,0,0,0;
  open,1.1;
 }
 H_scf=energy
 
 table,z,scf,ccsd
 save
 type,csv

 Variables initialized (782), CPU time= 0.00 sec
 Commands  initialized (547), CPU time= 0.01 sec, 517 directives.
 Default parameters read. Elapsed time= 0.09 sec

 Checking input...
 Passed
1


                                         ***  PROGRAM SYSTEM MOLPRO  ***
                         Copyright, University College Cardiff Consultants Limited, 2008

                                    Version 2012.1 linked Aug  2 2016 14:07:26


 **********************************************************************************************************************************
 LABEL *   Calculation for Be atom, singlet and triplet                                  
 Linux-3.10.0-693.11.6.el7.x86_64/breve.sandia.gov(x86_64) 64 bit serial version         DATE: 29-Jan-18          TIME: 14:58:25  
 **********************************************************************************************************************************

 SHA1:             4c1979699e6aeda0524d0210415ba82a958648b0
 **********************************************************************************************************************************

 THRESHOLDS:

 ZERO    =  1.00D-12  ONEINT  =  1.00D-12  TWOINT  =  1.00D-12  PREFAC  =  1.00D-14  LOCALI  =  1.00D-09  EORDER  =  1.00D-04
 ENERGY  =  0.00D+00  ETEST   =  0.00D+00  EDENS   =  0.00D+00  THRDEDEF=  1.00D-06  GRADIENT=  1.00D-02  STEP    =  1.00D-03
 ORBITAL =  1.00D-05  CIVEC   =  1.00D-05  COEFF   =  1.00D-04  PRINTCI =  5.00D-02  PUNCHCI =  9.90D+01  OPTGRAD =  3.00D-04
 OPTENERG=  1.00D-06  OPTSTEP =  3.00D-04  THRGRAD =  1.00D-10  COMPRESS=  1.00D-11  VARMIN  =  1.00D-07  VARMAX  =  1.00D-03
 THRDOUB =  0.00D+00  THRDIV  =  1.00D-05  THRRED  =  1.00D-07  THRPSP  =  1.00D+00  THRDC   =  1.00D-10  THRCS   =  1.00D-10
 THRNRM  =  1.00D-08  THREQ   =  0.00D+00  THRDE   =  1.00D+00  THRREF  =  1.00D-05  SPARFAC =  1.00D+00  THRDLP  =  1.00D-07
 THRDIA  =  1.00D-10  THRDLS  =  1.00D-07  THRGPS  =  0.00D+00  THRKEX  =  0.00D+00  THRDIS  =  2.00D-01  THRVAR  =  1.00D-10
 THRLOC  =  1.00D-06  THRGAP  =  1.00D-06  THRLOCT = -1.00D+00  THRGAPT = -1.00D+00  THRORB  =  1.00D-06  THRMLTP =  0.00D+00
 THRCPQCI=  1.00D-10  KEXTA   =  0.00D+00  THRCOARS=  0.00D+00  SYMTOL  =  1.00D-06  GRADTOL =  1.00D-06  THROVL  =  1.00D-08
 THRORTH =  1.00D-08  GRID    =  1.00D-06  GRIDMAX =  1.00D-03  DTMAX   =  0.00D+00  THROCCDE=  1.00D-01  THROCCDE=  1.00D-01


 SETTING DKROLL         =         1.00000000                                  
 SETTING DKHO           =        10.00000000                                  
 SETTING DKHP           =         4.00000000                                  

 Variable memory set to  512000000 words,  buffer space   230000 words

 SETTING BASIS          =    USERDEF
 SETTING NE             =        29.00000000                                  
 SETTING SYMM           =         4.00000000                                  
 SETTING SS             =         1.00000000                                  

 DO I                   =         1.00000000   
 SETTING Z(1)           =         1.07500000                                  

Geometry recognized as XYZ



 Recomputing integrals since basis changed


 Using spherical harmonics


1PROGRAM * SEWARD (Integral evaluation for generally contracted gaussian basis sets)     Author: Roland Lindh, 1990

 Geometry written to block  1 of record 700


 Point group  C2v 



 ATOMIC COORDINATES

 NR  ATOM    CHARGE       X              Y              Z

   1  NI     28.00    0.000000000    0.000000000    0.000000000
   2  H       1.00    0.000000000    0.000000000    2.031455591

 Bond lengths in Bohr (Angstrom)

 1-2  2.031455591
     ( 1.075000000)

 NUCLEAR CHARGE:                   29
 NUMBER OF PRIMITIVE AOS:         402
 NUMBER OF SYMMETRY AOS:          310
 NUMBER OF CONTRACTIONS:          310   ( 126A1  +  73B1  +  73B2  +  38A2  )
 NUMBER OF CORE ORBITALS:           9   (   5A1  +   2B1  +   2B2  +   0A2  )
 NUMBER OF VALENCE ORBITALS:        7   (   4A1  +   1B1  +   1B2  +   1A2  )


 NUCLEAR REPULSION ENERGY   13.78322033

 One-electron integrals computed with SEWARD

 10nd-order Douglas-Kroll-Hess method activated. McWeeny DKH parametrization is used.

 Computing Douglas-Kroll integrals

 AO integral compression algorithm  1   Integral accuracy      1.0D-12

     909.640 MB (compressed) written to integral file ( 38.0%)


 NUMBER OF SORTED TWO-ELECTRON INTEGRALS:  297476048.     BUFFER LENGTH:  32768
 NUMBER OF SEGMENTS:  10  SEGMENT LENGTH:   31996000      RECORD LENGTH: 524288

 Memory used in sort:      32.55 MW

 SORT1 READ   299065286. AND WROTE   139714777. INTEGRALS IN    403 RECORDS. CPU TIME:     4.21 SEC, REAL TIME:     5.69 SEC
 SORT2 READ   139714777. AND WROTE   297476048. INTEGRALS IN   3470 RECORDS. CPU TIME:     4.02 SEC, REAL TIME:     5.07 SEC

 FILE SIZES:   FILE 1:   920.4 MBYTE,  FILE 4:  1690.3 MBYTE,   TOTAL:   2610.8 MBYTE

 OPERATOR DM      FOR CENTER  0  COORDINATES:    0.000000    0.000000    0.000000

 EXTRA SYMMETRY OF AOS IN SYMMETRY 1:   1 1 1 1 1 1 1 1 1 1   1 1 1 1 1 1 1 1 1 1   1 1 1 1 1 1 1 1 1 1   1 1 1 1 1 1 1 1 1 1
                                        1 1 1 1 1 1 1 2 1 2   1 2 1 2 1 2 1 2 1 2   1 2 1 2 1 2 1 2 1 2   1 2 1 2 1 2 1 2 1 2
                                        1 2 1 2 1 3 2 1 3 2   1 3 2 1 3 2 2 3 1 2   3 1 2 3 1 1 1 1 1 1   1 1 1 1 1 1 1 2 1 2
                                        1 2 1 2 1 2
 EXTRA SYMMETRY OF AOS IN SYMMETRY 2:   1 1 1 1 1 1 1 1 1 1   1 1 1 1 1 1 1 1 1 1   1 1 1 1 1 1 1 1 1 1   1 1 1 1 1 1 2 1 2 1
                                        2 1 2 1 2 1 2 1 2 1   2 1 2 1 2 3 1 2 3 1   2 3 1 1 1 1 1 1 1 1   2 1 2
 EXTRA SYMMETRY OF AOS IN SYMMETRY 3:   1 1 1 1 1 1 1 1 1 1   1 1 1 1 1 1 1 1 1 1   1 1 1 1 1 1 1 1 1 1   1 1 1 1 1 1 2 1 2 1
                                        2 1 2 1 2 1 2 1 2 1   2 1 2 1 2 3 1 2 3 1   2 3 1 1 1 1 1 1 1 1   2 1 2
 EXTRA SYMMETRY OF AOS IN SYMMETRY 4:   1 1 1 1 1 1 1 1 1 1   1 1 1 1 1 1 1 1 1 1   2 1 2 1 2 1 2 2 1 2   1 2 1 1 1 1 1 1

 Eigenvalues of metric

         1 0.486E-06 0.857E-06 0.455E-05 0.884E-05 0.119E-04 0.182E-04 0.206E-04 0.690E-04
         2 0.903E-06 0.101E-04 0.202E-04 0.463E-03 0.718E-03 0.878E-03 0.190E-02 0.394E-02
         3 0.903E-06 0.101E-04 0.202E-04 0.463E-03 0.718E-03 0.878E-03 0.190E-02 0.394E-02
         4 0.206E-04 0.743E-03 0.953E-02 0.214E-01 0.331E-01 0.605E-01 0.804E-01 0.124E+00


 **********************************************************************************************************************************
 DATASETS  * FILE   NREC   LENGTH (MB)   RECORD NAMES
              1      23      676.56       500      610      700      900      950      970     1000      129      960     1700   
                                          VAR    BASINP    GEOM    SYMINP    ZMAT    AOBASIS   BASIS     P2S    ABASIS    OPER   
                                         1101     1401     1411     1412     1650     1100     1400     1410     1200     1210   
                                          SR      EKINR    POTR     PVPR    MOLCAS      S      EKIN      POT      H0       H01  
                                         1300     1080     1600   
                                         ERIS     AOSYM     SMH  

 PROGRAMS   *        TOTAL       INT
 CPU TIMES  *        75.30     75.20
 REAL TIME  *        79.70 SEC
 DISK USED  *         2.61 GB      
 **********************************************************************************************************************************

1PROGRAM * RHF-SCF (OPEN SHELL)       Authors: W. Meyer, H.-J. Werner


 NUMBER OF ELECTRONS:      15+   14-    SPACE SYMMETRY=4    SPIN SYMMETRY: Doublet 
 CONVERGENCE THRESHOLDS:    1.00E-05 (Density)    1.00E-07 (Energy)
 MAX. NUMBER OF ITERATIONS:       60
 INTERPOLATION TYPE:            DIIS
 INTERPOLATION STEPS:              2 (START)      1 (STEP)
 LEVEL SHIFTS:                 -0.30 (CLOSED)  0.00 (OPEN) 



 Orbital guess generated from atomic densities. Full valence occupancy:    9   3   3   1

 Molecular orbital dump at record        2100.2

 ITERATION    DDIFF          GRAD             ENERGY        2-EL.EN.            DIPOLE MOMENTS         DIIS   ORB.
    1      0.000D+00      0.000D+00     -1519.50959115   1208.050751    0.00000    0.00000   -1.63708    0    start
    2      0.000D+00      0.100D-01     -1519.52623536   1221.698779    0.00000    0.00000   -1.28119    1    diag,B
    3      0.162D-02      0.572D-02     -1519.53722640   1211.696863    0.00000    0.00000   -1.31507    2    diag,B
    4      0.887D-03      0.266D-02     -1519.54051395   1214.691331    0.00000    0.00000   -1.28358    3    diag,B
    5      0.321D-03      0.512D-03     -1519.54191462   1214.432199    0.00000    0.00000   -1.24477    4    diag,B
    6      0.492D-03      0.359D-03     -1519.54295534   1214.243390    0.00000    0.00000   -1.19392    5    diag,B
    7      0.530D-03      0.197D-03     -1519.54340761   1214.073772    0.00000    0.00000   -1.14030    6    fixocc
    8      0.337D-03      0.102D-03     -1519.54355394   1213.969997    0.00000    0.00000   -1.09505    7    diag,B
    9      0.175D-03      0.404D-04     -1519.54357878   1213.909678    0.00000    0.00000   -1.07215    8    diag,B
   10      0.768D-04      0.145D-04     -1519.54358108   1213.897931    0.00000    0.00000   -1.06521    9    orth
   11      0.587D-04      0.373D-05     -1519.54358118   1213.894093    0.00000    0.00000   -1.06439    9    diag,B
   12      0.339D-04      0.139D-05     -1519.54358119   1213.894618    0.00000    0.00000   -1.06438    9    diag,B
   13      0.713D-05      0.380D-06     -1519.54358119   1213.894395    0.00000    0.00000   -1.06439    0    orth

 Final alpha occupancy:   8   3   3   1
 Final beta  occupancy:   8   3   3   0

 !RHF STATE 1.4 Energy              -1519.543581189582
 Nuclear energy                        13.78322033
 One-electron energy                -2140.27399917
 Two-electron energy                  606.94719765
 Virial quotient                       -0.95334359
 !RHF STATE 1.4 Dipole moment           0.00000000     0.00000000    -1.06438661
 Dipole moment /Debye                   0.00000000     0.00000000    -2.70522372

 ELECTRON ORBITALS
 =================


   Orb  Occ    Energy  Couls-En    Coefficients

                                   1 1s      1 1s      1 1s      1 1s      1 1s      1 1s      1 1s      1 1s      1 1s      1 1s   
                                   1 1s      1 1s      1 1s      1 1s      1 1s      1 1s      1 1s      1 1s      1 1s      1 1s   
                                   1 1s      1 1s      1 1s      1 1s      1 1s      1 2pz     1 2pz     1 2pz     1 2pz     1 2pz  
                                   1 2pz     1 2pz     1 2pz     1 2pz     1 2pz     1 2pz     1 2pz     1 2pz     1 2pz     1 2pz  
                                   1 2pz     1 2pz     1 2pz     1 2pz     1 2pz     1 2pz     1 3d0     1 3d2+    1 3d0     1 3d2+ 
                                   1 3d0     1 3d2+    1 3d0     1 3d2+    1 3d0     1 3d2+    1 3d0     1 3d2+    1 3d0     1 3d2+ 
                                   1 3d0     1 3d2+    1 3d0     1 3d2+    1 3d0     1 3d2+    1 3d0     1 3d2+    1 3d0     1 3d2+ 
                                   1 3d0     1 3d2+    1 3d0     1 3d2+    1 4f0     1 4f2+    1 4f0     1 4f2+    1 4f0     1 4f2+ 
                                   1 4f0     1 4f2+    1 4f0     1 4f2+    1 5g0     1 5g4+    1 5g2+    1 5g0     1 5g4+    1 5g2+ 
                                   1 5g0     1 5g4+    1 5g2+    1 5g0     1 5g4+    1 5g2+    1 6h2+    1 6h4+    1 6h0     1 6h2+ 
                                   1 6h4+    1 6h0     1 6h2+    1 6h4+    1 6h0     2 1s      2 1s      2 1s      2 1s      2 1s   
                                   2 1s      2 1s      2 2pz     2 2pz     2 2pz     2 2pz     2 3d0     2 3d2+    2 3d0     2 3d2+ 
                                   2 3d0     2 3d2+    2 4f0     2 4f2+    2 4f0     2 4f2+ 

   1.1   2  -308.6612 -705.1747  0.000071  0.000201  0.000527  0.001267  0.002988  0.007044  0.016813  0.039949  0.090435  0.182026
                                 0.294644  0.321754  0.176748  0.027558 -0.002572  0.010406  0.001131  0.001457 -0.000082 -0.000046
                                -0.000004 -0.000002 -0.009565 -0.001883 -0.000000 -0.000000 -0.000000 -0.000000 -0.000000 -0.000001
                                -0.000002 -0.000006 -0.000001  0.000002  0.000007  0.000058 -0.000029 -0.000108  0.000026 -0.000021
                                -0.000032 -0.000004  0.000000 -0.000052  0.000113 -0.000000 -0.000000 -0.000000 -0.000001  0.000000
                                -0.000002 -0.000000 -0.000000  0.000000  0.000003 -0.000000  0.000020 -0.000000  0.000007 -0.000000
                                -0.000002 -0.000000 -0.000013  0.000000 -0.000008 -0.000000  0.000000  0.000000 -0.000009  0.000000
                                -0.000019  0.000000 -0.000000 -0.000000  0.000003 -0.000000 -0.000001  0.000000  0.000002 -0.000000
                                -0.000006  0.000000 -0.000002 -0.000000 -0.000001  0.000001 -0.000000  0.000000 -0.000000 -0.000000
                                -0.000000  0.000000 -0.000000 -0.000002 -0.000000  0.000000  0.000000 -0.000000 -0.000000 -0.000000
                                -0.000000  0.000000  0.000000 -0.000000 -0.000001 -0.000000  0.000000 -0.000001  0.000015  0.000052
                                 0.000010  0.000002 -0.000000 -0.000009 -0.000017 -0.000003 -0.000000 -0.000000  0.000002 -0.000000
                                 0.000001 -0.000000  0.000001  0.000000  0.000000  0.000000

   2.1   2   -38.4839 -136.3810 -0.000022 -0.000063 -0.000165 -0.000396 -0.000937 -0.002223 -0.005353 -0.012988 -0.030485 -0.066542
                                -0.125140 -0.182592 -0.122005  0.215218  0.557021  0.379610  0.054467  0.015974  0.000170 -0.000187
                                -0.000094  0.000008 -0.022517 -0.019161 -0.000000  0.000000  0.000000  0.000001  0.000003  0.000009
                                 0.000028  0.000073  0.000147  0.000209  0.000306  0.000462 -0.000089 -0.000512  0.000088 -0.000038
                                -0.000175 -0.000048  0.000001 -0.000210  0.000515  0.000001 -0.000000  0.000000 -0.000003 -0.000000
                                -0.000018  0.000000 -0.000122 -0.000000 -0.000281  0.000000 -0.000216  0.000000 -0.000026  0.000000
                                 0.000038 -0.000000 -0.000060  0.000000 -0.000050 -0.000000 -0.000003  0.000000  0.000172 -0.000000
                                 0.000164 -0.000000  0.000000 -0.000000  0.000041 -0.000000 -0.000055  0.000000  0.000016 -0.000000
                                -0.000017  0.000000 -0.000015  0.000000 -0.000025  0.000038 -0.000000 -0.000041  0.000073  0.000000
                                 0.000001  0.000012 -0.000000 -0.000008  0.000004  0.000000  0.000000  0.000000  0.000000  0.000000
                                -0.000000  0.000002  0.000000 -0.000000  0.000001  0.000000  0.000001  0.000005  0.000026  0.000251
                                 0.000106 -0.000003 -0.000001 -0.000006 -0.000072 -0.000021 -0.000004  0.000000 -0.000005 -0.000000
                                -0.000002 -0.000000  0.000003 -0.000000  0.000006  0.000000

   3.1   2   -32.9375 -129.4419  0.000000  0.000000  0.000000  0.000000  0.000001  0.000002  0.000004  0.000011  0.000025  0.000054
                                 0.000102  0.000150  0.000103 -0.000201 -0.000397 -0.000448 -0.000235  0.000172 -0.000265  0.000149
                                 0.000108  0.000008  0.000241 -0.000061  0.000002  0.000057  0.000208  0.000843  0.003123  0.010729
                                 0.032425  0.084326  0.178567  0.291050  0.327413  0.202459  0.055550  0.008524  0.000468  0.000216
                                 0.000186  0.000067  0.000007  0.002836 -0.004295 -0.000000  0.000000  0.000000  0.000002 -0.000000
                                 0.000012 -0.000000  0.000096 -0.000000  0.000172 -0.000000  0.000049 -0.000000  0.000024 -0.000000
                                -0.000079 -0.000000  0.000091 -0.000000  0.000058 -0.000000  0.000012 -0.000000 -0.000064  0.000000
                                -0.000051  0.000000  0.000001  0.000000 -0.000299 -0.000000 -0.000040 -0.000000 -0.000109 -0.000000
                                 0.000036  0.000000  0.000021  0.000000  0.000027 -0.000000 -0.000000 -0.000014 -0.000000  0.000000
                                 0.000001 -0.000000 -0.000000  0.000018 -0.000000  0.000000  0.000000 -0.000010  0.000010 -0.000000
                                 0.000015 -0.000016  0.000000 -0.000002  0.000007  0.000000  0.000006 -0.000010  0.000012 -0.000112
                                -0.000115 -0.000007  0.000002 -0.000075 -0.000048 -0.000005  0.000022 -0.000000  0.000074 -0.000000
                                 0.000036 -0.000000 -0.000025  0.000000 -0.000018  0.000000

   4.1   2    -4.8718  -43.0301  0.000008  0.000023  0.000062  0.000148  0.000351  0.000834  0.002008  0.004890  0.011510  0.025433
                                 0.048619  0.074095  0.051732 -0.107337 -0.386248 -0.378711  0.303030  0.676970  0.300367 -0.000991
                                -0.008562  0.002879  0.038455  0.013371  0.000276 -0.000000 -0.000000 -0.000002 -0.000007 -0.000023
                                -0.000073 -0.000190 -0.000429 -0.000666 -0.001059 -0.002410  0.002773  0.006844  0.001438 -0.003176
                                -0.007616 -0.002333  0.000358  0.001794 -0.004319  0.000241  0.000000  0.000000  0.000004  0.000000
                                 0.000017  0.000000  0.000124  0.000000  0.000219 -0.000000 -0.000049 -0.000000  0.000274 -0.000000
                                 0.000477  0.000000 -0.001778 -0.000000 -0.002246  0.000000 -0.000105 -0.000000  0.000034  0.000000
                                -0.000698  0.000000  0.000104 -0.000000 -0.000081  0.000000 -0.000068 -0.000000  0.000158  0.000000
                                -0.000194 -0.000000 -0.000491  0.000000 -0.000093  0.000141 -0.000000 -0.000025  0.000146  0.000000
                                -0.000154  0.000547 -0.000000 -0.000114  0.000241 -0.000000  0.000000 -0.000001 -0.000004  0.000000
                                 0.000000  0.000047 -0.000000 -0.000003  0.000040  0.000070  0.000447  0.001696  0.005275  0.013121
                                 0.005963 -0.001732 -0.001176 -0.002746 -0.004877 -0.001391  0.000810  0.000000  0.001003  0.000000
                                 0.000258 -0.000000 -0.000420 -0.000000  0.000184 -0.000000

   5.1   2    -3.1949  -38.9505 -0.000000 -0.000000 -0.000000 -0.000001 -0.000003 -0.000006 -0.000015 -0.000035 -0.000086 -0.000183
                                -0.000367 -0.000518 -0.000443  0.001005  0.001985  0.016313  0.007647  0.043047 -0.015079  0.008757
                                 0.000559 -0.000789 -0.016386 -0.047426  0.000212 -0.000021 -0.000076 -0.000309 -0.001151 -0.003975
                                -0.012179 -0.032402 -0.071168 -0.120945 -0.143506 -0.048007  0.210903  0.419426  0.366169  0.157090
                                 0.023960 -0.000991  0.000351  0.005729 -0.017177 -0.000118 -0.000002 -0.000000 -0.000018 -0.000000
                                -0.000082 -0.000000 -0.000377 -0.000000 -0.000492 -0.000000  0.002576 -0.000000  0.001069 -0.000000
                                -0.002026 -0.000000  0.001193 -0.000000  0.004017 -0.000000 -0.000398 -0.000000 -0.001335 -0.000000
                                -0.004165 -0.000000  0.000107  0.000000 -0.000344 -0.000000 -0.001503 -0.000000 -0.000887 -0.000000
                                -0.000016 -0.000000  0.000958  0.000000  0.000019 -0.000001  0.000000  0.000195 -0.000001  0.000000
                                 0.000536 -0.000004 -0.000000  0.000260 -0.000004 -0.000000  0.000000 -0.000051  0.000039  0.000000
                                -0.000113  0.000192 -0.000000  0.000030  0.000161  0.000231  0.001555  0.007064  0.016717 -0.011040
                                 0.001183  0.000050 -0.003336 -0.004411  0.002097 -0.000324  0.001546  0.000000  0.001091 -0.000000
                                 0.000552 -0.000000 -0.000580 -0.000000 -0.000258  0.000000

   6.1   2    -0.5752  -23.5671 -0.000001 -0.000002 -0.000005 -0.000013 -0.000030 -0.000072 -0.000173 -0.000421 -0.000993 -0.002189
                                -0.004211 -0.006406 -0.004579  0.009739  0.034886  0.053592 -0.020790 -0.011557 -0.074861 -0.051012
                                -0.048709 -0.008772 -0.024258 -0.077416 -0.003837  0.000002  0.000009  0.000036  0.000134  0.000467
                                 0.001415  0.003827  0.008280  0.014600  0.015450 -0.013326 -0.018801 -0.023966 -0.053467 -0.021602
                                -0.020308 -0.008496 -0.000711  0.015207 -0.035821 -0.001401  0.000263  0.000000  0.002337  0.000000
                                 0.012012  0.000000  0.040925  0.000000  0.102618  0.000000  0.185141  0.000000  0.231985  0.000000
                                 0.222154  0.000000  0.161055  0.000000  0.053889  0.000000  0.007657  0.000000 -0.001669 -0.000000
                                -0.007538 -0.000000 -0.000804 -0.000000  0.000429  0.000000  0.001141  0.000000  0.004931 -0.000000
                                 0.000727 -0.000000 -0.005825 -0.000000 -0.000205 -0.000061 -0.000000 -0.000050 -0.000078 -0.000000
                                 0.000695 -0.000226 -0.000000 -0.000468 -0.000326  0.000000  0.000000  0.000008  0.000005  0.000000
                                 0.000023  0.000337  0.000000 -0.000037  0.000090  0.001704  0.012748  0.060970  0.193161  0.316138
                                 0.158135  0.012785 -0.007007 -0.023595 -0.039817 -0.020198  0.002998  0.000000  0.006522  0.000000
                                 0.000823  0.000000 -0.001206 -0.000000 -0.000036 -0.000000

   7.1   2    -0.5471  -29.9255 -0.000000  0.000000  0.000000 -0.000000 -0.000000 -0.000000 -0.000000 -0.000000  0.000000  0.000000
                                 0.000000  0.000000 -0.000000  0.000000 -0.000000  0.000000  0.000000 -0.000000  0.000000  0.000000
                                 0.000000 -0.000000 -0.000000  0.000000 -0.000000 -0.000000 -0.000000 -0.000000 -0.000000 -0.000000
                                -0.000000 -0.000000 -0.000000 -0.000000 -0.000000  0.000000  0.000000  0.000000  0.000000  0.000000
                                 0.000000  0.000000 -0.000000 -0.000000  0.000000 -0.000000 -0.000000  0.000360 -0.000000  0.003205
                                -0.000000  0.016463 -0.000000  0.056205 -0.000000  0.140298 -0.000000  0.245166 -0.000000  0.308103
                                -0.000000  0.295374 -0.000000  0.213830 -0.000000  0.094461  0.000000  0.011621 -0.000000  0.000472
                                -0.000000  0.000428 -0.000000 -0.000415 -0.000000  0.000035 -0.000000  0.000131 -0.000000 -0.000189
                                 0.000000 -0.003002  0.000000 -0.003724  0.000000 -0.000000 -0.000114  0.000000 -0.000000 -0.000325
                                -0.000000  0.000000 -0.000022  0.000000  0.000000  0.000371  0.000037 -0.000000 -0.000000  0.000068
                                -0.000000 -0.000000  0.000169 -0.000000  0.000000 -0.000000 -0.000000 -0.000000 -0.000000 -0.000000
                                -0.000000  0.000000  0.000000  0.000000  0.000000  0.000000 -0.000000  0.000578 -0.000000  0.001292
                                -0.000000  0.000522  0.000000 -0.000540 -0.000000  0.000065

   8.1   2    -0.3085  -15.5852 -0.000002 -0.000004 -0.000011 -0.000028 -0.000065 -0.000155 -0.000373 -0.000910 -0.002142 -0.004744
                                -0.009078 -0.013932 -0.009745  0.020585  0.078350  0.072906 -0.081566 -0.245529 -0.161162  0.239356
                                 0.385902  0.136364 -0.000773  0.045403 -0.001980  0.000001  0.000005  0.000021  0.000077  0.000267
                                 0.000816  0.002187  0.004784  0.008249  0.009468 -0.000709 -0.014066 -0.020254 -0.036760 -0.003093
                                 0.027030  0.022193  0.007868  0.002777 -0.010606  0.000495 -0.000164 -0.000000 -0.001456 -0.000000
                                -0.007488 -0.000000 -0.025528 -0.000000 -0.064076 -0.000000 -0.114085 -0.000000 -0.142431 -0.000000
                                -0.137704 -0.000000 -0.107800 -0.000000 -0.067072 -0.000000 -0.021688 -0.000000  0.000871  0.000000
                                 0.003007  0.000000  0.000450 -0.000000  0.000137  0.000000  0.000275 -0.000000  0.001427  0.000000
                                 0.005834  0.000000  0.005234  0.000000  0.000130  0.000030  0.000000  0.000188  0.000150  0.000000
                                 0.000498  0.000177  0.000000  0.000358  0.000051 -0.000000 -0.000000  0.000004 -0.000029 -0.000000
                                 0.000015 -0.000085 -0.000000 -0.000031  0.000116  0.000670  0.005213  0.024192  0.076716  0.155783
                                 0.121971  0.005222  0.002818  0.004187  0.005738  0.011853 -0.001386 -0.000000 -0.002459 -0.000000
                                -0.003164  0.000000  0.000657  0.000000  0.000360 -0.000000

   9.1   0     0.0103   -4.8318 -0.000000 -0.000000 -0.000000 -0.000000 -0.000000 -0.000001 -0.000003 -0.000004 -0.000017 -0.000018
                                -0.000083 -0.000010 -0.000231  0.000678 -0.001881  0.041496  0.028617  0.184745 -0.030544 -0.390095
                                 0.362335  0.036956 -0.048417 -0.178257  1.692490 -0.000001 -0.000005 -0.000020 -0.000070 -0.000260
                                -0.000738 -0.002153 -0.004208 -0.008781 -0.003852  0.056919 -0.019143 -0.121831  0.075617 -0.048105
                                -0.193351 -0.132086  0.262234 -0.052088  0.152464 -0.444583  0.000045  0.000000  0.000402  0.000000
                                 0.002053  0.000000  0.007052  0.000000  0.017241  0.000000  0.030214  0.000000  0.040865  0.000000
                                 0.035175 -0.000000 -0.014103  0.000000 -0.033366 -0.000000  0.053845  0.000000  0.000721 -0.000000
                                -0.000575 -0.000000  0.136390 -0.000000 -0.000080  0.000000  0.000019 -0.000000 -0.000471  0.000000
                                -0.014329 -0.000000 -0.020314  0.000000 -0.000114  0.000031  0.000000  0.000155  0.000092 -0.000000
                                -0.001384  0.000142 -0.000000 -0.004356  0.000016 -0.000000 -0.000000 -0.000011 -0.000013  0.000000
                                -0.000031  0.000170 -0.000000  0.000072 -0.001018 -0.000268 -0.001833 -0.011466 -0.007771  0.272508
                                -0.265548 -1.252784  0.000228 -0.030831 -0.098968 -0.022626  0.001475 -0.000000  0.013173  0.000000
                                 0.010459 -0.000000 -0.000824  0.000000 -0.000697 -0.000000

  10.1   0     0.0267   -2.6988  0.000000  0.000001  0.000001  0.000004  0.000009  0.000020  0.000049  0.000117  0.000286  0.000600
                                 0.001237  0.001690  0.001582 -0.003675 -0.006295 -0.077147 -0.031354 -0.198045  0.080406  0.543203
                                -0.747399  4.040838  0.078835  0.219997  5.092991  0.000000  0.000001  0.000002  0.000008  0.000029
                                 0.000090  0.000236  0.000530  0.000879  0.001141  0.000908 -0.001877 -0.001603 -0.007333  0.023558
                                 0.169253 -0.204141  1.253494 -0.000619 -0.001127  2.008921  0.000003 -0.000000  0.000011  0.000000
                                 0.000138 -0.000000  0.000087  0.000000  0.003705 -0.000000  0.022149 -0.000000  0.011093 -0.000000
                                -0.002534  0.000000  0.028475 -0.000000 -0.019027  0.000000 -0.055665 -0.000000 -0.008921  0.000000
                                -0.021034  0.000000  0.366654  0.000000  0.000000 -0.000000 -0.000121  0.000000  0.000159 -0.000000
                                 0.001002  0.000000 -0.013435 -0.000000  0.000049 -0.000007 -0.000000 -0.000196 -0.000019  0.000000
                                 0.000793  0.000037 -0.000000 -0.002939  0.000130  0.000000  0.000000  0.000001 -0.000015  0.000000
                                 0.000004  0.000061  0.000000 -0.000014 -0.000166 -0.000025 -0.000590  0.000099 -0.002007 -0.148364
                                -0.296427 -8.411238  0.000664 -0.002106  0.172112  0.185703  0.000889  0.000000 -0.014782 -0.000000
                                -0.072048  0.000000  0.001120 -0.000000  0.004137  0.000000

  11.1   0     0.0572   -5.8658 -0.000000 -0.000001 -0.000002 -0.000005 -0.000011 -0.000028 -0.000065 -0.000164 -0.000369 -0.000868
                                -0.001526 -0.002664 -0.001243  0.002083  0.020190 -0.103611 -0.097932 -0.601978  0.075100  1.264875
                                -3.780798  3.470570  0.137330  0.541059 -0.400696 -0.000002 -0.000007 -0.000027 -0.000114 -0.000342
                                -0.001228 -0.002732 -0.007582 -0.008247 -0.029220 -0.178358  0.124323  0.492306 -0.093270  0.208020
                                 0.381460 -0.979620 -0.901932  0.154089 -0.451555  1.389160  0.000053 -0.000000  0.000457  0.000000
                                 0.002405 -0.000000  0.007939  0.000000  0.021910 -0.000000  0.043221 -0.000000  0.041749 -0.000000
                                 0.051305  0.000000  0.172218 -0.000000  0.105637  0.000000 -0.197198 -0.000000 -0.004552  0.000000
                                -0.004559  0.000000  0.209758  0.000000  0.000074 -0.000000 -0.000621  0.000000  0.000381 -0.000000
                                 0.041892  0.000000  0.021357 -0.000000  0.000193  0.000046 -0.000000 -0.001135  0.000136  0.000000
                                 0.003865  0.000124 -0.000000  0.010509 -0.000164  0.000000  0.000000 -0.000016  0.000091  0.000000
                                -0.000047 -0.000344  0.000000  0.000112  0.002732 -0.000258 -0.003021 -0.003356 -0.107430 -0.942370
                                 2.445789 -2.046520 -0.005890  0.086273  0.297914 -0.464259 -0.002646  0.000000 -0.044677 -0.000000
                                -0.055444  0.000000  0.002479 -0.000000  0.004040  0.000000

                                   1 2px     1 2px     1 2px     1 2px     1 2px     1 2px     1 2px     1 2px     1 2px     1 2px  
                                   1 2px     1 2px     1 2px     1 2px     1 2px     1 2px     1 2px     1 2px     1 2px     1 2px  
                                   1 2px     1 3d1+    1 3d1+    1 3d1+    1 3d1+    1 3d1+    1 3d1+    1 3d1+    1 3d1+    1 3d1+ 
                                   1 3d1+    1 3d1+    1 3d1+    1 3d1+    1 3d1+    1 4f1+    1 4f3+    1 4f1+    1 4f3+    1 4f1+ 
                                   1 4f3+    1 4f1+    1 4f3+    1 4f1+    1 4f3+    1 5g1+    1 5g3+    1 5g1+    1 5g3+    1 5g1+ 
                                   1 5g3+    1 5g1+    1 5g3+    1 6h1+    1 6h3+    1 6h5+    1 6h1+    1 6h3+    1 6h5+    1 6h1+ 
                                   1 6h3+    1 6h5+    2 2px     2 2px     2 2px     2 2px     2 3d1+    2 3d1+    2 3d1+    2 4f1+ 
                                   2 4f3+    2 4f1+    2 4f3+ 

   1.2   2   -32.9480 -129.4480  0.000057  0.000208  0.000843  0.003123  0.010727  0.032422  0.084314  0.178541  0.290993  0.327491
                                 0.202965  0.055260  0.007403  0.000604  0.000269  0.000078  0.000005  0.000003  0.002553 -0.003306
                                -0.000001 -0.000000 -0.000003 -0.000012  0.000008  0.000050  0.000057  0.000013 -0.000015  0.000021
                                 0.000007  0.000001 -0.000006 -0.000015  0.000000 -0.000070  0.000180  0.000140  0.000200  0.000025
                                 0.000120  0.000035  0.000025  0.000002  0.000003  0.000021  0.000000 -0.000016 -0.000000  0.000004
                                -0.000000  0.000006 -0.000000  0.000007  0.000002 -0.000016 -0.000012 -0.000003  0.000024  0.000005
                                 0.000001 -0.000004  0.000001 -0.000019 -0.000033 -0.000009  0.000000  0.000018  0.000013  0.000001
                                -0.000000 -0.000004 -0.000000

   2.2   2    -3.1742  -39.0143 -0.000021 -0.000076 -0.000311 -0.001157 -0.003994 -0.012239 -0.032564 -0.071518 -0.121560 -0.144166
                                -0.047195  0.211491  0.422667  0.366646  0.158869  0.016779 -0.001844  0.000800  0.004696 -0.015804
                                -0.000246  0.000001  0.000007  0.000044  0.000081  0.000591  0.002750  0.001699 -0.001078 -0.001329
                                 0.000103 -0.000263 -0.000812 -0.001884  0.000024  0.000234  0.000624 -0.000138  0.001302  0.000992
                                 0.002810  0.000695  0.002099 -0.000036  0.000182  0.000015 -0.000000  0.000084  0.000000  0.000193
                                -0.000007 -0.000010 -0.000016  0.000029  0.000012 -0.000081  0.000128  0.000026 -0.000179  0.000072
                                 0.000001  0.000046  0.000561  0.001332  0.000549  0.000551 -0.000521 -0.000709 -0.000139  0.000346
                                 0.000001  0.000135 -0.000013

   3.2   2    -0.5315  -29.5974 -0.000000 -0.000000 -0.000000 -0.000001 -0.000002 -0.000006 -0.000018 -0.000037 -0.000073 -0.000068
                                 0.000459 -0.000157 -0.003117  0.001580 -0.003560 -0.010348 -0.002466  0.000291 -0.000392  0.003421
                                -0.000079  0.000355  0.003154  0.016207  0.055299  0.138287  0.242932  0.303967  0.293293  0.216472
                                 0.096945  0.013574 -0.000308 -0.001373 -0.000706  0.000105 -0.000001  0.000184 -0.000006  0.000773
                                -0.000015 -0.001687 -0.000038 -0.004564 -0.000053 -0.000187  0.000046 -0.000443  0.000084  0.000301
                                 0.000184  0.000824  0.000230  0.000042 -0.000000 -0.000000  0.000187  0.000002  0.000000  0.000306
                                -0.000007  0.000001  0.004416  0.009611  0.012550  0.001827 -0.002215 -0.002337 -0.000355  0.000894
                                 0.000009 -0.000299  0.000057

   4.2   0     0.0249   -3.5029  0.000001  0.000002  0.000011  0.000036  0.000149  0.000372  0.001255  0.002005  0.005693 -0.002533
                                -0.081176  0.037942  0.166735 -0.053153  0.019401 -0.093479  0.106854 -0.378126  0.072786 -0.190475
                                 1.173118  0.000002  0.000014  0.000094  0.000216  0.001489  0.006999  0.004352  0.000504 -0.017585
                                -0.041925 -0.048453 -0.002450 -0.005962 -0.119833  0.000036  0.000005 -0.000131  0.000044  0.000569
                                 0.000027 -0.009264 -0.000113 -0.010908 -0.000248 -0.000029 -0.000001  0.000103 -0.000003 -0.000357
                                -0.000002 -0.003876 -0.000003 -0.000042 -0.000002  0.000009  0.000180 -0.000004  0.000028 -0.000871
                                 0.000010 -0.000073 -0.000297  0.007922  0.060027  0.174149  0.000173 -0.013256 -0.049331  0.001319
                                -0.000000  0.009637  0.000025

   5.2   0     0.0796   -4.5665  0.000001  0.000005  0.000018  0.000083  0.000230  0.000895  0.001807  0.005647  0.004658  0.026001
                                 0.183934 -0.118194 -0.438924  0.054637 -0.072126  0.161970 -0.236029  1.409087 -0.160407  0.423343
                                -1.016619  0.000012  0.000064  0.000540  0.000874  0.010900  0.058405  0.032572 -0.010879  0.045572
                                -0.106357  0.184147 -0.022283 -0.052912 -0.702186  0.000006  0.000009  0.000047  0.000082 -0.000135
                                 0.000050  0.003371 -0.000234 -0.010232 -0.000488  0.000045 -0.000004 -0.000217 -0.000012  0.000706
                                -0.000015  0.001450  0.000001  0.000043 -0.000003  0.000018 -0.000210 -0.000007  0.000053  0.000813
                                 0.000020 -0.000141  0.003657 -0.012985  0.053481 -0.035386 -0.000534  0.007432 -0.012111 -0.000075
                                -0.000002 -0.007326  0.000056

   6.2   0     0.0849   -4.4233  0.000001  0.000005  0.000017  0.000075  0.000217  0.000801  0.001725  0.004984  0.004970  0.020432
                                 0.130659 -0.086516 -0.308560  0.024481 -0.041337  0.395491  0.257828  1.097871 -0.113599  0.292773
                                -0.632468 -0.000013 -0.000049 -0.000564 -0.000477 -0.014197 -0.083968 -0.044865  0.016994  0.021712
                                 0.252485 -0.144920  0.033284  0.079611  0.959029 -0.000149  0.000008  0.000664  0.000076 -0.002281
                                 0.000045  0.028227 -0.000216  0.051201 -0.000437  0.000047  0.000004 -0.000147  0.000009  0.000765
                                 0.000018  0.013577 -0.000013  0.000096 -0.000003  0.000016 -0.000498 -0.000007  0.000048  0.002571
                                 0.000018 -0.000129  0.001066 -0.004995 -0.241481 -0.534825 -0.000400  0.040659  0.191989 -0.004937
                                 0.000002 -0.027288  0.000027

                                   1 2py     1 2py     1 2py     1 2py     1 2py     1 2py     1 2py     1 2py     1 2py     1 2py  
                                   1 2py     1 2py     1 2py     1 2py     1 2py     1 2py     1 2py     1 2py     1 2py     1 2py  
                                   1 2py     1 3d1-    1 3d1-    1 3d1-    1 3d1-    1 3d1-    1 3d1-    1 3d1-    1 3d1-    1 3d1- 
                                   1 3d1-    1 3d1-    1 3d1-    1 3d1-    1 3d1-    1 4f1-    1 4f3-    1 4f1-    1 4f3-    1 4f1- 
                                   1 4f3-    1 4f1-    1 4f3-    1 4f1-    1 4f3-    1 5g1-    1 5g3-    1 5g1-    1 5g3-    1 5g1- 
                                   1 5g3-    1 5g1-    1 5g3-    1 6h1-    1 6h3-    1 6h5-    1 6h1-    1 6h3-    1 6h5-    1 6h1- 
                                   1 6h3-    1 6h5-    2 2py     2 2py     2 2py     2 2py     2 3d1-    2 3d1-    2 3d1-    2 4f1- 
                                   2 4f3-    2 4f1-    2 4f3- 

   1.3   2   -32.9480 -129.4480  0.000057  0.000208  0.000843  0.003123  0.010727  0.032422  0.084314  0.178541  0.290993  0.327491
                                 0.202965  0.055260  0.007403  0.000604  0.000269  0.000078  0.000005  0.000003  0.002553 -0.003306
                                -0.000001 -0.000000 -0.000003 -0.000012  0.000008  0.000050  0.000057  0.000013 -0.000015  0.000021
                                 0.000007  0.000001 -0.000006 -0.000015  0.000000 -0.000070 -0.000180  0.000140 -0.000200  0.000025
                                -0.000120  0.000035 -0.000025  0.000002 -0.000003  0.000021 -0.000000 -0.000016  0.000000  0.000004
                                 0.000000  0.000006  0.000000  0.000007 -0.000002 -0.000016 -0.000012  0.000003  0.000024  0.000005
                                -0.000001 -0.000004  0.000001 -0.000019 -0.000033 -0.000009  0.000000  0.000018  0.000013  0.000001
                                 0.000000 -0.000004  0.000000

   2.3   2    -3.1742  -39.0143 -0.000021 -0.000076 -0.000311 -0.001157 -0.003994 -0.012239 -0.032564 -0.071518 -0.121560 -0.144166
                                -0.047195  0.211491  0.422667  0.366646  0.158869  0.016779 -0.001844  0.000800  0.004696 -0.015804
                                -0.000246  0.000001  0.000007  0.000044  0.000081  0.000591  0.002750  0.001699 -0.001078 -0.001329
                                 0.000103 -0.000263 -0.000812 -0.001884  0.000024  0.000234 -0.000624 -0.000138 -0.001302  0.000992
                                -0.002810  0.000695 -0.002099 -0.000036 -0.000182  0.000015  0.000000  0.000084 -0.000000  0.000193
                                 0.000007 -0.000010  0.000016  0.000029 -0.000012 -0.000081  0.000128 -0.000026 -0.000179  0.000072
                                -0.000001  0.000046  0.000561  0.001332  0.000549  0.000551 -0.000521 -0.000709 -0.000139  0.000346
                                -0.000001  0.000135  0.000013

   3.3   2    -0.5315  -29.5974 -0.000000 -0.000000 -0.000000 -0.000001 -0.000002 -0.000006 -0.000018 -0.000037 -0.000073 -0.000068
                                 0.000459 -0.000157 -0.003117  0.001580 -0.003560 -0.010348 -0.002466  0.000291 -0.000392  0.003421
                                -0.000079  0.000355  0.003154  0.016207  0.055299  0.138287  0.242932  0.303967  0.293293  0.216472
                                 0.096945  0.013574 -0.000308 -0.001373 -0.000706  0.000105  0.000001  0.000184  0.000006  0.000773
                                 0.000015 -0.001687  0.000038 -0.004564  0.000053 -0.000187 -0.000046 -0.000443 -0.000084  0.000301
                                -0.000184  0.000824 -0.000230  0.000042  0.000000 -0.000000  0.000187 -0.000002  0.000000  0.000306
                                 0.000007  0.000001  0.004416  0.009611  0.012550  0.001827 -0.002215 -0.002337 -0.000355  0.000894
                                -0.000009 -0.000299 -0.000057

   4.3   0     0.0249   -3.5029  0.000001  0.000002  0.000011  0.000036  0.000149  0.000372  0.001255  0.002005  0.005693 -0.002533
                                -0.081176  0.037942  0.166735 -0.053153  0.019401 -0.093479  0.106854 -0.378126  0.072786 -0.190475
                                 1.173118  0.000002  0.000014  0.000094  0.000216  0.001489  0.006999  0.004352  0.000504 -0.017585
                                -0.041925 -0.048453 -0.002450 -0.005962 -0.119833  0.000036 -0.000005 -0.000131 -0.000044  0.000569
                                -0.000027 -0.009264  0.000113 -0.010908  0.000248 -0.000029  0.000001  0.000103  0.000003 -0.000357
                                 0.000002 -0.003876  0.000003 -0.000042  0.000002  0.000009  0.000180  0.000004  0.000028 -0.000871
                                -0.000010 -0.000073 -0.000297  0.007922  0.060027  0.174149  0.000173 -0.013256 -0.049331  0.001319
                                 0.000000  0.009637 -0.000025

   5.3   0     0.0796   -4.5665  0.000001  0.000005  0.000018  0.000083  0.000230  0.000895  0.001807  0.005647  0.004658  0.026001
                                 0.183934 -0.118194 -0.438924  0.054637 -0.072126  0.161970 -0.236029  1.409087 -0.160407  0.423343
                                -1.016619  0.000012  0.000064  0.000540  0.000874  0.010900  0.058405  0.032572 -0.010879  0.045572
                                -0.106357  0.184147 -0.022283 -0.052912 -0.702186  0.000006 -0.000009  0.000047 -0.000082 -0.000135
                                -0.000050  0.003371  0.000234 -0.010232  0.000488  0.000045  0.000004 -0.000217  0.000012  0.000706
                                 0.000015  0.001450 -0.000001  0.000043  0.000003  0.000018 -0.000210  0.000007  0.000053  0.000813
                                -0.000020 -0.000141  0.003657 -0.012985  0.053481 -0.035386 -0.000534  0.007432 -0.012111 -0.000075
                                 0.000002 -0.007326 -0.000056

   6.3   0     0.0849   -4.4233  0.000001  0.000005  0.000017  0.000075  0.000217  0.000801  0.001725  0.004984  0.004970  0.020432
                                 0.130659 -0.086516 -0.308560  0.024481 -0.041337  0.395491  0.257828  1.097871 -0.113599  0.292773
                                -0.632468 -0.000013 -0.000049 -0.000564 -0.000477 -0.014197 -0.083968 -0.044865  0.016994  0.021712
                                 0.252485 -0.144920  0.033284  0.079611  0.959029 -0.000149 -0.000008  0.000664 -0.000076 -0.002281
                                -0.000045  0.028227  0.000216  0.051201  0.000437  0.000047 -0.000004 -0.000147 -0.000009  0.000765
                                -0.000018  0.013577  0.000013  0.000096  0.000003  0.000016 -0.000498  0.000007  0.000048  0.002571
                                -0.000018 -0.000129  0.001066 -0.004995 -0.241481 -0.534825 -0.000400  0.040659  0.191989 -0.004937
                                -0.000002 -0.027288 -0.000027

                                   1 3d2-    1 3d2-    1 3d2-    1 3d2-    1 3d2-    1 3d2-    1 3d2-    1 3d2-    1 3d2-    1 3d2- 
                                   1 3d2-    1 3d2-    1 3d2-    1 3d2-    1 4f2-    1 4f2-    1 4f2-    1 4f2-    1 4f2-    1 5g2- 
                                   1 5g4-    1 5g2-    1 5g4-    1 5g2-    1 5g4-    1 5g2-    1 5g4-    1 6h4-    1 6h2-    1 6h4- 
                                   1 6h2-    1 6h4-    1 6h2-    2 3d2-    2 3d2-    2 3d2-    2 4f2-    2 4f2- 

   1.4   +    -0.6044  -30.3023  0.000365  0.003244  0.016660  0.056851  0.141980  0.248791  0.312982  0.297065  0.206738  0.082865
                                 0.007976  0.000476  0.000432 -0.000209  0.000036  0.000135 -0.000190 -0.002993 -0.003098 -0.000317
                                -0.000000 -0.000965 -0.000000 -0.000924 -0.000000 -0.000125 -0.000000  0.000000  0.000036  0.000000
                                 0.000076 -0.000000  0.000149  0.000578  0.001235  0.000291 -0.000582  0.000108

   2.4   0     0.0830   -3.4513 -0.000017 -0.000050 -0.000740 -0.000307 -0.020612 -0.125142 -0.064374  0.030901 -0.063868  0.123633
                                -0.344169  0.050611  0.119609  1.184601 -0.000050  0.000183 -0.000530  0.002023 -0.006818  0.000007
                                 0.000000  0.000036 -0.000000 -0.000011  0.000000  0.000168 -0.000000 -0.000000  0.000001  0.000000
                                -0.000008 -0.000000  0.000015  0.000385 -0.001434  0.006931 -0.000133  0.000862

   3.4   0     0.2718   -5.6091 -0.000032 -0.000577 -0.001508 -0.011882  0.030524  0.325102  0.127539 -0.161131  0.166741 -0.365357
                                 1.625154 -0.153959 -0.364954 -0.805472 -0.000004 -0.000094  0.000027 -0.001075  0.015467 -0.000005
                                 0.000000  0.000296  0.000000 -0.000510 -0.000000  0.000525  0.000000 -0.000000 -0.000033 -0.000000
                                 0.000113  0.000000 -0.000403 -0.002459  0.012501 -0.080247  0.000326  0.004894

   4.4   0     0.7140   -6.5373 -0.000039 -0.000216 -0.001777 -0.003012 -0.035176 -0.188052 -0.107104  0.038606 -0.144068 -0.680100
                                -0.536349  0.070893  0.170698  0.146640  0.001715 -0.004262  0.019851 -0.042552 -0.296458  0.001552
                                 0.000000 -0.005496  0.000000  0.019635 -0.000000 -0.058307  0.000000 -0.000000  0.000165  0.000000
                                -0.000771  0.000000  0.002903  0.021460 -0.081037  1.825459  0.004112 -0.241597

 HOMO      8.1    -0.308535 =      -8.3957eV
 LUMO      9.1     0.010259 =       0.2792eV
 LUMO-HOMO         0.318794 =       8.6748eV


 **********************************************************************************************************************************
 DATASETS  * FILE   NREC   LENGTH (MB)   RECORD NAMES
              1      23      676.56       500      610      700      900      950      970     1000      129      960     1700   
                                          VAR    BASINP    GEOM    SYMINP    ZMAT    AOBASIS   BASIS     P2S    ABASIS    OPER   
                                         1101     1401     1411     1412     1650     1100     1400     1410     1200     1210   
                                          SR      EKINR    POTR     PVPR    MOLCAS      S      EKIN      POT      H0       H01  
                                         1300     1080     1600   
                                         ERIS     AOSYM     SMH  

              2       4        3.60       700     1000      520     2100   
                                         GEOM     BASIS   MCVARS     RHF  

 PROGRAMS   *        TOTAL       RHF       INT
 CPU TIMES  *        91.46     16.17     75.20
 REAL TIME  *        96.93 SEC
 DISK USED  *         2.61 GB      
 **********************************************************************************************************************************
 SETTING SCF(1)         =     -1519.54358119  AU                              
 SETTING _CC_NORM_MAX   =         2.00000000                                  


1PROGRAM * CCSD (Restricted open-shell coupled cluster)     Authors: C. Hampel, H.-J. Werner, 1991, M. Deegan, P.J. Knowles, 1992


 Convergence thresholds:  THRVAR = 1.00D-08  THRDEN = 1.00D-06

 CCSD(T)     terms to be evaluated (factor= 1.000)


 Number of core orbitals:           5 (   3   1   1   0 )
 Number of closed-shell orbitals:   9 (   5   2   2   0 )
 Number of active  orbitals:        1 (   0   0   0   1 )
 Number of external orbitals:     295 ( 118  70  70  37 )

 Memory could be reduced to 119.25 Mwords without degradation in triples

 Number of N-1 electron functions:              19
 Number of N-2 electron functions:             171
 Number of singly external CSFs:              1778
 Number of doubly external CSFs:           2954374
 Total number of CSFs:                     2956152

 Molecular orbitals read from record     2100.2  Type=RHF/CANONICAL (state 1.4)

 Integral transformation finished. Total CPU:   5.93 sec, npass=  1  Memory used:  10.77 MW

 Starting RMP2 calculation

 Wavefunction is spin-projected

      1      23      718.05       500      610      700      900      950      970     1000      129      960     1700   
                                          VAR    BASINP    GEOM    SYMINP    ZMAT    AOBASIS   BASIS     P2S    ABASIS    OPER   
                                         1101     1401     1411     1412     1650     1100     1400     1410     1200     1210   
                                          SR      EKINR    POTR     PVPR    MOLCAS      S      EKIN      POT      H0       H01  
                                         1300     1080     1600   
                                         ERIS     AOSYM     SMH  

              2       4        3.60       700     1000      520     2100   
                                         GEOM     BASIS   MCVARS     RHF  

 PROGRAMS   *        TOTAL  RCCSD(T)       RHF       INT  RCCSD(T)       RHF       INT  RCCSD(T)       RHF       INT  RCCSD(T)
 CPU TIMES  *      8267.60    481.38     10.13     63.48    457.45     10.34     65.46    479.58     11.30     64.80    476.37
 REAL TIME  *      8586.42 SEC
 DISK USED  *         2.84 GB      
 **********************************************************************************************************************************
 SETTING CCSD(15)       =     -1520.56661486  AU                              

 DO I                   =        16.00000000   
 SETTING Z(16)          =         1.77500000                                  

Geometry recognized as XYZ



 Recomputing integrals since geometry changed

1PROGRAM * SEWARD (Integral evaluation for generally contracted gaussian basis sets)     Author: Roland Lindh, 1990

 Geometry written to block  1 of record 700


 Point group  C2v 



 ATOMIC COORDINATES

 NR  ATOM    CHARGE       X              Y              Z

   1  NI     28.00    0.000000000    0.000000000    0.000000000
   2  H       1.00    0.000000000    0.000000000    3.354263883

 Bond lengths in Bohr (Angstrom)

 1-2  3.354263883
     ( 1.775000000)

 NUCLEAR CHARGE:                   29
 NUMBER OF PRIMITIVE AOS:         402
 NUMBER OF SYMMETRY AOS:          310
 NUMBER OF CONTRACTIONS:          310   ( 126A1  +  73B1  +  73B2  +  38A2  )
 NUMBER OF CORE ORBITALS:           9   (   5A1  +   2B1  +   2B2  +   0A2  )
 NUMBER OF VALENCE ORBITALS:        7   (   4A1  +   1B1  +   1B2  +   1A2  )


 NUCLEAR REPULSION ENERGY    8.34758414

 One-electron integrals computed with SEWARD

 10nd-order Douglas-Kroll-Hess method activated. McWeeny DKH parametrization is used.

 Computing Douglas-Kroll integrals

 ITER.      SQ.NORM     CORR.ENERGY   TOTAL ENERGY   ENERGY CHANGE        DEN1      VAR(S)    VAR(P)  DIIS     TIME
   1      1.15278324    -1.03234945 -1520.57593064    -1.03234945    -0.00141107  0.99D-06  0.66D-03  1  1     7.23
   2      1.15436600    -1.03383901 -1520.57742020    -0.00148956    -0.00000703  0.50D-07  0.58D-05  2  2     7.42
   3      1.15449992    -1.03390668 -1520.57748787    -0.00006767    -0.00000005  0.35D-08  0.41D-07  3  3     7.62
   4      1.15450614    -1.03390811 -1520.57748930    -0.00000143    -0.00000000  0.26D-09  0.37D-09  4  4     7.85
   5      1.15450633    -1.03390812 -1520.57748931    -0.00000001    -0.00000000  0.26D-11  0.73D-11  5  5     8.10

 Norm of t1 vector:      0.01958356      S-energy:    -0.00271211      T1 diagnostic:  0.00004158
 Norm of t2 vector:      0.39258478      P-energy:    -1.03119600
                                         Alpha-Beta:  -0.70587120
                                         Alpha-Alpha: -0.18339047
                                         Beta-Beta:   -0.14193433

 Spin contamination <S**2-Sz**2-Sz>     0.00000000
  Reference energy                  -1519.543581189582
  RHF-RMP2 correlation energy          -1.033908115626
 !RHF-RMP2 energy                   -1520.577489305208
 (NB above energy spin projected)

 Starting RCCSD calculation

 ITER.      SQ.NORM     CORR.ENERGY   TOTAL ENERGY   ENERGY CHANGE        DEN1      VAR(S)    VAR(P)  DIIS     TIME
   1      1.11122441    -0.87851254 -1520.42209373    -0.87851254    -0.06704041  0.99D-02  0.11D-01  0  0    19.04
   2      1.13342710    -0.93793609 -1520.48151728    -0.05942355    -0.01205436  0.21D-02  0.30D-02  1  1    29.77
   3      1.13267558    -0.92373530 -1520.46731649     0.01420079    -0.00071077  0.51D-03  0.13D-03  2  2    40.41
   4      1.13600240    -0.92461157 -1520.46819276    -0.00087626    -0.00023306  0.18D-03  0.48D-04  3  3    51.04
   5      1.14233187    -0.92622918 -1520.46981037    -0.00161761    -0.00003731  0.43D-04  0.48D-05  4  4    61.68
   6      1.14456281    -0.92646220 -1520.47004339    -0.00023302    -0.00001276  0.15D-04  0.17D-05  5  5    72.43
   7      1.14598720    -0.92651851 -1520.47009970    -0.00005631    -0.00000473  0.55D-05  0.54D-06  6  6    83.34
   8      1.14692177    -0.92652542 -1520.47010660    -0.00000691    -0.00000160  0.15D-05  0.23D-06  6  1    94.16
   9      1.14753796    -0.92654179 -1520.47012298    -0.00001638    -0.00000030  0.16D-06  0.77D-07  6  2   105.12
  10      1.14768027    -0.92654241 -1520.47012360    -0.00000061    -0.00000006  0.35D-07  0.16D-07  6  3   115.99
  11      1.14766815    -0.92653886 -1520.47012005     0.00000355    -0.00000001  0.76D-08  0.32D-08  6  4   126.71
  12      1.14769197    -0.92654156 -1520.47012275    -0.00000270    -0.00000000  0.18D-08  0.10D-08  6  5   137.45
  13      1.14768584    -0.92653913 -1520.47012032     0.00000243    -0.00000000  0.49D-09  0.15D-09  6  6   148.22
  14      1.14768753    -0.92653996 -1520.47012115    -0.00000083    -0.00000000  0.14D-09  0.38D-10  6  1   159.07

 Norm of t1 vector:      0.14481734      S-energy:    -0.00299846      T1 diagnostic:  0.02293510
                                                                       D1 diagnostic:  0.07814280
 Norm of t2 vector:      0.35597116      P-energy:    -0.92354150
                                         Alpha-Beta:  -0.66014260
                                         Alpha-Alpha: -0.14757291
                                         Beta-Beta:   -0.11582599

 Spin contamination <S**2-Sz**2-Sz>     0.00000000

 Memory could be reduced to 123.84 Mwords without degradation in triples
 

  Correlated core orbitals:             4.1       5.1       2.2       2.3
  Orbital energies:                    -4.9172   -3.2060   -3.2516   -3.2516
 
  RCCSD core-core energy               -0.130085962737
  RCCSD core-valence energy            -0.349720571043
  RCCSD valence correlation energy     -0.446733423355
 

 RESULTS
 =======

  Reference energy                  -1519.543581189582
  RCCSD singles energy                 -0.002998461015
  RCCSD pair energy                    -0.923541496119
  RCCSD correlation energy             -0.926539957135
  Triples (T) contribution             -0.037225130555
  Total correlation energy             -0.963765087689
 
  RHF-RCCSD energy                  -1520.470121146717
  RHF-RCCSD[T] energy               -1520.511698663518
  RHF-RCCSD-T energy                -1520.507030748616
 !RHF-RCCSD(T) energy               -1520.507346277272

 Program statistics:

 Available memory in ccsd:               511999000
 Min. memory needed in ccsd:               8714673
 Max. memory used in ccsd:                12328753
 Max. memory used in cckext:              10345992 (14 integral passes)
 Max. memory used in cckint:              10774746 ( 1 integral passes)



 **********************************************************************************************************************************
   7      1.18386286    -0.90899524 -1520.52596813    -0.00046412    -0.00005324  0.62D-04  0.66D-05  6  6    84.02
   8      1.19500562    -0.90918137 -1520.52615426    -0.00018613    -0.00002998  0.31D-04  0.47D-05  6  1    94.90
   9      1.20791249    -0.90944337 -1520.52641626    -0.00026200    -0.00001188  0.97D-05  0.31D-05  6  2   105.81
  10      1.21445269    -0.90950272 -1520.52647561    -0.00005935    -0.00000298  0.24D-05  0.82D-06  6  3   116.68
  11      1.21519818    -0.90949461 -1520.52646750     0.00000812    -0.00000086  0.75D-06  0.21D-06  6  4   127.59
  12      1.21611985    -0.90951173 -1520.52648462    -0.00001712    -0.00000030  0.20D-06  0.91D-07  6  5   138.48
  13      1.21564336    -0.90947863 -1520.52645152     0.00003310    -0.00000007  0.62D-07  0.14D-07  6  6   149.31
  14      1.21576410    -0.90948336 -1520.52645625    -0.00000473    -0.00000002  0.21D-07  0.47D-08  6  1   160.13
  15      1.21571722    -0.90948234 -1520.52645523     0.00000102    -0.00000001  0.10D-07  0.20D-08  6  2   170.82
  16      1.21577803    -0.90948285 -1520.52645574    -0.00000051    -0.00000000  0.37D-08  0.81D-09  6  3   181.50

 Norm of t1 vector:      0.28252857      S-energy:    -0.00284292      T1 diagnostic:  0.04552240
                                                                       D1 diagnostic:  0.18743546
 Norm of t2 vector:      0.36872163      P-energy:    -0.90663993
                                         Alpha-Beta:  -0.65028141
                                         Alpha-Alpha: -0.14400587
                                         Beta-Beta:   -0.11235265

 Singles amplitudes (print threshold =  0.500E-01):

         I         SYM. A    A   T(IA) [Alpha-Alpha]

         4         1         1     -0.05929154
         5         1         1      0.10329624
         5         1         3      0.09219266
         5         1         7      0.06987411
 
         I         SYM. A    A   T(IA) [Beta-Beta]

         4         1         1     -0.07744584
         4         1         3     -0.06187072
         5         1         1      0.10581702
         5         1         3      0.09290964
         5         1         7      0.06839723

 Spin contamination <S**2-Sz**2-Sz>     0.00000000

 Memory could be reduced to 123.84 Mwords without degradation in triples
 DATASETS  * FILE   NREC   LENGTH (MB)   RECORD NAMES
              1      23      676.56       500      610      700      900      950      970     1000      129      960     1700   
                                          VAR    BASINP    GEOM    SYMINP    ZMAT    AOBASIS   BASIS     P2S    ABASIS    OPER   
                                         1101     1401     1411     1412     1650     1100     1400     1410     1200     1210   
                                          SR      EKINR    POTR     PVPR    MOLCAS      S      EKIN      POT      H0       H01  
                                         1300     1080     1600   
                                         ERIS     AOSYM     SMH  

              2       4        3.60       700     1000      520     2100   
                                         GEOM     BASIS   MCVARS     RHF  

 PROGRAMS   *        TOTAL  RCCSD(T)       RHF       INT
 CPU TIMES  *       579.11    487.65     16.17     75.20
 REAL TIME  *       600.87 SEC
 DISK USED  *         2.67 GB      
 **********************************************************************************************************************************
 SETTING CCSD(1)        =     -1520.50734628  AU                              

 DO I                   =         2.00000000   
 SETTING Z(2)           =         1.12500000                                  

Geometry recognized as XYZ



 Recomputing integrals since geometry changed

1PROGRAM * SEWARD (Integral evaluation for generally contracted gaussian basis sets)     Author: Roland Lindh, 1990

 Geometry written to block  1 of record 700


 Point group  C2v 



 ATOMIC COORDINATES

 NR  ATOM    CHARGE       X              Y              Z

   1  NI     28.00    0.000000000    0.000000000    0.000000000
   2  H       1.00    0.000000000    0.000000000    2.125941898

 Bond lengths in Bohr (Angstrom)

 1-2  2.125941898
     ( 1.125000000)

 NUCLEAR CHARGE:                   29
 NUMBER OF PRIMITIVE AOS:         402
 NUMBER OF SYMMETRY AOS:          310
 NUMBER OF CONTRACTIONS:          310   ( 126A1  +  73B1  +  73B2  +  38A2  )
 NUMBER OF CORE ORBITALS:           9   (   5A1  +   2B1  +   2B2  +   0A2  )
 NUMBER OF VALENCE ORBITALS:        7   (   4A1  +   1B1  +   1B2  +   1A2  )


 NUCLEAR REPULSION ENERGY   13.17063276

 One-electron integrals computed with SEWARD

 10nd-order Douglas-Kroll-Hess method activated. McWeeny DKH parametrization is used.

 Computing Douglas-Kroll integrals

 AO integral compression algorithm  1   Integral accuracy      1.0D-13

     1082.130 MB (compressed) written to integral file ( 45.2%)


 NUMBER OF SORTED TWO-ELECTRON INTEGRALS:  297476048.     BUFFER LENGTH:  32768
 NUMBER OF SEGMENTS:  10  SEGMENT LENGTH:   31996000      RECORD LENGTH: 524288

 Memory used in sort:      32.55 MW

 SORT1 READ   299065286. AND WROTE   142836004. INTEGRALS IN    413 RECORDS. CPU TIME:     4.38 SEC, REAL TIME:     5.84 SEC
 SORT2 READ   142836004. AND WROTE   297476048. INTEGRALS IN   4128 RECORDS. CPU TIME:     3.38 SEC, REAL TIME:     4.41 SEC

 FILE SIZES:   FILE 1:  1092.9 MBYTE,  FILE 4:  1732.3 MBYTE,   TOTAL:   2825.2 MBYTE

 OPERATOR DM      FOR CENTER  0  COORDINATES:    0.000000    0.000000    0.000000

 EXTRA SYMMETRY OF AOS IN SYMMETRY 1:   1 1 1 1 1 1 1 1 1 1   1 1 1 1 1 1 1 1 1 1   1 1 1 1 1 1 1 1 1 1   1 1 1 1 1 1 1 1 1 1
                                        1 1 1 1 1 1 1 2 1 2   1 2 1 2 1 2 1 2 1 2   1 2 1 2 1 2 1 2 1 2   1 2 1 2 1 2 1 2 1 2
                                        1 2 1 2 1 3 2 1 3 2   1 3 2 1 3 2 2 3 1 2   3 1 2 3 1 1 1 1 1 1   1 1 1 1 1 1 1 2 1 2
                                        1 2 1 2 1 2
 EXTRA SYMMETRY OF AOS IN SYMMETRY 2:   1 1 1 1 1 1 1 1 1 1   1 1 1 1 1 1 1 1 1 1   1 1 1 1 1 1 1 1 1 1   1 1 1 1 1 1 2 1 2 1
                                        2 1 2 1 2 1 2 1 2 1   2 1 2 1 2 3 1 2 3 1   2 3 1 1 1 1 1 1 1 1   2 1 2
 EXTRA SYMMETRY OF AOS IN SYMMETRY 3:   1 1 1 1 1 1 1 1 1 1   1 1 1 1 1 1 1 1 1 1   1 1 1 1 1 1 1 1 1 1   1 1 1 1 1 1 2 1 2 1
                                        2 1 2 1 2 1 2 1 2 1   2 1 2 1 2 3 1 2 3 1   2 3 1 1 1 1 1 1 1 1   2 1 2
 EXTRA SYMMETRY OF AOS IN SYMMETRY 4:   1 1 1 1 1 1 1 1 1 1   1 1 1 1 1 1 1 1 1 1   2 1 2 1 2 1 2 2 1 2   1 2 1 1 1 1 1 1

 Eigenvalues of metric

         1 0.499E-06 0.859E-06 0.478E-05 0.902E-05 0.153E-04 0.189E-04 0.206E-04 0.752E-04
         2 0.904E-06 0.102E-04 0.203E-04 0.469E-03 0.726E-03 0.108E-02 0.191E-02 0.433E-02
         3 0.904E-06 0.102E-04 0.203E-04 0.469E-03 0.726E-03 0.108E-02 0.191E-02 0.433E-02
         4 0.206E-04 0.744E-03 0.958E-02 0.259E-01 0.337E-01 0.664E-01 0.828E-01 0.129E+00


 **********************************************************************************************************************************
 DATASETS  * FILE   NREC   LENGTH (MB)   RECORD NAMES
              1      23      807.56       500      610      700      900      950      970     1000      129      960     1700   
                                          VAR    BASINP    GEOM    SYMINP    ZMAT    AOBASIS   BASIS     P2S    ABASIS    OPER   
                                         1101     1401     1411     1412     1650     1100     1400     1410     1200     1210   
                                          SR      EKINR    POTR     PVPR    MOLCAS      S      EKIN      POT      H0       H01  
                                         1300     1080     1600   
                                         ERIS     AOSYM     SMH  

              2       4        3.60       700     1000      520     2100   
                                         GEOM     BASIS   MCVARS     RHF  

 PROGRAMS   *        TOTAL       INT  RCCSD(T)       RHF       INT
 CPU TIMES  *       649.41     70.29    487.65     16.17     75.20
 REAL TIME  *       675.20 SEC
 DISK USED  *         2.83 GB      
 **********************************************************************************************************************************

1PROGRAM * RHF-SCF (OPEN SHELL)       Authors: W. Meyer, H.-J. Werner


 NUMBER OF ELECTRONS:      15+   14-    SPACE SYMMETRY=4    SPIN SYMMETRY: Doublet 
 CONVERGENCE THRESHOLDS:    1.00E-05 (Density)    1.00E-07 (Energy)
 MAX. NUMBER OF ITERATIONS:       60
 INTERPOLATION TYPE:            DIIS
 INTERPOLATION STEPS:              2 (START)      1 (STEP)
 LEVEL SHIFTS:                 -0.30 (CLOSED)  0.00 (OPEN) 



 Molecular orbitals read from record     2100.2  Type=RHF/CANONICAL (state 1.4)

 Molecular orbital dump at record        2100.2

 ITERATION    DDIFF          GRAD             ENERGY        2-EL.EN.            DIPOLE MOMENTS         DIIS   ORB.
    1      0.000D+00      0.000D+00     -1519.56615668   1212.821397    0.00000    0.00000   -1.09327    0    start
    2      0.000D+00      0.134D-02     -1519.56668517   1213.224653    0.00000    0.00000   -1.07304    1    diag,B
    3      0.417D-03      0.236D-03     -1519.56675897   1212.874206    0.00000    0.00000   -1.08497    2    diag,B
    4      0.117D-03      0.187D-03     -1519.56678720   1213.136541    0.00000    0.00000   -1.08774    3    diag,B
    5      0.485D-04      0.773D-04     -1519.56681061   1213.127933    0.00000    0.00000   -1.09483    4    diag,B
    6      0.594D-04      0.432D-04     -1519.56682819   1213.173889    0.00000    0.00000   -1.10418    5    diag,B
    7      0.671D-04      0.302D-04     -1519.56683883   1213.206470    0.00000    0.00000   -1.11371    6    diag,B
    8      0.567D-04      0.165D-04     -1519.56684313   1213.233198    0.00000    0.00000   -1.12137    7    orth
    9      0.301D-04      0.669D-05     -1519.56684370   1213.240096    0.00000    0.00000   -1.12412    8    diag,B
   10      0.138D-04      0.220D-05     -1519.56684374   1213.241619    0.00000    0.00000   -1.12466    9    diag,B
   11      0.619D-05      0.705D-06     -1519.56684375   1213.241229    0.00000    0.00000   -1.12468    0    orth

 Final alpha occupancy:   8   3   3   1
 Final beta  occupancy:   8   3   3   0

 !RHF STATE 1.4 Energy              -1519.566843747062
 Nuclear energy                        13.17063276
 One-electron energy                -2139.35809098
 Two-electron energy                  606.62061447
 Virial quotient                       -0.95341163
 !RHF STATE 1.4 Dipole moment           0.00000000     0.00000000    -1.12468140
 Dipole moment /Debye                   0.00000000     0.00000000    -2.85846776

 ELECTRON ORBITALS
 =================


   Orb  Occ    Energy  Couls-En    Coefficients

                                   1 1s      1 1s      1 1s      1 1s      1 1s      1 1s      1 1s      1 1s      1 1s      1 1s   
                                   1 1s      1 1s      1 1s      1 1s      1 1s      1 1s      1 1s      1 1s      1 1s      1 1s   
                                   1 1s      1 1s      1 1s      1 1s      1 1s      1 2pz     1 2pz     1 2pz     1 2pz     1 2pz  
                                   1 2pz     1 2pz     1 2pz     1 2pz     1 2pz     1 2pz     1 2pz     1 2pz     1 2pz     1 2pz  
                                   1 2pz     1 2pz     1 2pz     1 2pz     1 2pz     1 2pz     1 3d0     1 3d2+    1 3d0     1 3d2+ 
                                   1 3d0     1 3d2+    1 3d0     1 3d2+    1 3d0     1 3d2+    1 3d0     1 3d2+    1 3d0     1 3d2+ 
                                   1 3d0     1 3d2+    1 3d0     1 3d2+    1 3d0     1 3d2+    1 3d0     1 3d2+    1 3d0     1 3d2+ 
                                   1 3d0     1 3d2+    1 3d0     1 3d2+    1 4f0     1 4f2+    1 4f0     1 4f2+    1 4f0     1 4f2+ 
                                   1 4f0     1 4f2+    1 4f0     1 4f2+    1 5g0     1 5g4+    1 5g2+    1 5g0     1 5g4+    1 5g2+ 
                                   1 5g0     1 5g4+    1 5g2+    1 5g0     1 5g4+    1 5g2+    1 6h2+    1 6h4+    1 6h0     1 6h2+ 
                                   1 6h4+    1 6h0     1 6h2+    1 6h4+    1 6h0     2 1s      2 1s      2 1s      2 1s      2 1s   
                                   2 1s      2 1s      2 2pz     2 2pz     2 2pz     2 2pz     2 3d0     2 3d2+    2 3d0     2 3d2+ 
                                   2 3d0     2 3d2+    2 4f0     2 4f2+    2 4f0     2 4f2+ 

   1.1   2  -308.6535 -705.1451  0.000071  0.000201  0.000527  0.001267  0.002988  0.007044  0.016813  0.039949  0.090435  0.182026
                                 0.294644  0.321754  0.176748  0.027557 -0.002570  0.010380  0.001120  0.001420 -0.000078 -0.000035
                                 0.000002 -0.000002 -0.009536 -0.001842 -0.000000 -0.000000 -0.000000 -0.000000 -0.000000 -0.000001
                                -0.000003 -0.000006 -0.000002  0.000001  0.000007  0.000060 -0.000029 -0.000106  0.000024 -0.000019
                                -0.000025 -0.000000  0.000000 -0.000054  0.000111 -0.000000 -0.000000  0.000000 -0.000001 -0.000000
                                -0.000002  0.000000 -0.000000 -0.000000  0.000003 -0.000000  0.000017 -0.000000  0.000006 -0.000000
                                -0.000002  0.000000 -0.000012 -0.000000 -0.000006  0.000000  0.000001 -0.000000 -0.000008  0.000000
                                -0.000016  0.000000 -0.000000  0.000000  0.000002  0.000000 -0.000001 -0.000000  0.000001  0.000000
                                -0.000006 -0.000000 -0.000002 -0.000000 -0.000001  0.000001  0.000000  0.000000 -0.000000 -0.000000
                                -0.000000  0.000000  0.000000 -0.000002 -0.000000 -0.000000 -0.000000 -0.000000 -0.000000  0.000000
                                -0.000000  0.000000 -0.000000 -0.000000 -0.000001 -0.000000  0.000000 -0.000001  0.000012  0.000040
                                 0.000002  0.000001 -0.000000 -0.000008 -0.000016 -0.000002  0.000000 -0.000000  0.000003  0.000000
                                 0.000002  0.000000  0.000000  0.000000 -0.000000 -0.000000

   2.1   2   -38.4753 -136.3506 -0.000022 -0.000063 -0.000165 -0.000396 -0.000937 -0.002223 -0.005353 -0.012988 -0.030485 -0.066542
                                -0.125140 -0.182592 -0.122005  0.215217  0.557019  0.379598  0.054452  0.015934  0.000165 -0.000135
                                -0.000061  0.000010 -0.022497 -0.019113  0.000000  0.000000  0.000000  0.000000  0.000001  0.000005
                                 0.000015  0.000039  0.000077  0.000097  0.000164  0.000362 -0.000121 -0.000505  0.000083 -0.000041
                                -0.000140 -0.000029  0.000001 -0.000229  0.000512  0.000001 -0.000000  0.000000 -0.000004 -0.000000
                                -0.000019  0.000000 -0.000135 -0.000000 -0.000314  0.000000 -0.000241  0.000000 -0.000028  0.000000
                                 0.000033 -0.000000 -0.000055  0.000000 -0.000038 -0.000000 -0.000002 -0.000000  0.000192 -0.000000
                                 0.000178 -0.000000  0.000001  0.000000  0.000037  0.000000 -0.000051  0.000000  0.000013 -0.000000
                                -0.000017 -0.000000 -0.000012  0.000000 -0.000024  0.000038 -0.000000 -0.000040  0.000073  0.000000
                                -0.000000  0.000012  0.000000 -0.000008  0.000004 -0.000000 -0.000000 -0.000000  0.000000  0.000000
                                -0.000000  0.000002 -0.000000 -0.000000  0.000001  0.000000  0.000001  0.000004  0.000026  0.000194
                                 0.000063 -0.000004 -0.000002 -0.000011 -0.000064 -0.000015 -0.000003  0.000000 -0.000001  0.000000
                                 0.000002 -0.000000  0.000003 -0.000000  0.000004  0.000000

   3.1   2   -32.9284 -129.4109  0.000000  0.000000  0.000000  0.000000  0.000000  0.000001  0.000002  0.000005  0.000011  0.000024
                                 0.000045  0.000067  0.000048 -0.000090 -0.000140 -0.000315 -0.000186  0.000213 -0.000230  0.000182
                                 0.000101  0.000009  0.000228 -0.000122  0.000002  0.000057  0.000208  0.000843  0.003123  0.010729
                                 0.032426  0.084328  0.178571  0.291056  0.327411  0.202458  0.055539  0.008414  0.000503  0.000224
                                 0.000210  0.000068  0.000006  0.002827 -0.004190  0.000000  0.000000 -0.000000  0.000001 -0.000000
                                 0.000006  0.000000  0.000068 -0.000000  0.000128  0.000000  0.000072  0.000000  0.000036 -0.000000
                                -0.000074 -0.000000  0.000097 -0.000000  0.000068 -0.000000  0.000011 -0.000000 -0.000067 -0.000000
                                -0.000087 -0.000000  0.000001  0.000000 -0.000311 -0.000000 -0.000032  0.000000 -0.000106 -0.000000
                                 0.000042  0.000000  0.000024 -0.000000  0.000024 -0.000000 -0.000000 -0.000013 -0.000000  0.000000
                                 0.000002 -0.000000 -0.000000  0.000020 -0.000000 -0.000000 -0.000000 -0.000010  0.000010  0.000000
                                 0.000015 -0.000016 -0.000000 -0.000002  0.000008  0.000000  0.000005 -0.000006 -0.000019 -0.000158
                                -0.000110 -0.000006  0.000007 -0.000042 -0.000023 -0.000002  0.000013 -0.000000  0.000061 -0.000000
                                 0.000035  0.000000 -0.000023  0.000000 -0.000018 -0.000000

   4.1   2    -4.8617  -42.9989  0.000008  0.000023  0.000062  0.000148  0.000351  0.000834  0.002008  0.004890  0.011511  0.025434
                                 0.048623  0.074099  0.051739 -0.107357 -0.386230 -0.379411  0.302538  0.672154  0.302011  0.000461
                                -0.008496  0.003117  0.039236  0.017677  0.000301 -0.000000 -0.000000 -0.000001 -0.000003 -0.000011
                                -0.000035 -0.000090 -0.000205 -0.000303 -0.000546 -0.001446  0.001547  0.002581  0.000749 -0.003412
                                -0.006994 -0.002167  0.000424  0.001130 -0.001306  0.000269  0.000000 -0.000000  0.000004  0.000000
                                 0.000018 -0.000000  0.000121  0.000000  0.000329 -0.000000  0.000375 -0.000000  0.000121 -0.000000
                                 0.000490  0.000000 -0.001778  0.000000 -0.002079 -0.000000 -0.000103  0.000000 -0.000233  0.000000
                                -0.001034  0.000000  0.000132 -0.000000 -0.000069  0.000000 -0.000086  0.000000  0.000125  0.000000
                                -0.000210 -0.000000 -0.000478 -0.000000 -0.000087  0.000141  0.000000 -0.000045  0.000145 -0.000000
                                -0.000149  0.000547  0.000000 -0.000120  0.000243  0.000000  0.000000 -0.000000 -0.000004 -0.000000
                                 0.000000  0.000039  0.000000 -0.000004  0.000043  0.000052  0.000346  0.001199  0.004187  0.011783
                                 0.005425 -0.001874 -0.000805 -0.002416 -0.004743 -0.001423  0.000624 -0.000000  0.000981 -0.000000
                                 0.000374 -0.000000 -0.000376  0.000000  0.000165  0.000000

   5.1   2    -3.1814  -38.9366 -0.000000 -0.000000 -0.000000 -0.000000 -0.000001 -0.000002 -0.000006 -0.000014 -0.000036 -0.000071
                                -0.000155 -0.000189 -0.000223  0.000549  0.000148  0.016179  0.009461  0.042577 -0.012248  0.005190
                                -0.001873 -0.000686 -0.017928 -0.044567  0.000263 -0.000021 -0.000076 -0.000310 -0.001152 -0.003979
                                -0.012194 -0.032442 -0.071253 -0.121101 -0.143635 -0.047282  0.210552  0.416580  0.366674  0.158381
                                 0.021678 -0.002482  0.000434  0.005121 -0.013587 -0.000118 -0.000002  0.000000 -0.000022  0.000000
                                -0.000100  0.000000 -0.000436  0.000000 -0.000606  0.000000  0.002024  0.000000 -0.000095  0.000000
                                -0.002097  0.000000  0.000887  0.000000  0.003104  0.000000 -0.000520 -0.000000 -0.001378  0.000000
                                -0.003677 -0.000000  0.000127  0.000000 -0.000338 -0.000000 -0.001596  0.000000 -0.001110 -0.000000
                                 0.000081  0.000000  0.000778 -0.000000  0.000026 -0.000001 -0.000000  0.000131 -0.000001 -0.000000
                                 0.000509 -0.000002  0.000000  0.000309 -0.000003 -0.000000  0.000000 -0.000051  0.000038 -0.000000
                                -0.000113  0.000165  0.000000  0.000030  0.000183  0.000185  0.001253  0.005614  0.013757 -0.006997
                                 0.004100 -0.000058 -0.002609 -0.003572  0.001329 -0.000930  0.001246  0.000000  0.000831 -0.000000
                                 0.000449 -0.000000 -0.000496  0.000000 -0.000152  0.000000

   6.1   2    -0.5550  -23.1592 -0.000001 -0.000002 -0.000005 -0.000012 -0.000029 -0.000068 -0.000163 -0.000397 -0.000937 -0.002067
                                -0.003975 -0.006049 -0.004319  0.009184  0.032917  0.050281 -0.020357 -0.026452 -0.066694 -0.037113
[...]
 DATASETS  * FILE   NREC   LENGTH (MB)   RECORD NAMES
              1      24      275.47       500      610      700      701      900      950      970     1001      129      960   
                                          VAR    BASINP    GEOM     GEOM    SYMINP    ZMAT    AOBASIS   BASIS     P2S    ABASIS    
                                         1700     1101     1401     1411     1412     1650     1100     1400     1410     1200   
                                         OPER      SR      EKINR    POTR     PVPR    MOLCAS      S      EKIN      POT      H0  
                                         1210     1300     1080     1600   
                                          H01     ERIS     AOSYM     SMH  

              2       7        6.97       700     1000      520     2100      701     1001     2101   
                                         GEOM     BASIS   MCVARS     RHF     GEOM     BASIS     RHF  

 PROGRAMS   *        TOTAL       RHF       INT  RCCSD(T)       RHF       INT  RCCSD(T)       RHF       INT  RCCSD(T)       RHF
 CPU TIMES  *     11703.86      2.31     32.80    464.37     10.21     63.58    479.30     10.26     66.23    477.06     10.25
 REAL TIME  *     12154.42 SEC
 DISK USED  *         2.83 GB      
 **********************************************************************************************************************************
 SETTING NI_SCF         =     -1519.11485100  AU                              
 SETTING _CC_NORM_MAX   =         2.00000000                                  


1PROGRAM * CCSD (Restricted open-shell coupled cluster)     Authors: C. Hampel, H.-J. Werner, 1991, M. Deegan, P.J. Knowles, 1992


 Convergence thresholds:  THRVAR = 1.00D-08  THRDEN = 1.00D-06

 CCSD(T)     terms to be evaluated (factor= 1.000)


 Number of core orbitals:           5 (   2   1   1   0   1   0   0   0 )
 Number of closed-shell orbitals:   8 (   4   1   1   0   1   1   0   0 )
 Number of active  orbitals:        2 (   0   0   0   1   0   0   1   0 )
 Number of external orbitals:     247 (  59  38  38  21  38  21  21  11 )

 Memory could be reduced to 40.08 Mwords without degradation in triples

 Number of N-1 electron functions:              18
 Number of N-2 electron functions:             153
 Number of singly external CSFs:               786
 Number of doubly external CSFs:            960829
 Total number of CSFs:                      961615

 Molecular orbitals read from record     2101.2  Type=RHF/CANONICAL (state 1.6)

 Integral transformation finished. Total CPU:   1.04 sec, npass=  1  Memory used:   7.12 MW

 Starting RMP2 calculation

 Wavefunction is spin-projected

 ITER.      SQ.NORM     CORR.ENERGY   TOTAL ENERGY   ENERGY CHANGE        DEN1      VAR(S)    VAR(P)  DIIS     TIME
   1      1.11241821    -0.86921950 -1519.98407050    -0.86921950    -0.00111603  0.83D-06  0.72D-03  1  1     1.25
   2      1.11423528    -0.87039937 -1519.98525037    -0.00117987    -0.00001481  0.95D-07  0.15D-04  2  2     1.30
   3      1.11451068    -0.87050777 -1519.98535877    -0.00010840    -0.00000009  0.12D-07  0.68D-07  3  3     1.36
   4      1.11452274    -0.87051081 -1519.98536180    -0.00000304    -0.00000000  0.61D-09  0.11D-08  4  4     1.42
   5      1.11452306    -0.87051075 -1519.98536175     0.00000006    -0.00000000  0.19D-10  0.21D-10  5  5     1.48

 Norm of t1 vector:      0.02715075      S-energy:    -0.00507253      T1 diagnostic:  0.00006401
 Norm of t2 vector:      0.33732165      P-energy:    -0.86543822
                                         Alpha-Beta:  -0.59793357
                                         Alpha-Alpha: -0.16880394
                                         Beta-Beta:   -0.09870071

 Spin contamination <S**2-Sz**2-Sz>     0.00000000
  Reference energy                  -1519.114850998767
  RHF-RMP2 correlation energy          -0.870510748641
 !RHF-RMP2 energy                   -1519.985361747408
 (NB above energy spin projected)

 Starting RCCSD calculation

 ITER.      SQ.NORM     CORR.ENERGY   TOTAL ENERGY   ENERGY CHANGE        DEN1      VAR(S)    VAR(P)  DIIS     TIME
   1      1.10236678    -0.79418396 -1519.90903495    -0.79418396    -0.03012932  0.52D-02  0.47D-02  0  0     3.37
   2      1.11957398    -0.82112932 -1519.93598031    -0.02694536    -0.00340984  0.55D-03  0.11D-02  1  1     5.26
   3      1.12447808    -0.81836999 -1519.93322099     0.00275933    -0.00062722  0.29D-03  0.24D-03  2  2     7.15
   4      1.13197890    -0.82065341 -1519.93550440    -0.00228342    -0.00012975  0.35D-04  0.55D-04  3  3     9.07
   5      1.13714535    -0.82198630 -1519.93683730    -0.00133290    -0.00003479  0.11D-05  0.16D-04  4  4    10.98
   6      1.13914560    -0.82223447 -1519.93708547    -0.00024817    -0.00001376  0.40D-05  0.57D-05  5  5    12.88
   7      1.13937881    -0.82225139 -1519.93710239    -0.00001692    -0.00000334  0.13D-05  0.12D-05  6  6    14.79
   8      1.13927138    -0.82222938 -1519.93708038     0.00002202    -0.00000068  0.45D-06  0.19D-06  6  1    16.71
   9      1.13917071    -0.82221609 -1519.93706709     0.00001329    -0.00000007  0.36D-07  0.26D-07  6  2    18.61
  10      1.13914820    -0.82221694 -1519.93706794    -0.00000086    -0.00000001  0.31D-08  0.43D-08  6  4    20.48

 Norm of t1 vector:      0.11939002      S-energy:    -0.00542698      T1 diagnostic:  0.01887326
                                                                       D1 diagnostic:  0.06600418
 Norm of t2 vector:      0.35340377      P-energy:    -0.81678997
                                         Alpha-Beta:  -0.58359281
                                         Alpha-Alpha: -0.14436256
                                         Beta-Beta:   -0.08883460

 Singles amplitudes (print threshold =  0.500E-01):

         I         SYM. A    A   T(IA) [Alpha-Alpha]

         2         1         4     -0.05563713

 Doubles amplitudes (print threshold =  0.500E-01):

         I         J         SYM. A    SYM. B    A         B      T(IJ, AB) [Beta-Beta]

         9         4         4         7         1         1      0.07806488
         9         4         7         4         1         1     -0.07806488
 
         I         J         SYM. A    SYM. B    A         B      T(IJ, AB) [Alpha-Beta]

         2         2         2         2         2         2     -0.05141202
         2         2         3         3         2         2     -0.05429888
         2         2         5         5         2         2     -0.05141202

 Spin contamination <S**2-Sz**2-Sz>     0.00000000

 Memory could be reduced to 38.66 Mwords without degradation in triples
 

  Correlated core orbitals:             3.1       2.2       2.3       2.5
  Orbital energies:                    -5.0990   -3.3909   -3.4713   -3.3909
 
  RCCSD core-core energy               -0.134597708604
  RCCSD core-valence energy            -0.339376770072
  RCCSD valence correlation energy     -0.348242465010
 

 RESULTS
 =======

  Reference energy                  -1519.114850998767
  RCCSD singles energy                 -0.005426976099
  RCCSD pair energy                    -0.816789967587
  RCCSD correlation energy             -0.822216943685
  Triples (T) contribution             -0.027005042073
  Total correlation energy             -0.849221985759
 
  RHF-RCCSD energy                  -1519.937067942452
  RHF-RCCSD[T] energy               -1519.965738697832
  RHF-RCCSD-T energy                -1519.963714203995
 !RHF-RCCSD(T) energy               -1519.964072984526

 Program statistics:

 Available memory in ccsd:               511999000
 Min. memory needed in ccsd:               2890289
 Max. memory used in ccsd:                 4054471
 Max. memory used in cckext:               3210159 (10 integral passes)
 Max. memory used in cckint:               7117704 ( 1 integral passes)



 **********************************************************************************************************************************
 DATASETS  * FILE   NREC   LENGTH (MB)   RECORD NAMES
              1      24      275.47       500      610      700      701      900      950      970     1001      129      960   
                                          VAR    BASINP    GEOM     GEOM    SYMINP    ZMAT    AOBASIS   BASIS     P2S    ABASIS    
                                         1700     1101     1401     1411     1412     1650     1100     1400     1410     1200   
                                         OPER      SR      EKINR    POTR     PVPR    MOLCAS      S      EKIN      POT      H0  
                                         1210     1300     1080     1600   
                                          H01     ERIS     AOSYM     SMH  

              2       7        6.97       700     1000      520     2100      701     1001     2101   
                                         GEOM     BASIS   MCVARS     RHF     GEOM     BASIS     RHF  

 PROGRAMS   *        TOTAL  RCCSD(T)       RHF       INT  RCCSD(T)       RHF       INT  RCCSD(T)       RHF       INT  RCCSD(T)
 CPU TIMES  *     11781.39     77.53      2.31     32.80    464.37     10.21     63.58    479.30     10.26     66.23    477.06
 REAL TIME  *     12236.01 SEC
 DISK USED  *         2.83 GB      
 **********************************************************************************************************************************
 SETTING NI_CCSD        =     -1519.96407298  AU                              

Geometry recognized as XYZ



 Recomputing integrals since geometry and symmetry changed


 Using spherical harmonics


1PROGRAM * SEWARD (Integral evaluation for generally contracted gaussian basis sets)     Author: Roland Lindh, 1990

 Geometry written to block  1 of record 702

 Orientation using atomic masses  
 Molecule type: Atom
 Symmetry elements: X,Y,Z
 Rotational constants:       0.0000000      0.0000000      0.0000000 GHz  (calculated with average atomic masses)

 Point group  D2h 



 ATOMIC COORDINATES

 NR  ATOM    CHARGE       X              Y              Z

   1  H       1.00    0.000000000    0.000000000    0.000000000

 NUCLEAR CHARGE:                    1
 NUMBER OF PRIMITIVE AOS:          57
 NUMBER OF SYMMETRY AOS:           48
 NUMBER OF CONTRACTIONS:           48   (  13Ag  +   8B3u +   8B2u +   3B1g +   8B1u +   3B2g +   3B3g +   2Au  )
 NUMBER OF CORE ORBITALS:           0   (   0Ag  +   0B3u +   0B2u +   0B1g +   0B1u +   0B2g +   0B3g +   0Au  )
 NUMBER OF VALENCE ORBITALS:        1   (   1Ag  +   0B3u +   0B2u +   0B1g +   0B1u +   0B2g +   0B3g +   0Au  )

 MOLECULE CHANGED: INITIALIZING OCCUPATION AND DUMP RECORDS


 NUCLEAR REPULSION ENERGY    0.00000000

 One-electron integrals computed with SEWARD

 10nd-order Douglas-Kroll-Hess method activated. McWeeny DKH parametrization is used.

 Computing Douglas-Kroll integrals

 AO integral compression algorithm  1   Integral accuracy      1.0D-13

     1.311 MB (compressed) written to integral file ( 94.2%)


 NUMBER OF SORTED TWO-ELECTRON INTEGRALS:      99109.     BUFFER LENGTH:  32768
 NUMBER OF SEGMENTS:   1  SEGMENT LENGTH:      99109      RECORD LENGTH: 524288

 Memory used in sort:       0.66 MW

 SORT1 READ      189868. AND WROTE       76974. INTEGRALS IN      1 RECORDS. CPU TIME:     0.00 SEC, REAL TIME:     0.01 SEC
 SORT2 READ       76974. AND WROTE       99109. INTEGRALS IN      5 RECORDS. CPU TIME:     0.01 SEC, REAL TIME:     0.01 SEC

 FILE SIZES:   FILE 1:     9.1 MBYTE,  FILE 4:     4.2 MBYTE,   TOTAL:     13.3 MBYTE

 OPERATOR DM      FOR CENTER  0  COORDINATES:    0.000000    0.000000    0.000000

 EXTRA SYMMETRY OF AOS IN SYMMETRY 1:   1 1 1 1 1 1 1 2 3 2   3 2 3
 EXTRA SYMMETRY OF AOS IN SYMMETRY 2:   1 1 1 1 2 3 2 3
 EXTRA SYMMETRY OF AOS IN SYMMETRY 3:   1 1 1 1 2 3 2 3
 EXTRA SYMMETRY OF AOS IN SYMMETRY 5:   1 1 1 1 2 3 2 3

 Eigenvalues of metric

         1 0.258E-01 0.995E-01 0.260E+00 0.274E+00 0.274E+00 0.552E+00 0.873E+00 0.873E+00
         2 0.840E-01 0.378E+00 0.618E+00 0.618E+00 0.111E+01 0.138E+01 0.138E+01 0.243E+01
         3 0.840E-01 0.378E+00 0.618E+00 0.618E+00 0.111E+01 0.138E+01 0.138E+01 0.243E+01
         4 0.274E+00 0.873E+00 0.185E+01
         5 0.840E-01 0.378E+00 0.618E+00 0.618E+00 0.111E+01 0.138E+01 0.138E+01 0.243E+01
         6 0.274E+00 0.873E+00 0.185E+01
         7 0.274E+00 0.873E+00 0.185E+01
         8 0.618E+00 0.138E+01


 **********************************************************************************************************************************
 DATASETS  * FILE   NREC   LENGTH (MB)   RECORD NAMES
              1      24        8.39       500      610      700      702      900      950      970     1002      129      960   
                                          VAR    BASINP    GEOM     GEOM    SYMINP    ZMAT    AOBASIS   BASIS     P2S    ABASIS    
                                         1700     1101     1401     1411     1412     1650     1100     1400     1410     1200   
                                         OPER      SR      EKINR    POTR     PVPR    MOLCAS      S      EKIN      POT      H0  
                                         1210     1300     1080     1600   
                                          H01     ERIS     AOSYM     SMH  

              2       9        7.30       700     1000      520     2100      701     1001     2101      702     1002   
                                         GEOM     BASIS   MCVARS     RHF     GEOM     BASIS     RHF     GEOM     BASIS   

 PROGRAMS   *        TOTAL       INT  RCCSD(T)       RHF       INT  RCCSD(T)       RHF       INT  RCCSD(T)       RHF       INT
 CPU TIMES  *     11781.61      0.22     77.53      2.31     32.80    464.37     10.21     63.58    479.30     10.26     66.23
 REAL TIME  *     12236.33 SEC
 DISK USED  *         2.83 GB      
 **********************************************************************************************************************************

1PROGRAM * RHF-SCF (OPEN SHELL)       Authors: W. Meyer, H.-J. Werner


 NUMBER OF ELECTRONS:       1+    0-    SPACE SYMMETRY=1    SPIN SYMMETRY: Doublet 
 CONVERGENCE THRESHOLDS:    1.00E-05 (Density)    1.00E-07 (Energy)
 MAX. NUMBER OF ITERATIONS:       60
 INTERPOLATION TYPE:            DIIS
 INTERPOLATION STEPS:              2 (START)      1 (STEP)
 LEVEL SHIFTS:                 -0.30 (CLOSED)  0.00 (OPEN) 


 Singly occupied orbitals:      1.1
 Orbital guess generated from atomic densities. Full valence occupancy:    1   0   0   0   0   0   0   0


 Molecular orbital dump at record        2102.2

 ITERATION    DDIFF          GRAD             ENERGY        2-EL.EN.            DIPOLE MOMENTS         DIIS   ORB.
    1      0.000D+00      0.000D+00        -0.48879942     -0.000000    0.00000    0.00000    0.00000    0    start
    2      0.000D+00      0.110D-01        -0.49821120      0.000000    0.00000    0.00000    0.00000    1    diag,B
    3      0.642D-02      0.431D-02        -0.49995402      0.000000    0.00000    0.00000    0.00000    2    diag,B
    4      0.444D-02      0.114D-03        -0.49995493      0.000000    0.00000    0.00000    0.00000    3    diag,B
    5      0.179D-03      0.781D-05        -0.49995494     -0.000000    0.00000    0.00000    0.00000    4    diag,B
    6      0.132D-04      0.569D-06        -0.49995494      0.000000    0.00000    0.00000    0.00000    5    diag,B
    7      0.745D-06      0.774D-07        -0.49995494     -0.000000    0.00000    0.00000    0.00000    0    orth

 Final alpha occupancy:   1   0   0   0   0   0   0   0
 Final beta  occupancy:   0   0   0   0   0   0   0   0

 !RHF STATE 1.1 Energy                 -0.499954938572
 Nuclear energy                         0.00000000
 One-electron energy                   -0.49995494
 Two-electron energy                   -0.00000000
 Virial quotient                       -1.00019471
 !RHF STATE 1.1 Dipole moment           0.00000000     0.00000000     0.00000000
 Dipole moment /Debye                   0.00000000     0.00000000     0.00000000

 Orbital energies:

         1.1          2.1          3.1
     -0.499955     0.051127     0.360847

         1.2          2.2
      0.171452     0.741423

         1.3          2.3
      0.171452     0.741423

         1.4          2.4
      0.613308     2.447675

         1.5          2.5
      0.171452     0.741423

         1.6          2.6
      0.613308     2.447675

         1.7          2.7
      0.613308     2.447675

         1.8          2.8
      1.558725     6.549846

 HOMO      1.1    -0.499955 =     -13.6045eV
 LUMO      2.1     0.051127 =       1.3912eV
 LUMO-HOMO         0.551082 =      14.9957eV


 **********************************************************************************************************************************
 DATASETS  * FILE   NREC   LENGTH (MB)   RECORD NAMES
              1      24        8.39       500      610      700      702      900      950      970     1002      129      960   
                                          VAR    BASINP    GEOM     GEOM    SYMINP    ZMAT    AOBASIS   BASIS     P2S    ABASIS    
                                         1700     1101     1401     1411     1412     1650     1100     1400     1410     1200   
                                         OPER      SR      EKINR    POTR     PVPR    MOLCAS      S      EKIN      POT      H0  
                                         1210     1300     1080     1600   
                                          H01     ERIS     AOSYM     SMH  

              2      10        9.79       700     1000      520     2100      701     1001     2101      702     1002     2102   
                                         GEOM     BASIS   MCVARS     RHF     GEOM     BASIS     RHF     GEOM     BASIS     RHF  

 PROGRAMS   *        TOTAL       RHF       INT  RCCSD(T)       RHF       INT  RCCSD(T)       RHF       INT  RCCSD(T)       RHF
 CPU TIMES  *     11781.64      0.03      0.22     77.53      2.31     32.80    464.37     10.21     63.58    479.30     10.26
 REAL TIME  *     12236.39 SEC
 DISK USED  *         2.83 GB      
 **********************************************************************************************************************************
 SETTING H_SCF          =        -0.49995494  AU                              
 Output type csv         
                                                                                                                                                                                                                                                                

     Z,SCF,CCSD
   1.075,   -1519.543581,   -1520.507346
   1.125,   -1519.566844,   -1520.530554
   1.175,   -1519.584692,   -1520.547907
   1.225,   -1519.598211,   -1520.560560
   1.275,   -1519.608256,   -1520.569442
   1.325,   -1519.615507,   -1520.575301
   1.375,   -1519.620501,   -1520.578743
   1.425,   -1519.623670,   -1520.580254
   1.475,   -1519.625360,   -1520.580234
   1.525,   -1519.625851,   -1520.579004
   1.575,   -1519.625370,   -1520.576831
   1.625,   -1519.624102,   -1520.573930
   1.675,   -1519.622201,   -1520.570479
   1.725,   -1519.619790,   -1520.566615
   1.775,   -1519.616973,   -1520.562449
   1.825,   -1519.613834,   -1520.558096
   1.875,   -1519.610445,   -1520.553625
   1.925,   -1519.606864,   -1520.549111
   1.975,   -1519.603138,   -1520.544586
   2.025,   -1519.599309,   -1520.540102
   2.075,   -1519.595409,   -1520.535695
                                                  

        RHF-SCF         RCCSD(T)        RHF-SCF         RCCSD(T)        RHF-SCF         RCCSD(T)        RHF-SCF         RCCSD(T)
     -0.49995494  -1519.96407298  -1519.11485100  -1520.53569546  -1519.59540895  -1520.54010158  -1519.59930866  -1520.54458610
 **********************************************************************************************************************************
 Variable memory released
