<?xml version="1.0"?>
<molpro xmlns="http://www.molpro.net/schema/molpro-output"
  xmlns:xsd="http://www.w3.org/1999/XMLSchema"
  xmlns:cml="http://www.xml-cml.org/schema"
  xmlns:stm="http://www.xml-cml.org/schema"
  xmlns:xhtml="http://www.w3.org/1999/xhtml">
 <!--

 Primary working directories    : /tmp/cmelton
 Secondary working directories  : /tmp/cmelton
 Wavefunction directory         : /remote/cmelton/wfu/
 Main file repository           : /tmp/cmelton/

 SHA1      : 4c1979699e6aeda0524d0210415ba82a958648b0
 NAME      : 2012.1.39
 ARCHNAME  : Linux/x86_64
 FC        : /projects/sems/install/rhel6-x86_64/sems/compiler/intel/16.0.1/base/bin/ifort
 FCVERSION : 16.0.1
 BLASLIB   : -L/projects/sems/install/rhel6-x86_64/sems/compiler/intel/16.0.1/base/compilers_and_libraries_2016.1.150/linux/mkl/lib/intel64 -lmkl_intel_ilp64 -lmkl_sequential -lmkl_core
 id        : sandiacon

 Nodes           nprocs
 breve.sandia.gov    1

 Using customized tuning parameters: mindgm=7; mindgv=16; mindgc=1; mindgr=1; noblas=0; minvec=7
 default implementation of scratch files=df  

 --><job>
  <!--
 ***,Calculation for Be atom, singlet and triplet
 memory,512,m
 gthresh,twoint=1.0E-12
 
 set,dkroll=1,dkho=10,dkhp=4
 basis={
 Including file /remote/cmelton/data/corrECP/NiH/uc/aug-cc-pwCVQZ-dk.basis
 }
 
 ne    =29
 symm  =4
 ss    =1
 
 do i=1,21
     z(i) = 1.025 + 0.05*(i-1)
     geometry={
         2
         Oxygen
         Ni  0.0 0.0 0.0
         H  0.0 0.0 z(i)
     }
     {rhf
      wf,ne,symm,ss
      print,orbitals=3
     }
     scf(i)=energy
     _CC_NORM_MAX=2.0
     {rccsd(t);maxit,100;core,3,1,1,0}
     ccsd(i)=energy
 enddo
 
 geometry={
    1
    Vanadium
    Ni 0.0 0.0 0.0
 }
 {rhf;
  start,atden
  wf,28,6,3;
  occ,6,2,2,1,2,1,1,0;
  open,1.4,1.7
  sym,1,1,1,1,1,3,2
 }
 Ni_scf=energy
 _CC_NORM_MAX=2.0
 {rccsd(t);maxit,100;core,2,1,1,0,1,0,0}
 Ni_ccsd=energy
 
 geometry={
    1
    Oxygen
    H 0.0 0.0 0.0
 }
 {rhf;
  wf,1,1,1;
  occ,1,0,0,0,0,0,0,0;
  open,1.1;
 }
 H_scf=energy
 
 table,z,scf,ccsd
 save
 type,csv

 Variables initialized (782), CPU time= 0.01 sec
 Commands  initialized (547), CPU time= 0.01 sec, 517 directives.
 Default parameters read. Elapsed time= 0.07 sec

 Checking input...
 Passed
1


                                         ***  PROGRAM SYSTEM MOLPRO  ***
                         Copyright, University College Cardiff Consultants Limited, 2008

                                    Version 2012.1 linked Aug  2 2016 14:07:26


 **********************************************************************************************************************************
 LABEL *   Calculation for Be atom, singlet and triplet                                  
 Linux-3.10.0-693.11.6.el7.x86_64/breve.sandia.gov(x86_64) 64 bit serial version         DATE: 29-Jan-18          TIME: 12:37:03  
 **********************************************************************************************************************************

 SHA1:             4c1979699e6aeda0524d0210415ba82a958648b0
 **********************************************************************************************************************************
  -->
  <!--

 THRESHOLDS:

 ZERO    =  1.00D-12  ONEINT  =  1.00D-12  TWOINT  =  1.00D-12  PREFAC  =  1.00D-14  LOCALI  =  1.00D-09  EORDER  =  1.00D-04
 ENERGY  =  0.00D+00  ETEST   =  0.00D+00  EDENS   =  0.00D+00  THRDEDEF=  1.00D-06  GRADIENT=  1.00D-02  STEP    =  1.00D-03
 ORBITAL =  1.00D-05  CIVEC   =  1.00D-05  COEFF   =  1.00D-04  PRINTCI =  5.00D-02  PUNCHCI =  9.90D+01  OPTGRAD =  3.00D-04
 OPTENERG=  1.00D-06  OPTSTEP =  3.00D-04  THRGRAD =  1.00D-10  COMPRESS=  1.00D-11  VARMIN  =  1.00D-07  VARMAX  =  1.00D-03
 THRDOUB =  0.00D+00  THRDIV  =  1.00D-05  THRRED  =  1.00D-07  THRPSP  =  1.00D+00  THRDC   =  1.00D-10  THRCS   =  1.00D-10
 THRNRM  =  1.00D-08  THREQ   =  0.00D+00  THRDE   =  1.00D+00  THRREF  =  1.00D-05  SPARFAC =  1.00D+00  THRDLP  =  1.00D-07
 THRDIA  =  1.00D-10  THRDLS  =  1.00D-07  THRGPS  =  0.00D+00  THRKEX  =  0.00D+00  THRDIS  =  2.00D-01  THRVAR  =  1.00D-10
 THRLOC  =  1.00D-06  THRGAP  =  1.00D-06  THRLOCT = -1.00D+00  THRGAPT = -1.00D+00  THRORB  =  1.00D-06  THRMLTP =  0.00D+00
 THRCPQCI=  1.00D-10  KEXTA   =  0.00D+00  THRCOARS=  0.00D+00  SYMTOL  =  1.00D-06  GRADTOL =  1.00D-06  THROVL  =  1.00D-08
 THRORTH =  1.00D-08  GRID    =  1.00D-06  GRIDMAX =  1.00D-03  DTMAX   =  0.00D+00  THROCCDE=  1.00D-01  THROCCDE=  1.00D-01


 SETTING DKROLL         =         1.00000000                                  
 SETTING DKHO           =        10.00000000                                  
 SETTING DKHP           =         4.00000000                                  

 Variable memory set to  512000000 words,  buffer space   230000 words

 SETTING BASIS          =    USERDEF
 SETTING NE             =        29.00000000                                  
 SETTING SYMM           =         4.00000000                                  
 SETTING SS             =         1.00000000                                  

 DO I                   =         1.00000000   
 SETTING Z(1)           =         1.02500000                                  

Geometry recognized as XYZ

  --><jobstep command="RHF-SCF" commandset="SCFPRO">
   <!--


 Recomputing integrals since basis changed


 Using spherical harmonics


1PROGRAM * SEWARD (Integral evaluation for generally contracted gaussian basis sets)     Author: Roland Lindh, 1990

 Geometry written to block  1 of record 700


 Point group  C2v 


   --><cml:symmetry pointGroup="C2v"/><!--
   --><cml:atomArray>
    <cml:atom id="a1" elementType="Ni" x3="0.0" y3="0.0" z3="0.0"/>
    <cml:atom id="a2" elementType="H" x3="0.0" y3="0.0" z3="1.025"/>
   </cml:atomArray><!--
   --><cml:bondArray>
    <cml:bond atomRefs2="a1 a2"/>
   </cml:bondArray><!--

 ATOMIC COORDINATES

 NR  ATOM    CHARGE       X              Y              Z

   1  NI     28.00    0.000000000    0.000000000    0.000000000
   2  H       1.00    0.000000000    0.000000000    1.936969285

 Bond lengths in Bohr (Angstrom)

 1-2  1.936969285
     ( 1.025000000)

 NUCLEAR CHARGE:                   29
 NUMBER OF PRIMITIVE AOS:         402
 NUMBER OF SYMMETRY AOS:          310
 NUMBER OF CONTRACTIONS:          310   ( 126A1  +  73B1  +  73B2  +  38A2  )
 NUMBER OF CORE ORBITALS:           9   (   5A1  +   2B1  +   2B2  +   0A2  )
 NUMBER OF VALENCE ORBITALS:        7   (   4A1  +   1B1  +   1B2  +   1A2  )


 NUCLEAR REPULSION ENERGY   14.45557254

 One-electron integrals computed with SEWARD

 10nd-order Douglas-Kroll-Hess method activated. McWeeny DKH parametrization is used.

 Computing Douglas-Kroll integrals

 AO integral compression algorithm  1   Integral accuracy      1.0D-12

     915.669 MB (compressed) written to integral file ( 38.3%)


 NUMBER OF SORTED TWO-ELECTRON INTEGRALS:  297476048.     BUFFER LENGTH:  32768
 NUMBER OF SEGMENTS:  10  SEGMENT LENGTH:   31996000      RECORD LENGTH: 524288

 Memory used in sort:      32.55 MW

 SORT1 READ   299065286. AND WROTE   140117121. INTEGRALS IN    405 RECORDS. CPU TIME:     3.64 SEC, REAL TIME:     4.89 SEC
 SORT2 READ   140117121. AND WROTE   297476048. INTEGRALS IN   3493 RECORDS. CPU TIME:     3.08 SEC, REAL TIME:     3.87 SEC

 FILE SIZES:   FILE 1:   926.5 MBYTE,  FILE 4:  1698.7 MBYTE,   TOTAL:   2625.2 MBYTE

 OPERATOR DM      FOR CENTER  0  COORDINATES:    0.000000    0.000000    0.000000

 EXTRA SYMMETRY OF AOS IN SYMMETRY 1:   1 1 1 1 1 1 1 1 1 1   1 1 1 1 1 1 1 1 1 1   1 1 1 1 1 1 1 1 1 1   1 1 1 1 1 1 1 1 1 1
                                        1 1 1 1 1 1 1 2 1 2   1 2 1 2 1 2 1 2 1 2   1 2 1 2 1 2 1 2 1 2   1 2 1 2 1 2 1 2 1 2
                                        1 2 1 2 1 3 2 1 3 2   1 3 2 1 3 2 2 3 1 2   3 1 2 3 1 1 1 1 1 1   1 1 1 1 1 1 1 2 1 2
                                        1 2 1 2 1 2
 EXTRA SYMMETRY OF AOS IN SYMMETRY 2:   1 1 1 1 1 1 1 1 1 1   1 1 1 1 1 1 1 1 1 1   1 1 1 1 1 1 1 1 1 1   1 1 1 1 1 1 2 1 2 1
                                        2 1 2 1 2 1 2 1 2 1   2 1 2 1 2 3 1 2 3 1   2 3 1 1 1 1 1 1 1 1   2 1 2
 EXTRA SYMMETRY OF AOS IN SYMMETRY 3:   1 1 1 1 1 1 1 1 1 1   1 1 1 1 1 1 1 1 1 1   1 1 1 1 1 1 1 1 1 1   1 1 1 1 1 1 2 1 2 1
                                        2 1 2 1 2 1 2 1 2 1   2 1 2 1 2 3 1 2 3 1   2 3 1 1 1 1 1 1 1 1   2 1 2
 EXTRA SYMMETRY OF AOS IN SYMMETRY 4:   1 1 1 1 1 1 1 1 1 1   1 1 1 1 1 1 1 1 1 1   2 1 2 1 2 1 2 2 1 2   1 2 1 1 1 1 1 1

 Eigenvalues of metric

         1 0.474E-06 0.854E-06 0.429E-05 0.853E-05 0.951E-05 0.176E-04 0.206E-04 0.653E-04
         2 0.901E-06 0.101E-04 0.202E-04 0.454E-03 0.676E-03 0.756E-03 0.189E-02 0.352E-02
         3 0.901E-06 0.101E-04 0.202E-04 0.454E-03 0.676E-03 0.756E-03 0.189E-02 0.352E-02
         4 0.206E-04 0.743E-03 0.946E-02 0.175E-01 0.321E-01 0.535E-01 0.790E-01 0.119E+00


 **********************************************************************************************************************************
 DATASETS  * FILE   NREC   LENGTH (MB)   RECORD NAMES
              1      23      681.69       500      610      700      900      950      970     1000      129      960     1700   
                                          VAR    BASINP    GEOM    SYMINP    ZMAT    AOBASIS   BASIS     P2S    ABASIS    OPER   
                                         1101     1401     1411     1412     1650     1100     1400     1410     1200     1210   
                                          SR      EKINR    POTR     PVPR    MOLCAS      S      EKIN      POT      H0       H01  
                                         1300     1080     1600   
                                         ERIS     AOSYM     SMH  

 PROGRAMS   *        TOTAL       INT
 CPU TIMES  *        62.37     62.28
 REAL TIME  *        65.91 SEC
 DISK USED  *         2.63 GB      
 **********************************************************************************************************************************

1PROGRAM * RHF-SCF (OPEN SHELL)       Authors: W. Meyer, H.-J. Werner


 NUMBER OF ELECTRONS:      15+   14-    SPACE SYMMETRY=4    SPIN SYMMETRY: Doublet 
 CONVERGENCE THRESHOLDS:    1.00E-05 (Density)    1.00E-07 (Energy)
 MAX. NUMBER OF ITERATIONS:       60
 INTERPOLATION TYPE:            DIIS
 INTERPOLATION STEPS:              2 (START)      1 (STEP)
 LEVEL SHIFTS:                 -0.30 (CLOSED)  0.00 (OPEN) 



 Orbital guess generated from atomic densities. Full valence occupancy:    9   3   3   1

 Molecular orbital dump at record        2100.2

 ITERATION    DDIFF          GRAD             ENERGY        2-EL.EN.            DIPOLE MOMENTS         DIIS   ORB.
    1      0.000D+00      0.000D+00     -1519.47799713   1208.514507    0.00000    0.00000   -1.60793    0    start
    2      0.000D+00      0.101D-01     -1519.49515242   1222.633417    0.00000    0.00000   -1.24458    1    diag,B
    3      0.156D-02      0.592D-02     -1519.50709694   1212.512292    0.00000    0.00000   -1.27764    2    diag,B
    4      0.982D-03      0.261D-02     -1519.51037739   1215.406915    0.00000    0.00000   -1.24236    3    diag,B
    5      0.340D-03      0.528D-03     -1519.51188272   1215.138944    0.00000    0.00000   -1.19591    4    diag,B
    6      0.569D-03      0.364D-03     -1519.51294148   1214.947929    0.00000    0.00000   -1.13688    5    diag,B
    7      0.582D-03      0.193D-03     -1519.51337016   1214.785244    0.00000    0.00000   -1.07829    6    fixocc
    8      0.340D-03      0.966D-04     -1519.51349693   1214.690739    0.00000    0.00000   -1.03230    7    diag,B
    9      0.165D-03      0.369D-04     -1519.51351615   1214.642219    0.00000    0.00000   -1.01112    8    diag,B
   10      0.740D-04      0.128D-04     -1519.51351789   1214.632313    0.00000    0.00000   -1.00488    9    orth
   11      0.553D-04      0.325D-05     -1519.51351797   1214.629593    0.00000    0.00000   -1.00416    9    diag,B
   12      0.348D-04      0.113D-05     -1519.51351797   1214.630044    0.00000    0.00000   -1.00416    9    diag,B
   13      0.725D-05      0.322D-06     -1519.51351797   1214.629788    0.00000    0.00000   -1.00417    0    orth

 Final alpha occupancy:   8   3   3   1
 Final beta  occupancy:   8   3   3   0

 !RHF STATE 1.4 Energy              -1519.513517972802
   --><property name="Energy" method="RHF" principal="true" stateSymmetry="4" stateNumber="1"
     value="-1519.5135179728"/><!--
 Nuclear energy                        14.45557254
 One-electron energy                -2141.28398474
 Two-electron energy                  607.31489423
 Virial quotient                       -0.95326367
 !RHF STATE 1.4 Dipole moment           0.00000000     0.00000000    -1.00416551
 Dipole moment /Debye                   0.00000000     0.00000000    -2.55216698
   --><property name="Dipole moment" method="RHF" principal="true" stateSymmetry="4"
     stateNumber="1" value="0.0 0.0 -1.00416551190253"/><!--

 ELECTRON ORBITALS
 =================


   Orb  Occ    Energy  Couls-En    Coefficients

                                   1 1s      1 1s      1 1s      1 1s      1 1s      1 1s      1 1s      1 1s      1 1s      1 1s   
                                   1 1s      1 1s      1 1s      1 1s      1 1s      1 1s      1 1s      1 1s      1 1s      1 1s   
                                   1 1s      1 1s      1 1s      1 1s      1 1s      1 2pz     1 2pz     1 2pz     1 2pz     1 2pz  
                                   1 2pz     1 2pz     1 2pz     1 2pz     1 2pz     1 2pz     1 2pz     1 2pz     1 2pz     1 2pz  
                                   1 2pz     1 2pz     1 2pz     1 2pz     1 2pz     1 2pz     1 3d0     1 3d2+    1 3d0     1 3d2+ 
                                   1 3d0     1 3d2+    1 3d0     1 3d2+    1 3d0     1 3d2+    1 3d0     1 3d2+    1 3d0     1 3d2+ 
                                   1 3d0     1 3d2+    1 3d0     1 3d2+    1 3d0     1 3d2+    1 3d0     1 3d2+    1 3d0     1 3d2+ 
                                   1 3d0     1 3d2+    1 3d0     1 3d2+    1 4f0     1 4f2+    1 4f0     1 4f2+    1 4f0     1 4f2+ 
                                   1 4f0     1 4f2+    1 4f0     1 4f2+    1 5g0     1 5g4+    1 5g2+    1 5g0     1 5g4+    1 5g2+ 
                                   1 5g0     1 5g4+    1 5g2+    1 5g0     1 5g4+    1 5g2+    1 6h2+    1 6h4+    1 6h0     1 6h2+ 
                                   1 6h4+    1 6h0     1 6h2+    1 6h4+    1 6h0     2 1s      2 1s      2 1s      2 1s      2 1s   
                                   2 1s      2 1s      2 2pz     2 2pz     2 2pz     2 2pz     2 3d0     2 3d2+    2 3d0     2 3d2+ 
                                   2 3d0     2 3d2+    2 4f0     2 4f2+    2 4f0     2 4f2+ 

   1.1   2  -308.6691 -705.2066  0.000071  0.000201  0.000527  0.001267  0.002988  0.007044  0.016813  0.039949  0.090435  0.182026
                                 0.294644  0.321754  0.176748  0.027559 -0.002574  0.010430  0.001141  0.001494 -0.000086 -0.000057
                                -0.000013 -0.000002 -0.009592 -0.001923 -0.000000 -0.000000 -0.000000 -0.000000 -0.000000 -0.000001
                                -0.000002 -0.000006 -0.000001  0.000002  0.000006  0.000055 -0.000028 -0.000108  0.000027 -0.000023
                                -0.000039 -0.000010  0.000000 -0.000049  0.000112 -0.000000 -0.000000  0.000000 -0.000001  0.000000
                                -0.000002 -0.000000 -0.000000  0.000000  0.000004 -0.000000  0.000023 -0.000000  0.000008 -0.000000
                                -0.000002  0.000000 -0.000015 -0.000000 -0.000011  0.000000 -0.000000 -0.000000 -0.000011  0.000000
                                -0.000022  0.000000 -0.000000  0.000000  0.000003 -0.000000 -0.000001 -0.000000  0.000002  0.000000
                                -0.000007 -0.000000 -0.000003 -0.000000 -0.000001  0.000001 -0.000000  0.000000 -0.000000  0.000000
                                -0.000000  0.000000  0.000000 -0.000002 -0.000000 -0.000000  0.000000  0.000000 -0.000000 -0.000000
                                -0.000000  0.000000  0.000000 -0.000000 -0.000001 -0.000000  0.000000 -0.000001  0.000018  0.000064
                                 0.000022  0.000002 -0.000000 -0.000009 -0.000018 -0.000005 -0.000000 -0.000000  0.000001  0.000000
                                 0.000000  0.000000  0.000001  0.000000  0.000000 -0.000000

   2.1   2   -38.4923 -136.4135 -0.000022 -0.000063 -0.000165 -0.000396 -0.000937 -0.002223 -0.005353 -0.012988 -0.030485 -0.066542
                                -0.125140 -0.182592 -0.122005  0.215219  0.557021  0.379601  0.054474  0.015977  0.000179 -0.000235
                                -0.000135  0.000008 -0.022514 -0.019170 -0.000000  0.000000  0.000000  0.000001  0.000004  0.000014
                                 0.000042  0.000111  0.000226  0.000336  0.000467  0.000570 -0.000048 -0.000502  0.000088 -0.000030
                                -0.000203 -0.000068  0.000000 -0.000184  0.000501  0.000000 -0.000000 -0.000000 -0.000003  0.000000
                                -0.000016 -0.000000 -0.000109  0.000000 -0.000247 -0.000000 -0.000193 -0.000000 -0.000025 -0.000000
                                 0.000044  0.000000 -0.000060  0.000000 -0.000060 -0.000000 -0.000005  0.000000  0.000152  0.000000
                                 0.000152  0.000000  0.000000  0.000000  0.000045 -0.000000 -0.000060  0.000000  0.000018  0.000000
                                -0.000015  0.000000 -0.000016  0.000000 -0.000025  0.000038 -0.000000 -0.000042  0.000073  0.000000
                                 0.000002  0.000012 -0.000000 -0.000008  0.000004  0.000000  0.000000  0.000000  0.000000 -0.000000
                                -0.000000  0.000003  0.000000 -0.000000  0.000002  0.000000  0.000001  0.000007  0.000019  0.000303
                                 0.000157 -0.000002  0.000001  0.000002 -0.000077 -0.000028 -0.000004 -0.000000 -0.000009 -0.000000
                                -0.000005 -0.000000  0.000002  0.000000  0.000007  0.000000

   3.1   2   -32.9465 -129.4750  0.000000  0.000000  0.000000  0.000001  0.000001  0.000003  0.000007  0.000017  0.000041  0.000088
                                 0.000166  0.000244  0.000167 -0.000327 -0.000693 -0.000586 -0.000286  0.000096 -0.000303  0.000130
                                 0.000118  0.000006  0.000239  0.000034  0.000003  0.000057  0.000208  0.000843  0.003123  0.010728
                                 0.032425  0.084324  0.178562  0.291042  0.327418  0.202500  0.055542  0.008581  0.000435  0.000206
                                 0.000171  0.000066  0.000008  0.002812 -0.004336 -0.000001  0.000001 -0.000000  0.000004  0.000000
                                 0.000019 -0.000000  0.000127 -0.000000  0.000220 -0.000000  0.000024 -0.000000  0.000007 -0.000000
                                -0.000084 -0.000000  0.000085 -0.000000  0.000052 -0.000000  0.000012 -0.000000 -0.000060  0.000000
                                -0.000009  0.000000  0.000000 -0.000000 -0.000284  0.000000 -0.000046 -0.000000 -0.000111  0.000000
                                 0.000029  0.000000  0.000018  0.000000  0.000029 -0.000000 -0.000000 -0.000014 -0.000000  0.000000
                                 0.000001 -0.000000 -0.000000  0.000015 -0.000000  0.000000  0.000000 -0.000010  0.000011 -0.000000
                                 0.000015 -0.000016 -0.000000 -0.000002  0.000006  0.000000  0.000006 -0.000010  0.000056 -0.000084
                                -0.000124 -0.000007 -0.000008 -0.000110 -0.000063 -0.000005  0.000032 -0.000000  0.000083 -0.000000
                                 0.000036 -0.000000 -0.000027  0.000000 -0.000018  0.000000

   4.1   2    -4.8825  -43.0624  0.000008  0.000023  0.000062  0.000148  0.000351  0.000834  0.002007  0.004889  0.011508  0.025428
                                 0.048609  0.074082  0.051719 -0.107308 -0.386192 -0.378401  0.303042  0.680239  0.298495 -0.000500
                                -0.007107  0.002551  0.038221  0.010723  0.000231 -0.000000 -0.000001 -0.000003 -0.000011 -0.000039
                                -0.000120 -0.000314 -0.000702 -0.001126 -0.001623 -0.002869  0.003892  0.011284  0.002208 -0.002819
                                -0.006828 -0.001651  0.000257  0.001970 -0.007004  0.000214  0.000000 -0.000000  0.000005  0.000000
                                 0.000015  0.000000  0.000129  0.000000  0.000087  0.000000 -0.000720  0.000000  0.000349  0.000000
                                 0.000428  0.000000 -0.001495  0.000000 -0.001871 -0.000000 -0.000033  0.000000  0.000387 -0.000000
                                -0.000085 -0.000000  0.000068 -0.000000 -0.000095  0.000000 -0.000030  0.000000  0.000179  0.000000
                                -0.000099  0.000000 -0.000367 -0.000000 -0.000098  0.000141 -0.000000 -0.000002  0.000146  0.000000
                                -0.000155  0.000548 -0.000000 -0.000081  0.000239  0.000000 -0.000000 -0.000001 -0.000002  0.000000
                                -0.000000  0.000051  0.000000 -0.000002  0.000047  0.000093  0.000587  0.002386  0.006425  0.012265
                                 0.004749 -0.001527 -0.001657 -0.003043 -0.004481 -0.001051  0.001025 -0.000000  0.001062 -0.000000
                                 0.000220 -0.000000 -0.000472  0.000000  0.000142  0.000000

   5.1   2    -3.2100  -38.9627 -0.000000 -0.000000 -0.000001 -0.000002 -0.000004 -0.000011 -0.000026 -0.000062 -0.000148 -0.000321
                                -0.000629 -0.000923 -0.000717  0.001574  0.004250  0.016356  0.004894  0.041421 -0.018907  0.013938
                                 0.005025 -0.001028 -0.014237 -0.048372  0.000154 -0.000021 -0.000076 -0.000309 -0.001149 -0.003968
                                -0.012160 -0.032352 -0.071052 -0.120762 -0.143242 -0.047861  0.210796  0.422456  0.365132  0.155419
                                 0.027199  0.001394  0.000250  0.005562 -0.020712 -0.000123 -0.000001  0.000000 -0.000013  0.000000
                                -0.000056  0.000000 -0.000286  0.000000 -0.000361  0.000000  0.002670  0.000000  0.002252  0.000000
                                -0.002007  0.000000  0.001523  0.000000  0.005256  0.000000 -0.000199 -0.000000 -0.001081 -0.000000
                                -0.004019 -0.000000  0.000079  0.000000 -0.000352 -0.000000 -0.001350  0.000000 -0.000692  0.000000
                                -0.000152  0.000000  0.001192  0.000000  0.000014 -0.000002 -0.000000  0.000269 -0.000002 -0.000000
                                 0.000539 -0.000007  0.000000  0.000211 -0.000006 -0.000000  0.000000 -0.000051  0.000043  0.000000
                                -0.000112  0.000209 -0.000000  0.000030  0.000141  0.000290  0.001938  0.008886  0.020491 -0.016832
                                -0.004083  0.000214 -0.004244 -0.005593  0.003031  0.000627  0.001930  0.000000  0.001497  0.000000
                                 0.000734  0.000000 -0.000699 -0.000000 -0.000405 -0.000000

   6.1   2    -0.5972  -24.0659 -0.000001 -0.000002 -0.000006 -0.000013 -0.000032 -0.000075 -0.000182 -0.000442 -0.001043 -0.002299
                                -0.004427 -0.006723 -0.004828  0.010282  0.036543  0.057900 -0.021338  0.002588 -0.084602 -0.057637
                                -0.055224 -0.009414 -0.027118 -0.093431 -0.003485  0.000003  0.000009  0.000039  0.000143  0.000500
                                 0.001519  0.004094  0.008894  0.015577  0.016888 -0.011246 -0.020930 -0.021518 -0.058338 -0.026630
                                -0.024226 -0.012827 -0.000985  0.013477 -0.041246 -0.001288  0.000267  0.000000  0.002369  0.000000
                                 0.012165  0.000000  0.041479  0.000000  0.103666  0.000000  0.185573  0.000000  0.235400  0.000000
                                 0.223375  0.000000  0.160291  0.000000  0.051024  0.000000  0.006032  0.000000 -0.000776  0.000000
                                -0.006081  0.000000 -0.000684  0.000000  0.000487  0.000000  0.001563  0.000000  0.005681  0.000000
                                 0.000877 -0.000000 -0.005238 -0.000000 -0.000204 -0.000063 -0.000000  0.000120 -0.000079 -0.000000
                                 0.000740 -0.000233  0.000000 -0.000535 -0.000328  0.000000  0.000000  0.000008  0.000026  0.000000
                                 0.000024  0.000345  0.000000 -0.000037  0.000083  0.001778  0.013229  0.064029  0.202763  0.314164
                                 0.156803  0.012188 -0.008154 -0.025499 -0.036330 -0.018964  0.003436  0.000000  0.006480  0.000000
                                -0.000231  0.000000 -0.001264 -0.000000 -0.000122 -0.000000

   7.1   2    -0.5545  -29.9808  0.000000  0.000000  0.000000 -0.000000  0.000000 -0.000000  0.000000  0.000000  0.000000  0.000000
                                 0.000000  0.000000  0.000000 -0.000000 -0.000000 -0.000000  0.000000  0.000000  0.000000  0.000000
                                 0.000000  0.000000  0.000000  0.000000  0.000000  0.000000 -0.000000 -0.000000 -0.000000 -0.000000
                                -0.000000 -0.000000 -0.000000 -0.000000 -0.000000  0.000000  0.000000 -0.000000  0.000000  0.000000
                                -0.000000  0.000000  0.000000 -0.000000  0.000000 -0.000000 -0.000000  0.000361 -0.000000  0.003209
                                -0.000000  0.016482 -0.000000  0.056268 -0.000000  0.140486 -0.000000  0.245629 -0.000000  0.308550
                                -0.000000  0.295635 -0.000000  0.213273 -0.000000  0.093086  0.000000  0.011134  0.000000  0.000395
                                 0.000000  0.000231  0.000000 -0.000385 -0.000000  0.000082 -0.000000  0.000249 -0.000000  0.000186
                                -0.000000 -0.002538  0.000000 -0.003428  0.000000  0.000000 -0.000101 -0.000000  0.000000 -0.000277
                                -0.000000  0.000000  0.000095  0.000000  0.000000  0.000407  0.000037 -0.000000 -0.000000  0.000097
                                -0.000000 -0.000000  0.000178  0.000000 -0.000000 -0.000000 -0.000000 -0.000000 -0.000000 -0.000000
                                -0.000000 -0.000000  0.000000  0.000000  0.000000  0.000000 -0.000000  0.000710 -0.000000  0.001406
                                 0.000000  0.000595  0.000000 -0.000603  0.000000  0.000081

   8.1   2    -0.3065  -15.2472 -0.000002 -0.000004 -0.000012 -0.000028 -0.000067 -0.000159 -0.000383 -0.000933 -0.002195 -0.004860
                                -0.009305 -0.014268 -0.010000  0.021141  0.080073  0.078051 -0.081646 -0.247938 -0.165342  0.245834
                                 0.400913  0.143541 -0.004656  0.041319 -0.001419  0.000001  0.000005  0.000020  0.000076  0.000263
                                 0.000804  0.002149  0.004714  0.008091  0.009448  0.000902 -0.014924 -0.025877 -0.035215 -0.002469
                                 0.026289  0.021361  0.007813  0.001370 -0.004686  0.000623 -0.000155 -0.000000 -0.001382 -0.000000
                                -0.007102 -0.000000 -0.024226 -0.000000 -0.060668 -0.000000 -0.107620 -0.000000 -0.135265 -0.000000
                                -0.130188 -0.000000 -0.102114 -0.000000 -0.063428 -0.000000 -0.020592 -0.000000  0.000503 -0.000000
                                 0.002372 -0.000000  0.000453  0.000000  0.000127 -0.000000  0.000139 -0.000000  0.001362 -0.000000
                                 0.005613  0.000000  0.004792 -0.000000  0.000119  0.000028 -0.000000  0.000126  0.000149  0.000000
                                 0.000535  0.000171 -0.000000  0.000387  0.000033  0.000000  0.000000  0.000004 -0.000029 -0.000000
                                 0.000015 -0.000095 -0.000000 -0.000030  0.000149  0.000626  0.004894  0.022636  0.071426  0.148262
                                 0.115322  0.003724  0.003436  0.005735  0.007227  0.012306 -0.001711 -0.000000 -0.002830 -0.000000
                                -0.002997  0.000000  0.000782  0.000000  0.000351  0.000000

   9.1   0     0.0113   -4.7341  0.000000  0.000000  0.000000  0.000000  0.000001  0.000002  0.000005  0.000014  0.000023  0.000081
                                 0.000080  0.000303 -0.000132  0.000568 -0.004572  0.059271  0.041230  0.246911 -0.045038 -0.393202
                                 0.481726  0.082917 -0.070621 -0.235240  1.767359 -0.000001 -0.000005 -0.000020 -0.000070 -0.000259
                                -0.000734 -0.002138 -0.004189 -0.008709 -0.003939  0.055259 -0.018066 -0.114147  0.072914 -0.051460
                                -0.187982 -0.085057  0.291960 -0.050642  0.145293 -0.452513  0.000043 -0.000000  0.000387 -0.000000
                                 0.001973 -0.000000  0.006787 -0.000000  0.016500 -0.000000  0.028408 -0.000000  0.039269 -0.000000
                                 0.032114 -0.000000 -0.013291 -0.000000 -0.028548 -0.000000  0.062788  0.000000  0.000953  0.000000
                                 0.000095  0.000000  0.133933 -0.000000 -0.000098 -0.000000  0.000148 -0.000000 -0.000838 -0.000000
                                -0.013610 -0.000000 -0.018406  0.000000 -0.000098  0.000028  0.000000  0.000131  0.000086  0.000000
                                -0.001371  0.000141  0.000000 -0.004002  0.000035 -0.000000 -0.000000 -0.000011 -0.000002 -0.000000
                                -0.000031  0.000120  0.000000  0.000072 -0.000841 -0.000250 -0.001735 -0.010737 -0.000712  0.276612
                                -0.394443 -1.386819 -0.000173 -0.032277 -0.091171 -0.004521  0.001609 -0.000000  0.012113 -0.000000
                                 0.010389 -0.000000 -0.000697  0.000000 -0.001255  0.000000

  10.1   0     0.0264   -2.7147  0.000000  0.000001  0.000002  0.000004  0.000009  0.000020  0.000050  0.000118  0.000291  0.000607
                                 0.001257  0.001702  0.001624 -0.003792 -0.006113 -0.082217 -0.033518 -0.202560  0.086042  0.510150
                                -1.229864  4.306525  0.084481  0.225970  5.121761  0.000000  0.000001  0.000003  0.000010  0.000033
                                 0.000103  0.000271  0.000606  0.001012  0.001284  0.000854 -0.002182 -0.004236 -0.005059  0.019131
                                 0.146007 -0.363250  1.249194 -0.000528  0.000381  1.966582  0.000003  0.000000  0.000005  0.000000
                                 0.000129  0.000000 -0.000032  0.000000  0.004194  0.000000  0.026901  0.000000  0.013567  0.000000
                                -0.004965  0.000000  0.024069  0.000000 -0.037935 -0.000000 -0.073527  0.000000 -0.010984 -0.000000
                                -0.026389 -0.000000  0.352424 -0.000000  0.000000 -0.000000 -0.000120 -0.000000  0.000214  0.000000
                                -0.001399 -0.000000 -0.016925  0.000000  0.000043 -0.000007 -0.000000 -0.000169 -0.000020  0.000000
                                 0.000672  0.000036 -0.000000 -0.003555  0.000132  0.000000 -0.000000  0.000001 -0.000014  0.000000
                                 0.000005  0.000057 -0.000000 -0.000015 -0.000210 -0.000023 -0.000539  0.000072  0.001229 -0.124401
                                 0.138951 -8.604234  0.000640 -0.003737  0.163145  0.077243  0.000852 -0.000000 -0.013131  0.000000
                                -0.065586 -0.000000  0.001084 -0.000000  0.002513  0.000000

  11.1   0     0.0582   -5.8387 -0.000000 -0.000001 -0.000002 -0.000004 -0.000010 -0.000025 -0.000057 -0.000149 -0.000320 -0.000796
                                -0.001294 -0.002529 -0.000727  0.000652  0.022718 -0.171844 -0.134007 -0.776953  0.134309  1.127664
                                -5.103040  3.869633  0.214506  0.719440 -0.210305 -0.000002 -0.000007 -0.000028 -0.000116 -0.000351
                                -0.001242 -0.002803 -0.007635 -0.008647 -0.028412 -0.166705  0.117488  0.454109 -0.078444  0.207913
                                 0.299016 -1.435969 -0.850055  0.143822 -0.414412  1.437779  0.000051 -0.000000  0.000441 -0.000000
                                 0.002339 -0.000000  0.007651 -0.000000  0.021794 -0.000000  0.046695 -0.000000  0.042885 -0.000000
                                 0.052743  0.000000  0.157134 -0.000000  0.046653  0.000000 -0.264191 -0.000000 -0.006262  0.000000
                                -0.009636  0.000000  0.264239  0.000000  0.000128 -0.000000 -0.000825  0.000000  0.001493 -0.000000
                                 0.036895  0.000000  0.006899 -0.000000  0.000154  0.000044 -0.000000 -0.000961  0.000130  0.000000
                                 0.003621  0.000123 -0.000000  0.008301 -0.000142  0.000000  0.000000 -0.000017  0.000057 -0.000000
                                -0.000047 -0.000167  0.000000  0.000114  0.002009 -0.000248 -0.002815 -0.003588 -0.116601 -0.814188
                                 3.697232 -2.495442 -0.005314  0.083528  0.248873 -0.690530 -0.002516  0.000000 -0.038632 -0.000000
                                -0.055660  0.000000  0.001821 -0.000000  0.004906  0.000000

                                   1 2px     1 2px     1 2px     1 2px     1 2px     1 2px     1 2px     1 2px     1 2px     1 2px  
                                   1 2px     1 2px     1 2px     1 2px     1 2px     1 2px     1 2px     1 2px     1 2px     1 2px  
                                   1 2px     1 3d1+    1 3d1+    1 3d1+    1 3d1+    1 3d1+    1 3d1+    1 3d1+    1 3d1+    1 3d1+ 
                                   1 3d1+    1 3d1+    1 3d1+    1 3d1+    1 3d1+    1 4f1+    1 4f3+    1 4f1+    1 4f3+    1 4f1+ 
                                   1 4f3+    1 4f1+    1 4f3+    1 4f1+    1 4f3+    1 5g1+    1 5g3+    1 5g1+    1 5g3+    1 5g1+ 
                                   1 5g3+    1 5g1+    1 5g3+    1 6h1+    1 6h3+    1 6h5+    1 6h1+    1 6h3+    1 6h5+    1 6h1+ 
                                   1 6h3+    1 6h5+    2 2px     2 2px     2 2px     2 2px     2 3d1+    2 3d1+    2 3d1+    2 4f1+ 
                                   2 4f3+    2 4f1+    2 4f3+ 

   1.2   2   -32.9558 -129.4796  0.000057  0.000208  0.000843  0.003123  0.010727  0.032422  0.084314  0.178541  0.290994  0.327491
                                 0.202981  0.055258  0.007380  0.000611  0.000259  0.000068  0.000003  0.000003  0.002532 -0.003274
                                -0.000001 -0.000000 -0.000002 -0.000008  0.000027  0.000089  0.000087  0.000020 -0.000017  0.000014
                                 0.000004  0.000000 -0.000020 -0.000028  0.000000 -0.000053  0.000180  0.000138  0.000200  0.000028
                                 0.000121  0.000029  0.000025  0.000001  0.000003  0.000023  0.000000 -0.000017  0.000000  0.000003
                                -0.000000  0.000004 -0.000000  0.000008  0.000002 -0.000016 -0.000012 -0.000003  0.000024  0.000004
                                 0.000001 -0.000004  0.000000 -0.000014 -0.000024 -0.000006 -0.000001  0.000010  0.000009  0.000003
                                -0.000000 -0.000002 -0.000000

   2.2   2    -3.1828  -39.0475 -0.000021 -0.000077 -0.000311 -0.001157 -0.003995 -0.012241 -0.032568 -0.071528 -0.121573 -0.144205
                                -0.047389  0.211619  0.423028  0.366901  0.158243  0.016313 -0.002007  0.000761  0.004866 -0.016166
                                -0.000237  0.000001  0.000012  0.000067  0.000148  0.000831  0.003649  0.002610 -0.000780 -0.001349
                                -0.000051 -0.000308 -0.000982 -0.002433  0.000017  0.000244  0.000625 -0.000062  0.001305  0.001179
                                 0.002814  0.000647  0.002094 -0.000087  0.000178  0.000010  0.000000  0.000121  0.000002  0.000213
                                -0.000004 -0.000052 -0.000011  0.000027  0.000012 -0.000081  0.000155  0.000026 -0.000179  0.000053
                                 0.000002  0.000046  0.000769  0.001625  0.000938  0.000790 -0.000675 -0.000885 -0.000282  0.000414
                                 0.000002  0.000158 -0.000017

   3.2   2    -0.5428  -29.6619  0.000000  0.000000  0.000001  0.000003  0.000009  0.000027  0.000074  0.000156  0.000286  0.000239
                                -0.000504 -0.000218 -0.002374  0.000254 -0.003927 -0.010092 -0.002226  0.000158  0.000539  0.001151
                                -0.000040  0.000355  0.003156  0.016220  0.055335  0.138451  0.243787  0.304750  0.293321  0.215321
                                 0.094219  0.012585 -0.000537 -0.002198 -0.000692  0.000169 -0.000003  0.000368 -0.000008  0.001429
                                -0.000018 -0.001114 -0.000042 -0.004272 -0.000053 -0.000179  0.000046 -0.000325  0.000084  0.000429
                                 0.000186  0.000834  0.000227  0.000040 -0.000000  0.000000  0.000255  0.000002  0.000001  0.000251
                                -0.000007  0.000001  0.005310  0.010575  0.013813  0.002399 -0.002586 -0.002481 -0.000524  0.000972
                                 0.000012 -0.000266  0.000059

   4.2   0     0.0248   -3.5242  0.000001  0.000003  0.000012  0.000037  0.000153  0.000386  0.001280  0.002101  0.005733 -0.001971
                                -0.076500  0.034993  0.154384 -0.049949  0.013048 -0.105323  0.090510 -0.377416  0.068702 -0.178519
                                 1.170270  0.000002  0.000010  0.000077  0.000152  0.001403  0.007431  0.004730 -0.000950 -0.023379
                                -0.045539 -0.055504 -0.002681 -0.006844 -0.113161  0.000022  0.000005 -0.000069  0.000045  0.000412
                                 0.000028 -0.011791 -0.000118 -0.011662 -0.000254 -0.000043 -0.000000  0.000165 -0.000002 -0.000674
                                -0.000001 -0.004644 -0.000004 -0.000044 -0.000002  0.000010  0.000190 -0.000004  0.000029 -0.001056
                                 0.000010 -0.000075 -0.000434  0.011475  0.074572  0.197483 -0.000073 -0.016933 -0.055481  0.001760
                                 0.000000  0.010338  0.000027

   5.2   0     0.0793   -4.7466  0.000001  0.000006  0.000020  0.000089  0.000252  0.000965  0.001984  0.006063  0.005284  0.027088
                                 0.186983 -0.120957 -0.444782  0.050574 -0.067824  0.209690 -0.164107  1.491265 -0.162962  0.427373
                                -1.062739  0.000010  0.000055  0.000456  0.000752  0.009098  0.048256  0.026659 -0.008513  0.052819
                                -0.076914  0.195059 -0.018424 -0.043432 -0.627059  0.000010  0.000010  0.000049  0.000090 -0.000163
                                 0.000054  0.008585 -0.000258 -0.002604 -0.000527  0.000060 -0.000003 -0.000269 -0.000010  0.001009
                                -0.000012  0.003807 -0.000003  0.000057 -0.000003  0.000019 -0.000283 -0.000008  0.000057  0.001248
                                 0.000021 -0.000152  0.003979 -0.016874  0.015675 -0.133380 -0.000324  0.014925  0.018433 -0.000978
                                -0.000001 -0.011398  0.000061

   6.2   0     0.0844   -4.2578  0.000001  0.000004  0.000016  0.000068  0.000202  0.000727  0.001607  0.004497  0.004814  0.017469
                                 0.105694 -0.071181 -0.247435  0.011255 -0.019544  0.418902  0.299489  0.986713 -0.091733  0.232593
                                -0.559860 -0.000014 -0.000056 -0.000615 -0.000599 -0.015002 -0.088391 -0.048651  0.020459  0.033659
                                 0.265764 -0.155439  0.034680  0.083952  1.010312 -0.000110  0.000008  0.000486  0.000070 -0.001788
                                 0.000041  0.034986 -0.000201  0.051692 -0.000398  0.000088  0.000004 -0.000320  0.000011  0.001687
                                 0.000019  0.015125 -0.000014  0.000090 -0.000002  0.000015 -0.000487 -0.000006  0.000044  0.002963
                                 0.000016 -0.000119  0.001168 -0.013946 -0.284385 -0.557196  0.000425  0.050164  0.200314 -0.006193
                                 0.000003 -0.027136  0.000023

                                   1 2py     1 2py     1 2py     1 2py     1 2py     1 2py     1 2py     1 2py     1 2py     1 2py  
                                   1 2py     1 2py     1 2py     1 2py     1 2py     1 2py     1 2py     1 2py     1 2py     1 2py  
                                   1 2py     1 3d1-    1 3d1-    1 3d1-    1 3d1-    1 3d1-    1 3d1-    1 3d1-    1 3d1-    1 3d1- 
                                   1 3d1-    1 3d1-    1 3d1-    1 3d1-    1 3d1-    1 4f1-    1 4f3-    1 4f1-    1 4f3-    1 4f1- 
                                   1 4f3-    1 4f1-    1 4f3-    1 4f1-    1 4f3-    1 5g1-    1 5g3-    1 5g1-    1 5g3-    1 5g1- 
                                   1 5g3-    1 5g1-    1 5g3-    1 6h1-    1 6h3-    1 6h5-    1 6h1-    1 6h3-    1 6h5-    1 6h1- 
                                   1 6h3-    1 6h5-    2 2py     2 2py     2 2py     2 2py     2 3d1-    2 3d1-    2 3d1-    2 4f1- 
                                   2 4f3-    2 4f1-    2 4f3- 

   1.3   2   -32.9558 -129.4796  0.000057  0.000208  0.000843  0.003123  0.010727  0.032422  0.084314  0.178541  0.290994  0.327491
                                 0.202981  0.055258  0.007380  0.000611  0.000259  0.000068  0.000003  0.000003  0.002532 -0.003274
                                -0.000001 -0.000000 -0.000002 -0.000008  0.000027  0.000089  0.000087  0.000020 -0.000017  0.000014
                                 0.000004  0.000000 -0.000020 -0.000028  0.000000 -0.000053 -0.000180  0.000138 -0.000200  0.000028
                                -0.000121  0.000029 -0.000025  0.000001 -0.000003  0.000023 -0.000000 -0.000017 -0.000000  0.000003
                                 0.000000  0.000004  0.000000  0.000008 -0.000002 -0.000016 -0.000012  0.000003  0.000024  0.000004
                                -0.000001 -0.000004  0.000000 -0.000014 -0.000024 -0.000006 -0.000001  0.000010  0.000009  0.000003
                                 0.000000 -0.000002  0.000000

   2.3   2    -3.1828  -39.0475 -0.000021 -0.000077 -0.000311 -0.001157 -0.003995 -0.012241 -0.032568 -0.071528 -0.121573 -0.144205
                                -0.047389  0.211619  0.423028  0.366901  0.158243  0.016313 -0.002007  0.000761  0.004866 -0.016166
                                -0.000237  0.000001  0.000012  0.000067  0.000148  0.000831  0.003649  0.002610 -0.000780 -0.001349
                                -0.000051 -0.000308 -0.000982 -0.002433  0.000017  0.000244 -0.000625 -0.000062 -0.001305  0.001179
                                -0.002814  0.000647 -0.002094 -0.000087 -0.000178  0.000010 -0.000000  0.000121 -0.000002  0.000213
                                 0.000004 -0.000052  0.000011  0.000027 -0.000012 -0.000081  0.000155 -0.000026 -0.000179  0.000053
                                -0.000002  0.000046  0.000769  0.001625  0.000938  0.000790 -0.000675 -0.000885 -0.000282  0.000414
                                -0.000002  0.000158  0.000017

   3.3   2    -0.5428  -29.6619  0.000000  0.000000  0.000001  0.000003  0.000009  0.000027  0.000074  0.000156  0.000286  0.000239
                                -0.000504 -0.000218 -0.002374  0.000254 -0.003927 -0.010092 -0.002226  0.000158  0.000539  0.001151
                                -0.000040  0.000355  0.003156  0.016220  0.055335  0.138451  0.243787  0.304750  0.293321  0.215321
                                 0.094219  0.012585 -0.000537 -0.002198 -0.000692  0.000169  0.000003  0.000368  0.000008  0.001429
                                 0.000018 -0.001114  0.000042 -0.004272  0.000053 -0.000179 -0.000046 -0.000325 -0.000084  0.000429
                                -0.000186  0.000834 -0.000227  0.000040  0.000000  0.000000  0.000255 -0.000002  0.000001  0.000251
                                 0.000007  0.000001  0.005310  0.010575  0.013813  0.002399 -0.002586 -0.002481 -0.000524  0.000972
                                -0.000012 -0.000266 -0.000059

   4.3   0     0.0248   -3.5242  0.000001  0.000003  0.000012  0.000037  0.000153  0.000386  0.001280  0.002101  0.005733 -0.001971
                                -0.076500  0.034993  0.154384 -0.049949  0.013048 -0.105323  0.090510 -0.377416  0.068702 -0.178519
                                 1.170270  0.000002  0.000010  0.000077  0.000152  0.001403  0.007431  0.004730 -0.000950 -0.023379
                                -0.045539 -0.055504 -0.002681 -0.006844 -0.113161  0.000022 -0.000005 -0.000069 -0.000045  0.000412
                                -0.000028 -0.011791  0.000118 -0.011662  0.000254 -0.000043  0.000000  0.000165  0.000002 -0.000674
                                 0.000001 -0.004644  0.000004 -0.000044  0.000002  0.000010  0.000190  0.000004  0.000029 -0.001056
                                -0.000010 -0.000075 -0.000434  0.011475  0.074572  0.197483 -0.000073 -0.016933 -0.055481  0.001760
                                -0.000000  0.010338 -0.000027

   5.3   0     0.0793   -4.7466  0.000001  0.000006  0.000020  0.000089  0.000252  0.000965  0.001984  0.006063  0.005284  0.027088
                                 0.186983 -0.120957 -0.444782  0.050574 -0.067824  0.209690 -0.164107  1.491265 -0.162962  0.427373
                                -1.062739  0.000010  0.000055  0.000456  0.000752  0.009098  0.048256  0.026659 -0.008513  0.052819
                                -0.076914  0.195059 -0.018424 -0.043432 -0.627059  0.000010 -0.000010  0.000049 -0.000090 -0.000163
                                -0.000054  0.008585  0.000258 -0.002604  0.000527  0.000060  0.000003 -0.000269  0.000010  0.001009
                                 0.000012  0.003807  0.000003  0.000057  0.000003  0.000019 -0.000283  0.000008  0.000057  0.001248
                                -0.000021 -0.000152  0.003979 -0.016874  0.015675 -0.133380 -0.000324  0.014925  0.018433 -0.000978
                                 0.000001 -0.011398 -0.000061

   6.3   0     0.0844   -4.2578  0.000001  0.000004  0.000016  0.000068  0.000202  0.000727  0.001607  0.004497  0.004814  0.017469
                                 0.105694 -0.071181 -0.247435  0.011255 -0.019544  0.418902  0.299489  0.986713 -0.091733  0.232593
                                -0.559860 -0.000014 -0.000056 -0.000615 -0.000599 -0.015002 -0.088391 -0.048651  0.020459  0.033659
                                 0.265764 -0.155439  0.034680  0.083952  1.010312 -0.000110 -0.000008  0.000486 -0.000070 -0.001788
                                -0.000041  0.034986  0.000201  0.051692  0.000398  0.000088 -0.000004 -0.000320 -0.000011  0.001687
                                -0.000019  0.015125  0.000014  0.000090  0.000002  0.000015 -0.000487  0.000006  0.000044  0.002963
                                -0.000016 -0.000119  0.001168 -0.013946 -0.284385 -0.557196  0.000425  0.050164  0.200314 -0.006193
                                -0.000003 -0.027136 -0.000023

                                   1 3d2-    1 3d2-    1 3d2-    1 3d2-    1 3d2-    1 3d2-    1 3d2-    1 3d2-    1 3d2-    1 3d2- 
                                   1 3d2-    1 3d2-    1 3d2-    1 3d2-    1 4f2-    1 4f2-    1 4f2-    1 4f2-    1 4f2-    1 5g2- 
                                   1 5g4-    1 5g2-    1 5g4-    1 5g2-    1 5g4-    1 5g2-    1 5g4-    1 6h4-    1 6h2-    1 6h4- 
                                   1 6h2-    1 6h4-    1 6h2-    2 3d2-    2 3d2-    2 3d2-    2 4f2-    2 4f2- 

   1.4   +    -0.6118  -30.3541  0.000365  0.003247  0.016678  0.056908  0.142151  0.249224  0.313401  0.297282  0.206123  0.081662
                                 0.007640  0.000401  0.000236 -0.000185  0.000084  0.000256  0.000189 -0.002558 -0.002851 -0.000304
                                 0.000000 -0.000916  0.000000 -0.000813 -0.000000 -0.000101 -0.000000 -0.000000  0.000035 -0.000000
                                 0.000106  0.000000  0.000147  0.000715  0.001365  0.000357 -0.000654  0.000108

   2.4   0     0.0830   -3.4521 -0.000017 -0.000049 -0.000738 -0.000293 -0.020650 -0.125552 -0.064543  0.031134 -0.064219  0.122054
                                -0.343873  0.050803  0.120076  1.184380 -0.000047  0.000165 -0.000496  0.001830 -0.007922  0.000012
                                -0.000000  0.000014  0.000000  0.000056 -0.000000 -0.000068 -0.000000  0.000000  0.000000 -0.000000
                                -0.000008 -0.000000  0.000011  0.000338 -0.001145  0.009142 -0.000052 -0.000004

   3.4   0     0.2716   -5.6119 -0.000031 -0.000577 -0.001497 -0.011879  0.030852  0.327196  0.128690 -0.161911  0.169814 -0.353317
                                 1.623747 -0.154794 -0.367009 -0.805413 -0.000023 -0.000051 -0.000179 -0.000239  0.022439 -0.000026
                                -0.000000  0.000360 -0.000000 -0.000779  0.000000  0.001567 -0.000000  0.000000 -0.000027 -0.000000
                                 0.000082  0.000000 -0.000313 -0.002156  0.010172 -0.090759  0.000092  0.009577

   4.4   0     0.7101   -6.5355 -0.000041 -0.000211 -0.001843 -0.002805 -0.038604 -0.212857 -0.120298  0.051024 -0.192738 -0.858527
                                -0.545066  0.081144  0.196283  0.149405  0.001904 -0.005081  0.022310 -0.057745 -0.397164  0.001660
                                -0.000000 -0.005915  0.000000  0.021439 -0.000000 -0.069553  0.000000  0.000000  0.000052  0.000000
                                -0.000267 -0.000000  0.001207  0.018456 -0.049206  2.025306  0.003866 -0.299448

 HOMO      8.1    -0.306450 =      -8.3389eV
 LUMO      9.1     0.011265 =       0.3065eV
 LUMO-HOMO         0.317715 =       8.6455eV


 **********************************************************************************************************************************
 DATASETS  * FILE   NREC   LENGTH (MB)   RECORD NAMES
              1      23      681.69       500      610      700      900      950      970     1000      129      960     1700   
                                          VAR    BASINP    GEOM    SYMINP    ZMAT    AOBASIS   BASIS     P2S    ABASIS    OPER   
                                         1101     1401     1411     1412     1650     1100     1400     1410     1200     1210   
                                          SR      EKINR    POTR     PVPR    MOLCAS      S      EKIN      POT      H0       H01  
                                         1300     1080     1600   
                                         ERIS     AOSYM     SMH  

              2       4        3.60       700     1000      520     2100   
                                         GEOM     BASIS   MCVARS     RHF  

 PROGRAMS   *        TOTAL       RHF       INT
 CPU TIMES  *        75.76     13.39     62.28
 REAL TIME  *        80.32 SEC
 DISK USED  *         2.63 GB      
 **********************************************************************************************************************************
   -->
   <time start="12:37:03" end="12:38:23" cpu="75.76" system="4.25" real="80.32"/>
   <storage units="megabyte" memory="4097.84" sf="0.0" df="2625.55" eaf="0.0"/>
  </jobstep><!--
 SETTING SCF(1)         =     -1519.51351797  AU                              
 SETTING _CC_NORM_MAX   =         2.00000000                                  
  --><jobstep command="RCCSD(T)" commandset="CCSD">
   <!--


1PROGRAM * CCSD (Restricted open-shell coupled cluster)     Authors: C. Hampel, H.-J. Werner, 1991, M. Deegan, P.J. Knowles, 1992


 Convergence thresholds:  THRVAR = 1.00D-08  THRDEN = 1.00D-06

 CCSD(T)     terms to be evaluated (factor= 1.000)


 Number of core orbitals:           5 (   3   1   1   0 )
 Number of closed-shell orbitals:   9 (   5   2   2   0 )
 Number of active  orbitals:        1 (   0   0   0   1 )
 Number of external orbitals:     295 ( 118  70  70  37 )

 Memory could be reduced to 119.25 Mwords without degradation in triples

 Number of N-1 electron functions:              19
 Number of N-2 electron functions:             171
 Number of singly external CSFs:              1778
 Number of doubly external CSFs:           2954374
 Total number of CSFs:                     2956152

 Molecular orbitals read from record     2100.2  Type=RHF/CANONICAL (state 1.4)

 Integral transformation finished. Total CPU:   4.68 sec, npass=  1  Memory used:  10.77 MW

 Starting RMP2 calculation

 Wavefunction is spin-projected

 ITER.      SQ.NORM     CORR.ENERGY   TOTAL ENERGY   ENERGY CHANGE        DEN1      VAR(S)    VAR(P)  DIIS     TIME
   1      1.15148283    -1.03081681 -1520.54433479    -1.03081681    -0.00139632  0.86D-06  0.66D-03  1  1     5.72
   2      1.15306372    -1.03229023 -1520.54580820    -0.00147341    -0.00000736  0.45D-07  0.62D-05  2  2     5.89
   3      1.15320334    -1.03235948 -1520.54587745    -0.00006925    -0.00000005  0.33D-08  0.43D-07  3  3     6.08
   4      1.15320989    -1.03236096 -1520.54587893    -0.00000148    -0.00000000  0.25D-09  0.36D-09  4  4     6.28
   5      1.15321007    -1.03236096 -1520.54587894    -0.00000001    -0.00000000  0.28D-11  0.74D-11  5  5     6.50

 Norm of t1 vector:      0.01955309      S-energy:    -0.00271697      T1 diagnostic:  0.00003939
 Norm of t2 vector:      0.39093190      P-energy:    -1.02964400
                                         Alpha-Beta:  -0.70488793
                                         Alpha-Alpha: -0.18303392
                                         Beta-Beta:   -0.14172215

 Spin contamination <S**2-Sz**2-Sz>     0.00000000
  Reference energy                  -1519.513517972799
   --><property name="energy" method="Reference" stateSymmetry="1" stateNumber="1"
     value="-1519.5135179728"/><!--
  RHF-RMP2 correlation energy          -1.032360963872
   --><property name="energy" method="RHF-RMP2 correlation" stateSymmetry="1" stateNumber="1"
     value="-1.03236096387234"/><!--
 !RHF-RMP2 energy                   -1520.545878936672
   --><property name="energy" method="RHF-RMP2" principal="true" stateSymmetry="4"
     stateNumber="1" value="-1520.54587893667"/><!--
 (NB above energy spin projected)

 Starting RCCSD calculation

 ITER.      SQ.NORM     CORR.ENERGY   TOTAL ENERGY   ENERGY CHANGE        DEN1      VAR(S)    VAR(P)  DIIS     TIME
   1      1.11098396    -0.87951863 -1520.39303661    -0.87951863    -0.06511410  0.92D-02  0.11D-01  0  0    14.99
   2      1.13273939    -0.93721852 -1520.45073649    -0.05769989    -0.01117563  0.18D-02  0.27D-02  1  1    23.44
   3      1.13211965    -0.92374454 -1520.43726251     0.01347398    -0.00067037  0.45D-03  0.12D-03  2  2    31.94
   4      1.13537253    -0.92467324 -1520.43819121    -0.00092870    -0.00020997  0.15D-03  0.46D-04  3  3    40.37
   5      1.14106376    -0.92622898 -1520.43974696    -0.00155575    -0.00002891  0.32D-04  0.39D-05  4  4    48.82
   6      1.14284758    -0.92643295 -1520.43995092    -0.00020397    -0.00000888  0.10D-04  0.13D-05  5  5    57.22
   7      1.14382103    -0.92647409 -1520.43999206    -0.00004114    -0.00000323  0.38D-05  0.37D-06  6  6    65.72
   8      1.14443533    -0.92647907 -1520.43999705    -0.00000498    -0.00000109  0.11D-05  0.15D-06  6  1    74.28
   9      1.14484833    -0.92648955 -1520.44000752    -0.00001047    -0.00000020  0.11D-06  0.49D-07  6  2    82.80
  10      1.14494270    -0.92649125 -1520.44000923    -0.00000171    -0.00000004  0.23D-07  0.11D-07  6  3    91.31
  11      1.14494023    -0.92648855 -1520.44000652     0.00000270    -0.00000001  0.46D-08  0.21D-08  6  4    99.85
  12      1.14495729    -0.92649074 -1520.44000872    -0.00000219    -0.00000000  0.10D-08  0.62D-09  6  5   108.26
  13      1.14495349    -0.92648894 -1520.44000691     0.00000181    -0.00000000  0.26D-09  0.96D-10  6  6   116.68
  14      1.14495468    -0.92648951 -1520.44000748    -0.00000058    -0.00000000  0.71D-10  0.23D-10  6  1   125.16

 Norm of t1 vector:      0.13633654      S-energy:    -0.00299336      T1 diagnostic:  0.02155334
                                                                       D1 diagnostic:  0.07097091
 Norm of t2 vector:      0.35548141      P-energy:    -0.92349615
                                         Alpha-Beta:  -0.65999298
                                         Alpha-Alpha: -0.14760489
                                         Beta-Beta:   -0.11589828

 Spin contamination <S**2-Sz**2-Sz>     0.00000000

 Memory could be reduced to 123.84 Mwords without degradation in triples
 

  Correlated core orbitals:             4.1       5.1       2.2       2.3
  Orbital energies:                    -4.9280   -3.2211   -3.2602   -3.2602
 
  RCCSD core-core energy               -0.129803193930
   --><property name="core-core energy" method="RCCSD" stateSymmetry="4" stateNumber="1"
     value="-0.129803193930204"/><!--
  RCCSD core-valence energy            -0.349716635336
   --><property name="core-valence energy" method="RCCSD" stateSymmetry="4" stateNumber="1"
     value="-0.349716635335604"/><!--
  RCCSD valence correlation energy     -0.446969681853
   --><property name="valence correlation energy" method="RCCSD" stateSymmetry="4"
     stateNumber="1" value="-0.446969681853079"/><!--
 

 RESULTS
 =======

  Reference energy                  -1519.513517972799
   --><property name="energy" method="Reference" stateSymmetry="1" stateNumber="1"
     value="-1519.5135179728"/><!--
  RCCSD singles energy                 -0.002993358189
   --><property name="energy" method="RCCSD singles" stateSymmetry="1" stateNumber="1"
     value="-0.299335818851676E-02"/><!--
  RCCSD pair energy                    -0.923496152930
   --><property name="energy" method="RCCSD pair" stateSymmetry="1" stateNumber="1"
     value="-0.923496152930371"/><!--
  RCCSD correlation energy             -0.926489511119
   --><property name="energy" method="RCCSD correlation" stateSymmetry="1" stateNumber="1"
     value="-0.926489511118888"/><!--
  Triples (T) contribution             -0.036809939385
   --><property name="contribution" method="Triples (T)" stateSymmetry="1" stateNumber="1"
     value="-0.368099393847091E-01"/><!--
  Total correlation energy             -0.963299450504
   --><property name="energy" method="Total correlation" stateSymmetry="1" stateNumber="1"
     value="-0.963299450503597"/><!--
 
  RHF-RCCSD energy                  -1520.440007483918
   --><property name="energy" method="RHF-RCCSD" stateSymmetry="1" stateNumber="1"
     value="-1520.44000748392"/><!--
  RHF-RCCSD[T] energy               -1520.480776305508
   --><property name="energy" method="RHF-RCCSD[T]" stateSymmetry="1" stateNumber="1"
     value="-1520.48077630551"/><!--
  RHF-RCCSD-T energy                -1520.476463063223
   --><property name="energy" method="RHF-RCCSD-T" stateSymmetry="1" stateNumber="1"
     value="-1520.47646306322"/><!--
 !RHF-RCCSD(T) energy               -1520.476817423303
   --><property name="energy" method="RHF-RCCSD(T)" principal="true" stateSymmetry="1"
     stateNumber="1" value="-1520.4768174233"/><!--

 Program statistics:

 Available memory in ccsd:               511999000
 Min. memory needed in ccsd:               8714673
 Max. memory used in ccsd:                12328753
 Max. memory used in cckext:              10345992 (14 integral passes)
 Max. memory used in cckint:              10774746 ( 1 integral passes)



 **********************************************************************************************************************************
 DATASETS  * FILE   NREC   LENGTH (MB)   RECORD NAMES
              1      23      681.69       500      610      700      900      950      970     1000      129      960     1700   
                                          VAR    BASINP    GEOM    SYMINP    ZMAT    AOBASIS   BASIS     P2S    ABASIS    OPER   
                                         1101     1401     1411     1412     1650     1100     1400     1410     1200     1210   
                                          SR      EKINR    POTR     PVPR    MOLCAS      S      EKIN      POT      H0       H01  
                                         1300     1080     1600   
                                         ERIS     AOSYM     SMH  

              2       4        3.60       700     1000      520     2100   
                                         GEOM     BASIS   MCVARS     RHF  

 PROGRAMS   *        TOTAL  RCCSD(T)       RHF       INT
 CPU TIMES  *       500.81    425.04     13.39     62.28
 REAL TIME  *       519.89 SEC
 DISK USED  *         2.67 GB      
 **********************************************************************************************************************************
   -->
   <time start="12:38:23" end="12:45:42" cpu="425.05" system="13.4" real="439.57"/>
   <storage units="megabyte" memory="4097.84" sf="0.0" df="2671.0" eaf="0.0"/>
  </jobstep><!--
 SETTING CCSD(1)        =     -1520.47681742  AU                              

 DO I                   =         2.00000000   
 SETTING Z(2)           =         1.07500000                                  

Geometry recognized as XYZ

  --><jobstep command="RHF-SCF" commandset="SCFPRO">
   <!--


 Recomputing integrals since geometry changed

1PROGRAM * SEWARD (Integral evaluation for generally contracted gaussian basis sets)     Author: Roland Lindh, 1990

 Geometry written to block  1 of record 700


 Point group  C2v 


   --><cml:symmetry pointGroup="C2v"/><!--
   --><cml:atomArray>
    <cml:atom id="a1" elementType="Ni" x3="0.0" y3="0.0" z3="0.0"/>
    <cml:atom id="a2" elementType="H" x3="0.0" y3="0.0" z3="1.075"/>
   </cml:atomArray><!--
   --><cml:bondArray>
    <cml:bond atomRefs2="a1 a2"/>
   </cml:bondArray><!--

 ATOMIC COORDINATES

 NR  ATOM    CHARGE       X              Y              Z

   1  NI     28.00    0.000000000    0.000000000    0.000000000
   2  H       1.00    0.000000000    0.000000000    2.031455591

 Bond lengths in Bohr (Angstrom)

 1-2  2.031455591
     ( 1.075000000)

 NUCLEAR CHARGE:                   29
 NUMBER OF PRIMITIVE AOS:         402
 NUMBER OF SYMMETRY AOS:          310
 NUMBER OF CONTRACTIONS:          310   ( 126A1  +  73B1  +  73B2  +  38A2  )
 NUMBER OF CORE ORBITALS:           9   (   5A1  +   2B1  +   2B2  +   0A2  )
 NUMBER OF VALENCE ORBITALS:        7   (   4A1  +   1B1  +   1B2  +   1A2  )


 NUCLEAR REPULSION ENERGY   13.78322033

 One-electron integrals computed with SEWARD

 10nd-order Douglas-Kroll-Hess method activated. McWeeny DKH parametrization is used.

 Computing Douglas-Kroll integrals

 AO integral compression algorithm  1   Integral accuracy      1.0D-13

     1090.781 MB (compressed) written to integral file ( 45.6%)


 NUMBER OF SORTED TWO-ELECTRON INTEGRALS:  297476048.     BUFFER LENGTH:  32768
 NUMBER OF SEGMENTS:  10  SEGMENT LENGTH:   31996000      RECORD LENGTH: 524288

 Memory used in sort:      32.55 MW

 SORT1 READ   299065286. AND WROTE   143188050. INTEGRALS IN    414 RECORDS. CPU TIME:     3.86 SEC, REAL TIME:     5.20 SEC
 SORT2 READ   143188050. AND WROTE   297476048. INTEGRALS IN   4161 RECORDS. CPU TIME:     3.22 SEC, REAL TIME:     4.19 SEC

 FILE SIZES:   FILE 1:  1101.6 MBYTE,  FILE 4:  1736.5 MBYTE,   TOTAL:   2838.0 MBYTE

 OPERATOR DM      FOR CENTER  0  COORDINATES:    0.000000    0.000000    0.000000

 EXTRA SYMMETRY OF AOS IN SYMMETRY 1:   1 1 1 1 1 1 1 1 1 1   1 1 1 1 1 1 1 1 1 1   1 1 1 1 1 1 1 1 1 1   1 1 1 1 1 1 1 1 1 1
                                        1 1 1 1 1 1 1 2 1 2   1 2 1 2 1 2 1 2 1 2   1 2 1 2 1 2 1 2 1 2   1 2 1 2 1 2 1 2 1 2
                                        1 2 1 2 1 3 2 1 3 2   1 3 2 1 3 2 2 3 1 2   3 1 2 3 1 1 1 1 1 1   1 1 1 1 1 1 1 2 1 2
                                        1 2 1 2 1 2
 EXTRA SYMMETRY OF AOS IN SYMMETRY 2:   1 1 1 1 1 1 1 1 1 1   1 1 1 1 1 1 1 1 1 1   1 1 1 1 1 1 1 1 1 1   1 1 1 1 1 1 2 1 2 1
                                        2 1 2 1 2 1 2 1 2 1   2 1 2 1 2 3 1 2 3 1   2 3 1 1 1 1 1 1 1 1   2 1 2
 EXTRA SYMMETRY OF AOS IN SYMMETRY 3:   1 1 1 1 1 1 1 1 1 1   1 1 1 1 1 1 1 1 1 1   1 1 1 1 1 1 1 1 1 1   1 1 1 1 1 1 2 1 2 1
                                        2 1 2 1 2 1 2 1 2 1   2 1 2 1 2 3 1 2 3 1   2 3 1 1 1 1 1 1 1 1   2 1 2
 EXTRA SYMMETRY OF AOS IN SYMMETRY 4:   1 1 1 1 1 1 1 1 1 1   1 1 1 1 1 1 1 1 1 1   2 1 2 1 2 1 2 2 1 2   1 2 1 1 1 1 1 1

 Eigenvalues of metric

         1 0.486E-06 0.857E-06 0.455E-05 0.884E-05 0.119E-04 0.182E-04 0.206E-04 0.690E-04
         2 0.903E-06 0.101E-04 0.202E-04 0.463E-03 0.718E-03 0.878E-03 0.190E-02 0.394E-02
         3 0.903E-06 0.101E-04 0.202E-04 0.463E-03 0.718E-03 0.878E-03 0.190E-02 0.394E-02
         4 0.206E-04 0.743E-03 0.953E-02 0.214E-01 0.331E-01 0.605E-01 0.804E-01 0.124E+00


 **********************************************************************************************************************************
 DATASETS  * FILE   NREC   LENGTH (MB)   RECORD NAMES
              1      23      814.73       500      610      700      900      950      970     1000      129      960     1700   
                                          VAR    BASINP    GEOM    SYMINP    ZMAT    AOBASIS   BASIS     P2S    ABASIS    OPER   
                                         1101     1401     1411     1412     1650     1100     1400     1410     1200     1210   
                                          SR      EKINR    POTR     PVPR    MOLCAS      S      EKIN      POT      H0       H01  
                                         1300     1080     1600   
                                         ERIS     AOSYM     SMH  

              2       4        3.60       700     1000      520     2100   
                                         GEOM     BASIS   MCVARS     RHF  

 PROGRAMS   *        TOTAL       INT  RCCSD(T)       RHF       INT
 CPU TIMES  *       565.83     65.02    425.04     13.39     62.28
 REAL TIME  *       588.67 SEC
 DISK USED  *         2.84 GB      
 **********************************************************************************************************************************

1PROGRAM * RHF-SCF (OPEN SHELL)       Authors: W. Meyer, H.-J. Werner


 NUMBER OF ELECTRONS:      15+   14-    SPACE SYMMETRY=4    SPIN SYMMETRY: Doublet 
 CONVERGENCE THRESHOLDS:    1.00E-05 (Density)    1.00E-07 (Energy)
 MAX. NUMBER OF ITERATIONS:       60
 INTERPOLATION TYPE:            DIIS
 INTERPOLATION STEPS:              2 (START)      1 (STEP)
 LEVEL SHIFTS:                 -0.30 (CLOSED)  0.00 (OPEN) 



 Molecular orbitals read from record     2100.2  Type=RHF/CANONICAL (state 1.4)

 Molecular orbital dump at record        2100.2

 ITERATION    DDIFF          GRAD             ENERGY        2-EL.EN.            DIPOLE MOMENTS         DIIS   ORB.
    1      0.000D+00      0.000D+00     -1519.54273595   1213.501762    0.00000    0.00000   -1.03204    0    start
    2      0.000D+00      0.152D-02     -1519.54341019   1213.868137    0.00000    0.00000   -1.01142    1    diag,B
    3      0.351D-03      0.245D-03     -1519.54350011   1213.553799    0.00000    0.00000   -1.02514    2    diag,B
    4      0.119D-03      0.182D-03     -1519.54352929   1213.809185    0.00000    0.00000   -1.02824    3    diag,B
    5      0.526D-04      0.821D-04     -1519.54355235   1213.785844    0.00000    0.00000   -1.03544    4    diag,B
    6      0.590D-04      0.422D-04     -1519.54356796   1213.833503    0.00000    0.00000   -1.04444    5    diag,B
    7      0.670D-04      0.289D-04     -1519.54357670   1213.861623    0.00000    0.00000   -1.05312    6    diag,B
    8      0.546D-04      0.161D-04     -1519.54358058   1213.886367    0.00000    0.00000   -1.06070    7    orth
    9      0.307D-04      0.670D-05     -1519.54358114   1213.893142    0.00000    0.00000   -1.06364    8    diag,B
   10      0.132D-04      0.223D-05     -1519.54358119   1213.894712    0.00000    0.00000   -1.06429    9    diag,B
   11      0.602D-05      0.716D-06     -1519.54358119   1213.894328    0.00000    0.00000   -1.06432    0    orth

 Final alpha occupancy:   8   3   3   1
 Final beta  occupancy:   8   3   3   0

 !RHF STATE 1.4 Energy              -1519.543581188247
   --><property name="Energy" method="RHF" principal="true" stateSymmetry="4" stateNumber="1"
     value="-1519.54358118825"/><!--
 Nuclear energy                        13.78322033
 One-electron energy                -2140.27396561
 Two-electron energy                  606.94716410
 Virial quotient                       -0.95334358
 !RHF STATE 1.4 Dipole moment           0.00000000     0.00000000    -1.06431968
 Dipole moment /Debye                   0.00000000     0.00000000    -2.70505360
   --><property name="Dipole moment" method="RHF" principal="true" stateSymmetry="4"
     stateNumber="1" value="0.0 0.0 -1.06431967641159"/><!--

 ELECTRON ORBITALS
 =================


   Orb  Occ    Energy  Couls-En    Coefficients

                                   1 1s      1 1s      1 1s      1 1s      1 1s      1 1s      1 1s      1 1s      1 1s      1 1s   
                                   1 1s      1 1s      1 1s      1 1s      1 1s      1 1s      1 1s      1 1s      1 1s      1 1s   
                                   1 1s      1 1s      1 1s      1 1s      1 1s      1 2pz     1 2pz     1 2pz     1 2pz     1 2pz  
                                   1 2pz     1 2pz     1 2pz     1 2pz     1 2pz     1 2pz     1 2pz     1 2pz     1 2pz     1 2pz  
                                   1 2pz     1 2pz     1 2pz     1 2pz     1 2pz     1 2pz     1 3d0     1 3d2+    1 3d0     1 3d2+ 
                                   1 3d0     1 3d2+    1 3d0     1 3d2+    1 3d0     1 3d2+    1 3d0     1 3d2+    1 3d0     1 3d2+ 
                                   1 3d0     1 3d2+    1 3d0     1 3d2+    1 3d0     1 3d2+    1 3d0     1 3d2+    1 3d0     1 3d2+ 
                                   1 3d0     1 3d2+    1 3d0     1 3d2+    1 4f0     1 4f2+    1 4f0     1 4f2+    1 4f0     1 4f2+ 
                                   1 4f0     1 4f2+    1 4f0     1 4f2+    1 5g0     1 5g4+    1 5g2+    1 5g0     1 5g4+    1 5g2+ 
                                   1 5g0     1 5g4+    1 5g2+    1 5g0     1 5g4+    1 5g2+    1 6h2+    1 6h4+    1 6h0     1 6h2+ 
                                   1 6h4+    1 6h0     1 6h2+    1 6h4+    1 6h0     2 1s      2 1s      2 1s      2 1s      2 1s   
                                   2 1s      2 1s      2 2pz     2 2pz     2 2pz     2 2pz     2 3d0     2 3d2+    2 3d0     2 3d2+ 
                                   2 3d0     2 3d2+    2 4f0     2 4f2+    2 4f0     2 4f2+ 

   1.1   2  -308.6612 -705.1747  0.000071  0.000201  0.000527  0.001267  0.002988  0.007044  0.016813  0.039949  0.090435  0.182026
                                 0.294644  0.321754  0.176748  0.027558 -0.002572  0.010406  0.001131  0.001457 -0.000082 -0.000046
                                -0.000004 -0.000002 -0.009565 -0.001883 -0.000000 -0.000000 -0.000000 -0.000000 -0.000000 -0.000001
                                -0.000002 -0.000006 -0.000001  0.000002  0.000007  0.000058 -0.000029 -0.000108  0.000026 -0.000021
                                -0.000032 -0.000004  0.000000 -0.000052  0.000113 -0.000000 -0.000000 -0.000000 -0.000001  0.000000
                                -0.000002 -0.000000 -0.000000  0.000000  0.000003 -0.000000  0.000020 -0.000000  0.000007 -0.000000
                                -0.000002 -0.000000 -0.000013  0.000000 -0.000008 -0.000000  0.000000  0.000000 -0.000009  0.000000
                                -0.000019  0.000000 -0.000000 -0.000000  0.000003 -0.000000 -0.000001  0.000000  0.000002 -0.000000
                                -0.000006  0.000000 -0.000002 -0.000000 -0.000001  0.000001 -0.000000  0.000000 -0.000000 -0.000000
                                -0.000000  0.000000 -0.000000 -0.000002 -0.000000  0.000000  0.000000 -0.000000 -0.000000 -0.000000
                                -0.000000  0.000000  0.000000 -0.000000 -0.000001 -0.000000  0.000000 -0.000001  0.000015  0.000052
                                 0.000010  0.000002 -0.000000 -0.000009 -0.000017 -0.000003 -0.000000 -0.000000  0.000002 -0.000000
                                 0.000001 -0.000000  0.000001  0.000000  0.000000  0.000000

   2.1   2   -38.4839 -136.3810 -0.000022 -0.000063 -0.000165 -0.000396 -0.000937 -0.002223 -0.005353 -0.012988 -0.030485 -0.066542
                                -0.125140 -0.182592 -0.122005  0.215218  0.557021  0.379610  0.054467  0.015974  0.000170 -0.000187
                                -0.000094  0.000008 -0.022517 -0.019161 -0.000000  0.000000  0.000000  0.000001  0.000003  0.000009
                                 0.000028  0.000073  0.000147  0.000209  0.000306  0.000462 -0.000089 -0.000513  0.000088 -0.000038
                                -0.000175 -0.000048  0.000001 -0.000210  0.000515  0.000001 -0.000000  0.000000 -0.000003 -0.000000
                                -0.000018  0.000000 -0.000122 -0.000000 -0.000281  0.000000 -0.000216  0.000000 -0.000026  0.000000
                                 0.000038 -0.000000 -0.000060  0.000000 -0.000050 -0.000000 -0.000003  0.000000  0.000172 -0.000000
                                 0.000164 -0.000000  0.000000 -0.000000  0.000041  0.000000 -0.000055 -0.000000  0.000016 -0.000000
                                -0.000017  0.000000 -0.000015  0.000000 -0.000025  0.000038 -0.000000 -0.000041  0.000073  0.000000
                                 0.000001  0.000012 -0.000000 -0.000008  0.000004  0.000000  0.000000  0.000000  0.000000  0.000000
                                -0.000000  0.000002  0.000000 -0.000000  0.000001  0.000000  0.000001  0.000005  0.000026  0.000251
                                 0.000106 -0.000003 -0.000001 -0.000006 -0.000072 -0.000021 -0.000004  0.000000 -0.000005 -0.000000
                                -0.000002 -0.000000  0.000003 -0.000000  0.000006  0.000000

   3.1   2   -32.9375 -129.4419  0.000000  0.000000  0.000000  0.000000  0.000001  0.000002  0.000004  0.000011  0.000025  0.000054
                                 0.000102  0.000150  0.000103 -0.000201 -0.000397 -0.000448 -0.000235  0.000172 -0.000265  0.000149
                                 0.000108  0.000008  0.000241 -0.000061  0.000002  0.000057  0.000208  0.000843  0.003123  0.010729
                                 0.032425  0.084326  0.178567  0.291050  0.327413  0.202459  0.055550  0.008524  0.000468  0.000216
                                 0.000186  0.000067  0.000007  0.002836 -0.004295 -0.000000  0.000000 -0.000000  0.000002 -0.000000
                                 0.000012 -0.000000  0.000096 -0.000000  0.000172 -0.000000  0.000049 -0.000000  0.000023 -0.000000
                                -0.000079 -0.000000  0.000091 -0.000000  0.000058 -0.000000  0.000012 -0.000000 -0.000064  0.000000
                                -0.000051  0.000000  0.000001  0.000000 -0.000299 -0.000000 -0.000040  0.000000 -0.000109 -0.000000
                                 0.000036  0.000000  0.000021  0.000000  0.000027 -0.000000  0.000000 -0.000014 -0.000000  0.000000
                                 0.000001 -0.000000 -0.000000  0.000018 -0.000000 -0.000000  0.000000 -0.000010  0.000010 -0.000000
                                 0.000015 -0.000016  0.000000 -0.000002  0.000007  0.000000  0.000006 -0.000010  0.000012 -0.000112
                                -0.000115 -0.000007  0.000002 -0.000075 -0.000048 -0.000005  0.000022 -0.000000  0.000074 -0.000000
                                 0.000036  0.000000 -0.000025  0.000000 -0.000018  0.000000

   4.1   2    -4.8718  -43.0301  0.000008  0.000023  0.000062  0.000148  0.000351  0.000834  0.002008  0.004890  0.011510  0.025433
                                 0.048619  0.074095  0.051732 -0.107337 -0.386249 -0.378711  0.303030  0.676970  0.300367 -0.000991
                                -0.008562  0.002879  0.038455  0.013371  0.000276 -0.000000 -0.000000 -0.000002 -0.000007 -0.000023
                                -0.000073 -0.000190 -0.000429 -0.000666 -0.001059 -0.002410  0.002773  0.006844  0.001438 -0.003176
                                -0.007616 -0.002333  0.000358  0.001794 -0.004319  0.000241  0.000000  0.000000  0.000004  0.000000
                                 0.000017  0.000000  0.000124  0.000000  0.000219 -0.000000 -0.000049 -0.000000  0.000274 -0.000000
                                 0.000477  0.000000 -0.001778  0.000000 -0.002246  0.000000 -0.000105 -0.000000  0.000034  0.000000
                                -0.000698  0.000000  0.000104  0.000000 -0.000081 -0.000000 -0.000068 -0.000000  0.000158 -0.000000
                                -0.000194 -0.000000 -0.000491 -0.000000 -0.000093  0.000141 -0.000000 -0.000025  0.000146 -0.000000
                                -0.000154  0.000547 -0.000000 -0.000114  0.000241 -0.000000  0.000000 -0.000001 -0.000004  0.000000
                                 0.000000  0.000047 -0.000000 -0.000003  0.000040  0.000070  0.000447  0.001696  0.005275  0.013121
                                 0.005963 -0.001732 -0.001176 -0.002746 -0.004877 -0.001391  0.000810  0.000000  0.001003  0.000000
                                 0.000258 -0.000000 -0.000420 -0.000000  0.000184 -0.000000

   5.1   2    -3.1949  -38.9505 -0.000000 -0.000000 -0.000000 -0.000001 -0.000003 -0.000006 -0.000015 -0.000035 -0.000086 -0.000183
                                -0.000367 -0.000518 -0.000443  0.001005  0.001986  0.016312  0.007647  0.043046 -0.015079  0.008756
                                 0.000558 -0.000789 -0.016385 -0.047424  0.000212 -0.000021 -0.000076 -0.000309 -0.001151 -0.003975
                                -0.012179 -0.032402 -0.071168 -0.120945 -0.143506 -0.048007  0.210903  0.419426  0.366169  0.157089
                                 0.023960 -0.000992  0.000351  0.005728 -0.017177 -0.000118 -0.000002  0.000000 -0.000018  0.000000
                                -0.000082  0.000000 -0.000378  0.000000 -0.000493  0.000000  0.002575  0.000000  0.001068  0.000000
                                -0.002026  0.000000  0.001193  0.000000  0.004017  0.000000 -0.000398  0.000000 -0.001335 -0.000000
                                -0.004165 -0.000000  0.000107 -0.000000 -0.000344 -0.000000 -0.001503 -0.000000 -0.000887 -0.000000
                                -0.000016 -0.000000  0.000958 -0.000000  0.000019 -0.000001 -0.000000  0.000195 -0.000001 -0.000000
                                 0.000536 -0.000004 -0.000000  0.000260 -0.000004  0.000000  0.000000 -0.000051  0.000039  0.000000
                                -0.000113  0.000192  0.000000  0.000030  0.000161  0.000231  0.001555  0.007064  0.016717 -0.011039
                                 0.001184  0.000050 -0.003336 -0.004411  0.002096 -0.000324  0.001546  0.000000  0.001091  0.000000
                                 0.000552  0.000000 -0.000580 -0.000000 -0.000258  0.000000

   6.1   2    -0.5752  -23.5667 -0.000001 -0.000002 -0.000005 -0.000013 -0.000030 -0.000072 -0.000173 -0.000421 -0.000993 -0.002189
                                -0.004211 -0.006406 -0.004579  0.009739  0.034886  0.053591 -0.020791 -0.011559 -0.074860 -0.051022
                                -0.048718 -0.008765 -0.024257 -0.077413 -0.003839  0.000002  0.000009  0.000036  0.000134  0.000467
                                 0.001416  0.003827  0.008281  0.014601  0.015451 -0.013326 -0.018802 -0.023967 -0.053470 -0.021601
                                -0.020305 -0.008500 -0.000713  0.015208 -0.035823 -0.001401  0.000263  0.000000  0.002337  0.000000
                                 0.012011  0.000000  0.040924  0.000000  0.102615  0.000000  0.185137  0.000000  0.231981  0.000000
                                 0.222150  0.000000  0.161052  0.000000  0.053889  0.000000  0.007658  0.000000 -0.001669 -0.000000
                                -0.007537 -0.000000 -0.000805  0.000000  0.000429  0.000000  0.001141  0.000000  0.004931 -0.000000
[...]
                                   1 4f3-    1 4f1-    1 4f3-    1 4f1-    1 4f3-    1 5g1-    1 5g3-    1 5g1-    1 5g3-    1 5g1- 
                                   1 5g3-    1 5g1-    1 5g3-    1 6h1-    1 6h3-    1 6h5-    1 6h1-    1 6h3-    1 6h5-    1 6h1- 
                                   1 6h3-    1 6h5-    2 2py     2 2py     2 2py     2 2py     2 3d1-    2 3d1-    2 3d1-    2 4f1- 
                                   2 4f3-    2 4f1-    2 4f3- 

   1.3   2   -32.8864 -129.2024  0.000057  0.000208  0.000843  0.003123  0.010728  0.032424  0.084319  0.178554  0.290991  0.327471
                                 0.202996  0.055210  0.007270  0.000639  0.000260  0.000062 -0.000002  0.000002  0.002558 -0.003188
                                -0.000001 -0.000000 -0.000005 -0.000024 -0.000082 -0.000147 -0.000066  0.000001 -0.000014  0.000002
                                 0.000002 -0.000002  0.000052  0.000019  0.000000 -0.000212 -0.000174  0.000135 -0.000194 -0.000008
                                -0.000119  0.000028 -0.000026 -0.000003 -0.000003  0.000004  0.000000 -0.000003  0.000001 -0.000001
                                 0.000001  0.000003  0.000000  0.000004 -0.000002 -0.000016 -0.000006  0.000004  0.000024  0.000002
                                -0.000001 -0.000004  0.000000  0.000001 -0.000007  0.000000 -0.000002  0.000006  0.000006 -0.000001
                                -0.000000 -0.000006  0.000000

   2.3   2    -3.1206  -38.7413 -0.000021 -0.000076 -0.000310 -0.001154 -0.003985 -0.012211 -0.032485 -0.071359 -0.121230 -0.143916
                                -0.048789  0.211707  0.425107  0.364980  0.163459  0.017625 -0.001705  0.000937  0.006135 -0.020090
                                -0.000282 -0.000001 -0.000010 -0.000050 -0.000172 -0.000371 -0.000614 -0.001246 -0.002361 -0.001435
                                 0.000290  0.000002 -0.000210 -0.000407  0.000005  0.000049 -0.000609 -0.000741 -0.001273 -0.000615
                                -0.002768 -0.000002 -0.002158  0.000209 -0.000221  0.000004  0.000001  0.000013  0.000006 -0.000044
                                 0.000014  0.000039  0.000036  0.000021 -0.000011 -0.000078  0.000031 -0.000025 -0.000179  0.000013
                                 0.000008  0.000045 -0.000004  0.000188 -0.000015 -0.000041 -0.000009 -0.000156  0.000193  0.000044
                                -0.000000  0.000032  0.000001

   3.3   2    -0.4591  -29.0587 -0.000000 -0.000001 -0.000004 -0.000015 -0.000054 -0.000163 -0.000441 -0.000954 -0.001684 -0.001787
                                 0.001519  0.002155  0.001195  0.008018 -0.002324 -0.016970 -0.008083  0.000760 -0.001733  0.005346
                                -0.000247  0.000351  0.003121  0.016029  0.054723  0.136458  0.238200  0.300103  0.291412  0.223496
                                 0.116826  0.022508  0.000551  0.000577 -0.000743 -0.000217 -0.000004 -0.000551 -0.000004 -0.001774
                                 0.000005 -0.005507  0.000033 -0.006112  0.000053 -0.000326 -0.000044 -0.000837 -0.000083 -0.001280
                                -0.000171 -0.000734 -0.000259  0.000019  0.000000 -0.000001 -0.000015 -0.000001 -0.000004  0.000054
                                 0.000005  0.000006  0.000449  0.002702  0.004039 -0.001460 -0.000196 -0.001372  0.000759  0.000270
                                 0.000003 -0.000117 -0.000032

   4.3   0     0.0238   -3.4452  0.000001  0.000002  0.000010  0.000029  0.000132  0.000303  0.001114  0.001571  0.005327 -0.004536
                                -0.095623  0.047682  0.207810 -0.061962  0.033067 -0.040083  0.194080 -0.345215  0.085315 -0.229112
                                 1.161367  0.000006  0.000043  0.000260  0.000720  0.003285  0.012373  0.008560  0.001506  0.007422
                                -0.012275  0.008066 -0.003778 -0.008880 -0.179729  0.000006 -0.000004 -0.000005 -0.000037  0.000035
                                -0.000024 -0.000819  0.000088 -0.001472  0.000226 -0.000003  0.000002 -0.000029  0.000006  0.000033
                                 0.000010 -0.000206 -0.000004 -0.000004  0.000001  0.000007  0.000010  0.000004  0.000025 -0.000024
                                -0.000010 -0.000063 -0.000339  0.003655 -0.003702  0.040365  0.000163 -0.001255 -0.001825 -0.000157
                                 0.000001  0.002469 -0.000011

   5.3   0     0.0800   -4.1208  0.000001  0.000004  0.000013  0.000064  0.000154  0.000695  0.001176  0.004538  0.001914  0.026242
                                 0.214857 -0.132064 -0.507820  0.082394 -0.086854  0.149755 -0.366124  1.260656 -0.188179  0.502472
                                -0.961535  0.000019  0.000120  0.000879  0.001789  0.015312  0.075439  0.043983 -0.008136  0.043195
                                -0.117860  0.104481 -0.027646 -0.065321 -0.816663 -0.000001 -0.000007  0.000015 -0.000059 -0.000027
                                -0.000039 -0.001161  0.000160 -0.028850  0.000378  0.000071  0.000007 -0.000390  0.000018  0.001093
                                 0.000032 -0.004060 -0.000015 -0.000018  0.000002  0.000012  0.000063  0.000006  0.000040 -0.000196
                                -0.000017 -0.000105  0.000664 -0.002026  0.026157  0.143684  0.000065 -0.000576 -0.061775 -0.001070
                                 0.000002  0.012714 -0.000023

   6.3   0     0.0874   -4.7111  0.000001  0.000005  0.000018  0.000081  0.000227  0.000874  0.001784  0.005506  0.004680  0.024969
                                 0.175220 -0.113710 -0.428815  0.057813 -0.082383  0.174576 -0.068663  1.274868 -0.152610  0.411587
                                -0.728950 -0.000007 -0.000003 -0.000308  0.000304 -0.011364 -0.074135 -0.036408  0.020859 -0.037452
                                 0.122324 -0.202443  0.030905  0.072832  0.850993 -0.000037 -0.000009  0.000238 -0.000080 -0.000524
                                -0.000051  0.000843  0.000218  0.021460  0.000510 -0.000075 -0.000001  0.000306 -0.000004 -0.000985
                                -0.000006  0.003926 -0.000000  0.000022  0.000003  0.000016 -0.000112  0.000008  0.000054  0.000341
                                -0.000023 -0.000142  0.002538 -0.004196  0.023227 -0.221815 -0.000633  0.002597  0.050922  0.001411
                                 0.000001 -0.017702 -0.000018

                                   1 3d2-    1 3d2-    1 3d2-    1 3d2-    1 3d2-    1 3d2-    1 3d2-    1 3d2-    1 3d2-    1 3d2- 
                                   1 3d2-    1 3d2-    1 3d2-    1 3d2-    1 4f2-    1 4f2-    1 4f2-    1 4f2-    1 4f2-    1 5g2- 
                                   1 5g4-    1 5g2-    1 5g4-    1 5g2-    1 5g4-    1 5g2-    1 5g4-    1 6h4-    1 6h2-    1 6h4- 
                                   1 6h2-    1 6h4-    1 6h2-    2 3d2-    2 3d2-    2 3d2-    2 4f2-    2 4f2- 

   1.4   +    -0.5573  -29.8061  0.000360  0.003200  0.016436  0.056079  0.139986  0.245285  0.309050  0.295759  0.213696  0.093038
                                 0.010688  0.000539  0.000572 -0.000383 -0.000171 -0.000458 -0.001378 -0.004553 -0.004656 -0.000431
                                -0.000000 -0.001242  0.000000 -0.001796  0.000000 -0.001275 -0.000000 -0.000000  0.000011 -0.000000
                                 0.000006  0.000000  0.000004  0.000014  0.000380 -0.000164 -0.000099  0.000040

   2.4   0     0.0812   -3.4608 -0.000018 -0.000059 -0.000783 -0.000459 -0.020956 -0.125637 -0.065178  0.030103 -0.065491  0.124233
                                -0.333266  0.050531  0.119470  1.179761 -0.000030  0.000141 -0.000345  0.001295 -0.003780  0.000005
                                 0.000000  0.000070  0.000000 -0.000058 -0.000000  0.000315  0.000000 -0.000000  0.000003 -0.000000
                                -0.000012  0.000000  0.000036 -0.000050  0.000423 -0.001483 -0.000071  0.001306

   3.4   0     0.2680   -5.6043 -0.000033 -0.000596 -0.001593 -0.012226  0.030177  0.326847  0.127317 -0.164490  0.165913 -0.412014
                                 1.632106 -0.155273 -0.368176 -0.812431 -0.000081  0.000370 -0.000998  0.003547 -0.016899  0.000060
                                 0.000000  0.000166 -0.000000  0.000193 -0.000000 -0.000183  0.000000 -0.000000 -0.000010  0.000000
                                 0.000035 -0.000000 -0.000084 -0.002044  0.012173 -0.049919  0.000179 -0.005493

   4.4   0     0.6982   -5.9613 -0.000011 -0.000107 -0.000514 -0.001920 -0.003345  0.000996 -0.005309 -0.012611  0.003435 -0.030102
                                -0.332105 -0.003789 -0.009195  0.067730  0.001604 -0.004020  0.018389 -0.036464  0.272822  0.000413
                                -0.000000 -0.001392  0.000000  0.005051 -0.000000 -0.014012  0.000000  0.000000 -0.000007 -0.000000
                                 0.000011  0.000000 -0.000208  0.027993 -0.143057  0.986204 -0.001850  0.022931

 HOMO      8.1    -0.323134 =      -8.7929eV
 LUMO      9.1    -0.002670 =      -0.0727eV
 LUMO-HOMO         0.320464 =       8.7203eV


 **********************************************************************************************************************************
 DATASETS  * FILE   NREC   LENGTH (MB)   RECORD NAMES
              1      23      718.05       500      610      700      900      950      970     1000      129      960     1700   
                                          VAR    BASINP    GEOM    SYMINP    ZMAT    AOBASIS   BASIS     P2S    ABASIS    OPER   
                                         1101     1401     1411     1412     1650     1100     1400     1410     1200     1210   
                                          SR      EKINR    POTR     PVPR    MOLCAS      S      EKIN      POT      H0       H01  
                                         1300     1080     1600   
                                         ERIS     AOSYM     SMH  

              2       4        3.60       700     1000      520     2100   
                                         GEOM     BASIS   MCVARS     RHF  

 PROGRAMS   *        TOTAL       RHF       INT  RCCSD(T)       RHF       INT  RCCSD(T)       RHF       INT  RCCSD(T)       RHF
 CPU TIMES  *      7786.22     10.13     63.48    457.45     10.34     65.46    479.58     11.30     64.80    476.37     11.31
 REAL TIME  *      8087.99 SEC
 DISK USED  *         2.84 GB      
 **********************************************************************************************************************************
   -->
   <time start="14:50:32" end="14:51:50" cpu="73.61" system="3.96" real="77.88"/>
   <storage units="megabyte" memory="4097.84" sf="0.0" df="2841.73" eaf="0.0"/>
  </jobstep><!--
 SETTING SCF(15)        =     -1519.61979005  AU                              
 SETTING _CC_NORM_MAX   =         2.00000000                                  
  --><jobstep command="RCCSD(T)" commandset="CCSD">
   <!--


1PROGRAM * CCSD (Restricted open-shell coupled cluster)     Authors: C. Hampel, H.-J. Werner, 1991, M. Deegan, P.J. Knowles, 1992


 Convergence thresholds:  THRVAR = 1.00D-08  THRDEN = 1.00D-06

 CCSD(T)     terms to be evaluated (factor= 1.000)


 Number of core orbitals:           5 (   3   1   1   0 )
 Number of closed-shell orbitals:   9 (   5   2   2   0 )
 Number of active  orbitals:        1 (   0   0   0   1 )
 Number of external orbitals:     295 ( 118  70  70  37 )

 Memory could be reduced to 123.12 Mwords without degradation in triples

 Number of N-1 electron functions:              19
 Number of N-2 electron functions:             171
 Number of singly external CSFs:              1778
 Number of doubly external CSFs:           2954374
 Total number of CSFs:                     2956152

 Molecular orbitals read from record     2100.2  Type=RHF/CANONICAL (state 1.4)

 Integral transformation finished. Total CPU:   4.96 sec, npass=  1  Memory used:  10.77 MW

 Starting RMP2 calculation

 Wavefunction is spin-projected

 ITER.      SQ.NORM     CORR.ENERGY   TOTAL ENERGY   ENERGY CHANGE        DEN1      VAR(S)    VAR(P)  DIIS     TIME
   1      1.14544443    -1.00747785 -1520.62726790    -1.00747785    -0.00133581  0.13D-05  0.61D-03  1  1     6.06
   2      1.14690974    -1.00888732 -1520.62867737    -0.00140947    -0.00000609  0.30D-07  0.48D-05  2  2     6.23
   3      1.14702640    -1.00894930 -1520.62873935    -0.00006198    -0.00000004  0.15D-08  0.33D-07  3  3     6.43
   4      1.14703137    -1.00895046 -1520.62874050    -0.00000115    -0.00000000  0.81D-10  0.28D-09  4  4     6.63
   5      1.14703152    -1.00895046 -1520.62874051    -0.00000001    -0.00000000  0.99D-12  0.46D-11  5  5     6.86

 Norm of t1 vector:      0.01867353      S-energy:    -0.00259361      T1 diagnostic:  0.00004034
 Norm of t2 vector:      0.38299193      P-energy:    -1.00635685
                                         Alpha-Beta:  -0.69139391
                                         Alpha-Alpha: -0.17817866
                                         Beta-Beta:   -0.13678429

 Spin contamination <S**2-Sz**2-Sz>     0.00000000
  Reference energy                  -1519.619790046934
   --><property name="energy" method="Reference" stateSymmetry="1" stateNumber="1"
     value="-1519.61979004693"/><!--
  RHF-RMP2 correlation energy          -1.008950462847
   --><property name="energy" method="RHF-RMP2 correlation" stateSymmetry="1" stateNumber="1"
     value="-1.0089504628468"/><!--
 !RHF-RMP2 energy                   -1520.628740509781
   --><property name="energy" method="RHF-RMP2" principal="true" stateSymmetry="4"
     stateNumber="1" value="-1520.62874050978"/><!--
 (NB above energy spin projected)

 Starting RCCSD calculation

 ITER.      SQ.NORM     CORR.ENERGY   TOTAL ENERGY   ENERGY CHANGE        DEN1      VAR(S)    VAR(P)  DIIS     TIME
   1      1.11202586    -0.85963339 -1520.47942344    -0.85963339    -0.06887351  0.14D-01  0.12D-01  0  0    15.98
   2      1.13547276    -0.92060117 -1520.54039121    -0.06096777    -0.01500924  0.31D-02  0.41D-02  1  1    24.94
   3      1.13773301    -0.90550519 -1520.52529524     0.01509597    -0.00117559  0.11D-02  0.22D-03  2  2    33.97
   4      1.14356751    -0.90650241 -1520.52629246    -0.00099721    -0.00053725  0.55D-03  0.11D-03  3  3    43.12
   5      1.16028727    -0.90910686 -1520.52889690    -0.00260445    -0.00018139  0.24D-03  0.23D-04  4  4    52.31
   6      1.16876063    -0.90967185 -1520.52946190    -0.00056500    -0.00010439  0.12D-03  0.15D-04  5  5    61.55
   7      1.18274265    -0.91013522 -1520.52992526    -0.00046336    -0.00005212  0.61D-04  0.64D-05  6  6    70.77
   8      1.19405652    -0.91032120 -1520.53011125    -0.00018598    -0.00002827  0.29D-04  0.45D-05  6  1    80.06
   9      1.20638189    -0.91057515 -1520.53036520    -0.00025395    -0.00001060  0.83D-05  0.28D-05  6  2    89.25
  10      1.21212791    -0.91062477 -1520.53041481    -0.00004962    -0.00000250  0.20D-05  0.68D-06  6  3    98.46
  11      1.21275197    -0.91060997 -1520.53040001     0.00001480    -0.00000074  0.64D-06  0.18D-06  6  6   107.69
  12      1.21345877    -0.91062851 -1520.53041856    -0.00001855    -0.00000027  0.23D-06  0.74D-07  6  3   116.87
  13      1.21324466    -0.91061211 -1520.53040216     0.00001641    -0.00000004  0.31D-07  0.11D-07  6  4   126.19
  14      1.21330111    -0.91061514 -1520.53040518    -0.00000303    -0.00000001  0.10D-07  0.33D-08  6  5   135.39
  15      1.21330239    -0.91061219 -1520.53040224     0.00000294    -0.00000001  0.44D-08  0.13D-08  6  6   144.63
  16      1.21330951    -0.91061118 -1520.53040123     0.00000101    -0.00000000  0.14D-08  0.49D-09  6  1   154.17
  17      1.21330107    -0.91061100 -1520.53040105     0.00000018    -0.00000000  0.47D-09  0.15D-09  6  2   163.50

 Norm of t1 vector:      0.28034270      S-energy:    -0.00285398      T1 diagnostic:  0.04516009
                                                                       D1 diagnostic:  0.18585238
 Norm of t2 vector:      0.36702731      P-energy:    -0.90775702
                                         Alpha-Beta:  -0.65083999
                                         Alpha-Alpha: -0.14429740
                                         Beta-Beta:   -0.11261964

 Singles amplitudes (print threshold =  0.500E-01):

         I         SYM. A    A   T(IA) [Alpha-Alpha]

         4         1         1     -0.05472280
         5         1         1      0.10208412
         5         1         3      0.09363911
         5         1         7      0.07126167
 
         I         SYM. A    A   T(IA) [Beta-Beta]

         4         1         1     -0.07279057
         4         1         3     -0.05959374
         5         1         1      0.10581659
         5         1         3      0.09542243
         5         1         7      0.07055114

 Spin contamination <S**2-Sz**2-Sz>     0.00000000

 Memory could be reduced to 123.84 Mwords without degradation in triples
 

  Correlated core orbitals:             4.1       5.1       2.2       2.3
  Orbital energies:                    -4.8490   -3.1237   -3.1970   -3.1970
 
  RCCSD core-core energy               -0.130962732493
   --><property name="core-core energy" method="RCCSD" stateSymmetry="4" stateNumber="1"
     value="-0.130962732492955"/><!--
  RCCSD core-valence energy            -0.349549699803
   --><property name="core-valence energy" method="RCCSD" stateSymmetry="4" stateNumber="1"
     value="-0.349549699802734"/><!--
  RCCSD valence correlation energy     -0.430098572162
   --><property name="valence correlation energy" method="RCCSD" stateSymmetry="4"
     stateNumber="1" value="-0.430098572161839"/><!--
 

 RESULTS
 =======

  Reference energy                  -1519.619790046934
   --><property name="energy" method="Reference" stateSymmetry="1" stateNumber="1"
     value="-1519.61979004693"/><!--
  RCCSD singles energy                 -0.002853980579
   --><property name="energy" method="RCCSD singles" stateSymmetry="1" stateNumber="1"
     value="-0.285398057853226E-02"/><!--
  RCCSD pair energy                    -0.907757023879
   --><property name="energy" method="RCCSD pair" stateSymmetry="1" stateNumber="1"
     value="-0.907757023878996"/><!--
  RCCSD correlation energy             -0.910611004458
   --><property name="energy" method="RCCSD correlation" stateSymmetry="1" stateNumber="1"
     value="-0.910611004457528"/><!--
  Triples (T) contribution             -0.036213810164
   --><property name="contribution" method="Triples (T)" stateSymmetry="1" stateNumber="1"
     value="-0.362138101644452E-01"/><!--
  Total correlation energy             -0.946824814622
   --><property name="energy" method="Total correlation" stateSymmetry="1" stateNumber="1"
     value="-0.946824814621973"/><!--
 
  RHF-RCCSD energy                  -1520.530401051391
   --><property name="energy" method="RHF-RCCSD" stateSymmetry="1" stateNumber="1"
     value="-1520.53040105139"/><!--
  RHF-RCCSD[T] energy               -1520.575688446469
   --><property name="energy" method="RHF-RCCSD[T]" stateSymmetry="1" stateNumber="1"
     value="-1520.57568844647"/><!--
  RHF-RCCSD-T energy                -1520.566541205529
   --><property name="energy" method="RHF-RCCSD-T" stateSymmetry="1" stateNumber="1"
     value="-1520.56654120553"/><!--
 !RHF-RCCSD(T) energy               -1520.566614861556
   --><property name="energy" method="RHF-RCCSD(T)" principal="true" stateSymmetry="1"
     stateNumber="1" value="-1520.56661486156"/><!--

 Program statistics:

 Available memory in ccsd:               511999000
 Min. memory needed in ccsd:               8714673
 Max. memory used in ccsd:                12328753
 Max. memory used in cckext:              10345992 (17 integral passes)
 Max. memory used in cckint:              10774746 ( 1 integral passes)



 **********************************************************************************************************************************
