
 Primary working directories    : /tmp/cmelton
 Secondary working directories  : /tmp/cmelton
 Wavefunction directory         : /remote/cmelton/wfu/
 Main file repository           : /tmp/cmelton/

 SHA1      : 4c1979699e6aeda0524d0210415ba82a958648b0
 NAME      : 2012.1.39
 ARCHNAME  : Linux/x86_64
 FC        : /projects/sems/install/rhel6-x86_64/sems/compiler/intel/16.0.1/base/bin/ifort
 FCVERSION : 16.0.1
 BLASLIB   : -L/projects/sems/install/rhel6-x86_64/sems/compiler/intel/16.0.1/base/compilers_and_libraries_2016.1.150/linux/mkl/lib/intel64 -lmkl_intel_ilp64 -lmkl_sequential -lmkl_core
 id        : sandiacon

 Nodes            nprocs
 doppio.sandia.gov    1

 Using customized tuning parameters: mindgm=7; mindgv=16; mindgc=1; mindgr=1; noblas=0; minvec=7
 default implementation of scratch files=df  

 ***,Calculation for Be atom, singlet and triplet
 memory,512,m
 gthresh,twoint=1.e-12
 geometry={
 1
 V
 V  0.0 0.0 0.0
 }
 
 basis={
 Including file /remote/cmelton/data/corrECP/V/ae/nr/aug-cc-pwCV5Z-dk.basis
 }
 
 Including file /remote/cmelton/data/corrECP/V/ae/nr/Is2d3.proc
 Including file /remote/cmelton/data/corrECP/V/ae/nr/Is1d4.proc
 Including file /remote/cmelton/data/corrECP/V/ae/nr/Id5.proc
 Including file /remote/cmelton/data/corrECP/V/ae/nr/IIs1d3.proc
 Including file /remote/cmelton/data/corrECP/V/ae/nr/IId4.proc
 Including file /remote/cmelton/data/corrECP/V/ae/nr/VI.proc
 Including file /remote/cmelton/data/corrECP/V/ae/nr/XII.proc
 Including file /remote/cmelton/data/corrECP/V/ae/nr/As2d4.proc
 
 do i=1,8
     if (i.eq.1) then
         Is2d3
     else if (i.eq.2) then
         Is1d4
     else if (i.eq.3) then
         Id5
     else if (i.eq.4) then
         IIs1d3
     else if (i.eq.5) then
         IId4
     else if (i.eq.6) then
         VI
     else if (i.eq.7) then
         XII
     else if (i.eq.8) then
         As2d4
     endif
     scf(i)=energy
     _CC_NORM_MAX=2.0
     {rccsd(t),maxit=100;core}
     ccsd(i)=energy
 enddo
 
 table,scf,ccsd
 save
 type,csv

 Variables initialized (782), CPU time= 0.01 sec
 Commands  initialized (547), CPU time= 0.01 sec, 517 directives.
 Default parameters read. Elapsed time= 0.09 sec

 Checking input...
 Passed
1


                                         ***  PROGRAM SYSTEM MOLPRO  ***
                         Copyright, University College Cardiff Consultants Limited, 2008

                                    Version 2012.1 linked Aug  2 2016 14:07:26


 **********************************************************************************************************************************
 LABEL *   Calculation for Be atom, singlet and triplet                                  
 Linux-3.10.0-693.5.2.el7.x86_64/doppio.sandia.gov(x86_64) 64 bit serial version         DATE: 03-Jan-18          TIME: 16:02:44  
 **********************************************************************************************************************************

 SHA1:             4c1979699e6aeda0524d0210415ba82a958648b0
 **********************************************************************************************************************************

 THRESHOLDS:

 ZERO    =  1.00D-12  ONEINT  =  1.00D-12  TWOINT  =  1.00D-12  PREFAC  =  1.00D-14  LOCALI  =  1.00D-09  EORDER  =  1.00D-04
 ENERGY  =  0.00D+00  ETEST   =  0.00D+00  EDENS   =  0.00D+00  THRDEDEF=  1.00D-06  GRADIENT=  1.00D-02  STEP    =  1.00D-03
 ORBITAL =  1.00D-05  CIVEC   =  1.00D-05  COEFF   =  1.00D-04  PRINTCI =  5.00D-02  PUNCHCI =  9.90D+01  OPTGRAD =  3.00D-04
 OPTENERG=  1.00D-06  OPTSTEP =  3.00D-04  THRGRAD =  1.00D-10  COMPRESS=  1.00D-11  VARMIN  =  1.00D-07  VARMAX  =  1.00D-03
 THRDOUB =  0.00D+00  THRDIV  =  1.00D-05  THRRED  =  1.00D-07  THRPSP  =  1.00D+00  THRDC   =  1.00D-10  THRCS   =  1.00D-10
 THRNRM  =  1.00D-08  THREQ   =  0.00D+00  THRDE   =  1.00D+00  THRREF  =  1.00D-05  SPARFAC =  1.00D+00  THRDLP  =  1.00D-07
 THRDIA  =  1.00D-10  THRDLS  =  1.00D-07  THRGPS  =  0.00D+00  THRKEX  =  0.00D+00  THRDIS  =  2.00D-01  THRVAR  =  1.00D-10
 THRLOC  =  1.00D-06  THRGAP  =  1.00D-06  THRLOCT = -1.00D+00  THRGAPT = -1.00D+00  THRORB  =  1.00D-06  THRMLTP =  0.00D+00
 THRCPQCI=  1.00D-10  KEXTA   =  0.00D+00  THRCOARS=  0.00D+00  SYMTOL  =  1.00D-06  GRADTOL =  1.00D-06  THROVL  =  1.00D-08
 THRORTH =  1.00D-08  GRID    =  1.00D-06  GRIDMAX =  1.00D-03  DTMAX   =  0.00D+00  THROCCDE=  1.00D-01  THROCCDE=  1.00D-01



Geometry recognized as XYZ


 Variable memory set to  512000000 words,  buffer space   230000 words

 SETTING BASIS          =    USERDEF

 DO I                   =         1.00000000   

 Running procedure=IS2D3


 Recomputing integrals since basis changed


 Using spherical harmonics


1PROGRAM * SEWARD (Integral evaluation for generally contracted gaussian basis sets)     Author: Roland Lindh, 1990

 Geometry written to block  1 of record 700

 Orientation using atomic masses  
 Molecule type: Atom
 Symmetry elements: X,Y,Z
 Rotational constants:       0.0000000      0.0000000      0.0000000 GHz  (calculated with average atomic masses)

 Point group  D2h 



 ATOMIC COORDINATES

 NR  ATOM    CHARGE       X              Y              Z

   1  V      23.00    0.000000000    0.000000000    0.000000000

 NUCLEAR CHARGE:                   23
 NUMBER OF PRIMITIVE AOS:         493
 NUMBER OF SYMMETRY AOS:          345
 NUMBER OF CONTRACTIONS:          345   (  88Ag  +  47B3u +  47B2u +  34B1g +  47B1u +  34B2g +  34B3g +  14Au  )
 NUMBER OF CORE ORBITALS:           9   (   3Ag  +   2B3u +   2B2u +   0B1g +   2B1u +   0B2g +   0B3g +   0Au  )
 NUMBER OF VALENCE ORBITALS:        6   (   3Ag  +   0B3u +   0B2u +   1B1g +   0B1u +   1B2g +   1B3g +   0Au  )


 NUCLEAR REPULSION ENERGY    0.00000000

 EXTRA SYMMETRY OF AOS IN SYMMETRY 1:   1 1 1 1 1 1 1 1 1 1   1 1 1 1 1 1 1 1 1 1   1 1 1 1 1 1 1 1 1 1   1 2 3 2 3 2 3 2 3 2
                                        3 2 3 2 3 2 3 2 3 2   3 2 3 2 3 2 3 2 3 2   3 4 5 6 4 5 6 4 5 6   4 5 6 4 5 6 7 8 910
                                        7 8 910 7 8 910
 EXTRA SYMMETRY OF AOS IN SYMMETRY 2:   1 1 1 1 1 1 1 1 1 1   1 1 1 1 1 1 1 1 1 1   1 1 1 2 3 2 3 2 3 2   3 2 3 2 3 4 5 6 4 5
                                        6 4 5 6 4 5 6
 EXTRA SYMMETRY OF AOS IN SYMMETRY 3:   1 1 1 1 1 1 1 1 1 1   1 1 1 1 1 1 1 1 1 1   1 1 1 2 3 2 3 2 3 2   3 2 3 2 3 4 5 6 4 5
                                        6 4 5 6 4 5 6
 EXTRA SYMMETRY OF AOS IN SYMMETRY 4:   1 1 1 1 1 1 1 1 1 1   1 1 1 1 1 2 3 2 3 2   3 2 3 2 3 4 5 6 4 5   6 4 5 6
 EXTRA SYMMETRY OF AOS IN SYMMETRY 5:   1 1 1 1 1 1 1 1 1 1   1 1 1 1 1 1 1 1 1 1   1 1 1 2 3 2 3 2 3 2   3 2 3 2 3 4 5 6 4 5
                                        6 4 5 6 4 5 6
 EXTRA SYMMETRY OF AOS IN SYMMETRY 6:   1 1 1 1 1 1 1 1 1 1   1 1 1 1 1 2 3 2 3 2   3 2 3 2 3 4 5 6 4 5   6 4 5 6
 EXTRA SYMMETRY OF AOS IN SYMMETRY 7:   1 1 1 1 1 1 1 1 1 1   1 1 1 1 1 2 3 2 3 2   3 2 3 2 3 4 5 6 4 5   6 4 5 6
 EXTRA SYMMETRY OF AOS IN SYMMETRY 8:   1 1 1 1 1 1 2 3 2 3   2 3 2 3

 Eigenvalues of metric

         1 0.175E-06 0.251E-05 0.778E-05 0.778E-05 0.361E-04 0.113E-03 0.272E-03 0.475E-03
         2 0.102E-05 0.121E-04 0.228E-03 0.792E-03 0.224E-02 0.515E-02 0.104E-01 0.181E-01
         3 0.102E-05 0.121E-04 0.228E-03 0.792E-03 0.224E-02 0.515E-02 0.104E-01 0.181E-01
         4 0.778E-05 0.475E-03 0.667E-02 0.189E-01 0.457E-01 0.889E-01 0.117E+00 0.117E+00
         5 0.102E-05 0.121E-04 0.228E-03 0.792E-03 0.224E-02 0.515E-02 0.104E-01 0.181E-01
         6 0.778E-05 0.475E-03 0.667E-02 0.189E-01 0.457E-01 0.889E-01 0.117E+00 0.117E+00
         7 0.778E-05 0.475E-03 0.667E-02 0.189E-01 0.457E-01 0.889E-01 0.117E+00 0.117E+00
         8 0.741E-01 0.259E+00 0.270E+00 0.270E+00 0.524E+00 0.615E+00 0.615E+00 0.106E+01


 Contracted 2-electron integrals neglected if value below      1.0D-13
 AO integral compression algorithm  1   Integral accuracy      1.0D-13

     1008.468 MB (compressed) written to integral file ( 39.3%)


 NUMBER OF SORTED TWO-ELECTRON INTEGRALS:  228231103.     BUFFER LENGTH:  32768
 NUMBER OF SEGMENTS:   8  SEGMENT LENGTH:   31998948      RECORD LENGTH: 524288

 Memory used in sort:      32.56 MW

 SORT1 READ   320603050. AND WROTE   114599354. INTEGRALS IN    332 RECORDS. CPU TIME:     7.45 SEC, REAL TIME:     8.51 SEC
 SORT2 READ   114599354. AND WROTE   228231103. INTEGRALS IN   3847 RECORDS. CPU TIME:     3.00 SEC, REAL TIME:     3.73 SEC

 FILE SIZES:   FILE 1:  1018.7 MBYTE,  FILE 4:  1392.5 MBYTE,   TOTAL:   2411.2 MBYTE

 OPERATOR DM      FOR CENTER  0  COORDINATES:    0.000000    0.000000    0.000000


 **********************************************************************************************************************************
 DATASETS  * FILE   NREC   LENGTH (MB)   RECORD NAMES
              1      19      633.49       500      610      700      900      950      970     1000      129      960     1100   
                                          VAR    BASINP    GEOM    SYMINP    ZMAT    AOBASIS   BASIS     P2S    ABASIS      S 
                                         1400     1410     1200     1210     1080     1600     1650     1300     1700   
                                           T        V       H0       H01     AOSYM     SMH    MOLCAS    ERIS     OPER   

 PROGRAMS   *        TOTAL       INT
 CPU TIMES  *       101.43    101.27
 REAL TIME  *       105.03 SEC
 DISK USED  *         2.41 GB      
 **********************************************************************************************************************************

1PROGRAM * RHF-SCF (OPEN SHELL)       Authors: W. Meyer, H.-J. Werner


 NUMBER OF ELECTRONS:      13+   10-    SPACE SYMMETRY=6    SPIN SYMMETRY: Quartet 
 CONVERGENCE THRESHOLDS:    1.00E-05 (Density)    1.00E-07 (Energy)
 MAX. NUMBER OF ITERATIONS:       60
 INTERPOLATION TYPE:            DIIS
 INTERPOLATION STEPS:              2 (START)      1 (STEP)
 LEVEL SHIFTS:                 -0.30 (CLOSED)  0.00 (OPEN) 


 Singly occupied orbitals:      5.1       6.1       1.6
 
 Extra symmetries of mos in symmetry 1:   1   1   1   1
 Orbital guess generated from atomic densities. Full valence occupancy:    6   2   2   1   2   1   1   0


 Molecular orbital dump at record        4202.2

 ITERATION    DDIFF          GRAD             ENERGY        2-EL.EN.            DIPOLE MOMENTS         DIIS   ORB.
    1      0.000D+00      0.000D+00      -942.79907385    693.825302    0.00000    0.00000    0.00000    0    start
    2      0.000D+00      0.597D-02      -942.86426474    705.984034    0.00000    0.00000    0.00000    1    diag,B
    3      0.204D-02      0.516D-02      -942.87196060    703.716202    0.00000    0.00000    0.00000    2    diag,B
    4      0.112D-02      0.189D-02      -942.87470311    703.216675    0.00000    0.00000    0.00000    3    diag,B
    5      0.110D-02      0.474D-03      -942.87505706    703.082684    0.00000    0.00000    0.00000    4    diag,B
    6      0.474D-03      0.101D-03      -942.87510042    703.032624    0.00000    0.00000    0.00000    5    diag,B
    7      0.272D-03      0.436D-04      -942.87511302    702.985070    0.00000    0.00000    0.00000    6    fixocc
    8      0.223D-03      0.156D-04      -942.87511496    702.975850    0.00000    0.00000    0.00000    7    diag,B
    9      0.101D-03      0.683D-05      -942.87511545    702.973002    0.00000    0.00000    0.00000    8    diag,B
   10      0.854D-04      0.278D-05      -942.87511554    702.972677    0.00000    0.00000    0.00000    9    orth
   11      0.266D-04      0.138D-05      -942.87511557    702.973097    0.00000    0.00000    0.00000    9    diag,B
   12      0.190D-04      0.449D-06      -942.87511557    702.973293    0.00000    0.00000    0.00000    9    diag,B
   13      0.828D-05      0.185D-06      -942.87511554    702.973018    0.00000    0.00000    0.00000    0    orth

 Final alpha occupancy:   6   2   2   0   2   1   0   0
 Final beta  occupancy:   4   2   2   0   2   0   0   0

 !RHF STATE 1.6 Energy               -942.875115536142
 Nuclear energy                         0.00000000
 One-electron energy                -1294.36162437
 Two-electron energy                  351.48650883
 Virial quotient                       -1.00000012
 !RHF STATE 1.6 Dipole moment           0.00000000     0.00000000     0.00000000
 Dipole moment /Debye                   0.00000000     0.00000000     0.00000000

 Orbital energies:

         1.1          2.1          3.1          4.1          5.1          6.1          7.1          8.1
   -201.505340   -23.877394    -3.184976    -0.230939    -0.541227    -0.485878     0.020843     0.043708

         1.2          2.2          3.2          4.2
    -20.020999    -2.017685     0.014892     0.050340

         1.3          2.3          3.3          4.3
    -20.033614    -2.028113     0.013948     0.048980

         1.4          2.4
      0.043127     0.101548

         1.5          2.5          3.5          4.5
    -20.020999    -2.017685     0.014892     0.050340

         1.6          2.6          3.6
     -0.485878     0.043830     0.134315

         1.7          2.7
      0.043127     0.101548

         1.8          2.8
      0.236055     0.736851

 HOMO      1.6    -0.485878 =     -13.2214eV
 LUMO      3.3     0.013948 =       0.3795eV
 LUMO-HOMO         0.499826 =      13.6009eV


 **********************************************************************************************************************************
 DATASETS  * FILE   NREC   LENGTH (MB)   RECORD NAMES
              1      19      633.49       500      610      700      900      950      970     1000      129      960     1100   
                                          VAR    BASINP    GEOM    SYMINP    ZMAT    AOBASIS   BASIS     P2S    ABASIS      S 
                                         1400     1410     1200     1210     1080     1600     1650     1300     1700   
                                           T        V       H0       H01     AOSYM     SMH    MOLCAS    ERIS     OPER   

              2       5        5.39       200      700     1000      520     4202   
                                        OPTIONS   GEOM     BASIS   MCVARS     RHF  

 PROGRAMS   *        TOTAL       RHF       INT
 CPU TIMES  *       108.06      6.63    101.27
 REAL TIME  *       112.40 SEC
 DISK USED  *         2.41 GB      
 **********************************************************************************************************************************

1PROGRAM * MULTI (Direct Multiconfiguration SCF)       Authors: P.J. Knowles, H.-J. Werner (1984)     S.T. Elbert (1988)


 Number of closed-shell orbitals:  10 (   4   2   2   0   2   0   0   0 )
 Number of active  orbitals:        5 (   2   0   0   1   0   1   1   0 )
 Number of external orbitals:     330 (  82  45  45  33  45  33  33  14 )

 State symmetry 1

 Number of electrons:     3    Spin symmetry=Quartet   Space symmetry=1
 Number of states:        1
 Number of CSFs:          1   (1 determinants, 10 intermediate states)

 State symmetry 2

 Number of electrons:     3    Spin symmetry=Quartet   Space symmetry=4
 Number of states:        3
 Number of CSFs:          3   (3 determinants, 10 intermediate states)

 State symmetry 3

 Number of electrons:     3    Spin symmetry=Quartet   Space symmetry=6
 Number of states:        3
 Number of CSFs:          3   (3 determinants, 10 intermediate states)

 State symmetry 4

 Number of electrons:     3    Spin symmetry=Quartet   Space symmetry=7
 Number of states:        3
 Number of CSFs:          3   (3 determinants, 10 intermediate states)

 Molecular orbitals read from record     4202.2  Type=RHF/CANONICAL (state 1.6)
 *** IN SYMMETRY 1 ORBITAL  1 SYMMETRY CONTAMINATION OF 0.416D-04 HAS BEEN REMOVED
 *** IN SYMMETRY 1 ORBITAL  2 SYMMETRY CONTAMINATION OF 0.163D-02 HAS BEEN REMOVED
 *** IN SYMMETRY 1 ORBITAL  3 SYMMETRY CONTAMINATION OF 0.131D-01 HAS BEEN REMOVED
 *** IN SYMMETRY 1 ORBITAL  4 SYMMETRY CONTAMINATION OF 0.268D-01 HAS BEEN REMOVED
 *** IN SYMMETRY 1 ORBITAL  5 SYMMETRY CONTAMINATION OF 0.385D+00 HAS BEEN REMOVED
 *** IN SYMMETRY 1 ORBITAL  6 SYMMETRY CONTAMINATION OF 0.369D+00 HAS BEEN REMOVED

 EXTRA SYMMETRY OF MOS IN SYMMETRY 1:   1 1 1 1 3 2 1 3 2 1   3 2 1 3 2 5 4 6 3 2   1 5 4 6 3 2 1 7 810   9 3 2 1 5 4 6 3 2 1
                                        7 810 9 5 4 6 3 2 1   5 4 6 3 2 7 810 9 1   3 2 1 3 2 1 3 2 1 3   2 1 1 3 2 1 1 1 1 1
                                        1 1 1 1 1 1 1 1
 *** IN SYMMETRY 2 ORBITAL  1 SYMMETRY CONTAMINATION OF 0.712D-03 HAS BEEN REMOVED
 *** IN SYMMETRY 2 ORBITAL  2 SYMMETRY CONTAMINATION OF 0.439D-02 HAS BEEN REMOVED
 EXTRA SYMMETRY OF MOS IN SYMMETRY 2:   1 1 1 1 1 3 2 1 2 3   1 6 5 4 2 3 1 6 5 4   2 3 1 3 2 6 5 4 1 1   3 2 6 5 4 1 1 1 1 1
                                        1 1 1 1 1 1 1
 *** IN SYMMETRY 3 ORBITAL  1 SYMMETRY CONTAMINATION OF 0.144D-02 HAS BEEN REMOVED
 *** IN SYMMETRY 3 ORBITAL  2 SYMMETRY CONTAMINATION OF 0.165D-01 HAS BEEN REMOVED
 EXTRA SYMMETRY OF MOS IN SYMMETRY 3:   1 1 1 1 1 3 2 1 3 2   1 6 4 5 3 2 1 6 4 5   3 2 1 3 2 6 4 5 1 1   3 2 6 4 5 1 1 1 1 1
                                        1 1 1 1 1 1 1
 *** IN SYMMETRY 4 ORBITAL  1 SYMMETRY CONTAMINATION OF 0.377D-03 HAS BEEN REMOVED
 EXTRA SYMMETRY OF MOS IN SYMMETRY 4:   1 1 1 1 3 2 1 3 2 1   5 6 4 1 3 2 1 5 6 4   3 2 1 3 2 1 6 5 4 1   1 1 1 1
 *** IN SYMMETRY 5 ORBITAL  1 SYMMETRY CONTAMINATION OF 0.823D-03 HAS BEEN REMOVED
 *** IN SYMMETRY 5 ORBITAL  2 SYMMETRY CONTAMINATION OF 0.507D-02 HAS BEEN REMOVED
 EXTRA SYMMETRY OF MOS IN SYMMETRY 5:   1 1 1 1 1 3 2 1 2 3   1 4 5 6 2 3 1 4 5 6   2 3 1 3 2 4 5 6 1 1   3 2 4 5 6 1 1 1 1 1
                                        1 1 1 1 1 1 1
 *** IN SYMMETRY 6 ORBITAL  1 SYMMETRY CONTAMINATION OF 0.480D-02 HAS BEEN REMOVED
 EXTRA SYMMETRY OF MOS IN SYMMETRY 6:   1 1 1 1 3 2 1 3 2 1   4 5 6 1 3 2 1 4 5 6   3 2 1 3 2 1 4 5 6 1   1 1 1 1
 *** IN SYMMETRY 7 ORBITAL  1 SYMMETRY CONTAMINATION OF 0.413D-03 HAS BEEN REMOVED
 EXTRA SYMMETRY OF MOS IN SYMMETRY 7:   1 1 1 1 2 3 1 2 3 1   6 4 5 1 2 3 1 6 4 5   2 3 1 2 3 1 4 6 5 1   1 1 1 1
 EXTRA SYMMETRY OF MOS IN SYMMETRY 8:   1 1 2 3 1 2 3 1 1 2   3 1 2 3

 Wavefunction dump at record             5202.2

 Convergence thresholds  0.10E-01 (gradient)  0.10E-05 (energy)  0.10E-02 (step length)

 Weight factors for state symmetry  1:    0.10000
 Weight factors for state symmetry  2:    0.10000   0.10000   0.10000
 Weight factors for state symmetry  3:    0.10000   0.10000   0.10000
 Weight factors for state symmetry  4:    0.10000   0.10000   0.10000

 Number of orbital rotations:      869   (     8 Core/Active    598 Core/Virtual   0 Active/Active    263 Active/Virtual)
 Total number of variables:        897


 ITER. MIC  NCI  NEG     ENERGY(VAR)     ENERGY(PROJ)   ENERGY CHANGE     GRAD(0)  GRAD(ORB)   GRAD(CI)     STEP       TIME

   1   33   16    4    -942.16873849    -943.06362415   -0.89488566    0.70534297 0.00000001 0.00000000  0.14D+01      2.25
   2   30   20    0    -942.76180956    -942.85933314   -0.09752359    0.68080977 0.00000000 0.00000000  0.27D+00      4.48
   3   27   20    0    -942.86410848    -942.86497170   -0.00086322    0.04400121 0.00000000 0.00000000  0.32D-01      6.72
   4   24   20    0    -942.86497909    -942.86497925   -0.00000015    0.00048158 0.00000000 0.00000000  0.45D-03      8.92

 ** WVFN ****  CONVERGENCE REACHED, FINAL GRADIENT:  0.84D-07



 Results for state 1.1
 =====================

 !MCSCF STATE 1.1 Energy             -942.884282399814
 Nuclear energy                         0.00000000
 Kinetic energy                       942.86496635
 One electron energy                -1294.32738669
 Two electron energy                  351.44310429
 Virial ratio                           2.00002049

 !MCSCF STATE 1.1 Dipole moment         0.00000000     0.00000000     0.00000000
 Dipole moment /Debye                   0.00000000     0.00000000     0.00000000



 Results for state 1.4
 =====================

 !MCSCF STATE 1.4 Energy             -942.884282399860
 Nuclear energy                         0.00000000
 Kinetic energy                       942.86496638
 One electron energy                -1294.32738674
 Two electron energy                  351.44310434
 Virial ratio                           2.00002049

 !MCSCF STATE 1.4 Dipole moment         0.00000000     0.00000000     0.00000000
 Dipole moment /Debye                   0.00000000     0.00000000     0.00000000

 Results for state 2.4
 =====================

 !MCSCF STATE 2.4 Energy             -942.884282399833
 Nuclear energy                         0.00000000
 Kinetic energy                       942.86496638
 One electron energy                -1294.32738674
 Two electron energy                  351.44310434
 Virial ratio                           2.00002049

 !MCSCF STATE 2.4 Dipole moment         0.00000000     0.00000000     0.00000000
 Dipole moment /Debye                   0.00000000     0.00000000     0.00000000

 Results for state 3.4
 =====================

 !MCSCF STATE 3.4 Energy             -942.819938558347
 Nuclear energy                         0.00000000
 Kinetic energy                       942.86496638
 One electron energy                -1294.32738673
 Two electron energy                  351.50744817
 Virial ratio                           1.99995224

 !MCSCF STATE 3.4 Dipole moment         0.00000000     0.00000000     0.00000000
 Dipole moment /Debye                   0.00000000     0.00000000     0.00000000



 Results for state 1.6
 =====================

 !MCSCF STATE 1.6 Energy             -942.884282399850
 Nuclear energy                         0.00000000
 Kinetic energy                       942.86496639
 One electron energy                -1294.32738676
 Two electron energy                  351.44310436
 Virial ratio                           2.00002049

 !MCSCF STATE 1.6 Dipole moment         0.00000000     0.00000000     0.00000000
 Dipole moment /Debye                   0.00000000     0.00000000     0.00000000

 Results for state 2.6
 =====================

 !MCSCF STATE 2.6 Energy             -942.884282399820
 Nuclear energy                         0.00000000
 Kinetic energy                       942.86496636
 One electron energy                -1294.32738671
 Two electron energy                  351.44310431
 Virial ratio                           2.00002049

 !MCSCF STATE 2.6 Dipole moment         0.00000000     0.00000000     0.00000000
 Dipole moment /Debye                   0.00000000     0.00000000     0.00000000

 Results for state 3.6
 =====================

 !MCSCF STATE 3.6 Energy             -942.819938558351
 Nuclear energy                         0.00000000
 Kinetic energy                       942.86496637
 One electron energy                -1294.32738672
 Two electron energy                  351.50744817
 Virial ratio                           1.99995224

 !MCSCF STATE 3.6 Dipole moment         0.00000000     0.00000000     0.00000000
 Dipole moment /Debye                   0.00000000     0.00000000     0.00000000



 Results for state 1.7
 =====================

 !MCSCF STATE 1.7 Energy             -942.884282399863
 Nuclear energy                         0.00000000
 Kinetic energy                       942.86496638
 One electron energy                -1294.32738675
 Two electron energy                  351.44310435
 Virial ratio                           2.00002049

 !MCSCF STATE 1.7 Dipole moment         0.00000000     0.00000000     0.00000000
 Dipole moment /Debye                   0.00000000     0.00000000     0.00000000

 Results for state 2.7
 =====================

 !MCSCF STATE 2.7 Energy             -942.884282399835
 Nuclear energy                         0.00000000
 Kinetic energy                       942.86496637
 One electron energy                -1294.32738673
 Two electron energy                  351.44310433
 Virial ratio                           2.00002049

 !MCSCF STATE 2.7 Dipole moment         0.00000000     0.00000000     0.00000000
 Dipole moment /Debye                   0.00000000     0.00000000     0.00000000

 Results for state 3.7
 =====================

 !MCSCF STATE 3.7 Energy             -942.819938558342
 Nuclear energy                         0.00000000
 Kinetic energy                       942.86496638
 One electron energy                -1294.32738674
 Two electron energy                  351.50744818
 Virial ratio                           1.99995224

 !MCSCF STATE 3.7 Dipole moment         0.00000000     0.00000000     0.00000000
 Dipole moment /Debye                   0.00000000     0.00000000     0.00000000

 State-averaged charge density matrix saved on record  5202.2 (density set 1)


 NATURAL ORBITALS (state averaged)
 =================================

   Orb     Occ        Energy       Coefficients

                                   1 1s      1 1s      1 1s      1 1s      1 1s      1 1s      1 1s      1 1s      1 1s      1 1s   
                                   1 1s      1 1s      1 1s      1 1s      1 1s      1 1s      1 1s      1 1s      1 1s      1 1s   
                                   1 1s      1 1s      1 1s      1 1s      1 1s      1 1s      1 1s      1 1s      1 1s      1 1s   
                                   1 1s      1 3d0     1 3d2+    1 3d0     1 3d2+    1 3d0     1 3d2+    1 3d0     1 3d2+    1 3d0  
                                   1 3d2+    1 3d0     1 3d2+    1 3d0     1 3d2+    1 3d0     1 3d2+    1 3d0     1 3d2+    1 3d0  
                                   1 3d2+    1 3d0     1 3d2+    1 3d0     1 3d2+    1 3d0     1 3d2+    1 3d0     1 3d2+    1 3d0  
                                   1 3d2+    1 5g0     1 5g4+    1 5g2+    1 5g0     1 5g4+    1 5g2+    1 5g0     1 5g4+    1 5g2+ 
                                   1 5g0     1 5g4+    1 5g2+    1 5g0     1 5g4+    1 5g2+    1 7i6+    1 7i4+    1 7i2+    1 7i0  
                                   1 7i6+    1 7i4+    1 7i2+    1 7i0     1 7i6+    1 7i4+    1 7i2+    1 7i0  

   1.1  2.00000  -201.507403     0.000000  0.000001  0.000003  0.000015  0.000057  0.000195  0.000597  0.001689  0.004485  0.011260
                                 0.026738  0.059361  0.119944  0.209726  0.290028  0.269281  0.131420  0.023627  0.002090 -0.000797
                                -0.001133  0.000854  0.000127 -0.000031  0.000009 -0.000007  0.000003 -0.000001  0.001682 -0.000747
                                 0.000000  0.000000  0.000000  0.000000  0.000000  0.000000  0.000000  0.000000  0.000000  0.000000
                                 0.000000  0.000000  0.000000  0.000000  0.000000  0.000000  0.000000  0.000000  0.000000  0.000000
                                 0.000000  0.000000  0.000000  0.000000  0.000000  0.000000  0.000000  0.000000  0.000000  0.000000
                                 0.000000  0.000000  0.000000  0.000000  0.000000  0.000000  0.000000  0.000000  0.000000  0.000000
                                 0.000000  0.000000  0.000000  0.000000  0.000000  0.000000  0.000000  0.000000  0.000000  0.000000
                                 0.000000  0.000000  0.000000  0.000000  0.000000  0.000000  0.000000  0.000000

   2.1  2.00000   -23.879723    -0.000000 -0.000000 -0.000001 -0.000004 -0.000017 -0.000058 -0.000178 -0.000504 -0.001343 -0.003395
                                -0.008179 -0.018674 -0.039833 -0.077041 -0.128284 -0.160581 -0.094576  0.127888  0.421901  0.456902
                                 0.178026  0.000003 -0.001275  0.001022 -0.000201  0.000156 -0.000065  0.000027 -0.020029  0.014761
                                -0.000007  0.000000  0.000000  0.000000  0.000000  0.000000  0.000000  0.000000  0.000000  0.000000
                                 0.000000  0.000000  0.000000  0.000000  0.000000  0.000000  0.000000  0.000000  0.000000  0.000000
                                 0.000000  0.000000  0.000000  0.000000  0.000000  0.000000  0.000000  0.000000  0.000000  0.000000
                                 0.000000  0.000000  0.000000  0.000000  0.000000  0.000000  0.000000  0.000000  0.000000  0.000000
                                 0.000000  0.000000  0.000000  0.000000  0.000000  0.000000  0.000000  0.000000  0.000000  0.000000
                                 0.000000  0.000000  0.000000  0.000000  0.000000  0.000000  0.000000  0.000000

   3.1  2.00000    -3.186689     0.000000  0.000000  0.000000  0.000002  0.000006  0.000021  0.000064  0.000182  0.000486  0.001230
                                 0.002966  0.006797  0.014582  0.028550  0.048571  0.063281  0.039130 -0.057884 -0.240299 -0.386690
                                -0.153172  0.383244  0.620704  0.293457  0.021214 -0.004682  0.001223 -0.000396  0.017544 -0.012176
                                 0.000090  0.000000  0.000000  0.000000  0.000000  0.000000  0.000000  0.000000  0.000000  0.000000
                                 0.000000  0.000000  0.000000  0.000000  0.000000  0.000000  0.000000  0.000000  0.000000  0.000000
                                 0.000000  0.000000  0.000000  0.000000  0.000000  0.000000  0.000000  0.000000  0.000000  0.000000
                                 0.000000  0.000000  0.000000  0.000000  0.000000  0.000000  0.000000  0.000000  0.000000  0.000000
                                 0.000000  0.000000  0.000000  0.000000  0.000000  0.000000  0.000000  0.000000  0.000000  0.000000
                                 0.000000  0.000000  0.000000  0.000000  0.000000  0.000000  0.000000  0.000000

   4.1  2.00000    -0.230976    -0.000000 -0.000000 -0.000000 -0.000000 -0.000001 -0.000005 -0.000015 -0.000042 -0.000111 -0.000280
                                -0.000675 -0.001549 -0.003321 -0.006520 -0.011104 -0.014583 -0.008994  0.013355  0.058711  0.095309
                                 0.030730 -0.102610 -0.220796 -0.230541  0.011194  0.420193  0.567140  0.172402  0.002492 -0.008023
                                 0.000633  0.000000  0.000000  0.000000  0.000000  0.000000  0.000000  0.000000  0.000000  0.000000
                                 0.000000  0.000000  0.000000  0.000000  0.000000  0.000000  0.000000  0.000000  0.000000  0.000000
                                 0.000000  0.000000  0.000000  0.000000  0.000000  0.000000  0.000000  0.000000  0.000000  0.000000
                                 0.000000  0.000000  0.000000  0.000000  0.000000  0.000000  0.000000  0.000000  0.000000  0.000000
                                 0.000000  0.000000  0.000000  0.000000  0.000000  0.000000  0.000000  0.000000  0.000000  0.000000
                                 0.000000  0.000000  0.000000  0.000000  0.000000  0.000000  0.000000  0.000000

   5.1  0.60000     0.020452     0.000000  0.000000  0.000000  0.000000  0.000000  0.000000  0.000000  0.000000  0.000000  0.000000
                                 0.000000  0.000000  0.000000  0.000000  0.000000  0.000000  0.000000  0.000000  0.000000  0.000000
                                 0.000000  0.000000  0.000000  0.000000  0.000000  0.000000  0.000000  0.000000  0.000000  0.000000
                                 0.000000  0.000203  0.000000  0.001908  0.000000  0.010097  0.000000  0.035082  0.000000  0.092790
                                 0.000000  0.185135  0.000000  0.275342  0.000000  0.313333  0.000000  0.264404  0.000000  0.140670
                                 0.000000  0.031950  0.000000  0.000642  0.000000  0.001384  0.000000  0.001599  0.000000  0.000110
                                 0.000000  0.000000  0.000000  0.000000  0.000000  0.000000  0.000000  0.000000  0.000000  0.000000
                                 0.000000  0.000000  0.000000  0.000000  0.000000  0.000000  0.000000  0.000000  0.000000  0.000000
                                 0.000000  0.000000  0.000000  0.000000  0.000000  0.000000  0.000000  0.000000

   6.1  0.60000     0.020452     0.000000  0.000000  0.000000  0.000000  0.000000  0.000000  0.000000  0.000000  0.000000  0.000000
                                 0.000000  0.000000  0.000000  0.000000  0.000000  0.000000  0.000000  0.000000  0.000000  0.000000
                                 0.000000  0.000000  0.000000  0.000000  0.000000  0.000000  0.000000  0.000000  0.000000  0.000000
                                 0.000000  0.000000  0.000203  0.000000  0.001908  0.000000  0.010097  0.000000  0.035082  0.000000
                                 0.092790  0.000000  0.185135  0.000000  0.275342  0.000000  0.313333  0.000000  0.264404  0.000000
                                 0.140670  0.000000  0.031950  0.000000  0.000642  0.000000  0.001384  0.000000  0.001599  0.000000
                                 0.000110  0.000000  0.000000  0.000000  0.000000  0.000000  0.000000  0.000000  0.000000  0.000000
                                 0.000000  0.000000  0.000000  0.000000  0.000000  0.000000  0.000000  0.000000  0.000000  0.000000
                                 0.000000  0.000000  0.000000  0.000000  0.000000  0.000000  0.000000  0.000000

                                   1 2px     1 2px     1 2px     1 2px     1 2px     1 2px     1 2px     1 2px     1 2px     1 2px  
                                   1 2px     1 2px     1 2px     1 2px     1 2px     1 2px     1 2px     1 2px     1 2px     1 2px  
                                   1 2px     1 2px     1 2px     1 4f1+    1 4f3+    1 4f1+    1 4f3+    1 4f1+    1 4f3+    1 4f1+ 
                                   1 4f3+    1 4f1+    1 4f3+    1 4f1+    1 4f3+    1 6h1+    1 6h3+    1 6h5+    1 6h1+    1 6h3+ 
                                   1 6h5+    1 6h1+    1 6h3+    1 6h5+    1 6h1+    1 6h3+    1 6h5+ 

   1.2  2.00000   -20.027495     0.000002  0.000022  0.000137  0.000635  0.002424  0.008013  0.023371  0.059908  0.129782  0.224157
                                 0.298752  0.276452  0.140718  0.028833  0.001935  0.000477  0.000022  0.000019 -0.000011  0.000004
                                -0.000610  0.000405 -0.000001  0.000000  0.000000  0.000000  0.000000  0.000000  0.000000  0.000000
                                 0.000000  0.000000  0.000000  0.000000  0.000000  0.000000  0.000000  0.000000  0.000000  0.000000
                                 0.000000  0.000000  0.000000  0.000000  0.000000  0.000000  0.000000

   2.2  2.00000    -2.022408    -0.000001 -0.000008 -0.000048 -0.000222 -0.000850 -0.002820 -0.008315 -0.021692 -0.048399 -0.086294
                                -0.121100 -0.111308  0.018011  0.242521  0.404365  0.343093  0.120642  0.009851  0.000517  0.000092
                                -0.003116  0.005890 -0.000009  0.000000  0.000000  0.000000  0.000000  0.000000  0.000000  0.000000
                                 0.000000  0.000000  0.000000  0.000000  0.000000  0.000000  0.000000  0.000000  0.000000  0.000000
                                 0.000000  0.000000  0.000000  0.000000  0.000000  0.000000  0.000000

                                   1 2py     1 2py     1 2py     1 2py     1 2py     1 2py     1 2py     1 2py     1 2py     1 2py  
                                   1 2py     1 2py     1 2py     1 2py     1 2py     1 2py     1 2py     1 2py     1 2py     1 2py  
                                   1 2py     1 2py     1 2py     1 4f1-    1 4f3-    1 4f1-    1 4f3-    1 4f1-    1 4f3-    1 4f1- 
                                   1 4f3-    1 4f1-    1 4f3-    1 4f1-    1 4f3-    1 6h1-    1 6h3-    1 6h5-    1 6h1-    1 6h3- 
                                   1 6h5-    1 6h1-    1 6h3-    1 6h5-    1 6h1-    1 6h3-    1 6h5- 

   1.3  2.00000   -20.027495     0.000002  0.000022  0.000137  0.000635  0.002424  0.008013  0.023371  0.059908  0.129782  0.224157
                                 0.298752  0.276452  0.140718  0.028833  0.001935  0.000477  0.000022  0.000019 -0.000011  0.000004
                                -0.000610  0.000405 -0.000001  0.000000  0.000000  0.000000  0.000000  0.000000  0.000000  0.000000
                                 0.000000  0.000000  0.000000  0.000000  0.000000  0.000000  0.000000  0.000000  0.000000  0.000000
                                 0.000000  0.000000  0.000000  0.000000  0.000000  0.000000  0.000000

   2.3  2.00000    -2.022408    -0.000001 -0.000008 -0.000048 -0.000222 -0.000850 -0.002820 -0.008315 -0.021692 -0.048399 -0.086294
                                -0.121100 -0.111308  0.018011  0.242521  0.404365  0.343093  0.120642  0.009851  0.000517  0.000092
                                -0.003116  0.005890 -0.000009  0.000000  0.000000  0.000000  0.000000  0.000000  0.000000  0.000000
                                 0.000000  0.000000  0.000000  0.000000  0.000000  0.000000  0.000000  0.000000  0.000000  0.000000
                                 0.000000  0.000000  0.000000  0.000000  0.000000  0.000000  0.000000

                                   1 3d2-    1 3d2-    1 3d2-    1 3d2-    1 3d2-    1 3d2-    1 3d2-    1 3d2-    1 3d2-    1 3d2- 
                                   1 3d2-    1 3d2-    1 3d2-    1 3d2-    1 3d2-    1 5g2-    1 5g4-    1 5g2-    1 5g4-    1 5g2- 
                                   1 5g4-    1 5g2-    1 5g4-    1 5g2-    1 5g4-    1 7i2-    1 7i6-    1 7i4-    1 7i2-    1 7i6- 
                                   1 7i4-    1 7i2-    1 7i6-    1 7i4- 

   1.4  0.60000     0.020452     0.000203  0.001908  0.010097  0.035082  0.092790  0.185135  0.275342  0.313333  0.264404  0.140670
                                 0.031950  0.000642  0.001384  0.001599  0.000110  0.000000  0.000000  0.000000  0.000000  0.000000
                                 0.000000  0.000000  0.000000  0.000000  0.000000  0.000000  0.000000  0.000000  0.000000  0.000000
                                 0.000000  0.000000  0.000000  0.000000

                                   1 2pz     1 2pz     1 2pz     1 2pz     1 2pz     1 2pz     1 2pz     1 2pz     1 2pz     1 2pz  
                                   1 2pz     1 2pz     1 2pz     1 2pz     1 2pz     1 2pz     1 2pz     1 2pz     1 2pz     1 2pz  
                                   1 2pz     1 2pz     1 2pz     1 4f0     1 4f2+    1 4f0     1 4f2+    1 4f0     1 4f2+    1 4f0  
                                   1 4f2+    1 4f0     1 4f2+    1 4f0     1 4f2+    1 6h2+    1 6h4+    1 6h0     1 6h2+    1 6h4+ 
                                   1 6h0     1 6h2+    1 6h4+    1 6h0     1 6h2+    1 6h4+    1 6h0  

   1.5  2.00000   -20.027495     0.000002  0.000022  0.000137  0.000635  0.002424  0.008013  0.023371  0.059908  0.129782  0.224157
                                 0.298752  0.276452  0.140718  0.028833  0.001935  0.000477  0.000022  0.000019 -0.000011  0.000004
                                -0.000610  0.000405 -0.000001  0.000000  0.000000  0.000000  0.000000  0.000000  0.000000  0.000000
                                 0.000000  0.000000  0.000000  0.000000  0.000000  0.000000  0.000000  0.000000  0.000000  0.000000
                                 0.000000  0.000000  0.000000  0.000000  0.000000  0.000000  0.000000

   2.5  2.00000    -2.022408    -0.000001 -0.000008 -0.000048 -0.000222 -0.000850 -0.002820 -0.008315 -0.021692 -0.048399 -0.086294
                                -0.121100 -0.111308  0.018011  0.242521  0.404365  0.343093  0.120642  0.009851  0.000517  0.000092
                                -0.003116  0.005890 -0.000009  0.000000  0.000000  0.000000  0.000000  0.000000  0.000000  0.000000
                                 0.000000  0.000000  0.000000  0.000000  0.000000  0.000000  0.000000  0.000000  0.000000  0.000000
                                 0.000000  0.000000  0.000000  0.000000  0.000000  0.000000  0.000000

                                   1 3d1+    1 3d1+    1 3d1+    1 3d1+    1 3d1+    1 3d1+    1 3d1+    1 3d1+    1 3d1+    1 3d1+ 
                                   1 3d1+    1 3d1+    1 3d1+    1 3d1+    1 3d1+    1 5g1+    1 5g3+    1 5g1+    1 5g3+    1 5g1+ 
                                   1 5g3+    1 5g1+    1 5g3+    1 5g1+    1 5g3+    1 7i5+    1 7i3+    1 7i1+    1 7i5+    1 7i3+ 
                                   1 7i1+    1 7i5+    1 7i3+    1 7i1+ 

   1.6  0.60000     0.020452     0.000203  0.001908  0.010097  0.035082  0.092790  0.185135  0.275342  0.313333  0.264404  0.140670
                                 0.031950  0.000642  0.001384  0.001599  0.000110  0.000000  0.000000  0.000000  0.000000  0.000000
                                 0.000000  0.000000  0.000000  0.000000  0.000000  0.000000  0.000000  0.000000  0.000000  0.000000
                                 0.000000  0.000000  0.000000  0.000000

                                   1 3d1-    1 3d1-    1 3d1-    1 3d1-    1 3d1-    1 3d1-    1 3d1-    1 3d1-    1 3d1-    1 3d1- 
                                   1 3d1-    1 3d1-    1 3d1-    1 3d1-    1 3d1-    1 5g1-    1 5g3-    1 5g1-    1 5g3-    1 5g1- 
                                   1 5g3-    1 5g1-    1 5g3-    1 5g1-    1 5g3-    1 7i5-    1 7i3-    1 7i1-    1 7i5-    1 7i3- 
                                   1 7i1-    1 7i5-    1 7i3-    1 7i1- 

   1.7  0.60000     0.020452     0.000203  0.001908  0.010097  0.035082  0.092790  0.185135  0.275342  0.313333  0.264404  0.140670
                                 0.031950  0.000642  0.001384  0.001599  0.000110  0.000000  0.000000  0.000000  0.000000  0.000000
                                 0.000000  0.000000  0.000000  0.000000  0.000000  0.000000  0.000000  0.000000  0.000000  0.000000
                                 0.000000  0.000000  0.000000  0.000000
 

 EXTRA SYMMETRY OF MOS IN SYMMETRY 1:   1 1 1 1 2 3 1 2 3 1   3 2 1 3 2 6 5 4 3 2   1 5 6 4 2 3 1 8 7 9  10 2 3 1 4 5 6 3 2 1
                                        8 9 710 6 4 5 3 2 1   5 6 4 2 310 9 8 7 1   2 3 1 3 2 1 2 3 1 3   2 1 1 2 3 1 1 1 1 1
                                        1 1 1 1 1 1 1 1
 EXTRA SYMMETRY OF MOS IN SYMMETRY 2:   1 1 1 1 1 3 2 1 2 3   1 5 6 4 3 2 1 4 6 5   3 2 1 3 2 5 6 4 1 1   2 3 6 5 4 1 1 1 1 1
                                        1 1 1 1 1 1 1
 EXTRA SYMMETRY OF MOS IN SYMMETRY 3:   1 1 1 1 1 3 2 1 2 3   1 4 5 6 3 2 1 6 4 5   2 3 1 3 2 6 5 4 1 1   2 3 5 4 6 1 1 1 1 1
                                        1 1 1 1 1 1 1
 EXTRA SYMMETRY OF MOS IN SYMMETRY 4:   1 1 1 1 3 2 1 3 2 1   5 6 4 1 3 2 1 6 5 4   2 3 1 2 3 1 4 6 5 1   1 1 1 1
 EXTRA SYMMETRY OF MOS IN SYMMETRY 5:   1 1 1 1 1 2 3 1 3 2   1 6 4 5 2 3 1 6 4 5   3 2 1 3 2 5 4 6 1 1   3 2 5 4 6 1 1 1 1 1
                                        1 1 1 1 1 1 1
 EXTRA SYMMETRY OF MOS IN SYMMETRY 6:   1 1 1 1 2 3 1 2 3 1   6 5 4 1 3 2 1 4 5 6   3 2 1 3 2 1 4 5 6 1   1 1 1 1
 EXTRA SYMMETRY OF MOS IN SYMMETRY 7:   1 1 1 1 3 2 1 3 2 1   5 4 6 1 2 3 1 6 4 5   2 3 1 2 3 1 6 4 5 1   1 1 1 1
 EXTRA SYMMETRY OF MOS IN SYMMETRY 8:   1 1 2 3 1 2 3 1 1 3   2 1 3 2

 Natural orbital dump (state averaged) at molpro section  5202.2    (Orbital set 2)


 CI vector for state symmetry 1
 ==============================

 00 a a a          1.0000000

 TOTAL ENERGIES                      -942.88428240

 CI vector for state symmetry 2
 ==============================

 a0 0 a a          0.3207800  -0.3116091   0.8944272
 0a 0 a a          0.6967791   0.7172858  -0.0000000
 aa a 0 0         -0.6415599   0.6232182   0.4472136

 TOTAL ENERGIES                      -942.88428240  -942.88428240  -942.81993856

 CI vector for state symmetry 3
 ==============================

 aa 0 a 0          0.8827902   0.1438105   0.4472136
 a0 a 0 a         -0.3599414   0.8188053   0.4472136
 0a a 0 a         -0.3018669  -0.5557665   0.7745967

 TOTAL ENERGIES                      -942.88428240  -942.88428240  -942.81993856

 CI vector for state symmetry 4
 ==============================

 a0 a a 0         -0.0804358   0.8908031  -0.4472136
 aa 0 0 a          0.8424074   0.3005824   0.4472136
 0a a a 0         -0.5328038   0.3407640   0.7745967

 TOTAL ENERGIES                      -942.88428240  -942.88428240  -942.81993856



 **********************************************************************************************************************************
 DATASETS  * FILE   NREC   LENGTH (MB)   RECORD NAMES
              1      20      656.43       500      610      700      900      950      970     1000      129      960     1100   
                                          VAR    BASINP    GEOM    SYMINP    ZMAT    AOBASIS   BASIS     P2S    ABASIS      S 
                                         1400     1410     1200     1210     1080     1600     1650     1300     1700     1380   
                                           T        V       H0       H01     AOSYM     SMH    MOLCAS    ERIS     OPER     JKOP   

              2       6        8.47       200      700     1000      520     4202     5202   
                                        OPTIONS   GEOM     BASIS   MCVARS     RHF     MCSCF   

 PROGRAMS   *        TOTAL     MULTI       RHF       INT
 CPU TIMES  *       119.27     11.20      6.63    101.27
 REAL TIME  *       125.01 SEC
 DISK USED  *         2.41 GB      
 **********************************************************************************************************************************

1PROGRAM * RHF-SCF (OPEN SHELL)       Authors: W. Meyer, H.-J. Werner


 NUMBER OF ELECTRONS:      13+   10-    SPACE SYMMETRY=1    SPIN SYMMETRY: Quartet 
 CONVERGENCE THRESHOLDS:    1.00E-05 (Density)    1.00E-07 (Energy)
 MAX. NUMBER OF ITERATIONS:        0
 INTERPOLATION TYPE:            DIIS
 INTERPOLATION STEPS:              2 (START)      1 (STEP)
 LEVEL SHIFTS:                 -0.30 (CLOSED)  0.00 (OPEN) 


 Singly occupied orbitals:      1.4       1.6       1.7
 Molecular orbitals read from record     5202.2  Type=MCSCF/NATURAL  

 Molecular orbital dump at record        2101.2

 ITERATION    DDIFF          GRAD             ENERGY        2-EL.EN.            DIPOLE MOMENTS         DIIS   ORB.
    1      0.000D+00      0.000D+00      -942.88428240    702.886209    0.00000    0.00000    0.00000    0    start

 Final alpha occupancy:   4   2   2   1   2   1   1   0
 Final beta  occupancy:   4   2   2   0   2   0   0   0

 !RHF STATE 1.1 Energy               -942.884282399814
 Nuclear energy                         0.00000000
 One-electron energy                -1294.32738669
 Two-electron energy                  351.44310429
 Virial quotient                       -1.00002049
 !RHF STATE 1.1 Dipole moment           0.00000000     0.00000000     0.00000000
 Dipole moment /Debye                   0.00000000     0.00000000     0.00000000

 Orbital energies:

         1.1          2.1          3.1          4.1          5.1          6.1
   -201.507403   -23.879723    -3.186689    -0.230976     0.020452     0.020452

         1.2          2.2          3.2          4.2
    -20.027495    -2.022408     0.015674     0.052239

         1.3          2.3          3.3          4.3
    -20.027495    -2.022408     0.015674     0.052239

         1.4          2.4          3.4
      0.020452     0.043886     0.136076

         1.5          2.5          3.5          4.5
    -20.027495    -2.022408     0.015674     0.052239

         1.6          2.6          3.6
      0.020452     0.043886     0.136076

         1.7          2.7          3.7
      0.020452     0.043886     0.136076

         1.8          2.8
      0.236347     0.740912

 HOMO      1.6     0.020452 =       0.5565eV
 LUMO      3.2     0.015674 =       0.4265eV
 LUMO-HOMO        -0.004778 =      -0.1300eV


 **********************************************************************************************************************************
 DATASETS  * FILE   NREC   LENGTH (MB)   RECORD NAMES
              1      20      656.43       500      610      700      900      950      970     1000      129      960     1100   
                                          VAR    BASINP    GEOM    SYMINP    ZMAT    AOBASIS   BASIS     P2S    ABASIS      S 
                                         1400     1410     1200     1210     1080     1600     1650     1300     1700     1380   
                                           T        V       H0       H01     AOSYM     SMH    MOLCAS    ERIS     OPER     JKOP   

              2       7       12.36       200      700     1000      520     4202     5202     2101   
                                        OPTIONS   GEOM     BASIS   MCVARS     RHF     MCSCF     RHF  

 PROGRAMS   *        TOTAL       RHF     MULTI       RHF       INT
 CPU TIMES  *       119.76      0.48     11.20      6.63    101.27
 REAL TIME  *       125.56 SEC
 DISK USED  *         2.41 GB      
 **********************************************************************************************************************************
 SETTING SCF(1)         =      -942.88428240  AU                              
 SETTING _CC_NORM_MAX   =         2.00000000                                  


1PROGRAM * CCSD (Restricted open-shell coupled cluster)     Authors: C. Hampel, H.-J. Werner, 1991, M. Deegan, P.J. Knowles, 1992


 Convergence thresholds:  THRVAR = 1.00D-08  THRDEN = 1.00D-06

 CCSD(T)     terms to be evaluated (factor= 1.000)


 Number of closed-shell orbitals:  10 (   4   2   2   0   2   0   0   0 )
 Number of active  orbitals:        3 (   0   0   0   1   0   1   1   0 )
 Number of external orbitals:     332 (  84  45  45  33  45  33  33  14 )

 Memory could be reduced to 102.39 Mwords without degradation in triples

 Number of N-1 electron functions:              23
 Number of N-2 electron functions:             253
 Number of singly external CSFs:              1314
 Number of doubly external CSFs:           2820240
 Total number of CSFs:                     2821554

 Molecular orbitals read from record     2101.2  Type=RHF/CANONICAL (state 1.1)

 Integral transformation finished. Total CPU:   3.15 sec, npass=  1  Memory used:  20.60 MW

 Starting RMP2 calculation

 Wavefunction is spin-projected

 ITER.      SQ.NORM     CORR.ENERGY   TOTAL ENERGY   ENERGY CHANGE        DEN1      VAR(S)    VAR(P)  DIIS     TIME
   1      1.09986447    -0.87944906  -943.76373146    -0.87944906    -0.00162290  0.48D-05  0.12D-02  1  1     3.31
   2      1.10323699    -0.88121801  -943.76550041    -0.00176895    -0.00003921  0.71D-07  0.41D-04  2  2     3.46
   3      1.10394742    -0.88145425  -943.76573665    -0.00023624    -0.00000059  0.21D-08  0.45D-06  3  3     3.62
   4      1.10398941    -0.88146509  -943.76574749    -0.00001084    -0.00000002  0.20D-10  0.18D-07  4  4     3.81
   5      1.10398247    -0.88146319  -943.76574559     0.00000190    -0.00000000  0.15D-11  0.24D-09  5  5     4.01
   6      1.10398172    -0.88146307  -943.76574547     0.00000012    -0.00000000  0.81D-13  0.32D-11  6  6     4.21

 Norm of t1 vector:      0.03949886      S-energy:    -0.00696919      T1 diagnostic:  0.00297277
 Norm of t2 vector:      0.32003369      P-energy:    -0.87449387
                                         Alpha-Beta:  -0.62579075
                                         Alpha-Alpha: -0.15306652
                                         Beta-Beta:   -0.09563660

 Spin contamination <S**2-Sz**2-Sz>     0.00000000
  Reference energy                   -942.884282399814
  RHF-RMP2 correlation energy          -0.881463065809
 !RHF-RMP2 energy                    -943.765745465623
 (NB above energy spin projected)

 Starting RCCSD calculation

 ITER.      SQ.NORM     CORR.ENERGY   TOTAL ENERGY   ENERGY CHANGE        DEN1      VAR(S)    VAR(P)  DIIS     TIME
   1      1.10369206    -0.87132358  -943.75560598    -0.87132358    -0.00877462  0.22D-02  0.27D-02  1  1    10.82
   2      1.11744255    -0.87948501  -943.76376741    -0.00816143    -0.00121791  0.47D-03  0.77D-03  2  2    17.41
   3      1.12779339    -0.88197288  -943.76625528    -0.00248787    -0.00023465  0.14D-03  0.15D-03  3  3    24.04
   4      1.13584941    -0.88348377  -943.76776617    -0.00151089    -0.00001904  0.84D-05  0.10D-04  4  4    30.55
   5      1.13765513    -0.88367453  -943.76795693    -0.00019076    -0.00000271  0.60D-06  0.17D-05  5  5    37.24
   6      1.13811443    -0.88372153  -943.76800393    -0.00004700    -0.00000072  0.41D-07  0.50D-06  6  6    43.88
   7      1.13819453    -0.88373016  -943.76801256    -0.00000863    -0.00000021  0.15D-07  0.14D-06  6  1    50.56
   8      1.13814017    -0.88372167  -943.76800407     0.00000850    -0.00000005  0.61D-08  0.30D-07  6  2    57.23
   9      1.13815931    -0.88372638  -943.76800877    -0.00000471    -0.00000001  0.25D-08  0.52D-08  6  3    63.84
  10      1.13815084    -0.88372532  -943.76800772     0.00000105    -0.00000000  0.41D-09  0.91D-09  6  4    70.53
  11      1.13814812    -0.88372486  -943.76800726     0.00000046    -0.00000000  0.32D-10  0.62D-10  6  5    77.22

 Norm of t1 vector:      0.10858375      S-energy:    -0.00646287      T1 diagnostic:  0.01473199
                                                                       D1 diagnostic:  0.06775283
 Norm of t2 vector:      0.35546827      P-energy:    -0.87726199
                                         Alpha-Beta:  -0.63952045
                                         Alpha-Alpha: -0.14576745
                                         Beta-Beta:   -0.09197409

 Singles amplitudes (print threshold =  0.500E-01):

         I         SYM. A    A   T(IA) [Alpha-Alpha]

         4         1         6     -0.06064730

 Doubles amplitudes (print threshold =  0.500E-01):

         I         J         SYM. A    SYM. B    A         B      T(IJ, AB) [Alpha-Beta]

         4         4         2         2         2         2     -0.05319805
         4         4         3         3         2         2     -0.05319805
         4         4         5         5         2         2     -0.05319805

 Spin contamination <S**2-Sz**2-Sz>     0.00000000

 Memory could be reduced to 109.48 Mwords without degradation in triples
 

  Correlated core orbitals:             1.1       2.1       3.1       1.2       2.2       1.3       2.3       1.5       2.5
  Orbital energies:                  -201.5077  -23.9096   -3.2900  -20.0575   -2.1491  -20.0575   -2.1491  -20.0575   -2.1491
 
  RCCSD core-core energy               -0.600765989136
  RCCSD core-valence energy            -0.211990791379
  RCCSD valence correlation energy     -0.070968084139
 

 RESULTS
 =======

  Reference energy                   -942.884282399814
  RCCSD singles energy                 -0.006462874980
  RCCSD pair energy                    -0.877261989674
  RCCSD correlation energy             -0.883724864654
  Triples (T) contribution             -0.018425600707
  Total correlation energy             -0.902150465361
 
  RHF-RCCSD energy                   -943.768007264468
  RHF-RCCSD[T] energy                -943.786622980792
  RHF-RCCSD-T energy                 -943.786408754715
 !RHF-RCCSD(T) energy                -943.786432865176

 Program statistics:

 Available memory in ccsd:               511998418
 Min. memory needed in ccsd:               8149322
 Max. memory used in ccsd:                11658276
 Max. memory used in cckext:               8639178 (11 integral passes)
 Max. memory used in cckint:              20599288 ( 1 integral passes)



 **********************************************************************************************************************************
 DATASETS  * FILE   NREC   LENGTH (MB)   RECORD NAMES
              1      20      656.43       500      610      700      900      950      970     1000      129      960     1100   
                                          VAR    BASINP    GEOM    SYMINP    ZMAT    AOBASIS   BASIS     P2S    ABASIS      S 
                                         1400     1410     1200     1210     1080     1600     1650     1300     1700     1380   
                                           T        V       H0       H01     AOSYM     SMH    MOLCAS    ERIS     OPER     JKOP   

              2       7       12.36       200      700     1000      520     4202     5202     2101   
                                        OPTIONS   GEOM     BASIS   MCVARS     RHF     MCSCF     RHF  

 PROGRAMS   *        TOTAL  RCCSD(T)       RHF     MULTI       RHF       INT
 CPU TIMES  *       506.18    386.42      0.48     11.20      6.63    101.27
 REAL TIME  *       526.29 SEC
 DISK USED  *         2.57 GB      
 **********************************************************************************************************************************
 SETTING CCSD(1)        =      -943.78643287  AU                              

 DO I                   =         2.00000000   

 Running procedure=IS1D4

1PROGRAM * RHF-SCF (OPEN SHELL)       Authors: W. Meyer, H.-J. Werner


 NUMBER OF ELECTRONS:      14+    9-    SPACE SYMMETRY=4    SPIN SYMMETRY: Sextet  
 CONVERGENCE THRESHOLDS:    1.00E-05 (Density)    1.00E-07 (Energy)
 MAX. NUMBER OF ITERATIONS:       60
 INTERPOLATION TYPE:            DIIS
 INTERPOLATION STEPS:              2 (START)      1 (STEP)
 LEVEL SHIFTS:                 -0.30 (CLOSED)  0.00 (OPEN) 


 Singly occupied orbitals:      4.1       5.1       6.1       1.6       1.7
 
 Extra symmetries of mos in symmetry 1:   1   1   1   1
 Orbital guess generated from atomic densities. Full valence occupancy:    6   2   2   1   2   1   1   0


 Molecular orbital dump at record        4202.2

 ITERATION    DDIFF          GRAD             ENERGY        2-EL.EN.            DIPOLE MOMENTS         DIIS   ORB.
    1      0.000D+00      0.000D+00      -942.86318717    711.301330    0.00000    0.00000    0.00000    0    start
    2      0.000D+00      0.517D-02      -942.87889135    709.612436    0.00000    0.00000    0.00000    1    diag,B
    3      0.141D-02      0.140D-02      -942.88138544    711.260977    0.00000    0.00000    0.00000    2    diag,B
    4      0.532D-03      0.915D-03      -942.88210400    710.669246    0.00000    0.00000    0.00000    3    diag,B
    5      0.552D-03      0.144D-03      -942.88215660    710.844412    0.00000    0.00000    0.00000    4    diag,B
    6      0.161D-03      0.595D-04      -942.88216999    710.804575    0.00000    0.00000    0.00000    5    diag,B
    7      0.114D-03      0.105D-04      -942.88217134    710.800150    0.00000    0.00000    0.00000    6    fixocc
    8      0.495D-04      0.186D-05      -942.88217137    710.799157    0.00000    0.00000    0.00000    7    diag,B
    9      0.822D-05      0.289D-06      -942.88217137    710.799172    0.00000    0.00000    0.00000    0    orth

 Final alpha occupancy:   6   2   2   0   2   1   1   0
 Final beta  occupancy:   3   2   2   0   2   0   0   0

 !RHF STATE 1.4 Energy               -942.882171371323
 Nuclear energy                         0.00000000
 One-electron energy                -1298.28175744
 Two-electron energy                  355.39958607
 Virial quotient                       -1.00000003
 !RHF STATE 1.4 Dipole moment           0.00000000     0.00000000     0.00000000
 Dipole moment /Debye                   0.00000000     0.00000000     0.00000000

 Orbital energies:

         1.1          2.1          3.1          4.1          5.1          6.1          7.1          8.1
   -201.322678   -23.671729    -2.992542    -0.214477    -0.354909    -0.302646     0.022064     0.043618

         1.2          2.2          3.2          4.2
    -19.827000    -1.847146     0.014628     0.052297

         1.3          2.3          3.3          4.3
    -19.827000    -1.847146     0.014628     0.052297

         1.4          2.4
      0.043126     0.122275

         1.5          2.5          3.5          4.5
    -19.816537    -1.838068     0.015680     0.053632

         1.6          2.6          3.6
     -0.315434     0.043952     0.137022

         1.7          2.7          3.7
     -0.315434     0.043952     0.137022

         1.8          2.8
      0.236132     0.753883

 HOMO      6.1    -0.302646 =      -8.2354eV
 LUMO      3.2     0.014628 =       0.3981eV
 LUMO-HOMO         0.317274 =       8.6335eV


 **********************************************************************************************************************************
 DATASETS  * FILE   NREC   LENGTH (MB)   RECORD NAMES
              1      20      656.43       500      610      700      900      950      970     1000      129      960     1100   
                                          VAR    BASINP    GEOM    SYMINP    ZMAT    AOBASIS   BASIS     P2S    ABASIS      S 
                                         1400     1410     1200     1210     1080     1600     1650     1300     1700     1380   
                                           T        V       H0       H01     AOSYM     SMH    MOLCAS    ERIS     OPER     JKOP   

              2       7       12.36       200      700     1000      520     4202     5202     2101   
                                        OPTIONS   GEOM     BASIS   MCVARS     RHF     MCSCF     RHF  

 PROGRAMS   *        TOTAL       RHF  RCCSD(T)       RHF     MULTI       RHF       INT
 CPU TIMES  *       510.78      4.60    386.42      0.48     11.20      6.63    101.27
 REAL TIME  *       531.49 SEC
 DISK USED  *         2.57 GB      
 **********************************************************************************************************************************

1PROGRAM * MULTI (Direct Multiconfiguration SCF)       Authors: P.J. Knowles, H.-J. Werner (1984)     S.T. Elbert (1988)


 Number of closed-shell orbitals:   9 (   3   2   2   0   2   0   0   0 )
 Number of active  orbitals:        6 (   3   0   0   1   0   1   1   0 )
 Number of external orbitals:     330 (  82  45  45  33  45  33  33  14 )

 State symmetry 1

 Number of electrons:     5    Spin symmetry=Sextet    Space symmetry=1
 Number of states:        2
 Number of CSFs:          3   (3 determinants, 6 intermediate states)

 State symmetry 2

 Number of electrons:     5    Spin symmetry=Sextet    Space symmetry=4
 Number of states:        1
 Number of CSFs:          1   (1 determinants, 6 intermediate states)

 State symmetry 3

 Number of electrons:     5    Spin symmetry=Sextet    Space symmetry=6
 Number of states:        1
 Number of CSFs:          1   (1 determinants, 6 intermediate states)

 State symmetry 4

 Number of electrons:     5    Spin symmetry=Sextet    Space symmetry=7
 Number of states:        1
 Number of CSFs:          1   (1 determinants, 6 intermediate states)

 Molecular orbitals read from record     4202.2  Type=RHF/CANONICAL (state 1.4)
 *** IN SYMMETRY 1 ORBITAL  1 SYMMETRY CONTAMINATION OF 0.247D-04 HAS BEEN REMOVED
 *** IN SYMMETRY 1 ORBITAL  2 SYMMETRY CONTAMINATION OF 0.932D-03 HAS BEEN REMOVED
 *** IN SYMMETRY 1 ORBITAL  3 SYMMETRY CONTAMINATION OF 0.846D-02 HAS BEEN REMOVED
 *** IN SYMMETRY 1 ORBITAL  4 SYMMETRY CONTAMINATION OF 0.153D-01 HAS BEEN REMOVED
 *** IN SYMMETRY 1 ORBITAL  5 SYMMETRY CONTAMINATION OF 0.275D-02 HAS BEEN REMOVED
 *** IN SYMMETRY 1 ORBITAL  6 SYMMETRY CONTAMINATION OF 0.289D-01 HAS BEEN REMOVED

 EXTRA SYMMETRY OF MOS IN SYMMETRY 1:   1 1 1 1 3 2 1 3 2 1   3 2 1 3 2 5 6 4 3 2   1 5 6 4 3 2 1 7 8 9  10 3 2 1 5 6 4 3 2 1
                                        7 8 910 5 6 4 3 2 1   5 6 4 3 2 7 8 910 1   3 2 1 3 2 1 3 2 1 3   2 1 1 3 2 1 1 1 1 1
                                        1 1 1 1 1 1 1 1
 *** IN SYMMETRY 2 ORBITAL  1 SYMMETRY CONTAMINATION OF 0.803D-03 HAS BEEN REMOVED
 *** IN SYMMETRY 2 ORBITAL  2 SYMMETRY CONTAMINATION OF 0.814D-02 HAS BEEN REMOVED
 EXTRA SYMMETRY OF MOS IN SYMMETRY 2:   1 1 1 1 1 3 2 1 2 3   1 6 5 4 2 3 1 6 5 4   2 3 1 3 2 6 5 4 1 1   3 2 6 5 4 1 1 1 1 1
                                        1 1 1 1 1 1 1
 *** IN SYMMETRY 3 ORBITAL  1 SYMMETRY CONTAMINATION OF 0.803D-03 HAS BEEN REMOVED
 *** IN SYMMETRY 3 ORBITAL  2 SYMMETRY CONTAMINATION OF 0.814D-02 HAS BEEN REMOVED
 EXTRA SYMMETRY OF MOS IN SYMMETRY 3:   1 1 1 1 1 3 2 1 2 3   1 6 5 4 2 3 1 6 5 4   2 3 1 3 2 6 5 4 1 1   3 2 6 5 4 1 1 1 1 1
                                        1 1 1 1 1 1 1
 *** IN SYMMETRY 4 ORBITAL  1 SYMMETRY CONTAMINATION OF 0.222D-03 HAS BEEN REMOVED
 EXTRA SYMMETRY OF MOS IN SYMMETRY 4:   1 1 1 1 3 2 1 3 2 1   5 6 4 1 3 2 1 5 6 4   3 2 1 3 2 1 5 6 4 1   1 1 1 1
 *** IN SYMMETRY 5 ORBITAL  1 SYMMETRY CONTAMINATION OF 0.409D-03 HAS BEEN REMOVED
 *** IN SYMMETRY 5 ORBITAL  2 SYMMETRY CONTAMINATION OF 0.381D-02 HAS BEEN REMOVED
 EXTRA SYMMETRY OF MOS IN SYMMETRY 5:   1 1 1 1 1 3 2 1 3 2   1 5 4 6 3 2 1 5 4 6   3 2 1 3 2 5 4 6 1 1   3 2 5 4 6 1 1 1 1 1
                                        1 1 1 1 1 1 1
 *** IN SYMMETRY 6 ORBITAL  1 SYMMETRY CONTAMINATION OF 0.588D-02 HAS BEEN REMOVED
 EXTRA SYMMETRY OF MOS IN SYMMETRY 6:   1 1 1 1 3 2 1 3 2 1   4 5 6 1 3 2 1 4 5 6   3 2 1 3 2 1 4 5 6 1   1 1 1 1
 *** IN SYMMETRY 7 ORBITAL  1 SYMMETRY CONTAMINATION OF 0.588D-02 HAS BEEN REMOVED
 EXTRA SYMMETRY OF MOS IN SYMMETRY 7:   1 1 1 1 3 2 1 3 2 1   4 5 6 1 3 2 1 4 5 6   3 2 1 3 2 1 4 5 6 1   1 1 1 1
 EXTRA SYMMETRY OF MOS IN SYMMETRY 8:   1 1 2 3 1 2 3 1 1 2   3 1 2 3

 Wavefunction dump at record             5202.2

 Convergence thresholds  0.10E-01 (gradient)  0.10E-05 (energy)  0.10E-02 (step length)

 Weight factors for state symmetry  1:    0.20000   0.20000
 Weight factors for state symmetry  2:    0.20000
 Weight factors for state symmetry  3:    0.20000
 Weight factors for state symmetry  4:    0.20000

 Number of orbital rotations:      870   (     9 Core/Active    516 Core/Virtual   0 Active/Active    345 Active/Virtual)
 Total number of variables:        879


 ITER. MIC  NCI  NEG     ENERGY(VAR)     ENERGY(PROJ)   ENERGY CHANGE     GRAD(0)  GRAD(ORB)   GRAD(CI)     STEP       TIME

   1   37   28    0    -942.68992564    -942.92794884   -0.23802321    0.32698656 0.00000003 0.00000000  0.10D+01      2.12
   2   20   32    0    -942.83775678    -942.87798386   -0.04022708    0.39280067 0.00000001 0.00000000  0.22D+00      4.38
   3   20   32    0    -942.87957067    -942.87977660   -0.00020593    0.01798414 0.00000000 0.00000000  0.21D-01      6.63
   4   19   20    0    -942.87977754    -942.87977755   -0.00000001    0.00010535 0.00000000 0.00000000  0.16D-03      8.79

 ** WVFN ****  CONVERGENCE REACHED, FINAL GRADIENT:  0.60D-08



 Results for state 1.1
 =====================

 !MCSCF STATE 1.1 Energy             -942.879777548602
 Nuclear energy                         0.00000000
 Kinetic energy                       942.87976555
 One electron energy                -1298.27541155
 Two electron energy                  355.39563400
 Virial ratio                           2.00000001

 !MCSCF STATE 1.1 Dipole moment         0.00000000     0.00000000     0.00000000
 Dipole moment /Debye                   0.00000000     0.00000000     0.00000000

 Results for state 2.1
 =====================

 !MCSCF STATE 2.1 Energy             -942.879777548387
 Nuclear energy                         0.00000000
 Kinetic energy                       942.87976554
 One electron energy                -1298.27541154
 Two electron energy                  355.39563399
 Virial ratio                           2.00000001

 !MCSCF STATE 2.1 Dipole moment         0.00000000     0.00000000     0.00000000
 Dipole moment /Debye                   0.00000000     0.00000000     0.00000000



 Results for state 1.4
 =====================

 !MCSCF STATE 1.4 Energy             -942.879777548536
 Nuclear energy                         0.00000000
 Kinetic energy                       942.87976559
 One electron energy                -1298.27541164
 Two electron energy                  355.39563409
 Virial ratio                           2.00000001

 !MCSCF STATE 1.4 Dipole moment         0.00000000     0.00000000     0.00000000
 Dipole moment /Debye                   0.00000000     0.00000000     0.00000000



 Results for state 1.6
 =====================

 !MCSCF STATE 1.6 Energy             -942.879777548547
 Nuclear energy                         0.00000000
 Kinetic energy                       942.87976555
 One electron energy                -1298.27541154
 Two electron energy                  355.39563400
 Virial ratio                           2.00000001

 !MCSCF STATE 1.6 Dipole moment         0.00000000     0.00000000     0.00000000
 Dipole moment /Debye                   0.00000000     0.00000000     0.00000000



 Results for state 1.7
 =====================

 !MCSCF STATE 1.7 Energy             -942.879777548547
 Nuclear energy                         0.00000000
 Kinetic energy                       942.87976555
 One electron energy                -1298.27541154
 Two electron energy                  355.39563400
 Virial ratio                           2.00000001

 !MCSCF STATE 1.7 Dipole moment         0.00000000     0.00000000     0.00000000
 Dipole moment /Debye                   0.00000000     0.00000000     0.00000000

 State-averaged charge density matrix saved on record  5202.2 (density set 1)


 NATURAL ORBITALS (state averaged)
 =================================

   Orb     Occ        Energy       Coefficients

                                   1 1s      1 1s      1 1s      1 1s      1 1s      1 1s      1 1s      1 1s      1 1s      1 1s   
                                   1 1s      1 1s      1 1s      1 1s      1 1s      1 1s      1 1s      1 1s      1 1s      1 1s   
                                   1 1s      1 1s      1 1s      1 1s      1 1s      1 1s      1 1s      1 1s      1 1s      1 1s   
                                   1 1s      1 3d0     1 3d2+    1 3d0     1 3d2+    1 3d0     1 3d2+    1 3d0     1 3d2+    1 3d0  
                                   1 3d2+    1 3d0     1 3d2+    1 3d0     1 3d2+    1 3d0     1 3d2+    1 3d0     1 3d2+    1 3d0  
                                   1 3d2+    1 3d0     1 3d2+    1 3d0     1 3d2+    1 3d0     1 3d2+    1 3d0     1 3d2+    1 3d0  
                                   1 3d2+    1 5g0     1 5g4+    1 5g2+    1 5g0     1 5g4+    1 5g2+    1 5g0     1 5g4+    1 5g2+ 
                                   1 5g0     1 5g4+    1 5g2+    1 5g0     1 5g4+    1 5g2+    1 7i6+    1 7i4+    1 7i2+    1 7i0  
                                   1 7i6+    1 7i4+    1 7i2+    1 7i0     1 7i6+    1 7i4+    1 7i2+    1 7i0  

   1.1  2.00000  -201.323107     0.000000  0.000001  0.000003  0.000015  0.000057  0.000195  0.000597  0.001689  0.004485  0.011261
                                 0.026739  0.059362  0.119947  0.209731  0.290035  0.269288  0.131407  0.023610  0.002090 -0.000801
                                -0.001135  0.000860  0.000128 -0.000031  0.000009 -0.000007  0.000003 -0.000001  0.001690 -0.000750
                                 0.000000  0.000000  0.000000  0.000000  0.000000  0.000000  0.000000  0.000000  0.000000  0.000000
                                 0.000000  0.000000  0.000000  0.000000  0.000000  0.000000  0.000000  0.000000  0.000000  0.000000
                                 0.000000  0.000000  0.000000  0.000000  0.000000  0.000000  0.000000  0.000000  0.000000  0.000000
                                 0.000000  0.000000  0.000000  0.000000  0.000000  0.000000  0.000000  0.000000  0.000000  0.000000
                                 0.000000  0.000000  0.000000  0.000000  0.000000  0.000000  0.000000  0.000000  0.000000  0.000000
                                 0.000000  0.000000  0.000000  0.000000  0.000000  0.000000  0.000000  0.000000

   2.1  2.00000   -23.672260    -0.000000 -0.000000 -0.000001 -0.000004 -0.000017 -0.000058 -0.000178 -0.000504 -0.001343 -0.003395
                                -0.008179 -0.018675 -0.039835 -0.077046 -0.128294 -0.160602 -0.094560  0.128021  0.421824  0.456891
                                 0.177965 -0.000064 -0.001292  0.001049 -0.000191  0.000203  0.000018  0.000059 -0.019997  0.014822
                                -0.000006  0.000000  0.000000  0.000000  0.000000  0.000000  0.000000  0.000000  0.000000  0.000000
                                 0.000000  0.000000  0.000000  0.000000  0.000000  0.000000  0.000000  0.000000  0.000000  0.000000
                                 0.000000  0.000000  0.000000  0.000000  0.000000  0.000000  0.000000  0.000000  0.000000  0.000000
                                 0.000000  0.000000  0.000000  0.000000  0.000000  0.000000  0.000000  0.000000  0.000000  0.000000
                                 0.000000  0.000000  0.000000  0.000000  0.000000  0.000000  0.000000  0.000000  0.000000  0.000000
                                 0.000000  0.000000  0.000000  0.000000  0.000000  0.000000  0.000000  0.000000

   3.1  2.00000    -2.992938     0.000000  0.000000  0.000000  0.000002  0.000006  0.000021  0.000064  0.000181  0.000482  0.001220
                                 0.002941  0.006741  0.014456  0.028314  0.048144  0.062777  0.038698 -0.057250 -0.238694 -0.377997
                                -0.140569  0.357096  0.595027  0.311573  0.030742 -0.007719  0.001932 -0.001001  0.006878  0.008381
                                 0.000196  0.000000  0.000000  0.000000  0.000000  0.000000  0.000000  0.000000  0.000000  0.000000
                                 0.000000  0.000000  0.000000  0.000000  0.000000  0.000000  0.000000  0.000000  0.000000  0.000000
                                 0.000000  0.000000  0.000000  0.000000  0.000000  0.000000  0.000000  0.000000  0.000000  0.000000
                                 0.000000  0.000000  0.000000  0.000000  0.000000  0.000000  0.000000  0.000000  0.000000  0.000000
                                 0.000000  0.000000  0.000000  0.000000  0.000000  0.000000  0.000000  0.000000  0.000000  0.000000
                                 0.000000  0.000000  0.000000  0.000000  0.000000  0.000000  0.000000  0.000000

   4.1  1.00000    -0.078285    -0.000000 -0.000000 -0.000000 -0.000000 -0.000001 -0.000004 -0.000014 -0.000039 -0.000103 -0.000262
                                -0.000630 -0.001449 -0.003101 -0.006102 -0.010360 -0.013670 -0.008292  0.012211  0.055538  0.082963
                                 0.014781 -0.063327 -0.180460 -0.214064 -0.040971  0.353706  0.592599  0.233074  0.015856 -0.046462
                                 0.003127  0.000000  0.000000  0.000000  0.000000  0.000000  0.000000  0.000000  0.000000  0.000000
                                 0.000000  0.000000  0.000000  0.000000  0.000000  0.000000  0.000000  0.000000  0.000000  0.000000
                                 0.000000  0.000000  0.000000  0.000000  0.000000  0.000000  0.000000  0.000000  0.000000  0.000000
                                 0.000000  0.000000  0.000000  0.000000  0.000000  0.000000  0.000000  0.000000  0.000000  0.000000
                                 0.000000  0.000000  0.000000  0.000000  0.000000  0.000000  0.000000  0.000000  0.000000  0.000000
                                 0.000000  0.000000  0.000000  0.000000  0.000000  0.000000  0.000000  0.000000

   5.1  0.80000     0.099881     0.000000  0.000000  0.000000  0.000000  0.000000  0.000000  0.000000  0.000000  0.000000  0.000000
                                 0.000000  0.000000  0.000000  0.000000  0.000000  0.000000  0.000000  0.000000  0.000000  0.000000
                                 0.000000  0.000000  0.000000  0.000000  0.000000  0.000000  0.000000  0.000000  0.000000  0.000000
                                 0.000000  0.000184  0.000000  0.001726  0.000000  0.009138  0.000000  0.031727  0.000000  0.083809
                                 0.000000  0.168004  0.000000  0.249867  0.000000  0.288185  0.000000  0.270544  0.000000  0.199439
                                 0.000000  0.087557  0.000000  0.009929  0.000000  0.000761  0.000000  0.000957  0.000000 -0.000199
                                 0.000000  0.000000  0.000000  0.000000  0.000000  0.000000  0.000000  0.000000  0.000000  0.000000
                                 0.000000  0.000000  0.000000  0.000000  0.000000  0.000000  0.000000  0.000000  0.000000  0.000000
                                 0.000000  0.000000  0.000000  0.000000  0.000000  0.000000  0.000000  0.000000

   6.1  0.80000     0.099881     0.000000  0.000000  0.000000  0.000000  0.000000  0.000000  0.000000  0.000000  0.000000  0.000000
                                 0.000000  0.000000  0.000000  0.000000  0.000000  0.000000  0.000000  0.000000  0.000000  0.000000
                                 0.000000  0.000000  0.000000  0.000000  0.000000  0.000000  0.000000  0.000000  0.000000  0.000000
                                 0.000000  0.000000  0.000184  0.000000  0.001726  0.000000  0.009138  0.000000  0.031727  0.000000
                                 0.083809  0.000000  0.168004  0.000000  0.249867  0.000000  0.288185  0.000000  0.270544  0.000000
                                 0.199439  0.000000  0.087557  0.000000  0.009929  0.000000  0.000761  0.000000  0.000957  0.000000
                                -0.000199  0.000000  0.000000  0.000000  0.000000  0.000000  0.000000  0.000000  0.000000  0.000000
                                 0.000000  0.000000  0.000000  0.000000  0.000000  0.000000  0.000000  0.000000  0.000000  0.000000
                                 0.000000  0.000000  0.000000  0.000000  0.000000  0.000000  0.000000  0.000000

                                   1 2px     1 2px     1 2px     1 2px     1 2px     1 2px     1 2px     1 2px     1 2px     1 2px  
                                   1 2px     1 2px     1 2px     1 2px     1 2px     1 2px     1 2px     1 2px     1 2px     1 2px  
                                   1 2px     1 2px     1 2px     1 4f1+    1 4f3+    1 4f1+    1 4f3+    1 4f1+    1 4f3+    1 4f1+ 
                                   1 4f3+    1 4f1+    1 4f3+    1 4f1+    1 4f3+    1 6h1+    1 6h3+    1 6h5+    1 6h1+    1 6h3+ 
                                   1 6h5+    1 6h1+    1 6h3+    1 6h5+    1 6h1+    1 6h3+    1 6h5+ 

   1.2  2.00000   -19.824029     0.000002  0.000022  0.000137  0.000636  0.002425  0.008015  0.023378  0.059924  0.129823  0.224221
                                 0.298732  0.276338  0.140629  0.028822  0.002002  0.000533  0.000068  0.000041 -0.000008  0.000004
                                -0.000546  0.000416 -0.000001  0.000000  0.000000  0.000000  0.000000  0.000000  0.000000  0.000000
                                 0.000000  0.000000  0.000000  0.000000  0.000000  0.000000  0.000000  0.000000  0.000000  0.000000
                                 0.000000  0.000000  0.000000  0.000000  0.000000  0.000000  0.000000

   2.2  2.00000    -1.844297    -0.000001 -0.000008 -0.000047 -0.000219 -0.000840 -0.002788 -0.008218 -0.021440 -0.047836 -0.085289
                                -0.119593 -0.109821  0.017656  0.237981  0.394048  0.342305  0.136532  0.014053 -0.000003  0.000304
                                -0.003121  0.006628 -0.000072  0.000000  0.000000  0.000000  0.000000  0.000000  0.000000  0.000000
                                 0.000000  0.000000  0.000000  0.000000  0.000000  0.000000  0.000000  0.000000  0.000000  0.000000
                                 0.000000  0.000000  0.000000  0.000000  0.000000  0.000000  0.000000

                                   1 2py     1 2py     1 2py     1 2py     1 2py     1 2py     1 2py     1 2py     1 2py     1 2py  
                                   1 2py     1 2py     1 2py     1 2py     1 2py     1 2py     1 2py     1 2py     1 2py     1 2py  
                                   1 2py     1 2py     1 2py     1 4f1-    1 4f3-    1 4f1-    1 4f3-    1 4f1-    1 4f3-    1 4f1- 
                                   1 4f3-    1 4f1-    1 4f3-    1 4f1-    1 4f3-    1 6h1-    1 6h3-    1 6h5-    1 6h1-    1 6h3- 
                                   1 6h5-    1 6h1-    1 6h3-    1 6h5-    1 6h1-    1 6h3-    1 6h5- 

   1.3  2.00000   -19.824029     0.000002  0.000022  0.000137  0.000636  0.002425  0.008015  0.023378  0.059924  0.129823  0.224221
                                 0.298732  0.276338  0.140629  0.028822  0.002002  0.000533  0.000068  0.000041 -0.000008  0.000004
[...]
                                -0.119552 -0.109594  0.017861  0.237264  0.393281  0.342880  0.136654  0.013947  0.000333  0.000522
                                -0.003398  0.007265 -0.000021  0.000000  0.000000  0.000000  0.000000  0.000000  0.000000  0.000000
                                 0.000000  0.000000  0.000000  0.000000  0.000000  0.000000  0.000000  0.000000  0.000000  0.000000
                                 0.000000  0.000000  0.000000  0.000000  0.000000  0.000000  0.000000

                                   1 3d1+    1 3d1+    1 3d1+    1 3d1+    1 3d1+    1 3d1+    1 3d1+    1 3d1+    1 3d1+    1 3d1+ 
                                   1 3d1+    1 3d1+    1 3d1+    1 3d1+    1 3d1+    1 5g1+    1 5g3+    1 5g1+    1 5g3+    1 5g1+ 
                                   1 5g3+    1 5g1+    1 5g3+    1 5g1+    1 5g3+    1 7i5+    1 7i3+    1 7i1+    1 7i5+    1 7i3+ 
                                   1 7i1+    1 7i5+    1 7i3+    1 7i1+ 

   1.6  0.80000     0.258352     0.000185  0.001733  0.009175  0.031851  0.084201  0.169258  0.251086  0.289875  0.271723  0.192391
                                 0.085691  0.017199  0.000417  0.000399  0.000720  0.000000  0.000000  0.000000  0.000000  0.000000
                                 0.000000  0.000000  0.000000  0.000000  0.000000  0.000000  0.000000  0.000000  0.000000  0.000000
                                 0.000000  0.000000  0.000000  0.000000

                                   1 3d1-    1 3d1-    1 3d1-    1 3d1-    1 3d1-    1 3d1-    1 3d1-    1 3d1-    1 3d1-    1 3d1- 
                                   1 3d1-    1 3d1-    1 3d1-    1 3d1-    1 3d1-    1 5g1-    1 5g3-    1 5g1-    1 5g3-    1 5g1- 
                                   1 5g3-    1 5g1-    1 5g3-    1 5g1-    1 5g3-    1 7i5-    1 7i3-    1 7i1-    1 7i5-    1 7i3- 
                                   1 7i1-    1 7i5-    1 7i3-    1 7i1- 

   1.7  0.80000     0.258352     0.000185  0.001733  0.009175  0.031851  0.084201  0.169258  0.251086  0.289875  0.271723  0.192391
                                 0.085691  0.017199  0.000417  0.000399  0.000720  0.000000  0.000000  0.000000  0.000000  0.000000
                                 0.000000  0.000000  0.000000  0.000000  0.000000  0.000000  0.000000  0.000000  0.000000  0.000000
                                 0.000000  0.000000  0.000000  0.000000

 Total charge:  -1.000000000000
 

 EXTRA SYMMETRY OF MOS IN SYMMETRY 1:   1 1 1 1 2 3 1 3 2 1   2 3 1 2 3 4 6 5 3 2   1 6 5 4 3 2 1 9 810   7 3 2 1 6 4 5 2 3 1
                                        9 710 8 5 6 4 2 3 1   4 5 6 3 2 7 9 810 1   2 3 1 2 3 1 2 3 1 2   3 1 1 2 3 1 1 1 1 1
                                        1 1 1 1 1 1 1 1
 EXTRA SYMMETRY OF MOS IN SYMMETRY 2:   1 1 1 1 1 3 2 1 2 3   1 6 4 5 2 3 1 5 6 4   2 3 1 2 3 4 5 6 1 1   2 3 6 4 5 1 1 1 1 1
                                        1 1 1 1 1 1 1
 EXTRA SYMMETRY OF MOS IN SYMMETRY 3:   1 1 1 1 1 2 3 1 2 3   1 4 5 6 2 3 1 5 4 6   2 3 1 3 2 6 4 5 1 1   2 3 6 4 5 1 1 1 1 1
                                        1 1 1 1 1 1 1
 EXTRA SYMMETRY OF MOS IN SYMMETRY 4:   1 1 1 1 3 2 1 2 3 1   6 4 5 1 3 2 1 6 5 4   3 2 1 3 2 1 5 6 4 1   1 1 1 1
 EXTRA SYMMETRY OF MOS IN SYMMETRY 5:   1 1 1 1 1 3 2 1 2 3   1 6 4 5 3 2 1 5 6 4   2 3 1 3 2 6 4 5 1 1   3 2 5 6 4 1 1 1 1 1
                                        1 1 1 1 1 1 1
 EXTRA SYMMETRY OF MOS IN SYMMETRY 6:   1 1 1 1 3 2 1 2 3 1   4 6 5 1 2 3 1 4 6 5   3 2 1 3 2 1 4 6 5 1   1 1 1 1
 EXTRA SYMMETRY OF MOS IN SYMMETRY 7:   1 1 1 1 2 3 1 2 3 1   6 5 4 1 2 3 1 4 5 6   3 2 1 3 2 1 4 6 5 1   1 1 1 1
 EXTRA SYMMETRY OF MOS IN SYMMETRY 8:   1 1 3 2 1 3 2 1 1 2   3 1 2 3

 Natural orbital dump (state averaged) at molpro section  5202.2    (Orbital set 2)


 CI vector for state symmetry 1
 ==============================

 0a a a a          1.0000000   0.0000000
 a0 a a a          0.0000000   1.0000000

 TOTAL ENERGIES                      -942.86293345  -942.86293345

 CI vector for state symmetry 2
 ==============================

 aa 0 a a          1.0000000

 TOTAL ENERGIES                      -942.86293345

 CI vector for state symmetry 3
 ==============================

 aa a 0 a          1.0000000

 TOTAL ENERGIES                      -942.86293345

 CI vector for state symmetry 4
 ==============================

 aa a a 0          1.0000000

 TOTAL ENERGIES                      -942.86293345



 **********************************************************************************************************************************
 DATASETS  * FILE   NREC   LENGTH (MB)   RECORD NAMES
              1      20      656.43       500      610      700      900      950      970     1000      129      960     1100   
                                          VAR    BASINP    GEOM    SYMINP    ZMAT    AOBASIS   BASIS     P2S    ABASIS      S 
                                         1400     1410     1200     1210     1080     1600     1650     1300     1700     1380   
                                           T        V       H0       H01     AOSYM     SMH    MOLCAS    ERIS     OPER     JKOP   

              2      14       31.94       200      700     1000      520     4202     5202     2101     2103     2105     5202(1)
                                        OPTIONS   GEOM     BASIS   MCVARS     RHF     MCSCF     RHF      RHF      RHF     MCSCF   
                                         2107     2109     2110     2111   
                                          RHF      RHF      RHF      RHF  

 PROGRAMS   *        TOTAL     MULTI       RHF  RCCSD(T)       RHF  RCCSD(T)       RHF  RCCSD(T)       RHF     MULTI       POP
 CPU TIMES  *      2138.98     12.70      6.91     63.01      2.98    165.10      3.36    305.14      0.49     10.12      0.01
 REAL TIME  *      2229.98 SEC
 DISK USED  *         2.72 GB      
 **********************************************************************************************************************************

1PROGRAM * RHF-SCF (OPEN SHELL)       Authors: W. Meyer, H.-J. Werner


 NUMBER OF ELECTRONS:      14+   10-    SPACE SYMMETRY=4    SPIN SYMMETRY: Quintet 
 CONVERGENCE THRESHOLDS:    1.00E-05 (Density)    1.00E-07 (Energy)
 MAX. NUMBER OF ITERATIONS:        0
 INTERPOLATION TYPE:            DIIS
 INTERPOLATION STEPS:              2 (START)      1 (STEP)
 LEVEL SHIFTS:                 -0.30 (CLOSED)  0.00 (OPEN) 


 Singly occupied orbitals:      5.1       6.1       1.6       1.7
 Molecular orbitals read from record     5202.2  Type=MCSCF/NATURAL  

 Molecular orbital dump at record        2113.2

 ITERATION    DDIFF          GRAD             ENERGY        2-EL.EN.            DIPOLE MOMENTS         DIIS   ORB.
    1      0.000D+00      0.000D+00      -942.86293345    718.189283    0.00000    0.00000    0.00000    0    start

 Final alpha occupancy:   6   2   2   0   2   1   1   0
 Final beta  occupancy:   4   2   2   0   2   0   0   0

 !RHF STATE 1.4 Energy               -942.862933446629
 Nuclear energy                         0.00000000
 One-electron energy                -1301.95757483
 Two-electron energy                  359.09464139
 Virial quotient                       -0.99999823
 !RHF STATE 1.4 Dipole moment           0.00000000     0.00000000     0.00000000
 Dipole moment /Debye                   0.00000000     0.00000000     0.00000000

 Orbital energies:

         1.1          2.1          3.1          4.1          5.1          6.1          7.1          8.1
   -201.162759   -23.510681    -2.832796    -0.015348     0.258352     0.258352     0.111292     0.126702

         1.2          2.2          3.2          4.2
    -19.662719    -1.684858     0.102401     0.177050

         1.3          2.3          3.3          4.3
    -19.662719    -1.684858     0.102401     0.177050

         1.4          2.4
      0.258352     0.126702

         1.5          2.5          3.5          4.5
    -19.662719    -1.684858     0.102401     0.177050

         1.6          2.6          3.6
      0.258352     0.126702     0.256467

         1.7          2.7          3.7
      0.258352     0.126702     0.256467

         1.8          2.8
      0.369183     0.922974

 HOMO      6.1     0.258352 =       7.0301eV
 LUMO      3.2     0.102401 =       2.7865eV
 LUMO-HOMO        -0.155951 =      -4.2436eV


 **********************************************************************************************************************************
 DATASETS  * FILE   NREC   LENGTH (MB)   RECORD NAMES
              1      20      656.43       500      610      700      900      950      970     1000      129      960     1100   
                                          VAR    BASINP    GEOM    SYMINP    ZMAT    AOBASIS   BASIS     P2S    ABASIS      S 
                                         1400     1410     1200     1210     1080     1600     1650     1300     1700     1380   
                                           T        V       H0       H01     AOSYM     SMH    MOLCAS    ERIS     OPER     JKOP   

              2      15       35.31       200      700     1000      520     4202     5202     2101     2103     2105     5202(1)
                                        OPTIONS   GEOM     BASIS   MCVARS     RHF     MCSCF     RHF      RHF      RHF     MCSCF   
                                         2107     2109     2110     2111     2113   
                                          RHF      RHF      RHF      RHF      RHF  

 PROGRAMS   *        TOTAL       RHF     MULTI       RHF  RCCSD(T)       RHF  RCCSD(T)       RHF  RCCSD(T)       RHF     MULTI
 CPU TIMES  *      2139.46      0.48     12.70      6.91     63.01      2.98    165.10      3.36    305.14      0.49     10.12
 REAL TIME  *      2230.53 SEC
 DISK USED  *         2.72 GB      
 **********************************************************************************************************************************
 SETTING SCF(8)         =      -942.86293345  AU                              
 SETTING _CC_NORM_MAX   =         2.00000000                                  


1PROGRAM * CCSD (Restricted open-shell coupled cluster)     Authors: C. Hampel, H.-J. Werner, 1991, M. Deegan, P.J. Knowles, 1992


 Convergence thresholds:  THRVAR = 1.00D-08  THRDEN = 1.00D-06

 CCSD(T)     terms to be evaluated (factor= 1.000)


 Number of closed-shell orbitals:  10 (   4   2   2   0   2   0   0   0 )
 Number of active  orbitals:        4 (   2   0   0   0   0   1   1   0 )
 Number of external orbitals:     331 (  82  45  45  34  45  33  33  14 )

 Memory could be reduced to 109.56 Mwords without degradation in triples

 Number of N-1 electron functions:              24
 Number of N-2 electron functions:             276
 Number of singly external CSFs:              1448
 Number of doubly external CSFs:           3104980
 Total number of CSFs:                     3106428

 Molecular orbitals read from record     2113.2  Type=RHF/CANONICAL (state 1.4)

 Integral transformation finished. Total CPU:   2.89 sec, npass=  1  Memory used:  20.94 MW

 Starting RMP2 calculation

 Wavefunction is spin-projected

 ITER.      SQ.NORM     CORR.ENERGY   TOTAL ENERGY   ENERGY CHANGE        DEN1      VAR(S)    VAR(P)  DIIS     TIME
   1      1.12319164    -0.92072141  -943.78365486    -0.92072141    -0.00239706  0.43D-04  0.24D-02  1  1     3.07
   2      1.13065960    -0.92338077  -943.78631422    -0.00265936    -0.00009776  0.35D-05  0.16D-03  2  2     3.23
   3      1.13302392    -0.92386381  -943.78679725    -0.00048304    -0.00000291  0.19D-06  0.52D-05  3  3     3.40
   4      1.13340001    -0.92391605  -943.78684949    -0.00005224    -0.00000009  0.13D-07  0.16D-06  4  4     3.59
   5      1.13342544    -0.92391711  -943.78685056    -0.00000107    -0.00000000  0.12D-08  0.58D-08  5  5     3.80
   6      1.13342706    -0.92391706  -943.78685050     0.00000006    -0.00000000  0.11D-09  0.13D-09  6  6     4.02

 Norm of t1 vector:      0.05053997      S-energy:    -0.00490184      T1 diagnostic:  0.00433693
 Norm of t2 vector:      0.36176342      P-energy:    -0.91901521
                                         Alpha-Beta:  -0.63458593
                                         Alpha-Alpha: -0.19225224
                                         Beta-Beta:   -0.09217705

 Spin contamination <S**2-Sz**2-Sz>     0.00000000
  Reference energy                   -942.862933446629
  RHF-RMP2 correlation energy          -0.923917057937
 !RHF-RMP2 energy                    -943.786850504566
 (NB above energy spin projected)

 Starting RCCSD calculation

 ITER.      SQ.NORM     CORR.ENERGY   TOTAL ENERGY   ENERGY CHANGE        DEN1      VAR(S)    VAR(P)  DIIS     TIME
   1      1.12597971    -0.90225446  -943.76518791    -0.90225446    -0.01133355  0.56D-02  0.41D-02  1  1    10.96
   2      1.15260784    -0.91242193  -943.77535538    -0.01016747    -0.00227951  0.22D-02  0.15D-02  2  2    17.77
   3      1.18179079    -0.91625728  -943.77919072    -0.00383535    -0.00077163  0.12D-02  0.38D-03  3  3    24.55
   4      1.22221308    -0.92001146  -943.78294491    -0.00375418    -0.00013909  0.21D-03  0.69D-04  4  4    31.43
   5      1.23872969    -0.92081416  -943.78374761    -0.00080270    -0.00003803  0.57D-04  0.28D-04  5  5    38.35
   6      1.24687923    -0.92113608  -943.78406953    -0.00032192    -0.00001372  0.18D-04  0.12D-04  6  6    45.21
   7      1.25147452    -0.92124542  -943.78417887    -0.00010933    -0.00000354  0.61D-05  0.24D-05  6  1    52.04
   8      1.25319393    -0.92124672  -943.78418017    -0.00000130    -0.00000084  0.17D-05  0.36D-06  6  2    58.84
   9      1.25482226    -0.92130092  -943.78423437    -0.00005420    -0.00000020  0.39D-06  0.70D-07  6  3    65.88
  10      1.25457840    -0.92127984  -943.78421329     0.00002108    -0.00000004  0.80D-07  0.16D-07  6  5    72.80
  11      1.25483934    -0.92128678  -943.78422023    -0.00000694    -0.00000001  0.71D-08  0.31D-08  6  4    79.62
  12      1.25480272    -0.92128504  -943.78421849     0.00000174    -0.00000000  0.91D-09  0.81D-09  6  1    86.61
  13      1.25482930    -0.92128614  -943.78421959    -0.00000109    -0.00000000  0.19D-09  0.21D-09  6  6    93.43
  14      1.25483051    -0.92128649  -943.78421994    -0.00000036    -0.00000000  0.94D-10  0.56D-10  6  2   100.34

 Norm of t1 vector:      0.28669619      S-energy:    -0.00574210      T1 diagnostic:  0.03970409
                                                                       D1 diagnostic:  0.17900554
 Norm of t2 vector:      0.41549466      P-energy:    -0.91554440
                                         Alpha-Beta:  -0.64519180
                                         Alpha-Alpha: -0.18136176
                                         Beta-Beta:   -0.08899084

 Singles amplitudes (print threshold =  0.500E-01):

         I         SYM. A    A   T(IA) [Alpha-Alpha]

         4         1         3     -0.17609485
         4         1         6     -0.13369699
         4         1         9     -0.06381698
 
         I         SYM. A    A   T(IA) [Beta-Beta]

         4         1         3     -0.11029623
         4         1         6     -0.05921783

 Doubles amplitudes (print threshold =  0.500E-01):

         I         J         SYM. A    SYM. B    A         B      T(IJ, AB) [Alpha-Beta]

         4         4         2         2         2         2     -0.08970343
         4         4         2         2         2         3      0.05009815
         4         4         2         2         3         2      0.05009815
         4         4         3         3         2         2     -0.08970343
         4         4         3         3         2         3      0.05009815
         4         4         3         3         3         2      0.05009815
         4         4         5         5         2         2     -0.08224618

 Spin contamination <S**2-Sz**2-Sz>     0.00000000

 Memory could be reduced to 117.03 Mwords without degradation in triples
 

  Correlated core orbitals:             1.1       2.1       3.1       1.2       2.2       1.3       2.3       1.5       2.5
  Orbital energies:                  -201.1631  -23.5439   -2.9554  -19.6973   -1.8252  -19.6973   -1.8252  -19.6937   -1.8599
 
  RCCSD core-core energy               -0.584794273885
  RCCSD core-valence energy            -0.238055695969
  RCCSD valence correlation energy     -0.098436524642
 

 RESULTS
 =======

  Reference energy                   -942.862933446629
  RCCSD singles energy                 -0.005742095873
  RCCSD pair energy                    -0.915544398624
  RCCSD correlation energy             -0.921286494496
  Triples (T) contribution             -0.024357672630
  Total correlation energy             -0.945644167126
 
  RHF-RCCSD energy                   -943.784219941125
  RHF-RCCSD[T] energy                -943.809796675118
  RHF-RCCSD-T energy                 -943.808451645199
 !RHF-RCCSD(T) energy                -943.808577613755

 Program statistics:

 Available memory in ccsd:               511998192
 Min. memory needed in ccsd:               8986382
 Max. memory used in ccsd:                12870898
 Max. memory used in cckext:               9515153 (14 integral passes)
 Max. memory used in cckint:              20939074 ( 1 integral passes)



 **********************************************************************************************************************************
 DATASETS  * FILE   NREC   LENGTH (MB)   RECORD NAMES
              1      20      656.43       500      610      700      900      950      970     1000      129      960     1100   
                                          VAR    BASINP    GEOM    SYMINP    ZMAT    AOBASIS   BASIS     P2S    ABASIS      S 
                                         1400     1410     1200     1210     1080     1600     1650     1300     1700     1380   
                                           T        V       H0       H01     AOSYM     SMH    MOLCAS    ERIS     OPER     JKOP   

              2      15       35.31       200      700     1000      520     4202     5202     2101     2103     2105     5202(1)
                                        OPTIONS   GEOM     BASIS   MCVARS     RHF     MCSCF     RHF      RHF      RHF     MCSCF   
                                         2107     2109     2110     2111     2113   
                                          RHF      RHF      RHF      RHF      RHF  

 PROGRAMS   *        TOTAL  RCCSD(T)       RHF     MULTI       RHF  RCCSD(T)       RHF  RCCSD(T)       RHF  RCCSD(T)       RHF
 CPU TIMES  *      2579.61    440.16      0.48     12.70      6.91     63.01      2.98    165.10      3.36    305.14      0.49
 REAL TIME  *      2687.95 SEC
 DISK USED  *         2.78 GB      
 **********************************************************************************************************************************
 SETTING CCSD(8)        =      -943.80857761  AU                              
 Output type csv         
                                                                                                                                                                                                                                                                

        SCF,CCSD
   -942.8842824,   -943.7864329
   -942.8797775,   -943.7837180
   -942.7642034,   -943.7050372
   -942.6684475,   -943.5295950
   -942.6707777,   -943.5492670
   -937.0764258,   -937.7988249
   -895.4538603,   -895.9044453
   -942.8629334,   -943.8085776
                                                  

        RCCSD(T)        RHF-SCF         MULTI           RHF-SCF         RCCSD(T)        RHF-SCF         RCCSD(T)        RHF-SCF 
   -943.80857761   -942.86293345   -942.86293345   -942.86548057   -895.90444533   -895.45386026   -937.79882493   -937.07642577
 **********************************************************************************************************************************
 Variable memory released
