 Entering Gaussian System, Link 0=g16
 Initial command:
 /home1/apps/gaussian/16rA.03/g16/l1.exe "/tmp/Gau-226932.inp" -scrdir="/tmp/"
 Entering Link 1 = /home1/apps/gaussian/16rA.03/g16/l1.exe PID=    226933.
  
 Copyright (c) 1988,1990,1992,1993,1995,1998,2003,2009,2016,
            Gaussian, Inc.  All Rights Reserved.
  
 This is part of the Gaussian(R) 16 program.  It is based on
 the Gaussian(R) 09 system (copyright 2009, Gaussian, Inc.),
 the Gaussian(R) 03 system (copyright 2003, Gaussian, Inc.),
 the Gaussian(R) 98 system (copyright 1998, Gaussian, Inc.),
 the Gaussian(R) 94 system (copyright 1995, Gaussian, Inc.),
 the Gaussian 92(TM) system (copyright 1992, Gaussian, Inc.),
 the Gaussian 90(TM) system (copyright 1990, Gaussian, Inc.),
 the Gaussian 88(TM) system (copyright 1988, Gaussian, Inc.),
 the Gaussian 86(TM) system (copyright 1986, Carnegie Mellon
 University), and the Gaussian 82(TM) system (copyright 1983,
 Carnegie Mellon University). Gaussian is a federally registered
 trademark of Gaussian, Inc.
  
 This software contains proprietary and confidential information,
 including trade secrets, belonging to Gaussian, Inc.
  
 This software is provided under written license and may be
 used, copied, transmitted, or stored only in accord with that
 written license.
  
 The following legend is applicable only to US Government
 contracts under FAR:
  
                    RESTRICTED RIGHTS LEGEND
  
 Use, reproduction and disclosure by the US Government is
 subject to restrictions as set forth in subparagraphs (a)
 and (c) of the Commercial Computer Software - Restricted
 Rights clause in FAR 52.227-19.
  
 Gaussian, Inc.
 340 Quinnipiac St., Bldg. 40, Wallingford CT 06492
  
  
 ---------------------------------------------------------------
 Warning -- This program may not be used in any manner that
 competes with the business of Gaussian, Inc. or will provide
 assistance to any competitor of Gaussian, Inc.  The licensee
 of this program is prohibited from giving any competitor of
 Gaussian, Inc. access to this program.  By using this program,
 the user acknowledges that Gaussian, Inc. is engaged in the
 business of creating and licensing software in the field of
 computational chemistry and represents and warrants to the
 licensee that it is not a competitor of Gaussian, Inc. and that
 it will not use this program in any manner prohibited above.
 ---------------------------------------------------------------
  

 Cite this work as:
 Gaussian 16, Revision A.03,
 M. J. Frisch, G. W. Trucks, H. B. Schlegel, G. E. Scuseria, 
 M. A. Robb, J. R. Cheeseman, G. Scalmani, V. Barone, 
 G. A. Petersson, H. Nakatsuji, X. Li, M. Caricato, A. V. Marenich, 
 J. Bloino, B. G. Janesko, R. Gomperts, B. Mennucci, H. P. Hratchian, 
 J. V. Ortiz, A. F. Izmaylov, J. L. Sonnenberg, D. Williams-Young, 
 F. Ding, F. Lipparini, F. Egidi, J. Goings, B. Peng, A. Petrone, 
 T. Henderson, D. Ranasinghe, V. G. Zakrzewski, J. Gao, N. Rega, 
 G. Zheng, W. Liang, M. Hada, M. Ehara, K. Toyota, R. Fukuda, 
 J. Hasegawa, M. Ishida, T. Nakajima, Y. Honda, O. Kitao, H. Nakai, 
 T. Vreven, K. Throssell, J. A. Montgomery, Jr., J. E. Peralta, 
 F. Ogliaro, M. J. Bearpark, J. J. Heyd, E. N. Brothers, K. N. Kudin, 
 V. N. Staroverov, T. A. Keith, R. Kobayashi, J. Normand, 
 K. Raghavachari, A. P. Rendell, J. C. Burant, S. S. Iyengar, 
 J. Tomasi, M. Cossi, J. M. Millam, M. Klene, C. Adamo, R. Cammi, 
 J. W. Ochterski, R. L. Martin, K. Morokuma, O. Farkas, 
 J. B. Foresman, and D. J. Fox, Gaussian, Inc., Wallingford CT, 2016.
 
 ******************************************
 Gaussian 16:  ES64L-G16RevA.03 25-Dec-2016
                12-Feb-2018 
 ******************************************
 %mem=64GB
 %cpu=0-31
 SetSPE:  set environment variable "MP_BIND" = "yes"
 SetSPE:  set environment variable "MP_BLIST" = "0,1,2,3,4,5,6,7,8,9,10,11,12,13,14,15,16,17,18,19,20,21,22,23,24,25,26,27,28,29,30,31"
 Will use up to   32 processors via shared memory.
 %chk=ScH
 ----------------------------------------------------------------------
 #P ROCCSD(T)=(maxcyc=150, Full)/Gen 5d 7f SCF=(maxcycles=300) Integral
 (NoXCTest) MaxDisk=500GB Pop=Regular Pseudo=Read
 ----------------------------------------------------------------------
 1/38=1,172=1/1;
 2/12=2,17=6,18=5,40=1/2;
 3/5=7,8=11,11=2,16=1,17=8,25=1,30=1,47=8,116=101/1,2,3;
 4//1;
 5/5=2,7=300,38=5/2;
 8/5=-1,6=4,9=120000,10=90/1,4;
 9/5=7,6=150,14=2/13;
 6//1;
 99/5=1,9=1/99;
 Leave Link    1 at Mon Feb 12 16:35:57 2018, MaxMem=  8589934592 cpu:               7.5 elap:               0.2
 (Enter /home1/apps/gaussian/16rA.03/g16/l101.exe)
 ---
 ScH
 ---
 Symbolic Z-matrix:
 Charge =  0 Multiplicity = 1
 Sc                    0.        0.        0. 
 H                     0.        0.        1.1 
 
 ITRead=  0  0
 MicOpt= -1 -1
 NAtoms=      2 NQM=        2 NQMF=       0 NMMI=      0 NMMIF=      0
                NMic=       0 NMicF=      0.
                    Isotopes and Nuclear Properties:
 (Nuclear quadrupole moments (NQMom) in fm**2, nuclear magnetic moments (NMagM)
  in nuclear magnetons)

  Atom         1           2
 IAtWgt=          45           1
 AtmWgt=  44.9559136   1.0078250
 NucSpn=           7           1
 AtZEff=  -0.0000000  -0.0000000
 NQMom=  -22.0000000   0.0000000
 NMagM=    4.7564830   2.7928460
 AtZNuc=  21.0000000   1.0000000
 Leave Link  101 at Mon Feb 12 16:35:58 2018, MaxMem=  8589934592 cpu:               2.9 elap:               0.1
 (Enter /home1/apps/gaussian/16rA.03/g16/l202.exe)
                          Input orientation:                          
 ---------------------------------------------------------------------
 Center     Atomic      Atomic             Coordinates (Angstroms)
 Number     Number       Type             X           Y           Z
 ---------------------------------------------------------------------
      1         21           0        0.000000    0.000000    0.000000
      2          1           0        0.000000    0.000000    1.100000
 ---------------------------------------------------------------------
 Stoichiometry    HSc
 Framework group  C*V[C*(HSc)]
 Deg. of freedom     1
 Full point group                 C*V     NOp   4
 Largest Abelian subgroup         C2V     NOp   4
 Largest concise Abelian subgroup C1      NOp   1
                         Standard orientation:                         
 ---------------------------------------------------------------------
 Center     Atomic      Atomic             Coordinates (Angstroms)
 Number     Number       Type             X           Y           Z
 ---------------------------------------------------------------------
      1         21           0        0.000000    0.000000    0.050000
      2          1           0        0.000000    0.000000   -1.050000
 ---------------------------------------------------------------------
 Rotational constants (GHZ):           0.0000000         423.7163327         423.7163327
 Leave Link  202 at Mon Feb 12 16:35:58 2018, MaxMem=  8589934592 cpu:               0.6 elap:               0.1
 (Enter /home1/apps/gaussian/16rA.03/g16/l301.exe)
 General basis read from cards:  (5D, 7F)
 Centers:       1
 S 1 1.00
     Exponent=  2.7152780000D+06 Coefficients=  1.0000000000D+00
 S 1 1.00
     Exponent=  4.0659840000D+05 Coefficients=  1.0000000000D+00
 S 1 1.00
     Exponent=  9.2530040000D+04 Coefficients=  1.0000000000D+00
 S 1 1.00
     Exponent=  2.6207920000D+04 Coefficients=  1.0000000000D+00
 S 1 1.00
     Exponent=  8.5494290000D+03 Coefficients=  1.0000000000D+00
 S 1 1.00
     Exponent=  3.0859750000D+03 Coefficients=  1.0000000000D+00
 S 1 1.00
     Exponent=  1.2031720000D+03 Coefficients=  1.0000000000D+00
 S 1 1.00
     Exponent=  4.9848690000D+02 Coefficients=  1.0000000000D+00
 S 1 1.00
     Exponent=  2.1673600000D+02 Coefficients=  1.0000000000D+00
 S 1 1.00
     Exponent=  9.7874760000D+01 Coefficients=  1.0000000000D+00
 S 1 1.00
     Exponent=  4.5204330000D+01 Coefficients=  1.0000000000D+00
 S 1 1.00
     Exponent=  2.0211870000D+01 Coefficients=  1.0000000000D+00
 S 1 1.00
     Exponent=  9.5747510000D+00 Coefficients=  1.0000000000D+00
 S 1 1.00
     Exponent=  4.5403460000D+00 Coefficients=  1.0000000000D+00
 S 1 1.00
     Exponent=  1.9956870000D+00 Coefficients=  1.0000000000D+00
 S 1 1.00
     Exponent=  9.4221500000D-01 Coefficients=  1.0000000000D+00
 S 1 1.00
     Exponent=  4.1784500000D-01 Coefficients=  1.0000000000D+00
 S 1 1.00
     Exponent=  9.5761000000D-02 Coefficients=  1.0000000000D+00
 S 1 1.00
     Exponent=  5.1351000000D-02 Coefficients=  1.0000000000D+00
 S 1 1.00
     Exponent=  2.3878000000D-02 Coefficients=  1.0000000000D+00
 S 1 1.00
     Exponent=  2.6472000000D+00 Coefficients=  1.0000000000D+00
 S 1 1.00
     Exponent=  6.2170000000D-01 Coefficients=  1.0000000000D+00
 S 1 1.00
     Exponent=  1.1100000000D-02 Coefficients=  1.0000000000D+00
 P 1 1.00
     Exponent=  1.0592190000D+04 Coefficients=  1.0000000000D+00
 P 1 1.00
     Exponent=  2.5075330000D+03 Coefficients=  1.0000000000D+00
 P 1 1.00
     Exponent=  8.1445710000D+02 Coefficients=  1.0000000000D+00
 P 1 1.00
     Exponent=  3.1151950000D+02 Coefficients=  1.0000000000D+00
 P 1 1.00
     Exponent=  1.3196170000D+02 Coefficients=  1.0000000000D+00
 P 1 1.00
     Exponent=  5.9987180000D+01 Coefficients=  1.0000000000D+00
 P 1 1.00
     Exponent=  2.8662500000D+01 Coefficients=  1.0000000000D+00
 P 1 1.00
     Exponent=  1.4108510000D+01 Coefficients=  1.0000000000D+00
 P 1 1.00
     Exponent=  7.1037060000D+00 Coefficients=  1.0000000000D+00
 P 1 1.00
     Exponent=  3.6092000000D+00 Coefficients=  1.0000000000D+00
 P 1 1.00
     Exponent=  1.7760700000D+00 Coefficients=  1.0000000000D+00
 P 1 1.00
     Exponent=  8.5476000000D-01 Coefficients=  1.0000000000D+00
 P 1 1.00
     Exponent=  4.0223900000D-01 Coefficients=  1.0000000000D+00
 P 1 1.00
     Exponent=  1.5468000000D-01 Coefficients=  1.0000000000D+00
 P 1 1.00
     Exponent=  6.4888000000D-02 Coefficients=  1.0000000000D+00
 P 1 1.00
     Exponent=  2.6301000000D-02 Coefficients=  1.0000000000D+00
 P 1 1.00
     Exponent=  3.4418000000D+00 Coefficients=  1.0000000000D+00
 P 1 1.00
     Exponent=  8.0840000000D-01 Coefficients=  1.0000000000D+00
 P 1 1.00
     Exponent=  1.0660000000D-02 Coefficients=  1.0000000000D+00
 D 1 1.00
     Exponent=  5.0654200000D+01 Coefficients=  1.0000000000D+00
 D 1 1.00
     Exponent=  1.4732500000D+01 Coefficients=  1.0000000000D+00
 D 1 1.00
     Exponent=  5.1804600000D+00 Coefficients=  1.0000000000D+00
 D 1 1.00
     Exponent=  2.0195900000D+00 Coefficients=  1.0000000000D+00
 D 1 1.00
     Exponent=  7.9921900000D-01 Coefficients=  1.0000000000D+00
 D 1 1.00
     Exponent=  3.0531600000D-01 Coefficients=  1.0000000000D+00
 D 1 1.00
     Exponent=  1.1044400000D-01 Coefficients=  1.0000000000D+00
 D 1 1.00
     Exponent=  3.7065000000D-02 Coefficients=  1.0000000000D+00
 D 1 1.00
     Exponent=  1.8520000000D+00 Coefficients=  1.0000000000D+00
 D 1 1.00
     Exponent=  7.8750000000D-01 Coefficients=  1.0000000000D+00
 D 1 1.00
     Exponent=  1.2440000000D-02 Coefficients=  1.0000000000D+00
 F 1 1.00
     Exponent=  2.1048000000D+00 Coefficients=  1.0000000000D+00
 F 1 1.00
     Exponent=  6.5870000000D-01 Coefficients=  1.0000000000D+00
 F 1 1.00
     Exponent=  1.6360000000D-01 Coefficients=  1.0000000000D+00
 F 1 1.00
     Exponent=  4.0630000000D-02 Coefficients=  1.0000000000D+00
 G 1 1.00
     Exponent=  1.7850000000D+00 Coefficients=  1.0000000000D+00
 G 1 1.00
     Exponent=  4.1120000000D-01 Coefficients=  1.0000000000D+00
 G 1 1.00
     Exponent=  9.4730000000D-02 Coefficients=  1.0000000000D+00
 ****
 Centers:       2
 S 1 1.00
     Exponent=  3.3870000000D+01 Coefficients=  1.0000000000D+00
 S 1 1.00
     Exponent=  5.0950000000D+00 Coefficients=  1.0000000000D+00
 S 1 1.00
     Exponent=  1.1590000000D+00 Coefficients=  1.0000000000D+00
 S 1 1.00
     Exponent=  3.2580000000D-01 Coefficients=  1.0000000000D+00
 S 1 1.00
     Exponent=  1.0270000000D-01 Coefficients=  1.0000000000D+00
 S 1 1.00
     Exponent=  2.5260000000D-02 Coefficients=  1.0000000000D+00
 P 1 1.00
     Exponent=  1.4070000000D+00 Coefficients=  1.0000000000D+00
 P 1 1.00
     Exponent=  3.8800000000D-01 Coefficients=  1.0000000000D+00
 P 1 1.00
     Exponent=  1.0200000000D-01 Coefficients=  1.0000000000D+00
 D 1 1.00
     Exponent=  1.0570000000D+00 Coefficients=  1.0000000000D+00
 D 1 1.00
     Exponent=  2.4700000000D-01 Coefficients=  1.0000000000D+00
 ****
 ======================================================================================================
                                       Pseudopotential Parameters
 ======================================================================================================
  Center     Atomic      Valence      Angular      Power
  Number     Number     Electrons     Momentum     of R      Exponent        Coefficient   SO-Coeffient
 ======================================================================================================
    1         21           11
                                      D and up 
                                                     1       16.0239439       11.00000000    0.00000000
                                                     3       14.0864740      176.26338272    0.00000000
                                                     2       11.9398512      -83.68149600    0.00000000
                                                     2        3.6944011        0.43282765    0.00000000
                                      S - D
                                                     2       11.4946654      153.96530176    0.00000000
                                                     2        5.0103139       14.93675658    0.00000000
                                      P - D
                                                     2       11.4512673       97.21725690    0.00000000
                                                     2        4.7679845       10.81704018    0.00000000
    2          1            1
                                      P and up 
                                                     2       21.7769666      -10.85192405    0.00000000
                                                     1       21.2435951        1.00000000    0.00000000
                                                     3       21.2435951       21.24359508    0.00000000
                                      S - P
                                                     2        1.0000000        0.00000000    0.00000000
 ======================================================================================================
 Ernie: Thresh=  0.10000D-02 Tol=  0.10000D-05 Strict=F.
 There are   120 symmetry adapted cartesian basis functions of A1  symmetry.
 There are    26 symmetry adapted cartesian basis functions of A2  symmetry.
 There are    56 symmetry adapted cartesian basis functions of B1  symmetry.
 There are    56 symmetry adapted cartesian basis functions of B2  symmetry.
 There are    94 symmetry adapted basis functions of A1  symmetry.
 There are    23 symmetry adapted basis functions of A2  symmetry.
 There are    49 symmetry adapted basis functions of B1  symmetry.
 There are    49 symmetry adapted basis functions of B2  symmetry.
   215 basis functions,   258 primitive gaussians,   258 cartesian basis functions
     6 alpha electrons        6 beta electrons
       nuclear repulsion energy         5.2917721092 Hartrees.
 IExCor=    0 DFT=F Ex=HF Corr=None ExCW=0 ScaHFX=  1.000000
 ScaDFX=  1.000000  1.000000  1.000000  1.000000 ScalE2=  1.000000  1.000000
 IRadAn=      5 IRanWt=     -1 IRanGd=            0 ICorTp=0 IEmpDi=  4
 NAtoms=    2 NActive=    2 NUniq=    2 SFac= 1.00D+00 NAtFMM=   60 NAOKFM=F Big=F
 Integral buffers will be    131072 words long.
 Raffenetti 2 integral format.
 Two-electron integral symmetry is turned on.
 Leave Link  301 at Mon Feb 12 16:35:59 2018, MaxMem=  8589934592 cpu:               6.9 elap:               0.2
 (Enter /home1/apps/gaussian/16rA.03/g16/l302.exe)
 NPDir=0 NMtPBC=     1 NCelOv=     1 NCel=       1 NClECP=     1 NCelD=      1
         NCelK=      1 NCelE2=     1 NClLst=     1 CellRange=     0.0.
 One-electron integrals computed using PRISM.
 One-electron integral symmetry used in STVInt
   4 Symmetry operations used in ECPInt.
 ECPInt:  NShTT=    2556 NPrTT=    2556 LenC2=    2539 LenP2D=    2538.
 LDataN:  DoStor=T MaxTD1= 8 Len=  415
 NBasis=   215 RedAO= T EigKep=  1.01D-06  NBF=    94    23    49    49
 NBsUse=   212 1.00D-06 EigRej=  6.54D-07 NBFU=    93    23    48    48
 Leave Link  302 at Mon Feb 12 16:36:00 2018, MaxMem=  8589934592 cpu:              28.4 elap:               0.9
 (Enter /home1/apps/gaussian/16rA.03/g16/l303.exe)
 DipDrv:  MaxL=1.
 Leave Link  303 at Mon Feb 12 16:36:01 2018, MaxMem=  8589934592 cpu:               1.8 elap:               0.1
 (Enter /home1/apps/gaussian/16rA.03/g16/l401.exe)
 ExpMin= 1.07D-02 ExpMax= 2.72D+06 ExpMxC= 2.72D+06 IAcc=4 IRadAn=    199590 AccDes= 0.00D+00
 Harris functional with IExCor=  205 and IRadAn=  199590 diagonalized for initial guess.
 HarFok:  IExCor=  205 AccDes= 0.00D+00 IRadAn=    199590 IDoV= 1 UseB2=F ITyADJ=14
 ICtDFT=  3500011 ScaDFX=  1.000000  1.000000  1.000000  1.000000
 Spurious integrated density or basis function:
 NE=   12 NElCor=    0 El error=4.88D-09 rel=2.22D-10 Tolerance=1.00D-03
 Shell     1     absolute error=1.52D-02              Tolerance=1.20D-02
 Shell    44       signed error=7.68D-08              Tolerance=1.00D-01
 FoFCou: FMM=F IPFlag=           8 FMFlag=      100000 FMFlg1=           0
         NFxFlg=           0 DoJE=T BraDBF=F KetDBF=T FulRan=T
         wScrn=  0.000000 ICntrl=       500 IOpCl=  0 I1Cent=   200000004 NGrid=           0
         NMat0=    1 NMatS0=      1 NMatT0=    0 NMatD0=    1 NMtDS0=    0 NMtDT0=    0
 Petite list used in FoFCou.
 Harris En= -47.0521134231242    
 JPrj=0 DoOrth=F DoCkMO=F.
 Initial guess orbital symmetries:
       Occupied  (SG) (SG) (PI) (PI) (SG) (SG)
       Virtual   (PI) (PI) (DLTA) (DLTA) (SG) (PI) (PI) (SG) (SG)
                 (SG) (PI) (PI) (DLTA) (DLTA) (PI) (PI) (SG) (SG)
                 (PI) (PI) (DLTA) (DLTA) (SG) (PI) (PI) (SG) (PI)
                 (PI) (DLTA) (DLTA) (PHI) (PHI) (SG) (SG) (PI)
                 (PI) (SG) (DLTA) (DLTA) (SG) (PI) (PI) (SG) (PI)
                 (PI) (DLTA) (DLTA) (SG) (PHI) (PHI) (?A) (?A)
                 (PI) (PI) (DLTA) (DLTA) (PHI) (PHI) (SG) (PI)
                 (PI) (SG) (SG) (SG) (PI) (PI) (DLTA) (DLTA) (SG)
                 (DLTA) (DLTA) (PI) (PI) (SG) (PI) (PI) (PI) (PI)
                 (SG) (PHI) (PHI) (?A) (?A) (SG) (DLTA) (DLTA)
                 (PHI) (PHI) (PI) (PI) (DLTA) (DLTA) (SG) (SG)
                 (PI) (PI) (DLTA) (DLTA) (PI) (PI) (SG) (SG) (SG)
                 (PI) (PI) (DLTA) (DLTA) (PI) (PI) (SG) (PI) (PI)
                 (SG) (SG) (DLTA) (DLTA) (PI) (PI) (SG) (PHI) (PHI)
                 (DLTA) (DLTA) (PI) (PI) (PHI) (PHI) (?A) (?A)
                 (DLTA) (DLTA) (SG) (SG) (PI) (PI) (SG) (PI) (PI)
                 (SG) (DLTA) (DLTA) (PI) (PI) (SG) (SG) (SG) (PI)
                 (PI) (SG) (DLTA) (DLTA) (PI) (PI) (SG) (SG) (PI)
                 (PI) (SG) (DLTA) (DLTA) (PI) (PI) (SG) (SG) (SG)
                 (PI) (PI) (SG) (SG) (PI) (PI) (SG) (DLTA) (DLTA)
                 (PI) (PI) (SG) (SG) (PI) (PI) (SG) (SG) (PI) (PI)
                 (SG) (SG) (PI) (PI) (SG) (SG) (PI) (PI) (SG) (SG)
                 (PI) (PI) (SG) (SG) (SG) (PI) (PI) (SG) (SG) (SG)
                 (SG) (SG)
 The electronic state of the initial guess is 1-SG.
 Leave Link  401 at Mon Feb 12 16:36:03 2018, MaxMem=  8589934592 cpu:              39.0 elap:               1.3
 (Enter /home1/apps/gaussian/16rA.03/g16/l502.exe)
 Keep R1 and R2 ints in memory in symmetry-blocked form, NReq=338797193.
 FoFCou: FMM=F IPFlag=           8 FMFlag=           0 FMFlg1=           0
         NFxFlg=           0 DoJE=F BraDBF=F KetDBF=F FulRan=T
         wScrn=  0.000000 ICntrl=       600 IOpCl=  0 I1Cent=           0 NGrid=           0
         NMat0=    1 NMatS0=  23220 NMatT0=    0 NMatD0=    1 NMtDS0=    0 NMtDT0=    0
 Petite list used in FoFCou.
 Restricted open shell SCF:
 Using DIIS extrapolation, IDIIS=  1040.
 NGot=  8589934592 LenX=  8451446295 LenY=  8451379290
 Requested convergence on RMS density matrix=1.00D-08 within 300 cycles.
 Requested convergence on MAX density matrix=1.00D-06.
 Requested convergence on             energy=1.00D-06.
 No special actions if energy rises.

 Cycle   1  Pass 1  IDiag  1:
 E= -46.4324127117068    
 DIIS: error= 2.42D-02 at cycle   1 NSaved=   1.
 NSaved= 1 IEnMin= 1 EnMin= -46.4324127117068     IErMin= 1 ErrMin= 2.42D-02
 ErrMax= 2.42D-02  0.00D+00 EMaxC= 1.00D-01 BMatC= 4.18D-02 BMatP= 4.18D-02
 IDIUse=3 WtCom= 7.58D-01 WtEn= 2.42D-01
 Coeff-Com:  0.100D+01
 Coeff-En:   0.100D+01
 Coeff:      0.100D+01
 Gap=     0.394 Goal=   None    Shift=    0.000
 GapD=    0.394 DampG=1.000 DampE=0.250 DampFc=0.2500 IDamp=-1.
 Damping current iteration by 2.50D-01
 RMSDP=2.67D-03 MaxDP=1.34D-01              OVMax= 1.42D-01

 Cycle   2  Pass 1  IDiag  1:
 E= -46.4437311296592     Delta-E=       -0.011318417952 Rises=F Damp=T
 DIIS: error= 1.53D-02 at cycle   2 NSaved=   2.
 NSaved= 2 IEnMin= 2 EnMin= -46.4437311296592     IErMin= 2 ErrMin= 1.53D-02
 ErrMax= 1.53D-02  0.00D+00 EMaxC= 1.00D-01 BMatC= 2.14D-02 BMatP= 4.18D-02
 IDIUse=3 WtCom= 8.47D-01 WtEn= 1.53D-01
 Coeff-Com: -0.223D+01 0.323D+01
 Coeff-En:   0.000D+00 0.100D+01
 Coeff:     -0.189D+01 0.289D+01
 Gap=     0.218 Goal=   None    Shift=    0.000
 RMSDP=1.81D-03 MaxDP=9.61D-02 DE=-1.13D-02 OVMax= 2.27D-02

 Cycle   3  Pass 1  IDiag  1:
 E= -46.4778506947449     Delta-E=       -0.034119565086 Rises=F Damp=F
 DIIS: error= 1.78D-03 at cycle   3 NSaved=   3.
 NSaved= 3 IEnMin= 3 EnMin= -46.4778506947449     IErMin= 3 ErrMin= 1.78D-03
 ErrMax= 1.78D-03  0.00D+00 EMaxC= 1.00D-01 BMatC= 2.44D-04 BMatP= 2.14D-02
 IDIUse=3 WtCom= 9.82D-01 WtEn= 1.78D-02
 Coeff-Com:  0.363D+00-0.530D+00 0.117D+01
 Coeff-En:   0.000D+00 0.000D+00 0.100D+01
 Coeff:      0.356D+00-0.520D+00 0.116D+01
 Gap=     0.224 Goal=   None    Shift=    0.000
 RMSDP=4.63D-04 MaxDP=3.24D-02 DE=-3.41D-02 OVMax= 2.92D-02

 Cycle   4  Pass 1  IDiag  1:
 E= -46.4788008083524     Delta-E=       -0.000950113607 Rises=F Damp=F
 DIIS: error= 8.29D-04 at cycle   4 NSaved=   4.
 NSaved= 4 IEnMin= 4 EnMin= -46.4788008083524     IErMin= 4 ErrMin= 8.29D-04
 ErrMax= 8.29D-04  0.00D+00 EMaxC= 1.00D-01 BMatC= 4.70D-05 BMatP= 2.44D-04
 IDIUse=3 WtCom= 9.92D-01 WtEn= 8.29D-03
 Coeff-Com:  0.671D-01-0.788D-01-0.424D+00 0.144D+01
 Coeff-En:   0.000D+00 0.000D+00 0.000D+00 0.100D+01
 Coeff:      0.666D-01-0.782D-01-0.420D+00 0.143D+01
 Gap=     0.225 Goal=   None    Shift=    0.000
 RMSDP=2.75D-04 MaxDP=1.69D-02 DE=-9.50D-04 OVMax= 2.05D-02

 Cycle   5  Pass 1  IDiag  1:
 E= -46.4791070416823     Delta-E=       -0.000306233330 Rises=F Damp=F
 DIIS: error= 3.49D-04 at cycle   5 NSaved=   5.
 NSaved= 5 IEnMin= 5 EnMin= -46.4791070416823     IErMin= 5 ErrMin= 3.49D-04
 ErrMax= 3.49D-04  0.00D+00 EMaxC= 1.00D-01 BMatC= 8.32D-06 BMatP= 4.70D-05
 IDIUse=3 WtCom= 9.97D-01 WtEn= 3.49D-03
 Coeff-Com: -0.320D-01 0.420D-01 0.148D+00-0.931D+00 0.177D+01
 Coeff-En:   0.000D+00 0.000D+00 0.000D+00 0.000D+00 0.100D+01
 Coeff:     -0.319D-01 0.419D-01 0.148D+00-0.928D+00 0.177D+01
 Gap=     0.226 Goal=   None    Shift=    0.000
 RMSDP=1.37D-04 MaxDP=4.90D-03 DE=-3.06D-04 OVMax= 1.34D-02

 Cycle   6  Pass 1  IDiag  1:
 E= -46.4791866235170     Delta-E=       -0.000079581835 Rises=F Damp=F
 DIIS: error= 1.73D-04 at cycle   6 NSaved=   6.
 NSaved= 6 IEnMin= 6 EnMin= -46.4791866235170     IErMin= 6 ErrMin= 1.73D-04
 ErrMax= 1.73D-04  0.00D+00 EMaxC= 1.00D-01 BMatC= 8.48D-07 BMatP= 8.32D-06
 IDIUse=3 WtCom= 9.98D-01 WtEn= 1.73D-03
 Coeff-Com:  0.555D-02-0.741D-02-0.214D-01 0.254D+00-0.756D+00 0.153D+01
 Coeff-En:   0.000D+00 0.000D+00 0.000D+00 0.000D+00 0.000D+00 0.100D+01
 Coeff:      0.554D-02-0.740D-02-0.214D-01 0.253D+00-0.754D+00 0.152D+01
 Gap=     0.227 Goal=   None    Shift=    0.000
 RMSDP=3.67D-05 MaxDP=2.41D-03 DE=-7.96D-05 OVMax= 3.97D-03

 Cycle   7  Pass 1  IDiag  1:
 E= -46.4791949916330     Delta-E=       -0.000008368116 Rises=F Damp=F
 DIIS: error= 5.64D-05 at cycle   7 NSaved=   7.
 NSaved= 7 IEnMin= 7 EnMin= -46.4791949916330     IErMin= 7 ErrMin= 5.64D-05
 ErrMax= 5.64D-05  0.00D+00 EMaxC= 1.00D-01 BMatC= 1.53D-07 BMatP= 8.48D-07
 IDIUse=1 WtCom= 1.00D+00 WtEn= 0.00D+00
 Coeff-Com:  0.671D-02-0.912D-02-0.327D-01 0.183D+00-0.358D+00 0.800D-02
 Coeff-Com:  0.120D+01
 Coeff:      0.671D-02-0.912D-02-0.327D-01 0.183D+00-0.358D+00 0.800D-02
 Coeff:      0.120D+01
 Gap=     0.227 Goal=   None    Shift=    0.000
 RMSDP=1.50D-05 MaxDP=6.43D-04 DE=-8.37D-06 OVMax= 1.65D-03

 Cycle   8  Pass 1  IDiag  1:
 E= -46.4791959848342     Delta-E=       -0.000000993201 Rises=F Damp=F
 DIIS: error= 1.01D-05 at cycle   8 NSaved=   8.
 NSaved= 8 IEnMin= 8 EnMin= -46.4791959848342     IErMin= 8 ErrMin= 1.01D-05
 ErrMax= 1.01D-05  0.00D+00 EMaxC= 1.00D-01 BMatC= 5.44D-09 BMatP= 1.53D-07
 IDIUse=1 WtCom= 1.00D+00 WtEn= 0.00D+00
 Coeff-Com: -0.249D-02 0.344D-02 0.784D-02-0.557D-01 0.142D+00-0.149D+00
 Coeff-Com: -0.207D+00 0.126D+01
 Coeff:     -0.249D-02 0.344D-02 0.784D-02-0.557D-01 0.142D+00-0.149D+00
 Coeff:     -0.207D+00 0.126D+01
 Gap=     0.227 Goal=   None    Shift=    0.000
 RMSDP=4.00D-06 MaxDP=1.87D-04 DE=-9.93D-07 OVMax= 1.48D-04

 Cycle   9  Pass 1  IDiag  1:
 E= -46.4791960093805     Delta-E=       -0.000000024546 Rises=F Damp=F
 DIIS: error= 1.65D-06 at cycle   9 NSaved=   9.
 NSaved= 9 IEnMin= 9 EnMin= -46.4791960093805     IErMin= 9 ErrMin= 1.65D-06
 ErrMax= 1.65D-06  0.00D+00 EMaxC= 1.00D-01 BMatC= 9.41D-11 BMatP= 5.44D-09
 IDIUse=1 WtCom= 1.00D+00 WtEn= 0.00D+00
 Coeff-Com:  0.326D-03-0.462D-03-0.125D-02 0.910D-02-0.258D-01 0.371D-01
 Coeff-Com:  0.130D-01-0.290D+00 0.126D+01
 Coeff:      0.326D-03-0.462D-03-0.125D-02 0.910D-02-0.258D-01 0.371D-01
 Coeff:      0.130D-01-0.290D+00 0.126D+01
 Gap=     0.227 Goal=   None    Shift=    0.000
 RMSDP=3.51D-07 MaxDP=2.93D-05 DE=-2.45D-08 OVMax= 1.95D-05

 Cycle  10  Pass 1  IDiag  1:
 E= -46.4791960098254     Delta-E=       -0.000000000445 Rises=F Damp=F
 DIIS: error= 2.92D-07 at cycle  10 NSaved=  10.
 NSaved=10 IEnMin=10 EnMin= -46.4791960098254     IErMin=10 ErrMin= 2.92D-07
 ErrMax= 2.92D-07  0.00D+00 EMaxC= 1.00D-01 BMatC= 3.39D-12 BMatP= 9.41D-11
 IDIUse=1 WtCom= 1.00D+00 WtEn= 0.00D+00
 Coeff-Com: -0.829D-04 0.114D-03 0.321D-03-0.216D-02 0.617D-02-0.102D-01
 Coeff-Com:  0.222D-02 0.687D-01-0.447D+00 0.138D+01
 Coeff:     -0.829D-04 0.114D-03 0.321D-03-0.216D-02 0.617D-02-0.102D-01
 Coeff:      0.222D-02 0.687D-01-0.447D+00 0.138D+01
 Gap=     0.227 Goal=   None    Shift=    0.000
 RMSDP=1.11D-07 MaxDP=7.49D-06 DE=-4.45D-10 OVMax= 3.86D-06

 Cycle  11  Pass 1  IDiag  1:
 E= -46.4791960098386     Delta-E=       -0.000000000013 Rises=F Damp=F
 DIIS: error= 2.38D-08 at cycle  11 NSaved=  11.
 NSaved=11 IEnMin=11 EnMin= -46.4791960098386     IErMin=11 ErrMin= 2.38D-08
 ErrMax= 2.38D-08  0.00D+00 EMaxC= 1.00D-01 BMatC= 2.98D-14 BMatP= 3.39D-12
 IDIUse=1 WtCom= 1.00D+00 WtEn= 0.00D+00
 Coeff-Com:  0.479D-05-0.664D-05-0.256D-04 0.152D-03-0.478D-03 0.920D-03
 Coeff-Com: -0.689D-03-0.599D-02 0.540D-01-0.246D+00 0.120D+01
 Coeff:      0.479D-05-0.664D-05-0.256D-04 0.152D-03-0.478D-03 0.920D-03
 Coeff:     -0.689D-03-0.599D-02 0.540D-01-0.246D+00 0.120D+01
 Gap=     0.227 Goal=   None    Shift=    0.000
 RMSDP=1.08D-08 MaxDP=5.39D-07 DE=-1.33D-11 OVMax= 4.13D-07

 Cycle  12  Pass 1  IDiag  1:
 E= -46.4791960098389     Delta-E=       -0.000000000000 Rises=F Damp=F
 DIIS: error= 3.28D-09 at cycle  12 NSaved=  12.
 NSaved=12 IEnMin=12 EnMin= -46.4791960098389     IErMin=12 ErrMin= 3.28D-09
 ErrMax= 3.28D-09  0.00D+00 EMaxC= 1.00D-01 BMatC= 7.17D-16 BMatP= 2.98D-14
 IDIUse=1 WtCom= 1.00D+00 WtEn= 0.00D+00
 Coeff-Com: -0.800D-06 0.107D-05 0.255D-05-0.122D-04 0.461D-04-0.994D-04
 Coeff-Com:  0.120D-03 0.738D-03-0.802D-02 0.457D-01-0.297D+00 0.126D+01
 Coeff:     -0.800D-06 0.107D-05 0.255D-05-0.122D-04 0.461D-04-0.994D-04
 Coeff:      0.120D-03 0.738D-03-0.802D-02 0.457D-01-0.297D+00 0.126D+01
 Gap=     0.227 Goal=   None    Shift=    0.000
 RMSDP=1.40D-09 MaxDP=8.37D-08 DE=-2.27D-13 OVMax= 5.61D-08

 SCF Done:  E(ROHF) =  -46.4791960098     A.U. after   12 cycles
            NFock= 12  Conv=0.14D-08     -V/T= 3.3253
 <Sx>= 0.0000 <Sy>= 0.0000 <Sz>= 0.0000 <S**2>=-0.0000 S=-0.0000
 <L.S>=  0.00000000000    
 KE= 1.998853482981D+01 PE=-1.073486571943D+02 EE= 3.558915424544D+01
 Annihilation of the first spin contaminant:
 S**2 before annihilation    -0.0000,   after     0.0000
 Leave Link  502 at Mon Feb 12 16:36:13 2018, MaxMem=  8589934592 cpu:             274.8 elap:               9.2
 (Enter /home1/apps/gaussian/16rA.03/g16/l801.exe)
 Windowed orbitals will be sorted by symmetry type.
 GenMOA:  NOpAll=  4 NOp2=4 NOpUse=  4 JSym2X=1
 FoFJK:  IHMeth= 1 ICntrl=       0 DoSepK=F KAlg= 0 I1Cent=           0 FoldK=F
 IRaf=         0 NMat=       1 IRICut=       1 DoRegI=T DoRafI=F ISym2E= 1 IDoP0=0 IntGTp=1.
 FoFCou: FMM=F IPFlag=           8 FMFlag=      100000 FMFlg1=           0
         NFxFlg=           0 DoJE=F BraDBF=F KetDBF=F FulRan=T
         wScrn=  0.000000 ICntrl=         0 IOpCl=  1 I1Cent=           0 NGrid=           0
         NMat0=    1 NMatS0=      1 NMatT0=    0 NMatD0=    1 NMtDS0=    0 NMtDT0=    0
 Petite list used in FoFCou.
 <Sx>= 0.0000 <Sy>= 0.0000 <Sz>= 0.0000 <S**2>=-0.0000 S=-0.0000
 Range of M.O.s used for correlation:     1   212
 NBasis=   215 NAE=     6 NBE=     6 NFC=     0 NFV=     0
 NROrb=    212 NOA=     6 NOB=     6 NVA=   206 NVB=   206

 **** Warning!!: The largest alpha MO coefficient is  0.33003773D+03


 **** Warning!!: The largest beta MO coefficient is  0.33003773D+03

 Singles contribution to E2=   -0.7017536420D-16
 Leave Link  801 at Mon Feb 12 16:36:16 2018, MaxMem=  8589934592 cpu:              95.3 elap:               3.1
 (Enter /home1/apps/gaussian/16rA.03/g16/l804.exe)
 Open-shell transformation, MDV=  8589934592 ITran=4 ISComp=2.
 Unit  1 TFree=       1394682 TCopy=       1088833.
 Semi-Direct transformation.
 ModeAB=           2 MOrb=             6 LenV=    8588447011
 LASXX=      7305744 LTotXX=     7305744 LenRXX=     7305744
 LTotAB=     7449723 MaxLAS=    42498792 LenRXY=    42498792
 NonZer=    43410816 LenScr=    65889280 LnRSAI=           0
 LnScr1=           0 LExtra=     3358255 Total=    119052071
 MaxDsk= 67108864000 SrtSym=           F ITran=            4
 DoSDTr:  NPSUse= 32
 JobTyp=1 Pass  1:  I=   1 to   6.
 (rs|ai) integrals will be sorted in core.
 Complete sort for first half transformation.
 First half transformation complete.
 Complete sort for second half transformation.
 Second half transformation complete.
 ModeAB=           2 MOrb=             6 LenV=    8588447011
 LASXX=      7305744 LTotXX=     7305744 LenRXX=    42498792
 LTotAB=     7016478 MaxLAS=    42498792 LenRXY=     7016478
 NonZer=    43410816 LenScr=    65889280 LnRSAI=           0
 LnScr1=           0 LExtra=    53162791 Total=    168567341
 MaxDsk= 67108864000 SrtSym=           F ITran=            4
 DoSDTr:  NPSUse= 32
 JobTyp=2 Pass  1:  I=   1 to   6.
 (rs|ai) integrals will be sorted in core.
 Complete sort for first half transformation.
 First half transformation complete.
 Complete sort for second half transformation.
 Second half transformation complete.
 Spin components of T(2) and E(2):
     alpha-alpha T2 =       0.1245177022D-01 E2=     -0.5053663641D-01
     alpha-beta  T2 =       0.9184447453D-01 E2=     -0.3167301856D+00
     beta-beta   T2 =       0.1245177022D-01 E2=     -0.5053663641D-01
 ANorm=    0.1056762989D+01
 E2 =    -0.4178034584D+00 EUMP2 =    -0.46896999468240D+02
 (S**2,0)=  0.00000D+00           (S**2,1)=  0.00000D+00
 E(PUHF)=      -0.46479196010D+02        E(PMP2)=      -0.46896999468D+02
 Leave Link  804 at Mon Feb 12 16:37:30 2018, MaxMem=  8589934592 cpu:            2346.6 elap:              73.4
 (Enter /home1/apps/gaussian/16rA.03/g16/l913.exe)
 CIDS:  MDV=  8589934592.
 IFCWin=0 IBDFC=1 NFBD=     0     0 NFCmp=     0     0 NFFFC=     0     0
 Using original routines for 1st iteration.
 Using DD4UQ or CC4UQ for 2nd and later iterations.
 Keep R2 and R3 ints in memory in symmetry-blocked form, NReq=338806075.
 FoFCou: FMM=F IPFlag=           8 FMFlag=           0 FMFlg1=           0
         NFxFlg=           0 DoJE=F BraDBF=F KetDBF=F FulRan=T
         wScrn=  0.000000 ICntrl=       600 IOpCl=  0 I1Cent=           0 NGrid=           0
         NMat0=    1 NMatS0=  23220 NMatT0=    0 NMatD0=    1 NMtDS0=    0 NMtDT0=    0
 Petite list used in FoFCou.
 CIDS: In Core Option IDoMem=           1.
 CCSD(T)
 =======
 Iterations= 150 Convergence= 0.100D-06
 Produce multiple copies of IABC intergrals
 Iteration Nr.   1
 **********************
 DD1Dir will call FoFMem   1 times, MxPair=       102
 NAB=    36 NAA=    15 NBB=    15.
 DD1Dir will call FoFMem   1 times, MxPair=       102
 NAB=    36 NAA=    15 NBB=    15.
 MP4(R+Q)=  0.33783519D-01
 Maximum subspace dimension=  5
 A-vector RMS=  3.3575741D-05 Max=  5.5961476D-03 conv= 1.00D-05.
 RLE energy=       -0.4067994457
 E3=       -0.22481845D-01        EROMP3=      -0.46919481313D+02
 E4(SDQ)=   0.32048765D-03        ROMP4(SDQ)=  -0.46919160826D+02
 VARIATIONAL ENERGIES WITH THE FIRST-ORDER WAVEFUNCTION:
 DE(Corr)= -0.40650178     E(Corr)=     -46.885697795    
 NORM(A)=   0.10512523D+01
 Iteration Nr.   2
 **********************
 DD1Dir will call FoFMem   1 times, MxPair=       102
 NAB=    36 NAA=    15 NBB=    15.
 A-vector RMS=  2.7071940D-03 Max=  2.7655581D-02 conv= 1.00D-05.
 RLE energy=       -0.4142837297
 DE(Corr)= -0.42860212     E(CORR)=     -46.907798127     Delta=-2.21D-02
 NORM(A)=   0.10546290D+01
 Iteration Nr.   3
 **********************
 DD1Dir will call FoFMem   1 times, MxPair=       102
 NAB=    36 NAA=    15 NBB=    15.
 A-vector RMS=  1.9180627D-03 Max=  1.9785922D-02 conv= 1.00D-05.
 RLE energy=       -0.4255963252
 DE(Corr)= -0.43154006     E(CORR)=     -46.910736073     Delta=-2.94D-03
 NORM(A)=   0.10614627D+01
 Iteration Nr.   4
 **********************
 DD1Dir will call FoFMem   1 times, MxPair=       102
 NAB=    36 NAA=    15 NBB=    15.
 A-vector RMS=  1.3434220D-03 Max=  1.3807299D-02 conv= 1.00D-05.
 RLE energy=       -0.4371264157
 DE(Corr)= -0.43455980     E(CORR)=     -46.913755809     Delta=-3.02D-03
 NORM(A)=   0.10721409D+01
 Iteration Nr.   5
 **********************
 DD1Dir will call FoFMem   1 times, MxPair=       102
 NAB=    36 NAA=    15 NBB=    15.
 A-vector RMS=  2.2344191D-04 Max=  2.2067460D-03 conv= 1.00D-05.
 RLE energy=       -0.4408106295
 DE(Corr)= -0.43875735     E(CORR)=     -46.917953356     Delta=-4.20D-03
 NORM(A)=   0.10763659D+01
 Iteration Nr.   6
 **********************
 DD1Dir will call FoFMem   1 times, MxPair=       102
 NAB=    36 NAA=    15 NBB=    15.
 A-vector RMS=  9.4983779D-05 Max=  9.4209294D-04 conv= 1.00D-05.
 RLE energy=       -0.4395909016
 DE(Corr)= -0.44000284     E(CORR)=     -46.919198849     Delta=-1.25D-03
 NORM(A)=   0.10752107D+01
 Iteration Nr.   7
 **********************
 DD1Dir will call FoFMem   1 times, MxPair=       102
 NAB=    36 NAA=    15 NBB=    15.
 A-vector RMS=  1.8496469D-05 Max=  1.9279309D-04 conv= 1.00D-05.
 RLE energy=       -0.4395967672
 DE(Corr)= -0.43959037     E(CORR)=     -46.918786383     Delta= 4.12D-04
 NORM(A)=   0.10752665D+01
 Iteration Nr.   8
 **********************
 DD1Dir will call FoFMem   1 times, MxPair=       102
 NAB=    36 NAA=    15 NBB=    15.
 A-vector RMS=  1.2293867D-05 Max=  1.2667318D-04 conv= 1.00D-05.
 RLE energy=       -0.4396013410
 DE(Corr)= -0.43960301     E(CORR)=     -46.918799024     Delta=-1.26D-05
 NORM(A)=   0.10752504D+01
 Iteration Nr.   9
 **********************
 DD1Dir will call FoFMem   1 times, MxPair=       102
 NAB=    36 NAA=    15 NBB=    15.
 A-vector RMS=  4.6922200D-06 Max=  4.7071702D-05 conv= 1.00D-05.
 RLE energy=       -0.4395984070
 DE(Corr)= -0.43959748     E(CORR)=     -46.918793493     Delta= 5.53D-06
 NORM(A)=   0.10752415D+01
 Iteration Nr.  10
 **********************
 DD1Dir will call FoFMem   1 times, MxPair=       102
 NAB=    36 NAA=    15 NBB=    15.
 A-vector RMS=  2.0009554D-06 Max=  2.0183308D-05 conv= 1.00D-05.
 RLE energy=       -0.4395978241
 DE(Corr)= -0.43959776     E(CORR)=     -46.918793770     Delta=-2.77D-07
 NORM(A)=   0.10752404D+01
 Iteration Nr.  11
 **********************
 DD1Dir will call FoFMem   1 times, MxPair=       102
 NAB=    36 NAA=    15 NBB=    15.
 A-vector RMS=  8.0379320D-07 Max=  7.0163890D-06 conv= 1.00D-05.
 RLE energy=       -0.4395981349
 DE(Corr)= -0.43959744     E(CORR)=     -46.918793449     Delta= 3.21D-07
 NORM(A)=   0.10752440D+01
 Iteration Nr.  12
 **********************
 DD1Dir will call FoFMem   1 times, MxPair=       102
 NAB=    36 NAA=    15 NBB=    15.
 A-vector RMS=  2.2187991D-07 Max=  2.3871888D-06 conv= 1.00D-05.
 RLE energy=       -0.4395978574
 DE(Corr)= -0.43959786     E(CORR)=     -46.918793868     Delta=-4.19D-07
 NORM(A)=   0.10752446D+01
 Iteration Nr.  13
 **********************
 DD1Dir will call FoFMem   1 times, MxPair=       102
 NAB=    36 NAA=    15 NBB=    15.
 A-vector RMS=  1.1235381D-07 Max=  1.0853080D-06 conv= 1.00D-05.
 RLE energy=       -0.4395979259
 DE(Corr)= -0.43959787     E(CORR)=     -46.918793880     Delta=-1.16D-08
 NORM(A)=   0.10752450D+01
 CI/CC converged in   13 iterations to DelEn=-1.16D-08 Conv= 1.00D-07 ErrA1= 1.12D-07 Conv= 1.00D-05
 Wavefunction amplitudes converged. E(Corr)=     -46.918793880    
 Largest amplitude= 5.63D-02
 Time for triples=     6604.68 seconds.
 T4(CCSD)= -0.17809535D-01
 T5(CCSD)=  0.49718249D-03
 CCSD(T)= -0.46936106232D+02
 Discarding MO integrals.
 Leave Link  913 at Mon Feb 12 16:42:07 2018, MaxMem=  8589934592 cpu:            8850.3 elap:             277.1
 (Enter /home1/apps/gaussian/16rA.03/g16/l601.exe)
 Copying SCF densities to generalized density rwf, IOpCl= 0 IROHF=1.

 **********************************************************************

            Population analysis using the SCF density.

 **********************************************************************

 Orbital symmetries:
       Occupied  (SG) (SG) (PI) (PI) (SG) (SG)
       Virtual   (SG) (PI) (PI) (SG) (SG) (PI) (PI) (DLTA) (DLTA)
                 (SG) (PI) (PI) (SG) (PI) (PI) (DLTA) (DLTA) (SG)
                 (SG) (SG) (PI) (PI) (DLTA) (DLTA) (PHI) (PHI)
                 (PI) (PI) (PI) (PI) (DLTA) (DLTA) (SG) (SG) (PI)
                 (PI) (SG) (SG) (PI) (PI) (DLTA) (DLTA) (SG) (PHI)
                 (PHI) (?A) (?A) (DLTA) (DLTA) (SG) (PI) (PI) (PI)
                 (PI) (DLTA) (DLTA) (PHI) (PHI) (SG) (PI) (PI)
                 (SG) (SG) (SG) (PI) (PI) (DLTA) (DLTA) (SG) (DLTA)
                 (DLTA) (PI) (PI) (SG) (PI) (PI) (PI) (PI) (SG)
                 (PHI) (PHI) (?A) (?A) (SG) (DLTA) (DLTA) (PI)
                 (PI) (PHI) (PHI) (DLTA) (DLTA) (SG) (SG) (PI)
                 (PI) (DLTA) (DLTA) (PI) (PI) (SG) (SG) (SG) (PI)
                 (PI) (DLTA) (DLTA) (SG) (PI) (PI) (PI) (PI) (SG)
                 (SG) (DLTA) (DLTA) (PI) (PI) (SG) (PHI) (PHI)
                 (DLTA) (DLTA) (PI) (PI) (PHI) (PHI) (?A) (?A)
                 (DLTA) (DLTA) (SG) (SG) (PI) (PI) (PI) (PI) (SG)
                 (SG) (DLTA) (DLTA) (PI) (PI) (SG) (SG) (SG) (PI)
                 (PI) (SG) (DLTA) (DLTA) (PI) (PI) (SG) (SG) (PI)
                 (PI) (SG) (DLTA) (DLTA) (PI) (PI) (SG) (SG) (SG)
                 (PI) (PI) (SG) (SG) (PI) (PI) (SG) (DLTA) (DLTA)
                 (PI) (PI) (SG) (SG) (PI) (PI) (SG) (SG) (PI) (PI)
                 (SG) (SG) (PI) (PI) (SG) (SG) (PI) (PI) (SG) (SG)
                 (PI) (PI) (SG) (SG) (SG) (PI) (PI) (SG) (SG) (SG)
                 (SG) (SG)
 The electronic state is 1-SG.
 Alpha  occ. eigenvalues --   -2.60495  -1.64614  -1.57623  -1.57623  -0.47425
 Alpha  occ. eigenvalues --   -0.21310
 Alpha virt. eigenvalues --    0.01358   0.01400   0.01400   0.02290   0.03461
 Alpha virt. eigenvalues --    0.03913   0.03913   0.03956   0.03956   0.04790
 Alpha virt. eigenvalues --    0.04996   0.04996   0.09437   0.10824   0.10824
 Alpha virt. eigenvalues --    0.10907   0.10907   0.11505   0.15125   0.15847
 Alpha virt. eigenvalues --    0.15882   0.15882   0.17208   0.17208   0.17313
 Alpha virt. eigenvalues --    0.17313   0.17528   0.17528   0.19436   0.19436
 Alpha virt. eigenvalues --    0.19732   0.19732   0.21124   0.33425   0.39766
 Alpha virt. eigenvalues --    0.39766   0.40148   0.43730   0.47284   0.47284
 Alpha virt. eigenvalues --    0.47436   0.47436   0.47753   0.49050   0.49050
 Alpha virt. eigenvalues --    0.49197   0.49197   0.49393   0.49393   0.50003
 Alpha virt. eigenvalues --    0.51068   0.51068   0.55930   0.55930   0.63678
 Alpha virt. eigenvalues --    0.63678   0.64532   0.64532   0.69790   0.80959
 Alpha virt. eigenvalues --    0.80959   0.89602   1.09123   1.14555   1.15463
 Alpha virt. eigenvalues --    1.15463   1.18950   1.18950   1.23906   1.33908
 Alpha virt. eigenvalues --    1.33908   1.36281   1.36281   1.49256   1.58514
 Alpha virt. eigenvalues --    1.58514   1.65991   1.65991   1.93276   1.97711
 Alpha virt. eigenvalues --    1.97711   1.98067   1.98067   2.00575   2.11684
 Alpha virt. eigenvalues --    2.11684   2.12790   2.12790   2.19488   2.19488
 Alpha virt. eigenvalues --    2.29057   2.29057   2.36517   2.66541   2.89058
 Alpha virt. eigenvalues --    2.89058   2.98986   2.98986   3.02471   3.02471
 Alpha virt. eigenvalues --    3.06097   3.59375   3.86377   4.09480   4.09480
 Alpha virt. eigenvalues --    4.22147   4.22147   4.46869   4.56580   4.56580
 Alpha virt. eigenvalues --    5.17344   5.17344   5.26314   5.47703   5.98461
 Alpha virt. eigenvalues --    5.98461   6.02907   6.02907   6.43527   6.73393
 Alpha virt. eigenvalues --    6.73393   6.78724   6.78724   7.16730   7.16730
 Alpha virt. eigenvalues --    7.78538   7.78538   7.78592   7.78592   7.89090
 Alpha virt. eigenvalues --    7.89090   7.98249   8.22525   8.50635   8.50635
 Alpha virt. eigenvalues --    8.88054   8.88054   8.96121   9.72321  11.23986
 Alpha virt. eigenvalues --   11.23986  11.27695  11.27695  11.49425  12.09926
 Alpha virt. eigenvalues --   17.00407  18.06327  18.06327  19.20702  20.82796
 Alpha virt. eigenvalues --   20.82796  20.86486  20.86486  21.18008  34.87425
 Alpha virt. eigenvalues --   37.48528  37.48528  38.69043  47.89716  47.89716
 Alpha virt. eigenvalues --   47.92741  47.92741  48.16568  64.80622  70.90084
 Alpha virt. eigenvalues --   76.66554  76.66554  77.80038 128.12953 151.84174
 Alpha virt. eigenvalues --  151.84174 152.92567 173.84385 173.84385 173.86147
 Alpha virt. eigenvalues --  173.86147 174.01188 229.59036 302.55959 302.55959
 Alpha virt. eigenvalues --  303.61141 436.57975 625.85598 625.85598 626.84619
 Alpha virt. eigenvalues --  879.046001381.225741381.225741382.125161876.97505
 Alpha virt. eigenvalues -- 3351.931423351.931423352.716394257.343409408.16368
 Alpha virt. eigenvalues -- 9408.163689408.80981******************************
 Alpha virt. eigenvalues -- **************************************************
 Alpha virt. eigenvalues -- **********
     Molecular Orbital Coefficients:
                           2         3         4         5         6
                           O         O         O         O         O
     Eigenvalues --    -1.64614  -1.57623  -1.57623  -0.47425  -0.21310
   1 1   Sc 1S         -0.00000   0.00000   0.00000   0.00000   0.00000
   2        2S          0.00000   0.00000   0.00000  -0.00000  -0.00000
   3        3S         -0.00000   0.00000   0.00000   0.00000   0.00000
   4        4S          0.00000   0.00000   0.00000  -0.00000  -0.00000
   5        5S         -0.00000   0.00000   0.00000   0.00000   0.00000
   6        6S          0.00000   0.00000   0.00000  -0.00001  -0.00001
   7        7S         -0.00001   0.00000   0.00000   0.00002   0.00003
   8        8S          0.00003   0.00000   0.00000  -0.00008  -0.00011
   9        9S         -0.00009   0.00000   0.00000   0.00023   0.00033
  10       10S          0.00026   0.00000   0.00000  -0.00067  -0.00096
  11       11S         -0.00079   0.00000   0.00000   0.00202   0.00287
  12       12S          0.00261   0.00000   0.00000  -0.00673  -0.00948
  13       13S          0.00274   0.00000   0.00000  -0.00413  -0.00435
  14       14S         -0.04435   0.00000   0.00000   0.09838   0.12675
  15       15S         -0.04488   0.00000   0.00000   0.05513   0.03911
  16       16S          0.12709   0.00000   0.00000  -0.24742  -0.26921
  17       17S          0.16616   0.00000   0.00000  -0.28083  -0.30623
  18       18S          0.06357   0.00000   0.00000  -0.20011   0.32412
  19       19S         -0.02108   0.00000   0.00000   0.04451   0.52942
  20       20S         -0.01440   0.00000   0.00000  -0.03266   0.17138
  21       21S          0.04397   0.00000   0.00000  -0.06731  -0.06300
  22       22S         -0.13999   0.00000   0.00000   0.14611   0.05486
  23       23S         -0.00259   0.00000   0.00000   0.00160  -0.00125
  24       24PX         0.00000   0.00000   0.00000   0.00000   0.00000
  25       24PY         0.00000   0.00000   0.00000   0.00000   0.00000
  26       24PZ         0.00000   0.00000   0.00000   0.00000  -0.00000
  27       25PX         0.00000  -0.00000   0.00000   0.00000   0.00000
  28       25PY         0.00000   0.00000  -0.00000   0.00000   0.00000
  29       25PZ        -0.00000   0.00000   0.00000  -0.00000   0.00000
  30       26PX         0.00000   0.00001   0.00000   0.00000   0.00000
  31       26PY         0.00000   0.00000   0.00001   0.00000   0.00000
  32       26PZ         0.00001   0.00000   0.00000   0.00000  -0.00000
  33       27PX         0.00000  -0.00006   0.00000   0.00000   0.00000
  34       27PY         0.00000   0.00000  -0.00006   0.00000   0.00000
  35       27PZ        -0.00006   0.00000   0.00000  -0.00002   0.00000
  36       28PX         0.00000   0.00023   0.00000   0.00000   0.00000
  37       28PY         0.00000   0.00000   0.00023   0.00000   0.00000
  38       28PZ         0.00022   0.00000   0.00000   0.00007  -0.00002
  39       29PX         0.00000  -0.00085   0.00000   0.00000   0.00000
  40       29PY         0.00000   0.00000  -0.00085   0.00000   0.00000
  41       29PZ        -0.00081   0.00000   0.00000  -0.00027   0.00005
  42       30PX         0.00000   0.00325   0.00000   0.00000   0.00000
  43       30PY         0.00000   0.00000   0.00325   0.00000   0.00000
  44       30PZ         0.00310   0.00000   0.00000   0.00104  -0.00016
  45       31PX         0.00000  -0.00108   0.00000   0.00000   0.00000
  46       31PY         0.00000   0.00000  -0.00108   0.00000   0.00000
  47       31PZ        -0.00105   0.00000   0.00000  -0.00057   0.00041
  48       32PX         0.00000  -0.08525   0.00000   0.00000   0.00000
  49       32PY         0.00000   0.00000  -0.08525   0.00000   0.00000
  50       32PZ        -0.08111   0.00000   0.00000  -0.02606  -0.00057
  51       33PX         0.00000   0.12908   0.00000   0.00000   0.00000
  52       33PY         0.00000   0.00000   0.12908   0.00000   0.00000
  53       33PZ         0.12046   0.00000   0.00000   0.03985   0.02870
  54       34PX         0.00000   0.31858   0.00000   0.00000   0.00000
  55       34PY         0.00000   0.00000   0.31858   0.00000   0.00000
  56       34PZ         0.30130   0.00000   0.00000   0.10549  -0.00006
  57       35PX         0.00000   0.48125   0.00000   0.00000   0.00000
  58       35PY         0.00000   0.00000   0.48125   0.00000   0.00000
  59       35PZ         0.42917   0.00000   0.00000   0.15588   0.00744
  60       36PX         0.00000   0.29604   0.00000   0.00000   0.00000
  61       36PY         0.00000   0.00000   0.29604   0.00000   0.00000
  62       36PZ         0.24767   0.00000   0.00000   0.14594  -0.00729
  63       37PX         0.00000   0.04396   0.00000   0.00000   0.00000
  64       37PY         0.00000   0.00000   0.04396   0.00000   0.00000
  65       37PZ         0.01061   0.00000   0.00000   0.08260  -0.00823
  66       38PX         0.00000  -0.00407   0.00000   0.00000   0.00000
  67       38PY         0.00000   0.00000  -0.00407   0.00000   0.00000
  68       38PZ        -0.00953   0.00000   0.00000   0.01407   0.02086
  69       39PX         0.00000   0.00255   0.00000   0.00000   0.00000
  70       39PY         0.00000   0.00000   0.00255   0.00000   0.00000
  71       39PZ         0.00991   0.00000   0.00000  -0.00271   0.04226
  72       40PX         0.00000  -0.11034   0.00000   0.00000   0.00000
  73       40PY         0.00000   0.00000  -0.11034   0.00000   0.00000
  74       40PZ        -0.10226   0.00000   0.00000  -0.03220  -0.03013
  75       41PX         0.00000  -0.01415   0.00000   0.00000   0.00000
  76       41PY         0.00000   0.00000  -0.01415   0.00000   0.00000
  77       41PZ         0.02068   0.00000   0.00000  -0.00882  -0.01233
  78       42PX         0.00000  -0.00071   0.00000   0.00000   0.00000
  79       42PY         0.00000   0.00000  -0.00071   0.00000   0.00000
  80       42PZ        -0.00014   0.00000   0.00000   0.00295   0.00121
  81       43D 0       -0.00001   0.00000   0.00000   0.00014  -0.00006
  82       43D+1        0.00000  -0.00001   0.00000   0.00000   0.00000
  83       43D-1        0.00000   0.00000  -0.00001   0.00000   0.00000
  84       43D+2       -0.00000   0.00000   0.00000  -0.00000  -0.00000
  85       43D-2        0.00000   0.00000   0.00000   0.00000   0.00000
  86       44D 0       -0.00052   0.00000   0.00000   0.01754  -0.00838
  87       44D+1        0.00000  -0.00073   0.00000   0.00000   0.00000
  88       44D-1        0.00000   0.00000  -0.00073   0.00000   0.00000
  89       44D+2       -0.00000   0.00000   0.00000  -0.00000  -0.00000
  90       44D-2        0.00000   0.00000   0.00000   0.00000   0.00000
  91       45D 0       -0.00232   0.00000   0.00000   0.07903  -0.03742
  92       45D+1        0.00000  -0.00327   0.00000   0.00000   0.00000
  93       45D-1        0.00000   0.00000  -0.00327   0.00000   0.00000
  94       45D+2       -0.00000   0.00000   0.00000  -0.00000  -0.00000
  95       45D-2        0.00000   0.00000   0.00000   0.00000   0.00000
  96       46D 0        0.00106   0.00000   0.00000   0.07251  -0.04646
  97       46D+1        0.00000  -0.00757   0.00000   0.00000   0.00000
  98       46D-1        0.00000   0.00000  -0.00757   0.00000   0.00000
  99       46D+2       -0.00000   0.00000   0.00000  -0.00000  -0.00000
 100       46D-2        0.00000   0.00000   0.00000   0.00000   0.00000
 101       47D 0       -0.10821   0.00000   0.00000  -0.46559   0.03105
 102       47D+1        0.00000  -0.07758   0.00000   0.00000   0.00000
 103       47D-1        0.00000   0.00000  -0.07758   0.00000   0.00000
 104       47D+2       -0.00000   0.00000   0.00000  -0.00000  -0.00000
 105       47D-2        0.00000   0.00000   0.00000   0.00000   0.00000
 106       48D 0        0.01133   0.00000   0.00000   0.19800  -0.13035
 107       48D+1        0.00000  -0.00211   0.00000   0.00000   0.00000
 108       48D-1        0.00000   0.00000  -0.00211   0.00000   0.00000
 109       48D+2       -0.00000   0.00000   0.00000  -0.00000  -0.00000
 110       48D-2        0.00000   0.00000   0.00000   0.00000   0.00000
 111       49D 0        0.00638   0.00000   0.00000   0.06781  -0.08872
 112       49D+1        0.00000   0.00140   0.00000   0.00000   0.00000
 113       49D-1        0.00000   0.00000   0.00140   0.00000   0.00000
 114       49D+2        0.00000   0.00000   0.00000  -0.00000  -0.00000
 115       49D-2        0.00000   0.00000   0.00000   0.00000   0.00000
 116       50D 0       -0.00197   0.00000   0.00000   0.00104  -0.02723
 117       50D+1        0.00000  -0.00012   0.00000   0.00000   0.00000
 118       50D-1        0.00000   0.00000  -0.00012   0.00000   0.00000
 119       50D+2       -0.00000   0.00000   0.00000  -0.00000  -0.00000
 120       50D-2        0.00000   0.00000   0.00000   0.00000   0.00000
 121       51D 0       -0.00793   0.00000   0.00000   0.10314  -0.03439
 122       51D+1        0.00000  -0.00003   0.00000   0.00000   0.00000
 123       51D-1        0.00000   0.00000  -0.00003   0.00000   0.00000
 124       51D+2        0.00000   0.00000   0.00000   0.00000   0.00000
 125       51D-2        0.00000   0.00000   0.00000   0.00000   0.00000
 126       52D 0        0.10150   0.00000   0.00000   0.70714  -0.14505
 127       52D+1        0.00000   0.06789   0.00000   0.00000   0.00000
 128       52D-1        0.00000   0.00000   0.06789   0.00000   0.00000
 129       52D+2        0.00000   0.00000   0.00000   0.00000   0.00000
 130       52D-2        0.00000   0.00000   0.00000   0.00000   0.00000
 131       53D 0       -0.00029   0.00000   0.00000  -0.00002  -0.00101
 132       53D+1        0.00000   0.00005   0.00000   0.00000   0.00000
 133       53D-1        0.00000   0.00000   0.00005   0.00000   0.00000
 134       53D+2        0.00000   0.00000   0.00000   0.00000   0.00000
 135       53D-2        0.00000   0.00000   0.00000   0.00000   0.00000
 136       54F 0        0.00407   0.00000   0.00000  -0.00820   0.00140
 137       54F+1        0.00000  -0.00293   0.00000   0.00000   0.00000
 138       54F-1        0.00000   0.00000  -0.00293   0.00000   0.00000
 139       54F+2        0.00000   0.00000   0.00000   0.00000   0.00000
 140       54F-2        0.00000   0.00000   0.00000   0.00000   0.00000
 141       54F+3        0.00000   0.00000   0.00000   0.00000   0.00000
 142       54F-3        0.00000   0.00000   0.00000   0.00000   0.00000
 143       55F 0        0.00677   0.00000   0.00000  -0.02014   0.00089
 144       55F+1        0.00000  -0.00475   0.00000   0.00000   0.00000
 145       55F-1        0.00000   0.00000  -0.00475   0.00000   0.00000
 146       55F+2       -0.00000   0.00000   0.00000  -0.00000  -0.00000
 147       55F-2        0.00000   0.00000   0.00000   0.00000   0.00000
 148       55F+3        0.00000   0.00000   0.00000   0.00000   0.00000
 149       55F-3        0.00000   0.00000   0.00000   0.00000   0.00000
 150       56F 0       -0.00056   0.00000   0.00000  -0.00680  -0.00275
 151       56F+1        0.00000  -0.00219   0.00000   0.00000   0.00000
 152       56F-1        0.00000   0.00000  -0.00219   0.00000   0.00000
 153       56F+2       -0.00000   0.00000   0.00000  -0.00000  -0.00000
 154       56F-2        0.00000   0.00000   0.00000   0.00000   0.00000
 155       56F+3        0.00000  -0.00000   0.00000   0.00000   0.00000
 156       56F-3        0.00000   0.00000  -0.00000   0.00000   0.00000
 157       57F 0        0.00004   0.00000   0.00000  -0.00178   0.00031
 158       57F+1        0.00000   0.00001   0.00000   0.00000   0.00000
 159       57F-1        0.00000   0.00000   0.00001   0.00000   0.00000
 160       57F+2       -0.00000   0.00000   0.00000  -0.00000  -0.00000
 161       57F-2        0.00000   0.00000   0.00000   0.00000   0.00000
 162       57F+3        0.00000   0.00000   0.00000   0.00000   0.00000
 163       57F-3        0.00000   0.00000  -0.00000   0.00000   0.00000
 164       58G 0       -0.00140   0.00000   0.00000   0.00094   0.00045
 165       58G+1        0.00000  -0.00060   0.00000   0.00000   0.00000
 166       58G-1        0.00000   0.00000  -0.00060   0.00000   0.00000
 167       58G+2       -0.00000   0.00000   0.00000  -0.00000   0.00000
 168       58G-2        0.00000   0.00000   0.00000   0.00000   0.00000
 169       58G+3        0.00000  -0.00000   0.00000   0.00000   0.00000
 170       58G-3        0.00000   0.00000  -0.00000   0.00000   0.00000
 171       58G+4       -0.00000   0.00000   0.00000  -0.00000  -0.00000
 172       58G-4        0.00000   0.00000   0.00000   0.00000   0.00000
 173       59G 0       -0.00041   0.00000   0.00000   0.00275   0.00028
 174       59G+1        0.00000   0.00014   0.00000   0.00000   0.00000
 175       59G-1        0.00000   0.00000   0.00014   0.00000   0.00000
 176       59G+2        0.00000   0.00000   0.00000   0.00000   0.00000
 177       59G-2        0.00000   0.00000   0.00000   0.00000   0.00000
 178       59G+3        0.00000   0.00000   0.00000   0.00000   0.00000
 179       59G-3        0.00000   0.00000   0.00000   0.00000   0.00000
 180       59G+4       -0.00000   0.00000   0.00000  -0.00000  -0.00000
 181       59G-4        0.00000   0.00000   0.00000   0.00000   0.00000
 182       60G 0        0.00059   0.00000   0.00000   0.00108  -0.00050
 183       60G+1        0.00000   0.00025   0.00000   0.00000   0.00000
 184       60G-1        0.00000   0.00000   0.00025   0.00000   0.00000
 185       60G+2        0.00000   0.00000   0.00000   0.00000   0.00000
 186       60G-2        0.00000   0.00000   0.00000   0.00000   0.00000
 187       60G+3        0.00000  -0.00000   0.00000   0.00000   0.00000
 188       60G-3        0.00000   0.00000  -0.00000   0.00000   0.00000
 189       60G+4        0.00000   0.00000   0.00000   0.00000   0.00000
 190       60G-4        0.00000   0.00000   0.00000   0.00000   0.00000
 191 2   H  1S         -0.00173   0.00000   0.00000   0.00409  -0.00017
 192        2S         -0.01741   0.00000   0.00000   0.04348  -0.00175
 193        3S         -0.06704   0.00000   0.00000   0.17993  -0.00834
 194        4S         -0.11001   0.00000   0.00000   0.42233   0.00349
 195        5S         -0.03506   0.00000   0.00000   0.38017  -0.00736
 196        6S          0.02452   0.00000   0.00000   0.03061   0.09528
 197        7PX         0.00000   0.00372   0.00000   0.00000   0.00000
 198        7PY         0.00000   0.00000   0.00372   0.00000   0.00000
 199        7PZ        -0.01629   0.00000   0.00000   0.01253  -0.00825
 200        8PX         0.00000   0.00097   0.00000   0.00000   0.00000
 201        8PY         0.00000   0.00000   0.00097   0.00000   0.00000
 202        8PZ        -0.02768   0.00000   0.00000   0.04006  -0.00867
 203        9PX         0.00000   0.00056   0.00000   0.00000   0.00000
 204        9PY         0.00000   0.00000   0.00056   0.00000   0.00000
 205        9PZ        -0.00626   0.00000   0.00000   0.05519  -0.01414
 206       10D 0       -0.00521   0.00000   0.00000   0.00346  -0.00287
 207       10D+1        0.00000   0.00160   0.00000   0.00000   0.00000
 208       10D-1        0.00000   0.00000   0.00160   0.00000   0.00000
 209       10D+2       -0.00000   0.00000   0.00000  -0.00000  -0.00000
 210       10D-2        0.00000   0.00000   0.00000   0.00000   0.00000
 211       11D 0       -0.00281   0.00000   0.00000   0.00241  -0.00027
 212       11D+1        0.00000  -0.00088   0.00000   0.00000   0.00000
 213       11D-1        0.00000   0.00000  -0.00088   0.00000   0.00000
 214       11D+2       -0.00000   0.00000   0.00000  -0.00000  -0.00000
 215       11D-2        0.00000   0.00000   0.00000   0.00000   0.00000
                           7         8         9        10        11
                           V         V         V         V         V
     Eigenvalues --     0.01358   0.01400   0.01400   0.02290   0.03461
   1 1   Sc 1S         -0.00000   0.00000   0.00000  -0.00000   0.00000
   2        2S          0.00000   0.00000   0.00000   0.00000  -0.00000
   3        3S         -0.00000   0.00000   0.00000  -0.00000   0.00000
   4        4S          0.00000   0.00000   0.00000   0.00000  -0.00000
   5        5S         -0.00000   0.00000   0.00000  -0.00000   0.00000
   6        6S          0.00000   0.00000   0.00000   0.00000  -0.00000
   7        7S         -0.00000   0.00000   0.00000  -0.00001   0.00000
   8        8S          0.00001   0.00000   0.00000   0.00002  -0.00001
   9        9S         -0.00002   0.00000   0.00000  -0.00005   0.00004
  10       10S          0.00005   0.00000   0.00000   0.00012  -0.00011
  11       11S         -0.00010   0.00000   0.00000  -0.00020   0.00026
  12       12S          0.00022   0.00000   0.00000   0.00033  -0.00071
  13       13S         -0.00262   0.00000   0.00000  -0.00912   0.00332
  14       14S          0.01841   0.00000   0.00000   0.06809  -0.01899
  15       15S          0.06998   0.00000   0.00000   0.22740  -0.08878
  16       16S         -0.11341   0.00000   0.00000  -0.35801   0.13784
  17       17S         -0.10173   0.00000   0.00000  -0.27586   0.21450
  18       18S          0.99025   0.00000   0.00000   0.51824   1.40125
  19       19S         -0.17988   0.00000   0.00000  -1.71726   0.36952
  20       20S          3.26720   0.00000   0.00000  -2.26549 -23.07417
  21       21S         -0.05551   0.00000   0.00000  -0.18632   0.07017
  22       22S          0.13882   0.00000   0.00000   0.42388  -0.23422
  23       23S         -0.62879   0.00000   0.00000  -2.66862   0.10642
  24       24PX         0.00000  -0.00000   0.00000   0.00000   0.00000
  25       24PY         0.00000   0.00000  -0.00000   0.00000   0.00000
  26       24PZ        -0.00000   0.00000   0.00000   0.00000  -0.00000
  27       25PX         0.00000   0.00000   0.00000   0.00000   0.00000
  28       25PY         0.00000   0.00000   0.00000   0.00000   0.00000
  29       25PZ         0.00000   0.00000   0.00000  -0.00000   0.00000
  30       26PX         0.00000  -0.00000   0.00000   0.00000   0.00000
  31       26PY         0.00000   0.00000  -0.00000   0.00000   0.00000
  32       26PZ        -0.00000   0.00000   0.00000   0.00000  -0.00001
  33       27PX         0.00000   0.00002   0.00000   0.00000   0.00000
  34       27PY         0.00000   0.00000   0.00002   0.00000   0.00000
  35       27PZ         0.00000   0.00000   0.00000  -0.00001   0.00003
  36       28PX         0.00000  -0.00008   0.00000   0.00000   0.00000
  37       28PY         0.00000   0.00000  -0.00008   0.00000   0.00000
  38       28PZ        -0.00001   0.00000   0.00000   0.00004  -0.00012
  39       29PX         0.00000   0.00026   0.00000   0.00000   0.00000
  40       29PY         0.00000   0.00000   0.00026   0.00000   0.00000
  41       29PZ         0.00001   0.00000   0.00000  -0.00014   0.00040
  42       30PX         0.00000  -0.00084   0.00000   0.00000   0.00000
  43       30PY         0.00000   0.00000  -0.00084   0.00000   0.00000
  44       30PZ         0.00001   0.00000   0.00000   0.00041  -0.00118
  45       31PX         0.00000   0.00173   0.00000   0.00000   0.00000
  46       31PY         0.00000   0.00000   0.00173   0.00000   0.00000
  47       31PZ         0.00056   0.00000   0.00000  -0.00120   0.00370
  48       32PX         0.00000   0.00240   0.00000   0.00000   0.00000
  49       32PY         0.00000   0.00000   0.00240   0.00000   0.00000
  50       32PZ        -0.00855   0.00000   0.00000   0.00427  -0.01496
  51       33PX         0.00000   0.08994   0.00000   0.00000   0.00000
  52       33PY         0.00000   0.00000   0.08994   0.00000   0.00000
  53       33PZ         0.06942   0.00000   0.00000  -0.06700   0.31672
  54       34PX         0.00000  -0.02631   0.00000   0.00000   0.00000
  55       34PY         0.00000   0.00000  -0.02631   0.00000   0.00000
  56       34PZ         0.03073   0.00000   0.00000  -0.00060   0.04412
  57       35PX         0.00000   0.14075   0.00000   0.00000   0.00000
  58       35PY         0.00000   0.00000   0.14075   0.00000   0.00000
  59       35PZ         0.08274   0.00000   0.00000  -0.20271  -0.00703
  60       36PX         0.00000   0.00172   0.00000   0.00000   0.00000
  61       36PY         0.00000   0.00000   0.00172   0.00000   0.00000
  62       36PZ         0.02806   0.00000   0.00000  -0.08252   0.03199
  63       37PX         0.00000   0.00348   0.00000   0.00000   0.00000
  64       37PY         0.00000   0.00000   0.00348   0.00000   0.00000
  65       37PZ        -0.26859   0.00000   0.00000   0.11250  -0.21826
  66       38PX         0.00000   0.35979   0.00000   0.00000   0.00000
  67       38PY         0.00000   0.00000   0.35979   0.00000   0.00000
  68       38PZ        -0.58476   0.00000   0.00000   0.33778  -0.54458
  69       39PX         0.00000  -0.16154   0.00000   0.00000   0.00000
  70       39PY         0.00000   0.00000  -0.16154   0.00000   0.00000
  71       39PZ        -0.56839   0.00000   0.00000   1.47493   7.10600
  72       40PX         0.00000  -0.09330   0.00000   0.00000   0.00000
  73       40PY         0.00000   0.00000  -0.09330   0.00000   0.00000
  74       40PZ        -0.06999   0.00000   0.00000   0.06631  -0.32764
  75       41PX         0.00000  -0.20721   0.00000   0.00000   0.00000
  76       41PY         0.00000   0.00000  -0.20721   0.00000   0.00000
  77       41PZ        -0.05346   0.00000   0.00000   0.22147  -0.01107
  78       42PX         0.00000   0.98251   0.00000   0.00000   0.00000
  79       42PY         0.00000   0.00000   0.98251   0.00000   0.00000
  80       42PZ        -1.06911   0.00000   0.00000   0.52867   0.77441
  81       43D 0       -0.00003   0.00000   0.00000  -0.00001   0.00002
  82       43D+1        0.00000   0.00000   0.00000   0.00000   0.00000
  83       43D-1        0.00000   0.00000   0.00000   0.00000   0.00000
  84       43D+2        0.00000   0.00000   0.00000  -0.00000  -0.00000
  85       43D-2        0.00000   0.00000   0.00000   0.00000   0.00000
  86       44D 0       -0.00308   0.00000   0.00000  -0.00081  -0.00009
  87       44D+1        0.00000   0.00030   0.00000   0.00000   0.00000
  88       44D-1        0.00000   0.00000   0.00030   0.00000   0.00000
  89       44D+2       -0.00000   0.00000   0.00000  -0.00000  -0.00000
  90       44D-2        0.00000   0.00000   0.00000   0.00000   0.00000
  91       45D 0       -0.01458   0.00000   0.00000  -0.00377   0.00115
  92       45D+1        0.00000   0.00114   0.00000   0.00000   0.00000
  93       45D-1        0.00000   0.00000   0.00114   0.00000   0.00000
  94       45D+2       -0.00000   0.00000   0.00000  -0.00000  -0.00000
  95       45D-2        0.00000   0.00000   0.00000   0.00000   0.00000
  96       46D 0        0.01178   0.00000   0.00000   0.00066  -0.04964
  97       46D+1        0.00000   0.00795   0.00000   0.00000   0.00000
  98       46D-1        0.00000   0.00000   0.00795   0.00000   0.00000
  99       46D+2       -0.00000   0.00000   0.00000  -0.00000  -0.00000
 100       46D-2        0.00000   0.00000   0.00000   0.00000   0.00000
 101       47D 0        0.48596   0.00000   0.00000  -0.06216  -0.99608
 102       47D+1        0.00000   0.10881   0.00000   0.00000   0.00000
 103       47D-1        0.00000   0.00000   0.10881   0.00000   0.00000
 104       47D+2       -0.00000   0.00000   0.00000  -0.00000   0.00000
 105       47D-2        0.00000   0.00000   0.00000   0.00000   0.00000
 106       48D 0        0.00154   0.00000   0.00000  -0.00983  -0.03178
 107       48D+1        0.00000   0.00180   0.00000   0.00000   0.00000
 108       48D-1        0.00000   0.00000   0.00180   0.00000   0.00000
 109       48D+2       -0.00000   0.00000   0.00000  -0.00000  -0.00000
 110       48D-2        0.00000   0.00000   0.00000   0.00000   0.00000
 111       49D 0        0.09414   0.00000   0.00000  -0.13174   0.04528
 112       49D+1        0.00000  -0.03107   0.00000   0.00000   0.00000
 113       49D-1        0.00000   0.00000  -0.03107   0.00000   0.00000
 114       49D+2        0.00000   0.00000   0.00000  -0.00000  -0.00000
 115       49D-2        0.00000   0.00000   0.00000   0.00000   0.00000
 116       50D 0        0.10201   0.00000   0.00000  -0.26829  -0.81916
 117       50D+1        0.00000   0.00024   0.00000   0.00000   0.00000
 118       50D-1        0.00000   0.00000   0.00024   0.00000   0.00000
 119       50D+2       -0.00000   0.00000   0.00000  -0.00000  -0.00000
 120       50D-2        0.00000   0.00000   0.00000   0.00000   0.00000
 121       51D 0       -0.04892   0.00000   0.00000  -0.00954   0.06062
 122       51D+1        0.00000  -0.00643   0.00000   0.00000   0.00000
 123       51D-1        0.00000   0.00000  -0.00643   0.00000   0.00000
 124       51D+2        0.00000   0.00000   0.00000   0.00000  -0.00000
 125       51D-2        0.00000   0.00000   0.00000   0.00000   0.00000
 126       52D 0       -0.52643   0.00000   0.00000   0.05843   1.00230
 127       52D+1        0.00000  -0.10482   0.00000   0.00000   0.00000
 128       52D-1        0.00000   0.00000  -0.10482   0.00000   0.00000
 129       52D+2        0.00000   0.00000   0.00000   0.00000  -0.00000
 130       52D-2        0.00000   0.00000   0.00000   0.00000   0.00000
 131       53D 0       -0.00397   0.00000   0.00000  -0.18506  -1.61433
 132       53D+1        0.00000   0.06455   0.00000   0.00000   0.00000
 133       53D-1        0.00000   0.00000   0.06455   0.00000   0.00000
 134       53D+2        0.00000   0.00000   0.00000   0.00000  -0.00000
 135       53D-2        0.00000   0.00000   0.00000   0.00000   0.00000
 136       54F 0        0.00086   0.00000   0.00000   0.00014  -0.00014
 137       54F+1        0.00000   0.00005   0.00000   0.00000   0.00000
 138       54F-1        0.00000   0.00000   0.00005   0.00000   0.00000
 139       54F+2        0.00000   0.00000   0.00000   0.00000   0.00000
 140       54F-2        0.00000   0.00000   0.00000   0.00000   0.00000
 141       54F+3        0.00000  -0.00000   0.00000   0.00000   0.00000
 142       54F-3        0.00000   0.00000  -0.00000   0.00000   0.00000
 143       55F 0       -0.00476   0.00000   0.00000  -0.00433  -0.00104
 144       55F+1        0.00000  -0.00033   0.00000   0.00000   0.00000
 145       55F-1        0.00000   0.00000  -0.00033   0.00000   0.00000
 146       55F+2       -0.00000   0.00000   0.00000   0.00000   0.00000
 147       55F-2        0.00000   0.00000   0.00000   0.00000   0.00000
 148       55F+3        0.00000  -0.00000   0.00000   0.00000   0.00000
 149       55F-3        0.00000   0.00000  -0.00000   0.00000   0.00000
 150       56F 0       -0.03530   0.00000   0.00000   0.02966   0.02949
 151       56F+1        0.00000   0.00938   0.00000   0.00000   0.00000
 152       56F-1        0.00000   0.00000   0.00938   0.00000   0.00000
 153       56F+2       -0.00000   0.00000   0.00000  -0.00000  -0.00000
 154       56F-2        0.00000   0.00000   0.00000   0.00000   0.00000
 155       56F+3        0.00000   0.00000   0.00000   0.00000   0.00000
 156       56F-3        0.00000   0.00000   0.00000   0.00000   0.00000
 157       57F 0       -0.03646   0.00000   0.00000   0.06865   0.18905
 158       57F+1        0.00000   0.01257   0.00000   0.00000   0.00000
 159       57F-1        0.00000   0.00000   0.01257   0.00000   0.00000
 160       57F+2       -0.00000   0.00000   0.00000  -0.00000  -0.00000
 161       57F-2        0.00000   0.00000   0.00000   0.00000   0.00000
 162       57F+3        0.00000   0.00000   0.00000   0.00000   0.00000
 163       57F-3        0.00000   0.00000   0.00000   0.00000   0.00000
 164       58G 0        0.00033   0.00000   0.00000   0.00056   0.00013
 165       58G+1        0.00000   0.00004   0.00000   0.00000   0.00000
 166       58G-1        0.00000   0.00000   0.00004   0.00000   0.00000
 167       58G+2        0.00000   0.00000   0.00000   0.00000   0.00000
 168       58G-2        0.00000   0.00000   0.00000   0.00000   0.00000
 169       58G+3        0.00000  -0.00000   0.00000   0.00000   0.00000
 170       58G-3        0.00000   0.00000  -0.00000   0.00000   0.00000
 171       58G+4       -0.00000   0.00000   0.00000  -0.00000  -0.00000
 172       58G-4        0.00000   0.00000   0.00000   0.00000   0.00000
 173       59G 0        0.00375   0.00000   0.00000  -0.00171  -0.00115
 174       59G+1        0.00000  -0.00172   0.00000   0.00000   0.00000
 175       59G-1        0.00000   0.00000  -0.00172   0.00000   0.00000
 176       59G+2        0.00000   0.00000   0.00000   0.00000   0.00000
 177       59G-2        0.00000   0.00000   0.00000   0.00000   0.00000
 178       59G+3        0.00000   0.00000   0.00000   0.00000   0.00000
 179       59G-3        0.00000   0.00000   0.00000   0.00000   0.00000
 180       59G+4        0.00000   0.00000   0.00000   0.00000  -0.00000
 181       59G-4        0.00000   0.00000   0.00000   0.00000   0.00000
 182       60G 0        0.00655   0.00000   0.00000  -0.01487  -0.03404
 183       60G+1        0.00000  -0.00504   0.00000   0.00000   0.00000
 184       60G-1        0.00000   0.00000  -0.00504   0.00000   0.00000
 185       60G+2        0.00000   0.00000   0.00000   0.00000  -0.00000
 186       60G-2        0.00000   0.00000   0.00000   0.00000   0.00000
 187       60G+3        0.00000  -0.00000   0.00000   0.00000   0.00000
 188       60G-3        0.00000   0.00000  -0.00000   0.00000   0.00000
 189       60G+4       -0.00000   0.00000   0.00000  -0.00000   0.00000
 190       60G-4        0.00000   0.00000   0.00000   0.00000   0.00000
 191 2   H  1S         -0.00004   0.00000   0.00000   0.00009   0.00004
 192        2S         -0.00029   0.00000   0.00000   0.00083   0.00081
 193        3S         -0.00041   0.00000   0.00000   0.00561   0.00163
 194        4S         -0.13528   0.00000   0.00000  -0.00744   0.04296
 195        5S         -0.97918   0.00000   0.00000   0.57488  -1.27320
 196        6S         -2.79857   0.00000   0.00000   5.58997  23.77160
 197        7PX         0.00000   0.00095   0.00000   0.00000   0.00000
 198        7PY         0.00000   0.00000   0.00095   0.00000   0.00000
 199        7PZ        -0.00645   0.00000   0.00000  -0.00224   0.00012
 200        8PX         0.00000  -0.00584   0.00000   0.00000   0.00000
 201        8PY         0.00000   0.00000  -0.00584   0.00000   0.00000
 202        8PZ        -0.03702   0.00000   0.00000  -0.03178  -0.02492
 203        9PX         0.00000  -0.08540   0.00000   0.00000   0.00000
 204        9PY         0.00000   0.00000  -0.08540   0.00000   0.00000
 205        9PZ        -0.10783   0.00000   0.00000  -0.11224  -0.68803
 206       10D 0       -0.00404   0.00000   0.00000  -0.00343  -0.00120
 207       10D+1        0.00000  -0.00063   0.00000   0.00000   0.00000
 208       10D-1        0.00000   0.00000  -0.00063   0.00000   0.00000
 209       10D+2        0.00000   0.00000   0.00000   0.00000  -0.00000
 210       10D-2        0.00000   0.00000   0.00000   0.00000   0.00000
 211       11D 0        0.00792   0.00000   0.00000  -0.01815  -0.02729
 212       11D+1        0.00000  -0.00414   0.00000   0.00000   0.00000
 213       11D-1        0.00000   0.00000  -0.00414   0.00000   0.00000
 214       11D+2       -0.00000   0.00000   0.00000  -0.00000  -0.00000
 215       11D-2        0.00000   0.00000   0.00000   0.00000   0.00000
     Alpha Density Matrix:
                           1         2         3         4         5
   1 1   Sc 1S          0.00000
   2        2S         -0.00000   0.00000
   3        3S          0.00000  -0.00000   0.00000
   4        4S         -0.00000   0.00000  -0.00000   0.00000
   5        5S          0.00000  -0.00000   0.00000  -0.00000   0.00000
   6        6S         -0.00000   0.00000  -0.00000   0.00000  -0.00000
   7        7S          0.00000  -0.00000   0.00000  -0.00000   0.00000
   8        8S         -0.00000   0.00000  -0.00000   0.00000  -0.00000
   9        9S          0.00000  -0.00000   0.00000  -0.00000   0.00000
  10       10S         -0.00000   0.00000  -0.00000   0.00000  -0.00000
  11       11S          0.00000  -0.00000   0.00000  -0.00000   0.00000
  12       12S         -0.00000   0.00000  -0.00000   0.00000  -0.00000
  13       13S         -0.00000   0.00000  -0.00000   0.00000  -0.00000
  14       14S          0.00000  -0.00000   0.00000  -0.00000   0.00001
  15       15S          0.00000  -0.00000   0.00000  -0.00000   0.00000
  16       16S         -0.00000   0.00000  -0.00000   0.00000  -0.00001
  17       17S         -0.00000   0.00000  -0.00000   0.00000  -0.00001
  18       18S          0.00000  -0.00000   0.00000  -0.00000   0.00000
  19       19S          0.00000  -0.00000   0.00000  -0.00000   0.00000
  20       20S          0.00000  -0.00000   0.00000  -0.00000   0.00000
  21       21S         -0.00000   0.00000  -0.00000   0.00000  -0.00000
  22       22S          0.00000  -0.00000   0.00000  -0.00000   0.00000
  23       23S          0.00000  -0.00000   0.00000  -0.00000   0.00000
  24       24PX         0.00000   0.00000   0.00000   0.00000   0.00000
  25       24PY         0.00000   0.00000   0.00000   0.00000   0.00000
  26       24PZ        -0.00000   0.00000  -0.00000   0.00000  -0.00000
  27       25PX         0.00000   0.00000   0.00000   0.00000   0.00000
  28       25PY         0.00000   0.00000   0.00000   0.00000   0.00000
  29       25PZ         0.00000  -0.00000   0.00000  -0.00000   0.00000
  30       26PX         0.00000   0.00000   0.00000   0.00000   0.00000
  31       26PY         0.00000   0.00000   0.00000   0.00000   0.00000
  32       26PZ        -0.00000   0.00000  -0.00000   0.00000  -0.00000
  33       27PX         0.00000   0.00000   0.00000   0.00000   0.00000
  34       27PY         0.00000   0.00000   0.00000   0.00000   0.00000
  35       27PZ         0.00000  -0.00000   0.00000  -0.00000   0.00000
  36       28PX         0.00000   0.00000   0.00000   0.00000   0.00000
  37       28PY         0.00000   0.00000   0.00000   0.00000   0.00000
  38       28PZ        -0.00000   0.00000  -0.00000   0.00000  -0.00000
  39       29PX         0.00000   0.00000   0.00000   0.00000   0.00000
  40       29PY         0.00000   0.00000   0.00000   0.00000   0.00000
  41       29PZ         0.00000  -0.00000   0.00000  -0.00000   0.00000
  42       30PX         0.00000   0.00000   0.00000   0.00000   0.00000
  43       30PY         0.00000   0.00000   0.00000   0.00000   0.00000
  44       30PZ        -0.00000   0.00000  -0.00000   0.00000  -0.00000
  45       31PX         0.00000   0.00000   0.00000   0.00000   0.00000
  46       31PY         0.00000   0.00000   0.00000   0.00000   0.00000
  47       31PZ         0.00000  -0.00000   0.00000  -0.00000   0.00000
  48       32PX         0.00000   0.00000   0.00000   0.00000   0.00000
  49       32PY         0.00000   0.00000   0.00000   0.00000   0.00000
  50       32PZ        -0.00000   0.00000  -0.00000   0.00000  -0.00000
  51       33PX         0.00000   0.00000   0.00000   0.00000   0.00000
  52       33PY         0.00000   0.00000   0.00000   0.00000   0.00000
  53       33PZ         0.00000  -0.00000   0.00000  -0.00000   0.00000
  54       34PX         0.00000   0.00000   0.00000   0.00000   0.00000
  55       34PY         0.00000   0.00000   0.00000   0.00000   0.00000
  56       34PZ         0.00000  -0.00000   0.00000  -0.00000   0.00000
  57       35PX         0.00000   0.00000   0.00000   0.00000   0.00000
  58       35PY         0.00000   0.00000   0.00000   0.00000   0.00000
  59       35PZ         0.00000  -0.00000   0.00000  -0.00000   0.00000
  60       36PX         0.00000   0.00000   0.00000   0.00000   0.00000
  61       36PY         0.00000   0.00000   0.00000   0.00000   0.00000
  62       36PZ         0.00000  -0.00000   0.00000  -0.00000   0.00000
  63       37PX         0.00000   0.00000   0.00000   0.00000   0.00000
  64       37PY         0.00000   0.00000   0.00000   0.00000   0.00000
  65       37PZ         0.00000  -0.00000   0.00000  -0.00000   0.00000
  66       38PX         0.00000   0.00000   0.00000   0.00000   0.00000
  67       38PY         0.00000   0.00000   0.00000   0.00000   0.00000
  68       38PZ         0.00000  -0.00000   0.00000  -0.00000   0.00000
  69       39PX         0.00000   0.00000   0.00000   0.00000   0.00000
  70       39PY         0.00000   0.00000   0.00000   0.00000   0.00000
  71       39PZ         0.00000  -0.00000   0.00000  -0.00000   0.00000
[...]
                         211       212       213       214       215
 211       11D 0        0.00003
 212       11D+1        0.00000   0.00000
 213       11D-1        0.00000   0.00000   0.00000
 214       11D+2       -0.00000   0.00000   0.00000   0.00000
 215       11D-2        0.00000   0.00000   0.00000   0.00000   0.00000
     Gross orbital populations:
                         Total     Alpha     Beta      Spin
   1 1   Sc 1S         -0.00000  -0.00000  -0.00000   0.00000
   2        2S          0.00000   0.00000   0.00000   0.00000
   3        3S         -0.00000  -0.00000  -0.00000   0.00000
   4        4S          0.00000   0.00000   0.00000   0.00000
   5        5S         -0.00000  -0.00000  -0.00000   0.00000
   6        6S          0.00000   0.00000   0.00000   0.00000
   7        7S         -0.00000  -0.00000  -0.00000   0.00000
   8        8S          0.00000   0.00000   0.00000   0.00000
   9        9S         -0.00001  -0.00000  -0.00000   0.00000
  10       10S          0.00004   0.00002   0.00002   0.00000
  11       11S         -0.00032  -0.00016  -0.00016   0.00000
  12       12S          0.00350   0.00175   0.00175   0.00000
  13       13S          0.00573   0.00287   0.00287   0.00000
  14       14S         -0.34401  -0.17200  -0.17200   0.00000
  15       15S         -0.13177  -0.06589  -0.06589   0.00000
  16       16S          1.52424   0.76212   0.76212   0.00000
  17       17S          0.74217   0.37109   0.37109   0.00000
  18       18S          0.34927   0.17463   0.17463   0.00000
  19       19S          0.92183   0.46092   0.46092   0.00000
  20       20S          0.27970   0.13985   0.13985   0.00000
  21       21S          0.21630   0.10815   0.10815   0.00000
  22       22S         -0.09230  -0.04615  -0.04615   0.00000
  23       23S         -0.00129  -0.00064  -0.00064   0.00000
  24       24PX         0.00000   0.00000   0.00000   0.00000
  25       24PY         0.00000   0.00000   0.00000   0.00000
  26       24PZ         0.00000   0.00000   0.00000   0.00000
  27       25PX        -0.00000  -0.00000  -0.00000   0.00000
  28       25PY        -0.00000  -0.00000  -0.00000   0.00000
  29       25PZ        -0.00000  -0.00000  -0.00000   0.00000
  30       26PX         0.00000   0.00000   0.00000   0.00000
  31       26PY         0.00000   0.00000   0.00000   0.00000
  32       26PZ         0.00000   0.00000   0.00000   0.00000
  33       27PX        -0.00000  -0.00000  -0.00000   0.00000
  34       27PY        -0.00000  -0.00000  -0.00000   0.00000
  35       27PZ        -0.00000  -0.00000  -0.00000   0.00000
  36       28PX         0.00000   0.00000   0.00000   0.00000
  37       28PY         0.00000   0.00000   0.00000   0.00000
  38       28PZ         0.00000   0.00000   0.00000   0.00000
  39       29PX        -0.00003  -0.00001  -0.00001   0.00000
  40       29PY        -0.00003  -0.00001  -0.00001   0.00000
  41       29PZ        -0.00003  -0.00001  -0.00001   0.00000
  42       30PX         0.00031   0.00015   0.00015   0.00000
  43       30PY         0.00031   0.00015   0.00015   0.00000
  44       30PZ         0.00031   0.00015   0.00015   0.00000
  45       31PX        -0.00028  -0.00014  -0.00014   0.00000
  46       31PY        -0.00028  -0.00014  -0.00014   0.00000
  47       31PZ        -0.00030  -0.00015  -0.00015   0.00000
  48       32PX        -0.05106  -0.02553  -0.02553   0.00000
  49       32PY        -0.05106  -0.02553  -0.02553   0.00000
  50       32PZ        -0.05113  -0.02556  -0.02556   0.00000
  51       33PX         0.14515   0.07257   0.07257   0.00000
  52       33PY         0.14515   0.07257   0.07257   0.00000
  53       33PZ         0.14441   0.07220   0.07220   0.00000
  54       34PX         0.54009   0.27005   0.27005   0.00000
  55       34PY         0.54009   0.27005   0.27005   0.00000
  56       34PZ         0.53781   0.26890   0.26890   0.00000
  57       35PX         0.95131   0.47565   0.47565   0.00000
  58       35PY         0.95131   0.47565   0.47565   0.00000
  59       35PZ         0.88487   0.44244   0.44244   0.00000
  60       36PX         0.52274   0.26137   0.26137   0.00000
  61       36PY         0.52274   0.26137   0.26137   0.00000
  62       36PZ         0.43331   0.21665   0.21665   0.00000
  63       37PX         0.04746   0.02373   0.02373   0.00000
  64       37PY         0.04746   0.02373   0.02373   0.00000
  65       37PZ        -0.02615  -0.01308  -0.01308   0.00000
  66       38PX        -0.00215  -0.00107  -0.00107   0.00000
  67       38PY        -0.00215  -0.00107  -0.00107   0.00000
  68       38PZ        -0.01135  -0.00568  -0.00568   0.00000
  69       39PX         0.00054   0.00027   0.00027   0.00000
  70       39PY         0.00054   0.00027   0.00027   0.00000
  71       39PZ         0.00477   0.00239   0.00239   0.00000
  72       40PX        -0.12857  -0.06429  -0.06429   0.00000
  73       40PY        -0.12857  -0.06429  -0.06429   0.00000
  74       40PZ        -0.12687  -0.06343  -0.06343   0.00000
  75       41PX        -0.02799  -0.01399  -0.01399   0.00000
  76       41PY        -0.02799  -0.01399  -0.01399   0.00000
  77       41PZ         0.03623   0.01811   0.01811   0.00000
  78       42PX        -0.00005  -0.00003  -0.00003   0.00000
  79       42PY        -0.00005  -0.00003  -0.00003   0.00000
  80       42PZ        -0.00036  -0.00018  -0.00018   0.00000
  81       43D 0        0.00001   0.00000   0.00000   0.00000
  82       43D+1        0.00000   0.00000   0.00000   0.00000
  83       43D-1        0.00000   0.00000   0.00000   0.00000
  84       43D+2        0.00000   0.00000   0.00000   0.00000
  85       43D-2        0.00000   0.00000   0.00000   0.00000
  86       44D 0        0.00524   0.00262   0.00262   0.00000
  87       44D+1        0.00001   0.00000   0.00000   0.00000
  88       44D-1        0.00001   0.00000   0.00000   0.00000
  89       44D+2       -0.00000  -0.00000  -0.00000   0.00000
  90       44D-2       -0.00000  -0.00000  -0.00000   0.00000
  91       45D 0        0.05632   0.02816   0.02816   0.00000
  92       45D+1        0.00008   0.00004   0.00004   0.00000
  93       45D-1        0.00008   0.00004   0.00004   0.00000
  94       45D+2        0.00000   0.00000   0.00000   0.00000
  95       45D-2        0.00000   0.00000   0.00000   0.00000
  96       46D 0        0.09441   0.04721   0.04721   0.00000
  97       46D+1        0.00028   0.00014   0.00014   0.00000
  98       46D-1        0.00028   0.00014   0.00014   0.00000
  99       46D+2       -0.00000  -0.00000  -0.00000   0.00000
 100       46D-2       -0.00000  -0.00000  -0.00000   0.00000
 101       47D 0       -0.67001  -0.33501  -0.33501   0.00000
 102       47D+1        0.00291   0.00145   0.00145   0.00000
 103       47D-1        0.00291   0.00145   0.00145   0.00000
 104       47D+2       -0.00000  -0.00000  -0.00000   0.00000
 105       47D-2       -0.00000  -0.00000  -0.00000   0.00000
 106       48D 0        0.37594   0.18797   0.18797   0.00000
 107       48D+1        0.00005   0.00002   0.00002   0.00000
 108       48D-1        0.00005   0.00002   0.00002   0.00000
 109       48D+2        0.00000   0.00000   0.00000   0.00000
 110       48D-2        0.00000   0.00000   0.00000   0.00000
 111       49D 0        0.10498   0.05249   0.05249   0.00000
 112       49D+1       -0.00001  -0.00001  -0.00001   0.00000
 113       49D-1       -0.00001  -0.00001  -0.00001   0.00000
 114       49D+2        0.00000   0.00000   0.00000   0.00000
 115       49D-2        0.00000   0.00000   0.00000   0.00000
 116       50D 0        0.00596   0.00298   0.00298   0.00000
 117       50D+1        0.00000   0.00000   0.00000   0.00000
 118       50D-1        0.00000   0.00000   0.00000   0.00000
 119       50D+2        0.00000   0.00000   0.00000   0.00000
 120       50D-2        0.00000   0.00000   0.00000   0.00000
 121       51D 0        0.12540   0.06270   0.06270   0.00000
 122       51D+1        0.00000   0.00000   0.00000   0.00000
 123       51D-1        0.00000   0.00000   0.00000   0.00000
 124       51D+2       -0.00000  -0.00000  -0.00000   0.00000
 125       51D-2       -0.00000  -0.00000  -0.00000   0.00000
 126       52D 0        1.08824   0.54412   0.54412   0.00000
 127       52D+1       -0.00254  -0.00127  -0.00127   0.00000
 128       52D-1       -0.00254  -0.00127  -0.00127   0.00000
 129       52D+2       -0.00000  -0.00000  -0.00000   0.00000
 130       52D-2       -0.00000  -0.00000  -0.00000   0.00000
 131       53D 0        0.00006   0.00003   0.00003   0.00000
 132       53D+1       -0.00000  -0.00000  -0.00000   0.00000
 133       53D-1       -0.00000  -0.00000  -0.00000   0.00000
 134       53D+2       -0.00000  -0.00000  -0.00000   0.00000
 135       53D-2       -0.00000  -0.00000  -0.00000   0.00000
 136       54F 0        0.00097   0.00049   0.00049   0.00000
 137       54F+1        0.00003   0.00001   0.00001   0.00000
 138       54F-1        0.00003   0.00001   0.00001   0.00000
 139       54F+2       -0.00000  -0.00000  -0.00000   0.00000
 140       54F-2       -0.00000  -0.00000  -0.00000   0.00000
 141       54F+3       -0.00000  -0.00000  -0.00000   0.00000
 142       54F-3       -0.00000  -0.00000  -0.00000   0.00000
 143       55F 0        0.00729   0.00364   0.00364   0.00000
 144       55F+1        0.00004   0.00002   0.00002   0.00000
 145       55F-1        0.00004   0.00002   0.00002   0.00000
 146       55F+2       -0.00000  -0.00000  -0.00000   0.00000
 147       55F-2       -0.00000  -0.00000  -0.00000   0.00000
 148       55F+3        0.00000   0.00000   0.00000   0.00000
 149       55F-3        0.00000   0.00000   0.00000   0.00000
 150       56F 0        0.00197   0.00098   0.00098   0.00000
 151       56F+1        0.00001   0.00001   0.00001   0.00000
 152       56F-1        0.00001   0.00001   0.00001   0.00000
 153       56F+2       -0.00000  -0.00000  -0.00000   0.00000
 154       56F-2       -0.00000  -0.00000  -0.00000   0.00000
 155       56F+3        0.00000   0.00000   0.00000   0.00000
 156       56F-3       -0.00000  -0.00000  -0.00000   0.00000
 157       57F 0        0.00011   0.00006   0.00006   0.00000
 158       57F+1       -0.00000  -0.00000  -0.00000   0.00000
 159       57F-1       -0.00000  -0.00000  -0.00000   0.00000
 160       57F+2        0.00000   0.00000   0.00000   0.00000
 161       57F-2        0.00000   0.00000   0.00000   0.00000
 162       57F+3       -0.00000  -0.00000  -0.00000   0.00000
 163       57F-3       -0.00000  -0.00000  -0.00000   0.00000
 164       58G 0        0.00010   0.00005   0.00005   0.00000
 165       58G+1        0.00000   0.00000   0.00000   0.00000
 166       58G-1        0.00000   0.00000   0.00000   0.00000
 167       58G+2       -0.00000  -0.00000  -0.00000   0.00000
 168       58G-2       -0.00000  -0.00000  -0.00000   0.00000
 169       58G+3       -0.00000  -0.00000  -0.00000   0.00000
 170       58G-3        0.00000   0.00000   0.00000   0.00000
 171       58G+4        0.00000   0.00000   0.00000   0.00000
 172       58G-4        0.00000   0.00000   0.00000   0.00000
 173       59G 0        0.00061   0.00030   0.00030   0.00000
 174       59G+1       -0.00000  -0.00000  -0.00000   0.00000
 175       59G-1       -0.00000  -0.00000  -0.00000   0.00000
 176       59G+2       -0.00000  -0.00000  -0.00000   0.00000
 177       59G-2       -0.00000  -0.00000  -0.00000   0.00000
 178       59G+3        0.00000   0.00000   0.00000   0.00000
 179       59G-3        0.00000   0.00000   0.00000   0.00000
 180       59G+4       -0.00000  -0.00000  -0.00000   0.00000
 181       59G-4       -0.00000  -0.00000  -0.00000   0.00000
 182       60G 0        0.00006   0.00003   0.00003   0.00000
 183       60G+1       -0.00000  -0.00000  -0.00000   0.00000
 184       60G-1       -0.00000  -0.00000  -0.00000   0.00000
 185       60G+2       -0.00000  -0.00000  -0.00000   0.00000
 186       60G-2       -0.00000  -0.00000  -0.00000   0.00000
 187       60G+3       -0.00000  -0.00000  -0.00000   0.00000
 188       60G-3       -0.00000  -0.00000  -0.00000   0.00000
 189       60G+4       -0.00000  -0.00000  -0.00000   0.00000
 190       60G-4       -0.00000  -0.00000  -0.00000   0.00000
 191 2   H  1S          0.00123   0.00061   0.00061   0.00000
 192        2S          0.04077   0.02038   0.02038   0.00000
 193        3S          0.30208   0.15104   0.15104   0.00000
 194        4S          0.64830   0.32415   0.32415   0.00000
 195        5S          0.36304   0.18152   0.18152   0.00000
 196        6S          0.15768   0.07884   0.07884   0.00000
 197        7PX         0.00084   0.00042   0.00042   0.00000
 198        7PY         0.00084   0.00042   0.00042   0.00000
 199        7PZ         0.01477   0.00738   0.00738   0.00000
 200        8PX         0.00061   0.00031   0.00031   0.00000
 201        8PY         0.00061   0.00031   0.00031   0.00000
 202        8PZ         0.00139   0.00069   0.00069   0.00000
 203        9PX         0.00031   0.00016   0.00016   0.00000
 204        9PY         0.00031   0.00016   0.00016   0.00000
 205        9PZ        -0.02911  -0.01456  -0.01456   0.00000
 206       10D 0        0.00398   0.00199   0.00199   0.00000
 207       10D+1        0.00078   0.00039   0.00039   0.00000
 208       10D-1        0.00078   0.00039   0.00039   0.00000
 209       10D+2        0.00000   0.00000   0.00000   0.00000
 210       10D-2        0.00000   0.00000   0.00000   0.00000
 211       11D 0       -0.00038  -0.00019  -0.00019   0.00000
 212       11D+1       -0.00086  -0.00043  -0.00043   0.00000
 213       11D-1       -0.00086  -0.00043  -0.00043   0.00000
 214       11D+2        0.00000   0.00000   0.00000   0.00000
 215       11D-2        0.00000   0.00000   0.00000   0.00000
          Condensed to atoms (all electrons):
               1          2
     1  Sc  10.781434  -0.288531
     2  H   -0.288531   1.795629
          Atomic-Atomic Spin Densities.
               1          2
     1  Sc   0.000000   0.000000
     2  H    0.000000   0.000000
 Mulliken charges and spin densities:
               1          2
     1  Sc   0.507098   0.000000
     2  H   -0.507098   0.000000
 Sum of Mulliken charges =  -0.00000   0.00000
 Mulliken charges and spin densities with hydrogens summed into heavy atoms:
               1          2
     1  Sc  -0.000000   0.000000
 Electronic spatial extent (au):  <R**2>=             55.7024
 Charge=             -0.0000 electrons
 Dipole moment (field-independent basis, Debye):
    X=              0.0000    Y=              0.0000    Z=              0.9936  Tot=              0.9936
 Quadrupole moment (field-independent basis, Debye-Ang):
   XX=            -23.6594   YY=            -23.6594   ZZ=            -22.1752
   XY=              0.0000   XZ=              0.0000   YZ=              0.0000
 Traceless Quadrupole moment (field-independent basis, Debye-Ang):
   XX=             -0.4947   YY=             -0.4947   ZZ=              0.9894
   XY=              0.0000   XZ=              0.0000   YZ=              0.0000
 Octapole moment (field-independent basis, Debye-Ang**2):
  XXX=              0.0000  YYY=              0.0000  ZZZ=              2.1739  XYY=              0.0000
  XXY=              0.0000  XXZ=             -0.6867  XZZ=              0.0000  YZZ=              0.0000
  YYZ=             -0.6867  XYZ=              0.0000
 Hexadecapole moment (field-independent basis, Debye-Ang**3):
 XXXX=            -86.0542 YYYY=            -86.0542 ZZZZ=            -73.9641 XXXY=              0.0000
 XXXZ=              0.0000 YYYX=              0.0000 YYYZ=              0.0000 ZZZX=              0.0000
 ZZZY=              0.0000 XXYY=            -28.6847 XXZZ=            -25.6645 YYZZ=            -25.6645
 XXYZ=              0.0000 YYXZ=              0.0000 ZZXY=              0.0000
 N-N= 5.291772109200D+00 E-N=-1.073486571967D+02  KE= 1.998853482981D+01
 Symmetry A1   KE= 1.157913546845D+01
 Symmetry A2   KE=-3.506711389694D-48
 Symmetry B1   KE= 4.204699680806D+00
 Symmetry B2   KE= 4.204699680754D+00
 Symmetry A1   SP= 0.000000000000D+00
 Symmetry A2   SP= 0.000000000000D+00
 Symmetry B1   SP= 0.000000000000D+00
 Symmetry B2   SP= 0.000000000000D+00
 Orbital energies and kinetic energies (alpha):
                                 1                 2
   2         O                -1.646144          1.976259
   3         O                -1.576229          2.102350
   4         O                -1.576229          2.102350
   5         O                -0.474255          2.015978
   6         O                -0.213101          0.519074
   7         V                 0.013576          0.088056
   8         V                 0.013997          0.053186
   9         V                 0.013997          0.053186
  10         V                 0.022902          0.036563
  11         V                 0.034609          0.037896
 Total kinetic energy from orbitals= 1.998853482981D+01
                          Isotropic Fermi Contact Couplings
        Atom                 a.u.       MegaHertz       Gauss      10(-4) cm-1
     1  Sc(45)             0.00000       0.00000       0.00000       0.00000
     2  H(1)               0.00000       0.00000       0.00000       0.00000
 --------------------------------------------------------
       Center         ----  Spin Dipole Couplings  ----
                      3XX-RR        3YY-RR        3ZZ-RR
 --------------------------------------------------------
     1   Atom        0.000000      0.000000      0.000000
     2   Atom        0.000000      0.000000      0.000000
 --------------------------------------------------------
                        XY            XZ            YZ
 --------------------------------------------------------
     1   Atom        0.000000      0.000000      0.000000
     2   Atom        0.000000      0.000000      0.000000
 --------------------------------------------------------


 ---------------------------------------------------------------------------------
              Anisotropic Spin Dipole Couplings in Principal Axis System
 ---------------------------------------------------------------------------------

       Atom             a.u.   MegaHertz   Gauss  10(-4) cm-1        Axes

              Baa     0.0000     0.000     0.000     0.000  1.0000  0.0000  0.0000
     1 Sc(45) Bbb     0.0000     0.000     0.000     0.000 -0.0000  1.0000  0.0000
              Bcc     0.0000     0.000     0.000     0.000  0.0000  0.0000  1.0000
 
              Baa     0.0000     0.000     0.000     0.000  1.0000  0.0000  0.0000
     2 H(1)   Bbb     0.0000     0.000     0.000     0.000 -0.0000  1.0000  0.0000
              Bcc     0.0000     0.000     0.000     0.000  0.0000  0.0000  1.0000
 

 ---------------------------------------------------------------------------------

 No NMR shielding tensors so no spin-rotation constants.
 Leave Link  601 at Mon Feb 12 16:42:10 2018, MaxMem=  8589934592 cpu:              66.5 elap:               2.2
 (Enter /home1/apps/gaussian/16rA.03/g16/l9999.exe)
 1\1\GINC-C417-071\SP\ROCCSD(T)-Full\Gen\H1Sc1\AANNABE\12-Feb-2018\0\\#
 P ROCCSD(T)=(maxcyc=150, Full)/Gen 5d 7f SCF=(maxcycles=300) Integral(
 NoXCTest) MaxDisk=500GB Pop=Regular Pseudo=Read\\ScH\\0,1\Sc,0,0.,0.,0
 .\H,0,0.,0.,1.1\\Version=ES64L-G16RevA.03\State=1-SG\HF=-46.479196\MP2
 =-46.8969995\MP3=-46.9194813\PUHF=-46.479196\PMP2-0=-46.8969995\MP4SDQ
 =-46.9191608\CCSD=-46.9187939\CCSD(T)=-46.9361062\RMSD=1.398e-09\PG=C*
 V [C*(H1Sc1)]\\@


 ADVERTISING--  HE WHO HAS SOMETHING TO SELL AND GOES AND WHISPERS
                IN A WELL, IS NOT SO APT TO GET THE DOLLARS AS HE
                WHO CLIMBS A TREE AND HOLLERS.

                   -- FROM THE BACK OF A SUGAR PACKET
 Job cpu time:       0 days  3 hours 15 minutes 25.3 seconds.
 Elapsed time:       0 days  0 hours  6 minutes  8.1 seconds.
 File lengths (MBytes):  RWF=   1913 Int=      0 D2E=      0 Chk=      6 Scr=      1
 Normal termination of Gaussian 16 at Mon Feb 12 16:42:11 2018.
