 Entering Gaussian System, Link 0=g16
 Initial command:
 /home1/apps/gaussian/16rA.03/g16/l1.exe "/tmp/Gau-125219.inp" -scrdir="/tmp/"
 Entering Link 1 = /home1/apps/gaussian/16rA.03/g16/l1.exe PID=    125220.
  
 Copyright (c) 1988,1990,1992,1993,1995,1998,2003,2009,2016,
            Gaussian, Inc.  All Rights Reserved.
  
 This is part of the Gaussian(R) 16 program.  It is based on
 the Gaussian(R) 09 system (copyright 2009, Gaussian, Inc.),
 the Gaussian(R) 03 system (copyright 2003, Gaussian, Inc.),
 the Gaussian(R) 98 system (copyright 1998, Gaussian, Inc.),
 the Gaussian(R) 94 system (copyright 1995, Gaussian, Inc.),
 the Gaussian 92(TM) system (copyright 1992, Gaussian, Inc.),
 the Gaussian 90(TM) system (copyright 1990, Gaussian, Inc.),
 the Gaussian 88(TM) system (copyright 1988, Gaussian, Inc.),
 the Gaussian 86(TM) system (copyright 1986, Carnegie Mellon
 University), and the Gaussian 82(TM) system (copyright 1983,
 Carnegie Mellon University). Gaussian is a federally registered
 trademark of Gaussian, Inc.
  
 This software contains proprietary and confidential information,
 including trade secrets, belonging to Gaussian, Inc.
  
 This software is provided under written license and may be
 used, copied, transmitted, or stored only in accord with that
 written license.
  
 The following legend is applicable only to US Government
 contracts under FAR:
  
                    RESTRICTED RIGHTS LEGEND
  
 Use, reproduction and disclosure by the US Government is
 subject to restrictions as set forth in subparagraphs (a)
 and (c) of the Commercial Computer Software - Restricted
 Rights clause in FAR 52.227-19.
  
 Gaussian, Inc.
 340 Quinnipiac St., Bldg. 40, Wallingford CT 06492
  
  
 ---------------------------------------------------------------
 Warning -- This program may not be used in any manner that
 competes with the business of Gaussian, Inc. or will provide
 assistance to any competitor of Gaussian, Inc.  The licensee
 of this program is prohibited from giving any competitor of
 Gaussian, Inc. access to this program.  By using this program,
 the user acknowledges that Gaussian, Inc. is engaged in the
 business of creating and licensing software in the field of
 computational chemistry and represents and warrants to the
 licensee that it is not a competitor of Gaussian, Inc. and that
 it will not use this program in any manner prohibited above.
 ---------------------------------------------------------------
  

 Cite this work as:
 Gaussian 16, Revision A.03,
 M. J. Frisch, G. W. Trucks, H. B. Schlegel, G. E. Scuseria, 
 M. A. Robb, J. R. Cheeseman, G. Scalmani, V. Barone, 
 G. A. Petersson, H. Nakatsuji, X. Li, M. Caricato, A. V. Marenich, 
 J. Bloino, B. G. Janesko, R. Gomperts, B. Mennucci, H. P. Hratchian, 
 J. V. Ortiz, A. F. Izmaylov, J. L. Sonnenberg, D. Williams-Young, 
 F. Ding, F. Lipparini, F. Egidi, J. Goings, B. Peng, A. Petrone, 
 T. Henderson, D. Ranasinghe, V. G. Zakrzewski, J. Gao, N. Rega, 
 G. Zheng, W. Liang, M. Hada, M. Ehara, K. Toyota, R. Fukuda, 
 J. Hasegawa, M. Ishida, T. Nakajima, Y. Honda, O. Kitao, H. Nakai, 
 T. Vreven, K. Throssell, J. A. Montgomery, Jr., J. E. Peralta, 
 F. Ogliaro, M. J. Bearpark, J. J. Heyd, E. N. Brothers, K. N. Kudin, 
 V. N. Staroverov, T. A. Keith, R. Kobayashi, J. Normand, 
 K. Raghavachari, A. P. Rendell, J. C. Burant, S. S. Iyengar, 
 J. Tomasi, M. Cossi, J. M. Millam, M. Klene, C. Adamo, R. Cammi, 
 J. W. Ochterski, R. L. Martin, K. Morokuma, O. Farkas, 
 J. B. Foresman, and D. J. Fox, Gaussian, Inc., Wallingford CT, 2016.
 
 ******************************************
 Gaussian 16:  ES64L-G16RevA.03 25-Dec-2016
                26-Feb-2018 
 ******************************************
 %MEM=64GB
 %CPU=0-15
 SetSPE:  set environment variable "MP_BIND" = "yes"
 SetSPE:  set environment variable "MP_BLIST" = "0,1,2,3,4,5,6,7,8,9,10,11,12,13,14,15"
 Will use up to   16 processors via shared memory.
 %RWF=/scratch/04843/aannabe/gaussian/
 %Int=/scratch/04843/aannabe/gaussian/
 %D2E=/scratch/04843/aannabe/gaussian/
 %NoSave
 %CHK=CrH
 ----------------------------------------------------------------------
 #P ROCCSD(T)=(maxcyc=150, Full, SaveAmplitudes, ReadAmplitudes)/Gen 5d
  7f SCF=(maxcycles=300) Integral(NoXCTest) MaxDisk=500GB Pop=Regular P
 seudo=Read Guess=Read
 ----------------------------------------------------------------------
 1/38=1,172=1/1;
 2/12=2,17=6,18=5,40=1/2;
 3/5=7,8=11,11=2,16=1,17=8,25=1,30=1,47=8,116=101/1,2,3;
 4/5=1/1;
 5/5=2,7=300,38=6/2;
 8/5=-1,6=4,9=120000,10=90,24=1/1,4;
 9/5=7,6=150,14=2,77=1/13;
 6//1;
 99/5=1,9=1/99;
 Leave Link    1 at Mon Feb 26 00:32:50 2018, MaxMem=  8589934592 cpu:               3.6 elap:               0.2
 (Enter /home1/apps/gaussian/16rA.03/g16/l101.exe)
 ---
 CrH
 ---
 Symbolic Z-matrix:
 Charge =  0 Multiplicity = 6
 Cr                    0.        0.        0. 
 H                     0.        0.        1.3 
 
 ITRead=  0  0
 MicOpt= -1 -1
 NAtoms=      2 NQM=        2 NQMF=       0 NMMI=      0 NMMIF=      0
                NMic=       0 NMicF=      0.
                    Isotopes and Nuclear Properties:
 (Nuclear quadrupole moments (NQMom) in fm**2, nuclear magnetic moments (NMagM)
  in nuclear magnetons)

  Atom         1           2
 IAtWgt=          52           1
 AtmWgt=  51.9405097   1.0078250
 NucSpn=           0           1
 AtZEff=  -0.0000000  -0.0000000
 NQMom=    0.0000000   0.0000000
 NMagM=    0.0000000   2.7928460
 AtZNuc=  24.0000000   1.0000000
 Leave Link  101 at Mon Feb 26 00:32:50 2018, MaxMem=  8589934592 cpu:               1.4 elap:               0.1
 (Enter /home1/apps/gaussian/16rA.03/g16/l202.exe)
                          Input orientation:                          
 ---------------------------------------------------------------------
 Center     Atomic      Atomic             Coordinates (Angstroms)
 Number     Number       Type             X           Y           Z
 ---------------------------------------------------------------------
      1         24           0        0.000000    0.000000    0.000000
      2          1           0        0.000000    0.000000    1.300000
 ---------------------------------------------------------------------
 Stoichiometry    CrH(6)
 Framework group  C*V[C*(HCr)]
 Deg. of freedom     1
 Full point group                 C*V     NOp   4
 Largest Abelian subgroup         C2V     NOp   4
 Largest concise Abelian subgroup C1      NOp   1
                         Standard orientation:                         
 ---------------------------------------------------------------------
 Center     Atomic      Atomic             Coordinates (Angstroms)
 Number     Number       Type             X           Y           Z
 ---------------------------------------------------------------------
      1         24           0        0.000000    0.000000    0.052000
      2          1           0        0.000000    0.000000   -1.248000
 ---------------------------------------------------------------------
 Rotational constants (GHZ):           0.0000000         302.4763687         302.4763687
 Leave Link  202 at Mon Feb 26 00:32:50 2018, MaxMem=  8589934592 cpu:               0.3 elap:               0.1
 (Enter /home1/apps/gaussian/16rA.03/g16/l301.exe)
 General basis read from cards:  (5D, 7F)
 Centers:       1
 S 1 1.00
     Exponent=  1.1016640000D+07 Coefficients=  1.0000000000D+00
 S 1 1.00
     Exponent=  1.6494230000D+06 Coefficients=  1.0000000000D+00
 S 1 1.00
     Exponent=  3.7535890000D+05 Coefficients=  1.0000000000D+00
 S 1 1.00
     Exponent=  1.0632360000D+05 Coefficients=  1.0000000000D+00
 S 1 1.00
     Exponent=  3.4689760000D+04 Coefficients=  1.0000000000D+00
 S 1 1.00
     Exponent=  1.2524830000D+04 Coefficients=  1.0000000000D+00
 S 1 1.00
     Exponent=  4.8857520000D+03 Coefficients=  1.0000000000D+00
 S 1 1.00
     Exponent=  2.0269180000D+03 Coefficients=  1.0000000000D+00
 S 1 1.00
     Exponent=  8.8436450000D+02 Coefficients=  1.0000000000D+00
 S 1 1.00
     Exponent=  4.0231700000D+02 Coefficients=  1.0000000000D+00
 S 1 1.00
     Exponent=  1.8952710000D+02 Coefficients=  1.0000000000D+00
 S 1 1.00
     Exponent=  9.1860950000D+01 Coefficients=  1.0000000000D+00
 S 1 1.00
     Exponent=  4.5124760000D+01 Coefficients=  1.0000000000D+00
 S 1 1.00
     Exponent=  2.0625120000D+01 Coefficients=  1.0000000000D+00
 S 1 1.00
     Exponent=  1.0319730000D+01 Coefficients=  1.0000000000D+00
 S 1 1.00
     Exponent=  5.1577230000D+00 Coefficients=  1.0000000000D+00
 S 1 1.00
     Exponent=  2.3126280000D+00 Coefficients=  1.0000000000D+00
 S 1 1.00
     Exponent=  1.1030790000D+00 Coefficients=  1.0000000000D+00
 S 1 1.00
     Exponent=  4.9804200000D-01 Coefficients=  1.0000000000D+00
 S 1 1.00
     Exponent=  1.1824700000D-01 Coefficients=  1.0000000000D+00
 S 1 1.00
     Exponent=  5.7356000000D-02 Coefficients=  1.0000000000D+00
 S 1 1.00
     Exponent=  2.5760000000D-02 Coefficients=  1.0000000000D+00
 S 1 1.00
     Exponent=  4.7991000000D+00 Coefficients=  1.0000000000D+00
 S 1 1.00
     Exponent=  1.4287000000D+00 Coefficients=  1.0000000000D+00
 S 1 1.00
     Exponent=  1.1570000000D-02 Coefficients=  1.0000000000D+00
 P 1 1.00
     Exponent=  3.1539890000D+04 Coefficients=  1.0000000000D+00
 P 1 1.00
     Exponent=  7.4602340000D+03 Coefficients=  1.0000000000D+00
 P 1 1.00
     Exponent=  2.4226220000D+03 Coefficients=  1.0000000000D+00
 P 1 1.00
     Exponent=  9.2775470000D+02 Coefficients=  1.0000000000D+00
 P 1 1.00
     Exponent=  3.9480410000D+02 Coefficients=  1.0000000000D+00
 P 1 1.00
     Exponent=  1.8080270000D+02 Coefficients=  1.0000000000D+00
 P 1 1.00
     Exponent=  8.7423930000D+01 Coefficients=  1.0000000000D+00
 P 1 1.00
     Exponent=  4.4034270000D+01 Coefficients=  1.0000000000D+00
 P 1 1.00
     Exponent=  2.2777040000D+01 Coefficients=  1.0000000000D+00
 P 1 1.00
     Exponent=  1.2015470000D+01 Coefficients=  1.0000000000D+00
 P 1 1.00
     Exponent=  6.4117510000D+00 Coefficients=  1.0000000000D+00
 P 1 1.00
     Exponent=  3.3811360000D+00 Coefficients=  1.0000000000D+00
 P 1 1.00
     Exponent=  1.7470540000D+00 Coefficients=  1.0000000000D+00
 P 1 1.00
     Exponent=  8.8500400000D-01 Coefficients=  1.0000000000D+00
 P 1 1.00
     Exponent=  4.3302800000D-01 Coefficients=  1.0000000000D+00
 P 1 1.00
     Exponent=  1.7396200000D-01 Coefficients=  1.0000000000D+00
 P 1 1.00
     Exponent=  7.2823000000D-02 Coefficients=  1.0000000000D+00
 P 1 1.00
     Exponent=  2.9952000000D-02 Coefficients=  1.0000000000D+00
 P 1 1.00
     Exponent=  6.4552000000D+00 Coefficients=  1.0000000000D+00
 P 1 1.00
     Exponent=  1.6531000000D+00 Coefficients=  1.0000000000D+00
 P 1 1.00
     Exponent=  1.2320000000D-02 Coefficients=  1.0000000000D+00
 D 1 1.00
     Exponent=  2.8131200000D+02 Coefficients=  1.0000000000D+00
 D 1 1.00
     Exponent=  8.3188500000D+01 Coefficients=  1.0000000000D+00
 D 1 1.00
     Exponent=  3.1839600000D+01 Coefficients=  1.0000000000D+00
 D 1 1.00
     Exponent=  1.3602600000D+01 Coefficients=  1.0000000000D+00
 D 1 1.00
     Exponent=  6.1829800000D+00 Coefficients=  1.0000000000D+00
 D 1 1.00
     Exponent=  2.9227000000D+00 Coefficients=  1.0000000000D+00
 D 1 1.00
     Exponent=  1.3821600000D+00 Coefficients=  1.0000000000D+00
 D 1 1.00
     Exponent=  6.3946000000D-01 Coefficients=  1.0000000000D+00
 D 1 1.00
     Exponent=  2.8489800000D-01 Coefficients=  1.0000000000D+00
 D 1 1.00
     Exponent=  1.2004500000D-01 Coefficients=  1.0000000000D+00
 D 1 1.00
     Exponent=  4.6229000000D-02 Coefficients=  1.0000000000D+00
 D 1 1.00
     Exponent=  4.0848000000D+00 Coefficients=  1.0000000000D+00
 D 1 1.00
     Exponent=  2.1405000000D+00 Coefficients=  1.0000000000D+00
 D 1 1.00
     Exponent=  1.7800000000D-02 Coefficients=  1.0000000000D+00
 F 1 1.00
     Exponent=  5.6633000000D+00 Coefficients=  1.0000000000D+00
 F 1 1.00
     Exponent=  2.3365000000D+00 Coefficients=  1.0000000000D+00
 F 1 1.00
     Exponent=  9.6390000000D-01 Coefficients=  1.0000000000D+00
 F 1 1.00
     Exponent=  3.1420000000D-01 Coefficients=  1.0000000000D+00
 F 1 1.00
     Exponent=  1.0242000000D-01 Coefficients=  1.0000000000D+00
 G 1 1.00
     Exponent=  4.6690000000D+00 Coefficients=  1.0000000000D+00
 G 1 1.00
     Exponent=  1.9538000000D+00 Coefficients=  1.0000000000D+00
 G 1 1.00
     Exponent=  6.8480000000D-01 Coefficients=  1.0000000000D+00
 G 1 1.00
     Exponent=  2.4002000000D-01 Coefficients=  1.0000000000D+00
 H 1 1.00
     Exponent=  4.4133000000D+00 Coefficients=  1.0000000000D+00
 H 1 1.00
     Exponent=  1.6472000000D+00 Coefficients=  1.0000000000D+00
 H 1 1.00
     Exponent=  6.1479000000D-01 Coefficients=  1.0000000000D+00
 ****
 Centers:       2
 S 1 1.00
     Exponent=  8.2640000000D+01 Coefficients=  1.0000000000D+00
 S 1 1.00
     Exponent=  1.2410000000D+01 Coefficients=  1.0000000000D+00
 S 1 1.00
     Exponent=  2.8240000000D+00 Coefficients=  1.0000000000D+00
 S 1 1.00
     Exponent=  7.9770000000D-01 Coefficients=  1.0000000000D+00
 S 1 1.00
     Exponent=  2.5810000000D-01 Coefficients=  1.0000000000D+00
 S 1 1.00
     Exponent=  8.9890000000D-02 Coefficients=  1.0000000000D+00
 S 1 1.00
     Exponent=  2.3630000000D-02 Coefficients=  1.0000000000D+00
 P 1 1.00
     Exponent=  2.2920000000D+00 Coefficients=  1.0000000000D+00
 P 1 1.00
     Exponent=  8.3800000000D-01 Coefficients=  1.0000000000D+00
 P 1 1.00
     Exponent=  2.9200000000D-01 Coefficients=  1.0000000000D+00
 P 1 1.00
     Exponent=  8.4800000000D-02 Coefficients=  1.0000000000D+00
 D 1 1.00
     Exponent=  2.0620000000D+00 Coefficients=  1.0000000000D+00
 D 1 1.00
     Exponent=  6.6200000000D-01 Coefficients=  1.0000000000D+00
 D 1 1.00
     Exponent=  1.9000000000D-01 Coefficients=  1.0000000000D+00
 F 1 1.00
     Exponent=  1.3970000000D+00 Coefficients=  1.0000000000D+00
 F 1 1.00
     Exponent=  3.6000000000D-01 Coefficients=  1.0000000000D+00
 ****
 ======================================================================================================
                                       Pseudopotential Parameters
 ======================================================================================================
  Center     Atomic      Valence      Angular      Power
  Number     Number     Electrons     Momentum     of R      Exponent        Coefficient   SO-Coeffient
 ======================================================================================================
    1         24           14
                                      D and up 
                                                     1       13.0767520       14.00000000    0.00000000
                                                     2       15.1580758     1258.15550380    0.00000000
                                                     2        4.6278569      -98.60998187    0.00000000
                                                     2       15.4113660    -6552.46055066    0.00000000
                                                     2       15.3869064     5353.09061557    0.00000000
                                                     3        5.2489731      183.07452839    0.00000000
                                      S - D
                                                     2        9.7768084    **************    0.00000000
                                                     2        9.9598011    96320.14803227    0.00000000
                                                     2        8.6227521     3928.31359170    0.00000000
                                                     2       12.2928814    **************    0.00000000
                                                     2       18.4131659    -1741.60409682    0.00000000
                                                     2       16.3854196     4413.26493033    0.00000000
                                      P - D
                                                     2       12.0010000    **************    0.00000000
                                                     2       11.4652444    21551.07876111    0.00000000
                                                     2       16.2385223     3703.78784703    0.00000000
                                                     2       18.4386111    -1424.18632323    0.00000000
                                                     2        8.8887794    -1964.93568469    0.00000000
                                                     2        7.5264478      317.50498882    0.00000000
    2          1
                                   No pseudopotential on this center.
 ======================================================================================================
 Ernie: Thresh=  0.10000D-02 Tol=  0.10000D-05 Strict=F.
 There are   171 symmetry adapted cartesian basis functions of A1  symmetry.
 There are    45 symmetry adapted cartesian basis functions of A2  symmetry.
 There are    93 symmetry adapted cartesian basis functions of B1  symmetry.
 There are    93 symmetry adapted cartesian basis functions of B2  symmetry.
 There are   126 symmetry adapted basis functions of A1  symmetry.
 There are    38 symmetry adapted basis functions of A2  symmetry.
 There are    73 symmetry adapted basis functions of B1  symmetry.
 There are    73 symmetry adapted basis functions of B2  symmetry.
   310 basis functions,   402 primitive gaussians,   402 cartesian basis functions
    10 alpha electrons        5 beta electrons
       nuclear repulsion energy         5.6988315022 Hartrees.
 IExCor=    0 DFT=F Ex=HF Corr=None ExCW=0 ScaHFX=  1.000000
 ScaDFX=  1.000000  1.000000  1.000000  1.000000 ScalE2=  1.000000  1.000000
 IRadAn=      5 IRanWt=     -1 IRanGd=            0 ICorTp=0 IEmpDi=  4
 NAtoms=    2 NActive=    2 NUniq=    2 SFac= 1.00D+00 NAtFMM=   60 NAOKFM=F Big=F
 Integral buffers will be    131072 words long.
 Raffenetti 2 integral format.
 Two-electron integral symmetry is turned on.
 Leave Link  301 at Mon Feb 26 00:32:50 2018, MaxMem=  8589934592 cpu:               4.0 elap:               0.3
 (Enter /home1/apps/gaussian/16rA.03/g16/l302.exe)
 NPDir=0 NMtPBC=     1 NCelOv=     1 NCel=       1 NClECP=     1 NCelD=      1
         NCelK=      1 NCelE2=     1 NClLst=     1 CellRange=     0.0.
 One-electron integrals computed using PRISM.
 One-electron integral symmetry used in STVInt
   4 Symmetry operations used in ECPInt.
 ECPInt:  NShTT=    3916 NPrTT=    3916 LenC2=    3878 LenP2D=    3877.
 LDataN:  DoStor=T MaxTD1=10 Len=  848
 NBasis=   310 RedAO= T EigKep=  1.34D-06  NBF=   126    38    73    73
 NBsUse=   306 1.00D-06 EigRej=  3.41D-07 NBFU=   124    38    72    72
 Leave Link  302 at Mon Feb 26 00:32:52 2018, MaxMem=  8589934592 cpu:              29.5 elap:               1.9
 (Enter /home1/apps/gaussian/16rA.03/g16/l303.exe)
 DipDrv:  MaxL=1.
 Leave Link  303 at Mon Feb 26 00:32:52 2018, MaxMem=  8589934592 cpu:               1.4 elap:               0.2
 (Enter /home1/apps/gaussian/16rA.03/g16/l401.exe)
 Initial guess from the checkpoint file:  "CrH.chk"
 B after Tr=     0.000000    0.000000    0.000000
         Rot=    1.000000    0.000000    0.000000    0.000000 Ang=   0.00 deg.
 Guess basis will be translated and rotated to current coordinates.
 JPrj=2 DoOrth=T DoCkMO=T.
 Initial guess orbital symmetries:
       Occupied  (SG) (SG) (PI) (PI) (SG) (SG) (PI) (PI) (DLTA)
                 (DLTA)
       Virtual   (PI) (PI) (SG) (SG) (SG) (PI) (PI) (DLTA) (DLTA)
                 (PI) (PI) (SG) (SG) (SG) (PI) (PI) (SG) (SG) (PI)
                 (PI) (DLTA) (DLTA) (PI) (PI) (SG) (SG) (PHI) (PHI)
                 (DLTA) (DLTA) (SG) (PI) (PI) (SG) (PI) (PI) (SG)
                 (PI) (PI) (DLTA) (DLTA) (SG) (DLTA) (DLTA) (PI)
                 (PI) (SG) (SG) (PI) (PI) (SG) (DLTA) (DLTA) (PHI)
                 (PHI) (PI) (PI) (SG) (PI) (PI) (?A) (?A) (PHI)
                 (PHI) (SG) (DLTA) (DLTA) (SG) (PI) (PI) (PI) (PI)
                 (DLTA) (DLTA) (SG) (SG) (DLTA) (DLTA) (PI) (PI)
                 (SG) (PI) (PI) (SG) (PHI) (PHI) (DLTA) (DLTA)
                 (PI) (PI) (SG) (PI) (PI) (SG) (PHI) (PHI) (?A)
                 (?A) (DLTA) (DLTA) (SG) (PI) (PI) (SG) (DLTA)
                 (DLTA) (PI) (PI) (SG) (SG) (DLTA) (DLTA) (PHI)
                 (PHI) (PI) (PI) (SG) (PI) (PI) (SG) (SG) (DLTA)
                 (DLTA) (PI) (PI) (PHI) (PHI) (?A) (?A) (DLTA)
                 (DLTA) (PI) (PI) (SG) (SG) (PI) (PI) (SG) (SG)
                 (DLTA) (DLTA) (PI) (PI) (SG) (SG) (PI) (PI) (SG)
                 (SG) (PI) (PI) (SG) (SG) (DLTA) (DLTA) (PI) (PI)
                 (SG) (PI) (PI) (SG) (SG) (DLTA) (DLTA) (PI) (PI)
                 (SG) (PI) (PI) (SG) (SG) (PI) (PI) (SG) (SG) (PI)
                 (PI) (SG) (SG) (SG) (PI) (PI) (SG) (SG) (PI) (PI)
                 (SG) (SG) (PI) (PI) (SG) (SG) (SG) (SG) (SG) (SG)
                 (DLTA) (SG) (SG) (DLTA) (SG) (SG) (SG) (DLTA)
                 (SG) (SG) (DLTA) (DLTA) (SG) (SG) (?A) (SG) (DLTA)
                 (DLTA) (SG) (?A) (DLTA) (SG) (SG) (SG) (DLTA)
                 (SG) (DLTA) (SG) (DLTA) (SG) (SG) (?A) (DLTA)
                 (?A) (DLTA) (DLTA) (DLTA) (DLTA) (DLTA) (?A) (DLTA)
                 (DLTA) (?A) (DLTA) (DLTA) (DLTA) (DLTA) (?A) (DLTA)
                 (?A) (PI) (PI) (PI) (PI) (PI) (PHI) (PI) (PI)
                 (PHI) (PI) (PI) (PI) (PHI) (PI) (?B) (PHI) (PI)
                 (PHI) (PI) (PI) (PI) (PHI) (?B) (PHI) (?B) (PI)
                 (PI) (PI) (PI) (PI) (PHI) (PI) (PI) (PHI) (PI)
                 (PI) (PI) (PHI) (PI) (?B) (PHI) (PI) (PHI) (PI)
                 (PI) (PI) (PHI) (?B) (PHI) (?B)
 The electronic state of the initial guess is 6-SG.
 Leave Link  401 at Mon Feb 26 00:32:53 2018, MaxMem=  8589934592 cpu:               8.5 elap:               0.6
 (Enter /home1/apps/gaussian/16rA.03/g16/l502.exe)
 Keep R1 and R2 ints in memory in symmetry-blocked form, NReq=1456552531.
 FoFCou: FMM=F IPFlag=           8 FMFlag=           0 FMFlg1=           0
         NFxFlg=           0 DoJE=F BraDBF=F KetDBF=F FulRan=T
         wScrn=  0.000000 ICntrl=       600 IOpCl=  0 I1Cent=           0 NGrid=           0
         NMat0=    1 NMatS0=  48205 NMatT0=    0 NMatD0=    1 NMtDS0=    0 NMtDT0=    0
 Petite list used in FoFCou.
 Restricted open shell SCF:
 Using DIIS extrapolation, IDIIS=  1040.
 NGot=  8589934592 LenX=  8000380050 LenY=  8000218005
 Requested convergence on RMS density matrix=1.00D-08 within 300 cycles.
 Requested convergence on MAX density matrix=1.00D-06.
 Requested convergence on             energy=1.00D-06.
 No special actions if energy rises.

 Cycle   1  Pass 1  IDiag  1:
 E= -86.3141604503733    
 DIIS: error= 4.64D+00 at cycle   1 NSaved=   1.
 NSaved= 1 IEnMin= 1 EnMin= -86.3141604503733     IErMin= 1 ErrMin= 4.64D+00
 ErrMax= 4.64D+00  0.00D+00 EMaxC= 1.00D-01 BMatC= 3.19D+03 BMatP= 3.19D+03
 IDIUse=3 WtCom= 0.00D+00 WtEn= 1.00D+00
 Coeff-Com:  0.100D+01
 Coeff-En:   0.100D+01
 Coeff:      0.100D+01
 Gap=     0.035 Goal=   None    Shift=    0.000
 GapD=    0.035 DampG=0.250 DampE=0.125 DampFc=0.1250 IDamp=-1.
 Damping current iteration by 1.25D-01
 RMSDP=1.06D-02 MaxDP=1.02D+00              OVMax= 7.52D-03

 Cycle   2  Pass 1  IDiag  1:
 E= -86.3150614896259     Delta-E=       -0.000901039253 Rises=F Damp=T
 DIIS: error= 4.06D+00 at cycle   2 NSaved=   2.
 NSaved= 2 IEnMin= 2 EnMin= -86.3150614896259     IErMin= 2 ErrMin= 4.06D+00
 ErrMax= 4.06D+00  0.00D+00 EMaxC= 1.00D-01 BMatC= 2.44D+03 BMatP= 3.19D+03
 IDIUse=3 WtCom= 0.00D+00 WtEn= 1.00D+00
 Coeff-Com: -0.700D+01 0.800D+01
 Coeff-En:   0.000D+00 0.100D+01
 Coeff:      0.000D+00 0.100D+01
 Gap=     0.034 Goal=   None    Shift=    0.000
 RMSDP=9.29D-03 MaxDP=8.93D-01 DE=-9.01D-04 OVMax= 2.96D-02

 Cycle   3  Pass 1  IDiag  1:
 E= -86.3207404303340     Delta-E=       -0.005678940708 Rises=F Damp=F
 DIIS: error= 1.74D-03 at cycle   3 NSaved=   3.
 NSaved= 3 IEnMin= 3 EnMin= -86.3207404303340     IErMin= 3 ErrMin= 1.74D-03
 ErrMax= 1.74D-03  0.00D+00 EMaxC= 1.00D-01 BMatC= 3.17D-04 BMatP= 2.44D+03
 IDIUse=3 WtCom= 9.83D-01 WtEn= 1.74D-02
 Coeff-Com: -0.195D+01 0.223D+01 0.721D+00
 Coeff-En:   0.000D+00 0.000D+00 0.100D+01
 Coeff:     -0.192D+01 0.219D+01 0.726D+00
 Gap=     0.033 Goal=   None    Shift=    0.000
 RMSDP=6.80D-04 MaxDP=7.70D-02 DE=-5.68D-03 OVMax= 4.25D-02

 Cycle   4  Pass 1  IDiag  1:
 E= -86.3210403519667     Delta-E=       -0.000299921633 Rises=F Damp=F
 DIIS: error= 1.62D-03 at cycle   4 NSaved=   4.
 NSaved= 4 IEnMin= 4 EnMin= -86.3210403519667     IErMin= 4 ErrMin= 1.62D-03
 ErrMax= 1.62D-03  0.00D+00 EMaxC= 1.00D-01 BMatC= 2.29D-04 BMatP= 3.17D-04
 IDIUse=3 WtCom= 9.84D-01 WtEn= 1.62D-02
 Coeff-Com: -0.144D+01 0.165D+01 0.521D+00 0.272D+00
 Coeff-En:   0.000D+00 0.000D+00 0.445D+00 0.555D+00
 Coeff:     -0.142D+01 0.162D+01 0.520D+00 0.277D+00
 Gap=     0.034 Goal=   None    Shift=    0.000
 RMSDP=5.09D-04 MaxDP=5.57D-02 DE=-3.00D-04 OVMax= 2.83D-02

 Cycle   5  Pass 1  IDiag  1:
 E= -86.3213474187887     Delta-E=       -0.000307066822 Rises=F Damp=F
 DIIS: error= 9.58D-04 at cycle   5 NSaved=   5.
 NSaved= 5 IEnMin= 5 EnMin= -86.3213474187887     IErMin= 5 ErrMin= 9.58D-04
 ErrMax= 9.58D-04  0.00D+00 EMaxC= 1.00D-01 BMatC= 7.16D-05 BMatP= 2.29D-04
 IDIUse=3 WtCom= 9.90D-01 WtEn= 9.58D-03
 Rare condition: small coef for last iteration:  0.000D+00
 Coeff-Com: -0.125D+01 0.143D+01 0.289D+00 0.175D+00 0.358D+00
 Coeff-En:   0.000D+00 0.000D+00 0.150D+00 0.304D+00 0.546D+00
 Coeff:     -0.125D+01 0.143D+01 0.289D+00 0.175D+00 0.358D+00
 Gap=     0.034 Goal=   None    Shift=    0.000
 RMSDP=1.01D-04 MaxDP=1.24D-02 DE=-3.07D-04 OVMax= 7.82D-03

 Cycle   6  Pass 1  IDiag  1:
 E= -86.3213480021340     Delta-E=       -0.000000583345 Rises=F Damp=F
 DIIS: error= 7.00D-04 at cycle   6 NSaved=   6.
 NSaved= 6 IEnMin= 6 EnMin= -86.3213480021340     IErMin= 6 ErrMin= 7.00D-04
 ErrMax= 7.00D-04  0.00D+00 EMaxC= 1.00D-01 BMatC= 6.62D-05 BMatP= 7.16D-05
 IDIUse=3 WtCom= 9.93D-01 WtEn= 7.00D-03
 EnCoef did   100 forward-backward iterations
 Rare condition: small coef for last iteration:  0.000D+00
 Coeff-Com: -0.113D+01 0.129D+01 0.119D+00 0.822D-01 0.297D+00 0.341D+00
 Coeff-En:   0.000D+00 0.000D+00 0.139D+00 0.284D+00 0.287D+00 0.290D+00
 Coeff:     -0.113D+01 0.129D+01 0.119D+00 0.822D-01 0.297D+00 0.341D+00
 Gap=     0.034 Goal=   None    Shift=    0.000
 RMSDP=5.49D-05 MaxDP=5.46D-03 DE=-5.83D-07 OVMax= 7.40D-03

 Cycle   7  Pass 1  IDiag  1:
 E= -86.3213689673336     Delta-E=       -0.000020965200 Rises=F Damp=F
 DIIS: error= 7.57D-04 at cycle   7 NSaved=   7.
 NSaved= 7 IEnMin= 7 EnMin= -86.3213689673336     IErMin= 6 ErrMin= 7.00D-04
 ErrMax= 7.57D-04  0.00D+00 EMaxC= 1.00D-01 BMatC= 5.47D-05 BMatP= 6.62D-05
 IDIUse=3 WtCom= 9.93D-01 WtEn= 7.00D-03
 EnCoef did   100 forward-backward iterations
 Coeff-Com: -0.997D+00 0.114D+01-0.207D-01-0.615D-04 0.958D-01 0.381D+00
 Coeff-Com:  0.402D+00
 Coeff-En:   0.000D+00 0.000D+00 0.428D+00 0.542D+00 0.206D-01 0.218D-02
 Coeff-En:   0.712D-02
 Coeff:     -0.990D+00 0.113D+01-0.176D-01 0.373D-02 0.953D-01 0.378D+00
 Coeff:      0.399D+00
 Gap=     0.034 Goal=   None    Shift=    0.000
 RMSDP=6.12D-05 MaxDP=6.06D-03 DE=-2.10D-05 OVMax= 7.03D-03

 Cycle   8  Pass 1  IDiag  1:
 E= -86.3213919509752     Delta-E=       -0.000022983642 Rises=F Damp=F
 DIIS: error= 7.11D-04 at cycle   8 NSaved=   8.
 NSaved= 8 IEnMin= 8 EnMin= -86.3213919509752     IErMin= 6 ErrMin= 7.00D-04
 ErrMax= 7.11D-04  0.00D+00 EMaxC= 1.00D-01 BMatC= 4.17D-05 BMatP= 5.47D-05
 IDIUse=3 WtCom= 9.93D-01 WtEn= 7.00D-03
 EnCoef did   100 forward-backward iterations
 Rare condition: small coef for last iteration:  0.305D-15
 Coeff-Com: -0.850D+00 0.972D+00-0.113D+00-0.599D-01-0.107D+00 0.274D+00
 Coeff-Com:  0.550D+00 0.335D+00
 Coeff-En:   0.000D+00 0.000D+00 0.150D+00 0.252D+00 0.000D+00 0.000D+00
 Coeff-En:   0.190D+00 0.408D+00
 Coeff:     -0.850D+00 0.972D+00-0.113D+00-0.599D-01-0.107D+00 0.274D+00
 Coeff:      0.550D+00 0.335D+00
 Gap=     0.034 Goal=   None    Shift=    0.000
 RMSDP=5.18D-05 MaxDP=6.65D-03 DE=-2.30D-05 OVMax= 3.62D-03

 Cycle   9  Pass 1  IDiag  1:
 E= -86.3214211773676     Delta-E=       -0.000029226392 Rises=F Damp=F
 DIIS: error= 5.44D-04 at cycle   9 NSaved=   9.
 NSaved= 9 IEnMin= 9 EnMin= -86.3214211773676     IErMin= 9 ErrMin= 5.44D-04
 ErrMax= 5.44D-04  0.00D+00 EMaxC= 1.00D-01 BMatC= 2.73D-05 BMatP= 4.17D-05
 IDIUse=3 WtCom= 9.95D-01 WtEn= 5.44D-03
 EnCoef did   100 forward-backward iterations
 Rare condition: small coef for last iteration:  0.000D+00
 Coeff-Com: -0.630D+00 0.719D+00-0.102D+00-0.740D-01-0.178D+00 0.139D-02
 Coeff-Com:  0.193D+00 0.188D+00 0.882D+00
 Coeff-En:   0.000D+00 0.000D+00 0.160D+00 0.211D+00 0.000D+00 0.000D+00
 Coeff-En:   0.000D+00 0.000D+00 0.629D+00
 Coeff:     -0.630D+00 0.719D+00-0.102D+00-0.740D-01-0.178D+00 0.139D-02
 Coeff:      0.193D+00 0.188D+00 0.882D+00
 Gap=     0.034 Goal=   None    Shift=    0.000
 RMSDP=1.09D-04 MaxDP=1.47D-02 DE=-2.92D-05 OVMax= 1.99D-03

 Cycle  10  Pass 1  IDiag  1:
 E= -86.3214422866819     Delta-E=       -0.000021109314 Rises=F Damp=F
 DIIS: error= 3.98D-04 at cycle  10 NSaved=  10.
 NSaved=10 IEnMin=10 EnMin= -86.3214422866819     IErMin=10 ErrMin= 3.98D-04
 ErrMax= 3.98D-04  0.00D+00 EMaxC= 1.00D-01 BMatC= 1.48D-05 BMatP= 2.73D-05
 IDIUse=3 WtCom= 9.96D-01 WtEn= 3.98D-03
 EnCoef did   100 forward-backward iterations
 Coeff-Com: -0.490D+00 0.560D+00-0.833D-01-0.695D-01-0.177D+00-0.109D+00
 Coeff-Com:  0.155D-01 0.791D-01 0.959D+00 0.314D+00
 Coeff-En:   0.000D+00 0.000D+00 0.425D+00 0.531D+00 0.000D+00 0.000D+00
 Coeff-En:   0.000D+00 0.000D+00 0.000D+00 0.440D-01
 Coeff:     -0.488D+00 0.558D+00-0.813D-01-0.671D-01-0.176D+00-0.108D+00
 Coeff:      0.155D-01 0.788D-01 0.956D+00 0.313D+00
 Gap=     0.034 Goal=   None    Shift=    0.000
 RMSDP=8.68D-05 MaxDP=8.85D-03 DE=-2.11D-05 OVMax= 3.24D-03

 Cycle  11  Pass 1  IDiag  1:
 E= -86.3214524953352     Delta-E=       -0.000010208653 Rises=F Damp=F
 DIIS: error= 3.02D-04 at cycle  11 NSaved=  11.
 NSaved=11 IEnMin=11 EnMin= -86.3214524953352     IErMin=11 ErrMin= 3.02D-04
 ErrMax= 3.02D-04  0.00D+00 EMaxC= 1.00D-01 BMatC= 8.75D-06 BMatP= 1.48D-05
 IDIUse=3 WtCom= 9.97D-01 WtEn= 3.02D-03
 EnCoef did   100 forward-backward iterations
 Rare condition: small coef for last iteration: -0.126D-15
 Coeff-Com: -0.361D+00 0.412D+00-0.626D-01-0.596D-01-0.163D+00-0.173D+00
 Coeff-Com: -0.106D+00-0.383D-02 0.871D+00 0.433D+00 0.212D+00
 Coeff-En:   0.000D+00 0.000D+00 0.178D+00 0.163D+00 0.000D+00 0.000D+00
 Coeff-En:   0.000D+00 0.000D+00 0.000D+00 0.000D+00 0.660D+00
 Coeff:     -0.361D+00 0.412D+00-0.626D-01-0.596D-01-0.163D+00-0.173D+00
 Coeff:     -0.106D+00-0.383D-02 0.871D+00 0.433D+00 0.212D+00
 Gap=     0.034 Goal=   None    Shift=    0.000
 RMSDP=6.20D-05 MaxDP=7.14D-03 DE=-1.02D-05 OVMax= 2.05D-03

 Cycle  12  Pass 1  IDiag  1:
 E= -86.3214597675920     Delta-E=       -0.000007272257 Rises=F Damp=F
 DIIS: error= 2.24D-04 at cycle  12 NSaved=  12.
 NSaved=12 IEnMin=12 EnMin= -86.3214597675920     IErMin=12 ErrMin= 2.24D-04
 ErrMax= 2.24D-04  0.00D+00 EMaxC= 1.00D-01 BMatC= 4.65D-06 BMatP= 8.75D-06
 IDIUse=3 WtCom= 9.98D-01 WtEn= 2.24D-03
 EnCoef did   100 forward-backward iterations
 Coeff-Com: -0.145D+00 0.166D+00-0.230D-01-0.274D-01-0.938D-01-0.154D+00
 Coeff-Com: -0.153D+00-0.567D-01 0.332D+00 0.234D+00 0.151D+00 0.771D+00
 Coeff-En:   0.000D+00 0.000D+00 0.437D+00 0.544D+00 0.000D+00 0.000D+00
 Coeff-En:   0.000D+00 0.000D+00 0.000D+00 0.000D+00 0.000D+00 0.191D-01
 Coeff:     -0.145D+00 0.166D+00-0.220D-01-0.262D-01-0.936D-01-0.153D+00
 Coeff:     -0.153D+00-0.565D-01 0.331D+00 0.233D+00 0.150D+00 0.769D+00
 Gap=     0.034 Goal=   None    Shift=    0.000
 RMSDP=8.35D-05 MaxDP=1.24D-02 DE=-7.27D-06 OVMax= 1.43D-03

 Cycle  13  Pass 1  IDiag  1:
 E= -86.3214663753760     Delta-E=       -0.000006607784 Rises=F Damp=F
 DIIS: error= 8.79D-05 at cycle  13 NSaved=  13.
 NSaved=13 IEnMin=13 EnMin= -86.3214663753760     IErMin=13 ErrMin= 8.79D-05
 ErrMax= 8.79D-05  0.00D+00 EMaxC= 1.00D-01 BMatC= 7.17D-07 BMatP= 4.65D-06
 IDIUse=1 WtCom= 1.00D+00 WtEn= 0.00D+00
 Coeff-Com: -0.862D-01 0.985D-01-0.131D-01-0.176D-01-0.686D-01-0.117D+00
 Coeff-Com: -0.122D+00-0.476D-01 0.178D+00 0.149D+00 0.100D+00 0.625D+00
 Coeff-Com:  0.321D+00
 Coeff:     -0.862D-01 0.985D-01-0.131D-01-0.176D-01-0.686D-01-0.117D+00
 Coeff:     -0.122D+00-0.476D-01 0.178D+00 0.149D+00 0.100D+00 0.625D+00
 Coeff:      0.321D+00
 Gap=     0.034 Goal=   None    Shift=    0.000
 RMSDP=2.63D-05 MaxDP=3.60D-03 DE=-6.61D-06 OVMax= 8.55D-04

 Cycle  14  Pass 1  IDiag  1:
 E= -86.3214670286423     Delta-E=       -0.000000653266 Rises=F Damp=F
 DIIS: error= 5.43D-05 at cycle  14 NSaved=  14.
 NSaved=14 IEnMin=14 EnMin= -86.3214670286423     IErMin=14 ErrMin= 5.43D-05
 ErrMax= 5.43D-05  0.00D+00 EMaxC= 1.00D-01 BMatC= 3.02D-07 BMatP= 7.17D-07
 IDIUse=1 WtCom= 1.00D+00 WtEn= 0.00D+00
 Coeff-Com: -0.912D-02 0.104D-01-0.154D-02-0.269D-02-0.209D-01-0.210D-01
 Coeff-Com: -0.182D-01-0.416D-02-0.430D-01-0.634D-02-0.952D-02 0.168D-01
 Coeff-Com:  0.737D+00 0.373D+00
 Coeff:     -0.912D-02 0.104D-01-0.154D-02-0.269D-02-0.209D-01-0.210D-01
 Coeff:     -0.182D-01-0.416D-02-0.430D-01-0.634D-02-0.952D-02 0.168D-01
 Coeff:      0.737D+00 0.373D+00
 Gap=     0.034 Goal=   None    Shift=    0.000
 RMSDP=3.56D-05 MaxDP=5.34D-03 DE=-6.53D-07 OVMax= 7.55D-04

 Cycle  15  Pass 1  IDiag  1:
 E= -86.3214675722685     Delta-E=       -0.000000543626 Rises=F Damp=F
 DIIS: error= 7.07D-06 at cycle  15 NSaved=  15.
 NSaved=15 IEnMin=15 EnMin= -86.3214675722685     IErMin=15 ErrMin= 7.07D-06
 ErrMax= 7.07D-06  0.00D+00 EMaxC= 1.00D-01 BMatC= 5.14D-09 BMatP= 3.02D-07
 IDIUse=1 WtCom= 1.00D+00 WtEn= 0.00D+00
 Coeff-Com: -0.446D-01 0.510D-01-0.896D-02-0.604D-02-0.111D-01 0.176D-01
 Coeff-Com:  0.391D-01 0.265D-01 0.545D-01 0.371D-02-0.176D-01-0.288D+00
 Coeff-Com:  0.200D+00 0.204D+00 0.780D+00
 Coeff:     -0.446D-01 0.510D-01-0.896D-02-0.604D-02-0.111D-01 0.176D-01
 Coeff:      0.391D-01 0.265D-01 0.545D-01 0.371D-02-0.176D-01-0.288D+00
 Coeff:      0.200D+00 0.204D+00 0.780D+00
 Gap=     0.034 Goal=   None    Shift=    0.000
 RMSDP=1.73D-05 MaxDP=2.80D-03 DE=-5.44D-07 OVMax= 2.51D-04

 Cycle  16  Pass 1  IDiag  1:
 E= -86.3214674646662     Delta-E=        0.000000107602 Rises=F Damp=F
 DIIS: error= 2.78D-05 at cycle  16 NSaved=  16.
 NSaved=16 IEnMin=15 EnMin= -86.3214675722685     IErMin=15 ErrMin= 7.07D-06
 ErrMax= 2.78D-05  0.00D+00 EMaxC= 1.00D-01 BMatC= 7.12D-08 BMatP= 5.14D-09
 IDIUse=1 WtCom= 1.00D+00 WtEn= 0.00D+00
 Coeff-Com: -0.388D-01 0.444D-01-0.686D-02-0.567D-02-0.165D-01-0.150D-01
 Coeff-Com: -0.397D-03 0.539D-02 0.830D-01 0.318D-01 0.169D-01 0.554D-02
 Coeff-Com: -0.356D+00-0.158D+00 0.128D+00 0.128D+01
 Coeff:     -0.388D-01 0.444D-01-0.686D-02-0.567D-02-0.165D-01-0.150D-01
 Coeff:     -0.397D-03 0.539D-02 0.830D-01 0.318D-01 0.169D-01 0.554D-02
 Coeff:     -0.356D+00-0.158D+00 0.128D+00 0.128D+01
 Gap=     0.034 Goal=   None    Shift=    0.000
 RMSDP=3.67D-06 MaxDP=5.05D-04 DE= 1.08D-07 OVMax= 1.36D-04

 Cycle  17  Pass 1  IDiag  1:
 E= -86.3214674984871     Delta-E=       -0.000000033821 Rises=F Damp=F
 DIIS: error= 2.43D-05 at cycle  17 NSaved=  17.
 NSaved=17 IEnMin=15 EnMin= -86.3214675722685     IErMin=15 ErrMin= 7.07D-06
 ErrMax= 2.43D-05  0.00D+00 EMaxC= 1.00D-01 BMatC= 5.36D-08 BMatP= 5.14D-09
 IDIUse=1 WtCom= 1.00D+00 WtEn= 0.00D+00
 Coeff-Com: -0.212D-01 0.243D-01-0.344D-02-0.322D-02-0.129D-01-0.197D-01
 Coeff-Com: -0.116D-01-0.231D-02 0.512D-01 0.239D-01 0.179D-01 0.725D-01
 Coeff-Com: -0.364D+00-0.191D+00-0.992D-01 0.103D+01 0.510D+00
 Coeff:     -0.212D-01 0.243D-01-0.344D-02-0.322D-02-0.129D-01-0.197D-01
 Coeff:     -0.116D-01-0.231D-02 0.512D-01 0.239D-01 0.179D-01 0.725D-01
 Coeff:     -0.364D+00-0.191D+00-0.992D-01 0.103D+01 0.510D+00
 Gap=     0.034 Goal=   None    Shift=    0.000
 RMSDP=9.26D-06 MaxDP=1.14D-03 DE=-3.38D-08 OVMax= 1.55D-04

 Cycle  18  Pass 1  IDiag  1:
 E= -86.3214675615097     Delta-E=       -0.000000063023 Rises=F Damp=F
 DIIS: error= 1.36D-05 at cycle  18 NSaved=  18.
 NSaved=18 IEnMin=15 EnMin= -86.3214675722685     IErMin=15 ErrMin= 7.07D-06
 ErrMax= 1.36D-05  0.00D+00 EMaxC= 1.00D-01 BMatC= 1.68D-08 BMatP= 5.14D-09
 IDIUse=1 WtCom= 1.00D+00 WtEn= 0.00D+00
 Coeff-Com:  0.937D-02-0.107D-01 0.220D-02 0.121D-02-0.357D-02-0.168D-01
 Coeff-Com: -0.193D-01-0.985D-02-0.134D-01 0.204D-02 0.963D-02 0.111D+00
 Coeff-Com: -0.209D+00-0.143D+00-0.327D+00 0.195D+00 0.892D+00 0.530D+00
 Coeff:      0.937D-02-0.107D-01 0.220D-02 0.121D-02-0.357D-02-0.168D-01
 Coeff:     -0.193D-01-0.985D-02-0.134D-01 0.204D-02 0.963D-02 0.111D+00
 Coeff:     -0.209D+00-0.143D+00-0.327D+00 0.195D+00 0.892D+00 0.530D+00
 Gap=     0.034 Goal=   None    Shift=    0.000
 RMSDP=1.35D-05 MaxDP=1.93D-03 DE=-6.30D-08 OVMax= 2.15D-04

 Cycle  19  Pass 1  IDiag  1:
 E= -86.3214675861781     Delta-E=       -0.000000024668 Rises=F Damp=F
 DIIS: error= 5.86D-06 at cycle  19 NSaved=  19.
 NSaved=19 IEnMin=19 EnMin= -86.3214675861781     IErMin=19 ErrMin= 5.86D-06
 ErrMax= 5.86D-06  0.00D+00 EMaxC= 1.00D-01 BMatC= 3.19D-09 BMatP= 5.14D-09
 IDIUse=1 WtCom= 1.00D+00 WtEn= 0.00D+00
 Coeff-Com:  0.751D-02-0.858D-02 0.155D-02 0.105D-02 0.249D-03-0.491D-02
 Coeff-Com: -0.738D-02-0.428D-02-0.126D-01-0.134D-02 0.321D-02 0.544D-01
 Coeff-Com: -0.474D-01-0.456D-01-0.183D+00-0.146D+00 0.408D+00 0.322D+00
 Coeff-Com:  0.662D+00
 Coeff:      0.751D-02-0.858D-02 0.155D-02 0.105D-02 0.249D-03-0.491D-02
 Coeff:     -0.738D-02-0.428D-02-0.126D-01-0.134D-02 0.321D-02 0.544D-01
 Coeff:     -0.474D-01-0.456D-01-0.183D+00-0.146D+00 0.408D+00 0.322D+00
 Coeff:      0.662D+00
 Gap=     0.034 Goal=   None    Shift=    0.000
 RMSDP=2.25D-06 MaxDP=2.44D-04 DE=-2.47D-08 OVMax= 4.86D-05

 Cycle  20  Pass 1  IDiag  1:
 E= -86.3214675879702     Delta-E=       -0.000000001792 Rises=F Damp=F
 DIIS: error= 5.05D-06 at cycle  20 NSaved=  20.
 NSaved=20 IEnMin=20 EnMin= -86.3214675879702     IErMin=20 ErrMin= 5.05D-06
 ErrMax= 5.05D-06  0.00D+00 EMaxC= 1.00D-01 BMatC= 2.17D-09 BMatP= 3.19D-09
 IDIUse=1 WtCom= 1.00D+00 WtEn= 0.00D+00
 Coeff-Com:  0.501D-02-0.572D-02 0.984D-03 0.733D-03 0.101D-02-0.919D-03
 Coeff-Com: -0.272D-02-0.187D-02-0.864D-02-0.140D-02 0.130D-02 0.316D-01
 Coeff-Com:  0.124D-02-0.131D-01-0.112D+00-0.198D+00 0.203D+00 0.202D+00
 Coeff-Com:  0.673D+00 0.224D+00
 Coeff:      0.501D-02-0.572D-02 0.984D-03 0.733D-03 0.101D-02-0.919D-03
 Coeff:     -0.272D-02-0.187D-02-0.864D-02-0.140D-02 0.130D-02 0.316D-01
 Coeff:      0.124D-02-0.131D-01-0.112D+00-0.198D+00 0.203D+00 0.202D+00
 Coeff:      0.673D+00 0.224D+00
 Gap=     0.034 Goal=   None    Shift=    0.000
 RMSDP=1.16D-06 MaxDP=1.75D-04 DE=-1.79D-09 OVMax= 3.55D-05

 Cycle  21  Pass 1  IDiag  1:
 E= -86.3214675902577     Delta-E=       -0.000000002288 Rises=F Damp=F
 DIIS: error= 3.12D-06 at cycle  21 NSaved=  20.
 NSaved=20 IEnMin=20 EnMin= -86.3214675902577     IErMin=20 ErrMin= 3.12D-06
 ErrMax= 3.12D-06  0.00D+00 EMaxC= 1.00D-01 BMatC= 9.09D-10 BMatP= 2.17D-09
 IDIUse=1 WtCom= 1.00D+00 WtEn= 0.00D+00
 Coeff-Com: -0.987D-11-0.533D-05 0.401D-04 0.503D-03 0.146D-02 0.125D-02
 Coeff-Com:  0.570D-03 0.389D-03 0.550D-03 0.481D-03 0.858D-02 0.239D-01
 Coeff-Com:  0.811D-02-0.283D-01-0.138D+00 0.634D-02 0.505D-01 0.391D+00
 Coeff-Com:  0.245D+00 0.428D+00
 Coeff:     -0.987D-11-0.533D-05 0.401D-04 0.503D-03 0.146D-02 0.125D-02
 Coeff:      0.570D-03 0.389D-03 0.550D-03 0.481D-03 0.858D-02 0.239D-01
 Coeff:      0.811D-02-0.283D-01-0.138D+00 0.634D-02 0.505D-01 0.391D+00
 Coeff:      0.245D+00 0.428D+00
 Gap=     0.034 Goal=   None    Shift=    0.000
 RMSDP=1.75D-06 MaxDP=3.06D-04 DE=-2.29D-09 OVMax= 3.73D-05

 Cycle  22  Pass 1  IDiag  1:
 E= -86.3214675917787     Delta-E=       -0.000000001521 Rises=F Damp=F
 DIIS: error= 4.13D-07 at cycle  22 NSaved=  20.
 NSaved=20 IEnMin=20 EnMin= -86.3214675917787     IErMin=20 ErrMin= 4.13D-07
 ErrMax= 4.13D-07  0.00D+00 EMaxC= 1.00D-01 BMatC= 1.03D-11 BMatP= 9.09D-10
 IDIUse=1 WtCom= 1.00D+00 WtEn= 0.00D+00
 Coeff-Com: -0.210D-04 0.335D-04 0.454D-03 0.145D-02 0.137D-02 0.644D-03
 Coeff-Com: -0.174D-03 0.422D-04 0.419D-05 0.449D-02 0.227D-01 0.957D-02
 Coeff-Com: -0.109D-01-0.947D-01-0.216D-01 0.156D-01 0.234D+00 0.179D+00
 Coeff-Com:  0.383D+00 0.275D+00
 Coeff:     -0.210D-04 0.335D-04 0.454D-03 0.145D-02 0.137D-02 0.644D-03
 Coeff:     -0.174D-03 0.422D-04 0.419D-05 0.449D-02 0.227D-01 0.957D-02
 Coeff:     -0.109D-01-0.947D-01-0.216D-01 0.156D-01 0.234D+00 0.179D+00
 Coeff:      0.383D+00 0.275D+00
 Gap=     0.034 Goal=   None    Shift=    0.000
 RMSDP=1.58D-07 MaxDP=1.47D-05 DE=-1.52D-09 OVMax= 7.26D-06

 Cycle  23  Pass 1  IDiag  1:
 E= -86.3214675918030     Delta-E=       -0.000000000024 Rises=F Damp=F
 DIIS: error= 1.22D-07 at cycle  23 NSaved=  20.
 NSaved=20 IEnMin=20 EnMin= -86.3214675918030     IErMin=20 ErrMin= 1.22D-07
 ErrMax= 1.22D-07  0.00D+00 EMaxC= 1.00D-01 BMatC= 1.16D-12 BMatP= 1.03D-11
 IDIUse=1 WtCom= 1.00D+00 WtEn= 0.00D+00
 Coeff-Com:  0.249D-04 0.121D-03 0.571D-03 0.641D-03 0.336D-03-0.609D-03
 Coeff-Com: -0.229D-03-0.152D-03 0.146D-02 0.992D-02 0.482D-02 0.761D-03
 Coeff-Com: -0.258D-01-0.191D-01-0.560D-02 0.454D-01 0.559D-01 0.158D+00
 Coeff-Com:  0.242D+00 0.531D+00
 Coeff:      0.249D-04 0.121D-03 0.571D-03 0.641D-03 0.336D-03-0.609D-03
 Coeff:     -0.229D-03-0.152D-03 0.146D-02 0.992D-02 0.482D-02 0.761D-03
 Coeff:     -0.258D-01-0.191D-01-0.560D-02 0.454D-01 0.559D-01 0.158D+00
 Coeff:      0.242D+00 0.531D+00
 Gap=     0.034 Goal=   None    Shift=    0.000
 RMSDP=1.07D-07 MaxDP=1.19D-05 DE=-2.43D-11 OVMax= 2.65D-06

 Cycle  24  Pass 1  IDiag  1:
 E= -86.3214675918056     Delta-E=       -0.000000000003 Rises=F Damp=F
 DIIS: error= 1.78D-08 at cycle  24 NSaved=  20.
 NSaved=20 IEnMin=20 EnMin= -86.3214675918056     IErMin=20 ErrMin= 1.78D-08
 ErrMax= 1.78D-08  0.00D+00 EMaxC= 1.00D-01 BMatC= 6.32D-14 BMatP= 1.16D-12
 IDIUse=1 WtCom= 1.00D+00 WtEn= 0.00D+00
 Coeff-Com: -0.613D-04-0.229D-04 0.244D-04 0.431D-04-0.196D-03 0.218D-04
 Coeff-Com:  0.528D-04 0.983D-03 0.174D-02 0.842D-03 0.813D-03-0.987D-03
 Coeff-Com: -0.589D-02-0.405D-02-0.495D-02 0.627D-02 0.320D-01 0.841D-01
 Coeff-Com:  0.251D+00 0.638D+00
 Coeff:     -0.613D-04-0.229D-04 0.244D-04 0.431D-04-0.196D-03 0.218D-04
 Coeff:      0.528D-04 0.983D-03 0.174D-02 0.842D-03 0.813D-03-0.987D-03
 Coeff:     -0.589D-02-0.405D-02-0.495D-02 0.627D-02 0.320D-01 0.841D-01
 Coeff:      0.251D+00 0.638D+00
 Gap=     0.034 Goal=   None    Shift=    0.000
 RMSDP=3.29D-08 MaxDP=3.98D-06 DE=-2.59D-12 OVMax= 7.85D-07

 Cycle  25  Pass 1  IDiag  1:
 E= -86.3214675918059     Delta-E=       -0.000000000000 Rises=F Damp=F
 DIIS: error= 3.46D-08 at cycle  25 NSaved=  20.
 NSaved=20 IEnMin=20 EnMin= -86.3214675918059     IErMin=19 ErrMin= 1.78D-08
 ErrMax= 3.46D-08  0.00D+00 EMaxC= 1.00D-01 BMatC= 8.83D-14 BMatP= 6.32D-14
 IDIUse=1 WtCom= 1.00D+00 WtEn= 0.00D+00
 Coeff-Com:  0.519D-04 0.714D-04 0.492D-04-0.941D-04 0.174D-05-0.116D-04
 Coeff-Com: -0.178D-03 0.123D-02 0.827D-03 0.222D-02-0.463D-03-0.574D-02
 Coeff-Com: -0.386D-02-0.485D-02 0.523D-03 0.744D-02 0.248D-01 0.908D-01
 Coeff-Com:  0.539D+00 0.348D+00
 Coeff:      0.519D-04 0.714D-04 0.492D-04-0.941D-04 0.174D-05-0.116D-04
 Coeff:     -0.178D-03 0.123D-02 0.827D-03 0.222D-02-0.463D-03-0.574D-02
 Coeff:     -0.386D-02-0.485D-02 0.523D-03 0.744D-02 0.248D-01 0.908D-01
 Coeff:      0.539D+00 0.348D+00
 Gap=     0.034 Goal=   None    Shift=    0.000
 RMSDP=1.61D-08 MaxDP=1.84D-06 DE=-2.56D-13 OVMax= 6.73D-07

 Cycle  26  Pass 1  IDiag  1:
 E= -86.3214675918059     Delta-E=       -0.000000000000 Rises=F Damp=F
 DIIS: error= 1.33D-08 at cycle  26 NSaved=  20.
 NSaved=20 IEnMin=20 EnMin= -86.3214675918059     IErMin=20 ErrMin= 1.33D-08
 ErrMax= 1.33D-08  0.00D+00 EMaxC= 1.00D-01 BMatC= 1.97D-14 BMatP= 6.32D-14
 IDIUse=1 WtCom= 1.00D+00 WtEn= 0.00D+00
 Coeff-Com:  0.149D-04 0.153D-04-0.581D-04-0.143D-04-0.118D-04-0.308D-03
 Coeff-Com: -0.567D-03-0.126D-03 0.115D-02 0.298D-02-0.553D-03-0.118D-02
 Coeff-Com: -0.677D-02-0.444D-02-0.887D-02-0.648D-02 0.307D-02 0.243D+00
 Coeff-Com:  0.295D+00 0.484D+00
 Coeff:      0.149D-04 0.153D-04-0.581D-04-0.143D-04-0.118D-04-0.308D-03
 Coeff:     -0.567D-03-0.126D-03 0.115D-02 0.298D-02-0.553D-03-0.118D-02
 Coeff:     -0.677D-02-0.444D-02-0.887D-02-0.648D-02 0.307D-02 0.243D+00
 Coeff:      0.295D+00 0.484D+00
 Gap=     0.034 Goal=   None    Shift=    0.000
 RMSDP=1.13D-08 MaxDP=1.83D-06 DE=-7.11D-14 OVMax= 3.01D-07

 Cycle  27  Pass 1  IDiag  1:
 E= -86.3214675918062     Delta-E=       -0.000000000000 Rises=F Damp=F
 DIIS: error= 3.93D-09 at cycle  27 NSaved=  20.
 NSaved=20 IEnMin=20 EnMin= -86.3214675918062     IErMin=20 ErrMin= 3.93D-09
 ErrMax= 3.93D-09  0.00D+00 EMaxC= 1.00D-01 BMatC= 1.88D-15 BMatP= 1.97D-14
 IDIUse=1 WtCom= 1.00D+00 WtEn= 0.00D+00
 Coeff-Com:  0.264D-05-0.188D-04 0.224D-05-0.264D-05-0.138D-03-0.539D-04
 Coeff-Com:  0.467D-04 0.574D-03 0.954D-03-0.523D-03-0.629D-03-0.267D-02
 Coeff-Com: -0.161D-02-0.310D-02-0.246D-02 0.470D-03 0.983D-01 0.131D+00
 Coeff-Com:  0.236D+00 0.544D+00
 Coeff:      0.264D-05-0.188D-04 0.224D-05-0.264D-05-0.138D-03-0.539D-04
 Coeff:      0.467D-04 0.574D-03 0.954D-03-0.523D-03-0.629D-03-0.267D-02
 Coeff:     -0.161D-02-0.310D-02-0.246D-02 0.470D-03 0.983D-01 0.131D+00
 Coeff:      0.236D+00 0.544D+00
 Gap=     0.034 Goal=   None    Shift=    0.000
 RMSDP=8.09D-09 MaxDP=9.13D-07 DE=-2.84D-13 OVMax= 1.51D-07

 SCF Done:  E(ROHF) =  -86.3214675918     A.U. after   27 cycles
            NFock= 27  Conv=0.81D-08     -V/T= 3.0730
 <Sx>= 0.0000 <Sy>= 0.0000 <Sz>= 2.5000 <S**2>= 8.7500 S= 2.5000
 <L.S>=  0.00000000000    
 KE= 4.164039636400D+01 PE=-2.016557822865D+02 EE= 6.799508682846D+01
 Annihilation of the first spin contaminant:
 S**2 before annihilation     8.7500,   after     8.7500
 Leave Link  502 at Mon Feb 26 00:34:07 2018, MaxMem=  8589934592 cpu:            1033.5 elap:              74.0
 (Enter /home1/apps/gaussian/16rA.03/g16/l801.exe)
 Windowed orbitals will be sorted by symmetry type.
 GenMOA:  NOpAll=  4 NOp2=4 NOpUse=  4 JSym2X=1
 FoFJK:  IHMeth= 1 ICntrl=       0 DoSepK=F KAlg= 0 I1Cent=           0 FoldK=F
 IRaf=         0 NMat=       1 IRICut=       1 DoRegI=T DoRafI=F ISym2E= 1 IDoP0=0 IntGTp=1.
 FoFCou: FMM=F IPFlag=           8 FMFlag=      100000 FMFlg1=           0
         NFxFlg=           0 DoJE=F BraDBF=F KetDBF=F FulRan=T
         wScrn=  0.000000 ICntrl=         0 IOpCl=  1 I1Cent=           0 NGrid=           0
         NMat0=    1 NMatS0=      1 NMatT0=    0 NMatD0=    1 NMtDS0=    0 NMtDT0=    0
 Petite list used in FoFCou.
 <Sx>= 0.0000 <Sy>= 0.0000 <Sz>= 2.5000 <S**2>= 8.7500 S= 2.5000
 Range of M.O.s used for correlation:     1   306
 NBasis=   310 NAE=    10 NBE=     5 NFC=     0 NFV=     0
 NROrb=    306 NOA=    10 NOB=     5 NVA=   296 NVB=   301

 **** Warning!!: The largest alpha MO coefficient is  0.31773404D+03


 **** Warning!!: The largest beta MO coefficient is  0.31734389D+03

 Singles contribution to E2=   -0.3411091378D-02
 Leave Link  801 at Mon Feb 26 00:34:26 2018, MaxMem=  8589934592 cpu:             306.9 elap:              19.2
 (Enter /home1/apps/gaussian/16rA.03/g16/l804.exe)
 Open-shell transformation, MDV=  8589934592 ITran=4 ISComp=2.
 Unit  1 TFree=       2913596 TCopy=       2235884.
 Semi-Direct transformation.
 ModeAB=           2 MOrb=            10 LenV=    8587014785
 LASXX=     35609842 LTotXX=    35609842 LenRXX=    35609842
 LTotAB=    36064058 MaxLAS=   247869180 LenRXY=   247869180
 NonZer=   252676440 LenScr=   380502016 LnRSAI=           0
 LnScr1=           0 LExtra=     9116750 Total=    673097788
 MaxDsk= 67108864000 SrtSym=           F ITran=            4
 DoSDTr:  NPSUse= 16
 JobTyp=1 Pass  1:  I=   1 to  10.
 (rs|ai) integrals will be sorted in core.
 Complete sort for first half transformation.
 First half transformation complete.
 Begin second half transformation for I=  10.
 Begin second half transformation for I=  10.
 Complete sort for second half transformation.
 Second half transformation complete.
 ModeAB=           2 MOrb=             5 LenV=    8587014785
 LASXX=     18115288 LTotXX=    18115288 LenRXX=   123934590
 LTotAB=    17153940 MaxLAS=   123934590 LenRXY=    17153940
 NonZer=   126338220 LenScr=   190265344 LnRSAI=           0
 LnScr1=           0 LExtra=   292595772 Total=    623949646
 MaxDsk= 67108864000 SrtSym=           F ITran=            4
 DoSDTr:  NPSUse= 16
 JobTyp=2 Pass  1:  I=   1 to   5.
 (rs|ai) integrals will be sorted in core.
 Complete sort for first half transformation.
 First half transformation complete.
 Complete sort for second half transformation.
 Second half transformation complete.
 Spin components of T(2) and E(2):
     alpha-alpha T2 =       0.3298588371D-01 E2=     -0.1454771991D+00
     alpha-beta  T2 =       0.5834432194D-01 E2=     -0.3873706445D+00
     beta-beta   T2 =       0.6441870863D-02 E2=     -0.4144693118D-01
 ANorm=    0.1048922013D+01
 E2 =    -0.5777058662D+00 EUMP2 =    -0.86899173457977D+02
 (S**2,0)=  0.87500D+01           (S**2,1)=  0.87500D+01
 E(PUHF)=      -0.86321467592D+02        E(PMP2)=      -0.86899173458D+02
 Recovering and transforming amplitudes from chk file.
 B after Tr=     0.000000    0.000000    0.000000
         Rot=    1.000000    0.000000    0.000000    0.000000 Ang=   0.00 deg.
 Alpha occ  Sing. vals= 9.999985D-01 9.999980D-01 9.999980D-01 9.999926D-01 9.999884D-01 9.999857D-01 9.999857D-01 9.999835D-01 9.999835D-01 9.999810D-01
 Alpha occ  NOrbO=    10 NOrbN=    10 NSVal=    10 ThrEig=  0.900000.
 TrMax= 1.000000D+00 PrMax= 1.000000D+00 Trace(Pr)= 1.000000D+01
 B after Tr=     0.000000    0.000000    0.000000
         Rot=    1.000000    0.000000    0.000000    0.000000 Ang=   0.00 deg.
 Alpha virt Sing. vals= 1.000000D+00 1.000000D+00 1.000000D+00 1.000000D+00 1.000000D+00 1.000000D+00 1.000000D+00 1.000000D+00 1.000000D+00 1.000000D+00
 Alpha virt Sing. vals= 1.000000D+00 1.000000D+00 1.000000D+00 1.000000D+00 1.000000D+00 1.000000D+00 1.000000D+00 1.000000D+00 1.000000D+00 1.000000D+00
 Alpha virt Sing. vals= 1.000000D+00 9.999999D-01 9.999999D-01 9.999999D-01 9.999999D-01 9.999999D-01 9.999999D-01 9.999999D-01 9.999996D-01 9.999996D-01
 Alpha virt Sing. vals= 9.999996D-01 9.999996D-01 9.999994D-01 9.999991D-01 9.999991D-01 9.999991D-01 9.999991D-01 9.999991D-01 9.999989D-01 9.999989D-01
 Alpha virt Sing. vals= 9.999989D-01 9.999979D-01 9.999978D-01 9.999978D-01 9.999978D-01 9.999978D-01 9.999952D-01 9.999947D-01 9.999947D-01 9.999893D-01
 Alpha virt Sing. vals= 9.999871D-01 9.999773D-01 9.999773D-01 9.999750D-01 9.999750D-01 9.999744D-01 9.999724D-01 9.999703D-01 9.999703D-01 9.999559D-01
 Alpha virt Sing. vals= 9.999542D-01 9.999347D-01 9.999347D-01 9.999208D-01 9.999208D-01 9.999134D-01 9.999134D-01 9.999118D-01 9.998691D-01 9.998580D-01
 Alpha virt Sing. vals= 9.998580D-01 9.998505D-01 9.998339D-01 9.998339D-01 9.998247D-01 9.998246D-01 9.998246D-01 9.998217D-01 9.997984D-01 9.997930D-01
 Alpha virt Sing. vals= 9.997925D-01 9.997925D-01 9.997912D-01 9.997912D-01 9.997608D-01 9.997608D-01 9.997599D-01 9.997599D-01 9.997543D-01 9.997543D-01
 Alpha virt Sing. vals= 9.996341D-01 9.995280D-01 9.994369D-01 9.994369D-01 9.994317D-01 9.994317D-01 9.993711D-01 9.993711D-01 9.993710D-01 9.993710D-01
 Alpha virt Sing. vals= 9.993614D-01 9.993119D-01 9.991994D-01 9.990454D-01 9.990454D-01 9.987941D-01 9.987941D-01 9.986590D-01 9.985876D-01 9.985876D-01
 Alpha virt Sing. vals= 9.984220D-01 9.984220D-01 9.982893D-01 9.981921D-01 9.981921D-01 9.979258D-01 9.977347D-01 9.977347D-01 9.976610D-01 9.974254D-01
 Alpha virt Sing. vals= 9.973342D-01 9.973342D-01 9.970659D-01 9.970659D-01 9.967912D-01 9.967912D-01 9.965513D-01 9.965513D-01 9.964730D-01 9.963836D-01
 Alpha virt Sing. vals= 9.963836D-01 9.962216D-01 9.962216D-01 9.959392D-01 9.956852D-01 9.956850D-01 9.956850D-01 9.942065D-01 9.939848D-01 9.939848D-01
 Alpha virt Sing. vals= 9.939795D-01 9.939795D-01 9.938920D-01 9.938920D-01 9.933874D-01 9.922345D-01 9.908492D-01 9.908492D-01 9.891628D-01 9.847936D-01
 Alpha virt Sing. vals= 9.847936D-01 9.829124D-01 9.829124D-01 9.827392D-01 9.817276D-01 9.817276D-01 9.809263D-01 9.809263D-01 9.785413D-01 9.768888D-01
 Alpha virt Sing. vals= 9.757619D-01 9.757619D-01 9.717640D-01 9.704729D-01 9.704729D-01 9.677574D-01 9.642572D-01 9.642572D-01 9.605927D-01 9.605927D-01
 Alpha virt Sing. vals= 9.546355D-01 9.489001D-01 9.489001D-01 9.474203D-01 9.399978D-01 9.399977D-01 9.399977D-01 9.329575D-01 9.232525D-01 9.232525D-01
 Alpha virt Sing. vals= 9.202246D-01 9.202246D-01 9.199208D-01 9.199208D-01 9.120652D-01 9.120652D-01 8.944279D-01 8.802706D-01 8.631531D-01 8.631531D-01
 Alpha virt Sing. vals= 8.531133D-01 8.531133D-01 8.505524D-01 8.505524D-01 8.007893D-01 7.421001D-01
 Alpha virt NOrbO=   196 NOrbN=   296 NSVal=   186 ThrEig=  0.900000.
 TrMax= 9.981494D-01 PrMax= 9.994362D-01 Trace(Pr)= 1.860000D+02
 B after Tr=     0.000000    0.000000    0.000000
         Rot=    1.000000    0.000000    0.000000    0.000000 Ang=   0.00 deg.
 Beta  occ  Sing. vals= 9.999983D-01 9.999980D-01 9.999980D-01 9.999926D-01 9.999872D-01
 Beta  occ  NOrbO=     5 NOrbN=     5 NSVal=     5 ThrEig=  0.900000.
 TrMax= 1.000000D+00 PrMax= 1.000000D+00 Trace(Pr)= 5.000000D+00
 B after Tr=     0.000000    0.000000    0.000000
         Rot=    1.000000    0.000000    0.000000    0.000000 Ang=   0.00 deg.
 Beta  virt Sing. vals= 1.000000D+00 1.000000D+00 1.000000D+00 1.000000D+00 1.000000D+00 1.000000D+00 1.000000D+00 1.000000D+00 1.000000D+00 1.000000D+00
 Beta  virt Sing. vals= 1.000000D+00 1.000000D+00 1.000000D+00 1.000000D+00 1.000000D+00 1.000000D+00 1.000000D+00 1.000000D+00 1.000000D+00 1.000000D+00
 Beta  virt Sing. vals= 1.000000D+00 1.000000D+00 1.000000D+00 1.000000D+00 1.000000D+00 1.000000D+00 9.999999D-01 9.999999D-01 9.999999D-01 9.999999D-01
 Beta  virt Sing. vals= 9.999999D-01 9.999999D-01 9.999999D-01 9.999998D-01 9.999996D-01 9.999996D-01 9.999996D-01 9.999995D-01 9.999994D-01 9.999994D-01
 Beta  virt Sing. vals= 9.999994D-01 9.999994D-01 9.999993D-01 9.999989D-01 9.999989D-01 9.999989D-01 9.999981D-01 9.999978D-01 9.999978D-01 9.999978D-01
 Beta  virt Sing. vals= 9.999978D-01 9.999951D-01 9.999947D-01 9.999947D-01 9.999893D-01 9.999871D-01 9.999769D-01 9.999769D-01 9.999748D-01 9.999748D-01
 Beta  virt Sing. vals= 9.999744D-01 9.999723D-01 9.999703D-01 9.999703D-01 9.999558D-01 9.999542D-01 9.999347D-01 9.999347D-01 9.999192D-01 9.999192D-01
 Beta  virt Sing. vals= 9.999131D-01 9.999131D-01 9.999121D-01 9.998691D-01 9.998580D-01 9.998580D-01 9.998504D-01 9.998333D-01 9.998333D-01 9.998247D-01
 Beta  virt Sing. vals= 9.998246D-01 9.998246D-01 9.998217D-01 9.997984D-01 9.997930D-01 9.997925D-01 9.997925D-01 9.997912D-01 9.997912D-01 9.997608D-01
 Beta  virt Sing. vals= 9.997608D-01 9.997599D-01 9.997599D-01 9.997543D-01 9.997543D-01 9.996340D-01 9.995277D-01 9.994368D-01 9.994368D-01 9.994317D-01
 Beta  virt Sing. vals= 9.994317D-01 9.993711D-01 9.993711D-01 9.993710D-01 9.993710D-01 9.993614D-01 9.993115D-01 9.991995D-01 9.990454D-01 9.990454D-01
 Beta  virt Sing. vals= 9.987935D-01 9.987935D-01 9.986589D-01 9.985839D-01 9.985839D-01 9.984215D-01 9.984215D-01 9.982893D-01 9.981920D-01 9.981920D-01
 Beta  virt Sing. vals= 9.979258D-01 9.977342D-01 9.977342D-01 9.976610D-01 9.974258D-01 9.973342D-01 9.973342D-01 9.970649D-01 9.970649D-01 9.967914D-01
 Beta  virt Sing. vals= 9.967914D-01 9.965512D-01 9.965512D-01 9.964731D-01 9.963846D-01 9.963846D-01 9.962222D-01 9.962222D-01 9.959392D-01 9.956852D-01
 Beta  virt Sing. vals= 9.956850D-01 9.956850D-01 9.942066D-01 9.939848D-01 9.939848D-01 9.939795D-01 9.939795D-01 9.938921D-01 9.938921D-01 9.933874D-01
 Beta  virt Sing. vals= 9.922345D-01 9.908485D-01 9.908485D-01 9.891621D-01 9.847936D-01 9.847936D-01 9.829124D-01 9.829124D-01 9.827393D-01 9.817273D-01
 Beta  virt Sing. vals= 9.817273D-01 9.809263D-01 9.809263D-01 9.785413D-01 9.768888D-01 9.757619D-01 9.757619D-01 9.717642D-01 9.704730D-01 9.704730D-01
 Beta  virt Sing. vals= 9.677575D-01 9.642571D-01 9.642571D-01 9.605926D-01 9.605926D-01 9.546352D-01 9.488999D-01 9.488999D-01 9.474203D-01 9.399978D-01
 Beta  virt Sing. vals= 9.399977D-01 9.399977D-01 9.329575D-01 9.232525D-01 9.232525D-01 9.202246D-01 9.202246D-01 9.199208D-01 9.199208D-01 9.120652D-01
 Beta  virt Sing. vals= 9.120652D-01 8.944276D-01 8.802709D-01 8.631529D-01 8.631529D-01 8.531131D-01 8.531131D-01 8.505524D-01 8.505524D-01 8.007892D-01
 Beta  virt Sing. vals= 7.421000D-01
 Beta  virt NOrbO=   201 NOrbN=   301 NSVal=   191 ThrEig=  0.900000.
 TrMax= 9.978193D-01 PrMax= 9.989474D-01 Trace(Pr)= 1.910000D+02
 Leave Link  804 at Mon Feb 26 00:42:15 2018, MaxMem=  8589934592 cpu:            7486.9 elap:             468.4
 (Enter /home1/apps/gaussian/16rA.03/g16/l913.exe)
 CIDS:  MDV=  8589934592.
 IFCWin=0 IBDFC=1 NFBD=     0     0 NFCmp=     0     0 NFFFC=     0     0
 Amplitudes recovered.
 Using DD4UQ or CC4UQ for all iterations.
 Keep R2 and R3 ints in memory in symmetry-blocked form, NReq=1456566172.
 FoFCou: FMM=F IPFlag=           8 FMFlag=           0 FMFlg1=           0
         NFxFlg=           0 DoJE=F BraDBF=F KetDBF=F FulRan=T
         wScrn=  0.000000 ICntrl=       600 IOpCl=  0 I1Cent=           0 NGrid=           0
         NMat0=    1 NMatS0=  48205 NMatT0=    0 NMatD0=    1 NMtDS0=    0 NMtDT0=    0
 Petite list used in FoFCou.
 CIDS: In Core Option IDoMem=           1.
 CCSD(T)
 =======
 Iterations= 150 Convergence= 0.100D-06
 Produce multiple copies of IABC intergrals
 Iteration Nr.   1
 **********************
 DD1Dir will call FoFMem   1 times, MxPair=       156
 NAB=    50 NAA=    45 NBB=    10.
 Maximum subspace dimension=  5
 A-vector RMS=  1.5715809D-04 Max=  1.3554792D-03 conv= 1.00D-05.
 RLE energy=       -0.5809610811
 DE(Corr)= -0.58576138     E(Corr)=     -86.907228968    
 NORM(A)=   0.10597574D+01
 Iteration Nr.   2
 **********************
 DD1Dir will call FoFMem   1 times, MxPair=       156
 NAB=    50 NAA=    45 NBB=    10.
 A-vector RMS=  1.4265366D-03 Max=  1.7504620D-02 conv= 1.00D-05.
 RLE energy=       -0.5752934112
 DE(Corr)= -0.57519956     E(CORR)=     -86.896667157     Delta= 1.06D-02
 NORM(A)=   0.10663580D+01
 Iteration Nr.   3
 **********************
 DD1Dir will call FoFMem   1 times, MxPair=       156
 NAB=    50 NAA=    45 NBB=    10.
 A-vector RMS=  4.2555495D-04 Max=  9.4340733D-03 conv= 1.00D-05.
 RLE energy=       -0.5833642910
 DE(Corr)= -0.58265767     E(CORR)=     -86.904125266     Delta=-7.46D-03
 NORM(A)=   0.10735778D+01
 Iteration Nr.   4
 **********************
 DD1Dir will call FoFMem   1 times, MxPair=       156
 NAB=    50 NAA=    45 NBB=    10.
 A-vector RMS=  4.7768233D-04 Max=  9.3640924D-03 conv= 1.00D-05.
 RLE energy=       -0.5850790661
 DE(Corr)= -0.58311559     E(CORR)=     -86.904583181     Delta=-4.58D-04
 NORM(A)=   0.10838051D+01
 Iteration Nr.   5
 **********************
 DD1Dir will call FoFMem   1 times, MxPair=       156
 NAB=    50 NAA=    45 NBB=    10.
 A-vector RMS=  2.2546073D-04 Max=  5.8627142D-03 conv= 1.00D-05.
 RLE energy=       -0.5859055529
 DE(Corr)= -0.58509466     E(CORR)=     -86.906562250     Delta=-1.98D-03
 NORM(A)=   0.10929700D+01
 Iteration Nr.   6
 **********************
 DD1Dir will call FoFMem   1 times, MxPair=       156
 NAB=    50 NAA=    45 NBB=    10.
 A-vector RMS=  1.1196312D-04 Max=  2.9670802D-03 conv= 1.00D-05.
 RLE energy=       -0.5862143839
 DE(Corr)= -0.58595065     E(CORR)=     -86.907418243     Delta=-8.56D-04
 NORM(A)=   0.10969661D+01
 Iteration Nr.   7
 **********************
 DD1Dir will call FoFMem   1 times, MxPair=       156
 NAB=    50 NAA=    45 NBB=    10.
 A-vector RMS=  7.1483012D-05 Max=  1.3133794D-03 conv= 1.00D-05.
 RLE energy=       -0.5861415000
 DE(Corr)= -0.58618789     E(CORR)=     -86.907655477     Delta=-2.37D-04
 NORM(A)=   0.10982184D+01
 Iteration Nr.   8
 **********************
 DD1Dir will call FoFMem   1 times, MxPair=       156
 NAB=    50 NAA=    45 NBB=    10.
 A-vector RMS=  2.9384933D-05 Max=  4.7672916D-04 conv= 1.00D-05.
 RLE energy=       -0.5862505729
 DE(Corr)= -0.58623153     E(CORR)=     -86.907699118     Delta=-4.36D-05
 NORM(A)=   0.10987511D+01
 Iteration Nr.   9
 **********************
 DD1Dir will call FoFMem   1 times, MxPair=       156
 NAB=    50 NAA=    45 NBB=    10.
 A-vector RMS=  1.7796369D-05 Max=  1.6650815D-04 conv= 1.00D-05.
 RLE energy=       -0.5862235665
 DE(Corr)= -0.58622888     E(CORR)=     -86.907696472     Delta= 2.65D-06
 NORM(A)=   0.10989024D+01
 Iteration Nr.  10
 **********************
 DD1Dir will call FoFMem   1 times, MxPair=       156
 NAB=    50 NAA=    45 NBB=    10.
 A-vector RMS=  1.0344625D-05 Max=  9.9612209D-05 conv= 1.00D-05.
 RLE energy=       -0.5862491605
 DE(Corr)= -0.58624945     E(CORR)=     -86.907717044     Delta=-2.06D-05
 NORM(A)=   0.10989314D+01
 Iteration Nr.  11
 **********************
 DD1Dir will call FoFMem   1 times, MxPair=       156
 NAB=    50 NAA=    45 NBB=    10.
 A-vector RMS=  5.3238167D-06 Max=  5.3621498D-05 conv= 1.00D-05.
 RLE energy=       -0.5862427117
 DE(Corr)= -0.58624107     E(CORR)=     -86.907708657     Delta= 8.39D-06
 NORM(A)=   0.10989433D+01
 Iteration Nr.  12
 **********************
 DD1Dir will call FoFMem   1 times, MxPair=       156
 NAB=    50 NAA=    45 NBB=    10.
 A-vector RMS=  2.7762083D-06 Max=  3.5455490D-05 conv= 1.00D-05.
 RLE energy=       -0.5862450064
 DE(Corr)= -0.58624541     E(CORR)=     -86.907713006     Delta=-4.35D-06
 NORM(A)=   0.10989549D+01
 Iteration Nr.  13
 **********************
 DD1Dir will call FoFMem   1 times, MxPair=       156
 NAB=    50 NAA=    45 NBB=    10.
 A-vector RMS=  1.5973066D-06 Max=  2.2917746D-05 conv= 1.00D-05.
 RLE energy=       -0.5862468543
 DE(Corr)= -0.58624578     E(CORR)=     -86.907713373     Delta=-3.67D-07
 NORM(A)=   0.10989725D+01
 Iteration Nr.  14
 **********************
 DD1Dir will call FoFMem   1 times, MxPair=       156
 NAB=    50 NAA=    45 NBB=    10.
 A-vector RMS=  9.5898081D-07 Max=  2.0590558D-05 conv= 1.00D-05.
 RLE energy=       -0.5862477421
 DE(Corr)= -0.58624734     E(CORR)=     -86.907714934     Delta=-1.56D-06
 NORM(A)=   0.10989870D+01
 Iteration Nr.  15
 **********************
 DD1Dir will call FoFMem   1 times, MxPair=       156
 NAB=    50 NAA=    45 NBB=    10.
 A-vector RMS=  7.3395601D-07 Max=  1.7043887D-05 conv= 1.00D-05.
 RLE energy=       -0.5862494066
 DE(Corr)= -0.58624856     E(CORR)=     -86.907716150     Delta=-1.22D-06
 NORM(A)=   0.10990011D+01
 Iteration Nr.  16
 **********************
 DD1Dir will call FoFMem   1 times, MxPair=       156
 NAB=    50 NAA=    45 NBB=    10.
 A-vector RMS=  4.8764479D-07 Max=  1.1314273D-05 conv= 1.00D-05.
 RLE energy=       -0.5862499756
 DE(Corr)= -0.58624941     E(CORR)=     -86.907717002     Delta=-8.52D-07
 NORM(A)=   0.10990130D+01
 Iteration Nr.  17
 **********************
 DD1Dir will call FoFMem   1 times, MxPair=       156
 NAB=    50 NAA=    45 NBB=    10.
 A-vector RMS=  3.3613342D-07 Max=  5.9594307D-06 conv= 1.00D-05.
 RLE energy=       -0.5862507648
 DE(Corr)= -0.58625033     E(CORR)=     -86.907717921     Delta=-9.19D-07
 NORM(A)=   0.10990207D+01
 Iteration Nr.  18
 **********************
 DD1Dir will call FoFMem   1 times, MxPair=       156
 NAB=    50 NAA=    45 NBB=    10.
 A-vector RMS=  2.0261608D-07 Max=  2.5862296D-06 conv= 1.00D-05.
 RLE energy=       -0.5862509257
 DE(Corr)= -0.58625072     E(CORR)=     -86.907718315     Delta=-3.95D-07
 NORM(A)=   0.10990244D+01
 Iteration Nr.  19
 **********************
 DD1Dir will call FoFMem   1 times, MxPair=       156
 NAB=    50 NAA=    45 NBB=    10.
 A-vector RMS=  1.2836493D-07 Max=  1.4747360D-06 conv= 1.00D-05.
 RLE energy=       -0.5862510310
 DE(Corr)= -0.58625098     E(CORR)=     -86.907718569     Delta=-2.54D-07
 NORM(A)=   0.10990256D+01
 Iteration Nr.  20
 **********************
 DD1Dir will call FoFMem   1 times, MxPair=       156
 NAB=    50 NAA=    45 NBB=    10.
 A-vector RMS=  8.3511078D-08 Max=  1.0034677D-06 conv= 1.00D-05.
 RLE energy=       -0.5862510349
 DE(Corr)= -0.58625103     E(CORR)=     -86.907718618     Delta=-4.87D-08
 NORM(A)=   0.10990260D+01
 CI/CC converged in   20 iterations to DelEn=-4.87D-08 Conv= 1.00D-07 ErrA1= 8.35D-08 Conv= 1.00D-05
 Wavefunction amplitudes converged. E(Corr)=     -86.907718618    
 Dominant configurations:
 ***********************
 Spin Case        I    J    A    B          Value
    AA           10        22            0.150627D+00
    AA           10        29           -0.100325D+00
 Largest amplitude= 1.51D-01
 Time for triples=    17275.70 seconds.
 T4(CCSD)= -0.21538761D-01
 T5(CCSD)=  0.19352274D-02
 CCSD(T)= -0.86927322152D+02
 Discarding MO integrals.
 Leave Link  913 at Mon Feb 26 01:07:30 2018, MaxMem=  8589934592 cpu:           24190.7 elap:            1515.1
 (Enter /home1/apps/gaussian/16rA.03/g16/l601.exe)
 Copying SCF densities to generalized density rwf, IOpCl= 0 IROHF=1.

 **********************************************************************

            Population analysis using the SCF density.

 **********************************************************************

 Orbital symmetries:
       Occupied  (SG) (SG) (PI) (PI) (SG) (SG) (PI) (PI) (DLTA)
                 (DLTA)
       Virtual   (PI) (PI) (SG) (SG) (SG) (DLTA) (DLTA) (PI) (PI)
                 (PI) (PI) (SG) (SG) (SG) (PI) (PI) (DLTA) (DLTA)
                 (SG) (PI) (PI) (SG) (SG) (PI) (PI) (SG) (DLTA)
                 (DLTA) (PHI) (PHI) (SG) (PI) (PI) (SG) (DLTA)
                 (DLTA) (PI) (PI) (PI) (PI) (SG) (SG) (SG) (PI)
                 (PI) (DLTA) (DLTA) (SG) (SG) (PI) (PI) (?A) (?A)
                 (PHI) (PHI) (DLTA) (DLTA) (PHI) (PHI) (PI) (PI)
                 (SG) (DLTA) (DLTA) (PI) (PI) (SG) (DLTA) (DLTA)
                 (SG) (PI) (PI) (PI) (PI) (SG) (PHI) (PHI) (SG)
                 (DLTA) (DLTA) (PI) (PI) (SG) (SG) (DLTA) (DLTA)
                 (PI) (PI) (DLTA) (DLTA) (SG) (PI) (PI) (SG) (PI)
                 (PI) (PHI) (PHI) (DLTA) (DLTA) (SG) (PHI) (PHI)
                 (?A) (?A) (?B) (?B) (?A) (?A) (PI) (PI) (DLTA)
                 (DLTA) (PHI) (PHI) (SG) (PI) (PI) (SG) (PI) (PI)
                 (DLTA) (DLTA) (SG) (SG) (PI) (PI) (SG) (DLTA)
                 (DLTA) (PI) (PI) (SG) (PHI) (PHI) (SG) (DLTA)
                 (DLTA) (PI) (PI) (SG) (PHI) (PHI) (PI) (PI) (DLTA)
                 (DLTA) (DLTA) (DLTA) (SG) (PI) (PI) (SG) (PI)
                 (PI) (?A) (?A) (PHI) (PHI) (SG) (DLTA) (DLTA)
                 (PI) (PI) (PI) (PI) (?B) (?B) (?A) (?A) (SG) (PHI)
                 (PHI) (DLTA) (DLTA) (SG) (PI) (PI) (SG) (SG) (DLTA)
                 (DLTA) (PI) (PI) (SG) (PI) (PI) (SG) (PHI) (PHI)
                 (DLTA) (DLTA) (PI) (PI) (SG) (PHI) (PHI) (?A)
                 (?A) (DLTA) (DLTA) (PI) (PI) (SG) (DLTA) (DLTA)
                 (PI) (PI) (SG) (SG) (?A) (?A) (?B) (?B) (PHI)
                 (PHI) (DLTA) (DLTA) (PI) (PI) (SG) (SG) (PI) (PI)
                 (SG) (DLTA) (DLTA) (PI) (PI) (SG) (SG) (PI) (PI)
                 (SG) (DLTA) (DLTA) (PI) (PI) (SG) (SG) (PI) (PI)
                 (SG) (DLTA) (DLTA) (PI) (PI) (SG) (SG) (SG) (PI)
                 (PI) (SG) (SG) (DLTA) (DLTA) (PI) (PI) (SG) (PI)
                 (PI) (SG) (SG) (PI) (PI) (SG) (DLTA) (DLTA) (PI)
                 (PI) (SG) (SG) (PI) (PI) (SG) (SG) (PI) (PI) (SG)
                 (SG) (PI) (PI) (SG) (SG) (PI) (PI) (SG) (SG) (PI)
                 (PI) (SG) (SG) (SG) (SG) (SG) (SG)
 The electronic state is 6-SG.
 Alpha  occ. eigenvalues --   -3.79404  -2.51210  -2.51210  -2.48551  -0.46156
 Alpha  occ. eigenvalues --   -0.44470  -0.44470  -0.41873  -0.41873  -0.26124
 Alpha virt. eigenvalues --    0.01515   0.01515   0.01963   0.02171   0.04651
 Alpha virt. eigenvalues --    0.05282   0.05282   0.05463   0.05463   0.05640
 Alpha virt. eigenvalues --    0.05640   0.06398   0.09406   0.12774   0.17009
 Alpha virt. eigenvalues --    0.17009   0.17749   0.17749   0.17811   0.18590
 Alpha virt. eigenvalues --    0.18590   0.19435   0.28690   0.29377   0.29377
 Alpha virt. eigenvalues --    0.33611   0.38846   0.38846   0.40125   0.40125
 Alpha virt. eigenvalues --    0.43411   0.44619   0.44619   0.45994   0.49150
 Alpha virt. eigenvalues --    0.49150   0.55077   0.55077   0.57358   0.57358
 Alpha virt. eigenvalues --    0.59120   0.67781   0.75263   0.76323   0.76323
 Alpha virt. eigenvalues --    0.81177   0.81177   1.00454   1.12420   1.14696
 Alpha virt. eigenvalues --    1.14696   1.17015   1.17015   1.17333   1.17333
 Alpha virt. eigenvalues --    1.19168   1.19168   1.23378   1.23378   1.24825
 Alpha virt. eigenvalues --    1.24825   1.28370   1.28370   1.30108   1.35578
 Alpha virt. eigenvalues --    1.35578   1.43620   1.44185   1.44185   1.54238
 Alpha virt. eigenvalues --    1.63685   1.63685   1.77001   1.77001   1.79920
 Alpha virt. eigenvalues --    1.86589   1.86589   1.98280   2.09425   2.09425
 Alpha virt. eigenvalues --    2.16426   2.16426   2.37576   2.45919   2.89615
 Alpha virt. eigenvalues --    2.89615   2.90810   2.90810   3.08339   3.08339
 Alpha virt. eigenvalues --    3.11611   3.11930   3.11930   3.19822   3.34621
 Alpha virt. eigenvalues --    3.34621   3.35655   3.35655   3.36862   3.36862
 Alpha virt. eigenvalues --    3.44034   3.47308   3.47308   3.47363   3.47363
 Alpha virt. eigenvalues --    3.54547   3.54547   3.55126   3.55126   3.59018
 Alpha virt. eigenvalues --    3.59018   3.64044   3.64044   3.79676   3.79676
 Alpha virt. eigenvalues --    3.93100   4.13778   4.13778   4.25208   4.29999
 Alpha virt. eigenvalues --    4.29999   4.46991   4.46991   4.80165   5.03280
 Alpha virt. eigenvalues --    5.03280   5.03362   5.89091   6.66150   6.66150
 Alpha virt. eigenvalues --    6.68345   6.68345   6.74874   6.77396   6.77396
 Alpha virt. eigenvalues --    7.16634   7.31624   7.31624   7.56930   7.56930
 Alpha virt. eigenvalues --    7.93549   8.35212   8.35212   8.47774   8.47774
 Alpha virt. eigenvalues --    8.51269   8.51269   8.79740   8.79740   8.90149
 Alpha virt. eigenvalues --    8.96192   8.96192   8.98047   9.30555   9.30555
 Alpha virt. eigenvalues --    9.31673   9.31673   9.32066   9.32066   9.53314
 Alpha virt. eigenvalues --    9.53314   9.53336   9.69984   9.69984   9.89674
 Alpha virt. eigenvalues --    9.89674   9.98629   9.98629   9.98748   9.98748
 Alpha virt. eigenvalues --    9.99521  10.08346  10.08346  10.28190  10.28190
 Alpha virt. eigenvalues --   11.18896  11.24275  11.24275  12.34120  12.84446
 Alpha virt. eigenvalues --   12.96244  12.96244  13.08595  13.08595  14.07380
 Alpha virt. eigenvalues --   17.43060  17.43060  17.70879  21.04043  21.04043
 Alpha virt. eigenvalues --   21.08968  21.08968  21.70721  21.70721  22.28831
 Alpha virt. eigenvalues --   22.77251  22.77251  22.77876  22.77876  22.87946
 Alpha virt. eigenvalues --   22.87946  23.03212  23.03212  23.37206  23.54501
 Alpha virt. eigenvalues --   23.54501  23.64695  23.64695  24.03863  25.33983
 Alpha virt. eigenvalues --   26.14145  26.14145  26.14739  26.14739  26.17983
 Alpha virt. eigenvalues --   26.17983  26.23263  26.23263  26.40567  26.40567
 Alpha virt. eigenvalues --   26.56054  28.21389  32.27510  32.27510  32.52964
 Alpha virt. eigenvalues --   40.60068  40.60068  40.68414  40.68414  40.91384
 Alpha virt. eigenvalues --   47.62978  60.68818  60.68818  60.91083  73.49827
 Alpha virt. eigenvalues --   73.49827  73.57173  73.57173  73.77286  92.81536
 Alpha virt. eigenvalues --  115.59187 115.59187 115.79940 156.73293 156.73293
 Alpha virt. eigenvalues --  156.79509 156.79509 156.96711 158.55452 183.39467
 Alpha virt. eigenvalues --  221.66081 221.66081 221.85854 367.86397 392.88258
 Alpha virt. eigenvalues --  392.88258 392.93261 392.93261 393.07084 432.02099
 Alpha virt. eigenvalues --  432.02099 432.20836 750.29196 867.19069 867.19069
 Alpha virt. eigenvalues --  867.365471223.051951223.051951223.086451223.08645
 Alpha virt. eigenvalues -- 1223.180201561.124921818.896431818.896431819.05643
 Alpha virt. eigenvalues -- 3335.216504059.585974059.585974059.729287374.99674
 Alpha virt. eigenvalues -- 9915.854469915.854469915.97885********************
 Alpha virt. eigenvalues -- **************************************************
 Alpha virt. eigenvalues -- **************************************************
 Alpha virt. eigenvalues -- **********
     Molecular Orbital Coefficients:
                           1         2         3         4         5
                           O         O         O         O         O
     Eigenvalues --    -3.79404  -2.51210  -2.51210  -2.48551  -0.46156
   1 1   Cr 1S         -0.00000   0.00000   0.00000   0.00000  -0.00000
   2        2S          0.00000  -0.00000   0.00000   0.00000   0.00000
   3        3S         -0.00000   0.00000   0.00000   0.00000  -0.00000
   4        4S          0.00000  -0.00000   0.00000   0.00000   0.00000
   5        5S         -0.00001   0.00000   0.00000   0.00000  -0.00000
   6        6S          0.00003  -0.00000   0.00000   0.00000   0.00000
   7        7S         -0.00009   0.00000   0.00000   0.00000  -0.00002
   8        8S          0.00030  -0.00000   0.00000   0.00000   0.00006
   9        9S         -0.00091   0.00001   0.00000   0.00000  -0.00017
  10       10S          0.00256  -0.00002   0.00000   0.00000   0.00047
  11       11S         -0.00668   0.00005   0.00000   0.00000  -0.00124
  12       12S          0.01582  -0.00012   0.00000   0.00000   0.00298
  13       13S         -0.03214   0.00028   0.00000   0.00000  -0.00622
  14       14S          0.05222  -0.00093   0.00000   0.00000   0.01148
  15       15S          0.10370   0.00399   0.00000   0.00000   0.01257
  16       16S         -0.77061  -0.05901   0.00000   0.00000  -0.13685
  17       17S          0.94118  -0.01189   0.00000   0.00000   0.18609
  18       18S          1.55991  -0.01334   0.00000   0.00000   0.37655
  19       19S          0.13195   0.01697   0.00000   0.00000   0.08519
  20       20S         -0.09370  -0.01175   0.00000   0.00000  -0.17080
  21       21S         -0.00459   0.00352   0.00000   0.00000  -0.08381
  22       22S         -0.02000  -0.00230   0.00000   0.00000  -0.00816
  23       23S          0.01613   0.05975   0.00000   0.00000   0.00069
  24       24S         -1.15865   0.01682   0.00000   0.00000  -0.24327
  25       25S         -0.00207   0.00055   0.00000   0.00000   0.00503
  26       26PX         0.00000   0.00000   0.00000   0.00000   0.00000
  27       26PY         0.00000   0.00000   0.00000   0.00000   0.00000
  28       26PZ        -0.00000   0.00000   0.00000   0.00000  -0.00000
  29       27PX         0.00000   0.00000  -0.00000   0.00000   0.00000
  30       27PY         0.00000   0.00000   0.00000  -0.00000   0.00000
  31       27PZ         0.00000  -0.00000   0.00000   0.00000   0.00000
  32       28PX         0.00000   0.00000   0.00002   0.00000   0.00000
  33       28PY         0.00000   0.00000   0.00000   0.00002   0.00000
  34       28PZ        -0.00000   0.00002   0.00000   0.00000  -0.00000
  35       29PX         0.00000   0.00000  -0.00008   0.00000   0.00000
  36       29PY         0.00000   0.00000   0.00000  -0.00008   0.00000
  37       29PZ         0.00001  -0.00008   0.00000   0.00000   0.00002
  38       30PX         0.00000   0.00000   0.00029   0.00000   0.00000
  39       30PY         0.00000   0.00000   0.00000   0.00029   0.00000
  40       30PZ        -0.00002   0.00028   0.00000   0.00000  -0.00006
  41       31PX         0.00000   0.00000  -0.00094   0.00000   0.00000
  42       31PY         0.00000   0.00000   0.00000  -0.00094   0.00000
  43       31PZ         0.00008  -0.00092   0.00000   0.00000   0.00019
  44       32PX         0.00000   0.00000   0.00278   0.00000   0.00000
  45       32PY         0.00000   0.00000   0.00000   0.00278   0.00000
  46       32PZ        -0.00023   0.00272   0.00000   0.00000  -0.00056
  47       33PX         0.00000   0.00000  -0.00727   0.00000   0.00000
  48       33PY         0.00000   0.00000   0.00000  -0.00727   0.00000
  49       33PZ         0.00062  -0.00712   0.00000   0.00000   0.00148
  50       34PX         0.00000   0.00000   0.01524   0.00000   0.00000
  51       34PY         0.00000   0.00000   0.00000   0.01524   0.00000
  52       34PZ        -0.00154   0.01487   0.00000   0.00000  -0.00331
  53       35PX         0.00000   0.00000  -0.00112   0.00000   0.00000
  54       35PY         0.00000   0.00000   0.00000  -0.00112   0.00000
  55       35PZ         0.00359  -0.00030   0.00000   0.00000   0.00198
  56       36PX         0.00000   0.00000  -0.02213   0.00000   0.00000
  57       36PY         0.00000   0.00000   0.00000  -0.02213   0.00000
  58       36PZ         0.02972  -0.01211   0.00000   0.00000   0.00466
  59       37PX         0.00000   0.00000   0.33268   0.00000   0.00000
  60       37PY         0.00000   0.00000   0.00000   0.33268   0.00000
  61       37PZ         0.01895   0.33525   0.00000   0.00000  -0.06058
  62       38PX         0.00000   0.00000  -0.64148   0.00000   0.00000
  63       38PY         0.00000   0.00000   0.00000  -0.64148   0.00000
  64       38PZ        -0.40041  -0.72469   0.00000   0.00000   0.07721
  65       39PX         0.00000   0.00000   0.31606   0.00000   0.00000
  66       39PY         0.00000   0.00000   0.00000   0.31606   0.00000
  67       39PZ        -0.05864   0.30325   0.00000   0.00000  -0.07016
  68       40PX         0.00000   0.00000   0.17007   0.00000   0.00000
  69       40PY         0.00000   0.00000   0.00000   0.17007   0.00000
  70       40PZ         0.05098   0.16736   0.00000   0.00000  -0.02877
  71       41PX         0.00000   0.00000   0.00816   0.00000   0.00000
  72       41PY         0.00000   0.00000   0.00000   0.00816   0.00000
  73       41PZ         0.06097   0.01546   0.00000   0.00000   0.06617
  74       42PX         0.00000   0.00000   0.00350   0.00000   0.00000
  75       42PY         0.00000   0.00000   0.00000   0.00350   0.00000
  76       42PZ         0.00958   0.00432   0.00000   0.00000   0.04150
  77       43PX         0.00000   0.00000  -0.00119   0.00000   0.00000
  78       43PY         0.00000   0.00000   0.00000  -0.00119   0.00000
  79       43PZ         0.00543  -0.00025   0.00000   0.00000  -0.00419
  80       44PX         0.00000   0.00000  -0.14905   0.00000   0.00000
  81       44PY         0.00000   0.00000   0.00000  -0.14905   0.00000
  82       44PZ        -0.03653  -0.15999   0.00000   0.00000   0.02339
  83       45PX         0.00000   0.00000   1.03724   0.00000   0.00000
  84       45PY         0.00000   0.00000   0.00000   1.03724   0.00000
  85       45PZ         0.41722   1.12332   0.00000   0.00000  -0.16003
  86       46PX         0.00000   0.00000   0.00040   0.00000   0.00000
  87       46PY         0.00000   0.00000   0.00000   0.00040   0.00000
  88       46PZ         0.00175   0.00025   0.00000   0.00000  -0.00079
  89       47D 0        0.00000  -0.00000   0.00000   0.00000   0.00001
  90       47D+1        0.00000   0.00000   0.00000   0.00000   0.00000
  91       47D-1        0.00000   0.00000   0.00000   0.00000   0.00000
  92       47D+2       -0.00000  -0.00000   0.00000   0.00000  -0.00000
  93       47D-2        0.00000   0.00000   0.00000   0.00000   0.00000
  94       48D 0       -0.00001   0.00000   0.00000   0.00000  -0.00006
  95       48D+1        0.00000   0.00000  -0.00000   0.00000   0.00000
  96       48D-1        0.00000   0.00000   0.00000  -0.00000   0.00000
  97       48D+2        0.00000  -0.00000   0.00000   0.00000   0.00000
  98       48D-2        0.00000   0.00000   0.00000   0.00000   0.00000
  99       49D 0        0.00003  -0.00001   0.00000   0.00000   0.00027
 100       49D+1        0.00000   0.00000   0.00001   0.00000   0.00000
 101       49D-1        0.00000   0.00000   0.00000   0.00001   0.00000
 102       49D+2       -0.00000   0.00000   0.00000   0.00000  -0.00000
[...]
  94       48D 0        0.00000   0.00000   0.00000   0.00000
  95       48D+1        0.00000   0.00000   0.00000   0.00000
  96       48D-1        0.00000   0.00000   0.00000   0.00000
  97       48D+2        0.00000   0.00000  -0.00000   0.00000
  98       48D-2        0.00000   0.00000   0.00000   0.00000
  99       49D 0       -0.00002  -0.00002  -0.00001  -0.00001
 100       49D+1       -0.00008  -0.00008  -0.00000  -0.00008
 101       49D-1       -0.00008  -0.00008  -0.00000  -0.00008
 102       49D+2       -0.00008  -0.00008  -0.00000  -0.00008
 103       49D-2       -0.00008  -0.00008  -0.00000  -0.00008
 104       50D 0       -0.00036  -0.00026  -0.00010  -0.00016
 105       50D+1       -0.00105  -0.00105  -0.00000  -0.00105
 106       50D-1       -0.00105  -0.00105  -0.00000  -0.00105
 107       50D+2       -0.00102  -0.00102   0.00000  -0.00102
 108       50D-2       -0.00102  -0.00102   0.00000  -0.00102
 109       51D 0        0.02523   0.01801   0.00723   0.01078
 110       51D+1        0.07662   0.07662   0.00000   0.07662
 111       51D-1        0.07662   0.07662   0.00000   0.07662
 112       51D+2        0.07548   0.07548  -0.00000   0.07548
 113       51D-2        0.07548   0.07548  -0.00000   0.07548
 114       52D 0        0.08680   0.06195   0.02485   0.03710
 115       52D+1        0.24527   0.24527   0.00001   0.24526
 116       52D-1        0.24527   0.24527   0.00001   0.24526
 117       52D+2        0.24045   0.24045  -0.00000   0.24045
 118       52D-2        0.24045   0.24045  -0.00000   0.24045
 119       53D 0        0.11699   0.08178   0.03521   0.04657
 120       53D+1        0.29435   0.29435   0.00000   0.29435
 121       53D-1        0.29435   0.29435   0.00000   0.29435
 122       53D+2        0.29016   0.29016   0.00000   0.29016
 123       53D-2        0.29016   0.29016   0.00000   0.29016
 124       54D 0        0.14242   0.09592   0.04650   0.04942
 125       54D+1        0.27697   0.27697   0.00000   0.27697
 126       54D-1        0.27697   0.27697   0.00000   0.27697
 127       54D+2        0.27856   0.27856   0.00000   0.27856
 128       54D-2        0.27856   0.27856   0.00000   0.27856
 129       55D 0        0.14141   0.09465   0.04676   0.04789
 130       55D+1        0.17084   0.17084   0.00000   0.17084
 131       55D-1        0.17084   0.17084   0.00000   0.17084
 132       55D+2        0.17948   0.17948   0.00000   0.17948
 133       55D-2        0.17948   0.17948   0.00000   0.17948
 134       56D 0        0.06051   0.04053   0.01998   0.02055
 135       56D+1        0.04320   0.04320   0.00000   0.04320
 136       56D-1        0.04320   0.04320   0.00000   0.04320
 137       56D+2        0.04833   0.04833  -0.00000   0.04833
 138       56D-2        0.04833   0.04833  -0.00000   0.04833
 139       57D 0        0.00445   0.00340   0.00105   0.00236
 140       57D+1        0.00175   0.00175  -0.00000   0.00175
 141       57D-1        0.00175   0.00175  -0.00000   0.00175
 142       57D+2        0.00222   0.00222   0.00000   0.00222
 143       57D-2        0.00222   0.00222  -0.00000   0.00222
 144       58D 0       -0.02030  -0.01462  -0.00568  -0.00893
 145       58D+1       -0.05746  -0.05746  -0.00000  -0.05746
 146       58D-1       -0.05746  -0.05746  -0.00000  -0.05746
 147       58D+2       -0.05613  -0.05613  -0.00000  -0.05613
 148       58D-2       -0.05613  -0.05613  -0.00000  -0.05613
 149       59D 0       -0.02600  -0.01867  -0.00733  -0.01134
 150       59D+1       -0.05958  -0.05958  -0.00000  -0.05958
 151       59D-1       -0.05958  -0.05958  -0.00000  -0.05958
 152       59D+2       -0.05734  -0.05734  -0.00000  -0.05734
 153       59D-2       -0.05734  -0.05734  -0.00000  -0.05734
 154       60D 0       -0.00005   0.00001  -0.00006   0.00007
 155       60D+1       -0.00002  -0.00002   0.00000  -0.00002
 156       60D-1       -0.00002  -0.00002   0.00000  -0.00002
 157       60D+2       -0.00003  -0.00003   0.00000  -0.00003
 158       60D-2       -0.00003  -0.00003   0.00000  -0.00003
 159       61F 0        0.00001   0.00001   0.00001   0.00000
 160       61F+1        0.00000   0.00000   0.00000   0.00000
 161       61F-1        0.00000   0.00000   0.00000   0.00000
 162       61F+2       -0.00000  -0.00000   0.00000  -0.00000
 163       61F-2       -0.00000  -0.00000   0.00000  -0.00000
 164       61F+3        0.00000   0.00000   0.00000  -0.00000
 165       61F-3        0.00000   0.00000   0.00000  -0.00000
 166       62F 0        0.00011   0.00005   0.00005   0.00000
 167       62F+1        0.00001   0.00001   0.00001  -0.00000
 168       62F-1        0.00001   0.00001   0.00001  -0.00000
 169       62F+2       -0.00000  -0.00000   0.00000  -0.00000
 170       62F-2       -0.00000  -0.00000   0.00000  -0.00000
 171       62F+3        0.00000   0.00000   0.00000  -0.00000
 172       62F-3        0.00000   0.00000   0.00000   0.00000
 173       63F 0        0.00156   0.00077   0.00078  -0.00001
 174       63F+1        0.00001   0.00001   0.00001  -0.00000
 175       63F-1        0.00001   0.00001   0.00001  -0.00000
 176       63F+2        0.00001   0.00001   0.00000   0.00001
 177       63F-2        0.00001   0.00001  -0.00000   0.00001
 178       63F+3        0.00000   0.00000   0.00000   0.00000
 179       63F-3        0.00000   0.00000   0.00000   0.00000
 180       64F 0        0.00495   0.00240   0.00255  -0.00015
 181       64F+1       -0.00001  -0.00001   0.00000  -0.00001
 182       64F-1       -0.00001  -0.00001   0.00000  -0.00001
 183       64F+2        0.00010   0.00010   0.00000   0.00010
 184       64F-2        0.00010   0.00010   0.00000   0.00010
 185       64F+3        0.00000   0.00000  -0.00000   0.00000
 186       64F-3        0.00000   0.00000  -0.00000   0.00000
 187       65F 0        0.00138   0.00063   0.00075  -0.00011
 188       65F+1       -0.00000  -0.00000  -0.00000  -0.00000
 189       65F-1       -0.00000  -0.00000  -0.00000  -0.00000
 190       65F+2        0.00005   0.00005   0.00000   0.00005
 191       65F-2        0.00005   0.00005   0.00000   0.00005
 192       65F+3        0.00000   0.00000   0.00000   0.00000
 193       65F-3        0.00000   0.00000   0.00000   0.00000
 194       66G 0        0.00000   0.00000   0.00000  -0.00000
 195       66G+1        0.00000   0.00000   0.00000   0.00000
 196       66G-1        0.00000   0.00000   0.00000   0.00000
 197       66G+2        0.00000   0.00000   0.00000   0.00000
 198       66G-2        0.00000   0.00000   0.00000   0.00000
 199       66G+3        0.00000   0.00000   0.00000   0.00000
 200       66G-3        0.00000   0.00000   0.00000   0.00000
 201       66G+4        0.00000   0.00000   0.00000   0.00000
 202       66G-4        0.00000   0.00000   0.00000   0.00000
 203       67G 0        0.00004   0.00002   0.00002   0.00000
 204       67G+1        0.00000   0.00000  -0.00000   0.00000
 205       67G-1        0.00000   0.00000  -0.00000   0.00000
 206       67G+2        0.00000   0.00000   0.00000   0.00000
 207       67G-2        0.00000   0.00000  -0.00000   0.00000
 208       67G+3        0.00000   0.00000   0.00000   0.00000
 209       67G-3        0.00000   0.00000   0.00000   0.00000
 210       67G+4        0.00000   0.00000   0.00000   0.00000
 211       67G-4        0.00000   0.00000   0.00000   0.00000
 212       68G 0        0.00027   0.00014   0.00013   0.00002
 213       68G+1       -0.00000  -0.00000  -0.00000  -0.00000
 214       68G-1       -0.00000  -0.00000  -0.00000  -0.00000
 215       68G+2        0.00000   0.00000  -0.00000   0.00000
 216       68G-2        0.00000   0.00000  -0.00000   0.00000
 217       68G+3        0.00000   0.00000   0.00000   0.00000
 218       68G-3        0.00000   0.00000   0.00000   0.00000
 219       68G+4        0.00000   0.00000   0.00000   0.00000
 220       68G-4        0.00000   0.00000   0.00000   0.00000
 221       69G 0        0.00041   0.00021   0.00020   0.00001
 222       69G+1       -0.00001  -0.00001   0.00000  -0.00001
 223       69G-1       -0.00001  -0.00001   0.00000  -0.00001
 224       69G+2       -0.00000  -0.00000  -0.00000  -0.00000
 225       69G-2       -0.00000  -0.00000  -0.00000  -0.00000
 226       69G+3        0.00000   0.00000   0.00000   0.00000
 227       69G-3        0.00000   0.00000   0.00000   0.00000
 228       69G+4        0.00000   0.00000  -0.00000   0.00000
 229       69G-4        0.00000   0.00000  -0.00000   0.00000
 230       70H 0        0.00000   0.00000   0.00000   0.00000
 231       70H+1        0.00000   0.00000   0.00000   0.00000
 232       70H-1        0.00000   0.00000   0.00000   0.00000
 233       70H+2        0.00000   0.00000   0.00000   0.00000
 234       70H-2        0.00000   0.00000   0.00000   0.00000
 235       70H+3       -0.00000  -0.00000   0.00000  -0.00000
 236       70H-3        0.00000   0.00000   0.00000   0.00000
 237       70H+4        0.00000   0.00000   0.00000   0.00000
 238       70H-4        0.00000   0.00000   0.00000   0.00000
 239       70H+5       -0.00000   0.00000  -0.00000   0.00000
 240       70H-5        0.00000   0.00000   0.00000  -0.00000
 241       71H 0        0.00001   0.00001   0.00001   0.00000
 242       71H+1        0.00000   0.00000   0.00000   0.00000
 243       71H-1        0.00000   0.00000   0.00000   0.00000
 244       71H+2        0.00000   0.00000  -0.00000   0.00000
 245       71H-2        0.00000   0.00000  -0.00000   0.00000
 246       71H+3       -0.00000   0.00000  -0.00000   0.00000
 247       71H-3        0.00000   0.00000   0.00000   0.00000
 248       71H+4       -0.00000  -0.00000  -0.00000  -0.00000
 249       71H-4        0.00000   0.00000  -0.00000   0.00000
 250       71H+5        0.00000  -0.00000   0.00000  -0.00000
 251       71H-5        0.00000  -0.00000   0.00000  -0.00000
 252       72H 0       -0.00006  -0.00003  -0.00003  -0.00000
 253       72H+1        0.00000   0.00000   0.00000   0.00000
 254       72H-1        0.00000   0.00000   0.00000   0.00000
 255       72H+2       -0.00000  -0.00000  -0.00000  -0.00000
 256       72H-2       -0.00000  -0.00000  -0.00000  -0.00000
 257       72H+3        0.00000   0.00000  -0.00000   0.00000
 258       72H-3        0.00000   0.00000   0.00000   0.00000
 259       72H+4        0.00000   0.00000   0.00000   0.00000
 260       72H-4       -0.00000  -0.00000   0.00000  -0.00000
 261       72H+5        0.00000   0.00000   0.00000   0.00000
 262       72H-5       -0.00000  -0.00000   0.00000  -0.00000
 263 2   H  1S          0.00025   0.00013   0.00012   0.00001
 264        2S          0.00659   0.00339   0.00320   0.00018
 265        3S          0.06871   0.03534   0.03337   0.00197
 266        4S          0.34296   0.17565   0.16731   0.00834
 267        5S          0.63557   0.31846   0.31710   0.00136
 268        6S          0.29646   0.13746   0.15900  -0.02154
 269        7S          0.03505   0.02271   0.01235   0.01036
 270        8PX         0.00026   0.00025   0.00001   0.00025
 271        8PY         0.00026   0.00025   0.00001   0.00025
 272        8PZ         0.00071   0.00039   0.00033   0.00006
 273        9PX         0.00189   0.00183   0.00006   0.00177
 274        9PY         0.00189   0.00183   0.00006   0.00177
 275        9PZ         0.00684   0.00351   0.00333   0.00019
 276       10PX         0.00293   0.00298  -0.00005   0.00303
 277       10PY         0.00293   0.00298  -0.00005   0.00303
 278       10PZ         0.03707   0.01859   0.01848   0.00011
 279       11PX         0.00017   0.00029  -0.00012   0.00041
 280       11PY         0.00017   0.00029  -0.00012   0.00041
 281       11PZ         0.00741   0.00074   0.00667  -0.00593
 282       12D 0        0.00021   0.00012   0.00009   0.00002
 283       12D+1        0.00014   0.00013   0.00001   0.00011
 284       12D-1        0.00014   0.00013   0.00001   0.00011
 285       12D+2        0.00001   0.00001  -0.00000   0.00001
 286       12D-2        0.00001   0.00001  -0.00000   0.00001
 287       13D 0        0.00387   0.00198   0.00189   0.00009
 288       13D+1        0.00071   0.00069   0.00002   0.00067
 289       13D-1        0.00071   0.00069   0.00002   0.00067
 290       13D+2        0.00010   0.00010   0.00000   0.00010
 291       13D-2        0.00010   0.00010   0.00000   0.00010
 292       14D 0        0.00689   0.00342   0.00347  -0.00006
 293       14D+1       -0.00032  -0.00011  -0.00021   0.00011
 294       14D-1       -0.00032  -0.00011  -0.00021   0.00011
 295       14D+2       -0.00026  -0.00026  -0.00000  -0.00026
 296       14D-2       -0.00026  -0.00026  -0.00000  -0.00026
 297       15F 0        0.00000   0.00001  -0.00001   0.00001
 298       15F+1        0.00012   0.00010   0.00002   0.00008
 299       15F-1        0.00012   0.00010   0.00002   0.00008
 300       15F+2        0.00002   0.00002  -0.00000   0.00002
 301       15F-2        0.00002   0.00002  -0.00000   0.00002
 302       15F+3        0.00000   0.00000  -0.00000   0.00000
 303       15F-3       -0.00000  -0.00000  -0.00000  -0.00000
 304       16F 0        0.00043   0.00025   0.00018   0.00007
 305       16F+1       -0.00023  -0.00008  -0.00014   0.00006
 306       16F-1       -0.00023  -0.00008  -0.00014   0.00006
 307       16F+2       -0.00012  -0.00012   0.00000  -0.00012
 308       16F-2       -0.00012  -0.00012   0.00000  -0.00012
 309       16F+3        0.00000   0.00000  -0.00000   0.00000
 310       16F-3       -0.00000  -0.00000  -0.00000  -0.00000
          Condensed to atoms (all electrons):
               1          2
     1  Cr  13.193898   0.346248
     2  H    0.346248   1.113606
          Atomic-Atomic Spin Densities.
               1          2
     1  Cr   5.010141  -0.017848
     2  H   -0.017848   0.025555
 Mulliken charges and spin densities:
               1          2
     1  Cr   0.459854   4.992293
     2  H   -0.459854   0.007707
 Sum of Mulliken charges =  -0.00000   5.00000
 Mulliken charges and spin densities with hydrogens summed into heavy atoms:
               1          2
     1  Cr  -0.000000   5.000000
 Electronic spatial extent (au):  <R**2>=             46.0938
 Charge=             -0.0000 electrons
 Dipole moment (field-independent basis, Debye):
    X=              0.0000    Y=              0.0000    Z=              1.5780  Tot=              1.5780
 Quadrupole moment (field-independent basis, Debye-Ang):
   XX=            -17.0174   YY=            -17.0174   ZZ=            -20.3002
   XY=              0.0000   XZ=              0.0000   YZ=              0.0000
 Traceless Quadrupole moment (field-independent basis, Debye-Ang):
   XX=              1.0943   YY=              1.0943   ZZ=             -2.1886
   XY=              0.0000   XZ=              0.0000   YZ=              0.0000
 Octapole moment (field-independent basis, Debye-Ang**2):
  XXX=              0.0000  YYY=              0.0000  ZZZ=              4.1519  XYY=              0.0000
  XXY=              0.0000  XXZ=             -0.9112  XZZ=              0.0000  YZZ=              0.0000
  YYZ=             -0.9112  XYZ=              0.0000
 Hexadecapole moment (field-independent basis, Debye-Ang**3):
 XXXX=            -31.7225 YYYY=            -31.7225 ZZZZ=            -54.6783 XXXY=              0.0000
 XXXZ=              0.0000 YYYX=              0.0000 YYYZ=              0.0000 ZZZX=              0.0000
 ZZZY=              0.0000 XXYY=            -10.5742 XXZZ=            -14.0373 YYZZ=            -14.0373
 XXYZ=              0.0000 YYXZ=              0.0000 ZZXY=              0.0000
 N-N= 5.698831502215D+00 E-N=-2.016557822653D+02  KE= 4.164039636400D+01
 Symmetry A1   KE= 1.673890185575D+01
 Symmetry A2   KE= 4.148858220966D+00
 Symmetry B1   KE= 1.037631813859D+01
 Symmetry B2   KE= 1.037631814544D+01
 Symmetry A1   SP= 2.000000000000D+00
 Symmetry A2   SP= 1.000000000000D+00
 Symmetry B1   SP= 1.000000000000D+00
 Symmetry B2   SP= 1.000000000000D+00
 Orbital energies and kinetic energies (alpha):
                                 1                 2
   1         O                -3.794043          1.709752
   2         O                -2.512095          3.061500
   3         O                -2.512095          3.091346
   4         O                -2.485511          3.091346
   5         O                -0.461558          1.064344
   6         O                -0.444702          0.918852
   7         O                -0.444702          4.193626
   8         O                -0.418725          4.193626
   9         O                -0.418725          4.148858
  10         O                -0.261240          4.148858
  11         V                 0.015149          0.045075
  12         V                 0.015149          0.045075
  13         V                 0.019629          0.033478
  14         V                 0.021707          0.069887
  15         V                 0.046507          0.073602
 Total kinetic energy from orbitals= 5.924421589175D+01
                          Isotropic Fermi Contact Couplings
        Atom                 a.u.       MegaHertz       Gauss      10(-4) cm-1
     1  Cr(53)             0.00135      -0.06830      -0.02437      -0.02278
     2  H(1)               0.01458      13.03037       4.64956       4.34646
 --------------------------------------------------------
       Center         ----  Spin Dipole Couplings  ----
                      3XX-RR        3YY-RR        3ZZ-RR
 --------------------------------------------------------
     1   Atom        0.311467      0.311467     -0.622935
     2   Atom       -0.194237     -0.194237      0.388473
 --------------------------------------------------------
                        XY            XZ            YZ
 --------------------------------------------------------
     1   Atom        0.000000      0.000000      0.000000
     2   Atom        0.000000      0.000000      0.000000
 --------------------------------------------------------


 ---------------------------------------------------------------------------------
              Anisotropic Spin Dipole Couplings in Principal Axis System
 ---------------------------------------------------------------------------------

       Atom             a.u.   MegaHertz   Gauss  10(-4) cm-1        Axes

              Baa    -0.6229    18.825     6.717     6.279  0.0000  0.0000  1.0000
     1 Cr(53) Bbb     0.3115    -9.412    -3.359    -3.140 -0.0000  1.0000  0.0000
              Bcc     0.3115    -9.412    -3.359    -3.140  1.0000  0.0000  0.0000
 
              Baa    -0.1942  -103.635   -36.980   -34.569  1.0000  0.0000  0.0000
     2 H(1)   Bbb    -0.1942  -103.635   -36.980   -34.569 -0.0000  1.0000  0.0000
              Bcc     0.3885   207.271    73.959    69.138  0.0000  0.0000  1.0000
 

 ---------------------------------------------------------------------------------

 No NMR shielding tensors so no spin-rotation constants.
 Leave Link  601 at Mon Feb 26 01:07:36 2018, MaxMem=  8589934592 cpu:              86.3 elap:               5.6
 (Enter /home1/apps/gaussian/16rA.03/g16/l9999.exe)
 1\1\GINC-C422-131\SP\ROCCSD(T)-Full\Gen\Cr1H1(6)\AANNABE\26-Feb-2018\0
 \\#P ROCCSD(T)=(maxcyc=150, Full, SaveAmplitudes, ReadAmplitudes)/Gen 
 5d 7f SCF=(maxcycles=300) Integral(NoXCTest) MaxDisk=500GB Pop=Regular
  Pseudo=Read Guess=Read\\CrH\\0,6\Cr,0,0.,0.,0.\H,0,0.,0.,1.3\\Version
 =ES64L-G16RevA.03\State=6-SG\HF=-86.3214676\MP2=-86.8991735\PUHF=-86.3
 214676\PMP2-0=-86.8991735\CCSD=-86.9077186\CCSD(T)=-86.9273222\RMSD=8.
 091e-09\PG=C*V [C*(H1Cr1)]\\@


 IF YOU PERCEIVE THAT THERE ARE FOUR POSSIBLE WAYS IN
 WHICH A PROCEDURE CAN GO WRONG AND CIRCUMVENT THESE, 
 THEN A FIFTH WAY WILL DEVELOP.

                              -- MURPHY'S TWELFTH LAW
 Job cpu time:       0 days  9 hours 12 minutes 36.1 seconds.
 Elapsed time:       0 days  0 hours 34 minutes 45.9 seconds.
 File lengths (MBytes):  RWF=   7485 Int=      0 D2E=      0 Chk=     32 Scr=      1
 Normal termination of Gaussian 16 at Mon Feb 26 01:07:36 2018.
