 Entering Gaussian System, Link 0=g16
 Initial command:
 /home1/apps/gaussian/16rA.03/g16/l1.exe "/tmp/Gau-130209.inp" -scrdir="/tmp/"
 Entering Link 1 = /home1/apps/gaussian/16rA.03/g16/l1.exe PID=    130210.
  
 Copyright (c) 1988,1990,1992,1993,1995,1998,2003,2009,2016,
            Gaussian, Inc.  All Rights Reserved.
  
 This is part of the Gaussian(R) 16 program.  It is based on
 the Gaussian(R) 09 system (copyright 2009, Gaussian, Inc.),
 the Gaussian(R) 03 system (copyright 2003, Gaussian, Inc.),
 the Gaussian(R) 98 system (copyright 1998, Gaussian, Inc.),
 the Gaussian(R) 94 system (copyright 1995, Gaussian, Inc.),
 the Gaussian 92(TM) system (copyright 1992, Gaussian, Inc.),
 the Gaussian 90(TM) system (copyright 1990, Gaussian, Inc.),
 the Gaussian 88(TM) system (copyright 1988, Gaussian, Inc.),
 the Gaussian 86(TM) system (copyright 1986, Carnegie Mellon
 University), and the Gaussian 82(TM) system (copyright 1983,
 Carnegie Mellon University). Gaussian is a federally registered
 trademark of Gaussian, Inc.
  
 This software contains proprietary and confidential information,
 including trade secrets, belonging to Gaussian, Inc.
  
 This software is provided under written license and may be
 used, copied, transmitted, or stored only in accord with that
 written license.
  
 The following legend is applicable only to US Government
 contracts under FAR:
  
                    RESTRICTED RIGHTS LEGEND
  
 Use, reproduction and disclosure by the US Government is
 subject to restrictions as set forth in subparagraphs (a)
 and (c) of the Commercial Computer Software - Restricted
 Rights clause in FAR 52.227-19.
  
 Gaussian, Inc.
 340 Quinnipiac St., Bldg. 40, Wallingford CT 06492
  
  
 ---------------------------------------------------------------
 Warning -- This program may not be used in any manner that
 competes with the business of Gaussian, Inc. or will provide
 assistance to any competitor of Gaussian, Inc.  The licensee
 of this program is prohibited from giving any competitor of
 Gaussian, Inc. access to this program.  By using this program,
 the user acknowledges that Gaussian, Inc. is engaged in the
 business of creating and licensing software in the field of
 computational chemistry and represents and warrants to the
 licensee that it is not a competitor of Gaussian, Inc. and that
 it will not use this program in any manner prohibited above.
 ---------------------------------------------------------------
  

 Cite this work as:
 Gaussian 16, Revision A.03,
 M. J. Frisch, G. W. Trucks, H. B. Schlegel, G. E. Scuseria, 
 M. A. Robb, J. R. Cheeseman, G. Scalmani, V. Barone, 
 G. A. Petersson, H. Nakatsuji, X. Li, M. Caricato, A. V. Marenich, 
 J. Bloino, B. G. Janesko, R. Gomperts, B. Mennucci, H. P. Hratchian, 
 J. V. Ortiz, A. F. Izmaylov, J. L. Sonnenberg, D. Williams-Young, 
 F. Ding, F. Lipparini, F. Egidi, J. Goings, B. Peng, A. Petrone, 
 T. Henderson, D. Ranasinghe, V. G. Zakrzewski, J. Gao, N. Rega, 
 G. Zheng, W. Liang, M. Hada, M. Ehara, K. Toyota, R. Fukuda, 
 J. Hasegawa, M. Ishida, T. Nakajima, Y. Honda, O. Kitao, H. Nakai, 
 T. Vreven, K. Throssell, J. A. Montgomery, Jr., J. E. Peralta, 
 F. Ogliaro, M. J. Bearpark, J. J. Heyd, E. N. Brothers, K. N. Kudin, 
 V. N. Staroverov, T. A. Keith, R. Kobayashi, J. Normand, 
 K. Raghavachari, A. P. Rendell, J. C. Burant, S. S. Iyengar, 
 J. Tomasi, M. Cossi, J. M. Millam, M. Klene, C. Adamo, R. Cammi, 
 J. W. Ochterski, R. L. Martin, K. Morokuma, O. Farkas, 
 J. B. Foresman, and D. J. Fox, Gaussian, Inc., Wallingford CT, 2016.
 
 ******************************************
 Gaussian 16:  ES64L-G16RevA.03 25-Dec-2016
                14-Mar-2018 
 ******************************************
 %MEM=80GB
 %CPU=0-15
 SetSPE:  set environment variable "MP_BIND" = "yes"
 SetSPE:  set environment variable "MP_BLIST" = "0,1,2,3,4,5,6,7,8,9,10,11,12,13,14,15"
 Will use up to   16 processors via shared memory.
 %RWF=/scratch/04843/aannabe/gaussian/
 %Int=/scratch/04843/aannabe/gaussian/
 %D2E=/scratch/04843/aannabe/gaussian/
 %NoSave
 %CHK=MnO
 ----------------------------------------------------------------------
 #P ROCCSD(T)=(maxcyc=150, Full, SaveAmplitudes, ReadAmplitudes)/Gen 5d
  7f SCF=(maxcycles=300) Integral(NoXCTest) MaxDisk=500GB Pop=Regular P
 seudo=Read Guess=Read
 ----------------------------------------------------------------------
 1/38=1,172=1/1;
 2/12=2,17=6,18=5,40=1/2;
 3/5=7,8=11,11=2,16=1,17=8,25=1,30=1,47=8,116=101/1,2,3;
 4/5=1/1;
 5/5=2,7=300,38=6/2;
 8/5=-1,6=4,9=120000,10=90,24=1/1,4;
 9/5=7,6=150,14=2,77=1/13;
 6//1;
 99/5=1,9=1/99;
 Leave Link    1 at Wed Mar 14 07:34:44 2018, MaxMem= 10737418240 cpu:               3.6 elap:               0.2
 (Enter /home1/apps/gaussian/16rA.03/g16/l101.exe)
 ---
 MnO
 ---
 Symbolic Z-matrix:
 Charge =  0 Multiplicity = 6
 Mn                    0.        0.        0. 
 O                     0.        0.        1.9 
 
 ITRead=  0  0
 MicOpt= -1 -1
 NAtoms=      2 NQM=        2 NQMF=       0 NMMI=      0 NMMIF=      0
                NMic=       0 NMicF=      0.
                    Isotopes and Nuclear Properties:
 (Nuclear quadrupole moments (NQMom) in fm**2, nuclear magnetic moments (NMagM)
  in nuclear magnetons)

  Atom         1           2
 IAtWgt=          55          16
 AtmWgt=  54.9380463  15.9949146
 NucSpn=           5           0
 AtZEff=  -0.0000000  -0.0000000
 NQMom=   33.0000000   0.0000000
 NMagM=    3.4532000   0.0000000
 AtZNuc=  25.0000000   8.0000000
 Leave Link  101 at Wed Mar 14 07:34:44 2018, MaxMem= 10737418240 cpu:               1.5 elap:               0.1
 (Enter /home1/apps/gaussian/16rA.03/g16/l202.exe)
                          Input orientation:                          
 ---------------------------------------------------------------------
 Center     Atomic      Atomic             Coordinates (Angstroms)
 Number     Number       Type             X           Y           Z
 ---------------------------------------------------------------------
      1         25           0        0.000000    0.000000    0.000000
      2          8           0        0.000000    0.000000    1.900000
 ---------------------------------------------------------------------
 Stoichiometry    MnO(6)
 Framework group  C*V[C*(OMn)]
 Deg. of freedom     1
 Full point group                 C*V     NOp   4
 Largest Abelian subgroup         C2V     NOp   4
 Largest concise Abelian subgroup C1      NOp   1
                         Standard orientation:                         
 ---------------------------------------------------------------------
 Center     Atomic      Atomic             Coordinates (Angstroms)
 Number     Number       Type             X           Y           Z
 ---------------------------------------------------------------------
      1         25           0        0.000000    0.000000    0.460606
      2          8           0        0.000000    0.000000   -1.439394
 ---------------------------------------------------------------------
 Rotational constants (GHZ):           0.0000000          11.3006376          11.3006376
 Leave Link  202 at Wed Mar 14 07:34:44 2018, MaxMem= 10737418240 cpu:               0.3 elap:               0.1
 (Enter /home1/apps/gaussian/16rA.03/g16/l301.exe)
 General basis read from cards:  (5D, 7F)
 Centers:       1
 S 1 1.00
     Exponent=  1.2210500000D+07 Coefficients=  1.0000000000D+00
 S 1 1.00
     Exponent=  1.8281570000D+06 Coefficients=  1.0000000000D+00
 S 1 1.00
     Exponent=  4.1603030000D+05 Coefficients=  1.0000000000D+00
 S 1 1.00
     Exponent=  1.1784360000D+05 Coefficients=  1.0000000000D+00
 S 1 1.00
     Exponent=  3.8448140000D+04 Coefficients=  1.0000000000D+00
 S 1 1.00
     Exponent=  1.3881710000D+04 Coefficients=  1.0000000000D+00
 S 1 1.00
     Exponent=  5.4150020000D+03 Coefficients=  1.0000000000D+00
 S 1 1.00
     Exponent=  2.2464600000D+03 Coefficients=  1.0000000000D+00
 S 1 1.00
     Exponent=  9.8014630000D+02 Coefficients=  1.0000000000D+00
 S 1 1.00
     Exponent=  4.4589520000D+02 Coefficients=  1.0000000000D+00
 S 1 1.00
     Exponent=  2.1005580000D+02 Coefficients=  1.0000000000D+00
 S 1 1.00
     Exponent=  1.0180460000D+02 Coefficients=  1.0000000000D+00
 S 1 1.00
     Exponent=  5.0011260000D+01 Coefficients=  1.0000000000D+00
 S 1 1.00
     Exponent=  2.2939390000D+01 Coefficients=  1.0000000000D+00
 S 1 1.00
     Exponent=  1.1522640000D+01 Coefficients=  1.0000000000D+00
 S 1 1.00
     Exponent=  5.7763380000D+00 Coefficients=  1.0000000000D+00
 S 1 1.00
     Exponent=  2.6259590000D+00 Coefficients=  1.0000000000D+00
 S 1 1.00
     Exponent=  1.2603220000D+00 Coefficients=  1.0000000000D+00
 S 1 1.00
     Exponent=  5.7713000000D-01 Coefficients=  1.0000000000D+00
 S 1 1.00
     Exponent=  1.3658200000D-01 Coefficients=  1.0000000000D+00
 S 1 1.00
     Exponent=  6.3535000000D-02 Coefficients=  1.0000000000D+00
 S 1 1.00
     Exponent=  2.8521000000D-02 Coefficients=  1.0000000000D+00
 S 1 1.00
     Exponent=  5.3389000000D+00 Coefficients=  1.0000000000D+00
 S 1 1.00
     Exponent=  1.6013000000D+00 Coefficients=  1.0000000000D+00
 S 1 1.00
     Exponent=  1.2800000000D-02 Coefficients=  1.0000000000D+00
 P 1 1.00
     Exponent=  3.5005120000D+04 Coefficients=  1.0000000000D+00
 P 1 1.00
     Exponent=  8.2794620000D+03 Coefficients=  1.0000000000D+00
 P 1 1.00
     Exponent=  2.6884650000D+03 Coefficients=  1.0000000000D+00
 P 1 1.00
     Exponent=  1.0294900000D+03 Coefficients=  1.0000000000D+00
 P 1 1.00
     Exponent=  4.3807080000D+02 Coefficients=  1.0000000000D+00
 P 1 1.00
     Exponent=  2.0061530000D+02 Coefficients=  1.0000000000D+00
 P 1 1.00
     Exponent=  9.7007690000D+01 Coefficients=  1.0000000000D+00
 P 1 1.00
     Exponent=  4.8870520000D+01 Coefficients=  1.0000000000D+00
 P 1 1.00
     Exponent=  2.5292810000D+01 Coefficients=  1.0000000000D+00
 P 1 1.00
     Exponent=  1.3353820000D+01 Coefficients=  1.0000000000D+00
 P 1 1.00
     Exponent=  7.1317860000D+00 Coefficients=  1.0000000000D+00
 P 1 1.00
     Exponent=  3.7643650000D+00 Coefficients=  1.0000000000D+00
 P 1 1.00
     Exponent=  1.9462650000D+00 Coefficients=  1.0000000000D+00
 P 1 1.00
     Exponent=  9.8545500000D-01 Coefficients=  1.0000000000D+00
 P 1 1.00
     Exponent=  4.8186500000D-01 Coefficients=  1.0000000000D+00
 P 1 1.00
     Exponent=  1.8822219000D-01 Coefficients=  1.0000000000D+00
 P 1 1.00
     Exponent=  7.7539570000D-02 Coefficients=  1.0000000000D+00
 P 1 1.00
     Exponent=  3.1549450000D-02 Coefficients=  1.0000000000D+00
 P 1 1.00
     Exponent=  7.3423000000D+00 Coefficients=  1.0000000000D+00
 P 1 1.00
     Exponent=  1.9340000000D+00 Coefficients=  1.0000000000D+00
 P 1 1.00
     Exponent=  1.2840000000D-02 Coefficients=  1.0000000000D+00
 D 1 1.00
     Exponent=  3.1310900000D+02 Coefficients=  1.0000000000D+00
 D 1 1.00
     Exponent=  9.2527600000D+01 Coefficients=  1.0000000000D+00
 D 1 1.00
     Exponent=  3.5419100000D+01 Coefficients=  1.0000000000D+00
 D 1 1.00
     Exponent=  1.5157700000D+01 Coefficients=  1.0000000000D+00
 D 1 1.00
     Exponent=  6.9096400000D+00 Coefficients=  1.0000000000D+00
 D 1 1.00
     Exponent=  3.2725600000D+00 Coefficients=  1.0000000000D+00
 D 1 1.00
     Exponent=  1.5493600000D+00 Coefficients=  1.0000000000D+00
 D 1 1.00
     Exponent=  7.1709400000D-01 Coefficients=  1.0000000000D+00
 D 1 1.00
     Exponent=  3.1931000000D-01 Coefficients=  1.0000000000D+00
 D 1 1.00
     Exponent=  1.3415700000D-01 Coefficients=  1.0000000000D+00
 D 1 1.00
     Exponent=  5.1400000000D-02 Coefficients=  1.0000000000D+00
 D 1 1.00
     Exponent=  4.6851000000D+00 Coefficients=  1.0000000000D+00
 D 1 1.00
     Exponent=  2.4217000000D+00 Coefficients=  1.0000000000D+00
 D 1 1.00
     Exponent=  1.9690000000D-02 Coefficients=  1.0000000000D+00
 F 1 1.00
     Exponent=  6.6540000000D+00 Coefficients=  1.0000000000D+00
 F 1 1.00
     Exponent=  2.7676000000D+00 Coefficients=  1.0000000000D+00
 F 1 1.00
     Exponent=  1.1511000000D+00 Coefficients=  1.0000000000D+00
 F 1 1.00
     Exponent=  3.8120000000D-01 Coefficients=  1.0000000000D+00
 F 1 1.00
     Exponent=  1.2624000000D-01 Coefficients=  1.0000000000D+00
 G 1 1.00
     Exponent=  5.4683000000D+00 Coefficients=  1.0000000000D+00
 G 1 1.00
     Exponent=  2.3327000000D+00 Coefficients=  1.0000000000D+00
 G 1 1.00
     Exponent=  8.5200000000D-01 Coefficients=  1.0000000000D+00
 G 1 1.00
     Exponent=  3.1119000000D-01 Coefficients=  1.0000000000D+00
 H 1 1.00
     Exponent=  5.1185000000D+00 Coefficients=  1.0000000000D+00
 H 1 1.00
     Exponent=  1.9660000000D+00 Coefficients=  1.0000000000D+00
 H 1 1.00
     Exponent=  7.5513000000D-01 Coefficients=  1.0000000000D+00
 ****
 Centers:       2
 S 1 1.00
     Exponent=  6.1420000000D+04 Coefficients=  1.0000000000D+00
 S 1 1.00
     Exponent=  9.1990000000D+03 Coefficients=  1.0000000000D+00
 S 1 1.00
     Exponent=  2.0910000000D+03 Coefficients=  1.0000000000D+00
 S 1 1.00
     Exponent=  5.9090000000D+02 Coefficients=  1.0000000000D+00
 S 1 1.00
     Exponent=  1.9230000000D+02 Coefficients=  1.0000000000D+00
 S 1 1.00
     Exponent=  6.9320000000D+01 Coefficients=  1.0000000000D+00
 S 1 1.00
     Exponent=  2.6970000000D+01 Coefficients=  1.0000000000D+00
 S 1 1.00
     Exponent=  1.1100000000D+01 Coefficients=  1.0000000000D+00
 S 1 1.00
     Exponent=  4.6820000000D+00 Coefficients=  1.0000000000D+00
 S 1 1.00
     Exponent=  1.4280000000D+00 Coefficients=  1.0000000000D+00
 S 1 1.00
     Exponent=  5.5470000000D-01 Coefficients=  1.0000000000D+00
 S 1 1.00
     Exponent=  2.0670000000D-01 Coefficients=  1.0000000000D+00
 S 1 1.00
     Exponent=  1.2974000000D+01 Coefficients=  1.0000000000D+00
 S 1 1.00
     Exponent=  3.4900000000D+01 Coefficients=  1.0000000000D+00
 S 1 1.00
     Exponent=  9.3881000000D+01 Coefficients=  1.0000000000D+00
 S 1 1.00
     Exponent=  6.9590000000D-02 Coefficients=  1.0000000000D+00
 P 1 1.00
     Exponent=  6.3420000000D+01 Coefficients=  1.0000000000D+00
 P 1 1.00
     Exponent=  1.4660000000D+01 Coefficients=  1.0000000000D+00
 P 1 1.00
     Exponent=  4.4590000000D+00 Coefficients=  1.0000000000D+00
 P 1 1.00
     Exponent=  1.5310000000D+00 Coefficients=  1.0000000000D+00
 P 1 1.00
     Exponent=  5.3020000000D-01 Coefficients=  1.0000000000D+00
 P 1 1.00
     Exponent=  1.7500000000D-01 Coefficients=  1.0000000000D+00
 P 1 1.00
     Exponent=  1.4475000000D+01 Coefficients=  1.0000000000D+00
 P 1 1.00
     Exponent=  4.2730000000D+01 Coefficients=  1.0000000000D+00
 P 1 1.00
     Exponent=  1.2614000000D+02 Coefficients=  1.0000000000D+00
 P 1 1.00
     Exponent=  5.3480000000D-02 Coefficients=  1.0000000000D+00
 D 1 1.00
     Exponent=  3.7750000000D+00 Coefficients=  1.0000000000D+00
 D 1 1.00
     Exponent=  1.3000000000D+00 Coefficients=  1.0000000000D+00
 D 1 1.00
     Exponent=  4.4400000000D-01 Coefficients=  1.0000000000D+00
 D 1 1.00
     Exponent=  1.4927000000D+01 Coefficients=  1.0000000000D+00
 D 1 1.00
     Exponent=  5.7544000000D+01 Coefficients=  1.0000000000D+00
 D 1 1.00
     Exponent=  1.5400000000D-01 Coefficients=  1.0000000000D+00
 F 1 1.00
     Exponent=  2.6660000000D+00 Coefficients=  1.0000000000D+00
 F 1 1.00
     Exponent=  8.5900000000D-01 Coefficients=  1.0000000000D+00
 F 1 1.00
     Exponent=  2.6483000000D+01 Coefficients=  1.0000000000D+00
 F 1 1.00
     Exponent=  3.2400000000D-01 Coefficients=  1.0000000000D+00
 G 1 1.00
     Exponent=  1.8460000000D+00 Coefficients=  1.0000000000D+00
 G 1 1.00
     Exponent=  7.1400000000D-01 Coefficients=  1.0000000000D+00
 ****
 ======================================================================================================
                                       Pseudopotential Parameters
 ======================================================================================================
  Center     Atomic      Valence      Angular      Power
  Number     Number     Electrons     Momentum     of R      Exponent        Coefficient   SO-Coeffient
 ======================================================================================================
    1         25           15
                                      F and up 
                                                     1       18.4343224       15.00000000    0.00000000
                                                     2       12.7417521    31301.56494509    0.00000000
                                                     2       11.6741091    -4576.35463180    0.00000000
                                                     2       12.9037616    **************    0.00000000
                                                     2        4.9717187       -4.09339906    0.00000000
                                                     3        8.7926482      276.51483655    0.00000000
                                      S - F
                                                     2       13.5618787     2771.78238977    0.00000000
                                                     2        9.4481253    12553.69429672    0.00000000
                                                     2       10.7650385     1886.79316638    0.00000000
                                                     2       11.6534559    -9260.55332402    0.00000000
                                                     2        8.4807300    -8943.95003535    0.00000000
                                                     2        6.9670703     1041.73211249    0.00000000
                                      P - F
                                                     2       12.7134292    **************    0.00000000
                                                     2       18.0317451    **************    0.00000000
                                                     2       16.6827906    **************    0.00000000
                                                     2       13.1886712    16025.79106608    0.00000000
                                                     2       18.4286113    **************    0.00000000
                                                     2       12.9092897    14270.47832347    0.00000000
                                      D - F
                                                     2        8.1338423     -382.83904013    0.00000000
                                                     2       14.2869922     5676.99013005    0.00000000
                                                     2       11.1440663    35338.03440844    0.00000000
                                                     2       11.3767498    **************    0.00000000
                                                     2       18.2581823     3550.66026420    0.00000000
                                                     2       17.7314631    -5317.47975296    0.00000000
    2          8            6
                                      D and up 
                                                     1       10.2771775        6.00000000    0.00000000
                                                     2       15.9956675     1232.50197768    0.00000000
                                                     2       10.4690178     -696.47008301    0.00000000
                                                     2       14.6384801    -2654.22657081    0.00000000
                                                     2       12.5759118     2101.67732548    0.00000000
                                                     3        7.7773910       61.66306486    0.00000000
                                      S - D
                                                     2       12.3942607    **************    0.00000000
                                                     2       12.3812617    **************    0.00000000
                                                     2        8.5767103      511.50098405    0.00000000
                                                     2        9.8925651    -2579.54665641    0.00000000
                                                     2       28.0564160      -57.68129584    0.00000000
                                                     2       17.2475361      970.30940152    0.00000000
                                      P - D
                                                     2       14.7891891    **************    0.00000000
                                                     2       14.8201402    **************    0.00000000
                                                     2       22.8962222    -1300.20069256    0.00000000
                                                     2        8.5133189     -181.96869573    0.00000000
                                                     2       11.4860976     2194.87589959    0.00000000
                                                     2       27.2201752      451.19906206    0.00000000
 ======================================================================================================
 Ernie: Thresh=  0.10000D-02 Tol=  0.10000D-05 Strict=F.
 There are   213 symmetry adapted cartesian basis functions of A1  symmetry.
 There are    56 symmetry adapted cartesian basis functions of A2  symmetry.
 There are   114 symmetry adapted cartesian basis functions of B1  symmetry.
 There are   114 symmetry adapted cartesian basis functions of B2  symmetry.
 There are   157 symmetry adapted basis functions of A1  symmetry.
 There are    47 symmetry adapted basis functions of A2  symmetry.
 There are    90 symmetry adapted basis functions of B1  symmetry.
 There are    90 symmetry adapted basis functions of B2  symmetry.
   384 basis functions,   497 primitive gaussians,   497 cartesian basis functions
    13 alpha electrons        8 beta electrons
       nuclear repulsion energy        25.0662889383 Hartrees.
 IExCor=    0 DFT=F Ex=HF Corr=None ExCW=0 ScaHFX=  1.000000
 ScaDFX=  1.000000  1.000000  1.000000  1.000000 ScalE2=  1.000000  1.000000
 IRadAn=      5 IRanWt=     -1 IRanGd=            0 ICorTp=0 IEmpDi=  4
 NAtoms=    2 NActive=    2 NUniq=    2 SFac= 1.00D+00 NAtFMM=   60 NAOKFM=F Big=F
 Integral buffers will be    131072 words long.
 Raffenetti 2 integral format.
 Two-electron integral symmetry is turned on.
 Leave Link  301 at Wed Mar 14 07:34:45 2018, MaxMem= 10737418240 cpu:               5.4 elap:               0.4
 (Enter /home1/apps/gaussian/16rA.03/g16/l302.exe)
 NPDir=0 NMtPBC=     1 NCelOv=     1 NCel=       1 NClECP=     1 NCelD=      1
         NCelK=      1 NCelE2=     1 NClLst=     1 CellRange=     0.0.
 One-electron integrals computed using PRISM.
 One-electron integral symmetry used in STVInt
   4 Symmetry operations used in ECPInt.
 ECPInt:  NShTT=    6105 NPrTT=    6105 LenC2=    5487 LenP2D=    5486.
 LDataN:  DoStor=T MaxTD1=10 Len=  848
 NBasis=   384 RedAO= T EigKep=  2.18D-06  NBF=   157    47    90    90
 NBsUse=   377 1.00D-06 EigRej=  3.99D-07 NBFU=   154    47    88    88
 Leave Link  302 at Wed Mar 14 07:34:48 2018, MaxMem= 10737418240 cpu:              55.8 elap:               3.5
 (Enter /home1/apps/gaussian/16rA.03/g16/l303.exe)
 DipDrv:  MaxL=1.
 Leave Link  303 at Wed Mar 14 07:34:48 2018, MaxMem= 10737418240 cpu:               1.9 elap:               0.2
 (Enter /home1/apps/gaussian/16rA.03/g16/l401.exe)
 Initial guess from the checkpoint file:  "MnO.chk"
 B after Tr=     0.000000    0.000000    0.000000
         Rot=    1.000000    0.000000    0.000000    0.000000 Ang=   0.00 deg.
 Guess basis will be translated and rotated to current coordinates.
 JPrj=2 DoOrth=T DoCkMO=T.
 Initial guess orbital symmetries:
       Occupied  (SG) (PI) (PI) (SG) (SG) (PI) (PI) (SG) (DLTA)
                 (DLTA) (SG) (PI) (PI)
       Virtual   (SG) (PI) (PI) (SG) (SG) (PI) (PI) (DLTA) (DLTA)
                 (SG) (PI) (PI) (SG) (SG) (PI) (PI) (SG) (SG) (DLTA)
                 (DLTA) (PI) (PI) (PI) (PI) (SG) (SG) (SG) (DLTA)
                 (DLTA) (PHI) (PHI) (PI) (PI) (SG) (SG) (PI) (PI)
                 (PI) (PI) (DLTA) (DLTA) (DLTA) (DLTA) (SG) (PI)
                 (PI) (SG) (PI) (PI) (SG) (SG) (SG) (PI) (PI) (DLTA)
                 (DLTA) (PHI) (PHI) (SG) (PHI) (PHI) (DLTA) (DLTA)
                 (DLTA) (DLTA) (PI) (PI) (SG) (PI) (PI) (PI) (PI)
                 (?A) (?A) (SG) (PHI) (PHI) (DLTA) (DLTA) (SG)
                 (PI) (PI) (DLTA) (DLTA) (SG) (PI) (PI) (SG) (PI)
                 (PI) (SG) (SG) (SG) (PHI) (PHI) (DLTA) (DLTA)
                 (PI) (PI) (SG) (PHI) (PHI) (DLTA) (DLTA) (PI)
                 (PI) (DLTA) (DLTA) (SG) (PI) (PI) (DLTA) (DLTA)
                 (SG) (PI) (PI) (PI) (PI) (SG) (?A) (?A) (PHI)
                 (PHI) (DLTA) (DLTA) (SG) (PI) (PI) (SG) (SG) (DLTA)
                 (DLTA) (PI) (PI) (SG) (PI) (PI) (SG) (SG) (PI)
                 (PI) (PHI) (PHI) (DLTA) (DLTA) (PI) (PI) (SG)
                 (SG) (?A) (?A) (PHI) (PHI) (DLTA) (DLTA) (PI)
                 (PI) (SG) (SG) (DLTA) (DLTA) (PI) (PI) (SG) (SG)
                 (PI) (PI) (SG) (SG) (PI) (PI) (SG) (DLTA) (DLTA)
                 (PI) (PI) (SG) (DLTA) (DLTA) (PI) (PI) (SG) (PI)
                 (PI) (SG) (SG) (SG) (PI) (PI) (SG) (DLTA) (DLTA)
                 (PI) (PI) (SG) (PI) (PI) (SG) (SG) (SG) (PI) (PI)
                 (SG) (SG) (SG) (PI) (PI) (SG) (DLTA) (DLTA) (PI)
                 (PI) (SG) (PI) (PI) (SG) (SG) (SG) (PI) (PI) (SG)
                 (SG) (SG) (PI) (PI) (SG) (SG) (PI) (PI) (SG) (SG)
                 (SG) (PI) (PI) (SG) (SG) (SG) (SG) (PI) (PI) (SG)
                 (SG) (SG) (SG) (SG) (SG) (SG) (DLTA) (SG) (SG)
                 (SG) (SG) (DLTA) (SG) (SG) (SG) (DLTA) (SG) (DLTA)
                 (SG) (DLTA) (SG) (?A) (SG) (SG) (DLTA) (SG) (DLTA)
                 (SG) (?A) (DLTA) (SG) (DLTA) (?A) (SG) (DLTA)
                 (SG) (DLTA) (DLTA) (SG) (DLTA) (DLTA) (SG) (?A)
                 (?A) (?A) (DLTA) (DLTA) (DLTA) (DLTA) (DLTA) (?A)
                 (DLTA) (DLTA) (?A) (DLTA) (DLTA) (?A) (DLTA) (DLTA)
                 (DLTA) (DLTA) (DLTA) (?A) (?A) (?A) (PI) (PI)
                 (PI) (PI) (PI) (PI) (PHI) (PI) (PI) (PHI) (PI)
                 (PI) (PHI) (PI) (PI) (PHI) (?B) (PI) (PHI) (PI)
                 (PHI) (PI) (PI) (PI) (PHI) (PHI) (?B) (PHI) (?B)
                 (PI) (PI) (PI) (PI) (PI) (PI) (PHI) (PI) (PI)
                 (PHI) (PI) (PI) (PHI) (PI) (PI) (PHI) (?B) (PI)
                 (PHI) (PI) (PHI) (PI) (PI) (PI) (PHI) (PHI) (?B)
                 (PHI) (?B)
 The electronic state of the initial guess is 6-SG.
 Leave Link  401 at Wed Mar 14 07:34:49 2018, MaxMem= 10737418240 cpu:              12.3 elap:               0.9
 (Enter /home1/apps/gaussian/16rA.03/g16/l502.exe)
 Keep R1 and R2 ints in memory in symmetry-blocked form, NReq=3425113631.
 FoFCou: FMM=F IPFlag=           8 FMFlag=           0 FMFlg1=           0
         NFxFlg=           0 DoJE=F BraDBF=F KetDBF=F FulRan=T
         wScrn=  0.000000 ICntrl=       600 IOpCl=  0 I1Cent=           0 NGrid=           0
         NMat0=    1 NMatS0=  73920 NMatT0=    0 NMatD0=    1 NMtDS0=    0 NMtDT0=    0
 Petite list used in FoFCou.
 Restricted open shell SCF:
 Using DIIS extrapolation, IDIIS=  1040.
 NGot= 10737418240 LenX=  9351093905 LenY=  9350846399
 Requested convergence on RMS density matrix=1.00D-08 within 300 cycles.
 Requested convergence on MAX density matrix=1.00D-06.
 Requested convergence on             energy=1.00D-06.
 No special actions if energy rises.

 Cycle   1  Pass 1  IDiag  1:
 E= -119.111432591848    
 DIIS: error= 8.53D+00 at cycle   1 NSaved=   1.
 NSaved= 1 IEnMin= 1 EnMin= -119.111432591848     IErMin= 1 ErrMin= 8.53D+00
 ErrMax= 8.53D+00  0.00D+00 EMaxC= 1.00D-01 BMatC= 9.86D+03 BMatP= 9.86D+03
 IDIUse=3 WtCom= 0.00D+00 WtEn= 1.00D+00
 Coeff-Com:  0.100D+01
 Coeff-En:   0.100D+01
 Coeff:      0.100D+01
 Gap=     0.055 Goal=   None    Shift=    0.000
 GapD=    0.055 DampG=0.500 DampE=0.125 DampFc=0.1250 IDamp=-1.
 Damping current iteration by 1.25D-01
 RMSDP=1.36D-02 MaxDP=1.83D+00              OVMax= 4.49D-03

 Cycle   2  Pass 1  IDiag  1:
 E= -119.113336086744     Delta-E=       -0.001903494896 Rises=F Damp=T
 DIIS: error= 7.46D+00 at cycle   2 NSaved=   2.
 NSaved= 2 IEnMin= 2 EnMin= -119.113336086744     IErMin= 2 ErrMin= 7.46D+00
 ErrMax= 7.46D+00  0.00D+00 EMaxC= 1.00D-01 BMatC= 7.55D+03 BMatP= 9.86D+03
 IDIUse=3 WtCom= 0.00D+00 WtEn= 1.00D+00
 Coeff-Com: -0.700D+01 0.800D+01
 Coeff-En:   0.000D+00 0.100D+01
 Coeff:      0.000D+00 0.100D+01
 Gap=     0.054 Goal=   None    Shift=    0.000
 RMSDP=1.18D-02 MaxDP=1.60D+00 DE=-1.90D-03 OVMax= 4.13D-03

 Cycle   3  Pass 1  IDiag  1:
 E= -119.126697776966     Delta-E=       -0.013361690222 Rises=F Damp=F
 DIIS: error= 7.61D-04 at cycle   3 NSaved=   3.
 NSaved= 3 IEnMin= 3 EnMin= -119.126697776966     IErMin= 3 ErrMin= 7.61D-04
 ErrMax= 7.61D-04  0.00D+00 EMaxC= 1.00D-01 BMatC= 3.17D-05 BMatP= 7.55D+03
 IDIUse=3 WtCom= 9.92D-01 WtEn= 7.61D-03
 Coeff-Com: -0.110D+01 0.125D+01 0.843D+00
 Coeff-En:   0.000D+00 0.000D+00 0.100D+01
 Coeff:     -0.109D+01 0.125D+01 0.844D+00
 Gap=     0.054 Goal=   None    Shift=    0.000
 RMSDP=2.32D-04 MaxDP=3.21D-02 DE=-1.34D-02 OVMax= 7.32D-03

 Cycle   4  Pass 1  IDiag  1:
 E= -119.126697902433     Delta-E=       -0.000000125467 Rises=F Damp=F
 DIIS: error= 3.51D-04 at cycle   4 NSaved=   4.
 NSaved= 4 IEnMin= 4 EnMin= -119.126697902433     IErMin= 4 ErrMin= 3.51D-04
 ErrMax= 3.51D-04  0.00D+00 EMaxC= 1.00D-01 BMatC= 1.67D-05 BMatP= 3.17D-05
 IDIUse=3 WtCom= 9.96D-01 WtEn= 3.51D-03
 Coeff-Com: -0.793D+00 0.906D+00 0.333D+00 0.554D+00
 Coeff-En:   0.000D+00 0.000D+00 0.499D+00 0.501D+00
 Coeff:     -0.790D+00 0.903D+00 0.334D+00 0.554D+00
 Gap=     0.054 Goal=   None    Shift=    0.000
 RMSDP=6.73D-05 MaxDP=7.14D-03 DE=-1.25D-07 OVMax= 1.66D-02

 Cycle   5  Pass 1  IDiag  1:
 E= -119.126643852696     Delta-E=        0.000054049737 Rises=F Damp=F
 DIIS: error= 6.85D-04 at cycle   5 NSaved=   5.
 NSaved= 5 IEnMin= 4 EnMin= -119.126697902433     IErMin= 4 ErrMin= 3.51D-04
 ErrMax= 6.85D-04  0.00D+00 EMaxC= 1.00D-01 BMatC= 3.98D-05 BMatP= 1.67D-05
 IDIUse=3 WtCom= 2.76D-01 WtEn= 7.24D-01
 Coeff-Com: -0.774D+00 0.884D+00 0.993D-03 0.544D+00 0.344D+00
 Coeff-En:   0.000D+00 0.000D+00 0.000D+00 0.616D+00 0.384D+00
 Coeff:     -0.214D+00 0.244D+00 0.274D-03 0.597D+00 0.373D+00
 Gap=     0.054 Goal=   None    Shift=    0.000
 RMSDP=1.63D-04 MaxDP=2.17D-02 DE= 5.40D-05 OVMax= 1.95D-02

 Cycle   6  Pass 1  IDiag  1:
 E= -119.126692202038     Delta-E=       -0.000048349342 Rises=F Damp=F
 DIIS: error= 4.51D-04 at cycle   6 NSaved=   6.
 NSaved= 6 IEnMin= 4 EnMin= -119.126697902433     IErMin= 4 ErrMin= 3.51D-04
 ErrMax= 4.51D-04  0.00D+00 EMaxC= 1.00D-01 BMatC= 1.18D-05 BMatP= 1.67D-05
 IDIUse=3 WtCom= 9.95D-01 WtEn= 4.51D-03
 EnCoef did    18 forward-backward iterations
 Coeff-Com: -0.538D+00 0.615D+00-0.795D-01 0.315D+00 0.367D+00 0.321D+00
 Coeff-En:   0.000D+00 0.000D+00 0.000D+00 0.162D+00 0.392D+00 0.446D+00
 Coeff:     -0.535D+00 0.612D+00-0.791D-01 0.314D+00 0.367D+00 0.321D+00
 Gap=     0.054 Goal=   None    Shift=    0.000
 RMSDP=1.21D-04 MaxDP=1.62D-02 DE=-4.83D-05 OVMax= 7.99D-03

 Cycle   7  Pass 1  IDiag  1:
 E= -119.126712822446     Delta-E=       -0.000020620409 Rises=F Damp=F
 DIIS: error= 1.70D-04 at cycle   7 NSaved=   7.
 NSaved= 7 IEnMin= 7 EnMin= -119.126712822446     IErMin= 7 ErrMin= 1.70D-04
 ErrMax= 1.70D-04  0.00D+00 EMaxC= 1.00D-01 BMatC= 3.34D-06 BMatP= 1.18D-05
 IDIUse=3 WtCom= 9.98D-01 WtEn= 1.70D-03
 Rare condition: small coef for last iteration: -0.888D-15
 Coeff-Com: -0.513D+00 0.586D+00-0.893D-01 0.143D+00 0.213D+00 0.183D+00
 Coeff-Com:  0.477D+00
 Coeff-En:   0.000D+00 0.000D+00 0.000D+00 0.212D+00 0.191D+00 0.146D+00
 Coeff-En:   0.451D+00
 Coeff:     -0.513D+00 0.586D+00-0.893D-01 0.143D+00 0.213D+00 0.183D+00
 Coeff:      0.477D+00
 Gap=     0.054 Goal=   None    Shift=    0.000
 RMSDP=2.57D-05 MaxDP=3.41D-03 DE=-2.06D-05 OVMax= 1.15D-03

 Cycle   8  Pass 1  IDiag  1:
 E= -119.126714144900     Delta-E=       -0.000001322453 Rises=F Damp=F
 DIIS: error= 1.64D-04 at cycle   8 NSaved=   8.
 NSaved= 8 IEnMin= 8 EnMin= -119.126714144900     IErMin= 8 ErrMin= 1.64D-04
 ErrMax= 1.64D-04  0.00D+00 EMaxC= 1.00D-01 BMatC= 2.34D-06 BMatP= 3.34D-06
 IDIUse=3 WtCom= 9.98D-01 WtEn= 1.64D-03
 EnCoef did   100 forward-backward iterations
 Rare condition: small coef for last iteration:  0.000D+00
 Coeff-Com: -0.483D+00 0.552D+00-0.839D-01 0.650D-01 0.127D+00 0.106D+00
 Coeff-Com:  0.401D+00 0.316D+00
 Coeff-En:   0.000D+00 0.000D+00 0.000D+00 0.215D+00 0.180D+00 0.135D+00
 Coeff-En:   0.508D-01 0.419D+00
 Coeff:     -0.483D+00 0.552D+00-0.839D-01 0.650D-01 0.127D+00 0.106D+00
 Coeff:      0.401D+00 0.316D+00
 Gap=     0.054 Goal=   None    Shift=    0.000
 RMSDP=7.84D-06 MaxDP=9.50D-04 DE=-1.32D-06 OVMax= 4.71D-04

 Cycle   9  Pass 1  IDiag  1:
 E= -119.126714556910     Delta-E=       -0.000000412010 Rises=F Damp=F
 DIIS: error= 1.54D-04 at cycle   9 NSaved=   9.
 NSaved= 9 IEnMin= 9 EnMin= -119.126714556910     IErMin= 9 ErrMin= 1.54D-04
 ErrMax= 1.54D-04  0.00D+00 EMaxC= 1.00D-01 BMatC= 1.92D-06 BMatP= 2.34D-06
 IDIUse=3 WtCom= 9.98D-01 WtEn= 1.54D-03
 EnCoef did   100 forward-backward iterations
 Coeff-Com: -0.434D+00 0.496D+00-0.735D-01-0.613D-02 0.453D-01 0.358D-01
 Coeff-Com:  0.246D+00 0.234D+00 0.456D+00
 Coeff-En:   0.000D+00 0.000D+00 0.000D+00 0.165D+00 0.389D+00 0.438D+00
 Coeff-En:   0.000D+00 0.000D+00 0.881D-02
 Coeff:     -0.433D+00 0.495D+00-0.734D-01-0.587D-02 0.458D-01 0.364D-01
 Coeff:      0.246D+00 0.234D+00 0.455D+00
 Gap=     0.054 Goal=   None    Shift=    0.000
 RMSDP=6.65D-06 MaxDP=7.91D-04 DE=-4.12D-07 OVMax= 1.25D-04

 Cycle  10  Pass 1  IDiag  1:
 E= -119.126714771896     Delta-E=       -0.000000214986 Rises=F Damp=F
 DIIS: error= 1.38D-04 at cycle  10 NSaved=  10.
 NSaved=10 IEnMin=10 EnMin= -119.126714771896     IErMin=10 ErrMin= 1.38D-04
 ErrMax= 1.38D-04  0.00D+00 EMaxC= 1.00D-01 BMatC= 1.55D-06 BMatP= 1.92D-06
 IDIUse=3 WtCom= 9.99D-01 WtEn= 1.38D-03
 EnCoef did   100 forward-backward iterations
 Rare condition: small coef for last iteration:  0.228D-15
 Coeff-Com: -0.374D+00 0.427D+00-0.613D-01-0.582D-01-0.176D-01-0.181D-01
 Coeff-Com:  0.113D+00 0.117D+00 0.374D+00 0.497D+00
 Coeff-En:   0.000D+00 0.000D+00 0.000D+00 0.210D+00 0.179D+00 0.130D+00
 Coeff-En:   0.000D+00 0.000D+00 0.000D+00 0.481D+00
 Coeff:     -0.374D+00 0.427D+00-0.613D-01-0.582D-01-0.176D-01-0.181D-01
 Coeff:      0.113D+00 0.117D+00 0.374D+00 0.497D+00
 Gap=     0.054 Goal=   None    Shift=    0.000
 RMSDP=8.30D-06 MaxDP=9.80D-04 DE=-2.15D-07 OVMax= 1.11D-04

 Cycle  11  Pass 1  IDiag  1:
 E= -119.126714993382     Delta-E=       -0.000000221486 Rises=F Damp=F
 DIIS: error= 1.20D-04 at cycle  11 NSaved=  11.
 NSaved=11 IEnMin=11 EnMin= -119.126714993382     IErMin=11 ErrMin= 1.20D-04
 ErrMax= 1.20D-04  0.00D+00 EMaxC= 1.00D-01 BMatC= 1.15D-06 BMatP= 1.55D-06
 IDIUse=3 WtCom= 9.99D-01 WtEn= 1.20D-03
 EnCoef did   100 forward-backward iterations
 Coeff-Com: -0.314D+00 0.359D+00-0.507D-01-0.707D-01-0.392D-01-0.368D-01
 Coeff-Com:  0.484D-01 0.307D-01 0.943D-01 0.475D+00 0.504D+00
 Coeff-En:   0.000D+00 0.000D+00 0.000D+00 0.165D+00 0.388D+00 0.438D+00
 Coeff-En:   0.000D+00 0.000D+00 0.000D+00 0.000D+00 0.911D-02
 Coeff:     -0.314D+00 0.359D+00-0.506D-01-0.704D-01-0.387D-01-0.363D-01
 Coeff:      0.484D-01 0.307D-01 0.942D-01 0.475D+00 0.503D+00
 Gap=     0.054 Goal=   None    Shift=    0.000
 RMSDP=8.67D-06 MaxDP=1.04D-03 DE=-2.21D-07 OVMax= 1.00D-04

 Cycle  12  Pass 1  IDiag  1:
 E= -119.126715194248     Delta-E=       -0.000000200866 Rises=F Damp=F
 DIIS: error= 1.00D-04 at cycle  12 NSaved=  12.
 NSaved=12 IEnMin=12 EnMin= -119.126715194248     IErMin=12 ErrMin= 1.00D-04
 ErrMax= 1.00D-04  0.00D+00 EMaxC= 1.00D-01 BMatC= 8.11D-07 BMatP= 1.15D-06
 IDIUse=3 WtCom= 9.99D-01 WtEn= 1.00D-03
 EnCoef did   100 forward-backward iterations
 Rare condition: small coef for last iteration: -0.114D-15
 Coeff-Com: -0.234D+00 0.268D+00-0.376D-01-0.572D-01-0.346D-01-0.328D-01
 Coeff-Com:  0.239D-01-0.228D-01-0.177D+00 0.258D+00 0.222D+00 0.824D+00
 Coeff-En:   0.000D+00 0.000D+00 0.000D+00 0.204D+00 0.180D+00 0.126D+00
 Coeff-En:   0.000D+00 0.000D+00 0.000D+00 0.000D+00 0.000D+00 0.490D+00
 Coeff:     -0.234D+00 0.268D+00-0.376D-01-0.572D-01-0.346D-01-0.328D-01
 Coeff:      0.239D-01-0.228D-01-0.177D+00 0.258D+00 0.222D+00 0.824D+00
 Gap=     0.054 Goal=   None    Shift=    0.000
 RMSDP=1.06D-05 MaxDP=1.23D-03 DE=-2.01D-07 OVMax= 1.05D-04

 Cycle  13  Pass 1  IDiag  1:
 E= -119.126715396889     Delta-E=       -0.000000202641 Rises=F Damp=F
 DIIS: error= 7.49D-05 at cycle  13 NSaved=  13.
 NSaved=13 IEnMin=13 EnMin= -119.126715396889     IErMin=13 ErrMin= 7.49D-05
 ErrMax= 7.49D-05  0.00D+00 EMaxC= 1.00D-01 BMatC= 4.55D-07 BMatP= 8.11D-07
 IDIUse=1 WtCom= 1.00D+00 WtEn= 0.00D+00
 Coeff-Com: -0.131D+00 0.150D+00-0.212D-01-0.194D-01-0.671D-02-0.110D-01
 Coeff-Com:  0.358D-01-0.150D-01-0.155D+00 0.362D-01-0.556D+00 0.499D+00
 Coeff-Com:  0.119D+01
 Coeff:     -0.131D+00 0.150D+00-0.212D-01-0.194D-01-0.671D-02-0.110D-01
 Coeff:      0.358D-01-0.150D-01-0.155D+00 0.362D-01-0.556D+00 0.499D+00
 Coeff:      0.119D+01
 Gap=     0.054 Goal=   None    Shift=    0.000
 RMSDP=1.47D-05 MaxDP=1.73D-03 DE=-2.03D-07 OVMax= 1.53D-04

 Cycle  14  Pass 1  IDiag  1:
 E= -119.126715579826     Delta-E=       -0.000000182937 Rises=F Damp=F
 DIIS: error= 4.20D-05 at cycle  14 NSaved=  14.
 NSaved=14 IEnMin=14 EnMin= -119.126715579826     IErMin=14 ErrMin= 4.20D-05
 ErrMax= 4.20D-05  0.00D+00 EMaxC= 1.00D-01 BMatC= 1.42D-07 BMatP= 4.55D-07
 IDIUse=1 WtCom= 1.00D+00 WtEn= 0.00D+00
 Coeff-Com: -0.810D-01 0.925D-01-0.133D-01-0.588D-02 0.271D-02-0.126D-02
 Coeff-Com:  0.368D-01 0.219D-01 0.712D-01 0.309D-01-0.495D+00-0.392D+00
 Coeff-Com:  0.971D+00 0.762D+00
 Coeff:     -0.810D-01 0.925D-01-0.133D-01-0.588D-02 0.271D-02-0.126D-02
 Coeff:      0.368D-01 0.219D-01 0.712D-01 0.309D-01-0.495D+00-0.392D+00
 Coeff:      0.971D+00 0.762D+00
 Gap=     0.054 Goal=   None    Shift=    0.000
 RMSDP=6.88D-06 MaxDP=8.06D-04 DE=-1.83D-07 OVMax= 6.43D-05

 Cycle  15  Pass 1  IDiag  1:
 E= -119.126715631140     Delta-E=       -0.000000051314 Rises=F Damp=F
 DIIS: error= 2.59D-05 at cycle  15 NSaved=  15.
 NSaved=15 IEnMin=15 EnMin= -119.126715631140     IErMin=15 ErrMin= 2.59D-05
 ErrMax= 2.59D-05  0.00D+00 EMaxC= 1.00D-01 BMatC= 5.37D-08 BMatP= 1.42D-07
 IDIUse=1 WtCom= 1.00D+00 WtEn= 0.00D+00
 Coeff-Com: -0.311D-01 0.356D-01-0.524D-02 0.113D-02 0.484D-02 0.254D-02
 Coeff-Com:  0.225D-01 0.223D-01 0.106D+00-0.453D-02-0.335D+00-0.576D+00
 Coeff-Com:  0.572D+00 0.670D+00 0.515D+00
 Coeff:     -0.311D-01 0.356D-01-0.524D-02 0.113D-02 0.484D-02 0.254D-02
 Coeff:      0.225D-01 0.223D-01 0.106D+00-0.453D-02-0.335D+00-0.576D+00
 Coeff:      0.572D+00 0.670D+00 0.515D+00
 Gap=     0.054 Goal=   None    Shift=    0.000
 RMSDP=7.00D-06 MaxDP=8.20D-04 DE=-5.13D-08 OVMax= 7.68D-05

 Cycle  16  Pass 1  IDiag  1:
 E= -119.126715657471     Delta-E=       -0.000000026331 Rises=F Damp=F
 DIIS: error= 9.95D-06 at cycle  16 NSaved=  16.
 NSaved=16 IEnMin=16 EnMin= -119.126715657471     IErMin=16 ErrMin= 9.95D-06
 ErrMax= 9.95D-06  0.00D+00 EMaxC= 1.00D-01 BMatC= 8.03D-09 BMatP= 5.37D-08
 IDIUse=1 WtCom= 1.00D+00 WtEn= 0.00D+00
 Coeff-Com: -0.760D-02 0.869D-02-0.134D-02 0.163D-02 0.285D-02 0.173D-02
 Coeff-Com:  0.959D-02 0.138D-01 0.887D-01-0.379D-02-0.176D+00-0.475D+00
 Coeff-Com:  0.253D+00 0.413D+00 0.507D+00 0.364D+00
 Coeff:     -0.760D-02 0.869D-02-0.134D-02 0.163D-02 0.285D-02 0.173D-02
 Coeff:      0.959D-02 0.138D-01 0.887D-01-0.379D-02-0.176D+00-0.475D+00
 Coeff:      0.253D+00 0.413D+00 0.507D+00 0.364D+00
 Gap=     0.054 Goal=   None    Shift=    0.000
 RMSDP=3.24D-06 MaxDP=3.83D-04 DE=-2.63D-08 OVMax= 3.83D-05

 Cycle  17  Pass 1  IDiag  1:
 E= -119.126715661943     Delta-E=       -0.000000004472 Rises=F Damp=F
 DIIS: error= 2.43D-06 at cycle  17 NSaved=  17.
 NSaved=17 IEnMin=17 EnMin= -119.126715661943     IErMin=17 ErrMin= 2.43D-06
 ErrMax= 2.43D-06  0.00D+00 EMaxC= 1.00D-01 BMatC= 5.17D-10 BMatP= 8.03D-09
 IDIUse=1 WtCom= 1.00D+00 WtEn= 0.00D+00
 Coeff-Com:  0.230D-02-0.263D-02 0.410D-03-0.908D-03-0.935D-03-0.117D-02
 Coeff-Com: -0.199D-02 0.127D-02 0.443D-01 0.178D-01-0.173D-01-0.202D+00
 Coeff-Com: -0.207D-01 0.825D-01 0.236D+00 0.371D+00 0.492D+00
 Coeff:      0.230D-02-0.263D-02 0.410D-03-0.908D-03-0.935D-03-0.117D-02
 Coeff:     -0.199D-02 0.127D-02 0.443D-01 0.178D-01-0.173D-01-0.202D+00
 Coeff:     -0.207D-01 0.825D-01 0.236D+00 0.371D+00 0.492D+00
 Gap=     0.054 Goal=   None    Shift=    0.000
 RMSDP=1.28D-06 MaxDP=1.52D-04 DE=-4.47D-09 OVMax= 1.70D-05

 Cycle  18  Pass 1  IDiag  1:
 E= -119.126715662308     Delta-E=       -0.000000000365 Rises=F Damp=F
 DIIS: error= 7.35D-07 at cycle  18 NSaved=  18.
 NSaved=18 IEnMin=18 EnMin= -119.126715662308     IErMin=18 ErrMin= 7.35D-07
 ErrMax= 7.35D-07  0.00D+00 EMaxC= 1.00D-01 BMatC= 5.61D-11 BMatP= 5.17D-10
 IDIUse=1 WtCom= 1.00D+00 WtEn= 0.00D+00
 Coeff-Com:  0.100D-01-0.115D-01 0.169D-02-0.254D-03-0.120D-02-0.104D-02
 Coeff-Com: -0.637D-02-0.597D-02-0.226D-02 0.988D-02 0.294D-01 0.541D-01
 Coeff-Com: -0.103D+00-0.987D-01-0.273D-01 0.107D+00 0.350D+00 0.696D+00
 Coeff:      0.100D-01-0.115D-01 0.169D-02-0.254D-03-0.120D-02-0.104D-02
 Coeff:     -0.637D-02-0.597D-02-0.226D-02 0.988D-02 0.294D-01 0.541D-01
 Coeff:     -0.103D+00-0.987D-01-0.273D-01 0.107D+00 0.350D+00 0.696D+00
 Gap=     0.054 Goal=   None    Shift=    0.000
 RMSDP=1.10D-06 MaxDP=1.33D-04 DE=-3.65D-10 OVMax= 1.29D-05

 Cycle  19  Pass 1  IDiag  1:
 E= -119.126715661905     Delta-E=        0.000000000403 Rises=F Damp=F
 DIIS: error= 3.21D-06 at cycle  19 NSaved=  19.
 NSaved=19 IEnMin=18 EnMin= -119.126715662308     IErMin=18 ErrMin= 7.35D-07
 ErrMax= 3.21D-06  0.00D+00 EMaxC= 1.00D-01 BMatC= 8.36D-10 BMatP= 5.61D-11
 IDIUse=1 WtCom= 1.00D+00 WtEn= 0.00D+00
 Coeff-Com:  0.119D-01-0.136D-01 0.196D-02 0.137D-02 0.221D-03 0.574D-03
 Coeff-Com: -0.496D-02-0.500D-02-0.206D-01-0.809D-02 0.241D-01 0.187D+00
 Coeff-Com: -0.867D-01-0.130D+00-0.151D+00-0.174D+00-0.692D-01 0.694D+00
 Coeff-Com:  0.742D+00
 Coeff:      0.119D-01-0.136D-01 0.196D-02 0.137D-02 0.221D-03 0.574D-03
 Coeff:     -0.496D-02-0.500D-02-0.206D-01-0.809D-02 0.241D-01 0.187D+00
 Coeff:     -0.867D-01-0.130D+00-0.151D+00-0.174D+00-0.692D-01 0.694D+00
 Coeff:      0.742D+00
 Gap=     0.054 Goal=   None    Shift=    0.000
 RMSDP=3.11D-07 MaxDP=3.78D-05 DE= 4.03D-10 OVMax= 6.53D-06

 Cycle  20  Pass 1  IDiag  1:
 E= -119.126715661739     Delta-E=        0.000000000166 Rises=F Damp=F
 DIIS: error= 3.82D-06 at cycle  20 NSaved=  20.
 NSaved=20 IEnMin=18 EnMin= -119.126715662308     IErMin=18 ErrMin= 7.35D-07
 ErrMax= 3.82D-06  0.00D+00 EMaxC= 1.00D-01 BMatC= 1.17D-09 BMatP= 5.61D-11
 IDIUse=1 WtCom= 1.00D+00 WtEn= 0.00D+00
 Coeff-Com:  0.277D-02-0.316D-02 0.438D-03 0.106D-02 0.852D-03 0.113D-02
 Coeff-Com:  0.275D-04 0.164D-02-0.319D-02-0.109D-01-0.374D-02 0.130D+00
 Coeff-Com: -0.103D-01-0.239D-01-0.805D-01-0.261D+00-0.386D+00 0.210D+00
 Coeff-Com:  0.687D+00 0.748D+00
 Coeff:      0.277D-02-0.316D-02 0.438D-03 0.106D-02 0.852D-03 0.113D-02
 Coeff:      0.275D-04 0.164D-02-0.319D-02-0.109D-01-0.374D-02 0.130D+00
 Coeff:     -0.103D-01-0.239D-01-0.805D-01-0.261D+00-0.386D+00 0.210D+00
 Coeff:      0.687D+00 0.748D+00
 Gap=     0.054 Goal=   None    Shift=    0.000
 RMSDP=1.29D-06 MaxDP=1.52D-04 DE= 1.66D-10 OVMax= 1.29D-05

 Cycle  21  Pass 1  IDiag  1:
 E= -119.126715662374     Delta-E=       -0.000000000635 Rises=F Damp=F
 DIIS: error= 8.84D-07 at cycle  21 NSaved=  20.
 NSaved=20 IEnMin=20 EnMin= -119.126715662374     IErMin=17 ErrMin= 7.35D-07
 ErrMax= 8.84D-07  0.00D+00 EMaxC= 1.00D-01 BMatC= 6.50D-11 BMatP= 5.61D-11
 IDIUse=1 WtCom= 1.00D+00 WtEn= 0.00D+00
 Coeff-Com: -0.506D-11-0.900D-05 0.468D-03 0.509D-03 0.607D-03 0.868D-03
 Coeff-Com:  0.234D-02 0.500D-02-0.795D-02-0.177D-01 0.173D-01 0.292D-01
 Coeff-Com:  0.464D-01 0.221D-01-0.122D+00-0.286D+00-0.173D+00 0.136D+00
 Coeff-Com:  0.500D+00 0.847D+00
 Coeff:     -0.506D-11-0.900D-05 0.468D-03 0.509D-03 0.607D-03 0.868D-03
 Coeff:      0.234D-02 0.500D-02-0.795D-02-0.177D-01 0.173D-01 0.292D-01
 Coeff:      0.464D-01 0.221D-01-0.122D+00-0.286D+00-0.173D+00 0.136D+00
 Coeff:      0.500D+00 0.847D+00
 Gap=     0.054 Goal=   None    Shift=    0.000
 RMSDP=3.82D-07 MaxDP=4.53D-05 DE=-6.35D-10 OVMax= 3.30D-06

 Cycle  22  Pass 1  IDiag  1:
 E= -119.126715662417     Delta-E=       -0.000000000043 Rises=F Damp=F
 DIIS: error= 4.51D-08 at cycle  22 NSaved=  20.
 NSaved=20 IEnMin=20 EnMin= -119.126715662417     IErMin=20 ErrMin= 4.51D-08
 ErrMax= 4.51D-08  0.00D+00 EMaxC= 1.00D-01 BMatC= 3.96D-13 BMatP= 5.61D-11
 IDIUse=1 WtCom= 1.00D+00 WtEn= 0.00D+00
 Coeff-Com:  0.125D-05-0.225D-04-0.120D-04-0.386D-04 0.552D-04 0.294D-03
 Coeff-Com:  0.313D-02-0.123D-02-0.104D-01-0.285D-01 0.202D-01 0.337D-01
 Coeff-Com:  0.364D-01 0.886D-02-0.443D-01-0.154D+00-0.133D+00 0.442D-01
 Coeff-Com:  0.544D+00 0.680D+00
 Coeff:      0.125D-05-0.225D-04-0.120D-04-0.386D-04 0.552D-04 0.294D-03
 Coeff:      0.313D-02-0.123D-02-0.104D-01-0.285D-01 0.202D-01 0.337D-01
 Coeff:      0.364D-01 0.886D-02-0.443D-01-0.154D+00-0.133D+00 0.442D-01
 Coeff:      0.544D+00 0.680D+00
 Gap=     0.054 Goal=   None    Shift=    0.000
 RMSDP=1.60D-08 MaxDP=1.67D-06 DE=-4.26D-11 OVMax= 1.36D-06

 Cycle  23  Pass 1  IDiag  1:
 E= -119.126715662418     Delta-E=       -0.000000000001 Rises=F Damp=F
 DIIS: error= 3.11D-08 at cycle  23 NSaved=  20.
 NSaved=20 IEnMin=20 EnMin= -119.126715662418     IErMin=20 ErrMin= 3.11D-08
 ErrMax= 3.11D-08  0.00D+00 EMaxC= 1.00D-01 BMatC= 1.48D-13 BMatP= 3.96D-13
 IDIUse=1 WtCom= 1.00D+00 WtEn= 0.00D+00
 Coeff-Com: -0.105D-06-0.176D-05-0.897D-04 0.723D-04-0.174D-03 0.177D-02
 Coeff-Com:  0.107D-02-0.622D-02-0.313D-01 0.123D-01 0.165D-01 0.208D-01
 Coeff-Com:  0.408D-01 0.480D-01-0.706D-01-0.142D+00-0.117D+00 0.158D+00
 Coeff-Com:  0.481D+00 0.587D+00
 Coeff:     -0.105D-06-0.176D-05-0.897D-04 0.723D-04-0.174D-03 0.177D-02
 Coeff:      0.107D-02-0.622D-02-0.313D-01 0.123D-01 0.165D-01 0.208D-01
 Coeff:      0.408D-01 0.480D-01-0.706D-01-0.142D+00-0.117D+00 0.158D+00
 Coeff:      0.481D+00 0.587D+00
 Gap=     0.054 Goal=   None    Shift=    0.000
 RMSDP=7.11D-09 MaxDP=6.35D-07 DE=-9.38D-13 OVMax= 5.46D-07

 SCF Done:  E(ROHF) =  -119.126715662     A.U. after   23 cycles
            NFock= 23  Conv=0.71D-08     -V/T= 2.7506
 <Sx>= 0.0000 <Sy>= 0.0000 <Sz>= 2.5000 <S**2>= 8.7500 S= 2.5000
 <L.S>=  0.00000000000    
 KE= 6.804772444972D+01 PE=-3.255627853436D+02 EE= 1.133220562931D+02
 Annihilation of the first spin contaminant:
 S**2 before annihilation     8.7500,   after     8.7500
 Leave Link  502 at Wed Mar 14 07:37:10 2018, MaxMem= 10737418240 cpu:            1920.6 elap:             140.2
 (Enter /home1/apps/gaussian/16rA.03/g16/l801.exe)
 Windowed orbitals will be sorted by symmetry type.
 GenMOA:  NOpAll=  4 NOp2=4 NOpUse=  4 JSym2X=1
 FoFJK:  IHMeth= 1 ICntrl=       0 DoSepK=F KAlg= 0 I1Cent=           0 FoldK=F
 IRaf=         0 NMat=       1 IRICut=       1 DoRegI=T DoRafI=F ISym2E= 1 IDoP0=0 IntGTp=1.
 FoFCou: FMM=F IPFlag=           8 FMFlag=      100000 FMFlg1=           0
         NFxFlg=           0 DoJE=F BraDBF=F KetDBF=F FulRan=T
         wScrn=  0.000000 ICntrl=         0 IOpCl=  1 I1Cent=           0 NGrid=           0
         NMat0=    1 NMatS0=      1 NMatT0=    0 NMatD0=    1 NMtDS0=    0 NMtDT0=    0
 Petite list used in FoFCou.
 <Sx>= 0.0000 <Sy>= 0.0000 <Sz>= 2.5000 <S**2>= 8.7500 S= 2.5000
 Range of M.O.s used for correlation:     1   377
 NBasis=   384 NAE=    13 NBE=     8 NFC=     0 NFV=     0
 NROrb=    377 NOA=    13 NOB=     8 NVA=   364 NVB=   369

 **** Warning!!: The largest alpha MO coefficient is  0.27728910D+03


 **** Warning!!: The largest beta MO coefficient is  0.27728959D+03

 Singles contribution to E2=   -0.4659872855D-02
 Leave Link  801 at Wed Mar 14 07:37:42 2018, MaxMem= 10737418240 cpu:             515.2 elap:              32.2
 (Enter /home1/apps/gaussian/16rA.03/g16/l804.exe)
 Open-shell transformation, MDV= 10737418240 ITran=4 ISComp=2.
 Unit  1 TFree=       4469371 TCopy=       3196152.
 Semi-Direct transformation.
 ModeAB=           4 MOrb=            13 LenV=   10733166505
 LASXX=     86562733 LTotXX=    86562733 LenRXX=   174043909
 LTotAB=    87481176 MaxLAS=   587806336 LenRXY=           0
 NonZer=   260606642 LenScr=   392443904 LnRSAI=   587806336
 LnScr1=   885168128 LExtra=    24337739 Total=   2063800016
 MaxDsk= 67108864000 SrtSym=           T ITran=            4
 DoSDTr:  NPSUse= 16
 JobTyp=1 Pass  1:  I=   1 to  13.
 (rs|ai) integrals will be sorted in core.
 Complete sort for first half transformation.
 First half transformation complete.
 Begin second half transformation for I=  10.
 Complete sort for second half transformation.
 Second half transformation complete.
 ModeAB=           4 MOrb=             8 LenV=   10733166505
 LASXX=     53932406 LTotXX=    53932406 LenRXX=   104697494
 LTotAB=    50765088 MaxLAS=   361726976 LenRXY=           0
 NonZer=   158629900 LenScr=   238878720 LnRSAI=   361726976
 LnScr1=   544718848 LExtra=   198381648 Total=   1448403686
 MaxDsk= 67108864000 SrtSym=           T ITran=            4
 DoSDTr:  NPSUse= 16
 JobTyp=2 Pass  1:  I=   1 to   8.
 (rs|ai) integrals will be sorted in core.
 Complete sort for first half transformation.
 First half transformation complete.
 Complete sort for second half transformation.
 Second half transformation complete.
 Spin components of T(2) and E(2):
     alpha-alpha T2 =       0.4203975842D-01 E2=     -0.1940625127D+00
     alpha-beta  T2 =       0.1563265688D+00 E2=     -0.6379701268D+00
     beta-beta   T2 =       0.2720450481D-01 E2=     -0.8900366139D-01
 ANorm=    0.1109873452D+01
 E2 =    -0.9256961737D+00 EUMP2 =    -0.12005241183616D+03
 (S**2,0)=  0.87500D+01           (S**2,1)=  0.87500D+01
 E(PUHF)=      -0.11912671566D+03        E(PMP2)=      -0.12005241184D+03
 Recovering and transforming amplitudes from chk file.
 B after Tr=     0.000000    0.000000    0.000000
         Rot=    1.000000    0.000000    0.000000    0.000000 Ang=   0.00 deg.
 Alpha occ  Sing. vals= 9.999994D-01 9.999994D-01 9.999993D-01 9.999966D-01 9.999926D-01 9.999926D-01 9.999924D-01 9.999920D-01 9.999920D-01 9.999867D-01
 Alpha occ  Sing. vals= 9.999801D-01 9.999731D-01 9.999731D-01
 Alpha occ  NOrbO=    13 NOrbN=    13 NSVal=    13 ThrEig=  0.900000.
 TrMax= 1.000000D+00 PrMax= 1.000000D+00 Trace(Pr)= 1.300000D+01
 B after Tr=     0.000000    0.000000    0.000000
         Rot=    1.000000    0.000000    0.000000    0.000000 Ang=   0.00 deg.
 Alpha virt Sing. vals= 1.000000D+00 1.000000D+00 1.000000D+00 1.000000D+00 1.000000D+00 1.000000D+00 1.000000D+00 1.000000D+00 1.000000D+00 1.000000D+00
 Alpha virt Sing. vals= 1.000000D+00 1.000000D+00 1.000000D+00 1.000000D+00 1.000000D+00 1.000000D+00 1.000000D+00 1.000000D+00 1.000000D+00 1.000000D+00
 Alpha virt Sing. vals= 1.000000D+00 1.000000D+00 1.000000D+00 9.999999D-01 9.999999D-01 9.999999D-01 9.999999D-01 9.999999D-01 9.999999D-01 9.999999D-01
 Alpha virt Sing. vals= 9.999999D-01 9.999999D-01 9.999998D-01 9.999998D-01 9.999997D-01 9.999997D-01 9.999995D-01 9.999994D-01 9.999994D-01 9.999994D-01
 Alpha virt Sing. vals= 9.999991D-01 9.999988D-01 9.999988D-01 9.999988D-01 9.999987D-01 9.999986D-01 9.999986D-01 9.999985D-01 9.999985D-01 9.999982D-01
 Alpha virt Sing. vals= 9.999973D-01 9.999965D-01 9.999965D-01 9.999965D-01 9.999962D-01 9.999962D-01 9.999962D-01 9.999945D-01 9.999942D-01 9.999942D-01
 Alpha virt Sing. vals= 9.999942D-01 9.999942D-01 9.999936D-01 9.999874D-01 9.999841D-01 9.999804D-01 9.999783D-01 9.999783D-01 9.999755D-01 9.999741D-01
 Alpha virt Sing. vals= 9.999740D-01 9.999740D-01 9.999740D-01 9.999740D-01 9.999554D-01 9.999554D-01 9.999522D-01 9.999435D-01 9.999390D-01 9.999390D-01
 Alpha virt Sing. vals= 9.999221D-01 9.999206D-01 9.999168D-01 9.999104D-01 9.999099D-01 9.999099D-01 9.999035D-01 9.999035D-01 9.999022D-01 9.998394D-01
 Alpha virt Sing. vals= 9.998226D-01 9.998226D-01 9.998068D-01 9.998068D-01 9.997999D-01 9.997999D-01 9.997979D-01 9.997979D-01 9.997923D-01 9.997922D-01
 Alpha virt Sing. vals= 9.997922D-01 9.997828D-01 9.997824D-01 9.997824D-01 9.996944D-01 9.996944D-01 9.996802D-01 9.996691D-01 9.996432D-01 9.996432D-01
 Alpha virt Sing. vals= 9.996345D-01 9.995955D-01 9.995955D-01 9.995836D-01 9.995828D-01 9.995828D-01 9.995824D-01 9.995824D-01 9.995813D-01 9.995645D-01
 Alpha virt Sing. vals= 9.995508D-01 9.995282D-01 9.995282D-01 9.994916D-01 9.994916D-01 9.994858D-01 9.994858D-01 9.994806D-01 9.994806D-01 9.994321D-01
 Alpha virt Sing. vals= 9.994321D-01 9.992796D-01 9.991521D-01 9.991521D-01 9.990153D-01 9.990088D-01 9.990088D-01 9.986714D-01 9.985712D-01 9.985712D-01
 Alpha virt Sing. vals= 9.983825D-01 9.983590D-01 9.983590D-01 9.982259D-01 9.982259D-01 9.981793D-01 9.976478D-01 9.976478D-01 9.973363D-01 9.973363D-01
 Alpha virt Sing. vals= 9.972860D-01 9.972007D-01 9.972007D-01 9.971233D-01 9.971233D-01 9.970759D-01 9.970091D-01 9.970091D-01 9.963250D-01 9.960657D-01
 Alpha virt Sing. vals= 9.959390D-01 9.959390D-01 9.959191D-01 9.959191D-01 9.954812D-01 9.953506D-01 9.953506D-01 9.952925D-01 9.952925D-01 9.951960D-01
 Alpha virt Sing. vals= 9.951952D-01 9.951952D-01 9.946623D-01 9.946623D-01 9.945698D-01 9.945698D-01 9.942352D-01 9.942352D-01 9.939908D-01 9.939908D-01
 Alpha virt Sing. vals= 9.939739D-01 9.924853D-01 9.917117D-01 9.916055D-01 9.916055D-01 9.879575D-01 9.847246D-01 9.845899D-01 9.845899D-01 9.830923D-01
 Alpha virt Sing. vals= 9.830846D-01 9.830846D-01 9.824352D-01 9.824352D-01 9.820763D-01 9.820763D-01 9.804989D-01 9.804989D-01 9.800714D-01 9.757336D-01
 Alpha virt Sing. vals= 9.702692D-01 9.684044D-01 9.684044D-01 9.675486D-01 9.675486D-01 9.508231D-01 9.481715D-01 9.481715D-01 9.449891D-01 9.419586D-01
 Alpha virt Sing. vals= 9.373865D-01 9.373865D-01 9.373851D-01 9.360182D-01 9.360182D-01 9.323438D-01 9.323438D-01 9.288663D-01 9.288663D-01 9.282960D-01
 Alpha virt Sing. vals= 9.282960D-01 9.255547D-01 9.255547D-01 9.244694D-01 9.244694D-01 9.227879D-01 9.227879D-01 9.225117D-01 9.225117D-01 9.216163D-01
 Alpha virt Sing. vals= 9.098023D-01 9.021629D-01 9.021629D-01 8.802467D-01 8.503232D-01 8.503232D-01 8.484268D-01 8.484268D-01 8.429083D-01 8.429083D-01
 Alpha virt Sing. vals= 7.953631D-01 7.953631D-01 7.768908D-01 7.560286D-01 4.606710D-01
 Alpha virt NOrbO=   245 NOrbN=   364 NSVal=   233 ThrEig=  0.900000.
 TrMax= 9.999715D-01 PrMax= 9.999619D-01 Trace(Pr)= 2.330000D+02
 B after Tr=     0.000000    0.000000    0.000000
         Rot=    1.000000    0.000000    0.000000    0.000000 Ang=   0.00 deg.
 Beta  occ  Sing. vals= 9.999994D-01 9.999994D-01 9.999993D-01 9.999966D-01 9.999867D-01 9.999803D-01 9.999746D-01 9.999746D-01
 Beta  occ  NOrbO=     8 NOrbN=     8 NSVal=     8 ThrEig=  0.900000.
 TrMax= 1.000000D+00 PrMax= 1.000000D+00 Trace(Pr)= 8.000000D+00
 B after Tr=     0.000000    0.000000    0.000000
         Rot=    1.000000    0.000000    0.000000    0.000000 Ang=   0.00 deg.
 Beta  virt Sing. vals= 1.000000D+00 1.000000D+00 1.000000D+00 1.000000D+00 1.000000D+00 1.000000D+00 1.000000D+00 1.000000D+00 1.000000D+00 1.000000D+00
 Beta  virt Sing. vals= 1.000000D+00 1.000000D+00 1.000000D+00 1.000000D+00 1.000000D+00 1.000000D+00 1.000000D+00 1.000000D+00 1.000000D+00 1.000000D+00
 Beta  virt Sing. vals= 1.000000D+00 1.000000D+00 1.000000D+00 1.000000D+00 1.000000D+00 1.000000D+00 1.000000D+00 1.000000D+00 9.999999D-01 9.999999D-01
 Beta  virt Sing. vals= 9.999999D-01 9.999999D-01 9.999999D-01 9.999999D-01 9.999999D-01 9.999999D-01 9.999999D-01 9.999998D-01 9.999998D-01 9.999997D-01
 Beta  virt Sing. vals= 9.999997D-01 9.999995D-01 9.999994D-01 9.999994D-01 9.999994D-01 9.999991D-01 9.999988D-01 9.999988D-01 9.999988D-01 9.999987D-01
 Beta  virt Sing. vals= 9.999986D-01 9.999986D-01 9.999985D-01 9.999985D-01 9.999982D-01 9.999973D-01 9.999965D-01 9.999965D-01 9.999965D-01 9.999962D-01
 Beta  virt Sing. vals= 9.999962D-01 9.999962D-01 9.999945D-01 9.999942D-01 9.999942D-01 9.999941D-01 9.999941D-01 9.999937D-01 9.999874D-01 9.999841D-01
 Beta  virt Sing. vals= 9.999804D-01 9.999782D-01 9.999782D-01 9.999755D-01 9.999740D-01 9.999740D-01 9.999740D-01 9.999740D-01 9.999740D-01 9.999551D-01
 Beta  virt Sing. vals= 9.999551D-01 9.999520D-01 9.999434D-01 9.999380D-01 9.999380D-01 9.999221D-01 9.999206D-01 9.999168D-01 9.999104D-01 9.999099D-01
 Beta  virt Sing. vals= 9.999099D-01 9.999026D-01 9.999026D-01 9.999022D-01 9.998394D-01 9.998225D-01 9.998225D-01 9.998067D-01 9.998067D-01 9.997998D-01
 Beta  virt Sing. vals= 9.997998D-01 9.997979D-01 9.997979D-01 9.997923D-01 9.997922D-01 9.997922D-01 9.997828D-01 9.997824D-01 9.997824D-01 9.996944D-01
 Beta  virt Sing. vals= 9.996944D-01 9.996799D-01 9.996689D-01 9.996431D-01 9.996431D-01 9.996345D-01 9.995955D-01 9.995955D-01 9.995836D-01 9.995828D-01
 Beta  virt Sing. vals= 9.995828D-01 9.995824D-01 9.995824D-01 9.995813D-01 9.995645D-01 9.995507D-01 9.995282D-01 9.995282D-01 9.994916D-01 9.994916D-01
 Beta  virt Sing. vals= 9.994858D-01 9.994858D-01 9.994806D-01 9.994806D-01 9.994319D-01 9.994319D-01 9.992796D-01 9.991521D-01 9.991521D-01 9.990153D-01
 Beta  virt Sing. vals= 9.990087D-01 9.990087D-01 9.986712D-01 9.985690D-01 9.985690D-01 9.983820D-01 9.983586D-01 9.983586D-01 9.982253D-01 9.982253D-01
 Beta  virt Sing. vals= 9.981794D-01 9.976478D-01 9.976478D-01 9.973363D-01 9.973363D-01 9.972860D-01 9.972000D-01 9.972000D-01 9.971232D-01 9.971232D-01
 Beta  virt Sing. vals= 9.970759D-01 9.970090D-01 9.970090D-01 9.963250D-01 9.960646D-01 9.959380D-01 9.959380D-01 9.959184D-01 9.959184D-01 9.954812D-01
 Beta  virt Sing. vals= 9.953506D-01 9.953506D-01 9.952924D-01 9.952924D-01 9.951960D-01 9.951952D-01 9.951952D-01 9.946623D-01 9.946623D-01 9.945698D-01
 Beta  virt Sing. vals= 9.945698D-01 9.942352D-01 9.942352D-01 9.939908D-01 9.939908D-01 9.939739D-01 9.924853D-01 9.917117D-01 9.916055D-01 9.916055D-01
 Beta  virt Sing. vals= 9.879576D-01 9.847241D-01 9.845899D-01 9.845899D-01 9.830917D-01 9.830841D-01 9.830841D-01 9.824349D-01 9.824349D-01 9.820763D-01
 Beta  virt Sing. vals= 9.820763D-01 9.804985D-01 9.804985D-01 9.800714D-01 9.757336D-01 9.702692D-01 9.684038D-01 9.684038D-01 9.675475D-01 9.675475D-01
 Beta  virt Sing. vals= 9.508229D-01 9.481714D-01 9.481714D-01 9.449891D-01 9.419586D-01 9.373865D-01 9.373865D-01 9.373851D-01 9.360182D-01 9.360182D-01
 Beta  virt Sing. vals= 9.323436D-01 9.323436D-01 9.288663D-01 9.288663D-01 9.282960D-01 9.282960D-01 9.255547D-01 9.255547D-01 9.244694D-01 9.244694D-01
 Beta  virt Sing. vals= 9.227879D-01 9.227879D-01 9.225117D-01 9.225117D-01 9.216164D-01 9.098022D-01 9.021629D-01 9.021629D-01 8.802467D-01 8.503228D-01
 Beta  virt Sing. vals= 8.503228D-01 8.484268D-01 8.484268D-01 8.429082D-01 8.429082D-01 7.953630D-01 7.953630D-01 7.768902D-01 7.560286D-01 4.606710D-01
 Beta  virt NOrbO=   250 NOrbN=   369 NSVal=   238 ThrEig=  0.900000.
 TrMax= 9.999384D-01 PrMax= 9.999190D-01 Trace(Pr)= 2.380000D+02
 Leave Link  804 at Wed Mar 14 07:51:15 2018, MaxMem= 10737418240 cpu:           12994.7 elap:             813.2
 (Enter /home1/apps/gaussian/16rA.03/g16/l913.exe)
 CIDS:  MDV= 10737418240.
 IFCWin=0 IBDFC=1 NFBD=     0     0 NFCmp=     0     0 NFFFC=     0     0
 Amplitudes recovered.
 Using DD4UQ or CC4UQ for all iterations.
 Keep R2 and R3 ints in memory in symmetry-blocked form, NReq=3425134911.
 FoFCou: FMM=F IPFlag=           8 FMFlag=           0 FMFlg1=           0
         NFxFlg=           0 DoJE=F BraDBF=F KetDBF=F FulRan=T
         wScrn=  0.000000 ICntrl=       600 IOpCl=  0 I1Cent=           0 NGrid=           0
         NMat0=    1 NMatS0=  73920 NMatT0=    0 NMatD0=    1 NMtDS0=    0 NMtDT0=    0
 Petite list used in FoFCou.
 CIDS: In Core Option IDoMem=           1.
 CCSD(T)
 =======
 Iterations= 150 Convergence= 0.100D-06
 Produce multiple copies of IABC intergrals
 Iteration Nr.   1
 **********************
 DD1Dir will call FoFMem   1 times, MxPair=       314
 NAB=   104 NAA=    78 NBB=    28.
 Maximum subspace dimension=  5
 A-vector RMS=  2.2227916D-04 Max=  7.8216789D-03 conv= 1.00D-05.
 RLE energy=       -0.9085864770
 DE(Corr)= -0.90848482     E(Corr)=     -120.03520048    
 NORM(A)=   0.12342909D+01
 Iteration Nr.   2
 **********************
 DD1Dir will call FoFMem   1 times, MxPair=       314
 NAB=   104 NAA=    78 NBB=    28.
 A-vector RMS=  1.2134847D-04 Max=  3.2195585D-03 conv= 1.00D-05.
 RLE energy=       -0.9086764086
 DE(Corr)= -0.90868273     E(CORR)=     -120.03539839     Delta=-1.98D-04
 NORM(A)=   0.12359103D+01
 Iteration Nr.   3
 **********************
 DD1Dir will call FoFMem   1 times, MxPair=       314
 NAB=   104 NAA=    78 NBB=    28.
 A-vector RMS=  1.1013050D-04 Max=  2.7481688D-03 conv= 1.00D-05.
 RLE energy=       -0.9090980546
 DE(Corr)= -0.90926225     E(CORR)=     -120.03597791     Delta=-5.80D-04
 NORM(A)=   0.12354908D+01
 Iteration Nr.   4
 **********************
 DD1Dir will call FoFMem   1 times, MxPair=       314
 NAB=   104 NAA=    78 NBB=    28.
 A-vector RMS=  5.0118270D-05 Max=  9.3947202D-04 conv= 1.00D-05.
 RLE energy=       -0.9089146001
 DE(Corr)= -0.90881149     E(CORR)=     -120.03552715     Delta= 4.51D-04
 NORM(A)=   0.12356100D+01
 Iteration Nr.   5
 **********************
 DD1Dir will call FoFMem   1 times, MxPair=       314
 NAB=   104 NAA=    78 NBB=    28.
 A-vector RMS=  3.3491473D-05 Max=  1.0797945D-03 conv= 1.00D-05.
 RLE energy=       -0.9090470888
 DE(Corr)= -0.90908757     E(CORR)=     -120.03580323     Delta=-2.76D-04
 NORM(A)=   0.12358322D+01
 Iteration Nr.   6
 **********************
 DD1Dir will call FoFMem   1 times, MxPair=       314
 NAB=   104 NAA=    78 NBB=    28.
 A-vector RMS=  1.5452511D-05 Max=  4.8688817D-04 conv= 1.00D-05.
 RLE energy=       -0.9090401115
 DE(Corr)= -0.90897436     E(CORR)=     -120.03569003     Delta= 1.13D-04
 NORM(A)=   0.12359532D+01
 Iteration Nr.   7
 **********************
 DD1Dir will call FoFMem   1 times, MxPair=       314
 NAB=   104 NAA=    78 NBB=    28.
 A-vector RMS=  1.0312350D-05 Max=  2.9883967D-04 conv= 1.00D-05.
 RLE energy=       -0.9090422127
 DE(Corr)= -0.90904389     E(CORR)=     -120.03575956     Delta=-6.95D-05
 NORM(A)=   0.12360341D+01
 Iteration Nr.   8
 **********************
 DD1Dir will call FoFMem   1 times, MxPair=       314
 NAB=   104 NAA=    78 NBB=    28.
 A-vector RMS=  3.9388983D-06 Max=  8.2819266D-05 conv= 1.00D-05.
 RLE energy=       -0.9090545933
 DE(Corr)= -0.90905372     E(CORR)=     -120.03576938     Delta=-9.83D-06
 NORM(A)=   0.12360922D+01
 Iteration Nr.   9
 **********************
 DD1Dir will call FoFMem   1 times, MxPair=       314
 NAB=   104 NAA=    78 NBB=    28.
 A-vector RMS=  2.4965225D-06 Max=  4.5306114D-05 conv= 1.00D-05.
 RLE energy=       -0.9090680442
 DE(Corr)= -0.90906027     E(CORR)=     -120.03577593     Delta=-6.54D-06
 NORM(A)=   0.12361068D+01
 Iteration Nr.  10
 **********************
 DD1Dir will call FoFMem   1 times, MxPair=       314
 NAB=   104 NAA=    78 NBB=    28.
 A-vector RMS=  3.3102558D-06 Max=  7.2705649D-05 conv= 1.00D-05.
 RLE energy=       -0.9090552013
 DE(Corr)= -0.90905254     E(CORR)=     -120.03576820     Delta= 7.73D-06
 NORM(A)=   0.12361311D+01
 Iteration Nr.  11
 **********************
 DD1Dir will call FoFMem   1 times, MxPair=       314
 NAB=   104 NAA=    78 NBB=    28.
 A-vector RMS=  2.7142255D-06 Max=  7.1906911D-05 conv= 1.00D-05.
 RLE energy=       -0.9090671720
 DE(Corr)= -0.90907318     E(CORR)=     -120.03578884     Delta=-2.06D-05
 NORM(A)=   0.12361373D+01
 Iteration Nr.  12
 **********************
 DD1Dir will call FoFMem   1 times, MxPair=       314
 NAB=   104 NAA=    78 NBB=    28.
 A-vector RMS=  1.5986286D-06 Max=  5.0680756D-05 conv= 1.00D-05.
 RLE energy=       -0.9090650099
 DE(Corr)= -0.90906043     E(CORR)=     -120.03577609     Delta= 1.28D-05
 NORM(A)=   0.12361411D+01
 Iteration Nr.  13
 **********************
 DD1Dir will call FoFMem   1 times, MxPair=       314
 NAB=   104 NAA=    78 NBB=    28.
 A-vector RMS=  6.5008055D-07 Max=  1.4582240D-05 conv= 1.00D-05.
 RLE energy=       -0.9090651368
 DE(Corr)= -0.90906620     E(CORR)=     -120.03578186     Delta=-5.77D-06
 NORM(A)=   0.12361429D+01
 Iteration Nr.  14
 **********************
 DD1Dir will call FoFMem   1 times, MxPair=       314
 NAB=   104 NAA=    78 NBB=    28.
 A-vector RMS=  5.7982516D-07 Max=  1.4149854D-05 conv= 1.00D-05.
 RLE energy=       -0.9090651951
 DE(Corr)= -0.90906544     E(CORR)=     -120.03578110     Delta= 7.58D-07
 NORM(A)=   0.12361408D+01
 Iteration Nr.  15
 **********************
 DD1Dir will call FoFMem   1 times, MxPair=       314
 NAB=   104 NAA=    78 NBB=    28.
 A-vector RMS=  3.5184754D-07 Max=  6.6403619D-06 conv= 1.00D-05.
 RLE energy=       -0.9090655930
 DE(Corr)= -0.90906556     E(CORR)=     -120.03578122     Delta=-1.16D-07
 NORM(A)=   0.12361382D+01
 Iteration Nr.  16
 **********************
 DD1Dir will call FoFMem   1 times, MxPair=       314
 NAB=   104 NAA=    78 NBB=    28.
 A-vector RMS=  3.0111402D-07 Max=  8.9805099D-06 conv= 1.00D-05.
 RLE energy=       -0.9090641139
 DE(Corr)= -0.90906452     E(CORR)=     -120.03578018     Delta= 1.04D-06
 NORM(A)=   0.12361356D+01
 Iteration Nr.  17
 **********************
 DD1Dir will call FoFMem   1 times, MxPair=       314
 NAB=   104 NAA=    78 NBB=    28.
 A-vector RMS=  3.0203766D-07 Max=  5.9775921D-06 conv= 1.00D-05.
 RLE energy=       -0.9090652385
 DE(Corr)= -0.90906552     E(CORR)=     -120.03578118     Delta=-1.00D-06
 NORM(A)=   0.12361323D+01
 Iteration Nr.  18
 **********************
 DD1Dir will call FoFMem   1 times, MxPair=       314
 NAB=   104 NAA=    78 NBB=    28.
 A-vector RMS=  3.3746007D-07 Max=  1.1558539D-05 conv= 1.00D-05.
 RLE energy=       -0.9090641096
 DE(Corr)= -0.90906336     E(CORR)=     -120.03577902     Delta= 2.16D-06
 NORM(A)=   0.12361303D+01
 Iteration Nr.  19
 **********************
 DD1Dir will call FoFMem   1 times, MxPair=       314
 NAB=   104 NAA=    78 NBB=    28.
 A-vector RMS=  1.2262210D-07 Max=  2.5075553D-06 conv= 1.00D-05.
 RLE energy=       -0.9090640688
 DE(Corr)= -0.90906444     E(CORR)=     -120.03578010     Delta=-1.08D-06
 NORM(A)=   0.12361283D+01
 Iteration Nr.  20
 **********************
 DD1Dir will call FoFMem   1 times, MxPair=       314
 NAB=   104 NAA=    78 NBB=    28.
 A-vector RMS=  9.2864246D-08 Max=  2.2554720D-06 conv= 1.00D-05.
 RLE energy=       -0.9090638634
 DE(Corr)= -0.90906387     E(CORR)=     -120.03577953     Delta= 5.73D-07
 NORM(A)=   0.12361268D+01
 Iteration Nr.  21
 **********************
 DD1Dir will call FoFMem   1 times, MxPair=       314
 NAB=   104 NAA=    78 NBB=    28.
 A-vector RMS=  4.5541658D-08 Max=  9.8956714D-07 conv= 1.00D-05.
 RLE energy=       -0.9090638025
 DE(Corr)= -0.90906385     E(CORR)=     -120.03577951     Delta= 2.28D-08
 NORM(A)=   0.12361256D+01
 CI/CC converged in   21 iterations to DelEn= 2.28D-08 Conv= 1.00D-07 ErrA1= 4.55D-08 Conv= 1.00D-05
 Wavefunction amplitudes converged. E(Corr)=     -120.03577951    
 Dominant configurations:
 ***********************
 Spin Case        I    J    A    B          Value
    AA           13        14           -0.382528D+00
    AA           13        17            0.124416D+00
    AA           13        26           -0.114681D+00
    BB            8         9            0.194615D+00
    BB            8        21            0.107469D+00
 Largest amplitude= 3.83D-01
 Time for triples=    57263.14 seconds.
 T4(CCSD)= -0.56898580D-01
 T5(CCSD)=  0.15468704D-01
 CCSD(T)= -0.12007720938D+03
 Discarding MO integrals.
 Leave Link  913 at Wed Mar 14 09:11:15 2018, MaxMem= 10737418240 cpu:           76726.5 elap:            4799.5
 (Enter /home1/apps/gaussian/16rA.03/g16/l601.exe)
 Copying SCF densities to generalized density rwf, IOpCl= 0 IROHF=1.

 **********************************************************************

            Population analysis using the SCF density.

 **********************************************************************

 Orbital symmetries:
       Occupied  (SG) (PI) (PI) (SG) (SG) (PI) (PI) (SG) (DLTA)
                 (DLTA) (SG) (PI) (PI)
       Virtual   (SG) (PI) (PI) (SG) (SG) (DLTA) (DLTA) (PI) (PI)
                 (SG) (PI) (PI) (SG) (SG) (SG) (DLTA) (DLTA) (PI)
                 (PI) (PI) (PI) (SG) (PI) (PI) (SG) (SG) (SG) (DLTA)
                 (DLTA) (PHI) (PHI) (PI) (PI) (SG) (DLTA) (DLTA)
                 (PI) (PI) (PI) (PI) (SG) (DLTA) (DLTA) (SG) (PI)
                 (PI) (SG) (SG) (PI) (PI) (DLTA) (DLTA) (PI) (PI)
                 (PHI) (PHI) (SG) (DLTA) (DLTA) (PI) (PI) (?A)
                 (?A) (PHI) (PHI) (SG) (DLTA) (DLTA) (SG) (PI)
                 (PI) (PHI) (PHI) (SG) (DLTA) (DLTA) (SG) (PI)
                 (PI) (PI) (PI) (SG) (DLTA) (DLTA) (SG) (PI) (PI)
                 (SG) (PI) (PI) (DLTA) (DLTA) (PI) (PI) (SG) (SG)
                 (PHI) (PHI) (DLTA) (DLTA) (?A) (?A) (PI) (PI)
                 (SG) (PHI) (PHI) (DLTA) (DLTA) (PI) (PI) (PHI)
                 (PHI) (?B) (?B) (?A) (?A) (SG) (?A) (?A) (PI)
                 (PI) (PHI) (PHI) (SG) (DLTA) (DLTA) (DLTA) (DLTA)
                 (DLTA) (DLTA) (PHI) (PHI) (SG) (PI) (PI) (SG)
                 (PI) (PI) (PI) (PI) (DLTA) (DLTA) (SG) (SG) (PI)
                 (PI) (SG) (SG) (DLTA) (DLTA) (PI) (PI) (SG) (PI)
                 (PI) (PHI) (PHI) (DLTA) (DLTA) (PI) (PI) (SG)
                 (SG) (?A) (?A) (PHI) (PHI) (DLTA) (DLTA) (SG)
                 (PI) (PI) (?A) (?A) (PHI) (PHI) (DLTA) (DLTA)
                 (PI) (PI) (SG) (?B) (?B) (?A) (?A) (PHI) (PHI)
                 (PHI) (PHI) (DLTA) (DLTA) (PI) (PI) (DLTA) (DLTA)
                 (SG) (SG) (PI) (PI) (DLTA) (DLTA) (PI) (PI) (SG)
                 (SG) (PI) (PI) (DLTA) (DLTA) (SG) (PI) (PI) (SG)
                 (SG) (DLTA) (DLTA) (PI) (PI) (SG) (PHI) (PHI)
                 (DLTA) (DLTA) (PI) (PI) (SG) (?A) (?A) (PHI) (PHI)
                 (DLTA) (DLTA) (PI) (PI) (SG) (PI) (PI) (PI) (PI)
                 (SG) (SG) (SG) (SG) (?B) (?B) (?A) (?A) (PHI)
                 (PHI) (DLTA) (DLTA) (PI) (PI) (SG) (DLTA) (DLTA)
                 (PI) (PI) (SG) (DLTA) (DLTA) (PI) (PI) (SG) (SG)
                 (SG) (PI) (PI) (SG) (PI) (PI) (SG) (DLTA) (DLTA)
                 (PI) (PI) (SG) (SG) (DLTA) (DLTA) (PHI) (PHI)
                 (SG) (PI) (PI) (SG) (PI) (PI) (SG) (PI) (PI) (SG)
                 (DLTA) (DLTA) (PI) (PI) (SG) (SG) (SG) (DLTA)
                 (DLTA) (PI) (PI) (SG) (PI) (PI) (SG) (PI) (PI)
                 (SG) (SG) (SG) (DLTA) (DLTA) (PI) (PI) (SG) (PI)
                 (PI) (SG) (SG) (PI) (PI) (SG) (SG) (PI) (PI) (SG)
                 (SG) (DLTA) (DLTA) (PI) (PI) (SG) (SG) (PI) (PI)
                 (SG) (SG) (SG) (PI) (PI) (SG) (SG) (SG) (PI) (PI)
                 (SG) (SG) (SG) (PI) (PI) (SG) (SG) (PI) (PI) (SG)
                 (SG) (SG) (SG) (SG) (SG) (SG)
 The electronic state is 6-SG.
 Alpha  occ. eigenvalues --   -4.25435  -2.81195  -2.81195  -2.80712  -1.09395
 Alpha  occ. eigenvalues --   -0.66049  -0.66049  -0.65965  -0.65965  -0.63432
 Alpha  occ. eigenvalues --   -0.34707  -0.34707  -0.32305
 Alpha virt. eigenvalues --   -0.05343   0.01094   0.01094   0.01390   0.03343
 Alpha virt. eigenvalues --    0.05528   0.05528   0.05690   0.05690   0.06366
 Alpha virt. eigenvalues --    0.06754   0.06754   0.10778   0.12572   0.17869
 Alpha virt. eigenvalues --    0.17869   0.17877   0.18025   0.18025   0.20257
 Alpha virt. eigenvalues --    0.20257   0.22419   0.25308   0.25308   0.31101
 Alpha virt. eigenvalues --    0.42756   0.44546   0.45930   0.45930   0.46456
 Alpha virt. eigenvalues --    0.46456   0.48832   0.48832   0.50883   0.51010
 Alpha virt. eigenvalues --    0.51010   0.56972   0.56972   0.60751   0.60751
 Alpha virt. eigenvalues --    0.65028   0.68717   0.68717   0.71184   0.73600
 Alpha virt. eigenvalues --    0.73600   0.84695   1.08683   1.11520   1.11520
 Alpha virt. eigenvalues --    1.31671   1.31671   1.32633   1.32633   1.36422
 Alpha virt. eigenvalues --    1.37260   1.37260   1.38734   1.38734   1.40607
 Alpha virt. eigenvalues --    1.40607   1.43521   1.43521   1.44744   1.44744
 Alpha virt. eigenvalues --    1.47407   1.52434   1.52434   1.57620   1.62497
 Alpha virt. eigenvalues --    1.62497   1.65384   1.65384   1.66686   1.75478
 Alpha virt. eigenvalues --    1.75478   1.80945   1.83168   1.83168   1.95015
 Alpha virt. eigenvalues --    1.95015   1.95400   2.02446   2.02446   2.36800
 Alpha virt. eigenvalues --    2.52096   2.52096   2.60663   3.06854   3.06854
 Alpha virt. eigenvalues --    3.21959   3.21959   3.25626   3.25626   3.30984
 Alpha virt. eigenvalues --    3.61960   3.73282   3.73282   3.75926   3.75926
 Alpha virt. eigenvalues --    3.80435   3.80435   3.84443   3.84443   3.90986
 Alpha virt. eigenvalues --    3.92808   3.92808   3.96215   3.96215   4.16663
 Alpha virt. eigenvalues --    4.16663   4.22519   4.22519   4.24083   4.24083
 Alpha virt. eigenvalues --    4.24650   4.24650   4.26881   4.28566   4.28566
 Alpha virt. eigenvalues --    4.32293   4.32293   4.32433   4.32433   4.35189
 Alpha virt. eigenvalues --    4.42013   4.42013   4.45021   4.45021   4.52312
 Alpha virt. eigenvalues --    4.52312   4.53835   4.53835   4.57214   4.67210
 Alpha virt. eigenvalues --    4.67210   4.82436   5.10573   5.10573   5.18968
 Alpha virt. eigenvalues --    5.18968   5.23390   5.23390   5.28743   5.45910
 Alpha virt. eigenvalues --    6.11656   6.11656   6.23933   6.53278   6.98991
 Alpha virt. eigenvalues --    6.98991   7.09743   7.09743   7.46338   9.52958
 Alpha virt. eigenvalues --    9.52958   9.90841   9.90841   9.95865   9.95865
 Alpha virt. eigenvalues --   10.17985  10.17985  10.43194  10.48328  10.80615
 Alpha virt. eigenvalues --   10.80615  10.83950  10.83950  11.00316  11.00316
 Alpha virt. eigenvalues --   11.07747  11.09695  11.09695  11.16726  11.16726
 Alpha virt. eigenvalues --   11.18197  11.18197  11.27105  11.27105  11.41421
 Alpha virt. eigenvalues --   11.41421  11.60365  11.86002  11.86002  11.86912
 Alpha virt. eigenvalues --   11.86912  11.92931  11.92931  11.96286  11.96286
 Alpha virt. eigenvalues --   11.96586  11.96586  12.04743  12.04743  12.17186
 Alpha virt. eigenvalues --   12.17186  12.18409  12.55963  12.57955  12.57955
 Alpha virt. eigenvalues --   12.86835  12.86835  12.98442  12.98442  13.11316
 Alpha virt. eigenvalues --   13.24705  13.33197  13.33197  13.61738  13.61738
 Alpha virt. eigenvalues --   13.68684  13.71348  13.71348  14.15348  14.93253
 Alpha virt. eigenvalues --   24.87939  24.87939  24.94110  24.94110  25.10897
 Alpha virt. eigenvalues --   25.29430  25.29430  25.33538  25.33538  25.51546
 Alpha virt. eigenvalues --   25.51546  25.87159  27.11699  27.11699  27.12595
 Alpha virt. eigenvalues --   27.12595  27.16339  27.16339  27.29320  27.29320
 Alpha virt. eigenvalues --   27.35975  28.91077  28.91077  29.03270  29.03534
 Alpha virt. eigenvalues --   29.03534  29.30837  29.52900  30.47251  30.61286
 Alpha virt. eigenvalues --   30.61286  30.61589  30.61589  30.63597  30.63597
 Alpha virt. eigenvalues --   30.71510  30.71510  30.81412  30.81412  30.86929
 Alpha virt. eigenvalues --   43.45547  43.45547  43.51675  43.51675  43.71998
 Alpha virt. eigenvalues --   52.15790  52.15790  52.34943  52.34943  52.52698
 Alpha virt. eigenvalues --   54.74133  59.50538  60.35212  60.35212  60.64120
 Alpha virt. eigenvalues --   71.96195  71.96195  72.82804  77.50990  77.50990
 Alpha virt. eigenvalues --   77.56430  77.56430  77.75077 105.50642 111.18292
 Alpha virt. eigenvalues --  111.18292 111.18940 111.18940 111.19752 111.19877
 Alpha virt. eigenvalues --  111.19877 111.38422 121.17261 121.17261 121.41884
 Alpha virt. eigenvalues --  159.02584 159.02584 159.78545 164.47910 164.47910
 Alpha virt. eigenvalues --  164.52282 164.52282 164.67651 197.54306 206.65391
 Alpha virt. eigenvalues --  224.54748 224.54748 224.64920 224.64920 224.74344
 Alpha virt. eigenvalues --  238.70665 238.70665 238.93486 332.78882 332.78882
 Alpha virt. eigenvalues --  333.47758 341.82066 411.46142 422.91418 422.91418
 Alpha virt. eigenvalues --  422.94651 422.94651 423.06467 472.01394 472.01394
 Alpha virt. eigenvalues --  472.22537 590.96857 704.02810 704.02810 704.67396
 Alpha virt. eigenvalues --  835.37772 954.94334 954.94334 955.137171063.36131
 Alpha virt. eigenvalues -- 1345.088011345.088011345.108981345.108981345.18624
 Alpha virt. eigenvalues -- 1733.997312011.212612011.212612011.388082231.03227
 Alpha virt. eigenvalues -- 3700.204354497.974174497.974174498.130426107.18759
 Alpha virt. eigenvalues -- 8177.51959****************************************
 Alpha virt. eigenvalues -- **************************************************
 Alpha virt. eigenvalues -- **************************************************
 Alpha virt. eigenvalues -- ****************************************
     Molecular Orbital Coefficients:
                           4         5         6         7         8
                           O         O         O         O         O
     Eigenvalues --    -2.80712  -1.09395  -0.66049  -0.66049  -0.65965
   1 1   Mn 1S          0.00000  -0.00000   0.00000   0.00000   0.00000
   2        2S         -0.00000   0.00000   0.00000   0.00000  -0.00000
   3        3S          0.00000  -0.00000   0.00000   0.00000   0.00000
   4        4S         -0.00000   0.00000   0.00000   0.00000  -0.00000
   5        5S          0.00000  -0.00000   0.00000   0.00000   0.00000
   6        6S         -0.00000   0.00000   0.00000   0.00000  -0.00000
   7        7S          0.00000  -0.00000   0.00000   0.00000   0.00002
   8        8S         -0.00001   0.00001   0.00000   0.00000  -0.00005
   9        9S          0.00002  -0.00004   0.00000   0.00000   0.00016
  10       10S         -0.00005   0.00012   0.00000   0.00000  -0.00045
  11       11S          0.00012  -0.00031   0.00000   0.00000   0.00119
  12       12S         -0.00029   0.00073   0.00000   0.00000  -0.00282
  13       13S          0.00058  -0.00149   0.00000   0.00000   0.00582
  14       14S         -0.00061   0.00221   0.00000   0.00000  -0.00926
  15       15S         -0.00498   0.00744   0.00000   0.00000  -0.02384
  16       16S          0.03017  -0.05130   0.00000   0.00000   0.18218
  17       17S         -0.03401   0.06098   0.00000   0.00000  -0.19988
  18       18S         -0.07820   0.13901   0.00000   0.00000  -0.42533
  19       19S          0.01245   0.01100   0.00000   0.00000  -0.12055
  20       20S          0.01379  -0.04615   0.00000   0.00000   0.28359
  21       21S         -0.00196   0.01067   0.00000   0.00000   0.25958
  22       22S          0.00396  -0.00110   0.00000   0.00000   0.04329
  23       23S         -0.00700   0.00729   0.00000   0.00000  -0.02763
  24       24S          0.06526  -0.10885   0.00000   0.00000   0.30901
  25       25S         -0.00119   0.00032   0.00000   0.00000   0.00029
  26       26PX         0.00000   0.00000  -0.00000   0.00000   0.00000
  27       26PY         0.00000   0.00000   0.00000  -0.00000   0.00000
  28       26PZ         0.00000  -0.00000   0.00000   0.00000   0.00000
  29       27PX         0.00000   0.00000   0.00000   0.00000   0.00000
  30       27PY         0.00000   0.00000   0.00000   0.00000   0.00000
  31       27PZ        -0.00000   0.00000   0.00000   0.00000  -0.00000
  32       28PX         0.00000   0.00000  -0.00000   0.00000   0.00000
  33       28PY         0.00000   0.00000   0.00000  -0.00000   0.00000
  34       28PZ         0.00002  -0.00000   0.00000   0.00000   0.00000
  35       29PX         0.00000   0.00000   0.00000   0.00000   0.00000
  36       29PY         0.00000   0.00000   0.00000   0.00000   0.00000
  37       29PZ        -0.00009   0.00001   0.00000   0.00000  -0.00000
  38       30PX         0.00000   0.00000  -0.00002   0.00000   0.00000
  39       30PY         0.00000   0.00000   0.00000  -0.00002   0.00000
[...]
 171       62F+3        0.00000   0.00000   0.00000   0.00000
 172       62F-3       -0.00000  -0.00000   0.00000  -0.00000
 173       63F 0        0.00039   0.00025   0.00014   0.00012
 174       63F+1        0.00024   0.00018   0.00006   0.00012
 175       63F-1        0.00024   0.00018   0.00006   0.00012
 176       63F+2        0.00005   0.00005   0.00000   0.00005
 177       63F-2        0.00005   0.00005   0.00000   0.00005
 178       63F+3        0.00000   0.00000   0.00000  -0.00000
 179       63F-3       -0.00000  -0.00000   0.00000  -0.00000
 180       64F 0        0.00483   0.00279   0.00204   0.00075
 181       64F+1        0.00562   0.00330   0.00232   0.00097
 182       64F-1        0.00562   0.00330   0.00232   0.00097
 183       64F+2        0.00021   0.00021  -0.00000   0.00021
 184       64F-2        0.00021   0.00021  -0.00000   0.00021
 185       64F+3        0.00000   0.00000   0.00000   0.00000
 186       64F-3       -0.00000  -0.00000  -0.00000   0.00000
 187       65F 0        0.00050   0.00037   0.00013   0.00023
 188       65F+1        0.00319   0.00189   0.00129   0.00060
 189       65F-1        0.00319   0.00189   0.00129   0.00060
 190       65F+2        0.00005   0.00005   0.00000   0.00005
 191       65F-2        0.00005   0.00005   0.00000   0.00005
 192       65F+3        0.00000   0.00000   0.00000   0.00000
 193       65F-3        0.00000   0.00000   0.00000  -0.00000
 194       66G 0        0.00000   0.00000   0.00000   0.00000
 195       66G+1        0.00000   0.00000   0.00000  -0.00000
 196       66G-1        0.00000   0.00000   0.00000  -0.00000
 197       66G+2       -0.00000  -0.00000  -0.00000  -0.00000
 198       66G-2       -0.00000  -0.00000  -0.00000  -0.00000
 199       66G+3        0.00000   0.00000  -0.00000   0.00000
 200       66G-3        0.00000   0.00000   0.00000   0.00000
 201       66G+4        0.00000   0.00000   0.00000   0.00000
 202       66G-4        0.00000   0.00000   0.00000   0.00000
 203       67G 0        0.00000   0.00000   0.00000   0.00000
 204       67G+1        0.00000   0.00000  -0.00000   0.00000
 205       67G-1        0.00000   0.00000  -0.00000   0.00000
 206       67G+2        0.00000   0.00000  -0.00000   0.00000
 207       67G-2        0.00000   0.00000  -0.00000   0.00000
 208       67G+3        0.00000   0.00000  -0.00000   0.00000
 209       67G-3       -0.00000  -0.00000  -0.00000  -0.00000
 210       67G+4        0.00000   0.00000   0.00000  -0.00000
 211       67G-4       -0.00000  -0.00000   0.00000  -0.00000
 212       68G 0        0.00016   0.00009   0.00007   0.00001
 213       68G+1        0.00016   0.00009   0.00007   0.00002
 214       68G-1        0.00016   0.00009   0.00007   0.00002
 215       68G+2        0.00000   0.00000   0.00000   0.00000
 216       68G-2        0.00000   0.00000   0.00000   0.00000
 217       68G+3       -0.00000  -0.00000  -0.00000   0.00000
 218       68G-3        0.00000   0.00000   0.00000   0.00000
 219       68G+4        0.00000   0.00000   0.00000   0.00000
 220       68G-4        0.00000   0.00000   0.00000   0.00000
 221       69G 0        0.00070   0.00037   0.00033   0.00005
 222       69G+1        0.00194   0.00103   0.00091   0.00012
 223       69G-1        0.00194   0.00103   0.00091   0.00012
 224       69G+2        0.00000   0.00000  -0.00000   0.00000
 225       69G-2        0.00000   0.00000  -0.00000   0.00000
 226       69G+3        0.00000   0.00000   0.00000   0.00000
 227       69G-3        0.00000   0.00000   0.00000  -0.00000
 228       69G+4        0.00000   0.00000  -0.00000   0.00000
 229       69G-4        0.00000   0.00000  -0.00000   0.00000
 230       70H 0        0.00000   0.00000   0.00000   0.00000
 231       70H+1        0.00000   0.00000   0.00000  -0.00000
 232       70H-1        0.00000   0.00000   0.00000  -0.00000
 233       70H+2       -0.00000  -0.00000   0.00000  -0.00000
 234       70H-2       -0.00000  -0.00000   0.00000  -0.00000
 235       70H+3        0.00000   0.00000  -0.00000   0.00000
 236       70H-3        0.00000   0.00000  -0.00000   0.00000
 237       70H+4        0.00000   0.00000   0.00000   0.00000
 238       70H-4        0.00000   0.00000   0.00000   0.00000
 239       70H+5        0.00000   0.00000  -0.00000   0.00000
 240       70H-5       -0.00000  -0.00000  -0.00000  -0.00000
 241       71H 0       -0.00000  -0.00000  -0.00000   0.00000
 242       71H+1       -0.00000  -0.00000  -0.00000   0.00000
 243       71H-1       -0.00000  -0.00000  -0.00000   0.00000
 244       71H+2       -0.00000  -0.00000   0.00000  -0.00000
 245       71H-2       -0.00000  -0.00000   0.00000  -0.00000
 246       71H+3        0.00000  -0.00000   0.00000  -0.00000
 247       71H-3        0.00000   0.00000   0.00000   0.00000
 248       71H+4       -0.00000  -0.00000  -0.00000  -0.00000
 249       71H-4        0.00000   0.00000  -0.00000   0.00000
 250       71H+5       -0.00000  -0.00000  -0.00000  -0.00000
 251       71H-5       -0.00000  -0.00000  -0.00000   0.00000
 252       72H 0        0.00007   0.00004   0.00004  -0.00000
 253       72H+1        0.00010   0.00005   0.00005  -0.00000
 254       72H-1        0.00010   0.00005   0.00005  -0.00000
 255       72H+2        0.00000   0.00000  -0.00000   0.00000
 256       72H-2        0.00000   0.00000  -0.00000   0.00000
 257       72H+3       -0.00000  -0.00000  -0.00000  -0.00000
 258       72H-3        0.00000   0.00000   0.00000   0.00000
 259       72H+4        0.00000   0.00000   0.00000  -0.00000
 260       72H-4        0.00000   0.00000   0.00000   0.00000
 261       72H+5        0.00000   0.00000   0.00000  -0.00000
 262       72H-5        0.00000   0.00000   0.00000   0.00000
 263 2   O  1S         -0.00000  -0.00000  -0.00000  -0.00000
 264        2S          0.00000   0.00000   0.00000   0.00000
 265        3S         -0.00000  -0.00000  -0.00000  -0.00000
 266        4S          0.00000   0.00000   0.00000   0.00000
 267        5S         -0.00001  -0.00001  -0.00001  -0.00000
 268        6S         -0.00094  -0.00047  -0.00047  -0.00000
 269        7S         -0.02100  -0.01051  -0.01049  -0.00002
 270        8S         -0.23202  -0.11610  -0.11591  -0.00019
 271        9S         -0.06747  -0.03376  -0.03371  -0.00005
 272       10S          0.42977   0.21503   0.21474   0.00029
 273       11S          1.07869   0.53957   0.53913   0.00044
 274       12S          0.54320   0.27181   0.27139   0.00041
 275       13S          0.19609   0.09813   0.09797   0.00016
 276       14S          0.00957   0.00479   0.00478   0.00001
 277       15S          0.00033   0.00017   0.00017   0.00000
 278       16S          0.03071   0.01401   0.01670  -0.00269
 279       17PX         0.00016   0.00008   0.00008   0.00000
 280       17PY         0.00016   0.00008   0.00008   0.00000
 281       17PZ         0.00009   0.00005   0.00005   0.00000
 282       18PX        -0.48326  -0.24480  -0.23845  -0.00635
 283       18PY        -0.48326  -0.24480  -0.23845  -0.00635
 284       18PZ        -0.31293  -0.15679  -0.15614  -0.00065
 285       19PX         0.13510   0.06844   0.06666   0.00178
 286       19PY         0.13510   0.06844   0.06666   0.00178
 287       19PZ         0.08516   0.04267   0.04248   0.00019
 288       20PX         0.48750   0.24680   0.24070   0.00609
 289       20PY         0.48750   0.24680   0.24070   0.00609
 290       20PZ         0.32100   0.16074   0.16026   0.00048
 291       21PX         0.70203   0.35425   0.34778   0.00647
 292       21PY         0.70203   0.35425   0.34778   0.00647
 293       21PZ         0.49716   0.24844   0.24872  -0.00028
 294       22PX         0.46537   0.23367   0.23171   0.00196
 295       22PY         0.46537   0.23367   0.23171   0.00196
 296       22PZ         0.34273   0.17266   0.17007   0.00259
 297       23PX         0.50741   0.25704   0.25037   0.00667
 298       23PY         0.50741   0.25704   0.25037   0.00667
 299       23PZ         0.32834   0.16451   0.16383   0.00068
 300       24PX        -0.00027  -0.00014  -0.00013  -0.00000
 301       24PY        -0.00027  -0.00014  -0.00013  -0.00000
 302       24PZ        -0.00014  -0.00007  -0.00007  -0.00000
 303       25PX        -0.00001  -0.00001  -0.00001  -0.00000
 304       25PY        -0.00001  -0.00001  -0.00001  -0.00000
 305       25PZ        -0.00001  -0.00000  -0.00000  -0.00000
 306       26PX         0.05661   0.02872   0.02790   0.00082
 307       26PY         0.05661   0.02872   0.02790   0.00082
 308       26PZ         0.05637   0.02929   0.02708   0.00221
 309       27D 0        0.00004   0.00002   0.00002   0.00000
 310       27D+1        0.00003   0.00002   0.00001   0.00000
 311       27D-1        0.00003   0.00002   0.00001   0.00000
 312       27D+2        0.00000   0.00000   0.00000   0.00000
 313       27D-2        0.00000   0.00000   0.00000   0.00000
 314       28D 0        0.00072   0.00042   0.00031   0.00011
 315       28D+1        0.00039   0.00021   0.00018   0.00004
 316       28D-1        0.00039   0.00021   0.00018   0.00004
 317       28D+2        0.00000   0.00000   0.00000   0.00000
 318       28D-2        0.00000   0.00000   0.00000   0.00000
 319       29D 0        0.00507   0.00282   0.00225   0.00058
 320       29D+1        0.00286   0.00150   0.00135   0.00015
 321       29D-1        0.00286   0.00150   0.00135   0.00015
 322       29D+2        0.00004   0.00004  -0.00000   0.00004
 323       29D-2        0.00004   0.00004  -0.00000   0.00004
 324       30D 0        0.00000   0.00000   0.00000   0.00000
 325       30D+1        0.00000   0.00000   0.00000   0.00000
 326       30D-1        0.00000   0.00000   0.00000   0.00000
 327       30D+2        0.00000   0.00000  -0.00000   0.00000
 328       30D-2        0.00000   0.00000  -0.00000   0.00000
 329       31D 0       -0.00000  -0.00000  -0.00000  -0.00000
 330       31D+1       -0.00000  -0.00000  -0.00000  -0.00000
 331       31D-1       -0.00000  -0.00000  -0.00000  -0.00000
 332       31D+2       -0.00000  -0.00000  -0.00000  -0.00000
 333       31D-2       -0.00000  -0.00000  -0.00000  -0.00000
 334       32D 0        0.00627   0.00316   0.00311   0.00006
 335       32D+1        0.00327   0.00144   0.00183  -0.00039
 336       32D-1        0.00327   0.00144   0.00183  -0.00039
 337       32D+2        0.00005   0.00005   0.00000   0.00005
 338       32D-2        0.00005   0.00005   0.00000   0.00005
 339       33F 0        0.00001   0.00001   0.00000   0.00000
 340       33F+1        0.00001   0.00000   0.00000  -0.00000
 341       33F-1        0.00001   0.00000   0.00000  -0.00000
 342       33F+2        0.00000   0.00000   0.00000   0.00000
 343       33F-2        0.00000   0.00000  -0.00000   0.00000
 344       33F+3       -0.00000   0.00000  -0.00000   0.00000
 345       33F-3        0.00000   0.00000   0.00000   0.00000
 346       34F 0        0.00047   0.00033   0.00014   0.00018
 347       34F+1        0.00026   0.00016   0.00009   0.00007
 348       34F-1        0.00026   0.00016   0.00009   0.00007
 349       34F+2        0.00001   0.00001  -0.00000   0.00001
 350       34F-2        0.00001   0.00001  -0.00000   0.00001
 351       34F+3       -0.00000  -0.00000  -0.00000  -0.00000
 352       34F-3        0.00000   0.00000  -0.00000   0.00000
 353       35F 0        0.00000   0.00000   0.00000   0.00000
 354       35F+1        0.00000   0.00000   0.00000  -0.00000
 355       35F-1        0.00000   0.00000   0.00000  -0.00000
 356       35F+2        0.00000   0.00000   0.00000   0.00000
 357       35F-2        0.00000   0.00000   0.00000   0.00000
 358       35F+3        0.00000  -0.00000   0.00000  -0.00000
 359       35F-3       -0.00000   0.00000  -0.00000   0.00000
 360       36F 0        0.00295   0.00149   0.00147   0.00002
 361       36F+1        0.00049   0.00019   0.00030  -0.00011
 362       36F-1        0.00049   0.00019   0.00030  -0.00011
 363       36F+2        0.00002   0.00002   0.00000   0.00002
 364       36F-2        0.00002   0.00002   0.00000   0.00002
 365       36F+3        0.00000   0.00000   0.00000   0.00000
 366       36F-3       -0.00000  -0.00000  -0.00000  -0.00000
 367       37G 0        0.00000   0.00000   0.00000   0.00000
 368       37G+1        0.00000   0.00000   0.00000   0.00000
 369       37G-1        0.00000   0.00000   0.00000   0.00000
 370       37G+2        0.00000   0.00000   0.00000   0.00000
 371       37G-2        0.00000   0.00000   0.00000   0.00000
 372       37G+3       -0.00000  -0.00000  -0.00000   0.00000
 373       37G-3        0.00000   0.00000   0.00000   0.00000
 374       37G+4       -0.00000  -0.00000  -0.00000  -0.00000
 375       37G-4        0.00000   0.00000  -0.00000   0.00000
 376       38G 0        0.00050   0.00032   0.00018   0.00013
 377       38G+1        0.00013   0.00010   0.00003   0.00007
 378       38G-1        0.00013   0.00010   0.00003   0.00007
 379       38G+2        0.00001   0.00001   0.00000   0.00001
 380       38G-2        0.00001   0.00001   0.00000   0.00001
 381       38G+3       -0.00000  -0.00000  -0.00000   0.00000
 382       38G-3        0.00000   0.00000  -0.00000   0.00000
 383       38G+4        0.00000   0.00000   0.00000  -0.00000
 384       38G-4       -0.00000  -0.00000   0.00000  -0.00000
          Condensed to atoms (all electrons):
               1          2
     1  Mn  13.652372   0.290472
     2  O    0.290472   6.766684
          Atomic-Atomic Spin Densities.
               1          2
     1  Mn   4.981112  -0.020595
     2  O   -0.020595   0.060078
 Mulliken charges and spin densities:
               1          2
     1  Mn   1.057156   4.960517
     2  O   -1.057156   0.039483
 Sum of Mulliken charges =  -0.00000   5.00000
 Mulliken charges and spin densities with hydrogens summed into heavy atoms:
               1          2
     1  Mn   1.057156   4.960517
     2  O   -1.057156   0.039483
 Electronic spatial extent (au):  <R**2>=            103.3394
 Charge=             -0.0000 electrons
 Dipole moment (field-independent basis, Debye):
    X=              0.0000    Y=              0.0000    Z=              9.3020  Tot=              9.3020
 Quadrupole moment (field-independent basis, Debye-Ang):
   XX=            -19.3584   YY=            -19.3584   ZZ=            -25.2835
   XY=              0.0000   XZ=              0.0000   YZ=              0.0000
 Traceless Quadrupole moment (field-independent basis, Debye-Ang):
   XX=              1.9750   YY=              1.9750   ZZ=             -3.9501
   XY=              0.0000   XZ=              0.0000   YZ=              0.0000
 Octapole moment (field-independent basis, Debye-Ang**2):
  XXX=              0.0000  YYY=              0.0000  ZZZ=             27.2506  XYY=              0.0000
  XXY=              0.0000  XXZ=              6.4940  XZZ=              0.0000  YZZ=              0.0000
  YYZ=              6.4940  XYZ=              0.0000
 Hexadecapole moment (field-independent basis, Debye-Ang**3):
 XXXX=            -24.6587 YYYY=            -24.6587 ZZZZ=           -133.1821 XXXY=              0.0000
 XXXZ=              0.0000 YYYX=              0.0000 YYYZ=              0.0000 ZZZX=              0.0000
 ZZZY=              0.0000 XXYY=             -8.2196 XXZZ=            -25.4644 YYZZ=            -25.4644
 XXYZ=              0.0000 YYXZ=              0.0000 ZZXY=              0.0000
 N-N= 2.506628893832D+01 E-N=-3.255627867887D+02  KE= 6.804772444972D+01
 Symmetry A1   KE= 2.767406644552D+01
 Symmetry A2   KE= 6.196812758627D+00
 Symmetry B1   KE= 1.708842259800D+01
 Symmetry B2   KE= 1.708842264835D+01
 Symmetry A1   SP= 2.000000000000D+00
 Symmetry A2   SP= 1.000000000000D+00
 Symmetry B1   SP= 1.000000000000D+00
 Symmetry B2   SP= 1.000000000000D+00
 Orbital energies and kinetic energies (alpha):
                                 1                 2
   4         O                -2.807122          3.407643
   5         O                -1.093946          0.820750
   6         O                -0.660491          1.995846
   7         O                -0.660490          1.995846
   8         O                -0.659654          1.639520
   9         O                -0.659654          6.196813
  10         O                -0.634317          6.196813
  11         O                -0.347071          5.785965
  12         O                -0.347071          6.269770
  13         O                -0.323049          6.269770
  14         V                -0.053434          0.565320
  15         V                 0.010936          0.084292
  16         V                 0.010936          0.084292
  17         V                 0.013895          0.158799
  18         V                 0.033427          0.046593
 Total kinetic energy from orbitals= 9.876685525462D+01
                          Isotropic Fermi Contact Couplings
        Atom                 a.u.       MegaHertz       Gauss      10(-4) cm-1
     1  Mn(55)             0.00028       0.06160       0.02198       0.02055
     2  O(17)              0.00007      -0.00859      -0.00307      -0.00287
 --------------------------------------------------------
       Center         ----  Spin Dipole Couplings  ----
                      3XX-RR        3YY-RR        3ZZ-RR
 --------------------------------------------------------
     1   Atom       -0.152217     -0.152217      0.304435
     2   Atom       -0.066646     -0.066646      0.133291
 --------------------------------------------------------
                        XY            XZ            YZ
 --------------------------------------------------------
     1   Atom        0.000000      0.000000      0.000000
     2   Atom        0.000000      0.000000      0.000000
 --------------------------------------------------------


 ---------------------------------------------------------------------------------
              Anisotropic Spin Dipole Couplings in Principal Axis System
 ---------------------------------------------------------------------------------

       Atom             a.u.   MegaHertz   Gauss  10(-4) cm-1        Axes

              Baa    -0.1522   -20.084    -7.166    -6.699  1.0000  0.0000  0.0000
     1 Mn(55) Bbb    -0.1522   -20.084    -7.166    -6.699 -0.0000  1.0000  0.0000
              Bcc     0.3044    40.168    14.333    13.398  0.0000  0.0000  1.0000
 
              Baa    -0.0666     4.822     1.721     1.609  1.0000  0.0000  0.0000
     2 O(17)  Bbb    -0.0666     4.822     1.721     1.609 -0.0000  1.0000  0.0000
              Bcc     0.1333    -9.645    -3.442    -3.217  0.0000  0.0000  1.0000
 

 ---------------------------------------------------------------------------------

 No NMR shielding tensors so no spin-rotation constants.
 Leave Link  601 at Wed Mar 14 09:11:23 2018, MaxMem= 10737418240 cpu:             113.3 elap:               7.4
 (Enter /home1/apps/gaussian/16rA.03/g16/l9999.exe)
 1\1\GINC-C441-112\SP\ROCCSD(T)-Full\Gen\Mn1O1(6)\AANNABE\14-Mar-2018\0
 \\#P ROCCSD(T)=(maxcyc=150, Full, SaveAmplitudes, ReadAmplitudes)/Gen 
 5d 7f SCF=(maxcycles=300) Integral(NoXCTest) MaxDisk=500GB Pop=Regular
  Pseudo=Read Guess=Read\\MnO\\0,6\Mn,0,0.,0.,0.\O,0,0.,0.,1.9\\Version
 =ES64L-G16RevA.03\State=6-SG\HF=-119.1267157\MP2=-120.0524118\PUHF=-11
 9.1267157\PMP2-0=-120.0524118\CCSD=-120.0357795\CCSD(T)=-120.0772094\R
 MSD=7.108e-09\PG=C*V [C*(O1Mn1)]\\@


 THE UNDERLYING PHYSICAL LAWS NECESSARY FOR THE 
 MATHEMATICAL THEORY OF A LARGE PART OF PHYSICS AND THE
 WHOLE OF CHEMISTRY ARE THUS COMPLETELY KNOWN, AND THE
 DIFFICULTY IS ONLY THAT THE EXACT APPLICATION OF THESE
 LAWS LEADS TO EQUATIONS MUCH TOO COMPLICATED 
 TO BE SOLUBLE.

                                        -- P. A. M. DIRAC, 1929
 Job cpu time:       1 days  1 hours 39 minutes 16.4 seconds.
 Elapsed time:       0 days  1 hours 36 minutes 38.2 seconds.
 File lengths (MBytes):  RWF=  15750 Int=      0 D2E=      0 Chk=     79 Scr=      1
 Normal termination of Gaussian 16 at Wed Mar 14 09:11:25 2018.
